/*--------------------------------*- C++ -*----------------------------------*\
| =========                 |                                                 |
| \\      /  F ield         | OpenFOAM: The Open Source CFD Toolbox           |
|  \\    /   O peration     | Version:  2106                                  |
|   \\  /    A nd           | Website:  www.openfoam.com                      |
|    \\/     M anipulation  |                                                 |
\*---------------------------------------------------------------------------*/
FoamFile
{
    version     2.0;
    format      ascii;
    arch        "LSB;label=32;scalar=64";
    class       surfaceScalarField;
    location    "0.36";
    object      phi;
}
// * * * * * * * * * * * * * * * * * * * * * * * * * * * * * * * * * * * * * //

dimensions      [0 3 -1 0 0 0 0];

oriented        oriented;

internalField   nonuniform List<scalar> 
18840
(
3.37543045691e-05
1.62456954281e-05
2.25359621161e-05
1.12183421151e-05
1.63023783736e-05
6.23358435264e-06
1.28098249985e-05
3.49255282751e-06
1.08065800212e-05
2.00324516126e-06
9.60476917928e-06
1.20181087966e-06
8.85167863597e-06
7.53090515374e-07
8.36503081692e-06
4.86647812221e-07
8.04518627638e-06
3.19844573301e-07
7.83374213723e-06
2.1144417247e-07
7.69428211815e-06
1.39459997713e-07
7.60308039963e-06
9.12017220018e-08
7.54426544059e-06
5.88149090039e-08
7.50707712121e-06
3.7188247689e-08
7.4841891575e-06
2.2887899053e-08
7.47062364416e-06
1.35654911802e-08
7.46302114984e-06
7.60250680863e-09
7.45913843351e-06
3.88272864149e-09
7.45749871331e-06
1.63970712648e-09
7.45714562876e-06
3.53061382974e-10
7.45748297852e-06
-3.37366884871e-10
7.45813404604e-06
-6.51084332234e-10
7.45888600967e-06
-7.52023866454e-10
7.4596196606e-06
-7.33711095358e-10
7.46027611413e-06
-6.5648295845e-10
7.46083258571e-06
-5.56498447209e-10
7.46128680255e-06
-4.5421601869e-10
7.46164707484e-06
-3.60228568004e-10
7.4619262943e-06
-2.79145029559e-10
7.46213853042e-06
-2.12138745631e-10
7.46229710646e-06
-1.58503800795e-10
7.46241375062e-06
-1.16623627595e-10
7.46249829795e-06
-8.45820566482e-11
7.46255872073e-06
-6.04917198953e-11
7.46260133545e-06
-4.26818094578e-11
7.46263097748e-06
-2.9728360412e-11
7.46265129531e-06
-2.04195977904e-11
7.46266503604e-06
-1.38017599592e-11
7.46267419959e-06
-9.18014527079e-12
7.46268021259e-06
-6.01506409806e-12
7.46268407662e-06
-3.89455019833e-12
7.46268659766e-06
-2.50391675473e-12
7.46268812681e-06
-1.51324219433e-12
7.46268901029e-06
-8.71180229651e-13
7.46268951669e-06
-5.3653413397e-13
7.46268983623e-06
-3.52932414121e-13
7.46269006773e-06
-2.3423670723e-13
7.46269028981e-06
-1.71281129895e-13
7.46269052256e-06
-1.57476027196e-13
7.46269075485e-06
-1.84033392925e-13
7.46269099519e-06
-2.13457156491e-13
7.46269124117e-06
-2.44101808638e-13
7.46269152023e-06
-2.90249046285e-13
7.46269184598e-06
-3.67221000268e-13
7.4626922032e-06
-4.3772096408e-13
7.46269258266e-06
-4.60934712884e-13
7.46269300468e-06
-4.53889580586e-13
7.46269347665e-06
-4.6108989843e-13
7.46269397188e-06
-5.00668243923e-13
7.46269446483e-06
-5.36468351382e-13
7.46269497835e-06
-5.65070881938e-13
7.46269556545e-06
-6.16534501806e-13
7.46269623767e-06
-6.86400289723e-13
7.46269697257e-06
-7.26483996204e-13
7.46269774517e-06
-7.12352196695e-13
7.46269854304e-06
-6.97810965255e-13
7.46269936971e-06
-7.40051998874e-13
7.46270024111e-06
-8.26274221711e-13
7.46270117754e-06
-9.12727051084e-13
7.4627021762e-06
-9.74029820472e-13
7.46270322159e-06
-1.00477519145e-12
7.46270430511e-06
-1.02872363636e-12
7.46270542531e-06
-1.07623993856e-12
7.46270656928e-06
-1.1403940738e-12
7.46270773726e-06
-1.18869782918e-12
7.46270897227e-06
-1.21701084451e-12
7.4627103213e-06
-1.25473488258e-12
7.46271175925e-06
-1.29624036771e-12
7.46271321768e-06
-1.29986972646e-12
7.4627146926e-06
-1.28972255679e-12
7.46271622102e-06
-1.34740626607e-12
7.46271779873e-06
-1.47031306495e-12
7.46271940487e-06
-1.56294412101e-12
7.46272106319e-06
-1.58503812079e-12
7.46272282098e-06
-1.61087056886e-12
7.46272465414e-06
-1.69001475954e-12
7.46272650238e-06
-1.76396586512e-12
7.46272837247e-06
-1.8001985667e-12
7.46273029044e-06
-1.83466985918e-12
7.46273225837e-06
-1.87939751123e-12
7.46273427037e-06
-1.91481943884e-12
7.462736327e-06
-1.95288241514e-12
7.46273844849e-06
-2.0352930249e-12
7.46274063947e-06
-2.13818921581e-12
7.46274292798e-06
-2.20969347941e-12
7.46274534232e-06
-2.27772911733e-12
7.46274784184e-06
-2.36668227258e-12
7.46275040675e-06
-2.46098447387e-12
7.462753092e-06
-2.58681639835e-12
7.46275598651e-06
-2.81171823016e-12
7.46275910864e-06
-3.14577969731e-12
7.46276242821e-06
-3.45413851887e-12
7.46276605087e-06
-3.73441722351e-12
7.46277016641e-06
-4.12710618336e-12
7.46277487912e-06
-4.68726835184e-12
7.46278024504e-06
-5.35356887843e-12
7.46278642258e-06
-6.14147331393e-12
7.46279360168e-06
-7.14737348075e-12
7.46280199167e-06
-8.43055434168e-12
7.4628118963e-06
-9.9951773633e-12
7.46282378709e-06
-1.1922230652e-11
7.4628381253e-06
-1.43160925298e-11
7.46285548901e-06
-1.73126206575e-11
7.46287656511e-06
-2.10253548725e-11
7.46290221786e-06
-2.56379050197e-11
7.4629335228e-06
-3.13461282415e-11
7.46297185622e-06
-3.83800438953e-11
7.46301899433e-06
-4.71099026081e-11
7.46307705063e-06
-5.7994560081e-11
7.46314858242e-06
-7.14836420436e-11
7.46323675102e-06
-8.81056277506e-11
7.4633455187e-06
-1.0866279721e-10
7.46347995292e-06
-1.34342213011e-10
7.4636468066e-06
-1.66897685582e-10
7.46385734721e-06
-2.10620446338e-10
7.46411359385e-06
-2.56237886448e-10
7.4644295466e-06
-3.16025264766e-10
7.46482055384e-06
-3.9102710223e-10
7.4653047319e-06
-4.84102279986e-10
7.46590429133e-06
-5.9948937688e-10
7.46664684139e-06
-7.42538743599e-10
7.46756653029e-06
-9.19768504013e-10
7.4687057905e-06
-1.13934965595e-09
7.47011722948e-06
-1.41152258768e-09
7.47186588034e-06
-1.74878666913e-09
7.47403278899e-06
-2.16689425066e-09
7.47671863126e-06
-2.685722336e-09
7.48004865028e-06
-3.32991263572e-09
7.48417877341e-06
-4.13009613089e-09
7.48930309901e-06
-5.1245142015e-09
7.4956645487e-06
-6.36160664712e-09
7.50356702219e-06
-7.90260915974e-09
7.5133916952e-06
-9.82486994308e-09
7.52561880347e-06
-1.22272344071e-08
7.54085516115e-06
-1.52365443267e-08
7.5598722135e-06
-1.90171311758e-08
7.58365624904e-06
-2.37840669998e-08
7.61347817311e-06
-2.98219433702e-08
7.65099242572e-06
-3.75140555298e-08
7.69837909301e-06
-4.73866394584e-08
7.75856280808e-06
-6.01835694477e-08
7.8355713703e-06
-7.70080921459e-08
7.93520335414e-06
-9.96316757831e-08
8.06649503894e-06
-1.31291661028e-07
8.24549884379e-06
-1.79003919639e-07
8.50598185937e-06
-2.60482876082e-07
8.93114983393e-06
-4.25167732592e-07
9.75437881855e-06
-8.23229135941e-07
1.16923411002e-05
-1.93796271494e-06
-5.24507604958e-06
1.69374162107e-05
5.01388822123e-05
1.61068135609e-05
4.4159128897e-05
1.71980943835e-05
3.77598740907e-05
1.26328400744e-05
3.26495144307e-05
8.60291204976e-06
2.89465820875e-05
5.70617749969e-06
2.63676031406e-05
3.78078985675e-06
2.4593885233e-05
2.52680844859e-06
2.33783983371e-05
1.70213476147e-06
2.25473238585e-05
1.15091908302e-06
2.19811569025e-05
7.77611148344e-07
2.15978044583e-05
5.22812321602e-07
2.13405414636e-05
3.48464641193e-07
2.11699439721e-05
2.29412333354e-07
2.10585362675e-05
1.48595905331e-07
2.098718523e-05
9.42388943022e-08
2.0942621732e-05
5.81289431017e-08
2.09157072491e-05
3.45169724599e-08
2.09002074838e-05
1.93824698967e-08
2.08919199954e-05
9.92713611844e-09
2.08880548292e-05
4.21816264515e-09
2.08867851338e-05
9.3227683782e-10
2.08869501194e-05
-8.16087032162e-10
2.08878284014e-05
-1.63034871333e-09
2.08889868498e-05
-1.89223030352e-09
2.08901802321e-05
-1.84987292924e-09
2.08912807796e-05
-1.65698779808e-09
2.08922322794e-05
-1.40559023493e-09
2.08930200107e-05
-1.14782070978e-09
2.08936516345e-05
-9.10700175339e-10
2.08941455343e-05
-7.06014202413e-10
2.08945237945e-05
-5.36758741009e-10
2.08948083258e-05
-4.01186043066e-10
2.08950189283e-05
-2.95285001176e-10
2.08951724935e-05
-2.14238360713e-10
2.0895282926e-05
-1.53296342426e-10
2.08953612905e-05
-1.08210432055e-10
2.08954161457e-05
-7.53448646719e-11
2.08954540151e-05
-5.17131450726e-11
2.0895479793e-05
-3.494049715e-11
2.08954970502e-05
-2.32218998082e-11
2.08955083582e-05
-1.51517043405e-11
2.08955154724e-05
-9.66980917635e-12
2.0895519879e-05
-5.97363024779e-12
2.08955225452e-05
-3.58141672522e-12
2.08955240752e-05
-2.07229663579e-12
2.08955248874e-05
-1.12876128659e-12
2.08955252709e-05
-5.82230492e-13
2.08955255265e-05
-3.66853186883e-13
2.0895525708e-05
-2.62680670075e-13
2.08955258477e-05
-2.78728862296e-13
2.08955259685e-05
-3.60214028406e-13
2.08955260716e-05
-4.57293242482e-13
2.08955261915e-05
-5.41404589962e-13
2.08955263702e-05
-6.13804648113e-13
2.08955265979e-05
-6.81592219543e-13
2.08955268498e-05
-7.52885311738e-13
2.08955271241e-05
-8.02366319553e-13
2.08955274286e-05
-8.29616593429e-13
2.08955277696e-05
-8.72153851183e-13
2.08955281205e-05
-9.46453182846e-13
2.0895528488e-05
-1.01184465339e-12
2.08955289224e-05
-1.05887707574e-12
2.08955294504e-05
-1.11311510569e-12
2.08955300518e-05
-1.18411409547e-12
2.08955306629e-05
-1.24570115271e-12
2.08955312617e-05
-1.29776856815e-12
2.08955318832e-05
-1.3552488175e-12
2.08955325628e-05
-1.4425242226e-12
2.08955333192e-05
-1.54140150754e-12
2.08955341432e-05
-1.64491616539e-12
2.08955349984e-05
-1.74731362891e-12
2.08955358626e-05
-1.83333214273e-12
2.08955367478e-05
-1.90354762024e-12
2.08955376622e-05
-1.98142018697e-12
2.08955386051e-05
-2.05882709357e-12
2.08955396035e-05
-2.09282851873e-12
2.08955407091e-05
-2.09198031998e-12
2.08955419141e-05
-2.13297621152e-12
2.08955431317e-05
-2.24245431037e-12
2.08955443287e-05
-2.35901842992e-12
2.08955455667e-05
-2.45662955986e-12
2.08955468894e-05
-2.58523229225e-12
2.08955482726e-05
-2.75216589263e-12
2.08955496931e-05
-2.88248372834e-12
2.08955511908e-05
-2.94743961348e-12
2.08955527839e-05
-3.02206342771e-12
2.08955544183e-05
-3.14918307035e-12
2.08955560852e-05
-3.28898000115e-12
2.08955578269e-05
-3.41999963686e-12
2.08955596683e-05
-3.55762774401e-12
2.08955615957e-05
-3.70094680491e-12
2.08955636008e-05
-3.84181136046e-12
2.0895565745e-05
-4.00964637097e-12
2.08955680664e-05
-4.23335737531e-12
2.08955705774e-05
-4.49676137887e-12
2.08955733331e-05
-4.80962948507e-12
2.08955763651e-05
-5.22553092989e-12
2.08955796947e-05
-5.74749913579e-12
2.08955833947e-05
-6.31637763717e-12
2.08955876118e-05
-6.98610843425e-12
2.08955924467e-05
-7.84695861092e-12
2.08955979803e-05
-8.98049252424e-12
2.08956043829e-05
-1.03289710077e-11
2.08956119723e-05
-1.18886375753e-11
2.08956210474e-05
-1.37994646767e-11
2.08956318595e-05
-1.61894539835e-11
2.08956447981e-05
-1.91210601692e-11
2.08956603554e-05
-2.27250113972e-11
2.08956790565e-05
-2.7111383259e-11
2.08957013036e-05
-3.22700394356e-11
2.08957282037e-05
-3.88246429172e-11
2.08957621087e-05
-4.82257816407e-11
2.08958040023e-05
-5.91825414145e-11
2.08958556273e-05
-7.2638266105e-11
2.08959192847e-05
-8.92644437446e-11
2.08959978012e-05
-1.09862289651e-10
2.08960946964e-05
-1.35353446665e-10
2.08962144151e-05
-1.66883673787e-10
2.08963624477e-05
-2.05952857176e-10
2.0896545511e-05
-2.54386905946e-10
2.08967718317e-05
-3.14354318694e-10
2.08970515715e-05
-3.88481154398e-10
2.08973973329e-05
-4.80115956463e-10
2.08978241036e-05
-5.93616762757e-10
2.08983480955e-05
-7.34574967585e-10
2.08990021323e-05
-9.10155426242e-10
2.089981447e-05
-1.1281978868e-09
2.09008218275e-05
-1.39840096522e-09
2.09020704622e-05
-1.73288696101e-09
2.09036177228e-05
-2.14698637806e-09
2.09055348683e-05
-2.65983703478e-09
2.09079101475e-05
-3.29515675101e-09
2.09108530926e-05
-4.08227785175e-09
2.09144996815e-05
-5.05778565879e-09
2.09190182049e-05
-6.26712416362e-09
2.09246177567e-05
-7.76667060055e-09
2.09315582887e-05
-9.62671562102e-09
2.09401631932e-05
-1.1935065291e-08
2.09508350422e-05
-1.48017678272e-08
2.09640750907e-05
-1.83646304125e-08
2.09805098312e-05
-2.27965911522e-08
2.10009233271e-05
-2.83161626579e-08
2.10262989173e-05
-3.52005185289e-08
2.10578749005e-05
-4.38030980793e-08
2.10972161756e-05
-5.45778030635e-08
2.11463117073e-05
-6.81126886725e-08
2.12077061696e-05
-8.51783405689e-08
2.12846827215e-05
-1.06798486529e-07
2.13815268612e-05
-1.34358231428e-07
2.15039169634e-05
-1.69776948025e-07
2.16595364818e-05
-2.15803413361e-07
2.18590911286e-05
-2.76562907803e-07
2.21181178542e-05
-3.58658321053e-07
2.2460418133e-05
-4.73591665381e-07
2.29249071759e-05
-6.4349301286e-07
2.35795560091e-05
-9.15131665284e-07
2.45478479503e-05
-1.3934595289e-06
2.60452648902e-05
-2.32064529849e-06
2.83670411996e-05
-4.25973884096e-06
-8.34249745292e-06
3.14644626177e-05
5.35844272661e-05
1.25223869152e-05
5.2916600375e-05
1.78659200952e-05
4.96393017326e-05
1.59101394628e-05
4.58382170579e-05
1.24039965032e-05
4.24428746217e-05
9.10151991626e-06
3.97331593218e-05
6.49050513776e-06
3.76912453797e-05
4.56872241162e-06
3.62011670709e-05
3.19221307948e-06
3.51355936597e-05
2.21649247394e-06
3.43848446147e-05
1.5283602263e-06
3.38626590015e-05
1.04499786334e-06
3.35040065877e-05
7.07116960128e-07
3.32609625259e-05
4.72456294404e-07
3.30987204836e-05
3.10837887264e-07
3.29922905195e-05
2.00668851602e-07
3.29239193575e-05
1.26500066453e-07
3.28811294745e-05
7.73068514201e-08
3.28552509096e-05
4.52610577392e-08
3.28403344064e-05
2.48436326399e-08
3.28323544711e-05
1.21980758789e-08
3.28286285582e-05
4.65815760047e-09
3.28274046075e-05
4.07851291092e-10
3.28275640212e-05
-1.78976781866e-09
3.28284100329e-05
-2.73828555218e-09
3.28295261054e-05
-2.96596783817e-09
3.28306757591e-05
-2.80662994041e-09
3.2831735911e-05
-2.46569879902e-09
3.2832652434e-05
-2.06426880721e-09
3.28334111344e-05
-1.66934901909e-09
3.28340194481e-05
-1.3143130529e-09
3.28344950799e-05
-1.01241598266e-09
3.28348593085e-05
-7.65471753937e-10
3.28351332679e-05
-5.69309445445e-10
3.28353360156e-05
-4.17089067695e-10
3.28354838472e-05
-3.01245145129e-10
3.28355901511e-05
-2.14579390672e-10
3.28356655352e-05
-1.50764776096e-10
3.2835718246e-05
-1.04445351807e-10
3.28357545591e-05
-7.12772408824e-11
3.28357791991e-05
-4.78527862588e-11
3.28357956439e-05
-3.15561385113e-11
3.28358063926e-05
-2.04038127334e-11
3.28358132564e-05
-1.28877556174e-11
3.28358175206e-05
-7.91203704087e-12
3.28358201027e-05
-4.70377482226e-12
3.28358216573e-05
-2.70281931034e-12
3.28358225965e-05
-1.49219778776e-12
3.28358230543e-05
-7.96766055217e-13
3.28358232187e-05
-4.15053037509e-13
3.28358232871e-05
-3.48925650208e-13
3.2835823314e-05
-3.96089744494e-13
3.28358233121e-05
-4.93065686748e-13
3.28358233134e-05
-6.04210786868e-13
3.28358233651e-05
-6.93836092917e-13
3.28358234709e-05
-7.79181064877e-13
3.28358236047e-05
-8.66258687208e-13
3.28358237571e-05
-9.61902767608e-13
3.28358239192e-05
-1.04832159358e-12
3.28358241067e-05
-1.13497994879e-12
3.28358243135e-05
-1.23468766234e-12
3.2835824534e-05
-1.33400633094e-12
3.28358248112e-05
-1.40059028507e-12
3.28358251766e-05
-1.43247822462e-12
3.28358256092e-05
-1.46045768049e-12
3.28358260386e-05
-1.53611666159e-12
3.28358264418e-05
-1.64278247677e-12
3.28358268526e-05
-1.74877836859e-12
3.28358273278e-05
-1.86745470855e-12
3.28358278711e-05
-1.99042082893e-12
3.28358284659e-05
-2.11321552196e-12
3.28358290851e-05
-2.24557183213e-12
3.28358297072e-05
-2.37280856021e-12
3.28358303397e-05
-2.47329266022e-12
3.28358310021e-05
-2.55136621628e-12
3.28358317e-05
-2.62232769228e-12
3.283583243e-05
-2.6788320848e-12
3.28358332185e-05
-2.71770549516e-12
3.28358340903e-05
-2.78789966011e-12
3.28358350003e-05
-2.93175652791e-12
3.28358358929e-05
-3.10944372791e-12
3.28358367953e-05
-3.26393381735e-12
3.28358377771e-05
-3.41503400539e-12
3.28358388528e-05
-3.60343558883e-12
3.28358399688e-05
-3.79752714306e-12
3.28358411145e-05
-3.94277344449e-12
3.28358423377e-05
-4.0700410453e-12
3.28358436356e-05
-4.24164754523e-12
3.28358449889e-05
-4.45314429e-12
3.28358464122e-05
-4.67115150655e-12
3.28358479361e-05
-4.9007412749e-12
3.28358495668e-05
-5.16742116311e-12
3.28358512997e-05
-5.4716729397e-12
3.28358532079e-05
-5.80906065212e-12
3.2835855348e-05
-6.20796912928e-12
3.28358577222e-05
-6.69644298182e-12
3.2835860389e-05
-7.30637530546e-12
3.2835863422e-05
-8.09406632048e-12
3.28358668707e-05
-9.07359212413e-12
3.28358707188e-05
-1.0171700684e-11
3.28358750928e-05
-1.14210767992e-11
3.28358804995e-05
-1.32835412599e-11
3.28358869957e-05
-1.54590977664e-11
3.28358947666e-05
-1.81288941863e-11
3.2835904172e-05
-2.13628851429e-11
3.28359156705e-05
-2.53138391648e-11
3.28359297165e-05
-3.0231785455e-11
3.28359468662e-05
-3.63492970584e-11
3.28359679436e-05
-4.39090112093e-11
3.28359940024e-05
-5.32396795965e-11
3.28360265285e-05
-6.48068046383e-11
3.28360668472e-05
-7.91924267176e-11
3.2836115619e-05
-9.70429917982e-11
3.28361755185e-05
-1.19133981336e-10
3.28362493053e-05
-1.46437899556e-10
3.28363402889e-05
-1.80223044582e-10
3.28364526051e-05
-2.22099517067e-10
3.28365912964e-05
-2.73989514718e-10
3.28367626398e-05
-3.38228569029e-10
3.2836974471e-05
-4.1775194774e-10
3.28372364402e-05
-5.16229237775e-10
3.28375604144e-05
-6.38181745618e-10
3.28379610609e-05
-7.89104910478e-10
3.28384567781e-05
-9.75868722297e-10
3.28390704653e-05
-1.20725490755e-09
3.28398301752e-05
-1.49424275568e-09
3.28407700281e-05
-1.85001624579e-09
3.28419331842e-05
-2.29141045916e-09
3.28433732365e-05
-2.83848310844e-09
3.28451564892e-05
-3.51612457512e-09
3.28473648454e-05
-4.35542533033e-09
3.2850099943e-05
-5.39505536689e-09
3.28534876391e-05
-6.68299495511e-09
3.28576838838e-05
-8.27868704132e-09
3.28628823118e-05
-1.02561020007e-08
3.28693228063e-05
-1.2707370816e-08
3.28773031683e-05
-1.57468955575e-08
3.28871933874e-05
-1.95170022859e-08
3.28994533458e-05
-2.41952767428e-08
3.29146554599e-05
-3.00040019222e-08
3.29335123219e-05
-3.72216428453e-08
3.29569130993e-05
-4.61975816338e-08
3.29859693297e-05
-5.73725284067e-08
3.30220733293e-05
-7.13047608201e-08
3.30669751541e-05
-8.87049873357e-08
3.31228817933e-05
-1.10484489987e-07
3.3192590398e-05
-1.37821345948e-07
3.32796676287e-05
-1.72255268333e-07
3.33886957196e-05
-2.15826398554e-07
3.35256227861e-05
-2.71285079308e-07
3.36982710542e-05
-3.42424817065e-07
3.39171049784e-05
-4.34637090805e-07
3.41964373869e-05
-5.55895180341e-07
3.45563758006e-05
-7.18596702457e-07
3.5025994786e-05
-9.43210445568e-07
3.5648285294e-05
-1.26578320833e-06
3.64867219273e-05
-1.75356844198e-06
3.76293338987e-05
-2.53607165266e-06
3.91688769566e-05
-3.86018821891e-06
4.1080679039e-05
-6.17154045704e-06
-1.0106720024e-05
4.28449015171e-05
5.35705206769e-05
8.95186694113e-06
5.55863052266e-05
1.58501344073e-05
5.52410590276e-05
1.62553862481e-05
5.35976158402e-05
1.4047439562e-05
5.15429059393e-05
1.11562298189e-05
4.9581940455e-05
8.45147061229e-06
4.79262512692e-05
6.22441162551e-06
4.66200399367e-05
4.49842439296e-06
4.56322340052e-05
3.20429834722e-06
4.49066878575e-05
2.2539063762e-06
4.43854424737e-05
1.56624318997e-06
4.40178330877e-05
1.07472624461e-06
4.37629125511e-05
7.27376744982e-07
4.35890450298e-05
4.84705333615e-07
4.34725018235e-05
3.17212047365e-07
4.33958688058e-05
2.03133066675e-07
4.33465907759e-05
1.26584863282e-07
4.33157566605e-05
7.60951805192e-08
4.32971352047e-05
4.34650966164e-08
4.3286433613e-05
2.28996965763e-08
4.32807402819e-05
1.03514930055e-08
4.32781175042e-05
3.03061731898e-09
4.32772908015e-05
-9.63047629642e-10
4.32774552749e-05
-2.90275269053e-09
4.3278106645e-05
-3.61735384433e-09
4.32789446356e-05
-3.64465337168e-09
4.32797996033e-05
-3.32071299214e-09
4.32805839646e-05
-2.84864835194e-09
4.3281259803e-05
-2.34518947435e-09
4.32818179316e-05
-1.87245407574e-09
4.32822645944e-05
-1.45912327623e-09
4.32826132944e-05
-1.11423871791e-09
4.32828799853e-05
-8.36047997185e-10
4.32830803322e-05
-6.17480602559e-10
4.32832284359e-05
-4.49395190962e-10
4.32833363133e-05
-3.22486044133e-10
4.3283413794e-05
-2.28234029527e-10
4.32834686721e-05
-1.59292874876e-10
4.32835069825e-05
-1.09580592754e-10
4.32835333444e-05
-7.42060256948e-11
4.32835512105e-05
-4.93933599757e-11
4.328356309e-05
-3.22695786907e-11
4.32835708048e-05
-2.06363069332e-11
4.32835756724e-05
-1.28635380725e-11
4.32835786464e-05
-7.76517149961e-12
4.32835803938e-05
-4.50128668661e-12
4.32835813764e-05
-2.49856566903e-12
4.32835819099e-05
-1.3693002124e-12
4.32835822312e-05
-7.80898936265e-13
4.32835823598e-05
-5.21328035804e-13
4.32835824023e-05
-4.18908015961e-13
4.32835823796e-05
-4.19522308938e-13
4.32835823306e-05
-5.01620560808e-13
4.32835822895e-05
-6.04259241252e-13
4.32835822455e-05
-6.82577599742e-13
4.32835822232e-05
-7.92903182402e-13
4.32835821944e-05
-9.33263599302e-13
4.32835821442e-05
-1.06573014874e-12
4.32835820933e-05
-1.16924911372e-12
4.32835820754e-05
-1.2735532747e-12
4.32835821008e-05
-1.39377228475e-12
4.32835821675e-05
-1.49657841329e-12
4.32835822737e-05
-1.55755158834e-12
4.32835824011e-05
-1.60777690805e-12
4.32835825191e-05
-1.67936906201e-12
4.32835826186e-05
-1.78067690589e-12
4.32835827511e-05
-1.8705636572e-12
4.3283582923e-05
-1.96360945276e-12
4.32835831312e-05
-2.06780140887e-12
4.32835833739e-05
-2.18694085038e-12
4.32835836336e-05
-2.32937780955e-12
4.32835838926e-05
-2.48078717094e-12
4.32835841447e-05
-2.6088086038e-12
4.32835844042e-05
-2.69665560187e-12
4.32835846894e-05
-2.77212130885e-12
4.32835849943e-05
-2.86164065918e-12
4.3283585316e-05
-2.95061575641e-12
4.32835856845e-05
-3.03838702191e-12
4.32835861044e-05
-3.17460037229e-12
4.32835865314e-05
-3.37812773895e-12
4.32835869439e-05
-3.58736693911e-12
4.32835873925e-05
-3.75616746867e-12
4.32835879344e-05
-3.92973577641e-12
4.32835885403e-05
-4.15921382761e-12
4.32835891593e-05
-4.39979226871e-12
4.32835898165e-05
-4.59762806753e-12
4.32835905449e-05
-4.80089261702e-12
4.32835913502e-05
-5.07181207889e-12
4.32835922343e-05
-5.39142785532e-12
4.32835932197e-05
-5.72888954587e-12
4.32835943328e-05
-6.11471767658e-12
4.32835955792e-05
-6.58620419417e-12
4.32835970194e-05
-7.13681246002e-12
4.32835987231e-05
-7.78225724284e-12
4.3283600706e-05
-8.57790624815e-12
4.32836030276e-05
-9.56272557489e-12
4.32836058143e-05
-1.07830183081e-11
4.32836092232e-05
-1.23185097004e-11
4.32836134069e-05
-1.42266280103e-11
4.32836184635e-05
-1.65414353866e-11
4.32836243634e-05
-1.92831414017e-11
4.32836315267e-05
-2.26545095396e-11
4.32836402626e-05
-2.68573976808e-11
4.32836509025e-05
-3.20441569764e-11
4.32836639389e-05
-3.84055981688e-11
4.32836799564e-05
-4.62925280986e-11
4.32836996217e-05
-5.60871564912e-11
4.32837238104e-05
-6.81833678831e-11
4.32837535952e-05
-8.31191293355e-11
4.3283790314e-05
-1.01584012018e-10
4.32838356315e-05
-1.24532848514e-10
4.32838916683e-05
-1.53066678103e-10
4.3283960949e-05
-1.88358056349e-10
4.32840465346e-05
-2.31984465202e-10
4.32841522338e-05
-2.85932736954e-10
4.32842828889e-05
-3.52706156366e-10
4.32844444069e-05
-4.35452910691e-10
4.32846440887e-05
-5.37936666882e-10
4.32848910529e-05
-6.6475615794e-10
4.32851965818e-05
-8.21728507406e-10
4.32855746157e-05
-1.01608246724e-09
4.32860423285e-05
-1.2567249666e-09
4.32866211233e-05
-1.55464504172e-09
4.32873376162e-05
-1.92365213109e-09
4.32882244655e-05
-2.38105072012e-09
4.32893222431e-05
-2.94787680101e-09
4.32906811144e-05
-3.65035359544e-09
4.32923632806e-05
-4.52066828743e-09
4.32944458963e-05
-5.59870792177e-09
4.32970244125e-05
-6.9339846943e-09
4.33002172846e-05
-8.58793131979e-09
4.33041712538e-05
-1.06368899916e-08
4.3309067947e-05
-1.31754522556e-08
4.33151327398e-05
-1.63209927217e-08
4.33226450509e-05
-2.02196654894e-08
4.33319515721e-05
-2.5053259044e-08
4.33434826445e-05
-3.10479213923e-08
4.33577725725e-05
-3.84854193563e-08
4.33754859402e-05
-4.77176172043e-08
4.33974494572e-05
-5.91851238189e-08
4.34246926647e-05
-7.34407014913e-08
4.34585001003e-05
-9.11799404854e-08
4.35004771396e-05
-1.13281903379e-07
4.35526352248e-05
-1.40863143695e-07
4.3617501417e-05
-1.75350752215e-07
4.36982624645e-05
-2.18582465569e-07
4.37989556229e-05
-2.72948374051e-07
4.39247245327e-05
-3.41595442978e-07
4.40821705602e-05
-4.28731197101e-07
4.42798396918e-05
-5.40093799522e-07
4.45289099817e-05
-6.83707171629e-07
4.48441638244e-05
-8.71148756141e-07
4.52453313051e-05
-1.11976416871e-06
4.57587781769e-05
-1.45665703846e-06
4.64189757152e-05
-1.92598030114e-06
4.72674467299e-05
-2.60203911379e-06
4.83421936418e-05
-3.61081833023e-06
4.9639619187e-05
-5.15761370909e-06
5.10091850061e-05
-7.54110619387e-06
-1.10583355315e-05
5.19608002254e-05
5.2760609128e-05
6.19125854729e-06
5.57402402627e-05
1.2870502236e-05
5.73124120808e-05
1.46832148717e-05
5.76111979139e-05
1.37486536448e-05
5.71338686018e-05
1.16335591329e-05
5.63199840957e-05
9.26535506744e-06
5.54496450336e-05
7.09475071589e-06
5.46637030189e-05
5.28436641156e-06
5.40144131427e-05
3.85358814644e-06
5.35068425878e-05
2.76147687105e-06
5.31248780983e-05
1.94820761684e-06
5.28455240669e-05
1.35408019583e-06
5.26458878652e-05
9.27012864526e-07
5.2506075202e-05
6.24517914422e-07
5.24099975659e-05
4.13289660751e-07
5.23452160476e-05
2.67914580871e-07
5.23024110835e-05
1.69389811664e-07
5.22747662007e-05
1.03740083841e-07
5.22573940199e-05
6.0837316579e-08
5.22468519721e-05
3.34418062579e-08
5.22407557254e-05
1.64477928504e-08
5.22374827018e-05
6.30364803599e-09
5.22359414462e-05
5.78212971806e-10
5.22354261131e-05
-2.38743928147e-09
5.22354780096e-05
-3.6693047703e-09
5.2235812848e-05
-3.97956177561e-09
5.22362601263e-05
-3.76807168217e-09
5.22367230003e-05
-3.31157390649e-09
5.22371508781e-05
-2.77309600916e-09
5.22375213236e-05
-2.24293043946e-09
5.22378282813e-05
-1.76611987545e-09
5.22380745607e-05
-1.36056568125e-09
5.22382672369e-05
-1.0287469124e-09
5.22384148554e-05
-7.65092905819e-10
5.22385259072e-05
-5.60450246795e-10
5.2238608108e-05
-4.04698843718e-10
5.22386680605e-05
-2.8817434911e-10
5.22387111743e-05
-2.02372586834e-10
5.22387417523e-05
-1.40111149598e-10
5.22387631241e-05
-9.55610870546e-11
5.22387778409e-05
-6.41220274814e-11
5.22387878141e-05
-4.22541433233e-11
5.22387944386e-05
-2.72935758918e-11
5.22387987357e-05
-1.72239002279e-11
5.22388014565e-05
-1.05768903092e-11
5.22388031473e-05
-6.291338008e-12
5.22388041797e-05
-3.61141396599e-12
5.22388047772e-05
-2.00397462834e-12
5.22388050614e-05
-1.08212708075e-12
5.22388051417e-05
-5.746325303e-13
5.22388050691e-05
-3.5000137435e-13
5.22388049523e-05
-2.98724837841e-13
5.2238804827e-05
-3.62593520935e-13
5.22388046935e-05
-4.70910097707e-13
5.22388045977e-05
-5.68754917715e-13
5.22388045142e-05
-6.86112573692e-13
5.22388044205e-05
-8.36637166055e-13
5.22388042994e-05
-1.00976000605e-12
5.22388041591e-05
-1.17223077771e-12
5.22388040376e-05
-1.29484137105e-12
5.22388039588e-05
-1.38974183729e-12
5.22388039242e-05
-1.45927337548e-12
5.22388039091e-05
-1.50661923831e-12
5.22388038868e-05
-1.53912007849e-12
5.22388038551e-05
-1.58338447404e-12
5.22388038207e-05
-1.66540978384e-12
5.22388037965e-05
-1.77532023379e-12
5.22388037865e-05
-1.89899069715e-12
5.22388037916e-05
-2.02902963211e-12
5.22388038201e-05
-2.16104104625e-12
5.22388038771e-05
-2.28784282511e-12
5.22388039473e-05
-2.40327018457e-12
5.22388040059e-05
-2.50787899662e-12
5.22388040473e-05
-2.60746083688e-12
5.22388040985e-05
-2.71038211715e-12
5.22388041711e-05
-2.82603917497e-12
5.2238804242e-05
-2.95018146399e-12
5.22388043136e-05
-3.06830735208e-12
5.22388044181e-05
-3.19359132704e-12
5.22388045597e-05
-3.36703543861e-12
5.22388047072e-05
-3.58951743915e-12
5.22388048527e-05
-3.80634837913e-12
5.22388050472e-05
-3.97706543875e-12
5.22388053151e-05
-4.13967421333e-12
5.22388056222e-05
-4.35038956443e-12
5.22388059362e-05
-4.61701366157e-12
5.22388062705e-05
-4.9171246058e-12
5.22388066659e-05
-5.25759230402e-12
5.22388071384e-05
-5.66336118274e-12
5.22388076914e-05
-6.13290191408e-12
5.2238808347e-05
-6.64977425422e-12
5.22388091111e-05
-7.22873801189e-12
5.22388100283e-05
-7.91433291925e-12
5.22388111826e-05
-8.7715717665e-12
5.22388126251e-05
-9.87209000429e-12
5.22388143954e-05
-1.12581528649e-11
5.22388165723e-05
-1.29429094997e-11
5.22388193169e-05
-1.49763101125e-11
5.22388227581e-05
-1.74970866247e-11
5.22388269655e-05
-2.06547696072e-11
5.22388321998e-05
-2.45516270418e-11
5.22388387592e-05
-2.92802184663e-11
5.22388469635e-05
-3.50831385917e-11
5.2238857178e-05
-4.22825253847e-11
5.22388698657e-05
-5.11779048705e-11
5.22388856605e-05
-6.21676083727e-11
5.22389053003e-05
-7.57698272426e-11
5.22389297024e-05
-9.26131883438e-11
5.22389600047e-05
-1.13438698847e-10
5.22389975893e-05
-1.39201083626e-10
5.22390441309e-05
-1.71098122007e-10
5.22391016979e-05
-2.106246072e-10
5.22391729623e-05
-2.59532253521e-10
5.22392611479e-05
-3.20056557323e-10
5.22393701936e-05
-3.94953510318e-10
5.22395050966e-05
-4.87624118161e-10
5.22396720572e-05
-6.02385608932e-10
5.2239878691e-05
-7.44505977535e-10
5.22401343949e-05
-9.20431421731e-10
5.22404508713e-05
-1.13820005175e-09
5.22408426353e-05
-1.4077883032e-09
5.22413275702e-05
-1.74160479837e-09
5.22419278288e-05
-2.1549351825e-09
5.22426709314e-05
-2.66680406731e-09
5.22435908275e-05
-3.30092699665e-09
5.22447296153e-05
-4.08656339901e-09
5.22461393236e-05
-5.05993968655e-09
5.22478843933e-05
-6.26569137375e-09
5.2250044792e-05
-7.75909446582e-09
5.22527194557e-05
-9.60875041277e-09
5.22560310559e-05
-1.18996790098e-08
5.22601316864e-05
-1.47374318974e-08
5.22652094844e-05
-1.82530293568e-08
5.22714975471e-05
-2.26089613773e-08
5.22792848767e-05
-2.80070837094e-08
5.22889299175e-05
-3.46983805682e-08
5.23008772096e-05
-4.2995145258e-08
5.23156779805e-05
-5.328626572e-08
5.23340167149e-05
-6.60565498992e-08
5.23567436155e-05
-8.19121226152e-08
5.2384915262e-05
-1.01612365891e-07
5.24198462029e-05
-1.26110798319e-07
5.24631735749e-05
-1.56609291244e-07
5.25169395276e-05
-1.94629195484e-07
5.25836955298e-05
-2.4210667409e-07
5.26666355702e-05
-3.01522368807e-07
5.2769767828e-05
-3.7608058484e-07
5.2898135946e-05
-4.69963576558e-07
5.30581051091e-05
-5.88700310854e-07
5.32577286629e-05
-7.39717182398e-07
5.35072067366e-05
-9.33185080214e-07
5.38194203445e-05
-1.18336226281e-06
5.42104311555e-05
-1.51077491629e-06