/*--------------------------------*- C++ -*----------------------------------*\
| =========                 |                                                 |
| \\      /  F ield         | OpenFOAM: The Open Source CFD Toolbox           |
|  \\    /   O peration     | Version:  2106                                  |
|   \\  /    A nd           | Website:  www.openfoam.com                      |
|    \\/     M anipulation  |                                                 |
\*---------------------------------------------------------------------------*/
FoamFile
{
    version     2.0;
    format      ascii;
    arch        "LSB;label=32;scalar=64";
    class       volScalarField;
    location    "0.355";
    object      p;
}
// * * * * * * * * * * * * * * * * * * * * * * * * * * * * * * * * * * * * * //

dimensions      [0 2 -2 0 0 0 0];

internalField   nonuniform List<scalar> 
11200
(
150.134954436
147.206352246
146.092500304
145.565167346
145.197835447
144.903054564
144.641408072
144.392866834
144.148345656
143.903274933
143.654957555
143.40163886
143.142086858
142.875365974
142.600709342
142.317443533
142.024942708
141.722600844
141.40981907
141.086009159
140.750547263
140.40278427
140.042061751
139.667711781
139.279048741
138.875371309
138.455963302
138.02009435
137.567020629
137.095985482
136.60621999
136.096943425
135.567363462
135.016676288
134.444067288
133.848712277
133.229777288
132.586418789
131.91778412
131.223011925
130.501232469
129.751567864
128.973132266
128.165031966
127.326365334
126.456222578
125.553685305
124.617825745
123.647705637
122.642374651
121.600868272
120.522204958
119.405382418
118.249372815
117.05311661
115.815514725
114.535418623
113.211617779
111.842823893
110.427650996
108.964590449
107.451979334
105.887960249
104.270432565
102.596986252
100.864816018
99.0706114236
97.2104124297
95.2794149029
93.2717041165
91.1798909616
88.9946158704
86.7036802543
84.2908977311
81.734182351
79.0018738465
76.0463720172
72.7950995636
69.0943261717
64.3310298683
148.341912646
146.983738141
146.192765539
145.692749459
145.301759003
144.977873908
144.693349974
144.428744782
144.173253897
143.920728963
143.667342705
143.41058156
143.1487085
142.880447063
142.60479681
142.320922905
142.028087927
141.725609008
141.412827639
141.089081883
140.753721449
140.406070753
140.045486004
139.671298979
139.282813634
138.879322924
138.460107836
138.024436173
137.571562823
137.100730144
136.61116823
136.102094806
135.57271566
135.022230667
134.44982711
133.854680845
133.235957619
132.592813862
131.92439693
131.229845539
130.508290099
129.758852937
128.980648529
128.172783597
127.334357077
126.464459934
125.562174721
124.626574873
123.656723653
122.651672644
121.610459712
120.532106271
119.415613714
118.259958781
117.064087625
115.826908235
114.547280834
113.224005772
111.855808236
110.441319171
108.979051447
107.46736975
105.904450328
104.288230145
102.616341431
100.886043689
99.0941213867
97.2367370692
95.3092513576
93.3059795643
91.2198528613
89.0419149573
86.7606183789
84.3608272763
81.8221464642
79.1160676021
76.2017925512
73.0214876566
69.4723640446
65.3595711624
147.346722506
146.692521689
146.140164828
145.702545321
145.330919315
145.008815044
144.719712415
144.449475626
144.189009733
143.932525919
143.676139238
143.417168016
143.153700225
142.884308898
142.607872955
142.323463756
142.030271642
141.727557976
141.414624399
141.090793973
140.755404535
140.407816404
140.047285473
139.673158015
139.28474189
138.8813275
138.462193528
138.026606699
137.573821599
137.103080817
136.613615278
136.104644996
135.575379169
135.025010546
134.452721225
133.857689507
133.239082254
132.596056415
131.927760201
131.233333161
130.511906562
129.762603661
128.984540034
128.176823717
127.338555208
126.468827379
125.566725123
124.631324727
123.661692944
122.656885634
121.615945938
120.537901736
119.421762333
118.266514147
117.071115161
115.834487815
114.555510029
113.233004
111.865721886
110.452327798
108.991374704
107.481275719
105.920266775
104.306379384
102.637376078
100.910662869
99.123198095
97.2713832985
95.3509044287
93.356523014
91.2817895439
89.1186413432
86.8569837206
84.4839010498
81.9826726786
79.3314388885
76.5022268574
73.4634225352
70.179049995
66.6260910438
146.796961407
146.433579662
146.033680472
145.664688176
145.32706903
145.018963647
144.733597007
144.462889525
144.200513902
143.941843221
143.683459497
143.422831216
143.158058566
142.887674282
142.610502281
142.325560026
142.031991167
141.729019465
141.415917726
141.09198595
140.756533113
140.408868955
140.048352186
139.674259577
139.285880371
138.882506845
138.463417441
138.027877649
137.575140929
137.104448854
136.615031201
136.1061062
135.57688129
135.026554754
134.454316661
133.859341369
133.240796785
132.5978406
131.929620051
131.23527514
130.51393794
129.764732714
128.98677648
128.17917916
127.341043574
126.471465491
125.569533364
124.634327851
123.664921053
122.66037534
121.61974167
120.542057476
119.426343772
118.271601333
117.076805816
115.840901549
114.56279348
113.241337074
111.875325446
110.463473046
109.00439855
107.496603758
105.938428068
104.328012018
102.663254217
100.941756051
99.1607422173
97.3169607179
95.4065585713
93.4249259844
91.3665060753
89.2245695724
86.9908850679
84.6554109595
82.2060586755
79.6287305288
76.9086819412
74.0362067606
71.0149043985
67.8819556202
146.462913557
146.231117671
145.929704088
145.618725111
145.313883043
145.021856573
144.742877558
144.473747838
144.210783887
143.950695635
143.690722721
143.428627765
143.162618268
142.891245164
142.613311757
142.32780106
142.03382041
141.730560548
141.417266096
141.093214369
140.757700404
140.410027787
140.049500093
139.675406661
139.287050303
138.88371468
138.464673004
138.029188352
137.576512841
137.105887486
136.616542155
136.107695728
135.578556138
135.028320095
134.456173817
133.861293548
133.242844738
132.599985266
131.931865693
131.237626464
130.516402149
129.76731934
128.989497484
128.182049302
127.344080851
126.47469179
125.572975198
124.638017325
123.668897017
122.664684846
121.624442312
120.547219508
119.432052832
118.27796184
117.083944992
115.84897385
114.571985818
113.251877311
111.887490653
110.477606577
109.020922173
107.51602579
105.961380129
104.355290563
102.695863429
100.980956804
99.2081232039
97.3745407705
95.4769300662
93.5114569823
91.4736249008
89.3581693973
87.1589822347
84.8691449577
82.4812370876
79.9882497454
77.3859869053
74.6788908246
71.8883216826
69.0649758563
146.259521161
146.083618714
145.842422819
145.575095215
145.297905806
145.021264559
144.749571522
144.483066266
144.22029733
143.959284714
143.697993571
143.434556895
143.16734925
142.89497982
142.61625571
142.330139203
142.035708225
141.732123331
141.41860172
141.094397518
140.758787242
140.411058928
140.050503096
139.676409953
139.288068888
138.884759146
138.465751287
138.030306346
137.577674937
137.107096822
136.617800882
136.109005154
135.579917007
135.029733303
134.45764083
133.862816902
133.244430015
132.601639871
131.933597687
131.239447759
130.51832551
129.769358283
128.991667645
128.184368822
127.346571272
126.477379258
125.575891484
124.641201056
123.67239529
122.668555166
121.628753994
120.552056649
119.437517584
118.284178373
117.091064613
115.857182427
114.581513231
113.2630045
111.900565945
110.493047577
109.039233804
107.537832184
105.987459155
104.386598577
102.733583384
101.026563751
99.2634688552
97.4419651148
95.5594126944
93.6128259081
91.5988487243
89.5137696606
87.3536225709
85.1144663943
82.7930164051
80.3879210734
77.9022481133
75.3481515855
72.7525792734
70.1626278115
146.136404458
145.980796472
145.774493615
145.537929874
145.282452598
145.01917069
144.754554819
144.491043424
144.228907364
143.967318885
143.704944025
143.440306329
143.171976057
142.898644683
142.619140037
142.332414527
142.037523189
141.733600142
141.419837299
141.09546667
140.759746344
140.411949809
140.051358156
139.677253785
139.2889178
138.885624477
138.466641529
138.031227803
137.578632399
137.108094221
136.61884176
136.110093027
135.581055636
135.030927194
134.458895675
133.864139312
133.245827024
132.603119329
131.935168351
131.241117594
130.520102378
129.771253864
128.993698015
128.186554377
127.348937361
126.479956361
125.578716449
124.644318551
123.67585945
122.672431565
121.633122314
120.557013932
119.443182091
118.290694213
117.098607116
115.865963444
114.59178788
113.275085541
111.91483045
110.509963061
109.059382041
107.561927328
106.016369715
104.421396654
102.775596392
101.077439737
99.3252624094
97.5172506784
95.6514349255
93.7257008166
91.737834171
89.6856290914
87.5671063174
85.380933333
83.1271790097
80.8086009405
78.4327479128
76.0152180813
73.5828866045
71.1751090788
146.062324846
145.912314408
145.72555786
145.509451071
145.269743225
145.016919935
144.758280629
144.49754019
144.236171278
143.97424758
143.711028302
143.445390066
143.176092395
142.901914062
142.621711554
142.334435006
142.039122885
141.734887805
141.420900144
141.096372647
140.760547251
140.41268453
140.052055463
139.677934439
139.289597693
138.886314537
138.467349917
138.031960635
137.579394438
137.108889428
136.619673698
136.110965188
135.581971697
135.031891069
134.459911442
133.865211527
133.24696108
132.604321078
131.936444613
131.242478081
130.521563047
129.77283273
128.995413863
128.188429502
127.350998704
126.482236761
125.581255841
124.647165451
123.679072756
122.676082905
121.637299314
120.561822971
119.448752266
118.297182332
117.106204018
115.874902523
114.602355273
113.287627785
111.929773275
110.527822537
109.0807845
107.58763961
106.047333362
104.45876889
102.820801808
101.132236735
99.3918282058
97.5982903729
95.7503218517
93.8466577672
91.886165831
89.8680162648
87.7919633587
85.6588194579
83.4711980379
81.2346324485
78.9591588037
76.6613815532
74.3659801126
72.1049614229
146.02004851
145.870600552
145.694184173
145.490444796
145.260910676
145.015200654
144.760838913
144.502198746
144.241490229
143.979394426
143.715595503
143.449235643
143.179223349
142.904409988
142.623678813
142.335981611
142.040346302
141.735870287
141.421708147
141.097058229
140.761150283
140.413234998
140.052575652
139.678441604
139.290101677
138.886825153
138.467873887
138.032502943
137.57995909
137.109479876
136.620293125
136.11161677
135.582658823
135.032617511
134.460681532
133.866030413
133.247835004
132.605258058
131.937455062
131.243574531
130.522756751
129.774138676
128.996851997
128.19002416
127.352779256
126.484238803
125.583522551
124.649749244
123.682037313
122.679505524
121.64127354
120.56646246
119.454195221
118.303596787
117.1137941
115.883915807
114.613092014
113.300453554
111.945131992
110.546258367
109.102961317
107.614367141
106.079599928
104.49778289
102.868042934
101.189519728
99.4613826643
97.6828605338
95.8532903616
93.9721993511
92.0394327303
90.0553573839
88.0211684326
85.9393573108
83.8143703981
81.6535029432
79.4680049056
77.2742875182
75.0943946293
72.9545044689
146.000772059
145.850893939
145.678930244
145.480993701
145.256431028
145.014310423
144.762173657
144.504663089
144.244334372
143.982171717
143.718079918
143.451343284
143.18095225
142.905799348
142.624783907
142.336859707
142.041049646
141.736443277
141.422186831
141.097470958
140.761518847
140.413575858
140.052901031
139.678760437
139.290421547
138.887150938
138.468209527
138.032851665
137.58032369
137.109863033
136.620697509
136.112045236
135.583114602
135.033104377
134.461204
133.866593952
133.248446251
132.605924976
131.938186759
131.244381494
130.523653902
129.775143298
128.997984671
128.191309772
127.354248021
126.485927431
125.58547563
124.652020904
123.684693269
122.682625578
121.644954643
120.570822358
119.459376861
118.309773724
117.121177184
115.892761466
114.623712087
113.313226758
111.96051823
110.56481724
109.125372072
107.641456144
106.112372983
104.537464703
102.916125383
101.247820787
99.5321181604
97.7687309481
95.9575844191
94.0989162012
92.1934184848
90.2424605377
88.2483823837
86.2149375648
84.147833742
82.0554157463
79.9494067958
77.8455607652
75.7635674139
73.7253503409
146.000774588
145.850909945
145.678957196
145.481029887
145.256475675
145.014362708
144.762232651
144.504727967
144.24440444
143.982246402
143.718158763
143.451425935
143.181038447
142.905888907
142.624876714
142.336955707
142.041148829
141.736545685
141.422292552
141.097580136
140.761631693
140.413692666
140.053022194
139.678886471
139.290553156
138.887288866
138.468354712
138.03300526
137.58048711
137.110037837
136.620885706
136.112249291
135.583337494
135.033349715
134.461476152
133.866898197
133.248788965
132.606313893
131.938631458
131.24489391
130.524248067
129.775836233
128.998797138
128.192267019
127.355380699
126.487272759
125.587078795
124.653936771
123.686988452
122.685380948
121.648268367
120.574813602
119.46419026
118.315584805
117.128198896
115.901252041
114.633984544
113.325661013
111.975575064
110.583057757
109.147474934
107.668244723
106.144846021
104.57683289
102.963855304
101.305685992
99.6022577661
97.8537200986
96.0605186057
94.2235034374
92.3441038762
90.4246208157
88.468167263
86.4793656401
84.4647315701
82.4331664608
80.3964561031
78.3696177443
76.3705536565
74.4183564623
146.020056154
145.870648944
145.694265636
145.4905541
145.261045489
145.015358275
144.761016538
144.502393915
144.241700872
143.979618836
143.715832315
143.449483808
143.179482091
142.904678764
142.623957286
142.336269612
142.040643817
141.736177444
141.422025215
141.09738564
140.761488668
140.413585225
140.052938866
139.678819375
139.290496015
138.887238284
138.468308576
138.032962557
137.580447712
137.110002415
136.620855565
136.11222637
135.583324392
135.033349762
134.461493501
133.866937984
133.248857493
132.606418866
131.938782249
131.245101904
130.524527106
129.776203165
128.999272467
128.192875652
127.356152886
126.488245233
125.58829616
124.655453175
123.688869627
122.687706669
121.651135441
120.578339488
119.468517443
118.320886082
117.134683816
115.909174671
114.643653039
113.337449042
111.989934565
110.600532344
109.168729656
107.694079751
106.176226463
104.614921605
103.010050494
101.361669021
99.6700635879
97.9358187623
96.1598229823
94.3434517279
92.4886813324
90.5981959046
88.6759728377
86.7272698386
84.7590781185
82.7805506969
80.8033605588
78.8419117894
76.912920923
75.033827707
146.06233779
145.912396308
145.725695482
145.509635335
145.269970036
145.01718462
144.758578427
144.49786697
144.236523584
143.974622577
143.711423738
143.445804211
143.17652397
142.902362183
142.62217567
142.334914855
142.039618457
141.735399322
141.421428066
141.096917701
140.761110512
140.413267445
140.052659852
139.678562968
139.290253295
138.887001046
138.468071918
138.032723657
137.580205173
137.109755977
136.620605871
136.111974861
135.583073276
135.033102021
134.461252973
133.86670948
133.248646973
132.606233659
131.938631307
131.24499614
130.524479823
129.776230542
128.999394189
128.193115658
127.356540269
126.488815338
125.589091915
124.6565267
123.690284184
122.689539028
121.653478736
120.581306672
119.472245468
118.325540926
117.140466553
115.916328791
114.65247333
113.348292194
112.003231507
110.616804506
109.188601836
107.718310868
106.205731431
104.650803391
103.053640972
101.414558063
99.7341089688
98.0131529781
96.2530108701
94.4554969149
92.6230658661
90.7589790892
88.8675451522
86.9543658167
85.0266595301
83.0935980625
81.1666219029
79.2596767124
77.3888941968
75.571187932
146.136423071
145.980914023
145.774690468
145.538192496
145.28277481
145.019545637
144.754975659
144.491504306
144.229403445
143.967846224
143.705499506
143.440887569
143.172581305
142.899272727
142.619790127
142.333086304
142.038216641
141.73431557
141.42057532
141.096228261
140.760532951
140.412763464
140.052201498
139.678130267
139.289831523
138.886580644
138.467646428
138.032289001
137.579759053
137.109297446
136.620135045
136.111492747
135.582581686
135.032603558
134.460751068
133.866208496
133.248152344
132.605752118
131.938171151
131.244567548
130.524095232
129.775905095
128.999146306
128.192967727
127.356519504
126.488954809
125.589431798
124.657115788
123.691181704
122.690816845
121.655224017
120.583625104
119.475265145
118.32941703
117.145386985
115.922520959
114.660212224
113.357910323
112.015131413
110.63147013
109.206617551
107.74037783
106.232689781
104.683653315
103.093560288
101.462949951
99.7926570029
98.0838645875
96.3381840133
94.5577571537
92.7453820518
90.9046584443
89.040167687
87.1576837209
85.2644355645
83.3694066452
81.4836760382
79.6208124667
77.7968258244
76.0291245796
146.259546109
146.083775618
145.842684096
145.575441969
145.298329291
145.02175542
144.750120695
144.483666149
144.22094171
143.959968586
143.698713009
143.435308912
143.168131661
142.895791117
142.617094957
142.331005944
142.0366024
141.733045219
141.419551911
141.095376925
140.759797083
140.41210107
140.051582003
139.677531526
139.289237819
138.885981317
138.46703425
138.031659297
137.579109049
137.10862579
136.619441479
136.110777914
135.581847032
135.031851307
134.459984255
133.865431015
133.247369026
132.604968904
131.937395342
131.243808146
130.523363337
129.775214352
128.998513408
128.192413033
127.356067773
126.488636117
125.589282663
124.657180532
123.691514107
122.691482142
121.656301281
120.585210143
119.477473987
118.332390097
117.149294112
115.927567512
114.66664638
113.366031615
112.025301013
110.644123944
109.222278106
107.759670434
106.256362349
104.712600336
103.128851091
101.505843169
99.8446197156
98.1466021647
96.4136652223
94.6482218967
92.8533271151
91.0327979919
89.191358027
87.3347977625
85.4701781795
83.6060925741
81.7530549871
79.9241455541
78.135394688
76.4054756171
146.462945531
146.231318793
145.930036276
145.619163
145.314414631
145.022469587
144.743560563
144.474491478
144.211580648
143.951539544
143.691609138
143.4295532
143.163580209
142.892241938
142.614342412
142.328865259
142.034918306
141.731692632
141.418433022
141.094417021
140.7589402
140.411305802
140.050818359
139.67677861
139.288479988
138.885207997
138.466238315
138.030836093
137.578255716
137.107740786
136.618524265
136.109828767
135.580866969
135.030842074
134.45894837
133.864371879
133.246291045
132.603877582
131.936297378
131.242711574
130.522277738
129.774151349
128.997487208
128.191441025
127.355171247
126.4878411
125.588620895
124.656690636
123.691243007
122.691486798
121.656650843
120.585988463
119.478782681
118.334352216
117.152058568
115.931314245
114.671591692
113.372435908
112.033477778
110.654449846
109.235205286
107.775740538
106.276221846
104.737016875
103.158732093
101.542257046
99.8888151511
98.2000227782
96.4779586617
94.7252405249
92.9451100094
91.1415247346
89.3192587888
87.4840090885
85.6425270068
83.8028065703
81.974469133
80.1696689631
78.40392155
76.697081885
146.797000444
146.433828686
146.034086092
145.665217591
145.327706291
145.019693081
144.734404701
144.463764425
144.201447287
143.942828257
143.684490944
143.423905195
143.159172372
142.888826263
142.611691776
142.326787352
142.033257644
141.730327361
141.417269801
141.09338587
140.757989835
140.410398078
140.049926531
139.67588251
139.287565846
138.88426634
138.46526277
138.029822571
137.577201674
137.106644728
136.617385496
136.108647245
135.579643146
135.029576815
134.457642972
133.863028262
133.244912049
132.602467057
131.934860319
131.241254635
130.52080961
129.772682275
128.996029561
128.190009805
127.353784599
126.486520982
125.58739391
124.655589067
123.690306089
122.690762151
121.656195922
120.585872667
119.479089914
118.335183832
117.153536903
115.933587
114.674838595
113.376873872
112.039367525
110.662104305
109.244999245
107.788121442
106.291722058
104.756267167
103.182475955
101.571365104
99.9242994579
98.2430489187
96.5298511092
94.7874781955
93.0193059091
91.2293807466
89.4224788803
87.6041517445
85.7807636793
83.9595318002
82.1487587411
80.3588259008
78.6029488519
76.8997806562
147.346773454
146.692832795
146.140653911
145.703171601
145.331663166
145.009657515
144.720637382
144.450470575
144.190064891
143.933633638
143.677293605
143.418364526
143.154935518
142.885580552
142.609179362
142.324804161
142.031646496
141.728969821
141.416078149
141.092295967
140.756955116
140.409385304
140.048907571
139.674841712
139.286492309
138.883152409
138.464103333
138.028614364
137.57594292
137.10533463
136.616023982
136.107234864
135.578181019
135.028066615
134.456086873
133.861428577
133.243270215
132.600785746
131.933143205
131.23950589
130.519033952
129.770886593
128.994222664
128.188202625
127.351990644
126.484756859
125.585679939
124.653949996
123.688771875
122.689369051
121.654988295
120.5849045
119.478426584
118.33490451
117.153737282
115.934382239
114.676365955
113.379298832
112.042889149
110.666961335
109.251477332
107.796561555
106.302530019
104.769924099
103.199549298
101.592519393
99.9503060099
98.2747929148
96.5683332956
94.8338129146
93.0747052371
91.2951201497
89.4998305487
87.694265337
85.8844418002
84.0767479356
82.2778446177
80.4952914216
78.7362026528
77.0092738841
148.342010952
146.984194656
146.193447075
145.693603261
145.302762013
144.979005392
144.694592971
144.430086262
144.174683703
143.922239105
143.668926881
143.41223473
143.150426455
142.882226003
142.606632922
142.322811972
142.030024806
141.727586828
141.414840732
141.091137811
140.755818527
140.40823338
140.047730416
139.673626268
139.285229286
138.881835892
138.462729051
138.027177012
137.574438892
137.103761838
136.614380948
136.105520437
135.576394324
135.026207066
134.454154255
133.859423588
133.241196389
132.598645607
131.930939356
131.23724182
130.516714325
129.768516597
128.991808505
128.18575191
127.349512698
126.482263088
125.583184275
124.651469449
123.686327245
122.686985674
121.652696657
120.582741383
119.476436444
118.333141045
117.152265389
115.933280631
114.675730724
113.379244523
112.043553081
110.668508136
109.25410387
107.800502366
106.308063204
104.777377628
103.209307683
101.605030569
99.9660878787
98.2944374416
96.5925057534
94.8632671522
93.1102695028
91.3376809768
89.5503063997
87.7535631673
85.9533483686
84.1555287479
82.3656339798
80.5884270108
78.8187108797
77.0269796047
150.135119386
147.2070212
146.09349241
145.566420499
145.199319482
144.904744912
144.643286196
144.394919224
144.150562467
143.905649176
143.657484579
143.404316031
143.144913422
142.878343076
142.603840122
142.320733176
142.028398354
141.72623095
141.413628339
141.089983004
140.754689565
140.407108176
140.046569915
139.672409557
139.283944986
138.880477043
138.461291955
138.025664796
137.572853277
137.10210306
136.612649275
136.103716291
135.574518199
135.024259491
134.452135756
133.857334405
133.239035607
132.596413332
131.928636325
131.234869122
130.514273429
129.766009604
128.989238234
128.18312198
127.346827667
126.479528635
125.580407412
124.648658775
123.683493241
122.684141103
121.649857096
120.579925761
119.473667691
118.330446863
117.149679141
115.930842271
114.67348771
113.377254459
112.041885253
110.667245505
109.253345556
107.800366605
106.308690784
104.778935794
103.211994411
101.609078973
99.9717709107
98.3020775741
96.6024958521
94.8760312439
93.1262888794
91.3575057302
89.5745708823
87.7830030602
85.9888483414
84.1986038403
82.4186904583
80.6538917796
78.8837486319
76.9838031784
56.9369625948
53.3848440285
50.9934060627
49.0359938265
47.3639682837
45.9071610496
44.6215889622
43.47754504
42.4533540054
41.5322655605
40.7008683656
39.9481515899
39.2649079732
38.6433335356
38.0767443238
37.5593679515
37.0861852414
36.6528069767
36.2553760168
35.890488299
35.5551282075
35.2466150721
34.9625585019
34.7008207023
34.459484516
34.2368261583
34.0312917927
33.8414774126
33.6661114489
33.5040397028
33.3542122494
33.2156720018
33.0875446879
32.9690300257
32.8593940002
32.7579619674
32.6641124984
32.5772717527
32.4969079205
32.4225256555
32.3536592144
32.2898643685
32.2307334882
32.176013044
32.1256857543
32.0792595936
32.0363211894
31.9965386308
31.9596836369
31.9255437394
31.8939147733
31.864604786
31.8374415869
31.8122828664
31.7889588034
31.7673341798
31.7472318208
31.7285737169
31.7112284813
31.6950748566
31.6800115938
31.6659466365
31.652794304
31.6404765653
31.6289220122
31.618064712
31.6078428821
31.5981990529
31.5890804298
31.580438913
31.5722304412
31.5644151317
31.556956273
31.5498199003
31.5429724345
31.5363857437
31.5300348511
31.5238951746
31.5179458176
31.5121676193
31.5065428843
31.501055252
31.4956896802
31.4904318437
31.4852695706
31.4801942751
31.4752020651
31.470278651
31.465414568
31.4606013905
31.4558309306
31.4510959569
31.4463975622
31.4417526562
31.4371295802
31.4325191358
31.4279162457
31.4233162466
31.4187148448
31.4141079447
31.4094915745
31.4048619695
31.4002155836
31.3955491566
31.3908596736
31.3861443757
31.3814007486
31.3766263987
31.3718190216
31.3669763206
31.3620959662
31.3571755751
31.3522127917
31.3472053552
31.3421512445
31.3370488105
31.3318968329
31.3266946083
31.32144184
31.3161385843
31.3107848998
31.3053805775
31.299923498
31.29440213
31.2887946153
31.2830305806
31.2775737476
31.2724207609
31.2671958051
31.2619433531
31.2567553602
31.2517061257
31.2468510288
31.2422457451
31.2379530871
31.2340341573
31.2305492555
31.2275435681
31.2250405662
31.222977051
31.2216725774
31.2206877311
31.2199181255
31.2187564445
31.2154713442
31.2057542192
31.1793847064
31.1146025771
30.970059363
30.675173182
30.1247070761
29.1859113483
27.7263434801
25.6535629991
22.9417937331
19.6472305281
15.8882874492
11.6327933583
6.60547625826
1.57111824178
60.118315376
56.0655012574
53.3535187298
51.2011692658
49.3992387253
47.8493210205
46.4932034701
45.2936504499
44.224484664
43.2660689459
42.4030590506
41.6231053278
40.9160483434
40.2733929764
39.6879447703
39.153548543
38.6648941487
38.2173678734
37.8069372413
37.4300593289
37.0836066982
36.7648075593
36.4711960319
36.2005706341
35.9509601232
35.7205936097
35.5078759028
35.3113665362
35.1297609638
34.9618751047
34.8066321267
34.6630500933
34.5302319325
34.4073564964
34.2936710139
34.1884837998
34.091158704
34.0011106658
33.9178007478
33.8407332623
33.7694544392
33.7035508597
33.6426411602
33.5863338524
33.5341294178
33.4857980333
33.4410957034
33.3997568121
33.3615256259
33.3261608904
33.2934391534
33.263151367
33.2351064298
33.2091200304
33.1850166728
33.1626781569
33.1419214324
33.1226413267
33.1047109549
33.0880224221
33.0724723448
33.0579652044
33.0444124902
33.0317346301
33.0198575393
33.0087090589
32.9982238926
32.9883417073
32.979007148
32.970173229
32.9617859496
32.9538166902
32.9462116716
32.9389530518
32.9319925991
32.9253107222
32.9188744557
32.9126580269
32.9066413014
32.9008036819
32.8951270475
32.8895945583
32.8841906768
32.8789019992
32.8737152137
32.8686139953
32.8635800436
32.858608803
32.8536934927
32.848826154
32.8440011474
32.8392101916
32.8344446165
32.8296952412
32.8249609072
32.8202397731
32.8155277613
32.8108204179
32.8061135299
32.8014032052
32.796685411
32.7919567644
32.7872134461
32.782452749
32.7776711971
32.7728664536
32.7680357845
32.7631767543
32.7582870354
32.7533641788
32.7484057139
32.7434091915
32.738372085
32.7332921318
32.7281672762
32.7229959963
32.7177773237
32.7125109506
32.7071974255
32.7018378945
32.6964346055
32.6909906351
32.6855113727
32.680002886
32.6744877739
32.6689729263
32.6635061992
32.6579636555
32.6524276374
32.6471729393
32.6420206856
32.6370302953
32.6322924416
32.6278685538
32.6238317168
32.6202583764
32.617229646
32.6147837157
32.6130107664
32.6119039575
32.6115291418
32.6116964861
32.6121357607
32.6120095451
32.6090616003
32.598006588
32.5666327798
32.4899185756
32.3215370993
31.9845604458
31.3676166345
30.334953347
28.7572421838
26.5518753656
23.7049621635
20.2771866523
16.3849555669
12.0114004721
6.89500676077
1.70481270574
62.3257471803
58.392306392
55.5251594833
53.2412405736
51.3392957226
49.7128502069
48.2968720393
47.0493446042
45.94084205
44.9494992758
44.058414653
43.2541300058
42.5256842867
41.8639947525
41.2614308347
40.7115098515
40.2086729131
39.7481151838
39.3256553793
38.9376332246
38.5808274116
38.2523897755
37.9497913916
37.6707777761
37.4133323393
37.1756449259
36.9560856298
36.753182961
36.5656044611
36.3921404973
36.2316907305
36.083251589
35.945905948
35.8188139014
35.7012052121
35.5923719464
35.4916624274
35.3984765645
35.3122604222
35.2325020257
35.1587277044
35.0904983618
35.0274110439
34.9690902512
34.9150607541
34.8649790773
34.8186861337
34.7758887191
34.7363106475
34.6997019915
34.6658327118
34.6344872454
34.6054721115
34.5786046678
34.5537072628
34.5306375706
34.5092350191
34.489366047
34.470899827
34.4537228346
34.4377275413
34.4228147819
34.4088920985
34.3958742964
34.3836820366
34.3722462041
34.3615003861
34.3513822537
34.3418332982
34.3328068028
34.3242447574
34.3161184564
34.3083690887
34.3009779762
34.2938994369
34.2871043832
34.2805645312
34.274254393
34.2681524891
34.2622350618
34.2564832262
34.2508799306
34.245408233
34.2400491913
34.2347886041
34.2296202523
34.2245357579
34.2195228223
34.2145712847
34.2096718095
34.2048171908
34.1999999144
34.1952136891
34.1904528124
34.1857104759
34.1809810018
34.1762593061
34.1715406252
34.166820501
34.1620949057
34.1573596426
34.1526112808
34.1478458877
34.1430606994
34.1382522593
34.1334180902
34.1285554946
34.1236619811
34.1187351858
34.1137726801
34.1087720313
34.10373086
34.0986467898
34.0935177411
34.0883418959
34.0831180154
34.0778454594
34.0725243086
34.0671555866
34.0617410419
34.0562837947
34.0507879397
34.0452603717
34.0397091506
34.0341538306
34.0285981462
34.0230602451
34.0175717386
34.0122192885
34.0068753908
34.0017040076
33.996690053
33.9920202393
33.9877401739
33.9839231481
33.9806592091
33.9780583291
33.9760988968
33.974943725
33.9746140321
33.9751075842
33.9762646098
33.9776914076
33.9782903573
33.9752354105
33.9622034468
33.9249661967
33.8352350314
33.6419109836
33.2622087158
32.5794632682
31.4558750292
29.7656772122
27.4353781358
24.4612031603
20.9065093144
16.884393403
12.3925249811
7.18413769563
1.83629150736
64.1299250252
60.4052153105
57.5012361527
55.1460728894
53.1760071345
51.491701079
50.027991608
48.7409960727
47.5994624223
46.5800610002
45.6647731398
44.8393042052
44.0920696281
43.4135212751
42.7956797769