/*--------------------------------*- C++ -*----------------------------------*\
| =========                 |                                                 |
| \\      /  F ield         | OpenFOAM: The Open Source CFD Toolbox           |
|  \\    /   O peration     | Version:  2106                                  |
|   \\  /    A nd           | Website:  www.openfoam.com                      |
|    \\/     M anipulation  |                                                 |
\*---------------------------------------------------------------------------*/
FoamFile
{
    version     2.0;
    format      ascii;
    arch        "LSB;label=32;scalar=64";
    class       surfaceScalarField;
    location    "0.355";
    object      phi;
}
// * * * * * * * * * * * * * * * * * * * * * * * * * * * * * * * * * * * * * //

dimensions      [0 3 -1 0 0 0 0];

oriented        oriented;

internalField   nonuniform List<scalar> 
22100
(
3.38461200704e-05
1.61538799261e-05
2.24572086377e-05
1.13889105163e-05
1.62585509914e-05
6.19865687864e-06
1.27977732752e-05
3.46077696686e-06
1.08046386572e-05
1.99313386405e-06
9.60458487916e-06
1.20005302129e-06
8.85131635518e-06
7.53267763371e-07
8.36434676542e-06
4.86968825411e-07
8.04432810241e-06
3.20017897089e-07
7.83283251969e-06
2.11494814955e-07
7.6933885626e-06
1.39443188578e-07
7.60223087711e-06
9.115691815e-08
7.54346729449e-06
5.87628182745e-08
7.50632958423e-06
3.71369510486e-08
7.48348929575e-06
2.28395373149e-08
7.46996771967e-06
1.3520836782e-08
7.46240237793e-06
7.56461914514e-09
7.45853366271e-06
3.86801501187e-09
7.45681402663e-06
1.71896560847e-09
7.45640679822e-06
4.06592712772e-10
7.45675606038e-06
-3.4986006171e-10
7.45744171979e-06
-6.86217609918e-10
7.45819958013e-06
-7.58381175335e-10
7.45892443503e-06
-7.25340037038e-10
7.45956832297e-06
-6.44342123611e-10
7.46011185482e-06
-5.43961704214e-10
7.46055357905e-06
-4.4213797113e-10
7.46090194456e-06
-3.48772091927e-10
7.46116985365e-06
-2.68316643342e-10
7.46137138833e-06
-2.01948508203e-10
7.46151992944e-06
-1.48961336383e-10
7.46162720752e-06
-1.07680737576e-10
7.46170292846e-06
-7.61384159516e-11
7.4617552404e-06
-5.27278626395e-11
7.46178815146e-06
-3.32838195947e-11
7.46180657808e-06
-1.8846707728e-11
7.46181535734e-06
-9.15672163262e-12
7.46181791241e-06
-2.90749090855e-12
7.46181619692e-06
1.40020374194e-12
7.46181135234e-06
4.56937870526e-12
7.46180429993e-06
6.80587904222e-12
7.46179563641e-06
8.44238688179e-12
7.46178571941e-06
9.71640877069e-12
7.46177471319e-06
1.08196112742e-11
7.46176262539e-06
1.19163656835e-11
7.46174934923e-06
1.31275861185e-11
7.46173465363e-06
1.45476397132e-11
7.46171822211e-06
1.6290835497e-11
7.46169964536e-06
1.84638944047e-11
7.46167838359e-06
2.11790055177e-11
7.46165382669e-06
2.44945602069e-11
7.46162528037e-06
2.8498521057e-11
7.46159195826e-06
3.3285782751e-11
7.46155301544e-06
3.89247014577e-11
7.46150758071e-06
4.54289798314e-11
7.4614548208e-06
5.27586701124e-11
7.4613940879e-06
6.07337297645e-11
7.46132527101e-06
6.88152307479e-11
7.46124906484e-06
7.62039481445e-11
7.46116796017e-06
8.1133634082e-11
7.46108835572e-06
7.96587115903e-11
7.46102228905e-06
6.609941916e-11
7.46097739474e-06
4.49431505739e-11
7.46097307031e-06
4.40784051873e-12
7.46104523441e-06
-7.20661704617e-11
7.46125216762e-06
-2.06809404941e-10
7.46168831862e-06
-4.3605060309e-10
7.46250372196e-06
-8.15313858269e-10
7.46393359356e-06
-1.42979032762e-09
7.46633333638e-06
-2.39968351127e-09
7.47015223393e-06
-3.81887090836e-09
7.47660149124e-06
-6.44927026543e-09
7.48737202499e-06
-1.07705793689e-08
7.50554586681e-06
-1.81739043844e-08
7.53872910146e-06
-3.31833115597e-08
7.6079394802e-06
-6.92104679244e-08
7.77459202289e-06
-1.6665264022e-07
8.22947981073e-06
-4.54887883252e-07
9.69703824198e-06
-1.46755851e-06
-5.4511484254e-06
1.51481865799e-05
5.02175943141e-05
1.59362846788e-05
4.42441098481e-05
1.73623934464e-05
3.7779498624e-05
1.26632667247e-05
3.26461400568e-05
8.5941341706e-06
2.89380868501e-05
5.70118569993e-06
2.63596153577e-05
3.77852313692e-06
2.45875098534e-05
2.5253718864e-06
2.33734667024e-05
1.70101059034e-06
2.25435165659e-05
1.1499666455e-06
2.19782068019e-05
7.7680319084e-07
2.15955032064e-05
5.22145398463e-07
2.13387255887e-05
3.47933156894e-07
2.11684830306e-05
2.2900400892e-07
2.10573244072e-05
1.48294224767e-07
2.09861355087e-05
9.40271118288e-08
2.09416621825e-05
5.79928728114e-08
2.09147794638e-05
3.44460908043e-08
2.0899279508e-05
1.93667745601e-08
2.0891054937e-05
9.94239723166e-09
2.08872538935e-05
4.20655988778e-09
2.08861841857e-05
7.1883598883e-10
2.08864291812e-05
-9.3215840875e-10
2.0887299949e-05
-1.63003241007e-09
2.08884388143e-05
-1.86503681894e-09
2.08896115359e-05
-1.81785445623e-09
2.08906939394e-05
-1.62712721671e-09
2.08916309578e-05
-1.37990211629e-09
2.08924079101e-05
-1.12646495784e-09
2.08930325565e-05
-8.93706038993e-10
2.08935241105e-05
-6.94248898891e-10
2.08939073176e-05
-5.32947648253e-10
2.08942082702e-05
-4.09412971769e-10
2.0894418646e-05
-2.87280669153e-10
2.08945651087e-05
-1.99987888844e-10
2.08946649581e-05
-1.33795496914e-10
2.0894729828e-05
-8.43618504404e-11
2.08947699193e-05
-4.9847631063e-11
2.0894793411e-05
-2.69452491985e-11
2.08948051156e-05
-1.08012474799e-11
2.0894807975e-05
1.26868752269e-12
2.08948043956e-05
9.98631412348e-12
2.08947960365e-05
1.64361700875e-11
2.08947840327e-05
2.13856163595e-11
2.08947690993e-05
2.54492281259e-11
2.08947516024e-05
2.91191591901e-11
2.08947316904e-05
3.27753265968e-11
2.08947093544e-05
3.66640152486e-11
2.08946844594e-05
4.09911194011e-11
2.08946568151e-05
4.59413133314e-11
2.08946261505e-05
5.17097383847e-11
2.08945922464e-05
5.82933451328e-11
2.08945549641e-05
6.57054085249e-11
2.08945143133e-05
7.38788409324e-11
2.08944706156e-05
8.25821458815e-11
2.08944247432e-05
9.12806900358e-11
2.08943784887e-05
9.90090151893e-11
2.08943352031e-05
1.04035034852e-10
2.08943008825e-05
1.03179229769e-10
2.0894285008e-05
9.21329822679e-11
2.08943029078e-05
6.32872485872e-11
2.08943816886e-05
9.83384013597e-13
2.08945699166e-05
-1.22017960799e-10
2.08949360809e-05
-3.21103103557e-10
2.08955990397e-05
-6.58395505678e-10
2.08966658991e-05
-1.1387822165e-09
2.08983144793e-05
-1.85523754904e-09
2.09009025134e-05
-3.02392280151e-09
2.09049778022e-05
-4.89047592655e-09
2.09114094358e-05
-7.86133783924e-09
2.09216209263e-05
-1.26111317179e-08
2.09381021818e-05
-2.03001210366e-08
2.09649979833e-05
-3.33451061568e-08
2.10092473001e-05
-5.50199811329e-08
2.10840212005e-05
-9.29479292116e-08
2.12152424306e-05
-1.64404690998e-07
2.14558119936e-05
-3.09780189812e-07
2.19135714735e-05
-6.24412278378e-07
2.28004041572e-05
-1.3417207396e-06
2.44440727359e-05
-3.11122731093e-06
-7.0372462392e-06
2.60301702895e-05
5.35171046989e-05
1.2419179203e-05
5.29349664228e-05
1.79445303778e-05
4.96538370643e-05
1.59443948765e-05
4.58401772264e-05
1.24077928126e-05
4.2440087039e-05
9.10127468553e-06
3.97291658915e-05
6.48944307696e-06
3.76872982278e-05
4.56723833757e-06
3.61976542148e-05
3.19065338633e-06
3.51326023975e-05
2.21501724351e-06
3.4382356166e-05
1.52704820203e-06
3.38606140104e-05
1.04388633485e-06
3.3502332607e-05
7.06213345544e-07
3.32595865588e-05
4.71748851058e-07
3.30975751278e-05
3.10304463941e-07
3.29913179516e-05
2.00283117342e-07
3.29230749997e-05
1.26234683197e-07
3.28803860051e-05
7.7133982117e-08
3.28545998592e-05
4.5151864185e-08
3.28397717942e-05
2.47694586463e-08
3.28318443672e-05
1.21330408287e-08
3.28279740036e-05
4.58831262951e-09
3.28269745645e-05
6.64517893027e-11
3.28271545502e-05
-1.81079317056e-09
3.28280022149e-05
-2.71342935212e-09
3.28291172634e-05
-2.93359434395e-09
3.28302637998e-05
-2.77433062658e-09
3.28313190628e-05
-2.43581971809e-09
3.28322287353e-05
-2.03678985798e-09
3.28329779607e-05
-1.64358791881e-09
3.28335728457e-05
-1.2897754087e-09
3.28340283298e-05
-9.89092404826e-10
3.28343624595e-05
-7.44219729536e-10
3.28346279891e-05
-5.53460978498e-10
3.28348434647e-05
-4.16137122877e-10
3.2834989879e-05
-2.80893498669e-10
3.28350883632e-05
-1.83422470432e-10
3.28351535224e-05
-1.15536094969e-10
3.28351947914e-05
-6.86987164122e-11
3.28352190495e-05
-3.55053943203e-11
3.28352302699e-05
-1.03450920909e-11
3.2835232002e-05
7.90133937274e-12
3.28352267409e-05
2.13767028889e-11
3.28352162995e-05
3.15207284255e-11
3.28352019043e-05
3.95596245852e-11
3.28351843281e-05
4.64516392851e-11
3.28351640123e-05
5.28542294673e-11
3.2835141275e-05
5.91998426536e-11
3.28351163147e-05
6.57756473583e-11
3.28350892635e-05
7.28424920006e-11
3.28350601272e-05
8.0736681343e-11
3.28350292113e-05
8.91281573489e-11
3.28349971164e-05
9.77405857433e-11
3.2834964882e-05
1.0607271549e-10
3.28349343062e-05
1.13134385997e-10
3.28349084048e-05
1.1717432715e-10
3.28348918357e-05
1.1558281146e-10
3.28348917008e-05
1.04192558577e-10
3.28349195112e-05
7.53730235032e-11
3.28349926139e-05
1.90695601866e-11
3.28351408529e-05
-8.49019559931e-11
3.28354157232e-05
-2.73787271224e-10
3.28359064677e-05
-6.12648054667e-10
3.28366254556e-05
-1.03999479877e-09
3.28376697826e-05
-1.702583226e-09
3.2839298475e-05
-2.76731933306e-09
3.28418862094e-05
-4.44282412541e-09
3.28459370619e-05
-7.07463714732e-09
3.28522654063e-05
-1.12187084652e-08
3.28621840322e-05
-1.77798835658e-08
3.28778568656e-05
-2.82839265121e-08
3.29029434572e-05
-4.53867162632e-08
3.29427931368e-05
-7.31948239296e-08
3.30072326649e-05
-1.19459582608e-07
3.3113238916e-05
-1.98954282523e-07
3.32898154608e-05
-3.40981358853e-07
3.35851501083e-05
-6.05114967783e-07
3.40702959916e-05
-1.10955827293e-06
3.4811349476e-05
-2.08277430713e-06
3.56720714445e-05
-3.97194939836e-06
-7.10530010393e-06
3.57401250742e-05
5.3510565799e-05
8.90861267467e-06
5.55742203142e-05
1.58808745616e-05
5.52424794468e-05
1.62761345737e-05
5.359778175e-05
1.40524893481e-05
5.15418423346e-05
1.1157212933e-05
4.95802734057e-05
8.45101083237e-06
4.79243432191e-05
6.22316734463e-06
4.66181301792e-05
4.49686524187e-06
4.56304562137e-05
3.2026900216e-06
4.4905106106e-05
2.25239712078e-06
4.43840777641e-05
1.56491348854e-06
4.40166804708e-05
1.07360945508e-06
4.37619528474e-05
7.26475299874e-07
4.35882531283e-05
4.84003022918e-07
4.34718526792e-05
3.16682427609e-07
4.33953415479e-05
2.0274470409e-07
4.33461702466e-05
1.26304208745e-07
4.33154316561e-05
7.58894247729e-08
4.3296894362e-05
4.33057752724e-08
4.32862674167e-05
2.27590650046e-08
4.32806637479e-05
1.01911193941e-08
4.32778552986e-05
2.8740952425e-09
4.32770267865e-05
-9.83035726352e-10
4.32772439962e-05
-2.93134896879e-09
4.32779308862e-05
-3.62115897639e-09
4.32787933145e-05
-3.63741019042e-09
4.32796654956e-05
-3.30864141798e-09
4.32804623031e-05
-2.83423571673e-09
4.32811473801e-05
-2.32931057605e-09
4.32817125082e-05
-1.85556199975e-09
4.32821645254e-05
-1.44176126927e-09
4.32825161181e-05
-1.09647328125e-09
4.32827771367e-05
-8.15057350824e-10
4.32829518004e-05
-5.91401460807e-10
4.32830840818e-05
-4.1379874525e-10
4.32831688313e-05
-2.68746021293e-10
4.32832222312e-05
-1.694607238e-10
4.32832615318e-05
-1.08469219258e-10
4.32832854973e-05
-5.99092423545e-11
4.32832971335e-05
-2.2377071389e-11
4.32832998585e-05
4.81924772944e-12
4.32832956437e-05
2.52822822101e-11
4.32832861823e-05
4.06960538607e-11
4.32832725989e-05
5.28243739486e-11
4.32832556037e-05
6.31864748023e-11
4.32832356111e-05
7.26083347297e-11
4.32832129827e-05
8.16262027347e-11
4.32831880139e-05
9.05748347625e-11
4.32831610187e-05
9.96828027145e-11
4.32831326327e-05
1.09000678873e-10
4.3283103509e-05
1.18177988248e-10
4.32830746128e-05
1.26598210929e-10
4.32830474136e-05
1.33256595477e-10
4.32830240138e-05
1.36532508139e-10
4.32830073429e-05
1.33849118805e-10
4.32830018842e-05
1.21040183417e-10
4.32830157677e-05
9.03663044507e-11
4.32830609758e-05
3.01561036973e-11
4.32831568016e-05
-7.67633043074e-11
4.32833194981e-05
-2.47593191577e-10
4.32835638752e-05
-5.18088334343e-10
4.32840095109e-05
-1.05815417768e-09
4.32847846433e-05
-1.81500812529e-09
4.32860419968e-05
-2.95982418281e-09
4.32879896367e-05
-4.71481104445e-09
4.32909776725e-05
-7.43071413019e-09
4.32955657598e-05
-1.16625889169e-08
4.33026324717e-05
-1.82853071588e-08
4.33135597391e-05
-2.87070639317e-08
4.33305049993e-05
-4.52291335289e-08
4.33567764549e-05
-7.1658158887e-08
4.33979425229e-05
-1.14360915811e-07
4.34628507952e-05
-1.84367912599e-07
4.35652184262e-05
-3.01321999252e-07
4.37249873919e-05
-5.00750435001e-07
4.39667323846e-05
-8.46860092843e-07
4.43070844897e-05
-1.44991051547e-06
4.47072937776e-05
-2.4829837145e-06
4.4926399754e-05
-4.19105545398e-06
-6.575879829e-06
4.43969792727e-05
5.27351373194e-05
6.17347463557e-06
5.57309324933e-05
1.28850780954e-05
5.73114711721e-05
1.46955947308e-05
5.76109875288e-05
1.37529718361e-05
5.71335172293e-05
1.16346820694e-05
5.63194616052e-05
9.26506528762e-06
5.54489803593e-05
7.09364741499e-06
5.46629687414e-05
5.2828756784e-06
5.40136721343e-05
3.85198544348e-06
5.35061397686e-05
2.75992829876e-06
5.31242428349e-05
1.94680923478e-06
5.28449722999e-05
1.35287880694e-06
5.26454250927e-05
9.26021332995e-07
5.25056999193e-05
6.23727037224e-07
5.2409704256e-05
4.12676954047e-07
5.23449973901e-05
2.67450464236e-07
5.23022587512e-05
1.69041779649e-07
5.22746708103e-05
1.03476342579e-07
5.22573455209e-05
6.06300940947e-08
5.22468361105e-05
3.32675596264e-08
5.22407356867e-05
1.62906848057e-08
5.22374260821e-05
6.18289821573e-09
5.22359266502e-05
5.15645505558e-10
5.22354179139e-05
-2.42331957511e-09
5.22354820507e-05
-3.68596845035e-09
5.22358266717e-05
-3.98268079377e-09
5.22362800517e-05
-3.76266119126e-09
5.22367455495e-05
-3.3003721856e-09
5.22371720703e-05
-2.75647146179e-09
5.22375368783e-05
-2.22103590274e-09
5.22378332921e-05
-1.73884013218e-09
5.22380641007e-05
-1.32795887513e-09
5.22382395948e-05
-9.91253001789e-10
5.2238371724e-05
-7.24129525471e-10
5.22384713464e-05
-5.14015876538e-10
5.22385552445e-05
-3.53212340275e-10
5.22386201573e-05
-2.34901666323e-10
5.2238661902e-05
-1.50684048352e-10
5.22386941814e-05
-9.2611612838e-11
5.22387091769e-05
-3.77663999976e-11
5.22387140331e-05
-4.11879901034e-13
5.22387113428e-05
2.76417792168e-11
5.22387031241e-05
4.86642100226e-11
5.223869061e-05
6.50468840764e-11
5.22386746803e-05
7.88448861028e-11
5.22386559176e-05
9.11360014291e-11
5.2238634806e-05
1.02540286108e-10
5.22386120203e-05
1.13209512247e-10
5.22385887429e-05
1.22825420844e-10
5.22385627812e-05
1.34847386427e-10
5.22385359461e-05
1.44924566307e-10
5.22385093689e-05
1.53121891554e-10
5.22384846419e-05
1.5795573667e-10
5.22384643995e-05
1.56759822436e-10
5.22384542298e-05
1.44008149508e-10
5.22384631532e-05
1.12051922888e-10
5.22384946021e-05
5.89960848992e-11
5.22385717428e-05
-4.68933259725e-11
5.22386923328e-05
-1.97344493216e-10
5.22388881445e-05
-4.43390087759e-10
5.22392265643e-05
-8.56481129414e-10
5.22397458179e-05
-1.57731663943e-09
5.22405206466e-05
-2.58971806607e-09
5.22416837858e-05
-4.12285718801e-09
5.22434386398e-05
-6.46953567739e-09
5.22460865143e-05
-1.00784508843e-08
5.22500793523e-05
-1.56552924555e-08
5.22561083202e-05
-2.4314159033e-08
5.22652322155e-05
-3.78308694975e-08
5.22790682853e-05
-5.90651450165e-08
5.23000740295e-05
-9.26638784717e-08
5.2331964509e-05
-1.462514036e-07
5.23800819585e-05
-2.32485400939e-07
5.24513503057e-05
-3.72590410855e-07
5.25526295857e-05
-6.02029800763e-07
5.26844598639e-05
-9.78690477989e-07
5.28246105039e-05
-1.59006128416e-06
5.28915958498e-05
-2.54996921412e-06
5.26729727696e-05
-3.97243245826e-06
-5.76698410022e-06
5.18640768474e-05
5.19834857753e-05
4.18998814396e-06
5.50586620093e-05
9.80990057302e-06
5.76386100901e-05
1.21156454884e-05
5.93258988869e-05
1.20656818867e-05
6.02280097623e-05
1.07325700332e-05
6.05929197781e-05
8.90015410494e-06
6.06482755202e-05
7.03829049842e-06
6.05531798755e-05
5.37797014216e-06
6.04029441103e-05
4.00222002312e-06
6.02479024125e-05
2.91496880773e-06
6.01107756947e-05
2.08393476348e-06
5.99990149911e-05
1.46463832588e-06
5.99124986482e-05
1.01253650128e-06
5.98479056062e-05
6.88318921211e-07
5.98010009108e-05
4.59580514376e-07
5.97677151592e-05
3.00735112921e-07
5.97445727363e-05
1.92183139651e-07
5.97287931604e-05
1.19254900905e-07
5.9718244024e-05
7.11782656142e-08
5.97113368908e-05
4.01737828674e-08
5.97069166498e-05
2.0710071046e-08
5.97041819141e-05
8.91683359975e-09
5.97025720865e-05
2.1247225029e-09
5.97016667969e-05
-1.5187385216e-09
5.97012077665e-05
-3.22761438537e-09
5.97010175211e-05
-3.79308812886e-09
5.97009805165e-05
-3.72629777893e-09
5.97010240858e-05
-3.34458189013e-09
5.97011045174e-05
-2.83753297283e-09
5.97011961284e-05
-2.31328810349e-09
5.97012850453e-05
-1.82840694224e-09
5.97013646724e-05
-1.40822220279e-09
5.97014335519e-05
-1.06081020882e-09
5.97014923472e-05
-7.83548455829e-10
5.97015418414e-05
-5.64102342623e-10
5.97015809486e-05
-3.92880184743e-10
5.97016081031e-05
-2.62591322684e-10
5.97016228561e-05
-1.6592312607e-10
5.97016207709e-05
-9.09596829391e-11
5.97016123372e-05
-2.97125706335e-11
5.9701605423e-05
6.13220391723e-12
5.97015958823e-05
3.67865505988e-11
5.9701585259e-05
5.89955121247e-11
5.97015735347e-05
7.65762426293e-11
5.97015595625e-05
9.257780056e-11
5.97015432627e-05
1.07212292489e-10
5.97015247105e-05
1.20895578925e-10
5.97015039449e-05
1.33824268644e-10
5.97014806961e-05
1.45980836531e-10
5.97014584206e-05
1.57036220613e-10
5.9701437003e-05
1.66271642578e-10
5.97014176928e-05
1.72387169695e-10
5.97014021464e-05
1.73478598527e-10
5.97013918568e-05
1.67038153385e-10
5.97013856519e-05
1.50234484442e-10
5.97013768506e-05
1.20812944997e-10
5.97013821059e-05
5.36119605135e-11
5.97013941925e-05
-5.89186040139e-11
5.97014794423e-05
-2.82538303948e-10
5.97016692382e-05
-6.33137501467e-10
5.97019697866e-05
-1.15699830806e-09
5.97023577389e-05
-1.96519706546e-09
5.97029375064e-05
-3.1693749876e-09
5.97037914668e-05
-4.97671508466e-09
5.9705033653e-05
-7.71160516634e-09
5.97068291086e-05
-1.18737787613e-08
5.97094158867e-05
-1.824194016e-08
5.97131379346e-05
-2.80360877948e-08
5.97184848461e-05
-4.31776833121e-08
5.97261371373e-05
-6.67173679227e-08
5.97369959047e-05
-1.03522607671e-07
5.97521230524e-05
-1.61378542525e-07
5.97723552185e-05
-2.52717587024e-07
5.9797099405e-05
-3.97334643797e-07
5.9821197473e-05
-6.26127935118e-07
5.98277735945e-05
-9.85266679921e-07
5.97747895661e-05
-1.53707736257e-06
5.95743348607e-05
-2.34951467527e-06
5.90686140365e-05
-3.46671175164e-06
-4.79584112509e-06
5.80974708846e-05
5.14373046691e-05
2.75268276066e-06
5.42658185993e-05
6.98138535706e-06
5.72496401036e-05
9.13182282415e-06
5.97900232963e-05
9.52529754294e-06
6.172012261e-05
8.80246955969e-06
6.30882963667e-05
7.53197918222e-06
6.40167087266e-05
6.1098769641e-06
6.46292273204e-05
4.76545036665e-06
6.50257930745e-05
3.60565308257e-06
6.5279066448e-05
2.6616942444e-06
6.54389603003e-05
1.92403972119e-06
6.55386759459e-05
1.36492149468e-06
6.55999133193e-05
9.51297952833e-07
6.56367269995e-05
6.51504083835e-07
6.56581769991e-05
4.38129382164e-07
6.56700841619e-05
2.88826849965e-07
6.56761723856e-05
1.86093856577e-07
6.5678807726e-05
1.16618547184e-07
6.56794772498e-05
7.05077806859e-08
6.56791001843e-05
4.05499427375e-08
6.56782319839e-05
2.1577420931e-08
6.56772003161e-05
9.94770382739e-09
6.56761903606e-05
3.13392842229e-09
6.56752804124e-05
-6.09499034632e-10
6.56745110705e-05
-2.45895131921e-09
6.56738820777e-05
-3.16475384407e-09
6.56733825528e-05
-3.22741949551e-09
6.56729950213e-05
-2.95770011401e-09
6.56727004999e-05
-2.54365930203e-09
6.56724808198e-05
-2.09425562308e-09
6.5672319861e-05
-1.66810750889e-09
6.56722039758e-05
-1.29297534223e-09
6.5672121007e-05
-9.78487843832e-10
6.56720603731e-05
-7.2354029212e-10
6.56720163035e-05
-5.20627648237e-10
6.56719845765e-05
-3.61709708703e-10
6.5671959073e-05
-2.37607656506e-10
6.56719370992e-05
-1.44439984269e-10
6.56719217106e-05
-7.60151306165e-11
6.56719196174e-05
-2.79999529799e-11
6.56719178084e-05
7.62559741892e-12
6.56719102181e-05
4.40037503393e-11
6.56718999324e-05
6.892877826e-11
6.56718872799e-05
8.89562377988e-11
6.56718731183e-05
1.06498507724e-10
6.56718574602e-05
1.22655943519e-10
6.56718401611e-05
1.37999453206e-10
6.56718211518e-05
1.52665203791e-10
6.56718009541e-05
1.66052566336e-10
6.56717816363e-05
1.76265745123e-10
6.56717621253e-05
1.85722176392e-10
6.56717429246e-05
1.91546587602e-10
6.56717251578e-05
1.91213422458e-10
6.56717107381e-05
1.81427736231e-10
6.56717035679e-05
1.57505634832e-10
6.56717111101e-05
1.13294972189e-10
6.56717171658e-05
4.74963450171e-11
6.56717511961e-05
-9.29651282916e-11
6.5671819165e-05
-3.50552436576e-10
6.56719180345e-05
-7.31987005642e-10
6.5672069126e-05
-1.30806765082e-09
6.5672279456e-05
-2.17547199841e-09
6.56725656488e-05
-3.45545733605e-09
6.56729442814e-05
-5.35524220578e-09
6.56734263823e-05
-8.19359897941e-09
6.56740097013e-05
-1.24569826648e-08
6.56746642288e-05
-1.88963461032e-08
6.56753045551e-05
-2.86762971129e-08
6.56757299758e-05
-4.36030007422e-08
6.56755132822e-05
-6.65005953928e-08
6.56737858249e-05
-1.01795098179e-07
6.5668814692e-05
-1.56407382996e-07
6.56570671096e-05
-2.40970004299e-07
6.56314170802e-05
-3.71684642947e-07
6.55777185455e-05
-5.72429453163e-07
6.54687482626e-05
-8.76296459781e-07
6.52553577035e-05
-1.3236868876e-06
6.48575357561e-05
-1.95169285518e-06
6.41628749385e-05
-2.77205106459e-06
-3.71423925943e-06
6.30812729054e-05
5.10850416536e-05
1.66764039408e-06
5.36118425772e-05
4.45458314816e-06
5.66873133454e-05
6.05635089632e-06
5.96894422098e-05
6.52316752774e-06
6.22997216594e-05
6.19218894973e-06
6.44136820544e-05
5.41801762028e-06
6.60471770246e-05
4.47638081833e-06
6.72686074011e-05
3.54401880686e-06
6.81598852782e-05
2.71437401667e-06
6.87977507355e-05
2.02382759534e-06
6.92467339964e-05
1.475055269e-06
6.95579517477e-05
1.05370255748e-06
6.97704173831e-05
7.38831143283e-07
6.99131594595e-05
5.0876085223e-07
7.00073696478e-05
3.43918065008e-07
7.00682783645e-05
2.27917037985e-07
7.01066796184e-05
1.4769154906e-07
7.01301212089e-05
9.31759500227e-08
7.0143809676e-05
5.68183580616e-08
7.01512851708e-05
3.30735467009e-08
7.01549170899e-05
1.79446553117e-08
7.01562643546e-05
8.59964455201e-09
7.01563357558e-05
3.06177937013e-09
7.01557432659e-05
-1.77156100028e-11
7.01548819404e-05
-1.59830419704e-09
7.01539578886e-05
-2.24136182223e-09
7.01530888135e-05
-2.35899414862e-09
7.0152328365e-05
-2.19790330385e-09
7.01516937452e-05
-1.90969647257e-09
7.01511821031e-05
-1.58326567445e-09
7.01507805066e-05
-1.26716449855e-09
7.01504720128e-05
-9.85129630768e-10
7.01502389834e-05
-7.46099009708e-10
7.01500652678e-05
-5.50451963938e-10
7.01499378803e-05
-3.9384182212e-10
7.01498461786e-05
-2.70572452207e-10
7.01497830643e-05
-1.75013313889e-10
7.01497410798e-05
-1.02941952141e-10
7.01497122179e-05
-4.76126315199e-11
7.01496819714e-05
1.82232137863e-12
7.01496583474e-05
3.09296616465e-11
7.01496450956e-05
5.70034626417e-11
7.01496343732e-05
7.93340975785e-11
7.01496243278e-05
9.87346934415e-11
7.01496141878e-05
1.16416906993e-10
7.01496035534e-05
1.33104969937e-10
7.01495922856e-05
1.49110501354e-10
7.01495804103e-05
1.64392092474e-10
7.01495677903e-05
1.78553837004e-10
7.01495530085e-05
1.90965792324e-10
7.01495379879e-05
2.00691372731e-10
7.01495235572e-05
2.05944642169e-10
7.01495104644e-05
2.04278019082e-10
7.01494992768e-05
1.92567734396e-10
7.01494894967e-05
1.67196279272e-10
7.01494785251e-05
1.24336330327e-10
7.01494716477e-05
5.42870821553e-11
7.01494607802e-05
-8.19955872062e-11
7.01494718554e-05
-3.61607692043e-10
7.01494949572e-05
-7.55062269973e-10
7.01495183083e-05
-1.33138604136e-09
7.01495204354e-05
-2.17756701541e-09
7.0149474565e-05
-3.40949461671e-09
7.01493274309e-05
-5.20799567805e-09
7.01489801126e-05
-7.84617173697e-09
7.01482575092e-05
-1.17342710319e-08
7.01468581191e-05
-1.74968441746e-08
7.01442705708e-05
-2.60886385723e-08
7.01396209213e-05
-3.89532500242e-08
7.01314284537e-05
-5.83080417702e-08
7.0117204572e-05
-8.75711518426e-08
7.00927961995e-05
-1.31998967046e-07
7.00511163473e-05
-1.99290130653e-07
6.99801960984e-05
-3.00764400305e-07
6.98600782417e-05
-4.52311630419e-07
6.96583330843e-05
-6.7455134975e-07
6.93250721881e-05
-9.90426075328e-07
6.8790786718e-05
-1.41740749073e-06
6.79729505556e-05
-1.9542150345e-06
-2.55485409458e-06
6.68135652306e-05
5.08804124829e-05
7.87227198692e-07
5.31704641966e-05
2.16453014756e-06
5.62177466028e-05
3.00906732926e-06
5.94382654595e-05
3.30264751897e-06
6.24449641141e-05
3.18548913315e-06
6.5038246355e-05
2.82473421088e-06
6.71548587365e-05
2.35976725884e-06
6.88135560341e-05
1.88532032321e-06
7.00731608332e-05
1.45476802585e-06
7.10056565938e-05
1.09133064073e-06
7.16812516896e-05
7.99458980592e-07
7.21614098648e-05
5.73543196501e-07
7.24965896341e-05
4.03650201861e-07
7.27264650583e-05
2.78884276458e-07
7.2881262859e-05
1.89119140541e-07
7.29834515528e-05
1.25727255417e-07
7.30493943164e-05
8.17477380746e-08
7.30907954529e-05
5.17738135096e-08
7.3115888478e-05
3.17243840082e-08
7.31303721297e-05
1.85889989152e-08
7.31381260342e-05
1.01899074623e-08
7.3141745705e-05
4.97918058223e-09
7.31429326854e-05
1.87404992244e-09
7.31427855854e-05
1.28671702707e-10
7.31419616803e-05
-7.75080832902e-10
7.31408781106e-05
-1.15845529236e-09
7.31397625882e-05
-1.24412518911e-09
7.31387345134e-05
-1.17048021404e-09
7.31378463339e-05
-1.02217537366e-09
7.31371119613e-05
-8.49554765206e-10
7.31365240224e-05
-6.79882949989e-10
7.31360651294e-05
-5.26891158047e-10
7.31357144205e-05
-3.96032463708e-10
7.31354512754e-05
-2.87931816084e-10
7.31352573608e-05
-2.00526500001e-10
7.3135117057e-05
-1.30832970579e-10
7.31350171222e-05
-7.55995017285e-11
7.31349450411e-05
-3.13443846342e-11
7.31348914317e-05
5.56112955991e-12
7.31348612747e-05
3.15598343772e-11
7.31348378315e-05
5.39633158097e-11
7.31348207763e-05
7.37522118377e-11
7.31348081517e-05
9.1666839289e-11
7.31347981995e-05
1.08427357943e-10
7.31347896591e-05
1.24734611785e-10
7.31347816399e-05
1.40933439987e-10
7.31347735308e-05
1.57070491474e-10
7.31347648972e-05
1.72905066739e-10
7.31347554757e-05
1.87882181031e-10
7.31347452353e-05
2.01141330906e-10
7.31347342373e-05
2.11650940002e-10
7.31347225512e-05
2.17606504509e-10
7.31347102861e-05
2.16509650075e-10
7.31346977317e-05
2.05111653349e-10
7.3134685493e-05
1.79389087852e-10
7.31346747812e-05
1.35009279722e-10
7.3134658851e-05
7.01413206974e-11
7.31346359089e-05
-5.90967545029e-11
7.31345945674e-05
-3.20218049608e-10
7.31345287562e-05
-6.89244521807e-10
7.31344148655e-05
-1.21746221967e-09
7.3134209623e-05
-1.972288537e-09
7.31338450316e-05
-3.04484063545e-09
7.31332061769e-05
-4.56903711733e-09
7.31321000893e-05
-6.73997141069e-09
7.31302050124e-05
-9.83908290173e-09
7.31269935962e-05
-1.42853185434e-08
7.31216108721e-05
-2.07058039488e-08
7.31126442638e-05
-2.99865416217e-08
7.30977893897e-05
-4.34530767326e-08
7.30733393529e-05
-6.31210372122e-08
7.30333975933e-05
-9.20571467317e-08
7.29684516761e-05
-1.34344173563e-07
7.28634860317e-05
-1.95798742436e-07
7.26953375448e-05
-2.84163158009e-07
7.24295108057e-05
-4.08724640337e-07
7.20176517715e-05
-5.78567117645e-07
7.13985739701e-05
-7.98329786905e-07
7.05067405927e-05
-1.06238178692e-06
-1.34565684121e-06
6.92975431892e-05
5.07871718872e-05
5.45984130999e-11
5.29516478691e-05
5.28752916866e-11
5.59606853315e-05
2.87031452297e-11
5.92633176342e-05
1.40616502846e-11
6.24488030105e-05
2.59298476785e-12
6.52735423238e-05
-6.27450510913e-12
6.76333205961e-05
-1.21938484272e-11
6.95186548861e-05
-1.51554235553e-11
7.09734373221e-05
-1.56040338552e-11
7.20647809049e-05
-1.41376569745e-11
7.28642500835e-05
-1.13907232174e-11
7.34378001152e-05
-8.01948801361e-12
7.38414538301e-05
-4.68195471575e-12
7.41203389787e-05
-2.01849345268e-12
7.43094576108e-05
-6.07519347912e-13
7.4435184637e-05
-8.51074962013e-13
7.45169343323e-05
-2.99559427856e-12
7.45687139531e-05
-6.79903238896e-12
7.46004490209e-05
-1.16252911868e-11
7.46190536256e-05
-1.64961622806e-11
7.46292629783e-05
-2.02851209252e-11
7.46342632648e-05
-2.18976638956e-11
7.46361574325e-05
-2.08684681125e-11
7.46363038618e-05
-1.84745152861e-11
7.4635543985e-05
-1.58934810754e-11
7.46343975574e-05
-1.26993840633e-11
7.46331618364e-05
-9.06695414585e-12
7.46319957673e-05
-5.06920583755e-12
7.46309731436e-05
-2.13315800105e-13
7.46301190468e-05
3.87110362626e-12
7.46294299804e-05
8.51906999501e-12
7.46288889463e-05
1.34819654799e-11
7.46284735535e-05
1.87118906042e-11
7.46281607216e-05
2.42719996099e-11
7.46279292474e-05
3.03443202613e-11
7.46277607925e-05
3.70498777127e-11
7.46276402005e-05
4.44639400927e-11
7.46275557957e-05
5.25684571259e-11
7.46274995127e-05
6.14016658579e-11
7.46274600824e-05
7.06012030402e-11
7.46274335642e-05
8.01105832303e-11
7.46274161422e-05
9.08633904856e-11
7.46274047872e-05
1.0274861951e-10
7.46273972716e-05
1.15704503938e-10
7.46273920624e-05
1.29740778077e-10
7.46273880867e-05
1.44735398548e-10
7.46273845968e-05
1.60416463909e-10
7.46273810507e-05
1.76332644127e-10
7.46273770209e-05
1.91814243661e-10
7.46273721547e-05
2.05929261969e-10
7.46273662711e-05
2.17478617936e-10
7.46273591596e-05
2.24682718782e-10
7.46273504311e-05
2.25187369988e-10
7.46273394408e-05
2.16056263682e-10
7.46273249766e-05
1.93796128036e-10
7.46273054432e-05
1.54661635576e-10
7.4627279967e-05
9.55801355839e-11
7.46272346851e-05
-1.39375240601e-11
7.46271469462e-05
-2.32420847579e-10
7.46270115114e-05
-5.53802092546e-10
7.46267890005e-05
-9.94962907249e-10
7.46264187255e-05
-1.60198396948e-09
7.46258043777e-05
-2.43044951242e-09
7.46247892709e-05
-3.55384838104e-09
7.46231184113e-05
-5.06900739555e-09
7.46203752158e-05
-7.09577472741e-09
7.46158931687e-05
-9.80316509619e-09
7.4608614762e-05
-1.34272804919e-08
7.45968037349e-05
-1.81754035047e-08
7.45776599592e-05
-2.43092019627e-08
7.45467667277e-05
-3.22277172477e-08
7.44973973155e-05
-4.26876582491e-08
7.441881758e-05
-5.576438093e-08
7.42946347922e-05
-7.16159247495e-08
7.41004780916e-05
-9.00064563718e-08
7.38015418883e-05
-1.09788455642e-07
7.33511804306e-05
-1.28205722925e-07
7.26929414685e-05
-1.40090916254e-07
7.17688191187e-05
-1.38259564743e-07
-1.14222427637e-07
7.05373845639e-05
5.07871708488e-05