/*--------------------------------*- C++ -*----------------------------------*\
| =========                 |                                                 |
| \\      /  F ield         | OpenFOAM: The Open Source CFD Toolbox           |
|  \\    /   O peration     | Version:  2106                                  |
|   \\  /    A nd           | Website:  www.openfoam.com                      |
|    \\/     M anipulation  |                                                 |
\*---------------------------------------------------------------------------*/
FoamFile
{
    version     2.0;
    format      ascii;
    arch        "LSB;label=32;scalar=64";
    class       volScalarField;
    location    "0.37";
    object      p;
}
// * * * * * * * * * * * * * * * * * * * * * * * * * * * * * * * * * * * * * //

dimensions      [0 2 -2 0 0 0 0];

internalField   nonuniform List<scalar> 
9600
(
2.26343587303
-0.634573119828
-1.53880648123
-1.92441631935
-2.14374803509
-2.28369128232
-2.38759650109
-2.47514610953
-2.55464540865
-2.63003552732
-2.70340923451
-2.77591772741
-2.84819073657
-2.92055920321
-2.99317952113
-3.06610762057
-3.1393435209
-3.21285867765
-3.28661289706
-3.36056339186
-3.43466930462
-3.50889623545
-3.58321376746
-3.65759769014
-3.73202872243
-3.80649176375
-3.88097520599
-3.95547012117
-4.02996963674
-4.10446853527
-4.17896275562
-4.2534490025
-4.32792460583
-4.40238733844
-4.47683511399
-4.55126590065
-4.6256777894
-4.70006881906
-4.77443688276
-4.84877987332
-4.92309559715
-4.9973816381
-5.07163546702
-5.14585428769
-5.22003501426
-5.29417434546
-5.36826874513
-5.44231435482
-5.51630705727
-5.59024247076
-5.66411585961
-5.7379221556
-5.81165596539
-5.885311474
-5.95888244298
-6.0323622411
-6.10574374586
-6.17901929325
-6.25218071903
-6.32521931971
-6.39812577734
-6.47089017215
-6.54350199077
-6.61595004199
-6.68822240547
-6.76030644689
-6.83218875996
-6.90385507249
-6.97529025527
-7.04647832217
-7.11740232904
-7.18804433556
-7.25838539188
-7.32840545414
-7.3980833518
-7.46739678435
-7.53632228249
-7.6048351826
-7.67290956198
-7.74051814978
-7.80763229453
-7.87422193177
-7.94025553071
-8.00570006453
-8.07052097134
-8.13468208427
-8.19814556816
-8.26087189446
-8.32281984981
-8.38394648738
-8.44420699873
-8.50355470735
-8.56194111904
-8.61931582619
-8.67562653775
-8.73081916169
-8.78483762875
-8.83762377459
-8.88911742442
-8.93925643388
-8.98797660384
-9.03521179449
-9.08089404628
-9.12495338048
-9.16731782856
-9.20791344419
-9.24666408698
-9.28349168976
-9.31831637105
-9.35105631675
-9.38162822614
-9.4099473703
-9.43592712951
-9.45947924741
-9.48051411748
-9.49894037761
-9.51466487042
-9.52759350053
-9.53763114781
-9.54468127421
-9.5486467723
-9.54942998145
-9.54693216647
-9.54105396332
-9.53169565353
-9.5187576124
-9.50213807777
-9.4817351408
-9.45744666276
-9.42917044985
-9.39680422984
-9.36024505203
-9.31938943566
-9.27413345825
-9.22437219337
-9.16999971075
-9.11090841856
-9.04698816142
-8.97812588507
-8.90420437475
-8.82510076875
-8.7406849979
-8.65081729204
-8.5553451637
-8.45409970485
-8.34689072422
-8.23349983009
-8.11367089231
-7.98709716878
-7.85340263602
-7.71211336667
-7.5626138371
-7.40407541312
-7.23532842296
-7.05464752601
-6.85943776422
-6.64574725277
-6.40775120485
-6.14609076164
-5.92144642892
0.351894054324
-0.830458135599
-1.43913435167
-1.79315835565
-2.03577496921
-2.20633855775
-2.33441048056
-2.43891310579
-2.52998857058
-2.61326703364
-2.69203983555
-2.76825672863
-2.84307714937
-2.91718948221
-2.9909955212
-3.06472190762
-3.13848854305
-3.21235098388
-3.28632783193
-3.36041746452
-3.4346082021
-3.50888356196
-3.58322695067
-3.65762300871
-3.73205809601
-3.80652071599
-3.88100152415
-3.95549298556
-4.02998897322
-4.10448462684
-4.17897609929
-4.25346017776
-4.32793412586
-4.40239564788
-4.47684264121
-4.55127299055
-4.62568468944
-4.70007577012
-4.77444409991
-4.84878751444
-4.92310382418
-4.99739058829
-5.07164515632
-5.14586478626
-5.22004641048
-5.29418669846
-5.36828211697
-5.44232880856
-5.51632266661
-5.59025932505
-5.66413407085
-5.73794182374
-5.81167719247
-5.8853343934
-5.9589071847
-6.03238892138
-6.10577249999
-6.17905026636
-6.25221404348
-6.32525513869
-6.39816426064
-6.4709314875
-6.54354630356
-6.61599754467
-6.68827330337
-6.76036093524
-6.83224705155
-6.90391740796
-6.97535687458
-7.04654947248
-7.11747828319
-7.18812537032
-7.25847178003
-7.32849747445
-7.39818128938
-7.46750094353
-7.5364329935
-7.60495279117
-7.67303442919
-7.74065064755
-7.8077727933
-7.87437080828
-7.94041318264
-8.00586690464
-8.07069741209
-8.13486853898
-8.1983424689
-8.26107969162
-8.32303899487
-8.38417745306
-8.44445028384
-8.50381078058
-8.56221043913
-8.61959890765
-8.67592391011
-8.73113133576
-8.78516513098
-8.83796713063
-8.88947712057
-8.93963298254
-8.98837057826
-9.03562375093
-9.08132454604
-9.12540301921
-9.16778715568
-9.20840300087
-9.24717438417
-9.28402313375
-9.3188694211
-9.35163147212
-9.38222577523
-9.41056755664
-9.4365704045
-9.46014599206
-9.4812046138
-9.4996550543
-9.51540413535
-9.52835757139
-9.53842041073
-9.54549628277
-9.5494879665
-9.55029785337
-9.54782735569
-9.54197713595
-9.53264720558
-9.5197363235
-9.50314405874
-9.48276938599
-9.45851068627
-9.43026624932
-9.39793449169
-9.36141323403
-9.3205997547
-9.27539127304
-9.22568432991
-9.17137470775
-9.11235709883
-9.04852411634
-8.9797660479
-8.90596988872
-8.82701794621
-8.74278674532
-8.6531451221
-8.55795155146
-8.4570509642
-8.35027116734
-8.23741782381
-8.11826708062
-7.99255628362
-7.85997238713
-7.72013494528
-7.57257278938
-7.41669627461
-7.25175952832
-7.07682778533
-6.89082924376
-6.69275273773
-6.48144082147
-6.25681744739
-6.03990002683
-0.623948529969
-1.10531392358
-1.49657424337
-1.78819040798
-2.00976403084
-2.17770012984
-2.30980205463
-2.41959069694
-2.51544915696
-2.60259374451
-2.68433582131
-2.76277017533
-2.83921715733
-2.91450660662
-2.98915457561
-3.06347624292
-3.13765890948
-3.21180862049
-3.28598114462
-3.36020205887
-3.43447919168
-3.50881044854
-3.58318905658
-3.65760659062
-3.73205424211
-3.80652375736
-3.88100792896
-3.9555006795
-4.02999683133
-4.10449205353
-4.17898282987
-4.25346619668
-4.32793951641
-4.40240049174
-4.47684706841
-4.55127715754
-4.625688687
-4.70007967931
-4.77444802937
-4.84879152473
-4.92310795245
-4.99739490248
-5.07164972424
-5.14586964252
-5.22005160636
-5.29419227656
-5.36828810473
-5.4423352968
-5.51632970619
-5.59026693523
-5.66414229557
-5.73795071508
-5.81168678946
-5.88534475936
-5.95891839514
-6.0324010272
-6.10578554515
-6.17906432004
-6.25222916928
-6.32527139279
-6.39818171878
-6.47095023019
-6.54356639167
-6.61601904566
-6.68829630821
-6.76038553067
-6.83227332605
-6.90394548809
-6.97538689585
-7.04658155108
-7.11751253793
-7.18816192049
-7.25851073283
-7.32853894035
-7.3982253912
-7.46754782203
-7.53648280995
-7.60500571078
-7.67309061566
-7.74071026797
-7.80783601144
-7.87443778662
-7.94048409542
-8.0059419353
-8.07077673582
-8.134952318
-8.19843087722
-8.2611729318
-8.32313726613
-8.38428094396
-8.44455921145
-8.50392536101
-8.56233086308
-8.61972540338
-8.67605672558
-8.73127066351
-8.78531114175
-8.83812002903
-8.88963709898
-8.93980020778
-8.98854520214
-9.03580597914
-9.08151457235
-9.12560106415
-9.16799339109
-9.2086175586
-9.24739742713
-9.28425477488
-9.31910981574
-9.35188097625
-9.38248490748
-9.41083680256
-9.43685021384
-9.46043678086
-9.4815065749
-9.49996850779
-9.51572965359
-9.52869558165
-9.53877137523
-9.54586097887
-9.54986716696
-9.55069229053
-9.54823794085
-9.54240500048
-9.53309399245
-9.5202047886
-9.50363643474
-9.48328785032
-9.45905790031
-9.43084529343
-9.39854890418
-9.36206733666
-9.32129873971
-9.27614144331
-9.2264934432
-9.1722521712
-9.11331452484
-9.04957594943
-8.98093012557
-8.90726833811
-8.82847819274
-8.74444273312
-8.65503916656
-8.56013687271
-8.4595947964
-8.35325873462
-8.24095799522
-8.12250029525
-7.99766541635
-7.86619922104
-7.72780641485
-7.58214094241
-7.42880207039
-7.26733841887
-7.09727592517
-6.91823251995
-6.73018923252
-6.53359753341
-6.32945729045
-6.1259918474
-1.17540905631
-1.36175278405
-1.60420108385
-1.82666944488
-2.01386018724
-2.16788808545
-2.29632555535
-2.40661625682
-2.50441065452
-2.59377055683
-2.67754154545
-2.7576681752
-2.83545784458
-2.91177986532
-2.98720465649
-3.06210060283
-3.13670148069
-3.21115170611
-3.28553735439
-3.35990737719
-3.43428731512
-3.50868841289
-3.58311412605
-3.6575623862
-3.73202978848
-3.8065117039
-3.88100337666
-3.95550044448
-4.02999894298
-4.10449530357
-4.17898647155
-4.2534698357
-4.32794299316
-4.40240372344
-4.47685003553
-4.5512799273
-4.62569132196
-4.70008222462
-4.77445057459
-4.84879414758
-4.92311069047
-4.99739780893
-5.0716528408
-5.14587296591
-5.22005514464
-5.29419603701
-5.36829207963
-5.44233947903
-5.51633411653
-5.59027161236
-5.66414729091
-5.73795610092
-5.81169261343
-5.88535106964
-5.95892525375
-6.03240847343
-6.10579361029
-6.17907303987
-6.25223857818
-6.32528150356
-6.39819255264
-6.47096183064
-6.54357878724
-6.61603225352
-6.68831038095
-6.76040054837
-6.83228936379
-6.9039626259
-6.97540522641
-7.04660114852
-7.11753346011
-7.18818422339
-7.25853446639
-7.32856416256
-7.39825217781
-7.46757626548
-7.53651302127
-7.60503780145
-7.67312468326
-7.74074640865
-7.80787432518
-7.87447837095
-7.94052704926
-8.00598736432
-8.07082474493
-8.13500299842
-8.19848431953
-8.26122925929
-8.32319661462
-8.38434342365
-8.44462495515
-8.50399454156
-8.56240363072
-8.61980190535
-8.67613713471
-8.73135511643
-8.7853997389
-8.83821292706
-8.88973450923
-8.93990231628
-8.98865237582
-9.03591854171
-9.08163278026
-9.12572517007
-9.16812359389
-9.20875398112
-9.24754028036
-9.28440428183
-9.31926614547
-9.35204437987
-9.38265552513
-9.41101456304
-9.43703520025
-9.46062928144
-9.48170677195
-9.50017653161
-9.51594592654
-9.52892057871
-9.53900548509
-9.54610482499
-9.55012151365
-9.55095786617
-9.54851558099
-9.54269564526
-9.53339860839
-9.52052448863
-9.5039727801
-9.48364299296
-9.45943477523
-9.43124747254
-9.39898048575
-9.36253332025
-9.32180526733
-9.27669601189
-9.22710531277
-9.17293257658
-9.11407711764
-9.05043747546
-8.98191102492
-8.90839371085
-8.82977907316
-8.74595741976
-8.65681491298
-8.5622323714
-8.46208350886
-8.35623296343
-8.244534383
-8.12682776399
-8.00293574399
-7.87266138759
-7.73578827652
-7.59208040078
-7.44129010803
-7.28317818566
-7.11755168866
-6.94435189614
-6.76381431645
-6.57652509152
-6.38331050667
-6.18725877398
-1.51275414383
-1.56451560373
-1.70841095527
-1.87270466296
-2.02703767037
-2.16509551631
-2.28724917763
-2.39603768936
-2.4944816366
-2.58531161144
-2.67071913283
-2.75235712801
-2.83142708766
-2.90878093004
-2.9850104827
-3.06051918817
-3.13557770675
-3.21036423402
-3.28499343877
-3.35953738726
-3.43403986716
-3.50852621812
-3.58301024065
-3.65749764748
-3.73199096534
-3.80648974384
-3.88099211752
-3.95549574299
-4.02999811222
-4.10449664976
-4.17898891311
-4.25347271788
-4.32794598818
-4.40240666189
-4.47685281987
-4.55128256694
-4.62569387074
-4.7000847154
-4.77445307245
-4.84879673174
-4.92311339805
-4.99740067559
-5.07165590949
-5.14587624977
-5.22005866088
-5.2941998216
-5.36829616523
-5.44234390595
-5.51633894112
-5.59027686636
-5.66415300575
-5.73796230336
-5.81169932934
-5.88535831796
-5.95893307633
-6.03241691457
-6.10580269218
-6.17908279851
-6.25224907043
-6.32529278144
-6.39820465905
-6.47097481695
-6.54359270098
-6.61604712863
-6.68832626735
-6.76041752222
-6.83230750243
-6.90398201704
-6.97542596938
-7.04662332302
-7.11755712864
-7.18820945261
-7.25856132942
-7.328592746
-7.39828258846
-7.46760862105
-7.53654744303
-7.60507440627
-7.67316357578
-7.74078768542
-7.80791808313
-7.87452471206
-7.94057607968
-8.00603919195
-8.07087948533
-8.13506077486
-8.19854525023
-8.26129347107
-8.32326425351
-8.38441461858
-8.44469982514
-8.50407323553
-8.56248629148
-8.61988864861
-8.67622808313
-8.7314503844
-8.78549941316
-8.83831711613
-8.88984336229
-8.94001595492
-8.98877084715
-9.03604196845
-9.08176126179
-9.12585879633
-9.16826245014
-9.2088980892
-9.247689738
-9.28455928436
-9.319426835
-9.35221094599
-9.38282827444
-9.41119371306
-9.43722085961
-9.46082172537
-9.48190629507
-9.50038328307
-9.51616027366
-9.52914311252
-9.53923672988
-9.54634542055
-9.55037227155
-9.55121961463
-9.54878925918
-9.54298234545
-9.53369955742
-9.52084121434
-9.50430725778
-9.48399766777
-9.45981274278
-9.43165254299
-9.3994171081
-9.3630069021
-9.3223224692
-9.27726491282
-9.22773586232
-9.17363693814
-9.11487007994
-9.05133713609
-8.98293940921
-8.90957769348
-8.83115175426
-8.7475596046
-8.65869675381
-8.56445568099
-8.46472502774
-8.35938829315
-8.24832284264
-8.13139939947
-8.00848086749
-7.87942226881
-7.74407481554
-7.60229058046
-7.45393444374
-7.29890727579
-7.13717590733
-6.96882311293
-6.79411063015
-6.61344198835
-6.42713717534
-6.23586128605
-1.71682793708
-1.71184854872
-1.79582374012
-1.91661335293
-2.04325649162
-2.16593639496
-2.28083310271
-2.3870294377
-2.48531242295
-2.57710148366
-2.66386227504
-2.74687746587
-2.8271816084
-2.90556833201
-2.98262580738
-3.05877835449
-3.13432601405
-3.209477171
-3.28437380155
-3.35911096118
-3.43375104278
-3.5083339832
-3.58288457064
-3.65741794618
-3.73194182601
-3.80646074952
-3.88097615116
-3.9554879528
-4.02999527292
-4.10449670016
-4.17899054112
-4.25347508982
-4.32794864292
-4.4024093696
-4.47685544219
-4.55128506384
-4.62569627819
-4.70008706077
-4.77445539486
-4.8487991016
-4.92311585594
-4.99740324243
-5.0716586188
-5.14587911366
-5.22006168338
-5.29420302171
-5.36829954728
-5.44234746349
-5.51634268927
-5.59028082137
-5.66415718595
-5.73796678741
-5.81170422027
-5.88536367183
-5.95893892692
-6.03242329172
-6.10580960129
-6.17909023904
-6.2522570697
-6.32530137404
-6.39821386269
-6.47098465389
-6.54360320607
-6.61605832891
-6.6883382016
-6.76043026987
-6.83232115173
-6.90399663382
-6.97544161088
-7.04664003147
-7.11757492668
-7.18822836842
-7.25858140789
-7.32861405367
-7.39830521193
-7.4676326484
-7.53657296281
-7.6051015099
-7.67319234559
-7.74081820193
-7.80795044091
-7.87455901116
-7.94061240769
-8.00607762239
-8.07092009349
-8.13510364216
-8.19859044406
-8.26134106147
-8.32331435178
-8.38446733909
-8.44475527173
-8.50413156196
-8.56254766448
-8.61995318302
-8.67629589135
-8.73152161713
-8.78557421722
-8.83839563719
-8.88992580299
-8.94010252417
-8.98886172759
-9.03613736816
-9.08186133742
-9.12596366034
-9.16837223069
-9.20901285612
-9.24780960162
-9.28468448402
-9.31955754881
-9.35234729118
-9.38297047976
-9.41134199815
-9.43737529634
-9.46098250646
-9.48207377378
-9.50055768243
-9.51634191793
-9.5293326403
-9.53943480702
-9.54655274225
-9.55058967121
-9.55144797389
-9.54902956354
-9.54323577077
-9.53396746578
-9.5211253172
-9.50460980206
-9.4843213614
-9.4601608347
-9.4320290458
-9.39982680509
-9.36345558928
-9.32281726088
-9.27781433299
-9.2283502361
-9.1743288284
-9.11565469188
-9.05223301246
-8.98396911521
-8.91076861436
-8.83253729661
-8.7491806544
-8.66060329052
-8.5667088271
-8.46739997375
-8.36257793344
-8.25214177304
-8.13598916068
-8.01401743208
-7.88612474696
-7.75221550554
-7.61220643358
-7.46603709123
-7.31368978153
-7.15520896685
-6.99072116064
-6.82044555292
-6.64462313431
-6.46329805645
-6.27633403199
-1.83995638334
-1.81449988342
-1.86385899538
-1.95401890334
-2.0589437575
-2.16826630837
-2.27610300547
-2.3793267924
-2.4770005869
-2.56939099687
-2.65726229852
-2.74150628277
-2.82296168295
-2.9023396247
-2.98020747437
-3.05699948177
-3.13303847908
-3.20855920215
-3.28372888745
-3.3586646
-3.43344691442
-3.50813028497
-3.58275083492
-3.65733218387
-3.73188828899
-3.80642863381
-3.88095798658
-3.95547863214
-4.02999136132
-4.10449597707
-4.1789916079
-4.25347704985
-4.32795096654
-4.40241179528
-4.47685782165
-4.55128732416
-4.62569843629
-4.70008914678
-4.77445743565
-4.84880115496
-4.92311796831
-4.99740543198
-5.07166091327
-5.14588153176
-5.22006422724
-5.29420570814
-5.36830239402
-5.44235047896
-5.51634590612
-5.59028428851
-5.66416094498
-5.73797088367
-5.81170868913
-5.88536853449
-5.95894419626
-6.03242898735
-6.10581573744
-6.17909682063
-6.2522641198
-6.32530893352
-6.39822195751
-6.4709933002
-6.54361243639
-6.61606818498
-6.68834873053
-6.76044154349
-6.83233324807
-6.90400960107
-6.9754554761
-7.04665481559
-7.11759064917
-7.18824506662
-7.25859914291
-7.3286329033
-7.39832526429
-7.46765398553
-7.5365956565
-7.60512563267
-7.67321797027
-7.74084539928
-7.80797928515
-7.87458957977
-7.94064477294
-8.00611184408
-8.07095622679
-8.13514175397
-8.19863059912
-8.26138331064
-8.32335877005
-8.38451402178
-8.44480429242
-8.50418300477
-8.56260163837
-8.62000976966
-8.67635515602
-8.73158366294
-8.7856391631
-8.83846357363
-8.88999684129
-8.94017678869
-8.98893931095
-9.03621839729
-9.08194592178
-9.12605186021
-9.16846415577
-9.20910860789
-9.24790927705
-9.28478830418
-9.31966573611
-9.35245996043
-9.38308782036
-9.41146429442
-9.43750269169
-9.46111513239
-9.48221198483
-9.50070181688
-9.51649231561
-9.52948993212
-9.53959972982
-9.54672599263
-9.55077203564
-9.55164032457
-9.54923290951
-9.54345136228
-9.534196788
-9.52137017037
-9.50487251378
-9.48460475624
-9.46046823678
-9.43236455603
-9.40019537795
-9.36386318131
-9.32327114677
-9.2783231973
-9.22892448705
-9.17498106175
-9.11640005903
-9.05308987469
-8.98495980494
-8.91192014687
-8.83388231111
-8.75075874513
-8.66246260715
-8.56890781424
-8.47000967239
-8.3656851475
-8.25585247478
-8.1404321612
-8.01934953382
-7.89253654137
-7.75993727695
-7.62151423698
-7.47725520825
-7.32718770678
-7.171391401
-7.01000137202
-6.84319863785
-6.67115304702
-6.49387517683
-6.3111982001
-1.91399796426
-1.88294850257
-1.91287883336
-1.98265142987
-2.07181954215
-2.1706966961
-2.27257571978
-2.37304810228
-2.46997466391
-2.56272095465
-2.65145801691
-2.73672439066
-2.81916956391
-2.89941727708
-2.97800615832
-3.05537281621
-3.1318566636
-3.20771389604
-3.28313330253
-3.35825124605
-3.43316450439
-3.50794058633
-3.58262588485
-3.65725192308
-3.73183793396
-3.80639822945
-3.88094060145
-3.95546954356
-4.02998737222
-4.10449499269
-4.17899232246
-4.2534786404
-4.32795292462
-4.40241386451
-4.47685986834
-4.55128926562
-4.62570026838
-4.70009090243
-4.77445913722
-4.84880284488
-4.92311969485
-4.99740721486
-5.07166277474
-5.14588349551
-5.22006629552
-5.29420788784
-5.36830470023
-5.4423529111
-5.51634847237
-5.59028702063
-5.66416387406
-5.7379740459
-5.8117121463
-5.88537232939
-5.9589483322
-6.03243346381
-6.10582056019
-6.17910199076
-6.25226964791
-6.32531485107
-6.39822828844
-6.47100005135
-6.54361963072
-6.61607587092
-6.6883569612
-6.76045037773
-6.83234274266
-6.90401977901
-6.97546633378
-7.04666635166
-7.11760287622
-7.18825802281
-7.25861288878
-7.32864750499
-7.39834078806
-7.46767048895
-7.53661318579
-7.6051442394
-7.67323771625
-7.74086634566
-7.80800148975
-7.87461310196
-7.94066967352
-8.00613817467
-8.07098402523
-8.13517106644
-8.19866148145
-8.26141580072
-8.32339291926
-8.3845499204
-8.44484201609
-8.50422261569
-8.56264322807
-8.62005343063
-8.67640096074
-8.73163170436
-8.78568955726
-8.83851639962
-8.89005217875
-8.94023475105
-8.98899997911
-9.03628186075
-9.08201226471
-9.12612110762
-9.1685363899
-9.2091839482
-9.2479877911
-9.28487012934
-9.31975107912
-9.35254893049
-9.38318052036
-9.41156098326
-9.43760358024
-9.4612203159
-9.48232175254
-9.50081657688
-9.51661244121
-9.52961599404
-9.5397324288
-9.54686598258
-9.55092004334
-9.55179723491
-9.54939978811
-9.5436295365
-9.53438784816
-9.52157595734
-9.50509533196
-9.48484745856
-9.46073418298
-9.43265786684
-9.40052106794
-9.36422721207
-9.32368072371
-9.27878692571
-9.22945264783
-9.17558608399
-9.1170968363
-9.05389628193
-8.98589746754
-8.91301516187
-8.8351660058
-8.75226879264
-8.66424455247
-8.57101662607
-8.47251142385
-8.36865947849
-8.25939555242
-8.14465945273
-8.02439920676
-7.89857304999
-7.76715449564
-7.63013889573
-7.48754755513
-7.33943704363
-7.18590804733
-7.02710535988
-6.86320459892
-6.69438439146
-6.52074802635
-6.34234597361
-1.9562307424
-1.92466726504
-1.94431202113
-2.00175822687
-2.08077119159
-2.1725502815
-2.27016774726
-2.36855536907
-2.46483686828
-2.5577707485
-2.64710320748
-2.73310711765
-2.81628305434
-2.89718220808
-2.9763163641
-3.05412054847
-3.13094478137
-3.20706045942
-3.28267218526
-3.357930762
-3.4329452459
-3.507793096
-3.5825284059
-3.65718811775
-3.73179848909
-3.80637447215
-3.88092696181
-3.95546236777
-4.02998418478
-4.1044941488
-4.17899280359
-4.25347982446
-4.32795441271
-4.40241544412
-4.47686144146
-4.5512907628
-4.62570167028
-4.70009223746
-4.77446042839
-4.84880412016
-4.92312099613
-4.99740856248
-5.07166418095
-5.14588498059
-5.2200678615
-5.29420953071
-5.36830643011
-5.44235473099
-5.51635038843
-5.59028907112
-5.66416610621
-5.7379764922
-5.81171483343
-5.88537527423
-5.9589515267
-6.03243689115
-6.10582422049
-6.17910589213
-6.2522737993
-6.32531927443
-6.39823300846
-6.47100507868
-6.54362498656
-6.61608160857
-6.68836313912
-6.76045703822
-6.83234991162
-6.90402745276
-6.97547448874
-7.04667497847
-7.1176119924
-7.18826767308
-7.25862313315
-7.32865839628
-7.39835236995
-7.46768280011
-7.53662625985
-7.6051581131
-7.67325243556
-7.74088195645
-7.80801803074
-7.87463060896
-7.94068818758
-8.0061577358
-8.07100465493
-8.13519278375
-8.19868432777
-8.26143981027
-8.32341811737
-8.38457636602
-8.44486977219
-8.50425171873
-8.56267372848
-8.62008540036
-8.67643445925
-8.73166678769
-8.78572630709
-8.83855487461
-8.89009242175
-8.94027685265
-8.98904401416
-9.03632789404
-9.08206037769
-9.12617132649
-9.16858877579
-9.20923864005
-9.24804486537
-9.28492965921
-9.31981324598
-9.35261388057
-9.38324830447
-9.41163177803
-9.43767763952
-9.46129775922
-9.48240280866
-9.5009016844
-9.51670202501
-9.52971055192
-9.53983257029
-9.54697230875
-9.55103326542
-9.55191829279
-9.54952982779
-9.54376992704
-9.53454022301
-9.52174218931
-9.50527770027
-9.48504881878
-9.46095790916
-9.43290803683
-9.40080265816
-9.36454611256
-9.32404399513
-9.27920302582
-9.22993167625
-9.17614023577
-9.11774069088
-9.05464716245
-8.98677614809
-8.91404667056
-8.83638034175
-8.75370176077
-8.66593904827
-8.57302414396
-8.47489342666
-8.37148912375
-8.26276014528
-8.14866277006
-8.02916398086
-7.90424353402
-7.77389814051
-7.63814840829
-7.49704226197
-7.35066127651
-7.19912802488
-7.0426096226
-6.88130789076
-6.71545741056
-6.5452955984
-6.37111165459
-1.97547917221
-1.94438336776
-1.95960685137
-2.01127514445
-2.08533207806
-2.17353386542
-2.26893776038
-2.36620643143
-2.46211837835
-2.55512915013
-2.64476446665
-2.73115502564
-2.814719529
-2.8959681272
-2.9753965062
-3.05343772778
-3.13044691397
-3.20670333217
-3.28241995749
-3.35775532958
-3.43282514368
-3.50771227817
-3.58247512874
-3.65715409664
-3.73177701956
-3.80636149896
-3.88091953488
-3.95545847555
-4.02998248067
-4.10449372948
-4.17899311088
-4.25348053684
-4.3279553124
-4.40241639856
-4.47686239816
-4.55129168171
-4.62570252777
-4.70009305427
-4.77446122981
-4.8488049245
-4.92312183449
-4.99740945308
-5.07166512467
-5.14588598653
-5.22006892958
-5.2942106481
-5.36830759893
-5.44235595902
-5.51635168048
-5.59029045471
-5.66416762222
-5.73797816351
-5.81171667308
-5.88537729231
-5.95895371037
-6.0324392133
-6.10582667386
-6.17910848973
-6.25227655049
-6.32532218819
-6.39823610175
-6.47100836588
-6.54362848961
-6.61608537875
-6.68836723305
-6.76046148164
-6.83235470153
-6.90403256513
-6.97547989214
-7.04668066373
-7.1176179795
-7.1882740003
-7.25862984291
-7.32866551631
-7.39835991715
-7.46769079421
-7.53663472781
-7.60516708099
-7.67326193212
-7.74089201197
-7.80802867268
-7.87464186087
-7.94070007395
-8.00617028295
-8.07101787212
-8.13520666746
-8.19869890277
-8.26145511413
-8.32343416529
-8.38459318731
-8.44488741439
-8.5042702048
-8.56269307432
-8.6201056426
-8.67645563017
-8.73168889931
-8.78574939792
-8.83857899488
-8.89011759728
-8.94030314246
-8.98907147099
-9.03635654657
-9.0820902995
-9.12620256559
-9.16862137729
-9.20927273706
-9.24808055441
-9.28496695878
-9.31985225874
-9.35265476343
-9.38329110678
-9.41167659751
-9.43772473433
-9.46134730866
-9.48245500097
-9.5009569338
-9.51676078074
-9.52977323842
-9.53989969469
-9.54704445717
-9.55111119817
-9.55200302899
-9.54962256928
-9.54387203026
-9.53465331556
-9.52186818856
-9.50541889052
-9.48520804524
-9.46113854019
-9.4331140677
-9.40103895927
-9.36481847916
-9.32435938002
-9.27956980979
-9.23035984002
-9.17664173965
-9.11832981881
-9.05534083176
-8.98759447734
-8.91501377145
-8.83752511096
-8.75505858981
-8.66754882288
-8.57493566801
-8.47716469331
-8.37418852447
-8.26596847251
-8.15247529878
-8.03369253869
-7.90961891667
-7.78027152414
-7.64569302439
-7.50595608152
-7.36116811557
-7.21147883783
-7.05708870776
-6.89824533538
-6.73525638473
-6.56848733913
-6.39841300826
-1.97547916491
-1.94438345835
-1.95960663543
-2.01127528493
-2.08533201839
-2.17353376631
-2.26893775007
-2.36620641347
-2.46211838466
-2.55512916674
-2.64476454114
-2.73115513077
-2.8147196042
-2.8959681995
-2.9753965819
-3.05343778037
-3.13044694373
-3.20670334812
-3.28241996739
-3.35775533212
-3.43282514399
-3.50771230238
-3.58247518609
-3.65715418473
-3.73177715318
-3.80636167522
-3.88091971557
-3.9554586395
-4.02998264074
-4.10449388768
-4.17899327072
-4.25348073001
-4.32795554462
-4.4024166465
-4.47686265655
-4.55129194261
-4.62570277509
-4.70009330016
-4.77446149723
-4.84880522314
-4.92312217951
-4.99740985575
-5.07166557687
-5.14588648411
-5.22006946956
-5.29421121407
-5.36830818697
-5.44235658254
-5.51635234826
-5.5902911825
-5.66416844027
-5.73797908773
-5.81171769652
-5.88537840211
-5.95895488719
-6.03244043129
-6.10582792353
-6.17910978624
-6.25227790625
-6.32532360236
-6.39823757972
-6.47100992416
-6.5436301524
-6.6160871872
-6.68836922948
-6.76046367389
-6.83235706553
-6.90403506716
-6.9754825051
-7.04668338552
-7.11762083018
-7.18827700354
-7.25863301616
-7.32866886271
-7.39836343118
-7.46769448967
-7.53663862151
-7.60517118652
-7.67326625562
-7.74089656009
-7.8080334577
-7.87464689397
-7.94070535809
-8.00617582074
-8.071023662
-8.13521269549
-8.19870517804
-8.26146167531
-8.32344103051
-8.38460036371
-8.44489492448
-8.50427805434
-8.56270124392
-8.62011412291
-8.67646442172
-8.73169798484
-8.7857587797
-8.83858871302
-8.89012766892
-8.94031359321
-8.98908232695
-9.03636780232
-9.0821020137
-9.12621481749
-9.16863420845
-9.20928624465
-9.24809484773
-9.28498204249
-9.31986814133
-9.35267156314
-9.38330889569
-9.41169541866
-9.43774480574
-9.46136886586
-9.48247822301
-9.50098217514
-9.51678847295
-9.52980376399
-9.53993351082
-9.54708217714
-9.5511536472
-9.55205126201
-9.54967779132
-9.54393557158
-9.53472679164
-9.52195356827
-9.50551848105
-9.485324661
-9.46127552469
-9.43327534183
-9.40122930086
-9.36504364205
-9.32462630185
-9.27988689209
-9.2307370374
-9.17709083557
-9.11886488587
-9.05597863983
-8.98835491706
-8.91592047484
-8.83860628699
-8.75634780413
-8.66908583933
-8.57676772963
-8.47934782668
-8.37678854888
-8.26906265263
-8.156154265
-8.03806219473
-7.91480311321
-7.7864138001
-7.65295812801
-7.51453341893
-7.37127526043
-7.22336480893
-7.07104088692
-6.91460324965
-6.75442939853
-6.59098528177
-6.42486607357
-1.95623063092
-1.92466757749
-1.94431141409
-2.00175861253
-2.08077102541
-2.17255000357
-2.27016771871
-2.36855531806
-2.46483689101
-2.55777081635
-2.64710343565
-2.73310742452
-2.81628328036
-2.89718242575
-2.9763165772
-3.05412069313
-3.13094487025
-3.20706051442
-3.28267222216
-3.35793077679
-3.43294525368
-3.50779317025
-3.58252857938
-3.65718839028
-3.73179889332
-3.80637499087
-3.88092749473
-3.95546286126
-4.02998466926
-4.1044946284
-4.17899329244
-4.25348040732
-4.32795510257
-4.40241617922
-4.47686220798
-4.55129153686
-4.62570241182
-4.70009298572
-4.77446124757
-4.8488050378
-4.92312205437
-4.9974097895
-5.07166555265
-5.14588648517
-5.22006948968
-5.29421123889
-5.36830820711
-5.44235661041
-5.5163523959
-5.59029125492
-5.66416855029
-5.73797924115
-5.81171787313
-5.88537857183
-5.95895502805
-6.03244052588
-6.10582796535
-6.17910978828
-6.25227787918
-6.32532353634
-6.39823746628
-6.4710097766
-6.54362999597
-6.61608705018
-6.68836913421
-6.76046361272
-6.83235700322
-6.90403496867
-6.97548235005
-7.04668317348
-7.11762056991
-7.18827669331
-7.25863264398
-7.32866841312
-7.3983628921
-7.46769386035
-7.53663791354
-7.60517040178
-7.67326538264
-7.74089558754
-7.80803238461
-7.87464571899
-7.94070406116
-8.00617437506
-8.0710220521
-8.13521090304
-8.1987031951
-8.26145952774
-8.32343873815
-8.38459792045
-8.44489232501
-8.50427527915
-8.56269823693
-8.62011082396
-8.6764608003
-8.73169401687
-8.78575444663
-8.83858403099
-8.89012263042
-8.94030818162
-8.9890765514
-9.03636164825
-9.08209551982
-9.12620808532
-9.1686272845
-9.20927917413
-9.24808771558
-9.28497485822
-9.31986085119
-9.35266422198
-9.38330159805
-9.4116881848
-9.43773778351
-9.46136231788
-9.48247235655
-9.5009772784
-9.51678492655
-9.5298019362
-9.53993387615
-9.54708540012
-9.55116057208
-9.55206290646
-9.54969532927
-9.54396033107
-9.53476039337
-9.52199801975
-9.50557610327
-9.48539821589
-9.46136832918
-9.43339131314
-9.40137322263
-9.36522131995
-9.32484471553
-9.28015448623
-9.23106383529
-9.17748863224
-9.11934771523
-9.05656328933
-8.98906137989
-8.91677248081
-8.83963207138
-8.75758090131
-8.67056582718
-8.57854138293
-8.48147061682
-8.37932579465
-8.27209094488
-8.15976320272
-8.04235607356
-7.9199037767
-7.79246300518
-7.66011933426
-7.52299441333
-7.38125305605
-7.23511008209
-7.08484155081
-6.93079523675
-6.77340426476
-6.61320121299
-6.45084562767
-1.91399751226
-1.88294917182
-1.91287794208
-1.98265195234
-2.0718193044
-2.17069628785
-2.27257567386
-2.37304803379
-2.46997471613
-2.56272110747
-2.6514583952
-2.73672486321
-2.81916993859
-2.89941764039
-2.97800647461
-3.05537302049
-3.13185680417
-3.20771399801
-3.28313338002
-3.35825129763
-3.4331645523
-3.50794072931
-3.58262618161
-3.65725239184
-3.73183860629
-3.8063990605
-3.88094146271
-3.95547036701
-4.02998818414
-4.10449579986
-4.17899316103
-4.2534796228
-4.32795406013
-4.40241507338