/*--------------------------------*- C++ -*----------------------------------*\
| =========                 |                                                 |
| \\      /  F ield         | OpenFOAM: The Open Source CFD Toolbox           |
|  \\    /   O peration     | Version:  2106                                  |
|   \\  /    A nd           | Website:  www.openfoam.com                      |
|    \\/     M anipulation  |                                                 |
\*---------------------------------------------------------------------------*/
FoamFile
{
    version     2.0;
    format      ascii;
    arch        "LSB;label=32;scalar=64";
    class       volScalarField;
    location    "0.375";
    object      p;
}
// * * * * * * * * * * * * * * * * * * * * * * * * * * * * * * * * * * * * * //

dimensions      [0 2 -2 0 0 0 0];

internalField   nonuniform List<scalar> 
11200
(
150.124412932
147.195810726
146.081958315
145.554624659
145.187291768
144.892509546
144.630861359
144.382318037
144.137794342
143.892720608
143.644399642
143.391076709
143.131519774
142.864793146
142.59012991
142.306856581
142.014347354
141.711996246
141.399204437
141.075384012
140.739911029
140.392136443
140.03140191
139.65703957
139.268363885
138.86467361
138.445252647
138.009370696
137.556283936
137.085235646
136.595456783
136.086166492
135.556572378
135.005870526
134.433246393
133.837875856
133.218925079
132.575550669
131.906900053
131.212111958
130.49031668
129.740636247
128.962184699
128.154068237
127.315385179
126.445225563
125.542670755
124.606792792
123.636653354
122.631302037
121.589774296
120.511088769
119.394243396
118.238210577
117.041931001
115.80430589
114.524186751
113.200363146
111.831547137
110.416352448
108.953270708
107.440639477
105.876601168
104.259055071
102.585591338
100.853404499
99.0591841138
97.1989702094
95.2679584425
93.2602339626
91.1684075888
88.9831197327
86.6921715738
84.2793766369
81.7226488276
78.9903278192
76.0348133134
72.7835276832
69.0827396674
64.3194281541
148.331371233
146.973196625
146.182223564
145.682206796
145.29121537
144.967328961
144.68280334
144.418196067
144.162702662
143.910174731
143.656784924
143.400019566
143.138141578
142.869874402
142.594217534
142.310336107
142.017492722
141.71500459
141.402213267
141.078456831
140.743085243
140.395422958
140.034826169
139.660626754
139.272128747
138.868625194
138.449397158
138.013712502
137.560826121
137.08998033
136.600405088
136.091317914
135.561924606
135.011424876
134.439006172
133.843844341
133.225105311
132.58194566
131.913512826
131.218945583
130.497374356
129.747921417
128.969701134
128.161820098
127.323377163
126.453463158
125.551160443
124.615542217
123.645671623
122.640600206
121.59936583
120.520990097
119.404474635
118.248796452
117.052901909
115.815699284
114.536048859
113.212750937
111.84453122
110.430020464
108.967731536
107.456029622
105.89309103
104.276852471
102.604946313
100.874632074
99.0826939367
97.2252946126
95.2977946503
93.2945092278
91.2083693541
89.0304186274
86.7491095753
84.3493061589
81.8106130749
79.104521936
76.1902345711
73.0099174038
69.4607816924
65.3479776281
147.336181101
146.681980152
146.129622829
145.692002631
145.320375644
144.998270072
144.709165789
144.438926953
144.178458566
143.921971763
143.665581547
143.406606145
143.143133425
142.873736345
142.597293752
142.31287699
142.01967643
141.716953509
141.404009962
141.080168895
140.744768291
140.397168501
140.036625534
139.662485674
139.27405687
138.870629626
138.451482698
138.015882876
137.563084749
137.092330844
136.602851985
136.093868122
135.564588175
135.014204758
134.441900304
133.846853009
133.228229936
132.585188216
131.916876116
131.222433224
130.500990818
129.751672123
128.973592613
128.165860206
127.327575302
126.457830596
125.555710833
124.620292051
123.650640858
122.645813081
121.604851908
120.526785409
119.410623128
118.255351737
117.059929405
115.823278811
114.544278041
113.221749148
111.854444732
110.441028987
108.980054755
107.469935547
105.908907455
104.295001728
102.625981072
100.899251366
99.1117708707
97.2599410564
95.3394479044
93.3450528464
91.2703062392
89.1071452745
86.8454751984
84.472380281
81.9711398054
79.3198939774
76.4906700435
73.4518541208
70.1674705901
66.6145016294
146.786419976
146.423038093
146.02313844
145.654145453
145.316525335
145.008418663
144.723050388
144.452340883
144.189962802
143.931289158
143.672901897
143.412269439
143.147491855
142.877101793
142.599923103
142.314973242
142.021395904
141.718414913
141.405303166
141.081360758
140.745896735
140.398220914
140.037692067
139.663587042
139.275195158
138.871808794
138.452706452
138.017153698
137.564403993
137.093698838
136.604267878
136.095329227
135.566090151
135.015749039
134.443495704
133.848504837
133.22994443
132.586972361
131.918735951
131.224375184
130.503022161
129.753801144
128.97582903
128.168215604
127.330063632
126.460468669
125.558519012
124.623295085
123.653868845
122.649302616
121.60864745
120.530940968
119.415204423
118.260438834
117.065620038
115.829692507
114.551561431
113.230082246
111.864048309
110.452174283
108.993078801
107.485263839
105.927069063
104.316634737
102.651859501
100.930344779
99.149315228
97.3055187524
95.3951023358
93.4134560958
91.355023057
89.2130738515
86.9793769438
84.643890674
82.1945263977
79.61718641
76.897126208
74.0246397651
71.0033267664
67.8703684061
146.452372087
146.220576063
145.919162029
145.608182367
145.303339345
145.011311605
144.73233098
144.463199259
144.200232868
143.940141683
143.680165263
143.418066124
143.152051678
142.88067277
142.602732649
142.317214303
142.023225144
141.719955969
141.406651475
141.082589079
140.747063901
140.399379589
140.038839796
139.664733929
139.276364885
138.873016435
138.453961857
138.018464287
137.565775832
137.095137419
136.605778794
136.096918695
135.567764948
135.017514274
134.445352791
133.850456939
133.231992319
132.589116951
131.920981532
131.226726464
130.505486329
129.75638771
128.978549951
128.171085676
127.333100814
126.463694842
125.561960667
124.626984337
123.657844596
122.653611921
121.613347937
120.536102888
119.420913403
118.266799303
117.072759243
115.837764815
114.560753735
113.240622409
111.876213398
110.46630775
109.009602507
107.504686034
105.950021222
104.343913488
102.684468919
100.969545776
99.1966964812
97.3630991002
95.465474159
93.4999874465
91.4621422928
89.3466741259
87.1474746156
84.8576252558
82.4697054781
79.9767064546
77.3744322325
74.6673251135
71.8767453448
69.0533896976
146.248979653
146.073077057
145.831880719
145.564552445
145.287362107
145.010719607
144.739024977
144.472517755
144.209746406
143.948730876
143.687436249
143.423995405
143.156782789
142.884407518
142.605676657
142.319552477
142.025112953
141.721518715
141.407987028
141.083772113
140.748150585
140.400410542
140.03984258
139.665736978
139.277383211
138.874060647
138.455039929
138.019582127
137.56693783
137.096346687
136.607037464
136.098228061
135.569125757
135.01892738
134.446819737
133.851980239
133.23357754
132.590771533
131.922713455
131.228547691
130.507409645
129.758426585
128.980719971
128.173405103
127.335591163
126.466382201
125.564876768
124.630167786
123.661342445
122.657481831
121.617659316
120.540939874
119.426378125
118.27301583
117.079878802
115.845973318
114.570281157
113.251749647
111.889288881
110.481748999
109.027914513
107.526492948
105.976100739
104.375222008
102.722189431
101.015153233
99.2520426125
97.430523888
95.5479571906
93.6013568175
91.5873665994
89.5022748973
87.3421155082
85.1029473144
82.7814855208
80.3763786263
77.890694393
75.3365868302
72.7410037405
70.1510419939
146.125862914
145.970254782
145.763951483
145.527387084
145.271908897
145.008625766
144.744008322
144.480494985
144.218356543
143.956765176
143.694386838
143.429744983
143.161409738
142.888072503
142.608561067
142.321827844
142.026927922
141.722995491
141.409222541
141.084841157
140.749109528
140.401301218
140.04069739
139.666580523
139.278231828
138.874925698
138.455929933
138.020503401
137.567895162
137.097343995
136.608078262
136.099315856
135.57026431
135.020121191
134.448074519
133.853302603
133.234974485
132.592250887
131.924284027
131.230217431
130.509186424
129.760322107
128.982750509
128.175590818
127.337957297
126.468959241
125.567701569
124.633285064
123.664806385
122.661357996
121.622027401
120.545896982
119.43204256
118.279531625
117.08742124
115.854754452
114.580555856
113.263830739
111.903553525
110.498664706
109.048063017
107.550588479
106.005011766
104.410020537
102.764202923
101.066029718
99.3138366668
97.5058099548
95.6399799364
93.7142322219
91.7263525336
89.6741349021
87.5555999196
85.3694150044
83.1156489765
80.7970594311
78.4211951646
76.0036542006
73.5713116225
71.1635232262
146.051783266
145.901772693
145.715015708
145.498908267
145.259199518
145.006375024
144.747734173
144.486991828
144.225620564
143.963694005
143.700471266
143.434828865
143.165526216
142.891342004
142.611132681
142.323848389
142.02852764
141.724283125
141.410285311
141.085747017
140.74991027
140.402035719
140.041394426
139.66726086
139.278911419
138.875615491
138.456638103
138.02123605
137.56865704
137.098139075
136.608910105
136.100187944
135.571180293
135.021084969
134.449090173
133.854374723
133.236108479
132.593452553
131.925560171
131.231577809
130.51064697
129.761900914
128.984466202
128.177465736
127.340018413
126.471239352
125.570240584
124.636131533
123.66801931
122.665009017
121.626204094
120.550705755
119.437612547
118.286019686
117.095018075
115.863693443
114.591123512
113.276373058
111.918496633
110.516524667
109.069465983
107.576301306
106.035976037
104.447393385
102.809408936
101.120827286
99.3804030102
97.5868502327
95.7388674575
93.8351897055
91.8746847106
89.8565226626
87.780457656
85.6473019054
83.4596688681
81.2230919076
78.9476071151
76.649818673
74.3544057928
72.0933756709
146.009506905
145.860058818
145.683642004
145.479901982
145.250366976
145.004655766
144.750292491
144.491650444
144.230939614
143.968840983
143.705038617
143.438674585
143.1686573
142.893838041
142.613100033
142.325395065
142.029751094
141.725265597
141.411093242
141.086432468
140.750513111
140.402585943
140.041914337
139.667767761
139.2794151
138.876125827
138.457161846
138.021778186
137.569221555
137.098729429
136.609529474
136.100839492
135.571867373
135.021811347
134.449860179
133.855193507
133.236982301
132.594389423
131.926570453
131.232674051
130.511840461
129.763206606
128.985904036
128.179060038
127.341798595
126.473241024
125.572506905
124.638714891
123.670983426
122.668431258
121.630178051
120.555345044
119.443055353
118.292434122
117.102608216
115.872706803
114.601860705
113.289199357
111.933855675
110.53496095
109.091643399
107.603029421
106.068243229
104.486407984
102.856650672
101.178110913
99.4499580809
97.6714210145
95.841836611
93.9607319564
92.0279522613
90.0438644301
88.0096634739
85.927840649
83.8028422727
81.6419635495
79.4564544599
77.2627259437
75.0828213851
72.9429192325
145.990230445
145.840352203
145.668388072
145.470450882
145.245887333
145.003765564
144.751627298
144.494114863
144.23378386
143.971618402
143.70752318
143.440782381
143.170386347
142.89522753
142.614205225
142.326273233
142.030454479
141.725838583
141.411571867
141.086845074
140.750881488
140.402926563
140.04223944
139.668086289
139.279734682
138.876451338
138.457497249
138.022126711
137.569586007
137.099112479
136.609933754
136.101267855
135.572323074
135.022298162
134.4503826
133.855756979
133.237593439
132.59505618
131.927301994
131.233480775
130.512737308
129.764210888
128.987036352
128.180345219
127.343266854
126.474929126
125.574459496
124.640986105
123.673638949
122.671550948
121.633858872
120.559704738
119.448236839
118.298610987
117.109991408
115.881552446
114.612480518
113.301972942
111.949242397
110.553520311
109.114054797
107.630119113
106.101016965
104.526090469
102.904733789
101.236412643
99.5206942322
97.7572920344
95.9461312535
94.0874494316
92.1819386901
90.2309683267
88.2368783085
86.2034219586
84.1363068518
82.0438777486
79.9378579475
77.8340009636
75.751995873
73.713766409
145.990232975
145.84036821
145.668415042
145.470487082
145.245931994
145.003817857
144.751686332
144.494179807
144.233854005
143.971693187
143.707602142
143.44086516
143.170472668
142.895317207
142.614298139
142.326369301
142.030553687
141.725940965
141.411677506
141.086954111
140.750994126
140.403043096
140.042360291
139.668212019
139.279866032
138.87658905
138.457642245
138.022280166
137.569749324
137.099287181
136.61012187
136.101471822
135.572545876
135.022543418
134.450654671
133.856061148
133.237936065
132.595444955
131.927746481
131.233992965
130.51333119
129.764903435
128.987848368
128.181301989
127.344398989
126.476273838
125.576062042
124.642901413
123.675933662
122.674305958
121.637172338
120.563695809
119.453050137
118.304422009
117.117013253
115.890043285
114.62275283
113.314407467
111.964299789
110.571761334
109.136158192
107.65690829
106.133490635
104.565459326
102.952464347
101.294278515
99.590834605
97.8422820245
96.0490663589
94.21203768
92.332624667
90.4131287597
88.4566633951
86.4678505099
84.4532055444
82.421629595
80.3849086189
78.3580596975
76.358984329
74.4067750857
146.009514568
145.860107222
145.683723502
145.480011314
145.250501839
145.004813458
144.750470258
144.491845824
144.231150527
143.969065721
143.705275801
143.438923139
143.168916417
142.894107154
142.613378783
142.325683258
142.030048691
141.725572697
141.411410093
141.086759486
140.750850912
140.402935408
140.042276676
139.668144647
139.279808619
138.876538241
138.457595913
138.022237292
137.5697098
137.099251669
136.610091647
136.101448815
135.57253268
135.022543364
134.450671919
133.856100798
133.238004416
132.595549724
131.927897011
131.234200642
130.513609867
129.765269936
128.988323179
128.181910081
127.345170614
126.477245724
125.5772788
124.644417245
123.677814337
122.676631258
121.640039149
120.567221509
119.457377248
118.309723249
117.123498244
115.897966222
114.632421537
113.326195655
111.978659515
110.589236479
109.157413471
107.682743908
106.164871725
104.603548799
102.998660429
101.350262488
99.658640926
97.9243807335
96.1483705537
94.3319856624
92.4772028127
90.5867054385
88.6644704474
86.7157560458
84.7475536275
82.769015615
80.791814992
78.8303559859
76.9013544421
75.0222495461
146.051796252
145.901854623
145.715153388
145.499092572
145.259426404
145.006639824
144.748032174
144.487318914
144.225973297
143.964069537
143.700867309
143.435243636
143.165958387
142.891790647
142.61159722
142.324328527
142.029023324
141.724794527
141.410812845
141.086291394
140.750472557
140.40261739
140.04199739
139.667887914
139.279565656
138.87630081
138.457359118
138.021998283
137.569467155
137.099005135
136.609841874
136.101197245
135.57228151
135.022295555
134.450431325
133.855872205
133.23779372
132.595364278
131.927745779
131.234094515
130.513562133
129.765296805
128.988444315
128.182149451
127.345557356
126.477815209
125.578073959
124.645490244
123.679228449
122.678463238
121.642382183
120.57018851
119.461105209
118.31437815
117.129281085
115.905120583
114.641242373
113.337039205
111.991956787
110.605508804
109.177285844
107.706975267
106.194376947
104.63943077
103.042250852
101.403151384
99.7226869436
98.0017162278
96.2415597463
94.4440320702
92.6115880476
90.7474890116
88.8560433802
86.9428528116
85.0151361395
83.0820645351
81.1550781551
79.2481230912
77.3773306967
75.5596136859
146.125881592
145.970372379
145.76414841
145.527649759
145.272231199
145.009000864
144.744429429
144.480956278
144.218853192
143.957293224
143.694943119
143.430327038
143.162015764
142.88870123
142.609211702
142.322499979
142.027621484
141.723710718
141.409959998
141.085601798
140.749894794
140.402113189
140.04153882
139.66745503
139.27914371
138.875880265
138.456933512
138.021563546
137.569020958
137.098546509
136.609370932
136.100715006
135.571789803
135.021796971
134.449929292
133.855371117
133.237298988
132.594882569
131.927285368
131.233665603
130.513177137
129.764970857
128.988195829
128.182000851
127.345535916
126.477954038
125.578413242
124.646078784
123.680125525
122.679740686
121.644127234
120.572506828
119.46412479
118.318254304
117.134201686
115.911312924
114.648981691
113.346657703
112.003857269
110.620174837
109.195301909
107.729042602
106.221335768
104.672281388
103.082171358
101.451544528
99.7812357309
98.0724281817
96.326733223
94.54629273
92.7339047389
90.8931689364
89.0286666243
87.1461715191
85.2529131379
83.3578745595
81.4721342055
79.6092611416
77.7852652629
76.017554466
146.249004699
146.073234037
145.832142097
145.564899267
145.287785691
145.011210663
144.739574489
144.473118144
144.210391486
143.949415617
143.68815665
143.424748396
143.157566125
142.885219619
142.606516517
142.320419584
142.026007179
141.72244026
141.408936437
141.084750272
140.749158697
140.40145055
140.040919106
139.666856119
139.278549852
138.875280794
138.456321219
138.020933773
137.568370914
137.097874795
136.60867729
136.100000087
135.571055066
135.021044636
134.449162323
133.854593413
133.23651545
132.594099125
131.926509252
131.232905787
130.512444762
129.764279558
128.987562318
128.181445505
127.345083512
126.477634717
125.578263576
124.646143081
123.680457537
122.680405624
121.645204209
120.574091805
119.466333571
118.321227347
117.138108923
115.916359624
114.65541609
113.354779305
112.014027089
110.632828994
109.210962894
107.748335673
106.245008817
104.701228808
103.117462376
101.494438037
99.8331988466
98.1351662264
96.402214892
94.6367579234
92.8418502447
91.0213089691
89.1798575786
87.3232862961
85.4586565208
83.5945616235
81.7415148972
79.9125965194
78.1238370472
76.3939095038
146.452404186
146.220777251
145.919494313
145.608620323
145.303871034
145.011924824
144.733014349
144.463943469
144.201030419
143.940986568
143.681052765
143.418992656
143.153014631
142.881670386
142.60376391
142.318278832
142.024323003
141.721087574
141.407817432
141.08379023
140.748301652
140.400655085
140.040155254
139.666103026
139.277791878
138.874507371
138.455525208
138.0201105
137.567517504
137.096989708
136.607759964
136.099050821
135.570074909
135.020035358
134.448126402
133.853534181
133.235437312
132.593007605
131.925411048
131.231808873
130.511358722
129.76321605
128.986535571
128.180472891
127.344186349
126.476839063
125.577601211
124.645652718
123.680186101
122.680409976
121.645553542
120.574870126
119.467642346
118.32318949
117.140873436
115.920106482
114.660361492
113.361183784
112.022204045
110.643155076
109.22389023
107.764405965
106.264868601
104.725645768
103.147343899
101.530852418
99.8773946496
98.1885871314
96.4665086648
94.7137769406
92.9336334702
91.130035984
89.3077587321
87.472498216
85.6310058971
83.7912762791
81.9629302024
80.1581218254
78.3923665355
76.6855193008
146.786459171
146.423287189
146.023544155
145.654674941
145.3171627
145.009148312
144.723858473
144.453216394
144.19089703
143.932275246
143.673934529
143.413344598
143.148606726
142.878254627
142.601113163
142.316200781
142.022662174
141.719722125
141.406654031
141.082758898
140.747351117
140.399747231
140.039263318
139.665206824
139.276877654
138.873565641
138.454549587
138.019096899
137.566463393
137.095893579
136.606621103
136.097869158
135.568850912
135.018769904
134.44682082
133.852190385
133.234058112
132.591596801
131.923973661
131.230351572
130.509890172
129.761746511
128.985077437
128.17904119
127.34279925
126.475518516
125.576373818
124.644550743
123.679248973
122.679685216
121.645098457
120.574754301
119.467949641
118.32402115
117.142351815
115.92237939
114.663608442
113.365621711
112.028093816
110.65080961
109.233684295
107.776787004
106.280369002
104.744896325
103.171088078
101.559960797
99.9128792691
98.2316135589
96.5184014004
94.7760148788
93.0078295789
91.2178920985
89.4109789822
87.5926413351
85.7692430662
83.9480017729
82.1372200597
80.3472795262
78.5913954401
76.8882206447
147.336232227
146.682291323
146.130111967
145.692628961
145.321119596
144.999112761
144.710091148
144.439922514
144.179514584
143.923080554
143.666737095
143.407803817
143.144369748
142.87500879
142.598600632
142.31421747
142.021050888
141.718364431
141.405462227
141.081668881
140.746316252
140.398734331
140.038244257
139.66416595
139.275804085
138.872451711
138.453390139
138.01788864
137.565204564
137.094583414
136.605259529
136.096456709
135.567388681
135.017259575
134.445264581
133.850590588
133.232416174
132.589915417
131.922256424
131.228602597
130.508114217
129.759950484
128.98327017
128.17723362
127.3410049
126.47375403
125.57465947
124.642911257
123.6777141
122.678291595
121.643890271
120.573785557
119.467286035
118.323741735
117.142552207
115.923174741
114.665135986
113.368046885
112.031615707
110.655666959
109.240162714
107.785227452
106.291177294
104.758553601
103.188161764
101.581115387
99.9388860665
98.2633577641
96.556883855
94.8223498887
93.0632291403
91.2836315323
89.4883304936
87.6827549847
85.8729214919
84.0652180637
82.2663057009
80.4837446412
78.7246492855
76.9977148635
148.33146976
146.9736532
146.182905114
145.683060603
145.292218434
144.968460634
144.684046731
144.419538188
144.164133365
143.911685962
143.658370277
143.401673883
143.139860503
142.871654027
142.596053964
142.312225069
142.019429011
141.716981261
141.40422464
141.080510709
140.745179582
140.397582304
140.037066997
139.662950417
139.274540995
138.871135163
138.452015839
138.016451257
137.563700471
137.093010531
136.603616413
136.094742219
135.565601886
135.015399868
134.443331775
133.848585387
133.230342133
132.587775062
131.92005233
131.226338294
130.505794353
129.757580215
128.980855719
128.174782635
127.338526689
126.471260013
125.572163606
124.640430474
123.675269295
122.675908029
121.641598525
120.571622303
119.465295859
118.321978233
117.141080212
115.922073054
114.664500707
113.367992407
112.032279407
110.657213591
109.242789213
107.789168366
106.296710644
104.766007292
103.197920286
101.593626767
99.9546682383
98.2830025647
96.581056471
94.8518042435
93.0987936264
91.3261926208
89.5388063057
87.7420525388
85.9418278826
84.1439987456
82.3540945138
80.5768787628
78.8071551117
77.0154182998
150.124578241
147.196479759
146.082950446
145.555877815
145.188775853
144.894200087
144.63273988
144.384371064
144.140012027
143.895095911
143.646927829
143.393755017
143.134347277
142.867770869
142.593260901
142.310145997
142.01780228
141.715625083
141.403011855
141.079355147
140.74405032
140.396456994
140.035906485
139.661733739
139.273256743
138.869776363
138.450578814
138.014939052
137.562114807
137.091351634
136.601884593
136.092937922
135.563725592
135.013452129
134.441313148
133.846496114
133.228181263
132.585542707
131.917749244
131.223965569
130.503353409
129.755073139
128.978285362
128.172152598
127.335841549
126.468525341
125.569386534
124.637619547
123.672435081
122.673063259
121.638758761
120.568806407
119.462526928
118.319284018
117.138493933
115.919634686
114.662257819
113.366002556
112.030611807
110.65595117
109.242031161
107.789032988
106.297338652
104.767565799
103.20060721
101.597675321
99.9603515004
98.29064288
96.5910466293
94.8645682697
93.1148129734
91.3460175373
89.5630708889
87.7714921265
85.9773272331
84.1870730498
82.4071498712
80.6423410658
78.8721875651
76.9722341225
56.9253535502
53.3732223893
50.9817787565
49.0243587103
47.3523211432
45.8954955928
44.609898193
43.4658220015
42.4415926535
41.5204614141
40.6890192215
39.9362576746
39.2529721559
38.6313611309
38.0647429489
37.5473467183
37.0741546314
36.6407778969
36.2433592361
35.8784940719
35.543164924
35.2346895052
34.950675774
34.6889843263
34.4476964077
34.2250873209
34.01960257
33.8298375033
33.6545198717
33.4924951851
33.3427130168
33.2042157993
33.076128694
32.9576515159
32.8480504802
32.7466517987
32.65283518
32.5660281031
32.4857009811
32.411360964
32.3425474576
32.2788244841
32.2197762578
32.1650534048
32.11454607
32.0680427036
32.025109967
31.9853761945
31.9485611414
31.9144502917
31.8828445485
31.8535527574
31.8263982343
31.8012288203
31.777908933
31.7562730985
31.7361821559
31.7175154474
31.7001668011
31.6840149687
31.6689547141
31.6548936817
31.6417470101
31.6294352933
31.6178863249
31.6070328031
31.5968133963
31.5871718447
31.5780557141
31.5694164028
31.5612118503
31.5533988174
31.5459419138
31.5388075155
31.5319625486
31.5253801301
31.5190344775
31.5129016802
31.5069603864
31.5011896996
31.4955718504
31.4900902078
31.4847295658
31.4794751866
31.4743182288
31.4692532655
31.4642662264
31.459347119
31.4544886446
31.4496799294
31.4449134163
31.4401863464
31.4355050013
31.430863334
31.4262411579
31.421630175
31.4170265328
31.4124244452
31.4078197305
31.4032094524
31.3985886471
31.3939543233
31.3893035091
31.3846329339
31.3799395803
31.375220628
31.3704731456
31.3656949366
31.360882959
31.3560347597
31.3511481478
31.3462202401
31.3412486963
31.3362318133
31.3311669304
31.3260521622
31.3208859884
31.3156667608
31.3103934694
31.3050646699
31.2996802112
31.294238118
31.2887342727
31.2831508955
31.2774380618
31.2714903712
31.2661989002
31.2610285833
31.2556821983
31.250312333
31.2450008093
31.2398093178
31.2347840864
31.2299782326
31.2254474168
31.2212498205
31.2174355321
31.2140426293
31.2110793683
31.2085040737
31.2065113956
31.2047319794
31.2030565755
31.2008645687
31.196457077
31.1855964043
31.1581872411
31.0926032089
30.9476361202
30.6528114111
30.1029766544
29.1654278197
27.7076840961
25.6371490035
22.9278319816
19.6357587559
15.8793010926
11.6264156741
6.60184200118
1.56992852838
60.1067117248
56.0538874602
53.3418965177
51.1895367258
49.3875919342
47.837652419
46.4815078399
45.281920215
44.212714193
43.2542551556
42.3911993812
41.6112011174
40.9041028294
40.2614124162
39.6759362297
39.1415220742
38.6528599811
38.2053376005
37.7949201353
37.4180664342
37.0716460667
36.7528857845
36.459317175
36.188737843
35.9391760525
35.7088578993
35.4961885356
35.2997279444
35.118168895
34.9503277086
34.7951299188
34.6515882116
34.5188072785
34.3959676627
34.2823138421
34.1771547484
34.0798558977
33.989832352
33.9065422547
33.8294930096
33.7582229389
33.6923164774
33.6313906973
33.5750795811
33.5229449112
33.4746796846
33.4299911974
33.3886530399
33.3504225771
33.3150576278
33.2823388054
33.2520549384
33.224013062
33.198034776
33.1739472379
33.1516024011
33.130862843
33.1115935047
33.0936635362
33.0769769366
33.0614282642
33.0469224927
33.0333736728
33.0206979955
33.0088239149
32.9976783708
32.987195327
32.9773140451
32.9679843672
32.9591487422
32.9507701496
32.9427994326
32.935201001
32.9279412537
32.9209887215
32.9143079077
32.9078765384
32.9016674095
32.8956586484
32.8898300895
32.8841608962
32.8786336604
32.8732380482
32.8679534015
32.8627709857
32.8576667337
32.8526351475
32.8476670125
32.8427548285
32.8378922006
32.8330700238
32.8282822535
32.8235169236
32.818769501
32.8140374712
32.8093179689
32.8046077443
32.7999012546
32.7951927702
32.7904829829
32.7857634094
32.7810315541
32.7762873039
32.7715249262
32.7667417757
32.7619352345
32.757104624
32.7522412785
32.7473506742
32.7424249107
32.7374626792
32.7324582311
32.7274176153
32.7223300553
32.717198264
32.7120155285
32.706786978
32.7015086588
32.6961788131
32.6908002051
32.6853703971
32.6798977583
32.674380521
32.6688340073
32.6632788814
32.6577318114
32.6522277039
32.6465353483
32.6409959029
32.6356285832
32.6303406655
32.6252187332
32.6203197542
32.6157037202
32.6114344572
32.6075843435
32.6042289133
32.6014094372
32.5991623478
32.5975195259
32.5964698784
32.5958521958
32.5953674835
32.5941819302
32.5900777923
32.5778289517
32.5453538987
32.4677663161
32.2988757311
31.9618695852
31.3454700373
30.3139904301
28.7380704757
26.5349355735
23.6904965439
20.2652584586
16.3755928485
12.004719983
6.89114464242
1.70354315375
62.3141464742
58.3806960751
55.513538812
53.2296064853
51.3276446742
49.7011744803
48.2851662622
47.0376021882
45.9290578427
44.9376707379
44.0465401567
43.2422113926
42.5137254801
41.8520025156
41.2494127082
40.6994757561
40.1966332393
39.7360815947
39.3136368097
38.9256402261
38.5688679094
38.240470088
37.937915333
37.658947972
37.4015509758
37.163911712
36.9443998861
36.7415450169
36.5540124817
36.3805914303
36.2201846646
36.0717846359
35.9344740983
35.8074151902
35.6898359523
35.5810282154
35.4803415687
35.3871767433
35.300976919
35.2212342625
35.147470857
35.0792492136
35.0161612081
34.9578419074
34.9039386451
34.8539009803
34.8075866406
34.7647832334
34.7252090209
34.688603504
34.6547394969
34.6234006038
34.5943884219
34.5675228835
34.5426341997
34.5195633142
34.4981654807
34.47830493
34.4598390519
34.4426659047
34.4266737203
34.4117638598
34.3978468925
34.3848331998
34.3726477914
34.3612158219
34.3504724954
34.3403548105
34.3308123303
34.3217828609
34.3132309336
34.3051019909
34.297359868
34.2899638063
34.2828882814
34.276094993
34.2695601691
34.263256461
34.2571602145
34.2512504252
34.2455054581
34.2399063419
34.2344414661
34.2290792557
34.2238240031
34.218661512
34.2135823727
34.2085746931
34.203628002
34.1987337563
34.1938832901
34.1890713849
34.1842893679
34.1795319893
34.1747923646
34.1700640775
34.1653438519
34.1606263079
34.1559043318
34.1511791902
34.1464425467
34.1416914564
34.1369251132
34.1321384634
34.1273291044
34.1224929601
34.1176307683
34.1127340144
34.1078063248
34.102841162
34.0978385808
34.0927910488
34.0877045189
34.0825697369
34.0773897055
34.0721575523
34.0668771446
34.061546468
34.0561645053
34.0507348231
34.0452557795
34.0397367093
34.0341772092
34.0285948261
34.0230036657
34.0174077171
34.0118188906
34.0062698458
34.000804992
33.9954503527
33.9900684618
33.9849503869
33.9801370007
33.9756749402
33.9716352147
33.9681033499
33.9651679161
33.9628701452
33.9612617237
33.9603783644
33.96021277
33.960582216
33.9610762813
33.9606014149
33.9563673903
33.9421123728
33.9037310236
33.8130701954
33.6191671837
33.2393551283
32.5570748925
31.4346017415
29.7461464113
27.4180532806
24.4463520026
20.8942298076
16.8747401451
12.3856068786
7.18008069286
1.83495150481
64.1183263712
60.3936050978
57.4896134768
55.1344335069
53.1643477083
51.4800142201
50.0162718099
48.7292375503
47.5876607219
46.5682142115
45.6528806208
44.8273682531
44.0800948392
43.4015148798