/*--------------------------------*- C++ -*----------------------------------*\
| =========                 |                                                 |
| \\      /  F ield         | OpenFOAM: The Open Source CFD Toolbox           |
|  \\    /   O peration     | Version:  2106                                  |
|   \\  /    A nd           | Website:  www.openfoam.com                      |
|    \\/     M anipulation  |                                                 |
\*---------------------------------------------------------------------------*/
FoamFile
{
    version     2.0;
    format      ascii;
    arch        "LSB;label=32;scalar=64";
    class       surfaceScalarField;
    location    "0.125";
    object      phi;
}
// * * * * * * * * * * * * * * * * * * * * * * * * * * * * * * * * * * * * * //

dimensions      [0 3 -1 0 0 0 0];

oriented        oriented;

internalField   nonuniform List<scalar> 
22100
(
3.38461202478e-05
1.6153879772e-05
2.24572096779e-05
1.13889104935e-05
1.62585526999e-05
6.19865691499e-06
1.27977756159e-05
3.46077706802e-06
1.08046416046e-05
1.99313404462e-06
9.60458840334e-06
1.20005329994e-06
8.8513204167e-06
7.53268147347e-07
8.36435132333e-06
4.86969301117e-07
8.04433313531e-06
3.20018411559e-07
7.8328380494e-06
2.11495272088e-07
7.69339472874e-06
1.39443444748e-07
7.60223797713e-06
9.11567830265e-08
7.54347583806e-06
5.87620718201e-08
7.50634033995e-06
3.71353528365e-08
7.48350330966e-06
2.28368338861e-08
7.46998632103e-06
1.35167792011e-08
7.46242714547e-06
7.55899554347e-09
7.45856621579e-06
3.86080825937e-09
7.45685520939e-06
1.71095240036e-09
7.45646013624e-06
3.95075767242e-10
7.45682295204e-06
-3.62783524144e-10
7.45752315282e-06
-7.00173981479e-10
7.45829655986e-06
-7.7341469174e-10
7.45903807017e-06
-7.41561700714e-10
7.45969941171e-06
-6.61423360916e-10
7.46026073681e-06
-5.61410280602e-10
7.46072015949e-06
-4.59484474036e-10
7.46108573149e-06
-3.65594771331e-10
7.46136998822e-06
-2.84239663105e-10
7.46158669327e-06
-2.16661422084e-10
7.46174899268e-06
-1.6225140355e-10
7.46186844863e-06
-1.19427891181e-10
7.46195464029e-06
-8.62018495952e-11
7.46201577306e-06
-6.11855467722e-11
7.46205697697e-06
-4.12878202788e-11
7.46208218892e-06
-2.53039499648e-11
7.46209576264e-06
-1.36510932191e-11
7.46210180287e-06
-6.0909549851e-12
7.46210254931e-06
-7.73639741283e-13
7.4620992964e-06
3.23476386424e-12
7.46209304403e-06
6.22272402261e-12
7.46208454724e-06
8.43897092868e-12
7.46207435817e-06
1.01035748319e-11
7.46206283922e-06
1.14284949365e-11
7.46205015357e-06
1.26237008938e-11
7.46203628121e-06
1.38661668596e-11
7.46202102787e-06
1.53156465564e-11
7.46200401869e-06
1.71329199965e-11
7.46198471301e-06
1.94603118277e-11
7.46196248465e-06
2.23685972636e-11
7.46193662963e-06
2.59425038205e-11
7.46190638801e-06
3.02602840262e-11
7.46187095877e-06
3.53895016e-11
7.46182950826e-06
4.13933956506e-11
7.46178118278e-06
4.83115179127e-11
7.46172515815e-06
5.60991988655e-11
7.46166074656e-06
6.45807229233e-11
7.46158756278e-06
7.34147580969e-11
7.46150614423e-06
8.16455245295e-11
7.46141876492e-06
8.75251153549e-11
7.4613312623e-06
8.75278369309e-11
7.46125591561e-06
7.52705297346e-11
7.46120188204e-06
5.39023784792e-11
7.46118723551e-06
1.45082417191e-11
7.46124801228e-06
-6.08719604117e-11
7.46144297154e-06
-1.94977874569e-10
7.46186768267e-06
-4.24663047912e-10
7.46267414938e-06
-8.0640106869e-10
7.46410097501e-06
-1.42678856209e-09
7.46650853361e-06
-2.40757709262e-09
7.47035073572e-06
-3.8422845898e-09
7.47686816869e-06
-6.5175527052e-09
7.48775669163e-06
-1.08886409083e-08
7.50613256258e-06
-1.83759562055e-08
7.53966316299e-06
-3.35306585249e-08
7.60953860298e-06
-6.98755232639e-08
7.77774042514e-06
-1.68201970162e-07
8.23700627451e-06
-4.59266086133e-07
9.72030263239e-06
-1.4832965949e-06
-5.52525768564e-06
1.52455601657e-05
5.0217594703e-05
1.59362849884e-05
4.42441113263e-05
1.73623938023e-05
3.77795010596e-05
1.2663267166e-05
3.26461434292e-05
8.59413477727e-06
2.8938091144e-05
5.70118651413e-06
2.63596205592e-05
3.77852416606e-06
2.45875159664e-05
2.52537308727e-06
2.33734737739e-05
1.70101184952e-06
2.2543524742e-05
1.14996775181e-06
2.19782163802e-05
7.76803816974e-07
2.15955147534e-05
5.22145105971e-07
2.13387400295e-05
3.47931392014e-07
2.11685017403e-05
2.29000114216e-07
2.1057349291e-05
1.4828747337e-07
2.09861690373e-05
9.40167455171e-08
2.09417073723e-05
5.7978152665e-08
2.09148397934e-05
3.44263754032e-08
2.08993589104e-05
1.93415965833e-08
2.08911584188e-05
9.91143544171e-09
2.08873840606e-05
4.16946903533e-09
2.08863555867e-05
6.65716438745e-10
2.08866306529e-05
-9.75265825527e-10
2.08875399399e-05
-1.6827920935e-09
2.08887205006e-05
-1.92225681302e-09
2.08899367131e-05
-1.87777296911e-09
2.08910634518e-05
-1.6882475166e-09
2.08920445762e-05
-1.44064561902e-09
2.08928643135e-05
-1.18530660188e-09
2.08935293488e-05
-9.49209279213e-10
2.08940577994e-05
-7.45041983178e-10
2.08944731587e-05
-5.77574018992e-10
2.08948024537e-05
-4.48746935266e-10
2.08950436938e-05
-3.27532655193e-10
2.08952146798e-05
-2.32311203416e-10
2.08953341728e-05
-1.60934899489e-10
2.08954149174e-05
-1.06182435322e-10
2.0895466255e-05
-6.50845440463e-11
2.08954978486e-05
-3.77459212568e-11
2.08955153452e-05
-1.83186731253e-11
2.0895522106e-05
-3.59018434912e-12
2.08955207527e-05
7.47491332624e-12
2.08955133011e-05
1.57571131984e-11
2.08955012392e-05
2.20349064346e-11
2.08954855936e-05
2.69941847239e-11
2.08954669825e-05
3.12434474781e-11
2.08954457197e-05
3.52428455512e-11
2.08954218848e-05
3.93578558718e-11
2.08953953495e-05
4.39193727254e-11
2.08953658199e-05
4.92102841012e-11
2.08953329834e-05
5.53345201609e-11
2.08952965229e-05
6.24266856403e-11
2.08952561961e-05
7.05407730265e-11
2.08952119287e-05
7.96144943899e-11
2.08951639277e-05
8.94340207846e-11
2.08951128681e-05
9.95296037545e-11
2.08950602653e-05
1.0896613861e-10
2.08950091055e-05
1.16072846931e-10
2.08949646607e-05
1.18195986286e-10
2.08949360871e-05
1.10466183423e-10
2.0894938409e-05
8.52878688432e-11
2.08949975083e-05
2.83439813747e-11
2.08951621279e-05
-8.95533382172e-11
2.08955011903e-05
-2.85404353116e-10
2.08961325192e-05
-6.1701747176e-10
2.08971744488e-05
-1.1028782283e-09
2.08987951821e-05
-1.81565069897e-09
2.09013574117e-05
-2.98676690572e-09
2.09054162314e-05
-4.86514001346e-09
2.09118529407e-05
-7.86353483291e-09
2.09221123201e-05
-1.26671124365e-08
2.09387232299e-05
-2.04534038922e-08
2.09658770028e-05
-3.36715529699e-08
2.10106249191e-05
-5.56367960365e-08
2.10863287517e-05
-9.40800232735e-08
2.12192899832e-05
-1.66492136882e-07
2.1463213716e-05
-3.13799465706e-07
2.19277881827e-05
-6.3277663618e-07
2.28292861521e-05
-1.36076410003e-06
2.45044111594e-05
-3.15842158059e-06
-7.16287959871e-06
2.61420317719e-05
5.35171051565e-05
1.24191797719e-05
5.29349679905e-05
1.79445309017e-05
4.96538396486e-05
1.5944395503e-05
4.58401808277e-05
1.24077936684e-05
4.24400916703e-05
9.10127583381e-06
3.97291715771e-05
6.48944450845e-06
3.76873050335e-05
4.56723993721e-06
3.61976622807e-05
3.19065490516e-06
3.51326120116e-05
2.21501827298e-06
3.43823678438e-05
1.5270481371e-06
3.38606286152e-05
1.04388436023e-06
3.35023514594e-05
7.06208438478e-07
3.3259611553e-05
4.71739802332e-07
3.30976088249e-05
3.10289922582e-07
3.29913636298e-05
2.00261655695e-07
3.29231366587e-05
1.26204883719e-07
3.28804683285e-05
7.70945449777e-08
3.28547081295e-05
4.51017229932e-08
3.28399117356e-05
2.47078264432e-08
3.28320220984e-05
1.20591332209e-08
3.28281878886e-05
4.49993654124e-09
3.28272429103e-05
-3.03275727466e-11
3.28274708984e-05
-1.91087499633e-09
3.2828373151e-05
-2.82463502286e-09
3.28295454278e-05
-3.05016838457e-09
3.28307503593e-05
-2.89325726441e-09
3.28318639883e-05
-2.55429589076e-09
3.28328308168e-05
-2.1521034391e-09
3.28336349301e-05
-1.75326056188e-09
3.2834281589e-05
-1.39164256914e-09
3.28347853944e-05
-1.08135906811e-09
3.28351619924e-05
-8.25383974747e-10
3.28354562113e-05
-6.21850285627e-10
3.28356932673e-05
-4.69503918045e-10
3.28358710521e-05
-3.38859984186e-10
3.28359910561e-05
-2.26300546807e-10
3.28360724316e-05
-1.46533345754e-10
3.28361254039e-05
-9.07573960169e-11
3.28361578241e-05
-5.07671026108e-11
3.28361747508e-05
-2.05655031401e-11
3.28361799217e-05
2.21502649546e-12
3.28361762713e-05
1.92867612751e-11
3.28361660882e-05
3.20978997306e-11
3.28361510277e-05
4.19757007551e-11
3.28361321762e-05
5.0091647611e-11
3.28361102393e-05
5.72721347665e-11
3.28360856382e-05
6.41357723289e-11
3.283605851e-05
7.12610711293e-11
3.28360287792e-05
7.91303114537e-11
3.28359965731e-05
8.76595865974e-11
3.28359621276e-05
9.69029560478e-11
3.2835925898e-05
1.06736983606e-10
3.28358887428e-05
1.16738670427e-10
3.28358521739e-05
1.26047611061e-10
3.28358187878e-05
1.3307335418e-10
3.28357929796e-05
1.3503473158e-10
3.28357817142e-05
1.27647749197e-10
3.2835795187e-05
1.04995554221e-10
3.28358501518e-05
5.56610254753e-11
3.28359750849e-05
-3.96236797896e-11
3.28362203667e-05
-2.17038520784e-10
3.28366728333e-05
-5.42199506474e-10
3.28373648386e-05
-9.77600075422e-10
3.28383738785e-05
-1.62618566934e-09
3.28399533189e-05
-2.68234599812e-09
3.28424929287e-05
-4.35520150951e-09
3.28465009843e-05
-6.99473158754e-09
3.28528013884e-05
-1.116549684e-08
3.28627248637e-05
-1.77870737128e-08
3.28784672585e-05
-2.84096613483e-08
3.29037429336e-05
-4.57292471463e-08
3.29439939638e-05
-7.39227152253e-08
3.30092225236e-05
-1.20865458464e-07
3.31167134168e-05
-2.01571052779e-07
3.3296042731e-05
-3.45821647398e-07
3.35964600007e-05
-6.1421704438e-07
3.40909335103e-05
-1.12725046253e-06
3.4848674556e-05
-2.11850533807e-06
3.57366202023e-05
-4.04636641985e-06
-7.26245471414e-06
3.58361977835e-05
5.35105663052e-05
8.90861341203e-06
5.55742219653e-05
1.58808751857e-05
5.52424821697e-05
1.62761352956e-05
5.35977855707e-05
1.40524903418e-05
5.15418472991e-05
1.11572142714e-05
4.95802795712e-05
8.45101247204e-06
4.79243506929e-05
6.22316909562e-06
4.66181391538e-05
4.49686672349e-06
4.56304670281e-05
3.20269062348e-06
4.49051193258e-05
2.25239596398e-06
4.4384094294e-05
1.56490940119e-06
4.40167016531e-05
1.07360096884e-06
4.3761980571e-05
7.2646067836e-07
4.35882899158e-05
4.83980320767e-07
4.34719017344e-05
3.16649580489e-07
4.33954067556e-05
2.02699652111e-07
4.33462561152e-05
1.26245050341e-07
4.3315543183e-05
7.58145985835e-08
4.32970367909e-05
4.3214218223e-08
4.32864458061e-05
2.26501333082e-08
4.32808808071e-05
1.00649240561e-08
4.32781119703e-05
2.73844715013e-09
4.3277343651e-05
-1.14266342494e-09
4.32776136222e-05
-3.09473160763e-09
4.32783557793e-05
-3.79243326488e-09
4.3279274848e-05
-3.81238809767e-09
4.32802037503e-05
-3.48320319684e-09
4.32810561251e-05
-3.00443503865e-09
4.32817944198e-05
-2.49149047975e-09
4.32824093312e-05
-2.00650357154e-09
4.32829069153e-05
-1.57893924771e-09
4.32832999446e-05
-1.21847236565e-09
4.32835998393e-05
-9.21860847125e-10
4.3283813208e-05
-6.83018067531e-10
4.32839663853e-05
-4.92177338308e-10
4.32840789864e-05
-3.39007095233e-10
4.32841411106e-05
-2.08716117557e-10
4.32841904321e-05
-1.40100324589e-10
4.32842225728e-05
-8.29202014983e-11
4.32842395979e-05
-3.76274764942e-11
4.32842454235e-05
-3.68892682517e-12
4.32842426424e-05
2.19556849641e-11
4.32842333436e-05
4.12790028525e-11
4.32842190789e-05
5.61570836417e-11
4.32842007617e-05
6.8401225714e-11
4.32841789873e-05
7.91347240317e-11
4.32841541564e-05
8.91306470831e-11
4.32841265993e-05
9.90102770197e-11
4.32840967321e-05
1.09170490603e-10
4.32840649138e-05
1.19597060073e-10
4.3284031681e-05
1.30185780202e-10
4.32839979399e-05
1.40476843258e-10
4.32839650895e-05
1.49586671231e-10
4.32839351837e-05
1.56006974983e-10
4.32839111387e-05
1.57269081971e-10
4.32838969967e-05
1.49427674046e-10
4.32838988673e-05
1.26071019583e-10
4.32839280136e-05
7.60926557898e-11
4.32840014527e-05
-1.76572622737e-11
4.3284142351e-05
-1.80544225187e-10
4.32843528378e-05
-4.27666310986e-10
4.32847564325e-05
-9.45995284978e-10
4.32854756944e-05
-1.69704516844e-09
4.32866786954e-05
-2.82928060048e-09
4.32885692948e-05
-4.57292989284e-09
4.32914973069e-05
-7.28312659099e-09
4.32960268974e-05
-1.1524237151e-08
4.33030464254e-05
-1.81850268473e-08
4.33139563136e-05
-2.86970741504e-08
4.33309475939e-05
-4.54011200188e-08
4.33573890109e-05
-7.21708414597e-08
4.33989512454e-05
-1.15485069833e-07
4.34646624728e-05
-1.86576773215e-07
4.35685535944e-05
-3.05462222661e-07
4.37311019799e-05
-5.08370152566e-07
4.39777527668e-05
-8.60868089722e-07
4.43263988991e-05
-1.47589690418e-06
4.47396289867e-05
-2.53173599419e-06
4.49761878307e-05
-4.28292588776e-06
-6.74728010361e-06
4.446101457e-05
5.27351378755e-05
6.17347549217e-06
5.57309342502e-05
1.28850787712e-05
5.73114740778e-05
1.46955954827e-05
5.76109916344e-05
1.37529728678e-05
5.71335226073e-05
1.16346834617e-05
5.63194683379e-05
9.2650669684e-06
5.5448988562e-05
7.09364913051e-06
5.46629785894e-05
5.28287694587e-06
5.40136839026e-05
3.85198550535e-06
5.35061538876e-05
2.75992607857e-06
5.31242599713e-05
1.94680330942e-06
5.28449934263e-05
1.35286739861e-06
5.26454515662e-05
9.26002341318e-07
5.25057335418e-05
6.23698107558e-07
5.24097473065e-05
4.12635584855e-07
5.23450526189e-05
2.67394157139e-07
5.23023293291e-05
1.68968228592e-07
5.22747602325e-05
1.03383651597e-07
5.22574574563e-05
6.05169914641e-08
5.22469740664e-05
3.31335204661e-08
5.22409026622e-05
1.61362908324e-08
5.22376304097e-05
6.01061493218e-09
5.22361628552e-05
3.24772131179e-10
5.22356949138e-05
-2.62691373999e-09
5.22358004705e-05
-3.89808573895e-09
5.22361872815e-05
-4.1992438962e-09
5.2236683022e-05
-3.97893204509e-09
5.22371903154e-05
-3.5116755557e-09
5.22376574406e-05
-2.95855265712e-09
5.22380608391e-05
-2.40986556248e-09
5.22383932818e-05
-1.91140077872e-09
5.22386566641e-05
-1.48193818611e-09
5.22388597788e-05
-1.12510960537e-09
5.22390141166e-05
-8.37509278605e-10
5.22391305448e-05
-6.0874210477e-10
5.22392202244e-05
-4.28778764693e-10
5.22393030618e-05
-2.91592469013e-10
5.22393541317e-05
-1.91170898051e-10
5.22393912263e-05
-1.20010995538e-10
5.22394140332e-05
-6.04603123791e-11
5.2239422834e-05
-1.25630175108e-11
5.22394220682e-05
2.2606876616e-11
5.22394142694e-05
4.89507166378e-11
5.22394012559e-05
6.90781766828e-11
5.22393842776e-05
8.53681969416e-11
5.22393642086e-05
9.92894013423e-11
5.22393419785e-05
1.11520602142e-10
5.22393179984e-05
1.23182378905e-10
5.22392904085e-05
1.36939287958e-10
5.22392608617e-05
1.49272724602e-10
5.22392299805e-05
1.61135306997e-10
5.22391986544e-05
1.7183498416e-10
5.22391682604e-05
1.80015799969e-10
5.22391408889e-05
1.83454143966e-10
5.22391199752e-05
1.78328295085e-10
5.22391126626e-05
1.56956640287e-10
5.22391341384e-05
1.04836969837e-10
5.22391885337e-05
2.18918890454e-11
5.22392959785e-05
-1.25018214495e-10
5.22394595557e-05
-3.4417302174e-10
5.22397612405e-05
-7.29514078711e-10
5.22402423689e-05
-1.42733235877e-09
5.22409672309e-05
-2.42207623355e-09
5.22420704514e-05
-3.93256809166e-09
5.22437556775e-05
-6.25811111178e-09
5.224632606e-05
-9.85340600304e-09
5.22502364398e-05
-1.54345543482e-08
5.22561839095e-05
-2.41325352363e-08
5.22652399144e-05
-3.77532050104e-08
5.22790463598e-05
-5.92077342432e-08
5.23001064094e-05
-9.32310406596e-08
5.23322100894e-05
-1.4758888964e-07
5.23808295632e-05
-2.35196376359e-07
5.24531036475e-05
-3.77736448642e-07
5.25562239024e-05
-6.11490593915e-07
5.26911789148e-05
-9.95823218723e-07
5.28361628652e-05
-1.62088106444e-06
5.29095484693e-05
-2.605121814e-06
5.26967041986e-05
-4.07008215783e-06
-5.93607440027e-06
5.18854992302e-05
5.19834863831e-05
4.18998907448e-06
5.50586638894e-05
9.80990124623e-06
5.76386132087e-05
1.21156461951e-05
5.93259033203e-05
1.2065682851e-05
6.02280155996e-05
1.07325713393e-05
6.05929271099e-05
8.90015566932e-06
6.06482844352e-05
7.03829203677e-06
6.05531904679e-05
5.37797112745e-06
6.04029564897e-05
4.0022196432e-06
6.0247916722e-05
2.91496591927e-06
6.01107921431e-05
2.08392786405e-06
5.9999033879e-05
1.46462554577e-06
5.99125204013e-05
1.01251563538e-06
5.98479307982e-05
6.88287498284e-07
5.98010302758e-05
4.59535907965e-07
5.97677495863e-05
3.00674695209e-07
5.97446132468e-05
1.92104479437e-07
5.97288408759e-05
1.19155986286e-07
5.97183001251e-05
7.10577282116e-08
5.97114025568e-05
4.0031061301e-08
5.97069931808e-05
2.05456018782e-08
5.97042712974e-05
8.73239422057e-09
5.97026737888e-05
1.92215561204e-09
5.97017829373e-05
-1.73617941813e-09
5.97013391405e-05
-3.45436954242e-09
5.97011646202e-05
-4.02475010606e-09
5.97011436559e-05
-3.95794161964e-09
5.97012032031e-05
-3.57116586338e-09
5.97012990526e-05
-3.05434950579e-09
5.97014053052e-05
-2.51610567873e-09
5.97015077076e-05
-2.01385381971e-09
5.97015994195e-05
-1.57376385337e-09
5.97016783187e-05
-1.2041633665e-09
5.97017455081e-05
-9.04857563982e-10
5.97018021412e-05
-6.65502391112e-10
5.97018486976e-05
-4.75405595087e-10
5.9701883161e-05
-3.2606468636e-10
5.97019051443e-05
-2.1312272151e-10
5.97019117427e-05
-1.26578144358e-10
5.9701903058e-05
-5.17844415956e-11
5.97018949313e-05
-4.50688059224e-12
5.97018848112e-05
3.26007803909e-11
5.97018733619e-05
6.02542556485e-11
5.97018609615e-05
8.13682641151e-11
5.97018460721e-05
1.00228334475e-10
5.97018283207e-05
1.17107565017e-10
5.97018073514e-05
1.32639433337e-10
5.970178339e-05
1.47342404987e-10
5.9701759087e-05
1.61440660026e-10
5.97017337597e-05
1.74753225873e-10
5.97017082255e-05
1.86766120585e-10
5.97016837969e-05
1.96326349134e-10
5.970166229e-05
2.01585658338e-10
5.97016459428e-05
1.99898220199e-10
5.97016366122e-05
1.87809542398e-10
5.97016322115e-05
1.61549456092e-10
5.97016218649e-05
1.15375009467e-10
5.97016306569e-05
1.32356102769e-11
5.97016576659e-05
-1.51992254131e-10
5.97018141563e-05
-5.00743071906e-10
5.97020830372e-05
-9.98561942267e-10
5.97024321679e-05
-1.77665100452e-09
5.97029601205e-05
-2.95016287618e-09
5.9703751114e-05
-4.72359647249e-09
5.97049173809e-05
-7.42431515249e-09
5.97066224546e-05
-1.15583951851e-08
5.97091031926e-05
-1.79152849815e-08
5.97127024383e-05
-2.77318751801e-08
5.97179111909e-05
-4.29621052386e-08
5.97254166138e-05
-6.67132599845e-08
5.97361371674e-05
-1.03951631615e-07
5.97511552187e-05
-1.62606917306e-07
5.97713450437e-05
-2.5538615003e-07
5.97961685813e-05
-4.0256004965e-07
5.9820518227e-05
-6.35840508888e-07
5.98274840852e-05
-1.00278937364e-06
5.97746778937e-05
-1.56807495454e-06
5.95729748895e-05
-2.40341871511e-06
5.90614195233e-05
-3.5585271817e-06
-4.94766320667e-06
5.80730086567e-05
5.14373053299e-05
2.75268371945e-06
5.42658206114e-05
6.98138597443e-06
5.72496434453e-05
9.1318234082e-06
5.97900280641e-05
9.52529833515e-06
6.17201289024e-05
8.80247065018e-06
6.30883042647e-05
7.53198049872e-06
6.40167182659e-05
6.10987823606e-06
6.46292384746e-05
4.76545109692e-06
6.50258057281e-05
3.60565251407e-06
6.52790803729e-05
2.66169132159e-06
6.54389751327e-05
1.92403306643e-06
6.55386911622e-05
1.36490940239e-06
6.55999282175e-05
9.51278417177e-07
6.56367406798e-05
6.51474858282e-07
6.56581883526e-05
4.38088078013e-07
6.56700918671e-05
2.88771069607e-07
6.56761749148e-05
1.86021371191e-07
6.56788033769e-05
1.16527495876e-07
6.56794642019e-05
7.03968765415e-08
6.56790765627e-05
4.04186473305e-08
6.56781959522e-05
2.14261207117e-08
6.56771502943e-05
9.77792874643e-09
6.56761247969e-05
2.94752031526e-09
6.56751999897e-05
-8.11484996836e-10
6.56744136696e-05
-2.6681161385e-09
6.56737677514e-05
-3.37884055148e-09
6.56732516864e-05
-3.44183641065e-09
6.56728482705e-05
-3.16768983123e-09
6.5672538755e-05
-2.74479256721e-09
6.56723052287e-05
-2.28258935213e-09
6.56721317712e-05
-1.84047221766e-09
6.56720048911e-05
-1.44701704684e-09
6.56719132434e-05
-1.11267891518e-09
6.56718460022e-05
-8.37774388296e-10
6.56717962579e-05
-6.15875160668e-10
6.56717597656e-05
-4.38964906057e-10
6.56717324635e-05
-2.98747071784e-10
6.56717082697e-05
-1.88874359727e-10
6.56716878201e-05
-1.06081624241e-10
6.5671681593e-05
-4.55613832627e-11
6.56716809128e-05
-3.90334325129e-12
6.56716740922e-05
3.92836212426e-11
6.56716635249e-05
7.06662021149e-11
6.56716500354e-05
9.47408893279e-11
6.56716349474e-05
1.15278338426e-10
6.56716182837e-05
1.338274747e-10
6.56715997914e-05
1.51275509961e-10
6.56715793055e-05
1.68029569186e-10
6.56715583615e-05
1.82594478939e-10
6.56715369719e-05
1.96318132476e-10
6.56715145165e-05
2.09343483299e-10
6.56714916024e-05
2.19317601413e-10
6.56714692205e-05
2.24032868837e-10
6.5671448842e-05
2.20374100636e-10
6.56714328945e-05
2.03907313236e-10
6.56714263013e-05
1.68323676289e-10
6.56714352046e-05
1.06632638135e-10
6.56714381286e-05
1.03989089343e-11
6.56714992065e-05
-2.13086753255e-10
6.5671569117e-05
-5.70770621565e-10
6.56716857052e-05
-1.11532635182e-09
6.56718550989e-05
-1.94621417383e-09
6.5672089873e-05
-3.18503763838e-09
6.56724041564e-05
-5.03786656842e-09
6.56728054328e-05
-7.82549395974e-09
6.56732871288e-05
-1.20400214278e-08
6.56738133943e-05
-1.84415976994e-08
6.56742884358e-05
-2.82070891508e-08
6.56744982627e-05
-4.31721335813e-08
6.5673999165e-05
-6.62143271096e-08
6.56719073334e-05
-1.01859912743e-07
6.56664405737e-05
-1.5714019177e-07
6.56539946996e-05
-2.42940348141e-07
6.56273219276e-05
-3.75887473798e-07
6.55720409826e-05
-5.80559721053e-07
6.54604535274e-05
-8.91202225611e-07
6.52424416949e-05
-1.35006343605e-06
6.48360632753e-05
-1.99704020791e-06
6.41252877399e-05
-2.84775175798e-06
-3.83621589122e-06
6.30138405617e-05
5.10850423702e-05
1.66764134315e-06
5.36118447211e-05
4.45458366278e-06
5.66873169035e-05
6.05635129422e-06
5.9689447288e-05
6.52316805906e-06
6.22997283601e-05
6.1921897202e-06
6.44136904365e-05
5.4180185928e-06
6.604718706e-05
4.47638177984e-06
6.72686189343e-05
3.54401936332e-06
6.81598979633e-05
2.71437357376e-06
6.87977639723e-05
2.02382533456e-06
6.92467468561e-05
1.47505013377e-06
6.95579629006e-05
1.05369325156e-06
6.97704250299e-05
7.38816150332e-07
6.99131612725e-05
5.08738476878e-07
7.00073627334e-05
3.43886504277e-07
7.00682592595e-05
2.27874470373e-07
7.01066443204e-05
1.47636270138e-07
7.01300652654e-05
9.31065206484e-08
7.01437283296e-05
5.67337651294e-08
7.01511735435e-05
3.29733519021e-08
7.01547704111e-05
1.78291358112e-08
7.01560782156e-05
8.46998495393e-09
7.01561048092e-05
2.92079004266e-09
7.01554700664e-05
-1.7684817036e-10
7.01545591283e-05
-1.75723095818e-09
7.01535861302e-05
-2.40583729302e-09
7.01526683707e-05
-2.52403153807e-09
7.01518605156e-05
-2.35978389214e-09
7.01511807135e-05
-2.06497276712e-09
7.01506269094e-05
-1.72882740598e-09
7.01501868831e-05
-1.40055144919e-09
7.01498442363e-05
-1.10452325761e-09
7.01495817573e-05
-8.50371545127e-10
7.01493831436e-05
-6.3931506599e-10
7.01492349078e-05
-4.67739615043e-10
7.01491261333e-05
-3.30212193766e-10
7.01490485597e-05
-2.21123902162e-10
7.01489959481e-05
-1.36181277556e-10
7.01489607813e-05
-7.08559536579e-11
7.01489298575e-05
-1.46453038692e-11
7.01489007763e-05
2.50853567956e-11
7.01488842473e-05
5.56525448439e-11
7.01488723985e-05
8.23365171228e-11
7.01488618021e-05
1.05198445847e-10
7.01488513882e-05
1.25637175144e-10
7.01488405993e-05
1.44665710808e-10
7.01488291638e-05
1.62858298368e-10
7.01488169815e-05
1.80423325623e-10
7.01488025814e-05
1.97223962506e-10
7.01487861816e-05
2.12925030348e-10
7.01487690043e-05
2.26678493916e-10
7.01487515987e-05
2.36828732444e-10
7.01487346924e-05
2.41020898601e-10
7.01487190771e-05
2.36088924224e-10
7.01487051007e-05
2.18023816357e-10
7.01486913905e-05
1.82196237213e-10
7.01486737878e-05
1.24367673749e-10
7.01486634984e-05
2.07387812361e-11
7.01486446221e-05
-1.94262565422e-10
7.01486437399e-05
-5.70022734284e-10
7.0148639351e-05
-1.1111041896e-09
7.01486066007e-05
-1.91360439653e-09
7.01485152364e-05
-3.09372310494e-09
7.01483085117e-05
-4.83107927172e-09
7.01478820916e-05
-7.39897106222e-09
7.01470542076e-05
-1.1212088291e-08
7.01455137965e-05
-1.69012606871e-08
7.0142729134e-05
-2.54226103479e-08
7.01377975153e-05
-3.8240717672e-08
7.0129198545e-05
-5.76155120355e-08
7.01144052329e-05
-8.7066655183e-08
7.00891407539e-05
-1.31875675313e-07
7.00461445585e-05
-1.99944121453e-07
6.99731684753e-05
-3.02911613165e-07
6.9849777704e-05
-4.57169221276e-07
6.96427190848e-05
-6.84143790783e-07
6.93006883012e-05
-1.0080328828e-06
6.87517917032e-05
-1.44814361412e-06
6.79096702795e-05
-2.00563033746e-06
-2.6372106733e-06
6.67106651735e-05
5.08804132551e-05
7.87228103519e-07
5.31704664664e-05
2.16453052152e-06
5.62177503559e-05
3.00906749302e-06
5.94382708026e-05
3.3026477245e-06
6.24449711491e-05
3.1854895077e-06
6.50382551094e-05
2.82473477873e-06
6.71548691269e-05
2.35976789368e-06
6.88135677987e-05
1.88532079249e-06
7.00731734413e-05
1.45476798285e-06
7.10056691507e-05
1.09132962193e-06
7.16812628225e-05
7.99456404229e-07
7.21614176126e-05
5.73538366376e-07
7.24965913401e-05
4.03642315662e-07
7.27264572808e-05
2.78872441675e-07
7.28812413024e-05
1.8910241741e-07
7.29834110744e-05
1.25704662189e-07
7.30493289649e-05
8.17183554037e-08
7.30906986074e-05
5.17368408228e-08
7.3115753068e-05
3.16792346832e-08
7.31301909298e-05
1.85353806483e-08
7.3137892027e-05
1.01278966266e-08
7.31414526185e-05
4.90923759508e-09
7.31425769404e-05
1.7963253814e-09
7.31423540689e-05
4.59221531045e-11
7.31414597629e-05
-8.62966085346e-10
7.31403021013e-05
-1.24815966389e-09
7.31391124349e-05
-1.33431837043e-09
7.31380118348e-05
-1.25914564954e-09
7.31370542902e-05
-1.1074346101e-09
7.31362548799e-05
-9.29485261494e-10
7.31356074351e-05
-7.53232706971e-10
7.31350953482e-05
-5.92600646598e-10
7.3134698209e-05
-4.53406334861e-10
7.31343954692e-05
-3.36720761315e-10
7.31341685351e-05
-2.40882431974e-10
7.31340014349e-05
-1.63101773165e-10
7.31338807161e-05
-1.00327104286e-10
7.31337941899e-05
-4.95586709882e-11
7.31337286663e-05
-5.27279096679e-12
7.31336883468e-05
2.56547417929e-11
7.31336608848e-05
5.24354651568e-11
7.31336406399e-05
7.57169850524e-11
7.31336262295e-05
9.6551063897e-11
7.31336155317e-05
1.15744474995e-10
7.31336069278e-05
1.34181365955e-10
7.31335992339e-05
1.52417229833e-10
7.31335915681e-05
1.70690096566e-10
7.31335832816e-05
1.88943232711e-10
7.31335739694e-05
2.06784690384e-10
7.31335634393e-05
2.23675803939e-10
7.31335516352e-05
2.38652301822e-10
7.31335385576e-05
2.50027943969e-10
7.31335242337e-05
2.55442191057e-10
7.31335086913e-05
2.51735089044e-10
7.31334920384e-05
2.3480375484e-10
7.31334747232e-05
1.99646189844e-10
7.31334579832e-05
1.41209117212e-10
7.31334284104e-05
5.03344069509e-11
7.31333770318e-05
-1.42959124133e-10
7.31332948472e-05
-4.8798486099e-10
7.313315909e-05
-9.7550454155e-10
7.31329260161e-05
-1.68062569824e-09
7.31325244836e-05
-2.69217594773e-09
7.31318350761e-05
-4.14158664499e-09
7.31306574362e-05
-6.22124613358e-09
7.31286622375e-05
-9.21687661461e-09
7.312531222e-05
-1.35513536066e-08
7.3119721384e-05
-1.98319562525e-08
7.31104354592e-05
-2.89549749399e-08
7.30950961337e-05
-4.22762681007e-08
7.30699410853e-05
-6.19115661779e-08
7.30288896104e-05
-9.08241015822e-08
7.29621797485e-05
-1.33234260609e-07
7.28544021433e-05
-1.95134121722e-07
7.26817445919e-05
-2.84512013274e-07
7.24086525779e-05
-4.11052083011e-07
7.19850713448e-05
-5.84451819512e-07
7.13471621499e-05
-8.1023442779e-07
7.04254513199e-05
-1.08391952715e-06
-1.3817064978e-06
6.91699472355e-05
5.07871727111e-05
5.54210779438e-11
5.29516502558e-05
5.3082582375e-11
5.59606892502e-05
2.86049566885e-11
5.92633231826e-05
1.39125372823e-11
6.24488102898e-05
2.52724514458e-12
6.52735513227e-05
-6.13405659039e-12
6.76333312021e-05
-1.18910762843e-11
6.95186667766e-05
-1.47218617956e-11
7.09734498667e-05
-1.50912589762e-11
7.2064793051e-05
-1.35887033782e-11
7.28642602218e-05
-1.08276545693e-11
7.34378059471e-05
-7.43464439624e-12
7.38414522367e-05
-4.04190274764e-12
7.41203259233e-05
-1.28848359421e-12
7.43094280175e-05
3.07168658531e-13
7.44351324482e-05
2.28582466031e-13
7.45168525166e-05
-1.72780131227e-12
7.45685946924e-05
-5.38464607797e-12
7.46002839634e-05
-1.01318247554e-11
7.46188342276e-05
-1.50225757829e-11
7.46289809075e-05
-1.89516894597e-11
7.46339107963e-05
-2.08251370278e-11
7.46357271795e-05
-2.02058685303e-11
7.46357910694e-05
-1.80610156005e-11
7.46349442414e-05
-1.61635112277e-11
7.46337094931e-05
-1.3381600504e-11
7.46323853591e-05
-1.01350499748e-11
7.46311326951e-05
-6.45517148199e-12
7.46300273395e-05
-2.10499929006e-12
7.46290953566e-05
2.41081128051e-12
7.46283350073e-05
6.97676356947e-12
7.46277301272e-05
1.21049731106e-11
7.46272588939e-05
1.76497990166e-11
7.46268984136e-05
2.36245720777e-11
7.46266272957e-05
3.01828347496e-11
7.46264267489e-05
3.74829432822e-11
7.46262808839e-05
4.56361666877e-11
7.46261767611e-05
5.46702057007e-11
7.4626106939e-05
6.4607651743e-11
7.46260579094e-05
7.46533817142e-11
7.46260250172e-05
8.51987900822e-11
7.46260036936e-05
9.68458184863e-11
7.46259903419e-05
1.09697887449e-10
7.46259821895e-05
1.23739527468e-10
7.46259772577e-05
1.39052650048e-10
7.46259741232e-05
1.55615714324e-10
7.46259717381e-05
1.73253890917e-10
7.46259693087e-05
1.91620625177e-10
7.4625966199e-05
2.10153967671e-10
7.46259619825e-05
2.28116684975e-10
7.4625956391e-05
2.4441241544e-10
7.46259491418e-05
2.57397948665e-10
7.46259398372e-05
2.6484776492e-10
7.46259278218e-05
2.63860267359e-10
7.46259119697e-05
2.50779164251e-10
7.46258904927e-05
2.21239940788e-10
7.46258613812e-05
1.70396128009e-10
7.46258167796e-05
9.49319593209e-11
7.46257295391e-05
-5.58122546935e-11
7.46255837993e-05
-3.42393120343e-10
7.46253482337e-05
-7.40074203981e-10
7.46249604727e-05
-1.29291077659e-09
7.4624321905e-05
-2.05354773344e-09
7.46232707658e-05
-3.09033157419e-09
7.46215430055e-05
-4.49340398113e-09
7.46187167125e-05
-6.39064391334e-09
7.46141189332e-05
-8.9537663012e-09
7.46066493157e-05
-1.23625852399e-08
7.45945181046e-05
-1.68239523805e-08
7.45748600976e-05
-2.26183465575e-08
7.45432536756e-05
-3.03051157122e-08
7.44926922705e-05
-4.02626236578e-08
7.44121677946e-05
-5.27098677078e-08
7.42848389874e-05
-6.78054937896e-08
7.40856009252e-05
-8.52742923235e-08
7.3778473378e-05
-1.03924888331e-07
7.33149737031e-05
-1.20952358662e-07
7.26358767144e-05
-1.31137400345e-07
7.16792057004e-05
-1.27248518154e-07
-1.006682788e-07
7.0398167544e-05
5.07871717231e-05