/*--------------------------------*- C++ -*----------------------------------*\
| =========                 |                                                 |
| \\      /  F ield         | OpenFOAM: The Open Source CFD Toolbox           |
|  \\    /   O peration     | Version:  2106                                  |
|   \\  /    A nd           | Website:  www.openfoam.com                      |
|    \\/     M anipulation  |                                                 |
\*---------------------------------------------------------------------------*/
FoamFile
{
    version     2.0;
    format      ascii;
    arch        "LSB;label=32;scalar=64";
    class       volScalarField;
    location    "0.09";
    object      p;
}
// * * * * * * * * * * * * * * * * * * * * * * * * * * * * * * * * * * * * * //

dimensions      [0 2 -2 0 0 0 0];

internalField   nonuniform List<scalar> 
11200
(
142.550115716
139.621514405
138.507665426
137.980337317
137.613012014
137.318239384
137.056602724
136.808072826
136.563564395
136.318507648
136.070205171
135.816901825
135.557364962
135.290658175
135.016013627
134.732756811
134.440260666
134.137917818
133.825129765
133.501315246
133.165839206
132.818054311
132.457306071
132.082924369
131.694224211
131.290504982
130.871050999
130.435132483
129.982006279
129.51091643
129.021094686
128.511760983
127.982123784
127.4313799
126.858715034
126.263304671
125.644314957
125.000902535
124.332214854
123.637390657
122.915560252
122.165845736
121.387361159
120.579212628
119.740498327
118.870308362
117.967724349
117.03181866
116.061653269
115.056278099
114.014728793
112.936023791
111.819160574
110.663110901
109.466814753
108.229172652
106.949035874
105.625193998
104.256359102
102.841145782
101.378045989
99.8653972571
98.3013423409
96.6837800325
95.01029997
93.2780968257
91.4838596672
89.6236282991
87.6925988303
85.6848572587
83.5930165428
81.4077228813
79.1167761036
76.7040032548
74.1473433373
71.4151887645
68.4600313574
65.2095332247
61.5111069934
56.7509804551
140.757073494
139.398899973
138.607930458
138.107919277
137.716935361
137.393058311
137.108543801
136.843949288
136.588470191
136.335957948
136.082584971
135.825837247
135.563977155
135.295727523
135.020087149
134.736220486
134.443389616
134.140911578
133.828127177
133.504369607
133.168992431
132.82131023
132.460700299
132.086483002
131.69796239
131.294432297
130.875174012
130.439455775
129.986533075
129.515648967
129.026034315
128.516907854
127.987476156
127.436935551
126.864475719
126.269273714
125.650495616
125.00729789
124.338827946
123.644224586
122.922618246
122.173131227
121.394877863
120.586964674
119.748490422
118.878545978
117.976213933
117.040567898
116.070671398
115.065576282
114.024320568
112.94592563
111.82939259
110.673697728
109.477786666
108.240566969
106.960898705
105.637582378
104.26934365
102.854814051
101.392506942
99.8807873229
98.3178317796
96.7015776619
95.0296569804
93.2993265637
91.5073706883
89.6499521088
87.7224316066
85.7191248006
83.632962883
81.4549882227
79.1736583337
76.773838827
74.2351393106
71.5290614261
68.6148119864
65.4345181035
61.8853002286
57.7714408094
139.761883021
139.107683259
138.55532951
138.117714871
137.746095287
137.423998826
137.134905234
136.864678557
136.604223679
136.347751566
136.09137696
135.832417759
135.56896138
135.299580195
135.023152403
134.738748633
134.445558497
134.142842661
133.829902231
133.506060772
133.170658973
132.823042446
132.462490209
132.088335997
131.699887412
131.296435476
130.877259406
130.441626513
129.988791997
129.517999086
129.028479332
128.51945307
127.990129956
127.439707246
126.867366184
126.272280886
125.653619819
125.010540517
124.342191479
123.647712505
122.92623498
122.176882203
121.398769598
120.591004983
119.752688689
118.882913493
117.980764319
117.045317659
116.07564057
115.070789198
114.029806804
112.951721179
111.835541311
110.680253145
109.484814178
108.248146545
106.969128144
105.646581308
104.279258589
102.865824673
101.404833338
99.8946982426
98.3336558189
96.7197332512
95.0506939881
93.3239461541
91.5364471651
89.6845976651
87.7640831355
85.7696646466
83.6948919713
81.5317011618
79.2699958443
76.896854228
74.3955456981
71.7441895811
68.9147643576
65.8755556673
62.5904593106
59.0361580947
139.21212162
138.848740961
138.448844878
138.079857398
137.742244556
137.434146772
137.148788838
136.878090994
136.615725754
136.357065974
136.098693361
135.838075994
135.573313542
135.302938131
135.025773025
134.740835029
134.447267184
134.144292768
133.831184244
133.507240673
133.171770497
132.824097227
132.463564812
132.089439517
131.701025685
131.297614843
130.878484494
130.442900265
129.990116039
129.51937395
129.029904443
128.520926324
127.991647069
127.441264381
126.86896774
126.273935747
125.655335459
125.012325036
124.34405164
123.649655028
122.928267115
122.179012214
121.40100709
120.593361445
119.755178006
118.885552514
117.983573531
117.048321952
116.078870111
115.074280579
114.033604462
112.955879115
111.840125213
110.685343008
109.490507549
108.254562587
106.976412862
105.654914251
104.288860641
102.876967606
101.417852958
99.9100187262
98.3518064387
96.7413576442
95.0765682438
93.3550378452
91.573990747
89.7301747075
87.8197364988
85.8380659223
83.7796052159
81.6376225563
79.403882206
77.0683346428
74.6188771164
72.0413867138
69.3210745936
66.4481677277
63.4261975076
60.2922247855
138.878073474
138.646278696
138.344868208
138.033894001
137.729058145
137.437039117
137.158068562
136.888948122
136.625994068
136.365916088
136.105953515
135.843868573
135.577868276
135.306503002
135.028575467
134.743068118
134.449087801
134.145824903
133.832523843
133.508461606
133.172933761
132.825248364
132.464685087
132.090565252
131.702178128
131.29880657
130.879724706
130.444196137
129.991473489
129.520798247
129.03140087
128.522500881
127.993306946
127.443016842
126.870817216
126.275884312
125.657383191
125.014471068
124.346298565
123.652007169
122.930731508
122.181598704
121.403727851
120.596231374
119.75821513
118.888778592
117.98701475
117.052010313
116.082844577
115.078588499
114.03830341
112.961039189
111.845831844
110.691700414
109.497642961
108.262631311
106.985604
105.665456812
104.301032758
102.891108578
101.434385388
99.92945298
98.37477114
96.7686459254
95.1091836427
93.394242099
91.6213734365
89.7877554383
87.8901083691
85.9245976626
83.8867257669
81.7712260957
79.5719868285
77.2820830786
74.8940838
72.4009639355
69.7985053731
67.0911299404
64.3001973908
61.4764230022
138.674680787
138.498779469
138.257586658
137.990263785
137.713080521
137.43644661
137.164761874
136.898265666
136.635506301
136.374503523
136.113222169
135.849794839
135.582595629
135.310233197
135.031514107
134.745400135
134.450968768
134.147380229
133.833851504
133.509636457
133.174011263
132.826264355
132.465682656
132.091563132
131.703191126
131.299845969
130.880798768
130.445310886
129.992633404
129.52200678
129.032660529
128.523813183
127.994672457
127.444435529
126.872289201
126.2774108
125.658969056
125.016124477
124.348029402
123.653829209
122.932657116
122.183641067
121.40590153
120.598554032
119.760708328
118.891468698
117.98993419
117.055197955
116.086347485
115.082463866
114.042620691
112.965882668
111.851303852
110.697925294
109.504771951
108.270848653
106.995135182
105.676581899
104.314097316
102.906540429
101.452691103
99.9512540792
98.4008459372
96.7999512877
95.146902353
93.4398488129
91.6767197063
89.8551815378
87.9725947334
86.025973786
84.0119626849
81.9268491287
79.7666661528
77.527471073
75.2059771929
72.8008322538
70.3151089106
67.7609837416
65.1654584607
62.5757311538
138.551563814
138.395956971
138.189657183
137.953098136
137.69762695
137.434352306
137.169744636
136.906242151
136.64411547
136.382536566
136.120171144
135.855542351
135.587219978
135.31389499
135.034394702
134.747671048
134.452778668
134.148851367
133.835080833
133.510698853
133.174963263
132.827147702
132.466532478
132.092401903
131.704034775
131.300706423
130.881684733
130.446228796
129.993588146
129.523002218
129.033700016
128.524900009
127.99581021
127.445628417
126.873542897
126.278732557
125.660366856
125.017606788
124.34960413
123.655500169
122.934432734
122.185533922
121.407929316
120.600737695
119.763072971
118.894044601
117.992757852
117.058313963
116.089810012
115.086338385
114.046986712
112.970836985
111.856964388
110.704435813
109.512307788
108.279623541
107.005408823
105.688665671
104.328372502
102.923466419
101.472846194
99.9753538238
98.4297600109
96.8347517796
95.188916848
93.4907257863
91.7385144121
89.9304694073
88.0646219676
86.1388587255
84.1509670615
82.0987419582
79.9802074974
77.7940360461
75.5403049457
73.2217876635
70.8460629162
68.4287847919
65.9969175149
63.5899515391
138.477483965
138.327474676
138.140721179
137.924619045
137.684917238
137.432101151
137.173469977
136.912738367
136.651378729
136.389464461
136.126254424
135.860624825
135.591334709
135.317162344
135.036963717
134.749688518
134.454374842
134.150135017
133.836139212
133.511599999
133.175759192
132.827877431
132.467225349
132.093077692
131.704709561
131.301391635
130.882388683
130.446957727
129.994346915
129.523794806
129.034529951
128.525770704
127.996725252
127.446591773
126.874558747
126.279805263
125.661501354
125.018808006
124.350878657
123.656861898
122.935897744
122.18711755
121.409649353
120.602616245
119.76513713
118.896327393
117.995299407
117.061162919
116.093025372
115.089992294
114.051166824
112.975649644
111.862538729
110.710928745
109.519910077
108.288567422
107.015977937
105.701208548
104.343311256
102.941321846
101.494246775
100.001065675
98.4607238689
96.8721243208
95.2341224041
93.5455227816
91.8050804589
90.0115104437
88.1635129579
86.2598251873
84.2993183131
82.2811642354
80.2051253506
78.0720254646
75.884496167
73.6481010744
71.3729256581
69.0756530949
66.7810716806
64.5213311029
138.43520744
138.285760631
138.109347284
137.905612526
137.676084399
137.430381529
137.176027869
136.917396479
136.65669718
136.394610735
136.130820949
135.864469573
135.594464628
135.319656971
135.038929369
134.751233179
134.455595969
134.151114869
133.836944265
133.512282353
133.17635877
132.828424177
132.467741601
132.09357974
131.705209599
131.301898638
130.882909317
130.447497118
129.994909175
129.524383434
129.035148151
128.526421624
127.997412214
127.447318468
126.875329402
126.280624886
125.662376138
125.01974637
124.351891597
123.657958903
122.937090541
122.188422853
121.411087239
120.604210921
119.766917914
118.898329857
117.997566752
117.063747627
116.095991136
115.093416112
114.055142095
112.980289866
111.867981904
110.717342728
109.52749906
108.297579705
107.026715106
105.714036161
104.358674676
102.959761336
101.516426307
100.027795209
98.492991753
96.9111388478
95.2813632401
93.602804898
91.874634003
90.0960803686
88.2664833723
86.3853722848
84.4525968249
82.4685279756
80.4343735972
78.3526405955
76.2278002938
74.067188629
71.8821181007
69.689092506
67.5102750278
65.3719876167
138.415930865
138.266053889
138.094093207
137.896161257
137.671604542
137.42949106
137.177362344
136.919860527
136.659541001
136.397387668
136.13330495
135.866576714
135.596192906
135.321045559
135.040033521
134.752110164
134.456298035
134.151686424
133.837421365
133.512693364
133.176725487
132.828763015
132.468064915
132.09389693
131.705527488
131.302222464
130.883243174
130.447844353
129.995272673
129.524765872
129.03555224
128.526850191
127.99786842
127.447805997
126.87585268
126.281189337
125.662988405
125.020414303
124.352623774
123.658767364
122.937989484
122.189429203
121.41222143
120.605497834
119.76838783
118.900019581
117.999520965
117.066020543
116.098648536
115.096537834
114.058825056
112.984651727
111.873165543
110.723521679
109.534884122
108.306427019
107.037336081
105.726809902
104.374060585
102.978318684
101.538836328
100.054883521
98.5257635927
96.9508189193
95.3294436823
93.661104098
91.9453682554
90.181950498
88.3707783301
86.51208868
84.60658094
82.6556280832
80.6615929371
78.6282435888
76.56131431
74.4691962087
72.3636821665
70.2606256125
68.179840667
66.1433972414
138.415933346
138.266069838
138.094120093
137.896197363
137.671649104
137.429543242
137.177421233
136.9199253
136.659610961
136.397462229
136.133383636
135.86665915
135.596278822
135.321134774
135.040125951
134.752205772
134.456396845
134.151788502
133.837526817
133.512802337
133.176838177
132.828879673
132.468185932
132.094022832
131.705658903
131.302360205
130.883388246
130.447997963
129.995436272
129.524941161
129.035741131
128.527055125
127.998092329
127.448052431
126.87612597
126.281494747
125.6633323
125.020804443
124.353069919
123.659281121
122.938584857
122.190123266
121.413034941
120.606456033
119.769521407
118.901365825
118.00112515
117.067937604
116.10094511
115.099294743
114.062140357
112.988644433
111.877980142
110.729333608
109.54190639
108.314918178
107.047609802
105.739246709
104.389121559
102.996563319
101.560942136
100.081676704
98.5582423859
96.9901921033
95.377174466
93.7189612033
92.0154872559
90.2669059367
88.4736657398
86.6366369363
84.7573215738
82.8378437211
80.8814162669
78.8926965149
76.8782251326
74.8469476306
72.8107183167
70.7846532179
68.7867789065
66.8363262935
138.435214947
138.285808864
138.109428555
137.905721598
137.676218943
137.430538854
137.17620519
136.917591343
136.656907505
136.394834776
136.131057286
135.864717102
135.594722541
135.319924739
135.039206711
134.75152001
134.455892366
134.151421039
133.837260526
133.512609146
133.176696681
132.828773936
132.468104405
132.093957069
131.705603341
131.302311209
130.883343678
130.447956831
129.995398477
129.524907353
129.03571265
128.527033877
127.998080866
127.448054045
126.876144812
126.281535974
125.663402238
125.02091081
124.353222088
123.659490446
122.93886515
122.190491359
121.413511314
120.6070656
119.770294471
118.902339202
118.00234353
117.069455206
116.102827684
115.101622024
114.06500906
112.992171896
111.882308736
110.73463607
109.548392248
108.322841504
107.057278574
105.75103411
104.403480569
103.014038814
101.582193055
100.107499114
98.5896024945
97.0282563473
95.4233507798
93.774951072
92.0833420814
90.349069628
88.5730465422
86.7566403739
84.9017639975
83.0112877575
81.0891067931
79.1404781795
77.1724230722
75.1941368604
73.2173555516
71.2565766346
69.3286392226
67.4511293903
138.477496706
138.327556342
138.140858511
137.924802949
137.685143627
137.432365371
137.173767293
136.913064657
136.651730515
136.389838847
136.126649069
135.861037911
135.591764915
135.317608803
135.037425966
134.750166427
134.454868555
134.150644891
133.836665788
133.512144031
133.176321696
132.828459574
132.4678291
132.093705201
131.705364065
131.30207714
130.883110055
130.447720815
129.995158684
129.524663518
129.035465417
128.52678466
127.997831847
127.447808207
126.875906018
126.281309072
125.663193225
125.020727044
124.353072541
123.659386028
122.938819113
122.190519843
121.413633994
120.607306448
119.770682652
118.902910151
118.003140263
117.0705299
116.10424361
115.103455896
114.067353908
112.995140552
111.886038042
110.739291951
109.554175827
108.32999645
107.066099918
105.761878838
104.416780999
103.030319584
101.602084567
100.131762337
98.6191525129
97.0641920191
95.4669850837
93.8278391994
92.147316969
90.4263199683
88.6661476326
86.8686101653
85.0361570048
83.1720598291
81.2806255613
79.3674696002
77.4398307349
75.5069108313
73.5801997083
71.6737228839
69.8037265345
67.9872747125
138.551582195
138.396074248
138.189853687
137.953360311
137.697948629
137.434726657
137.170164851
136.906702387
136.644610848
136.383063059
136.120725524
135.856122125
135.587823337
135.314520743
135.035042208
134.74834013
134.453469523
134.149564483
133.835816931
133.511458963
133.175748885
132.827960459
132.467374841
132.093276961
131.704946911
131.301661144
130.882688696
130.447289997
129.994716109
129.524208236
129.034997533
128.52630517
127.997342573
127.447311788
126.875405937
126.280809736
125.662700102
125.020246894
124.352613694
123.658958688
122.938435707
122.19019549
121.413387091
120.607159393
119.770662703
118.90305046
118.00348109
117.071120092
116.105142396
115.104735092
114.069100584
112.997460276
111.889058799
110.743168856
109.559096754
108.336188759
107.073838482
105.771495607
104.428676282
103.0449757
101.620083408
100.153802313
98.6460698995
97.0969873088
95.5068538688
93.8762085218
92.2058792547
90.4970464626
88.7513232778
86.9708558446
85.1584431536
83.3176862315
81.4531646922
79.5706566871
77.6773998209
75.7823930975
73.8967454162
72.0340826395
70.2105107827
68.4435817669
138.674705515
138.498936106
138.257847578
137.990610062
137.713503418
137.436936801
137.165310329
136.898864786
136.636149825
136.375186342
136.113940222
135.850545011
135.583375661
135.311041604
135.032350085
134.746263449
134.451859616
134.148299098
133.83479905
133.510613597
133.17501932
132.827304661
132.466761805
132.092684163
131.704358903
131.30106712
130.882081379
130.446664716
129.994070093
129.523540129
129.034307081
128.525593032
127.996610226
127.446561512
126.874640841
126.280033804
125.66191822
125.019464971
124.351838944
123.658200029
122.937704234
122.189504936
121.412754297
120.606604862
119.770211305
118.90273234
118.003332806
117.071185967
116.105476167
115.105401926
114.070179442
112.999046849
111.89126903
110.746143149
109.563005042
108.341236626
107.080274469
105.779619771
104.438850335
103.057634969
101.635750843
100.173104726
98.6697574968
97.125954335
95.5421608743
93.9191065513
92.2578365217
90.5597736766
88.8267915634
87.0613020338
85.2663580669
83.4457771533
81.6042789012
79.7476504821
77.8829500288
76.0187693305
74.1656267151
72.3366250353
70.547856127
68.8181021544
138.878105279
138.646479606
138.34520009
138.03433145
137.729589163
137.437651454
137.158750813
136.88969093
136.626789862
136.366758778
136.106838307
135.844791827
135.578827393
135.307496333
135.029602219
134.744128222
134.450181719
134.146953354
133.833687506
133.509661365
133.17417032
132.826518011
132.466006373
132.091938486
131.703607746
131.300299881
130.881290897
130.445846348
129.993221009
129.522658832
129.033393082
128.524646651
127.995632501
127.445554216
126.873606554
126.278976049
125.660841615
125.018375296
124.350743129
123.657106046
122.936621453
122.188444652
121.41173041
120.605634638
119.769316094
118.901938325
118.002671878
117.070696835
116.105205751
115.105407222
114.070529529
112.999825521
111.892577877
110.748105266
109.565769424
108.344983003
107.085218886
105.786022625
104.447025126
103.067958551
101.648675428
100.18917142
98.6896121386
97.1503649968
95.5720366266
93.9555165802
92.3020283907
90.6131890913
88.8910770061
87.1383085243
85.358122601
83.5544741535
81.732131449
79.8967833826
78.0551696103
76.2152668088
74.3866722879
72.5815192355
70.8153285417
69.1079701325
139.212160571
138.848989878
138.449250309
138.080386487
137.742881344
137.434875597
137.149595809
136.878965051
136.616658116
136.358049678
136.099722997
135.83914751
135.574424132
135.304086177
135.026958055
134.742057696
134.448529229
134.14559687
133.832533539
133.508640029
133.173230441
132.825617952
132.465123169
132.091050712
131.702701264
131.2993651
130.880321367
130.444837907
129.992171204
129.521566351
129.03225737
128.523467756
127.994410998
127.444291062
126.872303024
126.277633878
125.659463339
125.016964482
124.349304902
123.655647627
122.935151434
122.186973607
121.410271141
120.604202385
119.767929062
118.900618438
118.001445681
117.06959656
116.104270593
115.104684715
114.07007689
112.999712021
111.892887344
110.748939032
109.567249858
108.34725838
107.08846948
105.790465304
104.452920452
103.075619199
101.658475801
100.201558542
98.7051179347
97.1696197737
95.5957834722
93.9846262467
92.3375134311
90.6562151815
88.9429684325
87.2005437821
85.4323142986
83.6423228479
81.8353394034
80.0169059789
78.1933717325
76.371927421
74.5608288182
72.7703868848
71.0137468191
69.3093968466
139.761933967
139.107994407
138.555818593
138.118341021
137.746838843
137.424840833
137.13582958
136.865672718
136.605277819
136.3488579
136.092529383
135.833611576
135.570193116
135.300847456
135.024453774
134.740083688
134.446928144
134.144250071
133.831353139
133.507562197
133.172211206
132.824614695
132.464112509
132.090017723
131.701634765
131.298257314
130.879167067
130.443633762
129.99091526
129.520257879
129.030896465
128.522055148
127.992948045
127.442779793
126.870746119
126.276034217
125.657822651
125.015285538
124.347590731
123.653901279
122.933378126
122.18518015
121.408466126
120.602396668
119.766136212
118.898855179
117.999732422
117.067958041
116.102736647
115.103291283
114.068868502
112.998742724
111.892222628
110.748658149
109.567448419
108.348050837
107.089993259
105.792886041
104.456437305
103.080471055
101.664948537
100.209993416
98.715921141
97.1832728183
95.6128540573
94.0057790602
92.3635198342
90.6879600892
88.9814528424
87.2468825082
85.4877206084
83.708074298
81.9127122362
80.1070570524
78.2971151976
76.4892523638
74.6900783946
72.9070489997
71.1471540498
69.418645866
140.757171803
139.3993567
138.608612233
138.108773208
137.717938322
137.394189545
137.10978635
136.845290106
136.589899054
136.337466718
136.084167142
135.827487574
135.565691304
135.297501695
135.021917656
134.738103264
134.445319491
134.142881137
133.830130186
133.506414172
133.171067227
132.82347108
132.462944319
132.088809644
131.700377701
131.296945432
130.87779661
130.442201921
129.989417636
129.518691299
129.029259219
128.520346037
127.991166098
127.440924232
126.868816421
126.274030769
125.655749202
125.013144947
124.34538603
123.65163668
122.931058
122.18280965
121.406051566
120.599945759
119.763658337
118.896361752
117.997237356
117.065478346
116.100293166
115.100909293
114.066578334
112.996581116
111.89023407
110.746896494
109.56597899
108.346953472
107.089363382
105.792838003
104.4571083
103.082025478
101.667582929
100.213941947
98.7214615894
97.1907329758
95.6226184529
94.0182958029
92.3793069002
90.7076086636
89.0056311283
87.2763459921
85.5233000759
83.7506609088
81.9632333344
80.1664364433
78.3661691469
76.5682971181
74.7783433691
73.0010430616
71.2312613075
69.4385601644
142.550280427
139.622183657
138.508657958
137.981590827
137.614496244
137.319929723
137.058480625
136.810124756
136.565780434
136.320880656
136.072730293
135.819576232
135.560187788
135.293630601
135.019139013
134.736040779
134.443711075
134.1415441
133.828936447
133.505283459
133.169983652
132.822378536
132.461811966
132.087619282
131.699117843
131.295608906
130.876379036
130.440701304
129.987838472
129.517036572
129.027529817
128.518542753
127.989289882
127.438976101
126.866797369
126.271941393
125.653588579
125.010912987
124.343083363
123.649264233
122.928617286
122.18030283
121.403481489
120.597316073
119.760973623
118.893627695
117.994460944
117.062668101
116.097459448
115.098064883
114.063738769
112.993765347
111.887465091
110.744202038
109.563392302
108.344514029
107.087119023
105.790846444
104.45543881
103.080761029
101.666822756
100.213804541
98.7220881187
97.1922911442
95.6253067588
94.0223478866
92.3849971229
90.7152645289
89.015641649
87.289136702
85.5393553299
83.770535598
81.9875697499
80.195984719
78.4018529186
76.6117369886
74.8321640496
73.0682202803
71.3003075382
69.4027008982
49.3378216649
45.7896046176
43.4029143745
41.4531669805
39.7905058737
38.3431472202
37.0657392689
35.9276003397
34.9065699745
33.9858834159
33.1524709417
32.3958629822
31.7074477163
31.079965884
30.5071718153
29.9836098569
29.5044669099
29.0654721614
28.6628242152
28.2931335231
27.9533741323
27.6408409999
27.3531119707
27.0880142966
26.843595244
26.6180965977
26.4099327987
26.2176714481
26.0400160982
25.8757905987
25.7239254294
25.5834456928
25.4534612762
25.3331585276
25.2217929899
25.1186827242
25.0232020145
24.9347758105
24.8528750388
24.7770129108
24.706742146
24.6416542657
24.5813819398
24.5255580265
24.4738304257
24.4258859934
24.381436881
24.3402153656
24.3019722546
24.2664760707
24.2335137964
24.2028906705
24.1744378441
24.1479706452
24.123327226
24.1003607472
24.0789355525
24.0589257972
24.0402149267
24.0226953752
24.0062680674
23.9908416065
23.9763313455
23.9626587665
23.9497512304
23.9375418152
23.9259689702
23.9149759629
23.9045103547
23.8945237667
23.8849718371
23.8758140915
23.8670135901
23.8585365097
23.8503517971
23.8424307069
23.8347465287
23.8272747175
23.8199933116
23.8128830398
23.8059265319
23.7991073242
23.7924097133
23.7858195264
23.7793245289
23.7729137404
23.7665765993
23.760302868
23.7540835842
23.7479110321
23.7417777393
23.7356759326
23.7295981404
23.7235379221
23.7174894012
23.7114460256
23.7054003735
23.6993451389
23.6932734969
23.6871781024
23.6810509837
23.6748836822
23.6686669206
23.6623901823
23.6560417126
23.6496082752
23.6430750087
23.6364244731
23.6296364592
23.6226879017
23.6155521797
23.6081978225
23.6005884829
23.5926824995
23.5844311234
23.5757740132
23.5666414264
23.556952379
23.5466098814
23.535496111
23.5234701462
23.5103640574
23.4959751262
23.4800563166
23.4623081337
23.4423647381
23.4197766893
23.3939889178
23.3643109441
23.3298811568
23.2896084494
23.2421125745
23.1856244645
23.1178614735
23.0358638731
22.9357809974
22.8126208608
22.6600339305
22.470274141
22.2346896581
21.9452810007
21.5978924425
21.1971211244
20.7617604341
20.3279129537
19.9462894799
19.6713715465
19.5433343806
19.5670597287
19.6949660064
19.8259339464
19.805433721
19.4589545831
18.6183863417
17.1531463625
15.0220586549
12.3196641688
9.13303424014
5.25737588363
1.13902256728
52.522456882
48.4703862415
45.7636389837
43.6193893627
41.827013934
40.2865860855
38.9385460251
37.7447163228
36.6784760484
35.7202135393
34.8549589706
34.0709253265
33.3585586714
32.7099091462
32.1182147566
31.5776277548
31.0830338916
30.6299286463
30.2143277081
29.8326968907
29.4818945706
29.1591219567
28.8618800283
28.5879319731
28.3352710954
28.1020929492
27.8867721274
27.6878412277
27.5039730662
27.3339641515
27.1767203522
27.0312445954
26.8966261334
26.7720320629
26.6566990489
26.549926522
26.4510697188
26.3595339373
26.2747695857
26.1962681076
26.1235581688
26.05620125
25.9937890608
25.9359495212
25.8823425101
25.8326512632
25.7865801091
25.743854425
25.7042191429
25.6674365597
25.6332849635
25.601556841
25.5720613651
25.5446245656
25.519085229
25.4952927247
25.4731068553
25.4523972273
25.4330429056
25.4149321409
25.3979618965
25.3820369458
25.3670690942
25.352976502
25.3396835553
25.3271206886
25.3152239321
25.3039342879
25.2931972407
25.2829624315
25.2731836569
25.2638187456
25.2548291197
25.2461793497
25.2378368905
25.2297716419
25.2219556935
25.2143633592
25.2069717364
25.1997606742
25.1927119964
25.1858082832
25.1790329441
25.1723710919
25.1658099879
25.1593378251
25.1529434977
25.1466163521
25.1403471435
25.1341275005
25.1279497268
25.1218053008
25.1156864832
25.1095867879
25.1035001238
25.0974191927
25.091336326
25.0852445511
25.0791365184
25.0730052481
25.0668422232
25.0606389695
25.0543854503
25.0480722697
25.0416857611
25.0352143229
25.028641555
25.0219507011
25.015120427
25.0081286408
25.0009465776
24.9935440064
24.9858810066
24.9779182405
24.9696027553
24.9608735684
24.9516592328
24.9418764087
24.9314214005
24.9201767378
24.9079884651
24.8946883015
24.8800602302
24.8638436965
24.845729874
24.8253266897
24.8021654332
24.7756559668
24.745073035
24.7095016992
24.6677862158
24.6184631997
24.5596570594
24.4889320882
24.4031398184
24.2981598358
24.1686345593
24.0077075965
23.8069438255
23.5567819194
23.2481163896
22.8756036157
22.4427996287
21.9679077416
21.4870338912
21.0513898764
20.7161034435
20.5214831326
20.4715714888
20.5171077061
20.5569559181
20.4371218495
19.987955947
19.0456967445
17.4885912316
15.2810351413
12.5151825918
9.28167781011
5.38962922631
1.21836506868
54.7326792537
50.799306946
47.9374889156
45.6617855769
43.7693516691
42.1522143673
40.7440247229
39.5018674068
38.3959196835
37.4043815539
36.5107538572
35.7021557368
34.968234623
34.3004473208
33.6915850418
33.1354602531
32.6266982048
32.1605933154
31.7330047807
31.3402754044
30.9791654938
30.6467971296
30.3406065435
30.0583033733
29.7978358225
29.5573610207
29.3352199023
29.1299151543
28.9400921331
28.7645220445
28.6020869295
28.4517671926
28.3126306184
28.1838235909
28.064562837
27.9541286494
27.8518582174
27.7571401761
27.6694099977
27.5881462514
27.5128672884
27.4431281395
27.378517442
27.3186521437
27.263175452
27.2117572646
27.1640919391
27.1198960759
27.0789064063
27.0408779746
27.0055829262
26.9728092722
26.9423608239
26.9140537098
26.8877181689
26.8631971068
26.8403448958
26.8190263307
26.7991160217
26.7804979103
26.7630647798
26.7467174627
26.7313641747
26.716919857
26.7033059633
26.6904502323
26.6782862452
26.6667528168
26.6557935251
26.6453562905
26.6353931903
26.6258602688
26.6167172286
26.607927066
26.5994558634
26.5912723955
26.5833479024
26.5756560202
26.5681730958
26.5608780366
26.5537517213
26.5467760896
26.539934136
26.5332104147
26.5265914758
26.5200649434
26.5136195402
26.5072446684
26.5009307954
26.4946686824
26.4884498689
26.48226608
26.4761099833
26.4699744676
26.4638523917
26.457736136
26.4516181642
26.4454920038
26.439350622
26.433186528
26.4269906321
26.4207544751
26.4144677467
26.4081211301
26.4017013232
26.3951961715
26.3885887146
26.3818622011
26.3749959478
26.3679678552
26.3607481958
26.3533062731
26.3456015798
26.3375930433
26.3292277261
26.3204438624
26.3111685782
26.3013163674
26.2907783839
26.2794343072
26.2671268427
26.2536797735
26.238870975
26.2224289694
26.2040322656
26.1832737937
26.1596653922
26.1325923184
26.1012945779
26.0648182775
26.0219573301
25.9711771808
25.9105156081
25.8374215523
25.748585836
25.6396758682
25.5050375749
25.3373997429
25.1277519293
24.8657579421
24.5413340519
24.1480293682
23.6883438432
23.1797169588
22.6578995177
22.1740627534
21.7834668305
21.5260637794
21.4047858537
21.3695768225
21.3187413165
21.1005754075
20.5490151426
19.5056520331
17.8568498821
15.5716280616
12.7388043983
9.45143322506
5.53246812508
1.29907528597
56.538735756
52.8154304147
49.9169497485
47.5699676688
45.6092013406
43.9338425118
42.4774657835
41.1953458925
40.0558856365
39.0358590405
38.117673694
37.2876210005
36.5347218313
35.8499568812