/*--------------------------------*- C++ -*----------------------------------*\
| =========                 |                                                 |
| \\      /  F ield         | OpenFOAM: The Open Source CFD Toolbox           |
|  \\    /   O peration     | Version:  2106                                  |
|   \\  /    A nd           | Website:  www.openfoam.com                      |
|    \\/     M anipulation  |                                                 |
\*---------------------------------------------------------------------------*/
FoamFile
{
    version     2.0;
    format      ascii;
    arch        "LSB;label=32;scalar=64";
    class       surfaceScalarField;
    location    "0.09";
    object      phi;
}
// * * * * * * * * * * * * * * * * * * * * * * * * * * * * * * * * * * * * * //

dimensions      [0 3 -1 0 0 0 0];

oriented        oriented;

internalField   nonuniform List<scalar> 
22100
(
3.38461194311e-05
1.61538805698e-05
2.24572062403e-05
1.1388912576e-05
1.62585456262e-05
6.19866012521e-06
1.27977642994e-05
3.4607809067e-06
1.08046262605e-05
1.99313770191e-06
9.60457073034e-06
1.20005528782e-06
8.85130451631e-06
7.53266064719e-07
8.36434470609e-06
4.86959739189e-07
8.04434766089e-06
3.19997032366e-07
7.8328906398e-06
2.11457051717e-07
7.69350762798e-06
1.39383084532e-07
7.60243851078e-06
9.10692423225e-08
7.54379556544e-06
5.86431347877e-08
7.5068136674e-06
3.6982155813e-08
7.48416571561e-06
2.26482666571e-08
7.47087231208e-06
1.32937509779e-08
7.46356762171e-06
7.30504153175e-09
7.45998141184e-06
3.58653399172e-09
7.45853141398e-06
1.45027508068e-09
7.45846015689e-06
7.14702460517e-11
7.45912910415e-06
-6.68795175084e-10
7.4600938647e-06
-9.64642275597e-10
7.46112379538e-06
-1.02979674327e-09
7.46210161357e-06
-9.77613659297e-10
7.4629700813e-06
-8.68160543839e-10
7.46370628459e-06
-7.35792683865e-10
7.46430800197e-06
-6.01237021584e-10
7.46478481731e-06
-4.76320224497e-10
7.46515214295e-06
-3.66876354406e-10
7.46542746912e-06
-2.74972912906e-10
7.46562814105e-06
-2.00447843644e-10
7.46577006759e-06
-1.41843474047e-10
7.46586714146e-06
-9.71255815263e-11
7.46593078387e-06
-6.38159542713e-11
7.46596910262e-06
-3.86046443862e-11
7.46598760553e-06
-1.89006310293e-11
7.46599297118e-06
-5.88436656831e-12
7.46599046599e-06
1.86951751447e-12
7.46598303663e-06
6.70336466644e-12
7.46597266256e-06
9.60847824036e-12
7.46596070503e-06
1.12302544509e-11
7.4659480156e-06
1.21073809488e-11
7.46593502143e-06
1.26638371619e-11
7.4659218097e-06
1.31892157802e-11
7.46590820005e-06
1.38658746475e-11
7.46589381819e-06
1.48117144401e-11
7.46587815468e-06
1.61238420464e-11
7.46586064061e-06
1.78506959723e-11
7.46584070291e-06
2.00259915702e-11
7.46581775829e-06
2.272191986e-11
7.46579121078e-06
2.60424389046e-11
7.46576041904e-06
3.01112341482e-11
7.46572465099e-06
3.50646696935e-11
7.4656830462e-06
4.10323654482e-11
7.46563461267e-06
4.80951904301e-11
7.46557829758e-06
5.62203184827e-11
7.46551316245e-06
6.52057723037e-11
7.46543862058e-06
7.46593764595e-11
7.46535503389e-06
8.36349370065e-11
7.46526445638e-06
9.04795872462e-11
7.4651727573e-06
9.14375336646e-11
7.46509220084e-06
8.0176530866e-11
7.46503318439e-06
5.8618783454e-11
7.4650134251e-06
1.94526629101e-11
7.46506935602e-06
-5.60585823989e-11
7.4652607864e-06
-1.91336317905e-10
7.46568490732e-06
-4.23844954942e-10
7.46649653179e-06
-8.11251208103e-10
7.46793868476e-06
-1.44174195845e-09
7.47037759041e-06
-2.43849686557e-09
7.47427087847e-06
-3.89291809245e-09
7.48090250194e-06
-6.63130426673e-09
7.49196366076e-06
-1.10608845575e-08
7.51061428743e-06
-1.86503723104e-08
7.54459931107e-06
-3.39848218309e-08
7.6153421543e-06
-7.07427188768e-08
7.78560892462e-06
-1.70266702302e-07
8.25081771613e-06
-4.6520883841e-07
9.75586850019e-06
-1.50505085321e-06
-5.62877696641e-06
1.53846454476e-05
5.02175929369e-05
1.59362870484e-05
4.42441049598e-05
1.73623996059e-05
3.77794888272e-05
1.26632755185e-05
3.26461255752e-05
8.59414356916e-06
2.89380706846e-05
5.70119216456e-06
2.63596049326e-05
3.77852076985e-06
2.45875190773e-05
2.52535178647e-06
2.33735181764e-05
1.70096061403e-06
2.25436435947e-05
1.14987167623e-06
2.19784548208e-05
7.76645972893e-07
2.15959302411e-05
5.21907907328e-07
2.13394014479e-05
3.47598388837e-07
2.11694870693e-05
2.28557978648e-07
2.10587418811e-05
1.47727901829e-07
2.0988052733e-05
9.33380239896e-08
2.09441608747e-05
5.7186218992e-08
2.09179310521e-05
3.35354299757e-08
2.09031449012e-05
1.83731708758e-08
2.08957097725e-05
8.88579058134e-09
2.0892703725e-05
3.07781469712e-09
2.0892455912e-05
-4.20727073729e-10
2.08933603527e-05
-1.86879122172e-09
2.08949142775e-05
-2.58331339054e-09
2.08966860615e-05
-2.74882876073e-09
2.089842174e-05
-2.60311412392e-09
2.08999892003e-05
-2.30242847978e-09
2.09013311122e-05
-1.94231236388e-09
2.09024352415e-05
-1.57969644936e-09
2.09033151581e-05
-1.24620495885e-09
2.09039979006e-05
-9.57345387792e-10
2.09045167352e-05
-7.19152804365e-10
2.09049078958e-05
-5.33113353168e-10
2.09051950779e-05
-3.84637050132e-10
2.09053819333e-05
-2.51202957995e-10
2.09054994889e-05
-1.56892436561e-10
2.0905567838e-05
-8.81849090126e-11
2.09056027086e-05
-4.18787043581e-11
2.09056164798e-05
-1.31617981232e-11
2.09056164804e-05
5.39956788612e-12
2.09056076782e-05
1.7202924706e-11
2.09055935188e-05
2.44448515051e-11
2.09055762351e-05
2.88669935603e-11
2.09055570809e-05
3.17877404263e-11
2.09055365983e-05
3.40756458744e-11
2.09055148372e-05
3.62910761366e-11
2.0905491529e-05
3.88145347223e-11
2.09054661915e-05
4.19435690936e-11
2.09054382873e-05
4.5831182887e-11
2.09054073302e-05
5.05654158557e-11
2.09053729052e-05
5.62917589901e-11
2.09053347013e-05
6.31295199682e-11
2.0905292533e-05
7.1138426121e-11
2.09052463632e-05
8.03000422563e-11
2.09051963609e-05
9.04565893825e-11
2.09051430568e-05
1.01194444449e-10
2.0905087699e-05
1.11641096744e-10
2.09050329195e-05
1.20138851202e-10
2.09049836463e-05
1.23982311523e-10
2.09049487532e-05
1.18331061371e-10
2.09049429245e-05
9.58399995928e-11
2.09049920737e-05
4.16523583944e-11
2.09051444377e-05
-7.28165394392e-11
2.09054703418e-05
-2.67745605386e-10
2.0906088552e-05
-5.98924595126e-10
2.09071230167e-05
-1.09033631705e-09
2.09087402013e-05
-1.80803041308e-09
2.09113090347e-05
-2.99201870953e-09
2.09153947821e-05
-4.89627688187e-09
2.09218956219e-05
-7.94186861008e-09
2.09322850741e-05
-1.2827307277e-08
2.09491445611e-05
-2.07518687612e-08
2.09767216873e-05
-3.42079931475e-08
2.1022223562e-05
-5.65623620706e-08
2.1099267177e-05
-9.56936783904e-08
2.12346693018e-05
-1.69386801854e-07
2.1483239243e-05
-3.19312603644e-07
2.19572201405e-05
-6.44247640401e-07
2.28789981763e-05
-1.38698690055e-06
2.45975855253e-05
-3.2236382283e-06
-7.33678600323e-06
2.63055946583e-05
5.35171033243e-05
1.24191832311e-05
5.29349617198e-05
1.79445403679e-05
4.9653828288e-05
1.59444082927e-05
4.58401661381e-05
1.24078051921e-05
4.2440079523e-05
9.10127839283e-06
3.97291740322e-05
6.48942600888e-06
3.76873427795e-05
4.56718290373e-06
3.61977671997e-05
3.19053615163e-06
3.51328294419e-05
2.21480947117e-06
3.43827581177e-05
1.52671741417e-06
3.3861267385e-05
1.04339885062e-06
3.35033285038e-05
7.05537586408e-07
3.32610278658e-05
4.7085903608e-07
3.30995720657e-05
3.09184202347e-07
3.29939822796e-05
1.98928351842e-07
3.29265135408e-05
1.24655502883e-07
3.28846945429e-05
7.53549283444e-08
3.28598576872e-05
4.32104510554e-08
3.28460308197e-05
2.27129853974e-08
3.28390995285e-05
1.00093534754e-08
3.28363151726e-05
2.36384889983e-09
3.28361987965e-05
-1.75215309626e-09
3.28373022191e-05
-3.68636815513e-09
3.28389996956e-05
-4.44579933836e-09
3.28408681979e-05
-4.4709821457e-09
3.28426651291e-05
-4.09864370673e-09
3.28442664005e-05
-3.54285828785e-09
3.28456211361e-05
-2.93377550615e-09
3.28467219322e-05
-2.34648264732e-09
3.28475852762e-05
-1.82035684033e-09
3.28482387273e-05
-1.3724761518e-09
3.28487121442e-05
-1.00660232205e-09
3.28490471056e-05
-7.19853357713e-10
3.28493037373e-05
-5.08264584052e-10
3.28494879966e-05
-3.41761001197e-10
3.28495985246e-05
-1.99512717872e-10
3.28496622738e-05
-1.06608487708e-10
3.28496947645e-05
-4.67719255353e-11
3.28497061104e-05
-7.11481131425e-12
3.28497035647e-05
1.86688731591e-11
3.28496922786e-05
3.49098373264e-11
3.28496757616e-05
4.49535516653e-11
3.28496561025e-05
5.14505078417e-11
3.2849634389e-05
5.61631964104e-11
3.28496110454e-05
6.02299684465e-11
3.28495860641e-05
6.44159236314e-11
3.28495591018e-05
6.93238376027e-11
3.28495297951e-05
7.5173156392e-11
3.28494979646e-05
8.19857473227e-11
3.28494635648e-05
8.99054025683e-11
3.28494267483e-05
9.89543975744e-11
3.28493879526e-05
1.08958454114e-10
3.28493479959e-05
1.19501247219e-10
3.28493082506e-05
1.29776781132e-10
3.28492710229e-05
1.38312309024e-10
3.28492402827e-05
1.42475378797e-10
3.28492226929e-05
1.37869014793e-10
3.28492284252e-05
1.1828044377e-10
3.28492738985e-05
7.26697924916e-11
3.28493861396e-05
-1.68241809331e-11
3.28496152671e-05
-1.88037076055e-10
3.28500478149e-05
-5.05898624681e-10
3.28507270148e-05
-9.47303936504e-10
3.28517206811e-05
-1.59267464223e-09
3.28532828941e-05
-2.65234163008e-09
3.28558139052e-05
-4.33862324918e-09
3.28598303327e-05
-7.00791195713e-09
3.28661711219e-05
-1.12365099604e-08
3.28761932152e-05
-1.796345562e-08
3.28921372466e-05
-2.87709028854e-08
3.29177924685e-05
-4.64067215212e-08
3.2958728262e-05
-7.5143435376e-08
3.30251889315e-05
-1.23022727666e-07
3.31348805093e-05
-2.05385063664e-07
3.33181648563e-05
-3.5267103365e-07
3.36257494866e-05
-6.2689725162e-07
3.41332267348e-05
-1.1517249811e-06
3.49140342845e-05
-2.16779464116e-06
3.58391980044e-05
-4.14880200154e-06
-7.47807745391e-06
3.59804895345e-05
5.35105649839e-05
8.90861777932e-06
5.55742175705e-05
1.58808869554e-05
5.52424749174e-05
1.62761502995e-05
5.35977782969e-05
1.40525012923e-05
5.15418471483e-05
1.11572091537e-05
4.95802999523e-05
8.45097294558e-06
4.79244134515e-05
6.22306925609e-06
4.66182768234e-05
4.49667272405e-06
4.56307248186e-05
3.20236150412e-06
4.49055564613e-05
2.25188588601e-06
4.43847842838e-05
1.56417124173e-06
4.40177312052e-05
1.07259098557e-06
4.37634469452e-05
7.25143718292e-07
4.3590296761e-05
4.82334885929e-07
4.347455367e-05
3.1467198244e-07
4.33988031243e-05
2.00406584093e-07
4.33504843467e-05
1.23674194701e-07
4.33206719724e-05
7.30232300842e-08
4.33031107014e-05
4.02745674957e-08
4.32934825184e-05
1.96377770111e-08
4.32887814199e-05
7.06516948385e-09
4.3286955525e-05
7.40105385195e-11
4.3287118549e-05
-3.84902536653e-09
4.32881640535e-05
-5.49081414188e-09
4.32895930061e-05
-5.89932949698e-09
4.32911022665e-05
-5.60722501352e-09
4.32925223841e-05
-4.96228699441e-09
4.32937700844e-05
-4.18085149704e-09
4.32948149294e-05
-3.39083414497e-09
4.3295657547e-05
-2.66265468204e-09
4.32963156539e-05
-2.0304513958e-09
4.32968145396e-05
-1.50553769835e-09
4.32971783851e-05
-1.08391277139e-09
4.32974221864e-05
-7.52445220785e-10
4.32975761104e-05
-4.96243598888e-10
4.32976687728e-05
-2.92933236597e-10
4.32977172381e-05
-1.56025582825e-10
4.3297746673e-05
-7.73015544378e-11
4.32977577775e-05
-1.93554488189e-11
4.32977565031e-05
1.8915856643e-11
4.32977470703e-05
4.35819036071e-11
4.32977324696e-05
5.91712607035e-11
4.32977143444e-05
6.96017378322e-11
4.329769358e-05
7.73053419057e-11
4.32976705559e-05
8.38424683668e-11
4.32976452938e-05
9.0261713766e-11
4.32976176449e-05
9.7326209976e-11
4.32975875999e-05
1.05188041039e-10
4.32975551862e-05
1.13952946834e-10
4.32975206182e-05
1.23694233297e-10
4.32974844152e-05
1.3421894469e-10
4.32974474715e-05
1.45019625785e-10
4.32974111339e-05
1.5519650391e-10
4.32973773369e-05
1.63259128979e-10
4.32973488225e-05
1.6680487016e-10
4.32973294256e-05
1.62013755071e-10
4.32973246972e-05
1.42737826111e-10
4.32973446212e-05
9.83506019357e-11
4.329740543e-05
1.16347658632e-11
4.32975312989e-05
-1.43112564699e-10
4.32977283334e-05
-3.85579812372e-10
4.32981051543e-05
-8.83176525067e-10
4.32987947424e-05
-1.63715975489e-09
4.32999722431e-05
-2.77018032819e-09
4.33018411782e-05
-4.52104247711e-09
4.33047548256e-05
-7.25187483039e-09
4.33092861768e-05
-1.15388023935e-08
4.33163397344e-05
-1.82896353266e-08
4.33273441767e-05
-2.89675494014e-08
4.33445395664e-05
-4.59660373169e-08
4.33713805453e-05
-7.32474720221e-08
4.3413681915e-05
-1.17444575645e-07
4.34807243464e-05
-1.90064985696e-07
4.35869729065e-05
-3.11633453505e-07
4.37536408912e-05
-5.19338953286e-07
4.40073596583e-05
-8.80616117213e-07
4.43677143963e-05
-1.5120798757e-06
4.47990014225e-05
-2.59908187699e-06
4.50592049015e-05
-4.40900566698e-06
-6.98076795912e-06
4.45618953738e-05
5.27351372209e-05
6.17348009363e-06
5.57309322198e-05
1.28850911283e-05
5.73114715557e-05
1.4695610313e-05
5.76109915443e-05
1.37529807752e-05
5.71335311765e-05
1.16346691204e-05
5.63194964364e-05
9.26500740991e-06
5.54490531082e-05
7.0935124196e-06
5.46631039616e-05
5.28262180175e-06
5.40139031898e-05
3.85156229801e-06
5.35065097446e-05
2.7592794505e-06
5.31248048037e-05
1.94587640866e-06
5.28457887087e-05
1.35160741547e-06
5.26465661236e-05
9.24366740169e-07
5.25072407779e-05
6.21660743529e-07
5.24117214942e-05
4.10191818135e-07
5.23475644699e-05
2.64564149698e-07
5.2305441205e-05
1.65797947068e-07
5.22785214365e-05
9.99433991457e-08
5.226189941e-05
5.68969025983e-08
5.22521008201e-05
2.9436613242e-08
5.22466814207e-05
1.24848039373e-08
5.22442022123e-05
2.55349613199e-09
5.22433165569e-05
-2.96300675639e-09
5.22434351627e-05
-5.60894456833e-09
5.2244059693e-05
-6.52327748854e-09
5.22448947446e-05
-6.44162534698e-09
5.22457665059e-05
-5.83339028749e-09
5.22465789416e-05
-4.99269401528e-09
5.22472854777e-05
-4.09690057621e-09
5.2247868958e-05
-3.24582437898e-09
5.22483296493e-05
-2.49100124476e-09
5.22486776239e-05
-1.85352735977e-09
5.22489291881e-05
-1.33564071299e-09
5.22491059676e-05
-9.29549806447e-10
5.22492293135e-05
-6.20108070093e-10
5.22493259662e-05
-3.90319497364e-10
5.22493980514e-05
-2.29049838859e-10
5.22494435298e-05
-1.23863115483e-10
5.22494680576e-05
-4.49969484942e-11
5.22494745449e-05
1.1437188154e-11
5.22494700307e-05
4.73747763149e-11
5.22494589593e-05
6.98963504958e-11
5.22494437377e-05
8.4882244475e-11
5.22494256299e-05
9.58130315852e-11
5.22494052595e-05
1.04793878143e-10
5.22493832614e-05
1.12794630004e-10
5.22493586155e-05
1.22249545524e-10
5.22493308352e-05
1.32868958062e-10
5.2249300702e-05
1.43604544856e-10
5.22492684904e-05
1.55140976189e-10
5.2249234674e-05
1.67163395841e-10
5.22492001285e-05
1.78787621479e-10
5.22491661668e-05
1.88632069382e-10
5.22491346845e-05
1.94525680398e-10
5.22491085956e-05
1.92938426126e-10
5.22490932105e-05
1.77572153677e-10
5.22491025432e-05
1.33541383428e-10
5.22491455106e-05
5.53492147959e-11
5.22492456276e-05
-8.87263250867e-11
5.22493921919e-05
-2.90078892268e-10
5.22496668668e-05
-6.60704019675e-10
5.22501281622e-05
-1.34484084233e-09
5.22508255071e-05
-2.33467700637e-09
5.2251897482e-05
-3.84209487515e-09
5.22535501195e-05
-6.17343303197e-09
5.22560905865e-05
-9.79198997235e-09
5.22599803718e-05
-1.54282372308e-08
5.22659286517e-05
-2.42376385586e-08
5.22750288287e-05
-3.80675642962e-08
5.22889618281e-05
-5.98989430681e-08
5.23102976957e-05
-9.45832217449e-08
5.23429379592e-05
-1.5008472584e-07
5.23925424824e-05
-2.39669402913e-07
5.24665527415e-05
-3.85643639437e-07
5.25726186343e-05
-6.25404808409e-07
5.27123333049e-05
-1.02033091487e-06
5.28644264145e-05
-1.66417331024e-06
5.29469468201e-05
-2.68160259861e-06
5.27419807102e-05
-4.20403984393e-06
-6.16544338205e-06
5.19266560377e-05
5.19834863127e-05
4.18999331399e-06
5.50586639348e-05
9.80991266913e-06
5.763861451e-05
1.21156590759e-05
5.93259078492e-05
1.20656868928e-05
6.02280266823e-05
1.07325498687e-05
6.05929498064e-05
8.90008398986e-06
6.06483258534e-05
7.0381361895e-06
6.05532600216e-05
5.37768755439e-06
6.04030661275e-05
4.00175621277e-06
6.02480811033e-05
2.91426459955e-06
6.01110286905e-05
2.08292905751e-06
5.9999362659e-05
1.4632737972e-06
5.9912963744e-05
1.01076611038e-06
5.98485126142e-05
6.86112407131e-07
5.98017750421e-05
4.56929959095e-07
5.97686810314e-05
2.9765871497e-07
5.97457528414e-05
1.88726629739e-07
5.97302063166e-05
1.15490327576e-07
5.97199036287e-05
6.71999070588e-08
5.97132492297e-05
3.60912688811e-08
5.97090900156e-05
1.66442598001e-08
5.97066498403e-05
4.99394668609e-09
5.97052784909e-05
-1.59130468876e-09
5.97046094633e-05
-4.9394603228e-09
5.97043690324e-05
-6.28228982155e-09
5.97043747371e-05
-6.44671229117e-09
5.97045089373e-05
-5.96697167504e-09
5.97046979776e-05
-5.18117694227e-09
5.97048978286e-05
-4.29630720572e-09
5.97050847331e-05
-3.4324219884e-09
5.97052475537e-05
-2.65365411648e-09
5.97053827248e-05
-1.9886606365e-09
5.97054913292e-05
-1.4443453982e-09
5.97055784394e-05
-1.016927832e-09
5.97056482012e-05
-6.90345824412e-10
5.970570108e-05
-4.43906425854e-10
5.97057345578e-05
-2.63449609893e-10
5.97057444092e-05
-1.34780775204e-10
5.97057323816e-05
-3.40565278769e-11
5.97057232255e-05
1.96389571901e-11
5.97057140244e-05
5.58984505349e-11
5.97057049246e-05
7.86934746967e-11
5.97056935078e-05
9.63967721939e-11
5.97056794104e-05
1.10327549921e-10
5.97056624205e-05
1.2233547326e-10
5.97056419375e-05
1.33740533341e-10
5.97056189699e-05
1.45413040184e-10
5.97055941435e-05
1.57535423577e-10
5.97055671377e-05
1.70107759125e-10
5.97055385521e-05
1.82991506229e-10
5.97055093847e-05
1.95544133079e-10
5.97054809696e-05
2.06551345477e-10
5.97054550808e-05
2.14126778413e-10
5.97054339496e-05
2.15540339203e-10
5.97054198854e-05
2.07099465084e-10
5.97054132946e-05
1.8434702699e-10
5.97054030092e-05
1.43946622534e-10
5.97054011762e-05
5.71263098214e-11
5.97054081544e-05
-9.59556710199e-11
5.9705535541e-05
-4.1783902799e-10
5.97057819931e-05
-9.07543314446e-10
5.97061072062e-05
-1.67033115168e-09
5.97066038412e-05
-2.8313961773e-09
5.97073578812e-05
-4.59601335777e-09
5.97084814592e-05
-7.29673875614e-09
5.97101385346e-05
-1.14487618652e-08
5.97125672951e-05
-1.78567739747e-08
5.97161140696e-05
-2.77843398686e-08
5.97212779162e-05
-4.3231459712e-08
5.97287622875e-05
-6.73833706688e-08
5.97395135044e-05
-1.05334493707e-07
5.97546555741e-05
-1.65226790004e-07
5.9775128821e-05
-2.60142557274e-07
5.98004834347e-05
-4.10998182013e-07
5.98256908675e-05
-6.50612291283e-07
5.98337936099e-05
-1.02843387015e-06
5.97818969194e-05
-1.61227696988e-06
5.95791387069e-05
-2.4788447889e-06
5.90601068456e-05
-3.68500837889e-06
-5.15364334466e-06
5.80483067048e-05
5.14373056942e-05
2.75268714835e-06
5.42658221656e-05
6.9813953461e-06
5.7249647188e-05
9.13183337592e-06
5.9790034289e-05
9.52529922814e-06
6.17201368133e-05
8.80244690344e-06
6.3088311251e-05
7.5319092345e-06
6.4016718998e-05
6.10972824116e-06
6.46292239077e-05
4.76518255378e-06
6.50257622222e-05
3.60521791489e-06
6.5278989107e-05
2.66103784418e-06
6.54388119753e-05
1.92310643606e-06
6.55384271272e-05
1.36365901418e-06
6.55995305293e-05
9.49663185978e-07
6.5636174418e-05
6.49469077731e-07
6.5657418521e-05
4.35686447133e-07
6.5669085704e-05
2.85992101309e-07
6.56749042169e-05
1.82908619031e-07
6.56772466649e-05
1.131482919e-07
6.56776084748e-05
6.68384228333e-08
6.56769184938e-05
3.67815148795e-08
6.56757450297e-05
1.78179672367e-08
6.56744322696e-05
6.3069754099e-09
6.56731481128e-05
-3.06808032645e-10
6.56719992237e-05
-3.79013609393e-09
6.56710174447e-05
-5.29998845875e-09
6.56702092839e-05
-5.63797884521e-09
6.56695633842e-05
-5.32050149176e-09
6.56690602248e-05
-4.67750209319e-09
6.56686775479e-05
-3.91320638856e-09
6.56683935999e-05
-3.14815648813e-09
6.56681884726e-05
-2.44831560637e-09
6.56680445952e-05
-1.84468028391e-09
6.56679468353e-05
-1.34661666741e-09
6.56678803689e-05
-9.50672931139e-10
6.56678341682e-05
-6.44578107306e-10
6.56678023497e-05
-4.12762312806e-10
6.56677769777e-05
-2.38971299355e-10
6.56677577259e-05
-1.165683815e-10
6.56677599759e-05
-3.73631329018e-11
6.5667763225e-05
1.54729433248e-11
6.56677575251e-05
6.09682796705e-11
6.56677486167e-05
8.73553272978e-11
6.56677385858e-05
1.06563891354e-10
6.56677272173e-05
1.2210775601e-10
6.56677139816e-05
1.36069037382e-10
6.5667698346e-05
1.49760489762e-10
6.56676799473e-05
1.63934420602e-10
6.5667658769e-05
1.78506109642e-10
6.56676366249e-05
1.91739450253e-10
6.56676128562e-05
2.06065979384e-10
6.5667587579e-05
2.20131121854e-10
6.56675615159e-05
2.32098468245e-10
6.56675356274e-05
2.39757485198e-10
6.56675111869e-05
2.3996925812e-10
6.5667490142e-05
2.28296889316e-10
6.56674762515e-05
1.98427953906e-10
6.56674780129e-05
1.4227964565e-10
6.5667477609e-05
5.74450415737e-11
6.56675130665e-05
-1.31677726218e-10
6.56675712021e-05
-4.76337262612e-10
6.56676655927e-05
-1.00225856818e-09
6.56678080685e-05
-1.81298981748e-09
6.56680087702e-05
-3.03208703818e-09
6.56682801158e-05
-4.86716277125e-09
6.56686274839e-05
-7.64382621724e-09
6.56690409439e-05
-1.1861993906e-08
6.56694790738e-05
-1.82948397249e-08
6.56698380579e-05
-2.81434514571e-08
6.56698934232e-05
-4.32870376274e-08
6.56691883211e-05
-6.66785021079e-08
6.56668174914e-05
-1.0296384176e-07
6.56609520008e-05
-1.59361329016e-07
6.56479095061e-05
-2.47099972998e-07
6.56202935964e-05
-3.83382231467e-07
6.55634197907e-05
-5.9373852978e-07
6.5448957029e-05
-9.13971362468e-07
6.52254726495e-05
-1.3887930362e-06
6.48083914188e-05
-2.06176404584e-06
6.40767715393e-05
-2.95338889224e-06
-4.00297415986e-06
6.29261022949e-05
5.10850430235e-05
1.66764364596e-06
5.36118472307e-05
4.45459026712e-06
5.66873218832e-05
6.05635802533e-06
5.96894531296e-05
6.52316739441e-06
6.22997299415e-05
6.19216962463e-06
6.44136773574e-05
5.41796147697e-06
6.60471415907e-05
4.47626378796e-06
6.72685138696e-05
3.54381017106e-06
6.81596947245e-05
2.71403707179e-06
6.87974113045e-05
2.02332139695e-06
6.92461804982e-05
1.47433750355e-06
6.95571065188e-05
1.05273338531e-06
6.97691925791e-05
7.37577634107e-07
6.99114607638e-05
5.07201479454e-07
7.00051011819e-05
3.42046641476e-07
7.00653484141e-05
2.2574545162e-07
7.01030066262e-05
1.45250918611e-07
7.01256394885e-05
9.05158517786e-08
7.01384742133e-05
5.40040338125e-08
7.01450748106e-05
3.01811884593e-08
7.01478368665e-05
1.50561534798e-08
7.01483478497e-05
5.79625424284e-09
7.01476248511e-05
4.16516204341e-10
7.01463131999e-05
-2.47807705639e-09
7.01448032591e-05
-3.78956907681e-09
7.01433196389e-05
-4.15384194873e-09
7.0141980149e-05
-3.98049773362e-09
7.01408359729e-05
-3.53285079372e-09
7.01398982539e-05
-2.97507422706e-09
7.01391555131e-05
-2.40507537956e-09
7.01385847763e-05
-1.87731166262e-09
7.01381584135e-05
-1.41814595716e-09
7.01378483024e-05
-1.03646980584e-09
7.01376281171e-05
-7.30639271222e-10
7.01374758623e-05
-4.92705905577e-10
7.01373744768e-05
-3.12011483651e-10
7.01373130957e-05
-1.78457408493e-10
7.0137279176e-05
-8.36636288235e-11
7.01372492959e-05
-8.50372716779e-12
7.01372292655e-05
3.46446047289e-11
7.01372222926e-05
6.73837574617e-11
7.01372175818e-05
9.18823470962e-11
7.01372131837e-05
1.11128303237e-10
7.01372080233e-05
1.2766030472e-10
7.01372013916e-05
1.43137993886e-10
7.01371928946e-05
1.58563142471e-10
7.0137182437e-05
1.74440509181e-10
7.01371699056e-05
1.90781212408e-10
7.01371538389e-05
2.07293104116e-10
7.01371355231e-05
2.23751061731e-10
7.01371158795e-05
2.39203052365e-10
7.01370955794e-05
2.52023255477e-10
7.01370753518e-05
2.59859885616e-10
7.0137055947e-05
2.59468194378e-10
7.01370378666e-05
2.46589019042e-10
7.01370204771e-05
2.16005729779e-10
7.01370007449e-05
1.62053853749e-10
7.01369814323e-05
7.66108558002e-11
7.01369473001e-05
-9.78434710896e-11
7.013692912e-05
-4.58503892482e-10
7.01369047715e-05
-9.78177995035e-10
7.01368469123e-05
-1.75521987056e-09
7.01367219323e-05
-2.90697527725e-09
7.01364700287e-05
-4.61497912379e-09
7.01359827153e-05
-7.1562324632e-09
7.01350711614e-05
-1.09502863509e-08
7.0133411688e-05
-1.66354415271e-08
7.01304524621e-05
-2.51845125396e-08
7.01252611659e-05
-3.80961555336e-08
7.01162762087e-05
-5.76939638814e-08
7.01009028777e-05
-8.75907793146e-08
7.00747284933e-05
-1.33187006044e-07
7.00302791917e-05
-2.0265059241e-07
6.99549468005e-05
-3.08049761991e-07
6.98276717635e-05
-4.6646352639e-07
6.96141130978e-05
-7.00412902345e-07
6.926108655e-05
-1.0357669755e-06
6.86935362984e-05
-1.4942143014e-06
6.78200728893e-05
-2.07992584682e-06
-2.7526614934e-06
6.65697601846e-05
5.08804140731e-05
7.8722908333e-07
5.31704694875e-05
2.16453395637e-06
5.6217755784e-05
3.00907100531e-06
5.94382754193e-05
3.30264714569e-06
6.24449662974e-05
3.1854782531e-06
6.50382241451e-05
2.82470326308e-06
6.71547844537e-05
2.35970324022e-06
6.88133878632e-05
1.8852066449e-06
7.00728400595e-05
1.45458488399e-06
7.10051056494e-05
1.09105594771e-06
7.16803735346e-05
7.99069900749e-07
7.21600891419e-05
5.73018198307e-07
7.24946958775e-05
4.02971436266e-07
7.27238579774e-05
2.78039990508e-07
7.2877799386e-05
1.88105861e-07
7.29789942448e-05
1.24551187387e-07
7.30438201594e-05
8.04255278055e-08
7.30840043246e-05
5.03321198464e-08
7.31078102987e-05
3.01984029162e-08
7.31209718325e-05
1.70199276628e-08
7.3127406248e-05
8.62197975247e-09
7.31297465483e-05
3.45621165125e-09
7.31297295724e-05
4.33802293549e-10
7.31284598936e-05
-1.20802305003e-09
7.31266412915e-05
-1.97053918923e-09
7.31246901604e-05
-2.20225448527e-09
7.31228406017e-05
-2.13047776705e-09
7.31212096195e-05
-1.90142541631e-09
7.31198415518e-05
-1.6065933127e-09
7.31187378033e-05
-1.30095188149e-09
7.31178763896e-05
-1.0155794065e-09
7.311722392e-05
-7.65446026813e-10
7.31167436136e-05
-5.56067781493e-10
7.31163999549e-05
-3.87072270899e-10
7.31161614712e-05
-2.54554359541e-10
7.31160017664e-05
-1.5291008743e-10
7.31158985165e-05
-7.60538064617e-11
7.31158307525e-05
-1.68834838233e-11
7.31157969253e-05
2.43619435617e-11
7.31157768225e-05
5.39618262328e-11
7.31157664668e-05
7.72546757783e-11
7.31157619357e-05
9.62835416559e-11
7.31157601657e-05
1.1308145912e-10
7.31157590771e-05
1.29114894849e-10
7.31157573047e-05
1.45285159486e-10
7.31157539971e-05
1.62092717334e-10
7.31157486832e-05
1.79717142663e-10
7.31157411376e-05
1.98013895177e-10
7.31157313547e-05
2.16570565139e-10
7.31157195712e-05
2.34988851748e-10
7.3115706031e-05
2.52311538604e-10
7.31156908953e-05
2.66939250486e-10
7.3115674182e-05
2.76588961821e-10
7.31156557256e-05
2.78123321153e-10
7.31156352196e-05
2.67351801155e-10
7.3115612422e-05
2.38957115638e-10
7.31155875562e-05
1.86883541948e-10
7.31155565523e-05
1.07390429458e-10
7.31155032564e-05
-4.48872330836e-11
7.31154060932e-05
-3.61675929655e-10
7.31152532755e-05
-8.25564980332e-10
7.31149978529e-05
-1.49976820893e-09
7.31145651975e-05
-2.47407113996e-09
7.31138316438e-05
-3.88109121896e-09
7.31125915413e-05
-5.91584142429e-09
7.31105062704e-05
-8.86492520151e-09
7.31070200418e-05
-1.31494082039e-08
7.31012159999e-05
-1.93809096168e-08
7.30915955112e-05
-2.84762567522e-08
7.3075738696e-05
-4.18376874376e-08
7.30497791388e-05
-6.16315390474e-08
7.30074298595e-05
-9.08377568277e-08
7.29386139512e-05
-1.33834592141e-07
7.28274071482e-05
-1.96842834934e-07
7.26491460123e-05
-2.88202399652e-07
7.2366883796e-05
-4.18150931958e-07
7.19283343669e-05
-5.97218002935e-07
7.12662075754e-05
-8.32088005209e-07
7.03059995015e-05
-1.11971808173e-06
-1.43771937657e-06
6.89910574517e-05
5.07871735852e-05
5.49955351592e-11
5.29516534434e-05
5.31745330586e-11
5.59606947129e-05
2.89850026507e-11
5.92633267971e-05
1.44199709477e-11
6.24488014153e-05
3.11499372661e-12
6.52735098953e-05
-5.60538673156e-12
6.76332241808e-05
-1.13019855377e-11
6.95184447336e-05
-1.40341180778e-11
7.09730438774e-05
-1.42494551107e-11
7.2064112535e-05
-1.25535871656e-11
7.28631923305e-05
-9.58813899111e-12
7.34362170003e-05
-6.02103198269e-12
7.38391915365e-05
-2.53735913015e-12
7.41172320204e-05
1.34669955178e-13
7.43053369285e-05
1.59369728753e-12
7.44298875781e-05
1.14475909777e-12
7.45103148981e-05
-1.25553134486e-12
7.4560652809e-05
-5.34550485904e-12
7.45908619427e-05
-1.03780655044e-11
7.46078974507e-05
-1.53003745387e-11
7.46165385461e-05
-1.88690410515e-11
7.46200150248e-05
-2.00112880451e-11
7.46204691985e-05
-2.00794053133e-11
7.46192809741e-05
-1.9464474093e-11
7.46173286926e-05
-1.7888504107e-11
7.46151423876e-05
-1.55554771824e-11
7.46130248643e-05
-1.25450658605e-11
7.46111326796e-05
-8.82007277148e-12
7.46095307273e-05
-4.22441021705e-12
7.46082289419e-05
1.2373615336e-12
7.46072072233e-05
6.50348686688e-12
7.46064295064e-05
1.25583124083e-11
7.46058545801e-05
1.90180094801e-11
7.46054417128e-05
2.57651522728e-11
7.46051540026e-05
3.28670604064e-11
7.46049600023e-05
4.05144319294e-11
7.4604834289e-05
4.88448053521e-11
7.46047586805e-05
5.77928527191e-11
7.46047151128e-05
6.70394902983e-11
7.46046921633e-05
7.62106547446e-11
7.46046824257e-05
8.65874534054e-11
7.4604680372e-05
9.82630841874e-11
7.46046822706e-05
1.11381836668e-10
7.46046856662e-05
1.26054545358e-10
7.46046889784e-05
1.42276707064e-10
7.46046912485e-05
1.59949103713e-10
7.46046919576e-05
1.78882192987e-10
7.46046908528e-05
1.98759326911e-10
7.46046878237e-05
2.19117029735e-10
7.46046829549e-05
2.39406949976e-10
7.46046763077e-05
2.5867063561e-10
7.46046677582e-05
2.75429503304e-10
7.46046569033e-05
2.87601865472e-10
7.46046429417e-05
2.92365563294e-10
7.46046245078e-05
2.86041192987e-10
7.46045994711e-05
2.64095030311e-10
7.46045649251e-05
2.21311903385e-10
7.46045191326e-05
1.52872390281e-10
7.46044391455e-05
3.47087272307e-11
7.46042773577e-05
-2.00208061946e-10
7.46040331545e-05
-5.81477128908e-10
7.46036296471e-05
-1.09610936629e-09
7.46029654086e-05
-1.80947198231e-09
7.46018755656e-05
-2.79082257331e-09
7.46000919433e-05
-4.13191811014e-09
7.45971831878e-05
-5.95615094405e-09
7.45924531873e-05
-8.41968579763e-09
7.458476206e-05
-1.16903520018e-08
7.45722656698e-05
-1.59805730783e-08
7.45520320073e-05
-2.16046490008e-08
7.45195334448e-05
-2.91333346469e-08
7.44674949018e-05
-3.87993156287e-08
7.43845458737e-05
-5.08853913872e-08
7.42532509803e-05
-6.55477154596e-08
7.40475390804e-05
-8.24904885088e-08
7.37298867444e-05
-1.00498835514e-07
7.32494113343e-05
-1.16743010125e-07
7.25433060611e-05
-1.25983205167e-07
7.15445746831e-05
-1.20986913131e-07
-9.31118285855e-08
7.01999673307e-05
5.07871725458e-05
-7.8711806869e-07
5.29516525626e-05
-2.16442779427e-06