/*--------------------------------*- C++ -*----------------------------------*\
| =========                 |                                                 |
| \\      /  F ield         | OpenFOAM: The Open Source CFD Toolbox           |
|  \\    /   O peration     | Version:  2106                                  |
|   \\  /    A nd           | Website:  www.openfoam.com                      |
|    \\/     M anipulation  |                                                 |
\*---------------------------------------------------------------------------*/
FoamFile
{
    version     2.0;
    format      ascii;
    arch        "LSB;label=32;scalar=64";
    class       surfaceScalarField;
    location    "0.095";
    object      phi;
}
// * * * * * * * * * * * * * * * * * * * * * * * * * * * * * * * * * * * * * //

dimensions      [0 3 -1 0 0 0 0];

oriented        oriented;

internalField   nonuniform List<scalar> 
799
(
1.71701e-32
4.43346e-32
5.68601e-32
4.53489e-32
1.94353e-32
-4.80489e-32
-1.08273e-31
-1.54992e-31
-1.65877e-31
-1.28947e-31
-7.39817e-32
-1.25368e-32
2.51049e-32
3.40154e-32
1.15947e-32
-2.84698e-32
-8.01984e-32
-1.33393e-31
-1.74208e-31
-2.0267e-31
-1.94985e-31
-1.59334e-31
-9.85956e-32
-2.8248e-32
1.19242e-32
2.06097e-32
-2.14666e-32
-9.25033e-32
-1.59211e-31
-2.12212e-31
-2.15471e-31
-1.88585e-31
-1.42669e-31
-8.80342e-32
-6.35602e-32
-5.28969e-32
-7.0509e-32
-1.08821e-31
-1.39112e-31
-1.76215e-31
-1.85588e-31
-1.73505e-31
-1.50428e-31
-1.04094e-31
-7.92226e-32
-6.92793e-32
-8.55312e-32
-1.34823e-31
-1.751e-31
-2.11703e-31
-2.13936e-31
-1.80385e-31
-1.37482e-31
-8.34424e-32
-5.92767e-32
-6.5668e-32
-9.89913e-32
-1.5829e-31
-2.03886e-31
-2.29219e-31
-2.16226e-31
-1.63233e-31
-1.01277e-31
-4.6483e-32
-3.37971e-32
-7.46561e-32
-1.4856e-31
-2.32174e-31
-2.77689e-31
-2.60244e-31
-1.88922e-31
-8.72168e-32
-1.08036e-32
5.7146e-33
-4.13578e-32
-1.35114e-31
-2.21581e-31
-2.66157e-31
-2.54567e-31
-1.95219e-31
-1.28866e-31
-7.97358e-32
-6.42347e-32
-7.90948e-32
-1.03058e-31
-1.28834e-31
-1.48238e-31
-1.66195e-31
-1.86308e-31
-1.98378e-31
-1.96214e-31
-1.64888e-31
-1.12128e-31
-5.85167e-32
-2.5651e-32
-4.434e-32
-1.02729e-31
-1.843e-31
-2.53454e-31
-2.66607e-31
-2.31119e-31
-1.45129e-31
-5.40867e-32
-6.34203e-34
8.61402e-33
-4.9111e-32
-1.28151e-31
-2.01715e-31
-2.45416e-31
-2.28196e-31
-1.84134e-31
-1.21151e-31
-7.42882e-32
-6.54906e-32
-7.67165e-32
-1.07127e-31
-1.23761e-31
-1.2106e-31
-1.0812e-31
-9.40286e-32
-1.03751e-31
-1.34047e-31
-1.75385e-31
-2.06011e-31
-2.04397e-31
-1.69533e-31
-1.09976e-31
-5.0327e-32
-1.23267e-32
-6.78176e-33
-3.65466e-32
-8.87447e-32
-1.49533e-31
-2.04687e-31
-2.36388e-31
-2.38961e-31
-2.05084e-31
-1.40786e-31
-6.68877e-32
-1.95444e-33
2.34855e-32
1.07182e-33
-6.1988e-32
-1.46039e-31
-2.1074e-31
-2.37099e-31
-2.13474e-31
-1.53102e-31
-9.02458e-32
-4.68136e-32
-4.59154e-32
-8.0373e-32
-1.27266e-31
-1.64249e-31
-1.64669e-31
-1.31667e-31
-8.07566e-32
-3.89354e-32
-3.60239e-32
-7.59629e-32
-1.46973e-31
-2.13707e-31
-2.4054e-31
-2.09529e-31
-1.29233e-31
-3.97741e-32
1.84152e-32
1.06009e-32
-5.58038e-32
-1.45663e-31
-2.16335e-31
-2.23132e-31
-1.76641e-31
-9.9073e-32
-3.62827e-32
-2.97646e-32
-6.56279e-32
-1.34398e-31
-1.83892e-31
-1.85943e-31
-1.49594e-31
-7.85196e-32
-2.89567e-32
-1.54131e-32
-4.43822e-32
-1.11641e-31
-1.67497e-31
-2.0384e-31
-1.96042e-31
-1.48859e-31
-9.34016e-32
-3.73603e-32
-1.42338e-32
-2.26823e-32
-5.41502e-32
-1.0262e-31
-1.40154e-31
-1.64322e-31
-1.68053e-31
-1.50404e-31
-1.23925e-31
-8.84852e-32
-5.48204e-32
-3.24218e-32
-2.53185e-32
-4.39709e-32
-8.31066e-32
-1.28879e-31
-1.64834e-31
-1.67255e-31
-1.32489e-31
-7.35767e-32
-1.54947e-32
6.48045e-33
-2.09964e-32
-8.77231e-32
-1.6184e-31
-1.97841e-31
-1.70496e-31
-8.64577e-32
1.80278e-32
8.64637e-32
7.84215e-32
-6.10505e-33
-1.3306e-31
-2.35508e-31
-2.58017e-31
-1.88415e-31
-4.94358e-32
8.74748e-32
1.59016e-31
1.37262e-31
2.72853e-32
-1.05522e-31
-2.01568e-31
-2.18894e-31
-1.4498e-31
-2.80215e-32
8.61297e-32
1.48939e-31
1.36169e-31
7.24315e-32
-1.32158e-32
-7.56558e-32
-8.61741e-32
-4.75309e-32
2.32556e-32
9.18857e-32
1.29352e-31
1.26255e-31
9.68472e-32
6.53041e-32
6.21581e-32
9.81532e-32
1.54481e-31
2.09168e-31
2.26134e-31
1.97934e-31
1.49159e-31
1.07587e-31
1.16811e-31
1.84591e-31
2.85108e-31
3.85805e-31
4.39876e-31
4.35001e-31
3.93678e-31
3.43532e-31
3.2665e-31
3.57426e-31
4.18223e-31
4.9649e-31
5.61535e-31
6.06547e-31
6.45571e-31
6.75915e-31
7.15815e-31
7.5834e-31
7.93828e-31
8.32514e-31
8.66613e-31
9.12585e-31
9.72215e-31
1.03418e-30
1.09757e-30
1.14913e-30
1.19984e-30
1.26615e-30
1.35991e-30
1.4829e-30
1.61148e-30
1.71456e-30
1.76779e-30
1.77882e-30
1.77958e-30
1.82178e-30
1.94045e-30
2.1292e-30
2.35456e-30
2.55043e-30
2.67859e-30
2.73661e-30
2.7568e-30
2.80669e-30
2.92082e-30
3.11104e-30
3.34675e-30
3.57239e-30
3.76194e-30
3.90163e-30
4.02247e-30
4.16377e-30
4.34355e-30
4.5708e-30
4.81369e-30
5.04708e-30
5.25889e-30
5.44871e-30
5.65051e-30
5.88201e-30
6.15454e-30
6.46208e-30
6.7698e-30
7.06383e-30
7.32977e-30
7.57938e-30
7.84787e-30
8.14984e-30
8.50774e-30
8.90562e-30
9.31156e-30
9.70583e-30
1.00562e-29
1.03806e-29
1.0704e-29
1.10568e-29
1.14816e-29
1.19661e-29
1.24974e-29
1.3032e-29
1.35172e-29
1.39383e-29
1.42981e-29
1.45998e-29
1.50621e-29
1.56343e-29
1.70339e-29
1.94976e-29
2.31546e-29
3.00734e-29
3.27995e-29
3.56306e-29
1.86035e-29
-2.41016e-29
-7.54273e-29
-1.80968e-28
-1.71553e-28
-1.10702e-28
1.7738e-28
8.21677e-28
1.18711e-27
1.82967e-27
1.06814e-27
-7.49648e-28
-3.02486e-27
-7.53117e-27
-7.20147e-27
-5.91906e-27
1.7604e-27
1.68885e-26
2.26802e-26
3.30611e-26
1.66606e-26
-1.35986e-26
-4.09949e-26
-9.04831e-26
-7.13099e-26
-4.21822e-26
3.15828e-26
1.54637e-25
1.62748e-25
1.9201e-25
5.4324e-26
-1.45587e-25
-2.4155e-25
-4.15698e-25
-2.36511e-25
-3.16303e-26
2.19167e-25
5.89208e-25
4.55169e-25
3.83047e-25
-3.70709e-26
-5.43989e-25
-5.80036e-25
-7.54239e-25
-2.54565e-25
2.23641e-25
5.06861e-25
9.15306e-25
5.06872e-25
2.23657e-25
-2.54551e-25
-7.54234e-25
-5.80042e-25
-5.44001e-25
-3.7085e-26
3.83038e-25
4.55168e-25
5.89213e-25
2.19175e-25
-3.16246e-26
-2.36509e-25
-4.157e-25
-2.41555e-25
-1.45592e-25
5.43204e-26
1.92009e-25
1.62748e-25
1.54637e-25
3.15831e-26
-4.21825e-26
-7.13106e-26
-9.04838e-26
-4.09958e-26
-1.35995e-26
1.66597e-26
3.30601e-26
2.26793e-26
1.68876e-26
1.75964e-27
-5.91972e-27
-7.20205e-27
-7.53169e-27
-3.02541e-27
-7.50211e-28
1.06753e-27
1.82902e-27
1.18645e-27
8.21035e-28
1.76811e-28
-1.1119e-28
-1.7194e-28
-1.81288e-28
-7.57458e-29
-2.4464e-29
1.81358e-29
3.50808e-29
3.22178e-29
2.95333e-29
2.27429e-29
1.92229e-29
1.68798e-29
1.55282e-29
1.49158e-29
1.43693e-29
1.39574e-29
1.35219e-29
1.30854e-29
1.26391e-29
1.22025e-29
1.17848e-29
1.13999e-29
1.10402e-29
1.06822e-29
1.03048e-29
9.89372e-30
9.45794e-30
9.03297e-30
8.64576e-30
8.32296e-30
8.0577e-30
7.82052e-30
7.58558e-30
7.31693e-30
7.01668e-30
6.69244e-30
6.36461e-30
6.0647e-30
5.79864e-30
5.58009e-30
5.39764e-30
5.23144e-30
5.06437e-30
4.86938e-30
4.64171e-30
4.39129e-30
4.14061e-30
3.92392e-30
3.76364e-30
3.6535e-30
3.57484e-30
3.48443e-30
3.34724e-30
3.16422e-30
2.94208e-30
2.73198e-30
2.57011e-30
2.46691e-30
2.42703e-30
2.39852e-30
2.35053e-30
2.25569e-30
2.10089e-30
1.92565e-30
1.75548e-30
1.63195e-30
1.57669e-30
1.57151e-30
1.59227e-30
1.58958e-30
1.52656e-30
1.39785e-30
1.22354e-30
1.05383e-30
9.43745e-31
9.17937e-31
9.68255e-31
1.04763e-30
1.09088e-30
1.05875e-30
9.41807e-31
7.78541e-31
6.26583e-31
5.33823e-31
5.21112e-31
5.65655e-31
6.29942e-31
6.65836e-31
6.53507e-31
5.93676e-31
5.04617e-31
4.22468e-31
3.58662e-31
3.32629e-31
3.3411e-31
3.48235e-31
3.66609e-31
3.60077e-31
3.39094e-31
2.97049e-31
2.50588e-31
2.25449e-31
2.11928e-31
2.27699e-31
2.40846e-31
2.35242e-31
2.12289e-31
1.562e-31
1.10437e-31
8.40413e-32
8.88967e-32
1.31871e-31
1.68966e-31
1.93002e-31
1.81806e-31
1.36525e-31
9.07414e-32
4.90601e-32
3.25217e-32
3.30598e-32
3.05666e-32
2.94171e-32
2.28614e-32
3.16851e-32
6.92321e-32
1.18807e-31
1.65843e-31
1.65887e-31
1.00345e-31
-9.66426e-33
-1.3201e-31
-1.92814e-31
-1.58751e-31
-3.84925e-32
1.29936e-31
2.50071e-31
2.71549e-31
1.74507e-31
-1.02838e-32
-1.81564e-31
-2.76436e-31
-2.40406e-31
-8.82181e-32
9.4108e-32
2.391e-31
2.6384e-31
1.65021e-31
-8.47861e-34
-1.70024e-31
-2.46812e-31
-2.13872e-31
-9.35855e-32
6.11332e-32
1.61209e-31
1.83249e-31
1.19926e-31
8.4771e-33
-8.64336e-32
-1.44951e-31
-1.41681e-31
-9.77086e-32
-4.25405e-32
1.45949e-32
4.67204e-32
6.39198e-32
6.27763e-32
4.18551e-32
1.39021e-32
-2.75558e-32
-6.3592e-32
-8.9649e-32
-9.89492e-32
-8.53849e-32
-5.92494e-32
-2.00214e-32
1.72762e-32
4.96055e-32
6.48722e-32
5.68721e-32
2.92049e-32
-2.1208e-32
-6.72526e-32
-1.04296e-31
-1.14035e-31
-9.02065e-32
-5.46182e-32
-3.31395e-33
3.20861e-32
4.96454e-32
5.18617e-32
2.61626e-32
-1.39931e-33
-3.90287e-32
-7.24328e-32
-8.69271e-32
-9.01425e-32
-6.43097e-32
-2.73029e-32
1.18746e-32
4.34448e-32
4.66737e-32
3.0882e-32
-4.31905e-33
-4.3049e-32
-6.95951e-32
-8.06935e-32
-6.87733e-32
-4.2703e-32
-1.019e-32
1.76554e-32
3.10451e-32
2.53427e-32
5.197e-33
-1.95046e-32
-3.84283e-32
-3.85126e-32
-2.98075e-32
-1.58823e-32
-1.13293e-32
-2.41734e-32
-3.5079e-32
-4.17912e-32
-2.14862e-32
1.80768e-32
5.16044e-32
6.5921e-32
3.151e-32
-2.96911e-32
-9.17435e-32
-1.21668e-31
-8.92985e-32
-1.82407e-32
6.67455e-32
1.15369e-31
1.01361e-31
3.73269e-32
-5.19505e-32
-1.10368e-31
-1.15547e-31
-6.49776e-32
1.54533e-32
7.53054e-32
9.3373e-32
5.61736e-32
-9.71842e-33
-6.43817e-32
-8.47692e-32
-5.24921e-32
6.96691e-33
6.26198e-32
8.74607e-32
6.04185e-32
2.57744e-33
-6.14343e-32
-1.00675e-31
-8.94391e-32
-3.98238e-32
3.17553e-32
9.4518e-32
1.1713e-31
9.95736e-32
4.37133e-32
-2.77725e-32
-8.37479e-32
-1.14645e-31
-1.034e-31
-5.72889e-32
5.50098e-33
7.49104e-32
1.20307e-31
1.32634e-31
1.05506e-31
3.86126e-32
-3.93777e-32
-1.0963e-31
-1.40506e-31
-1.14919e-31
-4.34056e-32
5.53991e-32
1.36416e-31
1.66602e-31
1.3253e-31
4.40782e-32
-5.56744e-32
-1.24069e-31
-1.29872e-31
-6.9546e-32
2.4758e-32
1.09343e-31
1.45313e-31
1.14912e-31
3.91633e-32
-4.53948e-32
-9.79922e-32
-8.90697e-32
-3.17891e-32
5.06858e-32
1.16025e-31
1.28207e-31
9.40591e-32
2.01207e-32
-4.83084e-32
-7.67686e-32
-6.40688e-32
-1.71528e-33
6.33307e-32
1.06269e-31
1.14873e-31
7.2512e-32
2.14019e-32
-2.68571e-32
-4.91962e-32
-2.9569e-32
3.58404e-33
4.872e-32
7.95161e-32
8.51434e-32
7.70643e-32
5.27075e-32
3.07466e-32
1.77095e-32
1.05174e-32
1.25891e-32
1.50657e-32
1.32949e-32
1.45022e-32
1.46468e-32
2.44894e-32
4.73546e-32
7.13136e-32
1.0052e-31
1.09135e-31
9.52185e-32
6.01492e-32
2.13583e-33
-4.14602e-32
-6.72225e-32
-5.23133e-32
1.23831e-33
6.54466e-32
1.28811e-31
1.5243e-31
1.37307e-31
8.55609e-32
2.19774e-32
-2.69726e-32
-4.74298e-32
-2.60843e-32
4.68768e-33
5.35439e-32
7.40204e-32
7.47426e-32
6.78138e-32
2.30856e-32
1.37794e-32
-1.8604e-32
-2.47228e-32
-4.71571e-33
)
;

boundaryField
{
    left
    {
        type            calculated;
        value           uniform 0;
    }
    right
    {
        type            calculated;
        value           uniform 0;
    }
    empty
    {
        type            empty;
        value           nonuniform List<scalar> 0();
    }
}


// ************************************************************************* //
