/*--------------------------------*- C++ -*----------------------------------*\
| =========                 |                                                 |
| \\      /  F ield         | OpenFOAM: The Open Source CFD Toolbox           |
|  \\    /   O peration     | Version:  2106                                  |
|   \\  /    A nd           | Website:  www.openfoam.com                      |
|    \\/     M anipulation  |                                                 |
\*---------------------------------------------------------------------------*/
FoamFile
{
    version     2.0;
    format      ascii;
    arch        "LSB;label=32;scalar=64";
    class       surfaceScalarField;
    location    "0.025";
    object      phi;
}
// * * * * * * * * * * * * * * * * * * * * * * * * * * * * * * * * * * * * * //

dimensions      [0 3 -1 0 0 0 0];

oriented        oriented;

internalField   nonuniform List<scalar> 
799
(
1.98551e-32
4.97007e-32
6.49008e-32
5.60574e-32
3.28061e-32
-3.20321e-32
-8.9625e-32
-1.33726e-31
-1.42021e-31
-1.02526e-31
-4.50154e-32
1.8948e-32
5.90795e-32
7.04468e-32
5.04513e-32
1.27764e-32
-3.65987e-32
-8.74748e-32
-1.26011e-31
-1.52236e-31
-1.42359e-31
-1.04551e-31
-4.17054e-32
3.06975e-32
7.28799e-32
8.35269e-32
4.33658e-32
-2.5806e-32
-9.07011e-32
-1.41943e-31
-1.43497e-31
-1.14952e-31
-6.74264e-32
-1.12362e-32
1.47432e-32
2.68618e-32
1.06538e-32
-2.63047e-32
-5.52922e-32
-9.11446e-32
-9.93133e-32
-8.60727e-32
-6.18938e-32
-1.45099e-32
1.13671e-32
2.22693e-32
6.9326e-33
-4.14893e-32
-8.09402e-32
-1.16763e-31
-1.18254e-31
-8.40033e-32
-4.04429e-32
1.42148e-32
3.89599e-32
3.31094e-32
2.91899e-34
-5.85377e-32
-1.03702e-31
-1.28633e-31
-1.15268e-31
-6.19427e-32
3.1381e-34
5.53806e-32
6.83103e-32
2.76672e-32
-4.60463e-32
-1.29496e-31
-1.7487e-31
-1.57309e-31
-8.58987e-32
1.58709e-32
9.23269e-32
1.08871e-31
6.18028e-32
-3.1965e-32
-1.18466e-31
-1.6309e-31
-1.51574e-31
-9.23122e-32
-2.60595e-32
2.29551e-32
3.83258e-32
2.33233e-32
-7.936e-34
-2.67358e-32
-4.63171e-32
-6.44637e-32
-8.47785e-32
-9.70578e-32
-9.51094e-32
-6.40101e-32
-1.14839e-32
4.1886e-32
7.45064e-32
5.55661e-32
-3.07791e-33
-8.49134e-32
-1.54333e-31
-1.67759e-31
-1.32546e-31
-4.68362e-32
4.39262e-32
9.70962e-32
1.06064e-31
4.8057e-32
-3.12697e-32
-1.0512e-31
-1.4911e-31
-1.3217e-31
-8.83957e-32
-2.57005e-32
2.08738e-32
2.93915e-32
1.78865e-32
-1.27999e-32
-2.97105e-32
-2.72801e-32
-1.46093e-32
-7.84454e-34
-1.07711e-32
-4.1329e-32
-8.29237e-32
-1.13801e-31
-1.12437e-31
-7.78196e-32
-1.8504e-32
4.09049e-32
7.86687e-32
8.39828e-32
5.39908e-32
1.57084e-33
-5.94353e-32
-1.14805e-31
-1.46717e-31
-1.49501e-31
-1.15833e-31
-5.17383e-32
2.19596e-32
8.66955e-32
1.11941e-31
8.93353e-32
2.60872e-32
-5.81499e-32
-1.23034e-31
-1.49576e-31
-1.26136e-31
-6.5942e-32
-3.26541e-33
3.99886e-32
4.07093e-32
6.0742e-33
-4.09949e-32
-7.81566e-32
-7.87532e-32
-4.59304e-32
4.79414e-33
4.6439e-32
4.91714e-32
9.05338e-33
-6.21389e-32
-1.29061e-31
-1.56086e-31
-1.25268e-31
-4.51683e-32
4.40953e-32
1.02085e-31
9.40689e-32
2.74565e-32
-6.26183e-32
-1.33504e-31
-1.40524e-31
-9.42592e-32
-1.69249e-32
4.56235e-32
5.18978e-32
1.57862e-32
-5.32369e-32
-1.02996e-31
-1.05324e-31
-6.92507e-32
1.53792e-33
5.08084e-32
6.40471e-32
3.4763e-32
-3.28266e-32
-8.90216e-32
-1.25716e-31
-1.18282e-31
-7.14821e-32
-1.64125e-32
3.92243e-32
6.19277e-32
5.30394e-32
2.11168e-32
-2.78289e-32
-6.58605e-32
-9.05488e-32
-9.48261e-32
-7.77487e-32
-5.18677e-32
-1.70528e-32
1.59503e-32
3.76542e-32
4.40301e-32
2.46093e-32
-1.53356e-32
-6.19623e-32
-9.88228e-32
-1.02201e-31
-6.84427e-32
-1.05946e-32
4.63592e-32
6.71397e-32
3.83963e-32
-2.96759e-32
-1.05216e-31
-1.42723e-31
-1.16979e-31
-3.46366e-32
6.80493e-32
1.34576e-31
1.24499e-31
3.78073e-32
-9.14418e-32
-1.96324e-31
-2.21425e-31
-1.54576e-31
-1.8522e-32
1.15282e-31
1.83525e-31
1.58269e-31
4.45712e-32
-9.21888e-32
-1.92432e-31
-2.14215e-31
-1.45032e-31
-3.30952e-32
7.57267e-32
1.32883e-31
1.14116e-31
4.40195e-32
-4.83725e-32
-1.1796e-31
-1.36055e-31
-1.05438e-31
-4.31529e-32
1.64742e-32
4.44107e-32
3.12256e-32
-8.85025e-33
-5.16781e-32
-6.67565e-32
-4.33786e-32
-3.77663e-34
4.02267e-32
4.23253e-32
-1.58212e-33
-6.69261e-32
-1.25981e-31
-1.35203e-31
-8.6876e-32
-6.86413e-33
7.22251e-32
1.03534e-31
7.4693e-32
8.13771e-33
-6.85661e-32
-1.13389e-31
-1.11997e-31
-8.21003e-32
-3.6312e-32
-5.39143e-33
3.77663e-33
5.16324e-33
-3.99931e-33
-5.55435e-33
-6.51506e-33
-1.66292e-32
-2.57484e-32
-4.17487e-32
-4.82581e-32
-4.35952e-32
-3.91777e-32
-3.60119e-32
-4.74601e-32
-6.26459e-32
-6.52322e-32
-4.34771e-32
4.27786e-33
5.42853e-32
7.53189e-32
4.29196e-32
-3.53818e-32
-1.27807e-31
-1.82752e-31
-1.65335e-31
-8.20747e-32
3.34319e-32
1.14925e-31
1.2406e-31
5.82609e-32
-5.03059e-32
-1.34249e-31
-1.59191e-31
-1.13415e-31
-2.76521e-32
4.23705e-32
7.04847e-32
4.2796e-32
-9.84143e-33
-4.82551e-32
-5.4561e-32
-1.99087e-32
2.37397e-32
5.11185e-32
5.00156e-32
1.99156e-32
-5.33693e-33
-8.12502e-33
2.2791e-32
8.12982e-32
1.32477e-31
1.62388e-31
1.56569e-31
1.26727e-31
1.08037e-31
1.15076e-31
1.70269e-31
2.57686e-31
3.454e-31
4.1374e-31
4.30521e-31
4.1373e-31
3.8836e-31
3.85094e-31
4.464e-31
5.60358e-31
7.14156e-31
8.64421e-31
9.58713e-31
9.82528e-31
9.389e-31
8.31374e-31
8.78871e-31
1.03103e-30
2.00573e-30
4.04e-30
7.26333e-30
1.37448e-29
1.60302e-29
1.84176e-29
9.44505e-31
-4.22087e-29
-9.39839e-29
-1.99975e-28
-1.91011e-28
-1.30611e-28
1.57021e-28
8.00869e-28
1.16586e-27
1.80797e-27
1.046e-27
-7.72229e-28
-3.04787e-27
-7.55461e-27
-7.22534e-27
-5.94334e-27
1.73569e-27
1.68634e-26
2.26547e-26
3.30352e-26
1.66344e-26
-1.36253e-26
-4.10219e-26
-9.05105e-26
-7.13376e-26
-4.22103e-26
3.15545e-26
1.54609e-25
1.62719e-25
1.91981e-25
5.42946e-26
-1.45617e-25
-2.41579e-25
-4.15728e-25
-2.36541e-25
-3.16609e-26
2.19136e-25
5.89177e-25
4.55138e-25
3.83016e-25
-3.71023e-26
-5.4402e-25
-5.80068e-25
-7.5427e-25
-2.54596e-25
2.2361e-25
5.0683e-25
9.15274e-25
5.0684e-25
2.23625e-25
-2.54583e-25
-7.54265e-25
-5.80073e-25
-5.44032e-25
-3.71162e-26
3.83007e-25
4.55137e-25
5.89182e-25
2.19144e-25
-3.1655e-26
-2.36539e-25
-4.1573e-25
-2.41584e-25
-1.45622e-25
5.42912e-26
1.9198e-25
1.62719e-25
1.54609e-25
3.15551e-26
-4.22102e-26
-7.13379e-26
-9.05108e-26
-4.10225e-26
-1.36258e-26
1.66338e-26
3.30346e-26
2.26542e-26
1.68628e-26
1.73532e-27
-5.94363e-27
-7.22554e-27
-7.55475e-27
-3.04804e-27
-7.7241e-28
1.04576e-27
1.8077e-27
1.16558e-27
8.00599e-28
1.56821e-28
-1.30734e-28
-1.91038e-28
-1.9994e-28
-9.39526e-29
-4.22271e-29
8.14651e-31
1.81993e-29
1.57731e-29
1.35223e-29
7.162e-30
4.06818e-30
2.14678e-30
1.21226e-30
1.01189e-30
8.72099e-31
8.61128e-31
8.20753e-31
7.73163e-31
7.09377e-31
6.48685e-31
6.00045e-31
5.77294e-31
5.72604e-31
5.62338e-31
5.25373e-31
4.4724e-31
3.36905e-31
2.29797e-31
1.52846e-31
1.3266e-31
1.62374e-31
2.12525e-31
2.57299e-31
2.60768e-31
2.25094e-31
1.57941e-31
7.97749e-32
2.21813e-32
-8.81865e-33
5.20603e-34
3.88948e-32
8.656e-32
1.26523e-31
1.3183e-31
9.78628e-32
3.46547e-32
-3.51482e-32
-7.71771e-32
-6.88535e-32
-1.63313e-32
6.18829e-32
1.227e-31
1.31227e-31
8.85777e-32
1.57949e-33
-7.84516e-32
-1.15195e-31
-9.80501e-32
-2.22454e-32
6.04163e-32
1.19235e-31
1.26946e-31
7.0606e-32
-1.01668e-32
-8.97081e-32
-1.26329e-31
-9.82676e-32
-2.36009e-32
7.36367e-32
1.44196e-31
1.51306e-31
8.97062e-32
-2.03968e-32
-1.2869e-31
-1.80059e-31
-1.49738e-31
-4.57845e-32
8.4824e-32
1.77002e-31
1.91576e-31
1.19201e-31
-1.54601e-33
-1.1295e-31
-1.6704e-31
-1.42889e-31
-6.32217e-32
3.45253e-32
1.02292e-31
1.20304e-31
8.93496e-32
2.77688e-32
-2.82389e-32
-6.71871e-32
-6.9587e-32
-4.56408e-32
-1.01706e-32
2.84808e-32
4.12044e-32
3.85043e-32
1.38125e-32
-1.6181e-32
-2.56984e-32
-2.44036e-32
5.41292e-33
3.18702e-32
3.88775e-32
2.78681e-32
-1.69061e-32
-5.1957e-32
-6.82144e-32
-5.37613e-32
-1.704e-33
4.39806e-32
7.61361e-32
7.26181e-32
3.45955e-32
-4.33184e-33
-3.95327e-32
-4.99496e-32
-4.36283e-32
-4.06665e-32
-3.66694e-32
-3.83666e-32
-2.49621e-32
1.69073e-32
7.05592e-32
1.2144e-31
1.25108e-31
6.29854e-32
-4.38044e-32
-1.63119e-31
-2.21065e-31
-1.84308e-31
-6.15115e-32
1.0931e-31
2.31695e-31
2.5529e-31
1.6024e-31
-2.26759e-32
-1.92195e-31
-2.85415e-31
-2.47825e-31
-9.41674e-32
8.95407e-32
2.35833e-31
2.61794e-31
1.64122e-31
-6.69562e-34
-1.68835e-31
-2.44671e-31
-2.10838e-31
-8.9713e-32
6.57953e-32
1.66623e-31
1.89358e-31
1.26687e-31
1.58558e-32
-7.84786e-32
-1.36462e-31
-1.3269e-31
-8.8246e-32
-3.2637e-32
2.49083e-32
5.74123e-32
7.49646e-32
7.41513e-32
5.35456e-32
2.58834e-32
-1.53014e-32
-5.10855e-32
-7.69116e-32
-8.59988e-32
-7.22401e-32
-4.59259e-32
-6.53537e-33
3.09021e-32
6.33469e-32
7.87179e-32
7.08095e-32
4.32206e-32
-7.12345e-33
-5.31135e-32
-9.01121e-32
-9.98113e-32
-7.59569e-32
-4.03543e-32
1.09515e-32
4.63425e-32
6.38852e-32
6.60684e-32
4.03264e-32
1.27157e-32
-2.49769e-32
-5.84536e-32
-7.30243e-32
-7.633e-32
-5.05965e-32
-1.3695e-32
2.53711e-32
5.6821e-32
5.99243e-32
4.39976e-32
8.64863e-33
-3.02371e-32
-5.69466e-32
-6.8208e-32
-5.64594e-32
-3.05666e-32
1.76042e-33
2.94156e-32
4.26097e-32
3.66929e-32
1.63343e-32
-8.59145e-33
-2.77424e-32
-2.80554e-32
-1.95856e-32
-5.90117e-33
-1.59491e-33
-1.46852e-32
-2.58391e-32
-3.28055e-32
-1.27503e-32
2.65498e-32
5.98152e-32
7.38654e-32
3.91852e-32
-2.22895e-32
-8.46175e-32
-1.14819e-31
-8.273e-32
-1.19513e-32
7.2755e-32
1.21093e-31
1.06804e-31
4.24863e-32
-4.70785e-32
-1.05783e-31
-1.11251e-31
-6.09752e-32
1.9163e-32
7.87246e-32
9.64951e-32
5.89975e-32
-7.19365e-33
-6.21549e-32
-8.28427e-32
-5.08671e-32
8.28979e-33
6.36339e-32
8.8166e-32
6.08158e-32
2.6617e-33
-6.16655e-32
-1.01226e-31
-9.03096e-32
-4.10128e-32
3.02461e-32
9.26854e-32
1.14975e-31
9.70924e-32
4.09034e-32
-3.09082e-32
-8.721e-32
-1.18434e-31
-1.07515e-31
-6.17313e-32
7.27114e-34
6.97977e-32
1.14855e-31
1.26839e-31
9.93659e-32
3.21209e-32
-4.62268e-32
-1.16837e-31
-1.48066e-31
-1.2284e-31
-5.16932e-32
4.67429e-32
1.27387e-31
1.57201e-31
1.22757e-31
3.39283e-32
-6.62038e-32
-1.34978e-31
-1.4116e-31
-8.12143e-32
1.27085e-32
9.69119e-32
1.325e-31
1.01719e-31
2.55878e-32
-5.93457e-32
-1.12318e-31
-1.03768e-31
-4.6852e-32
3.52611e-32
1.00247e-31
1.12074e-31
7.75819e-32
3.30643e-33
-6.54492e-32
-9.42321e-32
-8.18415e-32
-1.97889e-32
4.49718e-32
8.76418e-32
9.59896e-32
5.3387e-32
2.05232e-33
-4.6415e-32
-6.89453e-32
-4.94904e-32
-1.64893e-32
2.85113e-32
5.91938e-32
6.47285e-32
5.65757e-32
3.21724e-32
1.01886e-32
-2.84376e-33
-1.00058e-32
-7.86923e-33
-5.30103e-33
-6.95667e-33
-5.60151e-33
-5.27675e-33
4.77147e-33
2.78748e-32
5.21062e-32
8.16113e-32
9.05528e-32
7.69922e-32
4.2311e-32
-1.52818e-32
-5.84279e-32
-8.37023e-32
-6.8278e-32
-1.41834e-32
5.05985e-32
1.14564e-31
1.3881e-31
1.24337e-31
7.32688e-32
1.03917e-32
-3.78324e-32
-5.75409e-32
-3.54228e-32
-3.86014e-33
4.58025e-32
6.71036e-32
6.86639e-32
6.25807e-32
1.87113e-32
1.02706e-32
-2.12439e-32
-2.64885e-32
-5.60043e-33
)
;

boundaryField
{
    left
    {
        type            calculated;
        value           uniform 0;
    }
    right
    {
        type            calculated;
        value           uniform 0;
    }
    empty
    {
        type            empty;
        value           nonuniform List<scalar> 0();
    }
}


// ************************************************************************* //
