/*--------------------------------*- C++ -*----------------------------------*\
| =========                 |                                                 |
| \\      /  F ield         | OpenFOAM: The Open Source CFD Toolbox           |
|  \\    /   O peration     | Version:  2106                                  |
|   \\  /    A nd           | Website:  www.openfoam.com                      |
|    \\/     M anipulation  |                                                 |
\*---------------------------------------------------------------------------*/
FoamFile
{
    version     2.0;
    format      ascii;
    arch        "LSB;label=32;scalar=64";
    class       surfaceScalarField;
    location    "0.116";
    object      phi;
}
// * * * * * * * * * * * * * * * * * * * * * * * * * * * * * * * * * * * * * //

dimensions      [0 3 -1 0 0 0 0];

oriented        oriented;

internalField   nonuniform List<scalar> 
799
(
1.66608e-32
4.33139e-32
5.53284e-32
4.33078e-32
1.68882e-32
-5.11064e-32
-1.11839e-31
-1.59064e-31
-1.7046e-31
-1.34037e-31
-7.9574e-32
-1.86279e-32
1.85179e-32
2.69351e-32
4.0247e-33
-3.65266e-32
-8.87387e-32
-1.42413e-31
-1.83701e-31
-2.12636e-31
-2.05421e-31
-1.70226e-31
-1.09944e-31
-4.00518e-32
-3.2801e-34
7.91343e-33
-3.4602e-32
-1.06071e-31
-1.73206e-31
-2.26632e-31
-2.30316e-31
-2.03842e-31
-1.58325e-31
-1.04092e-31
-8.00125e-32
-6.97368e-32
-8.77297e-32
-1.26415e-31
-1.57072e-31
-1.94536e-31
-2.04263e-31
-1.9253e-31
-1.69799e-31
-1.23804e-31
-9.92619e-32
-8.96392e-32
-1.06206e-31
-1.55805e-31
-1.9638e-31
-2.33275e-31
-2.35798e-31
-2.02526e-31
-1.59897e-31
-1.06122e-31
-8.22154e-32
-8.88581e-32
-1.22424e-31
-1.81961e-31
-2.27789e-31
-2.53344e-31
-2.40562e-31
-1.87781e-31
-1.26029e-31
-7.14328e-32
-5.89395e-32
-9.99836e-32
-1.74063e-31
-2.57846e-31
-3.03519e-31
-2.86229e-31
-2.15058e-31
-1.13497e-31
-3.72242e-32
-2.08392e-32
-6.80365e-32
-1.61909e-31
-2.4849e-31
-2.93169e-31
-2.81686e-31
-2.22437e-31
-1.56175e-31
-1.07133e-31
-9.17143e-32
-1.06651e-31
-1.30684e-31
-1.5653e-31
-1.75992e-31
-1.94008e-31
-2.14175e-31
-2.26294e-31
-2.24173e-31
-1.92886e-31
-1.4016e-31
-8.65796e-32
-5.3738e-32
-7.24466e-32
-1.30853e-31
-2.12439e-31
-2.81606e-31
-2.94764e-31
-2.59279e-31
-1.73298e-31
-8.22511e-32
-2.87927e-32
-1.95309e-32
-7.72463e-32
-1.56277e-31
-2.29826e-31
-2.73514e-31
-2.56271e-31
-2.12187e-31
-1.49179e-31
-1.02286e-31
-9.34588e-32
-1.04655e-31
-1.3503e-31
-1.51632e-31
-1.48893e-31
-1.35913e-31
-1.2178e-31
-1.31459e-31
-1.61712e-31
-2.03003e-31
-2.33578e-31
-2.31914e-31
-1.97002e-31
-1.37388e-31
-7.76872e-32
-3.9629e-32
-3.40244e-32
-6.37286e-32
-1.15864e-31
-1.76587e-31
-2.31677e-31
-2.63311e-31
-2.65817e-31
-2.3187e-31
-1.675e-31
-9.35286e-32
-2.85211e-32
-3.0045e-33
-2.53399e-32
-8.83187e-32
-1.72287e-31
-2.36903e-31
-2.63175e-31
-2.39459e-31
-1.78991e-31
-1.16039e-31
-7.25098e-32
-7.15098e-32
-1.05863e-31
-1.52647e-31
-1.89524e-31
-1.89825e-31
-1.56701e-31
-1.05673e-31
-6.37197e-32
-6.06713e-32
-1.00467e-31
-1.71327e-31
-2.37908e-31
-2.64581e-31
-2.33402e-31
-1.5293e-31
-6.32897e-32
-4.91263e-33
-1.25253e-32
-7.87224e-32
-1.68361e-31
-2.388e-31
-2.45354e-31
-1.98611e-31
-1.20773e-31
-5.77027e-32
-5.08837e-32
-8.6428e-32
-1.54866e-31
-2.04014e-31
-2.05704e-31
-1.68969e-31
-9.74874e-32
-4.74907e-32
-3.3494e-32
-6.19849e-32
-1.28741e-31
-1.84062e-31
-2.19838e-31
-2.11442e-31
-1.63632e-31
-1.07512e-31
-5.0772e-32
-2.69089e-32
-3.45772e-32
-6.52191e-32
-1.12817e-31
-1.49431e-31
-1.72628e-31
-1.75335e-31
-1.56607e-31
-1.28991e-31
-9.23468e-32
-5.7418e-32
-3.36857e-32
-2.51702e-32
-4.23404e-32
-7.99138e-32
-1.24042e-31
-1.58267e-31
-1.58865e-31
-1.22182e-31
-6.12549e-32
-1.05475e-33
2.31503e-32
-1.97845e-33
-6.62384e-32
-1.37764e-31
-1.71041e-31
-1.40835e-31
-5.37906e-32
5.38501e-32
1.25596e-31
1.21024e-31
4.01293e-32
-8.3014e-32
-1.81468e-31
-1.99791e-31
-1.25808e-31
1.77584e-32
1.59472e-31
2.36038e-31
2.19539e-31
1.15057e-31
-1.20075e-32
-1.02053e-31
-1.13111e-31
-3.26505e-32
9.11356e-32
2.12414e-31
2.82658e-31
2.77642e-31
2.21986e-31
1.4476e-31
9.109e-32
8.97017e-32
1.3785e-31
2.18527e-31
2.97446e-31
3.45614e-31
3.5364e-31
3.3579e-31
3.16256e-31
3.25577e-31
3.74512e-31
4.4427e-31
5.12882e-31
5.44289e-31
5.31058e-31
4.97799e-31
4.72294e-31
4.98155e-31
5.83152e-31
7.01488e-31
8.20614e-31
8.9374e-31
9.08563e-31
8.87587e-31
8.58459e-31
8.6328e-31
9.16445e-31
1.00035e-30
1.10244e-30
1.19204e-30
1.26237e-30
1.32747e-30
1.38466e-30
1.45221e-30
1.52318e-30
1.58792e-30
1.65669e-30
1.72171e-30
1.79946e-30
1.89171e-30
1.98718e-30
2.08494e-30
2.17177e-30
2.25866e-30
2.36204e-30
2.49379e-30
2.6557e-30
2.82413e-30
2.96799e-30
3.06294e-30
3.11665e-30
3.16103e-30
3.24781e-30
3.41202e-30
3.64726e-30
3.92008e-30
4.16436e-30
4.3419e-30
4.45026e-30
4.52174e-30
4.62388e-30
4.79121e-30
5.03556e-30
5.32636e-30
5.60801e-30
5.85449e-30
6.05202e-30
6.23161e-30
6.43254e-30
6.67284e-30
6.96147e-30
7.26659e-30
7.56304e-30
7.83873e-30
8.09323e-30
8.36048e-30
8.65818e-30
8.99766e-30
9.37286e-30
9.74893e-30
1.0112e-29
1.04476e-29
1.07674e-29
1.11067e-29
1.14801e-29
1.19099e-29
1.23801e-29
1.28589e-29
1.33264e-29
1.37505e-29
1.41488e-29
1.45465e-29
1.49739e-29
1.54734e-29
1.60329e-29
1.66394e-29
1.72492e-29
1.78097e-29
1.83061e-29
1.87411e-29
1.9118e-29
1.96554e-29
2.03025e-29
2.17768e-29
2.4315e-29
2.80461e-29
3.50386e-29
3.78381e-29
4.07421e-29
2.37875e-29
-1.88458e-29
-7.01003e-29
-1.75571e-28
-1.66086e-28
-1.05165e-28
1.82985e-28
8.27349e-28
1.19285e-27
1.83547e-27
1.07401e-27
-7.43715e-28
-3.01886e-27
-7.52511e-27
-7.19536e-27
-5.91288e-27
1.76663e-27
1.68948e-26
2.26865e-26
3.30675e-26
1.66671e-26
-1.35922e-26
-4.09883e-26
-9.04765e-26
-7.13032e-26
-4.21755e-26
3.15895e-26
1.54644e-25
1.62755e-25
1.92017e-25
5.43309e-26
-1.4558e-25
-2.41543e-25
-4.15691e-25
-2.36504e-25
-3.16233e-26
2.19174e-25
5.89215e-25
4.55176e-25
3.83055e-25
-3.70638e-26
-5.43982e-25
-5.80029e-25
-7.54232e-25
-2.54558e-25
2.23648e-25
5.06868e-25
9.15313e-25
5.06879e-25
2.23664e-25
-2.54544e-25
-7.54227e-25
-5.80035e-25
-5.43994e-25
-3.70779e-26
3.83045e-25
4.55175e-25
5.8922e-25
2.19182e-25
-3.16176e-26
-2.36502e-25
-4.15693e-25
-2.41548e-25
-1.45585e-25
5.43272e-26
1.92016e-25
1.62755e-25
1.54644e-25
3.15898e-26
-4.21759e-26
-7.1304e-26
-9.04772e-26
-4.09893e-26
-1.3593e-26
1.66661e-26
3.30664e-26
2.26856e-26
1.68938e-26
1.76583e-27
-5.91358e-27
-7.19598e-27
-7.52568e-27
-3.01945e-27
-7.44323e-28
1.07335e-27
1.83478e-27
1.19215e-27
8.2666e-28
1.82369e-28
-1.05701e-28
-1.6652e-28
-1.75938e-28
-7.0467e-29
-1.92566e-29
2.32713e-29
4.01438e-29
3.72078e-29
3.44499e-29
2.75857e-29
2.39917e-29
2.15742e-29
2.01481e-29
1.9461e-29
1.88397e-29
1.83528e-29
1.78424e-29
1.7331e-29
1.68098e-29
1.62984e-29
1.5806e-29
1.53466e-29
1.49127e-29
1.44806e-29
1.40295e-29
1.35451e-29
1.30363e-29
1.25387e-29
1.20794e-29
1.16849e-29
1.13485e-29
1.10406e-29
1.07356e-29
1.03975e-29
1.00284e-29
9.63603e-30
9.24069e-30
8.87397e-30
8.54183e-30
8.25795e-30
8.01093e-30
7.78095e-30
7.55092e-30
7.29378e-30
7.00481e-30
6.69393e-30
6.38367e-30
6.10827e-30
5.89019e-30
5.72314e-30
5.58848e-30
5.443e-30
5.25166e-30
5.01544e-30
4.74102e-30
4.4796e-30
4.26735e-30
4.11473e-30
4.02638e-30
3.95035e-30
3.85581e-30
3.71535e-30
3.5159e-30
3.29694e-30
3.084e-30
2.91864e-30
2.8225e-30
2.77736e-30
2.75908e-30
2.71827e-30
2.61805e-30
2.45303e-30
2.24331e-30
2.03908e-30
1.89535e-30
1.83676e-30
1.85515e-30
1.90345e-30
1.91646e-30
1.85491e-30
1.70935e-30
1.51827e-30
1.33928e-30
1.22027e-30
1.18207e-30
1.20187e-30
1.24215e-30
1.25476e-30
1.21986e-30
1.13814e-30
1.02788e-30
9.25191e-31
8.415e-31
7.9622e-31
7.7908e-31
7.75201e-31
7.76173e-31
7.52822e-31
7.15588e-31
6.5785e-31
5.96236e-31
5.56473e-31
5.28848e-31
5.31011e-31
5.3104e-31
5.12793e-31
4.77658e-31
4.09845e-31
3.52792e-31
3.15527e-31
3.09927e-31
3.42846e-31
3.70273e-31
3.85014e-31
3.64892e-31
3.1104e-31
2.57021e-31
2.07441e-31
1.83324e-31
1.76593e-31
1.67129e-31
1.59298e-31
1.46342e-31
1.49032e-31
1.80708e-31
2.24663e-31
2.66322e-31
2.61222e-31
1.90765e-31
7.60532e-32
-5.07881e-32
-1.15885e-31
-8.59175e-32
3.04342e-32
1.95131e-31
3.1171e-31
3.29793e-31
2.29512e-31
4.16394e-32
-1.32576e-31
-2.30252e-31
-1.96887e-31
-4.72349e-32
1.32674e-31
2.75368e-31
2.9792e-31
1.97028e-31
2.91906e-32
-1.41855e-31
-2.20417e-31
-1.89162e-31
-7.04766e-32
8.2724e-32
1.81371e-31
2.02042e-31
1.37427e-31
2.47602e-32
-7.13091e-32
-1.30924e-31
-1.2869e-31
-8.56979e-32
-3.14574e-32
2.48071e-32
5.61063e-32
7.25233e-32
7.06425e-32
4.90317e-32
2.04261e-32
-2.16434e-32
-5.82571e-32
-8.4856e-32
-9.46651e-32
-8.15771e-32
-5.58881e-32
-1.70746e-32
1.9822e-32
5.17722e-32
6.66823e-32
5.83512e-32
3.03755e-32
-2.03227e-32
-6.66357e-32
-1.03929e-31
-1.13898e-31
-9.02825e-32
-5.48883e-32
-3.76534e-33
3.14683e-32
4.88735e-32
5.09408e-32
2.51033e-32
-2.58345e-33
-4.03287e-32
-7.38375e-32
-8.84243e-32
-9.17254e-32
-6.59642e-32
-2.90206e-32
1.01051e-32
4.16272e-32
4.48177e-32
2.89922e-32
-6.24874e-33
-4.50126e-32
-7.15861e-32
-8.26976e-32
-7.07902e-32
-4.47252e-32
-1.22122e-32
1.56331e-32
2.90304e-32
2.33331e-32
3.19584e-33
-2.14922e-32
-4.03964e-32
-4.04596e-32
-3.1731e-32
-1.77769e-32
-1.31866e-32
-2.5988e-32
-3.68485e-32
-4.35155e-32
-2.31623e-32
1.64507e-32
5.00275e-32
6.43938e-32
3.0034e-32
-3.11151e-32
-9.31142e-32
-1.22981e-31
-9.05563e-32
-1.94399e-32
6.5608e-32
1.1429e-31
1.00348e-31
3.6379e-32
-5.28322e-32
-1.1118e-31
-1.1629e-31
-6.56516e-32
1.4853e-32
7.47825e-32
9.29276e-32
5.58017e-32
-1.00148e-32
-6.46029e-32
-8.49185e-32
-5.25689e-32
6.9633e-33
6.26905e-32
8.76039e-32
6.06375e-32
2.87234e-33
-6.10636e-32
-1.00235e-31
-8.89283e-32
-3.92433e-32
3.24083e-32
9.52433e-32
1.17927e-31
1.00443e-31
4.46522e-32
-2.67599e-32
-8.2663e-32
-1.13483e-31
-1.02162e-31
-5.59776e-32
6.88525e-33
7.63676e-32
1.21841e-31
1.34244e-31
1.07187e-31
4.0355e-32
-3.75752e-32
-1.07764e-31
-1.38577e-31
-1.12927e-31
-4.13533e-32
5.75086e-32
1.38583e-31
1.68826e-31
1.34811e-31
4.64116e-32
-5.32881e-32
-1.21632e-31
-1.27387e-31
-6.70123e-32
2.73363e-32
1.11964e-31
1.47972e-31
1.17608e-31
4.1892e-32
-4.26323e-32
-9.51996e-32
-8.62478e-32
-2.89401e-32
5.35597e-32
1.18926e-31
1.31123e-31
9.69931e-32
2.30735e-32
-4.53377e-32
-7.37887e-32
-6.10776e-32
1.28195e-33
6.63352e-32
1.09275e-31
1.17874e-31
7.551e-32
2.43976e-32
-2.38695e-32
-4.62125e-32
-2.65899e-32
6.55719e-33
5.16826e-32
8.24569e-32
8.80616e-32
7.99502e-32
5.55638e-32
3.35681e-32
2.04961e-32
1.32633e-32
1.52974e-32
1.77319e-32
1.5913e-32
1.70721e-32
1.71656e-32
2.69558e-32
4.97665e-32
7.36668e-32
1.02813e-31
1.11365e-31
9.73795e-32
6.22406e-32
4.15805e-33
-3.95102e-32
-6.53409e-32
-5.04993e-32
2.98218e-33
6.71183e-32
1.30408e-31
1.53953e-31
1.38751e-31
8.69226e-32
2.32586e-32
-2.57761e-32
-4.63179e-32
-2.50566e-32
5.62883e-33
5.4397e-32
7.47833e-32
7.54122e-32
6.83856e-32
2.35647e-32
1.41631e-32
-1.83174e-32
-2.45313e-32
-4.61941e-33
)
;

boundaryField
{
    left
    {
        type            calculated;
        value           uniform 0;
    }
    right
    {
        type            calculated;
        value           uniform 0;
    }
    empty
    {
        type            empty;
        value           nonuniform List<scalar> 0();
    }
}


// ************************************************************************* //
