/*--------------------------------*- C++ -*----------------------------------*\
| =========                 |                                                 |
| \\      /  F ield         | OpenFOAM: The Open Source CFD Toolbox           |
|  \\    /   O peration     | Version:  2106                                  |
|   \\  /    A nd           | Website:  www.openfoam.com                      |
|    \\/     M anipulation  |                                                 |
\*---------------------------------------------------------------------------*/
FoamFile
{
    version     2.0;
    format      ascii;
    arch        "LSB;label=32;scalar=64";
    class       volVectorField;
    location    "0.28";
    object      U;
}
// * * * * * * * * * * * * * * * * * * * * * * * * * * * * * * * * * * * * * //

dimensions      [0 1 -1 0 0 0 0];

internalField   nonuniform List<vector> 
11200
(
(0.662462405846 0.150569441977 0)
(0.558948682225 0.103243387952 0)
(0.383850755182 0.0513512239011 0)
(0.283747621804 0.0248708549454 0)
(0.232075305716 0.012417044826 0)
(0.201908631607 0.00662281631787 0)
(0.183197987065 0.00380291381178 0)
(0.171276551692 0.00231586940244 0)
(0.163510378043 0.0014645058442 0)
(0.158388849535 0.000944891653693 0)
(0.155006718528 0.00061517606969 0)
(0.152786770657 0.000402232934077 0)
(0.151346627174 0.00026423129789 0)
(0.150428396401 0.000175249160129 0)
(0.149856798061 0.00011835960358 0)
(0.149512602344 8.21588019141e-05 0)
(0.14931504702 5.88645827006e-05 0)
(0.149209689724 4.33142498314e-05 0)
(0.149159833984 3.29329731688e-05 0)
(0.149142596717 2.81849993022e-05 0)
(0.14914475383 2.76831120864e-05 0)
(0.149157029246 2.98889876784e-05 0)
(0.149172649437 3.30495012234e-05 0)
(0.149188194563 3.59651680298e-05 0)
(0.149202400159 3.86007224482e-05 0)
(0.149214666325 4.10398557278e-05 0)
(0.149224825443 4.33172321023e-05 0)
(0.14923298445 4.54639534735e-05 0)
(0.149239380003 4.75192462035e-05 0)
(0.149244294032 4.9530165971e-05 0)
(0.149248011558 5.15587524453e-05 0)
(0.149250799963 5.36960030138e-05 0)
(0.149252856263 5.60246100601e-05 0)
(0.149254350636 5.84060850999e-05 0)
(0.14925541573 6.0767269223e-05 0)
(0.149256138081 6.30885074231e-05 0)
(0.149256614482 6.53800487873e-05 0)
(0.14925692849 6.76548007637e-05 0)
(0.149257133767 6.99244040607e-05 0)
(0.149257259531 7.21949700217e-05 0)
(0.149257326754 7.44675887254e-05 0)
(0.149257352754 7.67432270547e-05 0)
(0.149257349755 7.90216174835e-05 0)
(0.149257326622 8.1301595216e-05 0)
(0.14925728972 8.35813626724e-05 0)
(0.149257243786 8.58586041068e-05 0)
(0.149257192932 8.81305961367e-05 0)
(0.149257141139 9.039432221e-05 0)
(0.149257092659 9.26466755397e-05 0)
(0.149257052506 9.4884593113e-05 0)
(0.149257027496 9.71048950992e-05 0)
(0.149257027224 9.93046721439e-05 0)
(0.149257064813 0.000101481027438 0)
(0.149257158411 0.000103630694189 0)
(0.149257333539 0.000105749376743 0)
(0.149257626398 0.000107831307339 0)
(0.149258087893 0.00010986942151 0)
(0.149258792986 0.000111853779224 0)
(0.14925985123 0.000113771741134 0)
(0.149261420471 0.000115598794189 0)
(0.149263745891 0.000117279796214 0)
(0.149267235588 0.000118730225828 0)
(0.14927236043 0.000119989128994 0)
(0.149279766435 0.00012124768844 0)
(0.149290485422 0.000122966693317 0)
(0.14930603771 0.000125336606206 0)
(0.149328807918 0.000128117155419 0)
(0.149362491145 0.000131080795305 0)
(0.149412680619 0.000134011390882 0)
(0.149487607998 0.000136794350987 0)
(0.149599213536 0.00014070380053 0)
(0.149770328127 0.000151560260195 0)
(0.150038728122 0.000172295670577 0)
(0.150467590932 0.000202563855927 0)
(0.151192741286 0.000232507993333 0)
(0.152491893569 0.000191700265002 0)
(0.155021347138 -0.000216876312452 0)
(0.162375849111 -0.00211089073018 0)
(0.187709386245 -0.0107924178172 0)
(0.204386568088 -0.0496799436656 0)
(0.965408256761 0.289214705829 0)
(0.961962868083 0.252656039366 0)
(0.823574407236 0.15902144114 0)
(0.698139389836 0.0959957307924 0)
(0.610225490129 0.0582481136579 0)
(0.548971522926 0.0362148525841 0)
(0.5065889244 0.0231612844099 0)
(0.477567308109 0.0151375145283 0)
(0.457745533991 0.0100177543125 0)
(0.444228505697 0.00665814029403 0)
(0.435053346088 0.00441555530767 0)
(0.428873168006 0.00290686476964 0)
(0.424754253812 0.00189105720921 0)
(0.422046705796 0.00121004395873 0)
(0.420297870533 0.000757161825207 0)
(0.419193263268 0.00045925402498 0)
(0.418515659967 0.000265852703163 0)
(0.418116514858 0.00014239736299 0)
(0.417895913346 6.61072043365e-05 0)
(0.417786864324 2.30902096795e-05 0)
(0.417745451508 1.40558303142e-06 0)
(0.417742176118 -1.01650183307e-05 0)
(0.417756775987 -1.37163431993e-05 0)
(0.41777873689 -1.3269712356e-05 0)
(0.417803033523 -1.08374445232e-05 0)
(0.417826406582 -7.49435953291e-06 0)
(0.417847162705 -3.87797239388e-06 0)
(0.417864703176 -3.5840951291e-07 0)
(0.417879031836 2.86282581261e-06 0)
(0.417890464022 5.68190503574e-06 0)
(0.417899471531 8.0345627358e-06 0)
(0.417906547783 9.83637311274e-06 0)
(0.417911894756 1.10052031732e-05 0)
(0.417915746365 1.18577583895e-05 0)
(0.417918480328 1.26797797452e-05 0)
(0.417920371618 1.34368060586e-05 0)
(0.41792166256 1.41109621541e-05 0)
(0.41792254451 1.47264022708e-05 0)
(0.417923143749 1.53121007029e-05 0)
(0.417923531898 1.58815876466e-05 0)
(0.417923761667 1.64352614223e-05 0)
(0.417923876444 1.69782308134e-05 0)
(0.41792390689 1.75141616552e-05 0)
(0.417923875488 1.80463556257e-05 0)
(0.417923798578 1.85779341787e-05 0)
(0.41792368841 1.91112931402e-05 0)
(0.417923555423 1.96484188876e-05 0)
(0.417923409904 2.0191180534e-05 0)
(0.417923263225 2.07417664625e-05 0)
(0.417923128717 2.13021975598e-05 0)
(0.417923024284 2.18725002265e-05 0)
(0.417922974872 2.24527226854e-05 0)
(0.417923014174 2.3042887137e-05 0)
(0.417923188219 2.36426610047e-05 0)
(0.417923561514 2.42511609327e-05 0)
(0.417924226474 2.48673978923e-05 0)
(0.417925313998 2.54897422396e-05 0)
(0.41792701673 2.61059346616e-05 0)
(0.417929612333 2.66981594702e-05 0)
(0.417933489867 2.72358726343e-05 0)
(0.417939247787 2.76716420024e-05 0)
(0.417947982624 2.795243966e-05 0)
(0.417961184989 2.82381742765e-05 0)
(0.41798098984 2.77947925931e-05 0)
(0.418010167863 2.52087370167e-05 0)
(0.418052324875 1.9395527506e-05 0)
(0.418113639174 9.55055135545e-06 0)
(0.418204228106 -5.85659456005e-06 0)
(0.418339693528 -2.93495526319e-05 0)
(0.41854493146 -6.46106724893e-05 0)
(0.418861843579 -0.0001158369961 0)
(0.419360049288 -0.000188005964593 0)
(0.420153051697 -0.000307810773251 0)
(0.421444569791 -0.000532850671276 0)
(0.423626389134 -0.0010000040954 0)
(0.427417498119 -0.00209111328375 0)
(0.434240687374 -0.00485815756716 0)
(0.44827237339 -0.012258915883 0)
(0.474663512762 -0.0342558752734 0)
(0.478210190103 -0.0988143829891 0)
(1.02222096783 0.238416186316 0)
(1.08213753838 0.295926652117 0)
(1.03447724223 0.239503066001 0)
(0.9546154311 0.1742901641 0)
(0.879992083368 0.121345468031 0)
(0.818614468902 0.0830993837245 0)
(0.771410889286 0.0567316667136 0)
(0.736634434688 0.0387409681247 0)
(0.711624481926 0.0264327865654 0)
(0.69391667543 0.017973104226 0)
(0.681541470936 0.0121424474085 0)
(0.673000183553 0.00812490753176 0)
(0.667180723237 0.00536632027154 0)
(0.663271757625 0.00348444391122 0)
(0.66068859035 0.00221256057083 0)
(0.65901426957 0.00136338078942 0)
(0.657954591808 0.000805242697886 0)
(0.657304301635 0.000445915477091 0)
(0.656921885462 0.000221067403684 0)
(0.656710321976 8.55798733257e-05 0)
(0.656603459328 8.35654771091e-06 0)
(0.656561911746 -3.37210630183e-05 0)
(0.656558012298 -5.68554563415e-05 0)
(0.656571488458 -6.68745037465e-05 0)
(0.65659301818 -6.84819107054e-05 0)
(0.656616837957 -6.55605037113e-05 0)
(0.656639640506 -6.05495910988e-05 0)
(0.656659818959 -5.4859862454e-05 0)
(0.656676788085 -4.92758009175e-05 0)
(0.656690525715 -4.42043193914e-05 0)
(0.656701278242 -3.98402798788e-05 0)
(0.656709429897 -3.63021618677e-05 0)
(0.656715676678 -3.36959120816e-05 0)
(0.65672070888 -3.18572296313e-05 0)
(0.656724569902 -3.0810798057e-05 0)
(0.656727274877 -3.0303832503e-05 0)
(0.65672913557 -3.02482163779e-05 0)
(0.656730431491 -3.05589388642e-05 0)
(0.656731330128 -3.10862536386e-05 0)
(0.656731921412 -3.17477689918e-05 0)
(0.656732279663 -3.25140099862e-05 0)
(0.656732470125 -3.33499446782e-05 0)
(0.656732537901 -3.42310914783e-05 0)
(0.656732517032 -3.51381510872e-05 0)
(0.656732432251 -3.60556019347e-05 0)
(0.656732302061 -3.69727044456e-05 0)
(0.656732142442 -3.78820276637e-05 0)
(0.656731969224 -3.87781434619e-05 0)
(0.656731799281 -3.96561743219e-05 0)
(0.656731650491 -4.05106008905e-05 0)
(0.656731547156 -4.13377605546e-05 0)
(0.656731524913 -4.21335933958e-05 0)
(0.656731632555 -4.28963741662e-05 0)
(0.656731937728 -4.36292381745e-05 0)
(0.656732536552 -4.43452727025e-05 0)
(0.656733566228 -4.50751592411e-05 0)
(0.656735213832 -4.5872470959e-05 0)
(0.65673775442 -4.68325552459e-05 0)
(0.656741596475 -4.80813262281e-05 0)
(0.656747338028 -4.98349916362e-05 0)
(0.656755904802 -5.25974141325e-05 0)
(0.656768943569 -5.73939118217e-05 0)
(0.656787787684 -6.5009401849e-05 0)
(0.656813874574 -7.63192793065e-05 0)
(0.656851024047 -9.30097194652e-05 0)
(0.656905944018 -0.000117485983009 0)
(0.656988022969 -0.000152948431669 0)
(0.657111050959 -0.000204683929455 0)
(0.657296843441 -0.000281215234808 0)
(0.657580798734 -0.000396423472637 0)
(0.658021060634 -0.000574669986613 0)
(0.658706858029 -0.000863240535129 0)
(0.65978530438 -0.00135225311373 0)
(0.66151405349 -0.0022149061977 0)
(0.664335496797 -0.003813908198 0)
(0.668945818694 -0.00694842440836 0)
(0.676371692284 -0.0133579650371 0)
(0.688622340672 -0.0268556933663 0)
(0.705258997072 -0.0563473733201 0)
(0.700530040964 -0.113148309414 0)
(1.02251475695 0.170807151866 0)
(1.10138976573 0.276496478201 0)
(1.11752427663 0.266664799041 0)
(1.09214662704 0.219901698863 0)
(1.05187818309 0.168168847501 0)
(1.01020825634 0.123567396501 0)
(0.97349472699 0.0888375213287 0)
(0.943864595927 0.0630063713051 0)
(0.921142842958 0.0442232038132 0)
(0.904284119385 0.0307423924313 0)
(0.892074918707 0.0211562937983 0)
(0.883404563892 0.0143954681865 0)
(0.877352727345 0.00966794783112 0)
(0.87319776792 0.00639383678692 0)
(0.870392994565 0.00415116433776 0)
(0.868534109009 0.00263449032165 0)
(0.867327715093 0.0016240166062 0)
(0.866564314601 0.000962674981402 0)
(0.866096559522 0.000539121166232 0)
(0.865822319377 0.000275152201508 0)
(0.865671477566 0.000117066987235 0)
(0.865595228891 2.87912471534e-05 0)
(0.865564172672 -1.93257516684e-05 0)
(0.865561366237 -4.12620252561e-05 0)
(0.865572711718 -4.76660786097e-05 0)
(0.865589719627 -4.55253968341e-05 0)
(0.865608030948 -3.91558222637e-05 0)
(0.865625371705 -3.11448773414e-05 0)
(0.865640658085 -2.29637034582e-05 0)
(0.865653523005 -1.53798920811e-05 0)
(0.865663997977 -8.72215458693e-06 0)
(0.865672286504 -3.04317022827e-06 0)
(0.865678640899 1.7355218789e-06 0)
(0.865683268919 5.46684480507e-06 0)
(0.865686588506 8.03400161118e-06 0)
(0.865688986812 9.79110404767e-06 0)
(0.865690618484 1.11446502657e-05 0)
(0.865691779814 1.22895640726e-05 0)
(0.86569264672 1.32585140312e-05 0)
(0.865693237704 1.41451889672e-05 0)
(0.865693600848 1.49405935033e-05 0)
(0.865693800564 1.56673011466e-05 0)
(0.865693875719 1.63409000923e-05 0)
(0.865693857856 1.69779526336e-05 0)
(0.865693769241 1.75931398598e-05 0)
(0.865693625931 1.81966553078e-05 0)
(0.865693442877 1.87961272714e-05 0)
(0.865693236654 1.93982665325e-05 0)
(0.865693027624 2.00117045615e-05 0)
(0.865692838475 2.06435553917e-05 0)
(0.865692699445 2.12799818094e-05 0)
(0.865692652139 2.19088157192e-05 0)
(0.865692749837 2.25136457163e-05 0)
(0.865693062262 2.30682699807e-05 0)
(0.865693682369 2.35350134443e-05 0)
(0.865694742657 2.38749013569e-05 0)
(0.865696425662 2.40570922259e-05 0)
(0.865699018861 2.39610528437e-05 0)
(0.865702929125 2.34358952702e-05 0)
(0.865708578205 2.20756113895e-05 0)
(0.865716406099 1.93036822163e-05 0)
(0.865728042 1.44458476454e-05 0)
(0.865746087619 5.66440584369e-06 0)
(0.865773497802 -8.6543596738e-06 0)
(0.865814149587 -3.05063484966e-05 0)
(0.865873956248 -6.38368581416e-05 0)
(0.865962250181 -0.000115522131459 0)
(0.866093538582 -0.000196326486307 0)
(0.866290367491 -0.000323514800936 0)
(0.866587556019 -0.000525572390466 0)
(0.867038715945 -0.000851465602826 0)
(0.867728934879 -0.00138816505245 0)
(0.868794607126 -0.00228451149199 0)
(0.870449076135 -0.00381522588573 0)
(0.873011399726 -0.00650482443013 0)
(0.876880776473 -0.0113632639718 0)
(0.882380198377 -0.0202607580125 0)
(0.889693549819 -0.0364703317392 0)
(0.896376401005 -0.0655285099074 0)
(0.886557159635 -0.110116482526 0)
(1.01287875312 0.118961023028 0)
(1.08820671531 0.231806936853 0)
(1.13741368487 0.253106764948 0)
(1.1540908864 0.228992754124 0)
(1.14994213288 0.188368359605 0)
(1.1353846832 0.146579844825 0)
(1.11758898085 0.11015096651 0)
(1.10059503898 0.0808162228259 0)
(1.08612461226 0.0582265769994 0)
(1.07459096964 0.0413189854534 0)
(1.06579151587 0.0289160205637 0)
(1.05928804206 0.0199601002546 0)
(1.05459982077 0.0135815603175 0)
(1.05129082635 0.00909744328064 0)
(1.04899991214 0.00598615399718 0)
(1.0474434724 0.00385696640863 0)
(1.04640660217 0.00242159790845 0)
(1.04573068985 0.00147015007042 0)
(1.04530113711 0.000851701836822 0)
(1.04503664228 0.000459016235875 0)
(1.04488028185 0.000216756814285 0)
(1.04479266762 7.30178473879e-05 0)
(1.04474880452 -5.50386739709e-06 0)
(1.04473190722 -4.40080052833e-05 0)
(1.04472965856 -5.93850406831e-05 0)
(1.04473514454 -6.17185760971e-05 0)
(1.04474409435 -5.72448965619e-05 0)
(1.04475398 -4.98029328239e-05 0)
(1.04476342193 -4.16437804213e-05 0)
(1.04477174995 -3.39883841864e-05 0)
(1.0447787136 -2.74230342545e-05 0)
(1.04478430024 -2.21512024135e-05 0)
(1.04478865599 -1.81278634175e-05 0)
(1.04479199187 -1.51390528277e-05 0)
(1.04479456261 -1.2807588026e-05 0)
(1.04479666158 -1.10111158598e-05 0)
(1.04479840024 -9.5221695253e-06 0)
(1.04479972414 -8.23249242753e-06 0)
(1.04480070339 -7.21340306758e-06 0)
(1.04480138897 -6.54446367411e-06 0)
(1.04480180243 -6.16489080053e-06 0)
(1.04480203073 -5.95618492031e-06 0)
(1.04480211953 -5.86779864408e-06 0)
(1.04480210733 -5.8499742585e-06 0)
(1.04480201888 -5.8625699527e-06 0)
(1.04480187184 -5.88590378264e-06 0)
(1.04480168402 -5.91032938162e-06 0)
(1.04480147693 -5.9320481045e-06 0)
(1.04480127333 -5.95600032191e-06 0)
(1.04480107935 -5.99122522471e-06 0)
(1.0448009126 -6.02179709206e-06 0)
(1.04480081798 -6.04604375826e-06 0)
(1.04480084911 -6.07043489038e-06 0)
(1.04480107919 -6.1096918055e-06 0)
(1.04480162632 -6.20008307858e-06 0)
(1.04480268031 -6.44805304442e-06 0)
(1.04480442785 -7.12007770331e-06 0)
(1.04480714644 -8.49345100907e-06 0)
(1.04481115451 -1.10551150481e-05 0)
(1.04481691798 -1.48748456318e-05 0)
(1.04482546029 -1.9821434358e-05 0)
(1.04483793092 -2.6025090492e-05 0)
(1.04485559489 -3.57875943616e-05 0)
(1.04488076141 -5.20862069071e-05 0)
(1.04491689878 -7.91432580582e-05 0)
(1.04496915296 -0.000123207153502 0)
(1.04504512278 -0.00019405075115 0)
(1.04515615 -0.000307255440121 0)
(1.0453193728 -0.000487992792739 0)
(1.04556064751 -0.000777302032954 0)
(1.04591865408 -0.00124253225475 0)
(1.04645125539 -0.00199537333683 0)
(1.04724258452 -0.00322646326802 0)
(1.04840563384 -0.00526676657943 0)
(1.05006781136 -0.00869346845606 0)
(1.05228594399 -0.0145009466481 0)
(1.05481627167 -0.0242974293924 0)
(1.05686943465 -0.0403950537937 0)
(1.05573951405 -0.0656370273992 0)
(1.04212730407 -0.0995324889099 0)
(1.00447483657 0.0814039973201 0)
(1.06917238008 0.181288539066 0)
(1.13080569971 0.2169504192 0)
(1.17375002229 0.210789156168 0)
(1.19865267588 0.183690077556 0)
(1.21019990954 0.149751683996 0)
(1.21350259233 0.116779144675 0)
(1.21251728037 0.0882206782682 0)
(1.20973102772 0.065048151112 0)
(1.2065112456 0.0470209088898 0)
(1.20351918701 0.0334068083492 0)
(1.20101151028 0.0233557322481 0)
(1.19903451393 0.0160720134713 0)
(1.19753884627 0.0108795132983 0)
(1.19644138526 0.00723418764632 0)
(1.19565565981 0.00471351810356 0)
(1.19510496712 0.00299762881542 0)
(1.19472655702 0.00184916073603 0)
(1.19447157868 0.00109496046032 0)
(1.19430327082 0.000610611565527 0)
(1.19419463376 0.000307986957135 0)
(1.19412635108 0.000125769108022 0)
(1.194085303 2.22239511097e-05 0)
(1.19406204561 -3.24509573337e-05 0)
(1.19404974642 -5.72694551959e-05 0)
(1.19404424854 -6.4595049226e-05 0)
(1.19404275119 -6.23730904039e-05 0)
(1.19404343592 -5.55184461641e-05 0)
(1.19404518715 -4.69414513591e-05 0)
(1.19404734663 -3.82555715583e-05 0)
(1.19404954192 -3.02618534305e-05 0)
(1.19405158098 -2.32652622145e-05 0)
(1.19405339477 -1.72893416885e-05 0)
(1.1940549776 -1.22605537371e-05 0)
(1.19405634564 -8.07245340024e-06 0)
(1.19405751806 -4.67101299344e-06 0)
(1.19405846738 -2.0599054866e-06 0)
(1.19405914037 -1.70450413347e-07 0)
(1.19405949654 1.14710585229e-06 0)
(1.19405961163 2.00328259701e-06 0)
(1.19405966682 2.68188485921e-06 0)
(1.19405969842 3.2849920358e-06 0)
(1.19405968054 3.81250557719e-06 0)
(1.19405962991 4.27321162676e-06 0)
(1.19405954174 4.67895861123e-06 0)
(1.19405940688 5.04658180325e-06 0)
(1.19405922786 5.38808864362e-06 0)
(1.1940590109 5.70607043574e-06 0)
(1.19405876803 5.99064746456e-06 0)
(1.19405854133 6.2301012462e-06 0)
(1.19405837446 6.4475122459e-06 0)
(1.19405829739 6.6353262771e-06 0)
(1.1940583591 6.76680779627e-06 0)
(1.19405861851 6.8012766322e-06 0)
(1.19405911424 6.68029914042e-06 0)
(1.19405982075 6.31576691076e-06 0)
(1.1940608185 5.5481901551e-06 0)
(1.19406226707 4.01383348421e-06 0)
(1.19406481322 1.27588903256e-06 0)
(1.19406949371 -2.94232553892e-06 0)
(1.19407687685 -9.41437547986e-06 0)
(1.19408688449 -1.95350565015e-05 0)
(1.19410026148 -3.53099890904e-05 0)
(1.19411899698 -5.9653412617e-05 0)
(1.19414521795 -9.71471331396e-05 0)
(1.19418174067 -0.000155106760963 0)
(1.19423255046 -0.00024518094508 0)
(1.19430327366 -0.000385852762333 0)
(1.19440178373 -0.000606589599263 0)
(1.19453884476 -0.000954747326966 0)
(1.19472849524 -0.00150688223648 0)
(1.19498750129 -0.0023873373357 0)
(1.19533066223 -0.00379946533277 0)
(1.19575522513 -0.00607642924294 0)
(1.19620085368 -0.00975747847164 0)
(1.19644779291 -0.0156871354677 0)
(1.19590911784 -0.0250775302871 0)
(1.19342995437 -0.039386366252 0)
(1.18667420787 -0.0598598552554 0)
(1.17012080069 -0.0851923619562 0)
(0.998962327475 0.0544316253069 0)
(1.05310957496 0.133401607964 0)
(1.11628269459 0.170777558805 0)
(1.17301273742 0.175143872755 0)
(1.21791248596 0.159583607123 0)
(1.25049860791 0.134951020884 0)
(1.27288494568 0.108411657575 0)
(1.2877672606 0.0838849724973 0)
(1.29745272421 0.0630565729539 0)
(1.3036607995 0.0462999219325 0)
(1.30759239739 0.0333205153144 0)
(1.31005376002 0.0235495244661 0)
(1.31157368873 0.0163599081187 0)
(1.31249499616 0.0111713154197 0)
(1.31303869385 0.00749150691131 0)
(1.31334679007 0.00492448600875 0)
(1.31351020851 0.00316295511929 0)
(1.31358684283 0.00197475148404 0)
(1.31361322345 0.00118819625462 0)
(1.31361207817 0.000678628459629 0)
(1.31359724479 0.000357007523292 0)
(1.31357692788 0.000160753195376 0)
(1.31355593776 4.64685077664e-05 0)
(1.31353664649 -1.58697650922e-05 0)
(1.31351999262 -4.60580171637e-05 0)
(1.3135063079 -5.70678144788e-05 0)
(1.31349540739 -5.73223395462e-05 0)
(1.31348695399 -5.20836915087e-05 0)
(1.31348055949 -4.4521189684e-05 0)
(1.31347583866 -3.64592540155e-05 0)
(1.3134724404 -2.88710058332e-05 0)
(1.31347006172 -2.2209871154e-05 0)
(1.31346844306 -1.66272927819e-05 0)
(1.3134673561 -1.21307440873e-05 0)
(1.31346663537 -8.6544647961e-06 0)
(1.3134661835 -6.09686625173e-06 0)
(1.31346589936 -4.32072069697e-06 0)
(1.31346569359 -3.11856974127e-06 0)
(1.3134655636 -2.26091791316e-06 0)
(1.31346559516 -1.54361564635e-06 0)
(1.31346575051 -9.67434364785e-07 0)
(1.31346585151 -5.53995005395e-07 0)
(1.31346584712 -1.93781344593e-07 0)
(1.31346576941 1.42517998772e-07 0)
(1.31346564 4.53062933482e-07 0)
(1.31346547126 7.4660273861e-07 0)
(1.31346526641 1.03515061152e-06 0)
(1.31346502771 1.32943758067e-06 0)
(1.3134647662 1.64076118245e-06 0)
(1.31346451555 1.96883572726e-06 0)
(1.31346429727 2.26457519936e-06 0)
(1.31346411863 2.49044684815e-06 0)
(1.31346401005 2.60224232725e-06 0)
(1.31346402406 2.5360752047e-06 0)
(1.31346424746 2.20532151418e-06 0)
(1.31346479917 1.51947558618e-06 0)
(1.31346566105 4.2961688718e-07 0)
(1.31346690264 -1.25549183019e-06 0)
(1.3134689495 -3.73874216942e-06 0)
(1.31347203493 -7.74742863114e-06 0)
(1.31347634929 -1.4573420389e-05 0)
(1.31348212579 -2.57981236409e-05 0)
(1.31348963563 -4.30093000246e-05 0)
(1.31349936327 -6.93755808019e-05 0)
(1.31351162464 -0.000109924344899 0)
(1.31352649696 -0.000172399961939 0)
(1.31354359445 -0.000268887008063 0)
(1.31356160044 -0.000418340509483 0)
(1.31357731134 -0.000650580268394 0)
(1.31358380131 -0.00101284450024 0)
(1.31356700615 -0.00158017485389 0)
(1.31349947215 -0.00247164978089 0)
(1.31332692683 -0.00387461130811 0)
(1.31294174317 -0.00608160275452 0)
(1.31213384871 -0.00953741894247 0)
(1.31049775312 -0.0148841210392 0)
(1.3072798416 -0.0229508546061 0)
(1.30126997749 -0.0345794076301 0)
(1.29059934429 -0.0502093061377 0)
(1.27179378724 -0.068616798256 0)
(0.995736075997 0.0346338599643 0)
(1.04179515102 0.0905689215168 0)
(1.10222840157 0.121549565553 0)
(1.16491413777 0.129605834834 0)
(1.22202569143 0.122009269308 0)
(1.26951895498 0.106019939312 0)
(1.30680227889 0.0870975569782 0)
(1.33499540098 0.0686366821024 0)
(1.35574482847 0.0523698400556 0)
(1.37069622791 0.0389256189105 0)
(1.38128282178 0.0282980742143 0)
(1.38866274934 0.0201712778101 0)
(1.39373041102 0.0141175108537 0)
(1.39715669022 0.0097053362914 0)
(1.39943443664 0.00655059543138 0)
(1.40091976314 0.00433445474483 0)
(1.4018663139 0.00280414487225 0)
(1.40245233882 0.0017657429072 0)
(1.40280144076 0.0010741948089 0)
(1.40299814187 0.000623234649 0)
(1.40309936738 0.00033640883228 0)
(1.40314282502 0.000159622810876 0)
(1.40315308994 5.51640094426e-05 0)
(1.40314560538 -2.99807407625e-06 0)
(1.40312985028 -3.21221922016e-05 0)
(1.40311145254 -4.38894443151e-05 0)
(1.4030934192 -4.57594067831e-05 0)
(1.40307727483 -4.24172216611e-05 0)
(1.40306362099 -3.67263737556e-05 0)
(1.40305253127 -3.03636110307e-05 0)
(1.40304380388 -2.42436005796e-05 0)
(1.40303711354 -1.88134160919e-05 0)
(1.40303209894 -1.42414876982e-05 0)
(1.40302841009 -1.05299339911e-05 0)
(1.40302574904 -7.57810554039e-06 0)
(1.40302388362 -5.26116518659e-06 0)
(1.40302263736 -3.45627651405e-06 0)
(1.40302185961 -2.01976407466e-06 0)
(1.40302138475 -8.46974947425e-07 0)
(1.40302101789 8.52707438261e-08 0)
(1.40302069149 7.94864279093e-07 0)
(1.4030204878 1.28473550789e-06 0)
(1.40302039384 1.65689716146e-06 0)
(1.40302031727 1.97700567754e-06 0)
(1.40302022363 2.28245704692e-06 0)
(1.40302010604 2.59135548999e-06 0)
(1.40301996288 2.91305567103e-06 0)
(1.40301979602 3.25226478583e-06 0)
(1.40301960646 3.6099377008e-06 0)
(1.40301938713 3.97550240011e-06 0)
(1.40301915016 4.30776870823e-06 0)
(1.40301892899 4.57560269672e-06 0)
(1.40301875138 4.74104589905e-06 0)
(1.40301864279 4.74670424118e-06 0)
(1.40301862164 4.50437787635e-06 0)
(1.40301869244 3.87156377731e-06 0)
(1.40301885131 2.64404698945e-06 0)
(1.40301912428 7.018384503e-07 0)
(1.40301972158 -2.33879426884e-06 0)
(1.40302079578 -7.28436356093e-06 0)
(1.40302223689 -1.49233941724e-05 0)
(1.40302371223 -2.65729754728e-05 0)
(1.403024737 -4.40800805793e-05 0)
(1.40302456384 -7.04248106714e-05 0)
(1.40302169998 -0.00011019335996 0)
(1.40301339843 -0.000170410495679 0)
(1.4029948473 -0.000261952778137 0)
(1.40295785461 -0.000401684365556 0)
(1.40288845859 -0.000615660877066 0)
(1.40276290589 -0.00094450764843 0)
(1.40254114953 -0.00145159764449 0)
(1.40215679704 -0.00223535728979 0)
(1.4014981831 -0.00344492096879 0)
(1.40037681284 -0.0053041875756 0)
(1.39847917848 -0.00813624626803 0)
(1.39529175214 -0.0123763656608 0)
(1.39000082162 -0.0185362658369 0)
(1.38145720504 -0.0270548446868 0)
(1.36816314185 -0.0380155309889 0)
(1.34772374109 -0.0505281758985 0)
(0.994011533194 0.0192358063039 0)
(1.03484764299 0.0523338404675 0)
(1.09199264078 0.0723631277031 0)
(1.15662422009 0.0791292324055 0)
(1.22032119022 0.0761045468676 0)
(1.27701948622 0.0673339720974 0)
(1.32424422927 0.0561509042829 0)
(1.36181578293 0.0447990119361 0)
(1.39068536144 0.0345303786477 0)
(1.41226080979 0.0258814335654 0)
(1.42801828707 0.0189465250667 0)
(1.43929891139 0.0135849830425 0)
(1.44722814953 0.00955653510501 0)
(1.45270421008 0.00660011607619 0)
(1.45641904001 0.00447419073511 0)
(1.45889153075 0.00297351386597 0)
(1.46050240065 0.00193276903859 0)
(1.46152580273 0.00122369412305 0)
(1.46215582373 0.000749550875006 0)
(1.46252765361 0.000439018094324 0)
(1.46273393573 0.000240521557353 0)
(1.46283708336 0.000117412498884 0)
(1.46287839063 4.40501747662e-05 0)
(1.46288463423 2.69182680637e-06 0)
(1.46287251404 -1.84431943714e-05 0)
(1.46285216672 -2.74369245305e-05 0)
(1.46282961933 -2.94366534806e-05 0)
(1.46280808467 -2.7686513266e-05 0)
(1.46278909059 -2.41844641412e-05 0)
(1.46277318145 -2.01116838764e-05 0)
(1.46276034841 -1.61167864571e-05 0)
(1.46275029716 -1.25225434862e-05 0)
(1.46274261704 -9.45554023824e-06 0)
(1.46273687579 -6.9266412337e-06 0)
(1.46273267477 -4.88210431724e-06 0)
(1.46272967166 -3.25259143941e-06 0)
(1.46272757814 -1.9750569436e-06 0)
(1.4627261373 -1.00840060237e-06 0)
(1.46272513744 -3.07566779828e-07 0)
(1.46272451388 2.15232904485e-07 0)
(1.46272415333 6.97684898547e-07 0)
(1.46272390651 1.17484340791e-06 0)
(1.46272374102 1.6005905001e-06 0)
(1.46272361734 1.9819254998e-06 0)
(1.46272350603 2.34005501344e-06 0)
(1.46272338811 2.68838822801e-06 0)
(1.46272325001 3.03238268533e-06 0)
(1.46272308306 3.37017517144e-06 0)
(1.46272288286 3.69244171156e-06 0)
(1.46272264698 3.98706257371e-06 0)
(1.46272237862 4.24619821103e-06 0)
(1.46272208539 4.43833214427e-06 0)
(1.46272177405 4.51292214636e-06 0)
(1.46272145381 4.40028584265e-06 0)
(1.46272113928 4.00932467676e-06 0)
(1.46272085152 3.2289252898e-06 0)
(1.4627205781 1.93825655352e-06 0)
(1.46272021989 3.50387542992e-08 0)
(1.46271961599 -2.75395682375e-06 0)
(1.4627186389 -7.26124181649e-06 0)
(1.46271703015 -1.42778378986e-05 0)
(1.46271411026 -2.48989012637e-05 0)
(1.46270875382 -4.06642948487e-05 0)
(1.4626991486 -6.39508320645e-05 0)
(1.46268222956 -9.83553044025e-05 0)
(1.46265284549 -0.000149260761057 0)
(1.46260248302 -0.000224856630103 0)
(1.46251737921 -0.000337590763628 0)
(1.46237503348 -0.000506054539387 0)
(1.46213853892 -0.000758680554216 0)
(1.4617479258 -0.00113929847858 0)
(1.46110853621 -0.00171545792071 0)
(1.4600690622 -0.00258295179548 0)
(1.45838829346 -0.00388145988909 0)
(1.45569196806 -0.00580354673165 0)
(1.45141413119 -0.00859262035097 0)
(1.4447335194 -0.0125093002598 0)
(1.43457969869 -0.0177347268707 0)
(1.4196911017 -0.0242181138103 0)
(1.39821863006 -0.031414659724 0)
(0.99326966917 0.00617015036474 0)
(1.031581007 0.0171020460205 0)
(1.08672183181 0.0239906487938 0)
(1.15174556455 0.026560666212 0)
(1.21823538929 0.0258180594838 0)
(1.27925777429 0.0230488870084 0)
(1.33140139901 0.0193656325328 0)
(1.37377603312 0.0155468592267 0)
(1.4069105862 0.0120449315984 0)
(1.43203319273 0.00906640114275 0)
(1.45060221313 0.00666059611392 0)
(1.46402992718 0.00479009274863 0)
(1.47355023471 0.00337842959089 0)
(1.48017571295 0.00233873950012 0)
(1.48470237222 0.00158891544313 0)
(1.48773629461 0.00105829050916 0)
(1.48972743837 0.000689464448416 0)
(1.49100287457 0.00043764013537 0)
(1.49179596085 0.000268887493483 0)
(1.4922703377 0.000158112884917 0)
(1.49253883592 8.71265155045e-05 0)
(1.49267791862 4.29769226912e-05 0)
(1.49273845815 1.65871797347e-05 0)
(1.49275363784 1.66676782392e-06 0)
(1.49274440627 -6.06584704064e-06 0)
(1.49272362317 -9.4109258623e-06 0)
(1.49269898371 -1.0216918543e-05 0)
(1.49267471576 -9.65341128609e-06 0)
(1.49265291679 -8.43926625942e-06 0)
(1.49263442832 -6.9925116123e-06 0)
(1.49261937296 -5.55330760747e-06 0)
(1.49260748853 -4.24161599409e-06 0)
(1.49259834547 -3.10485216712e-06 0)
(1.49259146821 -2.14921950827e-06 0)
(1.49258640279 -1.35860417643e-06 0)
(1.49258274899 -7.11221257069e-07 0)
(1.49258017111 -1.85600014867e-07 0)
(1.49257839928 2.40210264007e-07 0)
(1.49257722755 6.12430146731e-07 0)
(1.49257647823 9.82390798757e-07 0)
(1.49257599782 1.28848377245e-06 0)
(1.49257569442 1.57423890349e-06 0)
(1.49257551046 1.85694919378e-06 0)
(1.4925753932 2.14693186647e-06 0)
(1.49257530346 2.45153670823e-06 0)
(1.49257521495 2.77361404504e-06 0)
(1.49257510912 3.11246995507e-06 0)
(1.49257497262 3.46410403542e-06 0)
(1.49257479545 3.82014916267e-06 0)
(1.49257456906 4.16667744487e-06 0)
(1.49257428774 4.48390985071e-06 0)
(1.49257394767 4.73970956574e-06 0)
(1.49257354241 4.88938736618e-06 0)
(1.49257306016 4.87229039109e-06 0)
(1.49257247988 4.60520203722e-06 0)
(1.49257177358 3.97255574885e-06 0)
(1.49257092896 2.82337673439e-06 0)
(1.49256981537 1.04633613324e-06 0)
(1.4925680068 -1.57354176914e-06 0)
(1.49256519517 -5.62532246223e-06 0)
(1.4925609983 -1.16757081673e-05 0)
(1.49255439778 -2.04895122464e-05 0)
(1.49254377354 -3.31475861204e-05 0)
(1.49252657678 -5.11977824599e-05 0)
(1.49249869347 -7.68321251211e-05 0)
(1.49245340585 -0.000113056639109 0)
(1.49237984247 -0.000164265470291 0)
(1.49226094639 -0.000236902143408 0)
(1.49206929584 -0.000339431130607 0)
(1.49176015582 -0.000484457119832 0)
(1.4912613138 -0.000692398790438 0)
(1.49046400689 -0.00099653722419 0)
(1.48919850184 -0.00142926761313 0)
(1.48719865449 -0.0020382421767 0)
(1.484065642 -0.00288487229253 0)
(1.47921897423 -0.00403669338592 0)
(1.47185074836 -0.00554808388283 0)
(1.46094582991 -0.00742073630877 0)
(1.4453545528 -0.00956089755941 0)
(1.42346371463 -0.0117204048846 0)
(0.993270466971 -0.00616840188389 0)
(1.03158098956 -0.0171003761387 0)
(1.08672176542 -0.0239897618434 0)
(1.15174560211 -0.0265602469486 0)
(1.21823546704 -0.025817992927 0)
(1.27925787617 -0.0230491096679 0)
(1.3314015249 -0.0193660464658 0)