/*--------------------------------*- C++ -*----------------------------------*\
| =========                 |                                                 |
| \\      /  F ield         | OpenFOAM: The Open Source CFD Toolbox           |
|  \\    /   O peration     | Version:  2106                                  |
|   \\  /    A nd           | Website:  www.openfoam.com                      |
|    \\/     M anipulation  |                                                 |
\*---------------------------------------------------------------------------*/
FoamFile
{
    version     2.0;
    format      ascii;
    arch        "LSB;label=32;scalar=64";
    class       surfaceScalarField;
    location    "0.033";
    object      phi;
}
// * * * * * * * * * * * * * * * * * * * * * * * * * * * * * * * * * * * * * //

dimensions      [0 3 -1 0 0 0 0];

oriented        oriented;

internalField   nonuniform List<scalar> 
799
(
1.93917e-32
4.87738e-32
6.35136e-32
5.42059e-32
3.0495e-32
-3.48037e-32
-9.28509e-32
-1.37403e-31
-1.46138e-31
-1.07074e-31
-4.99918e-32
1.35502e-32
5.32702e-32
6.4237e-32
4.38489e-32
5.79274e-33
-4.39563e-32
-9.51951e-32
-1.34081e-31
-1.60647e-31
-1.51095e-31
-1.13605e-31
-5.10657e-32
2.10468e-32
6.29463e-32
7.33251e-32
3.29071e-32
-3.65069e-32
-1.01631e-31
-1.53093e-31
-1.54851e-31
-1.26504e-31
-7.91685e-32
-2.31514e-32
2.66659e-33
1.46338e-32
-1.71415e-33
-3.88034e-32
-6.79116e-32
-1.03874e-31
-1.12146e-31
-9.90005e-32
-7.49029e-32
-2.75859e-32
-1.77011e-33
9.0767e-33
-6.31118e-33
-5.47767e-32
-9.42622e-32
-1.30112e-31
-1.31628e-31
-9.7393e-32
-5.3844e-32
8.08129e-34
2.55519e-32
1.97057e-32
-1.31069e-32
-7.1923e-32
-1.17072e-31
-1.41984e-31
-1.28598e-31
-7.52467e-32
-1.29618e-32
4.21363e-32
5.50997e-32
1.44911e-32
-5.91862e-32
-1.42597e-31
-1.87927e-31
-1.70324e-31
-9.88687e-32
2.94682e-33
7.94514e-32
9.60422e-32
4.90254e-32
-4.46888e-32
-1.31135e-31
-1.75705e-31
-1.64135e-31
-1.0482e-31
-3.85132e-32
1.05569e-32
2.59852e-32
1.10387e-32
-1.30208e-32
-3.89083e-32
-5.84309e-32
-7.65189e-32
-9.67765e-32
-1.08996e-31
-1.06991e-31
-7.58335e-32
-2.3243e-32
3.01859e-32
6.28605e-32
4.39789e-32
-1.46064e-32
-9.63827e-32
-1.65746e-31
-1.79114e-31
-1.4384e-31
-5.80743e-32
3.27438e-32
8.59687e-32
9.49875e-32
3.70311e-32
-4.22403e-32
-1.16042e-31
-1.59979e-31
-1.42991e-31
-9.91688e-32
-3.6425e-32
1.01999e-32
1.87598e-32
7.30104e-33
-2.33429e-32
-4.02113e-32
-3.77414e-32
-2.50331e-32
-1.11711e-32
-2.11221e-32
-5.16457e-32
-9.32075e-32
-1.24056e-31
-1.22665e-31
-8.8018e-32
-2.86745e-32
3.07622e-32
6.85521e-32
7.3888e-32
4.39188e-32
-8.48312e-33
-6.94696e-32
-1.2482e-31
-1.56715e-31
-1.59484e-31
-1.25802e-31
-6.1696e-32
1.20134e-32
7.67597e-32
1.02015e-31
7.9418e-32
1.61774e-32
-6.80523e-32
-1.32931e-31
-1.59468e-31
-1.36013e-31
-7.58124e-32
-1.31322e-32
3.01258e-32
3.08545e-32
-3.77362e-33
-5.08377e-32
-8.79939e-32
-8.85875e-32
-5.57542e-32
-5.01945e-33
3.66303e-32
3.93732e-32
-7.35765e-34
-7.19186e-32
-1.3883e-31
-1.65842e-31
-1.35012e-31
-5.48992e-32
3.43791e-32
9.2386e-32
8.43851e-32
1.77908e-32
-7.22675e-32
-1.43134e-31
-1.50135e-31
-1.03851e-31
-2.6492e-32
3.60811e-32
4.2378e-32
6.29125e-33
-6.27086e-32
-1.1244e-31
-1.14739e-31
-7.8643e-32
-7.82936e-33
4.14647e-32
5.47317e-32
2.54749e-32
-4.20831e-32
-9.8245e-32
-1.34902e-31
-1.2743e-31
-8.05972e-32
-2.55035e-32
3.01628e-32
5.29029e-32
4.40511e-32
1.21642e-32
-3.67484e-32
-7.47462e-32
-9.94021e-32
-1.03646e-31
-8.6535e-32
-6.06224e-32
-2.57774e-32
7.26195e-33
2.89943e-32
3.5401e-32
1.60098e-32
-2.39056e-32
-7.05041e-32
-1.07333e-31
-1.10681e-31
-7.68958e-32
-1.90235e-32
3.79559e-32
5.87604e-32
3.00414e-32
-3.80055e-32
-1.13521e-31
-1.51008e-31
-1.25243e-31
-4.2876e-32
5.9828e-32
1.26367e-31
1.16308e-31
2.96315e-32
-9.96059e-32
-2.04483e-31
-2.29571e-31
-1.62707e-31
-2.6641e-32
1.07175e-31
1.75425e-31
1.50171e-31
3.64763e-32
-1.00282e-31
-2.00523e-31
-2.22306e-31
-1.53125e-31
-4.11938e-32
6.76242e-32
1.24773e-31
1.05997e-31
3.58908e-32
-5.65119e-32
-1.26112e-31
-1.44218e-31
-1.13617e-31
-5.13516e-32
8.25592e-33
3.61759e-32
2.29727e-32
-1.71227e-32
-5.99717e-32
-7.50693e-32
-5.17142e-32
-8.74041e-33
3.18361e-32
3.39084e-32
-1.00246e-32
-7.53926e-32
-1.34472e-31
-1.43717e-31
-9.54058e-32
-1.54089e-32
6.36698e-32
9.49694e-32
6.61256e-32
-4.29102e-34
-7.71245e-32
-1.21926e-31
-1.20508e-31
-9.05684e-32
-4.47252e-32
-1.37334e-32
-4.47327e-33
-2.97381e-33
-1.19968e-32
-1.3386e-32
-1.41503e-32
-2.4029e-32
-3.2868e-32
-4.85424e-32
-5.46738e-32
-4.95701e-32
-4.46443e-32
-4.08974e-32
-5.16791e-32
-6.61066e-32
-6.78311e-32
-4.50953e-32
3.77174e-33
5.50331e-32
7.74811e-32
4.66692e-32
-2.98546e-32
-1.20287e-31
-1.73008e-31
-1.53105e-31
-6.70871e-32
5.14815e-32
1.36368e-31
1.49266e-31
8.76148e-32
-1.63794e-32
-9.52914e-32
-1.14698e-31
-6.28515e-32
2.9563e-32
1.06856e-31
1.42912e-31
1.23877e-31
8.06605e-32
5.24816e-32
5.72799e-32
1.03964e-31
1.60624e-31
2.02053e-31
2.161e-31
2.02308e-31
1.94585e-31
2.10611e-31
2.61687e-31
3.41761e-31
4.15981e-31
4.70464e-31
4.90817e-31
4.88798e-31
4.99651e-31
5.38002e-31
6.26335e-31
7.48766e-31
8.73424e-31
9.80676e-31
1.03838e-30
1.06457e-30
1.08425e-30
1.12815e-30
1.23874e-30
1.40412e-30
1.61149e-30
1.81747e-30
1.96961e-30
2.05339e-30
2.07184e-30
2.02845e-30
2.14212e-30
2.36243e-30
3.40721e-30
5.51342e-30
8.81048e-30
1.53673e-29
1.77298e-29
2.01958e-29
2.80266e-30
-4.02693e-29
-9.19621e-29
-1.9787e-28
-1.88821e-28
-1.28336e-28
1.59382e-28
8.03316e-28
1.16839e-27
1.81059e-27
1.04871e-27
-7.69435e-28
-3.04499e-27
-7.55165e-27
-7.22229e-27
-5.94021e-27
1.73891e-27
1.68667e-26
2.26581e-26
3.30386e-26
1.66379e-26
-1.36217e-26
-4.10182e-26
-9.05067e-26
-7.13338e-26
-4.22064e-26
3.15584e-26
1.54613e-25
1.62723e-25
1.91985e-25
5.42988e-26
-1.45613e-25
-2.41575e-25
-4.15724e-25
-2.36537e-25
-3.16565e-26
2.19141e-25
5.89182e-25
4.55143e-25
3.83021e-25
-3.70977e-26
-5.44016e-25
-5.80063e-25
-7.54266e-25
-2.54592e-25
2.23614e-25
5.06834e-25
9.15279e-25
5.06845e-25
2.2363e-25
-2.54578e-25
-7.54261e-25
-5.80069e-25
-5.44028e-25
-3.71117e-26
3.83012e-25
4.55141e-25
5.89186e-25
2.19148e-25
-3.16506e-26
-2.36535e-25
-4.15726e-25
-2.4158e-25
-1.45617e-25
5.42953e-26
1.91984e-25
1.62723e-25
1.54613e-25
3.1559e-26
-4.22064e-26
-7.13342e-26
-9.05071e-26
-4.10189e-26
-1.36222e-26
1.66373e-26
3.30379e-26
2.26574e-26
1.68661e-26
1.73845e-27
-5.94058e-27
-7.22257e-27
-7.55187e-27
-3.04524e-27
-7.69699e-28
1.04839e-27
1.81024e-27
1.16803e-27
8.02971e-28
1.59108e-28
-1.2853e-28
-1.88917e-28
-1.97901e-28
-9.19945e-29
-4.0349e-29
2.61403e-30
1.99212e-29
1.7419e-29
1.50938e-29
8.66058e-30
5.49557e-30
3.50476e-30
2.50266e-30
2.23661e-30
2.03307e-30
1.96034e-30
1.86022e-30
1.75494e-30
1.63554e-30
1.5213e-30
1.42118e-30
1.34904e-30
1.29702e-30
1.24148e-30
1.16127e-30
1.0419e-30
8.92301e-31
7.4787e-31
6.35487e-31
5.81729e-31
5.7967e-31
5.99805e-31
6.16261e-31
5.93059e-31
5.32301e-31
4.41597e-31
3.41348e-31
2.63082e-31
2.12761e-31
2.04073e-31
2.25645e-31
2.57677e-31
2.83111e-31
2.74939e-31
2.28489e-31
1.53739e-31
7.32711e-32
2.14124e-32
2.06842e-32
6.48828e-32
1.35457e-31
1.89274e-31
1.91388e-31
1.4288e-31
5.05335e-32
-3.43673e-32
-7.55454e-32
-6.24295e-32
9.72021e-33
8.90713e-32
1.44896e-31
1.49899e-31
9.11208e-32
8.14909e-33
-7.33719e-32
-1.11773e-31
-8.53067e-32
-1.20769e-32
8.38803e-32
1.53297e-31
1.59387e-31
9.68773e-32
-1.40337e-32
-1.23044e-31
-1.75052e-31
-1.45296e-31
-4.18525e-32
8.83076e-32
1.80093e-31
1.94311e-31
1.21632e-31
6.15395e-34
-1.11024e-31
-1.65329e-31
-1.41366e-31
-6.18675e-32
3.5732e-32
1.03367e-31
1.21264e-31
9.02065e-32
2.85316e-32
-2.75619e-32
-6.65902e-32
-6.90681e-32
-4.51979e-32
-9.79892e-33
2.87864e-32
4.14436e-32
3.86803e-32
1.39269e-32
-1.61276e-32
-2.57048e-32
-2.44653e-32
5.29706e-33
3.16993e-32
3.8657e-32
2.76055e-32
-1.72115e-32
-5.23037e-32
-6.85985e-32
-5.41833e-32
-2.16366e-33
4.34858e-32
7.56029e-32
7.20441e-32
3.39821e-32
-4.98485e-33
-4.02264e-32
-5.06863e-32
-4.44077e-32
-4.1485e-32
-3.7524e-32
-3.92559e-32
-2.58819e-32
1.59568e-32
6.95784e-32
1.20429e-31
1.24069e-31
6.19141e-32
-4.49073e-32
-1.64252e-31
-2.22228e-31
-1.85503e-31
-6.27368e-32
1.08052e-31
2.30407e-31
2.53974e-31
1.58894e-31
-2.40469e-32
-1.93591e-31
-2.86836e-31
-2.4927e-31
-9.5645e-32
8.80319e-32
2.34294e-31
2.60223e-31
1.62525e-31
-2.28742e-33
-1.7047e-31
-2.46323e-31
-2.12511e-31
-9.14076e-32
6.40755e-32
1.64875e-31
1.87586e-31
1.24898e-31
1.40442e-32
-8.03098e-32
-1.38309e-31
-1.34554e-31
-9.01268e-32
-3.45358e-32
2.29991e-32
5.54909e-32
7.30281e-32
7.22013e-32
5.15786e-32
2.39049e-32
-1.72935e-32
-5.30909e-32
-7.89308e-32
-8.80342e-32
-7.42894e-32
-4.79873e-32
-8.60575e-33
2.88242e-32
6.12724e-32
7.66404e-32
6.87316e-32
4.11412e-32
-9.20224e-33
-5.51884e-32
-9.21888e-32
-1.01897e-31
-7.80491e-32
-4.24487e-32
8.85777e-33
4.42531e-32
6.18013e-32
6.3995e-32
3.82621e-32
1.06618e-32
-2.70157e-32
-6.04788e-32
-7.5036e-32
-7.83267e-32
-5.2573e-32
-1.56531e-32
2.34316e-32
5.48995e-32
5.80149e-32
4.21102e-32
6.7874e-33
-3.20712e-32
-5.87497e-32
-6.99835e-32
-5.8203e-32
-3.22804e-32
8.00277e-35
2.77665e-32
4.09937e-32
3.51161e-32
1.47875e-32
-1.00961e-32
-2.92064e-32
-2.94803e-32
-2.09712e-32
-7.24933e-33
-2.90206e-33
-1.59536e-32
-2.70698e-32
-3.39987e-32
-1.39058e-32
2.54388e-32
5.87439e-32
7.28393e-32
3.82041e-32
-2.3226e-32
-8.55113e-32
-1.15675e-31
-8.35447e-32
-1.27277e-32
7.20208e-32
1.20402e-31
1.06156e-31
4.18769e-32
-4.76502e-32
-1.06317e-31
-1.1175e-31
-6.14387e-32
1.87357e-32
7.83312e-32
9.61385e-32
5.86719e-32
-7.48705e-33
-6.24197e-32
-8.30822e-32
-5.10808e-32
8.102e-33
6.34744e-32
8.80348e-32
6.07097e-32
2.58214e-33
-6.17184e-32
-1.01255e-31
-9.03156e-32
-4.09971e-32
3.02837e-32
9.27456e-32
1.15057e-31
9.7197e-32
4.10336e-32
-3.07524e-32
-8.7028e-32
-1.1822e-31
-1.0727e-31
-6.14575e-32
1.02804e-33
7.01302e-32
1.15219e-31
1.27238e-31
9.97948e-32
3.25821e-32
-4.57288e-32
-1.16298e-31
-1.47487e-31
-1.22218e-31
-5.10221e-32
4.74636e-32
1.28159e-31
1.58026e-31
1.23636e-31
3.4865e-32
-6.52048e-32
-1.33918e-31
-1.40038e-31
-8.00228e-32
1.39685e-32
9.82435e-32
1.33905e-31
1.032e-31
2.71466e-32
-5.77102e-32
-1.106e-31
-1.01964e-31
-4.49599e-32
3.72427e-32
1.02319e-31
1.14241e-31
7.98388e-32
5.65441e-33
-6.30081e-32
-9.16946e-32
-7.92084e-32
-1.70565e-32
4.77981e-32
9.05608e-32
9.89973e-32
5.64877e-32
5.24365e-33
-4.31313e-32
-6.55711e-32
-4.60342e-32
-1.29504e-32
3.21307e-32
6.28876e-32
6.84954e-32
6.04095e-32
3.60689e-32
1.41424e-32
1.16007e-33
-5.95534e-33
-3.77907e-33
-1.17714e-33
-2.80464e-33
-1.43368e-33
-1.10064e-33
8.94956e-33
3.20464e-32
5.62612e-32
8.57415e-32
9.46533e-32
8.10527e-32
4.63194e-32
-1.13336e-32
-5.4552e-32
-7.99133e-32
-6.45754e-32
-1.05798e-32
5.40934e-32
1.17939e-31
1.42057e-31
1.27448e-31
7.62322e-32
1.31941e-32
-3.51963e-32
-5.50756e-32
-3.31358e-32
-1.75666e-33
4.77149e-32
6.88174e-32
7.01776e-32
6.38897e-32
1.98067e-32
1.11531e-32
-2.05774e-32
-2.60384e-32
-5.37293e-33
)
;

boundaryField
{
    left
    {
        type            calculated;
        value           uniform 0;
    }
    right
    {
        type            calculated;
        value           uniform 0;
    }
    empty
    {
        type            empty;
        value           nonuniform List<scalar> 0();
    }
}


// ************************************************************************* //
