/*--------------------------------*- C++ -*----------------------------------*\
| =========                 |                                                 |
| \\      /  F ield         | OpenFOAM: The Open Source CFD Toolbox           |
|  \\    /   O peration     | Version:  2106                                  |
|   \\  /    A nd           | Website:  www.openfoam.com                      |
|    \\/     M anipulation  |                                                 |
\*---------------------------------------------------------------------------*/
FoamFile
{
    version     2.0;
    format      ascii;
    arch        "LSB;label=32;scalar=64";
    class       volScalarField;
    location    "0.37";
    object      p;
}
// * * * * * * * * * * * * * * * * * * * * * * * * * * * * * * * * * * * * * //

dimensions      [0 2 -2 0 0 0 0];

internalField   nonuniform List<scalar> 
11200
(
150.12749273
147.198890711
146.085039022
145.557706547
145.19037527
144.895595073
144.63394926
144.385408664
144.140888089
143.895817948
143.647501217
143.394183365
143.134632543
142.867913305
142.593258896
142.309995952
142.0174987
141.715161147
141.402384482
141.078580669
140.743125829
140.395370931
140.034657588
139.660317869
139.271666097
138.868000826
138.448605718
138.012750256
137.5596905
137.08866971
136.598918921
136.089657376
135.560092684
135.009421034
134.436827872
133.841488967
133.222570435
132.579228858
131.910611711
131.215857797
130.494097441
129.744452747
128.966037771
128.157958693
127.319313697
126.44919278
125.546677333
124.61083942
123.640740651
122.63543066
121.593944991
120.515302155
119.398499949
118.242510654
117.046274809
115.808693336
114.52861755
113.204836765
111.836062818
110.420909398
108.957867913
107.445275676
105.881275075
104.263765345
102.590337156
100.858184558
99.0639973542
97.2038154595
95.2728345799
93.265139732
91.1733415245
88.9880802048
86.6971570208
84.2843854005
81.7276793292
78.995378742
76.039883663
72.7886169367
69.0878480838
64.3245568556
148.334451012
146.9762766
146.185304269
145.685288684
145.294298853
144.970414444
144.685891185
144.421286609
144.165796275
143.913271862
143.659886195
143.403125848
143.141253935
142.872994124
142.597346085
142.313475063
142.020643683
141.718169129
141.405392962
141.081653245
140.746299865
140.398657301
140.038081773
139.663905048
139.275431008
138.871952482
138.452750297
138.017092114
137.564232708
137.09341437
136.603867149
136.094808739
135.565444861
135.014975339
134.44258761
133.847457419
133.22875063
132.585623791
131.917224401
131.22269131
130.501154998
129.75173779
128.973554058
128.165710375
127.327305512
126.457430208
125.555166826
124.619588633
123.649758753
122.644728707
121.603536444
120.525203486
119.408731268
118.253096648
117.057245874
115.820086919
114.540479901
113.21722486
111.849047216
110.434577653
108.972328913
107.460666035
105.897765199
104.281562947
102.609692233
100.879412297
99.0875074764
97.2301403433
95.3026712951
93.2994154542
91.2133037023
89.0353795677
86.7540953961
84.3543151656
81.8156436812
79.1095727957
76.1953046489
73.0150060168
69.4658885211
65.3531028445
147.339260985
146.685060275
146.13270369
145.695084663
145.323459251
145.00135562
144.71225361
144.442017362
144.181551926
143.925068549
143.668682402
143.409711941
143.146245278
142.876855582
142.600421868
142.316015578
142.022827095
141.720117841
141.407189505
141.083365191
140.747982855
140.400402889
140.039881241
139.665764117
139.277359296
138.873957055
138.454835934
138.019262528
137.566491322
137.095764838
136.606313963
136.097358663
135.56810811
135.017754906
134.445481483
133.850465845
133.231875011
132.588866099
131.920587459
131.226178755
130.504771299
129.755488354
128.977445429
128.169750393
127.331503569
126.461797608
125.5597172
124.624338461
123.654728005
122.649941643
121.609022575
120.530998838
119.414879813
118.25965201
117.064273455
115.827666527
114.548709147
113.226223139
111.858960767
110.445586254
108.98465215
107.474571938
105.913581593
104.299712312
102.63072697
100.9040317
99.1165845754
97.2647869876
95.3443247858
93.3499593019
91.2752407651
89.1121062913
86.8504610294
84.4773892185
81.9761702232
79.3249444898
76.4957395724
73.4569419333
70.1725761112
66.6196244167
146.789500127
146.426118498
146.026219574
145.657227718
145.319609108
145.011504288
144.726138168
144.455431118
144.193055844
143.934385501
143.676002231
143.415374665
143.150603122
142.880220478
142.603050747
142.318111455
142.024546292
141.721579071
141.408482657
141.084557108
140.749111476
140.401455573
140.040948118
139.666865869
139.27849795
138.875136518
138.45605988
138.020533417
137.5678105
137.097132658
136.607729634
136.098819606
135.569609951
135.019299069
134.447076668
133.852117457
133.23358928
132.590650034
131.922447104
131.228120552
130.506802531
129.757617292
128.979681795
128.172105791
127.333991906
126.464435693
125.562525388
124.627341505
123.657956019
122.653431255
121.612818208
120.535154459
119.419461149
118.264739135
117.069964081
115.834080217
114.55599249
113.234556206
111.868564272
110.456731469
108.997676105
107.489900161
105.931743045
104.321345317
102.656605573
100.935125356
99.1541292123
97.3103649381
95.3999794395
93.4183627348
91.3599577255
89.2180349491
86.9843627574
84.6488994765
82.1995565905
79.6222365889
76.9021952737
74.0297269473
71.0084315118
67.8754899275
146.455452628
146.223656854
145.922243503
145.611264907
145.306423296
145.014397285
144.735418658
144.46628923
144.203325505
143.943237484
143.683264937
143.421170628
143.155162218
142.883790762
142.605859672
142.320352015
142.026375158
141.723119883
141.409830872
141.085785504
140.750278874
140.402614618
140.042096317
139.668013252
139.279668143
138.876344528
138.457315507
138.021844063
137.569182235
137.098571014
136.609240245
136.100408774
135.571284464
135.02106401
134.448933469
133.85406926
133.235636938
132.592794443
131.924692561
131.230471706
130.509266597
129.760203807
128.982402692
128.174975846
127.337029119
126.467661937
125.565967152
124.631030885
123.661931879
122.657740651
121.617518787
120.540316479
119.425170229
118.271099678
117.077103308
115.842152516
114.565184673
113.245096331
111.880729325
110.470864802
109.014199606
107.509322227
105.95469526
104.348624216
102.689215284
100.974326707
99.2015108288
97.3679456492
95.4703515392
93.504894244
91.4670770347
89.3516351933
87.1524602917
84.8626338519
82.4747353979
79.9817562821
77.3795008913
74.6724117859
71.8818495121
69.0585106355
146.252060647
146.07615831
145.834962599
145.567635298
145.290446243
145.013805324
144.742112526
144.475607408
144.212838552
143.951826049
143.690535187
143.427099097
143.159892518
142.887524756
142.608803015
142.322689638
142.028262576
141.724682415
141.411166396
141.086968705
140.751365911
140.403646075
140.043099697
139.669016927
139.280687063
138.877389228
138.458393885
138.022962006
137.57034416
137.099780086
136.610498634
136.101717814
135.572644944
135.022476826
134.450400177
133.855592367
133.237222008
132.594448924
131.926424375
131.232292847
130.511189853
129.76224268
128.984572766
128.177295321
127.339519525
126.470349366
125.5688834
124.634214571
123.665430072
122.661610934
121.62183052
120.545153724
119.430635111
118.277316314
117.084222973
115.850361072
114.574711935
113.256223286
111.893804576
110.486305798
109.032511315
107.531128842
105.980774693
104.379932755
102.726935952
101.019934403
99.2568573049
97.4353708325
95.5528349242
93.6062638829
91.5923014778
89.5072359941
87.347101165
85.1079558208
82.7865152668
80.3814282887
77.8957628902
75.3416733949
72.7461078872
70.1561630162
146.128944393
145.97333651
145.767033783
145.530470255
145.274993209
145.011711478
144.747095681
144.483584264
144.221448138
143.959859644
143.697484966
143.43284781
143.164518589
142.891188915
142.611686709
142.324964426
142.030077136
141.726158985
141.412401918
141.088037983
140.752325303
140.404537365
140.043955224
139.669861215
139.281536377
138.878254853
138.459284273
138.023883448
137.571301473
137.100777232
136.611539208
136.102805336
135.573783187
135.023670316
134.451654668
133.856914478
133.238618722
132.595928072
131.927994769
131.233962514
130.512966652
129.764138287
128.986603388
128.179481157
127.341885808
126.472926598
125.571708443
124.637332101
123.668894263
122.665487354
121.626198823
120.550110935
119.436299498
118.283831942
117.091765101
115.859141621
114.584986348
113.268303995
111.908068664
110.503221003
109.052659495
107.555224091
106.00968563
104.41473144
102.76894972
101.070811296
99.318651781
97.5106572548
95.6448580132
93.7191395813
91.7312876044
89.6790960552
87.5605854834
85.3744233175
83.1206785365
80.8021090143
78.4262636822
76.0087408931
73.5764161479
71.1686449554
146.054865244
145.9048549
145.718098418
145.501991739
145.262283984
145.009460711
144.750821306
144.490080677
144.228711549
143.966787719
143.703568529
143.437930789
143.168634168
142.894457572
142.614257581
142.326984375
142.031676447
141.727446439
141.413464759
141.088944164
140.753126594
140.40527259
140.044653087
139.670542391
139.282216739
138.878945264
138.459992866
138.024616323
137.572063398
137.101572201
136.612370837
136.103677154
135.574698881
135.024633796
134.452670057
133.85798636
133.239752491
132.597129585
131.929270887
131.235322947
130.514427271
129.765717178
128.988319247
128.181356297
127.343947214
126.475207094
125.574247899
124.640179034
123.672107596
122.669138695
121.630375795
120.554919945
119.44186961
118.290319938
117.099361802
115.868080377
114.595553809
113.280845856
111.923011287
110.521080349
109.07406201
107.580936581
106.040649684
104.452104333
102.814155987
101.125609228
99.3852184843
97.5916978586
95.7437458489
93.8400973969
91.8796200924
89.8614839817
87.7854431924
85.6523101452
83.4646984404
81.2281415787
78.9526758464
76.6549057678
74.3595110206
72.0984985012
146.012589358
145.863141476
145.686725095
145.482985716
145.253451539
145.007741368
144.753379359
144.494738844
144.234029963
143.971933919
143.708135012
143.441775603
143.171764361
142.896952782
142.616224211
142.328530479
142.032899531
141.728428787
141.414272841
141.089630032
140.75373009
140.405823656
140.045173943
139.671050254
139.282721259
138.879456263
138.460517063
138.025158697
137.572627956
137.102162434
136.612989948
136.104328372
135.575385629
135.025359867
134.453439788
133.858804927
133.240626156
132.598066379
131.930281196
131.236419307
130.515620979
129.767023149
128.989757395
128.182950962
127.345727774
126.477209145
125.57651463
124.642762877
123.675072253
122.672561432
121.634350132
120.559559484
119.447312518
118.296734277
117.106951722
115.877093489
114.606290678
113.293671392
111.938369743
110.539516038
109.0962389
107.607664422
106.072916793
104.491119084
102.861398059
101.182893279
99.4547740199
97.6762690729
95.8467153563
93.9656399433
92.0328879016
90.0488259929
88.0146491886
85.932848998
83.8078719657
81.6470134863
79.4615236782
77.267813696
75.0879275835
72.9480435641
145.993313328
145.843435258
145.671471481
145.473534823
145.248971946
145.006851028
144.754713825
144.497202751
144.236873546
143.974710545
143.710618704
143.443882498
143.173492531
142.898341459
142.617328704
142.329408111
142.033602595
141.729001713
141.414751684
141.090043127
140.754099187
140.40616517
140.045500038
139.671369765
139.283041719
138.879782477
138.460852963
138.025507519
137.572992537
137.102545442
136.613394053
136.104756471
135.575841029
135.025846381
134.453961909
133.859368129
133.241237138
132.598733123
131.931012849
131.237226251
130.516518174
129.768027861
128.990890165
128.184236672
127.347196641
126.478897874
125.578467838
124.645034704
123.677728394
122.675681714
121.638031459
120.563919542
119.452494179
118.302911049
117.114334518
115.885938638
114.616909194
113.306443944
111.953755572
110.558074747
109.118649716
107.634753761
106.105690356
104.530801613
102.90948144
101.241195414
99.5255106957
97.7621406685
95.9510105355
94.0923578283
92.1868746266
90.2359301536
88.2418643011
86.2084305366
84.141336819
82.0489281696
79.9429278602
77.8390896014
75.7571032936
73.7188925457
145.993316229
145.84345161
145.6714987
145.473571156
145.249016606
145.006903161
144.754772519
144.497267184
144.236943051
143.974784581
143.710696848
143.443964437
143.173578038
142.898430392
142.617420987
142.329503721
142.033701568
141.729104125
141.414857637
141.090152745
140.754212631
140.406282671
140.045621935
139.671496513
139.28317396
138.879920881
138.460998433
138.025661235
137.573155927
137.102720116
136.613582004
136.104960185
135.576063539
135.026091351
134.454233725
133.85967208
133.241579639
132.599121946
131.931457528
131.237738708
130.517112405
129.768720861
128.991702698
128.185194001
127.348329401
126.480243316
125.580071165
124.646950741
123.680023752
122.678437252
121.641345316
120.56791092
119.457307608
118.308722034
117.121355879
115.894428783
114.627180485
113.318877647
111.968812011
110.57631504
109.140752591
107.661542633
106.138163961
104.570170564
102.957212232
101.299061605
99.5956514249
97.8471310683
96.0539460674
94.2169464298
92.337560994
90.4180910659
88.4616499756
86.4728597356
84.4582360925
82.4266807899
80.3899796366
78.3631496809
76.3640932838
74.4119031505
146.012598102
145.863190889
145.686807349
145.483095466
145.253586367
145.007898529
144.753556064
144.494932675
144.234238929
143.972156389
143.708369732
143.442021637
143.172021047
142.89721969
142.616501113
142.328817332
142.033196438
141.728735968
141.414590599
141.089958751
140.754070271
140.406175992
140.04553938
139.671430153
139.283117458
138.87987082
138.460952639
138.025618699
137.573116537
137.102684557
136.613551633
136.104936959
135.57605008
135.026091025
134.454250737
133.859711591
133.241647983
132.599226825
131.931608338
131.237946825
130.517391582
129.769087927
128.992178171
128.185802795
127.349101784
126.481216018
125.581288793
124.648467476
123.681905306
122.680763324
121.644212707
120.571437049
119.461634869
118.314023295
117.127840627
115.902351183
114.636848876
113.330665228
111.983171069
110.593789523
109.162007394
107.687377985
106.169545008
104.608260151
103.003408561
101.355045914
99.6634582701
97.9292304582
96.1532510256
94.3368952562
92.4821396574
90.5916679295
88.6694572691
86.7207658197
84.7525848631
82.7740675814
80.7968871419
78.8354475172
76.906465175
75.0273797678
146.054879989
145.904938472
145.718237339
145.502176743
145.262510831
145.009724658
144.751117612
144.490405282
144.229061113
143.967159553
143.703960558
143.438341453
143.169062378
142.894902634
142.61471914
142.327462368
142.032171041
141.72795799
141.413993776
141.089491313
140.753692767
140.405858958
140.045261126
139.671174418
139.282875351
138.879634089
138.460716367
138.025380018
137.572874048
137.102438021
136.613301737
136.104685176
135.575798619
135.025842901
134.454009859
133.85948284
133.241437299
132.599041539
131.93145743
131.237841204
130.517344496
129.769115537
128.992300124
128.186043016
127.3494894
126.481786397
125.582084862
124.649541341
123.683320195
122.682596045
121.646556322
120.574404488
119.465363082
118.318678124
117.133623214
115.909505081
114.645669185
113.34150824
111.996467975
110.610061522
109.181879595
107.711609307
106.199050322
104.644142396
103.046999484
101.407935453
99.7275047104
98.006566192
96.2464405185
94.4489420254
92.6165254014
90.7524520457
88.8610307099
86.9478633319
85.0201683595
83.0871175273
81.1601516818
79.2532165549
77.3824436481
75.5647462607
146.128965466
145.973456352
145.767232415
145.530733894
145.275315488
145.012085446
144.747514508
144.484042192
144.221940482
143.960382677
143.698035807
143.43342432
143.16511927
142.89181281
142.612333336
142.325633699
142.030769282
141.726874478
141.413141429
141.088802408
140.753115861
140.40535571
140.044803517
139.670742425
139.282454181
138.879214169
138.460291231
138.024945583
137.572428006
137.101979428
136.612830743
136.104202833
135.575306744
135.02534414
134.453507699
133.858981683
133.240942578
132.598559984
131.930997321
131.237412714
130.516960101
129.768790321
128.99205243
128.185895267
127.349468851
126.481926144
125.582425096
124.650130835
123.684218123
122.683874228
121.648301962
120.576723081
119.468382826
118.322554153
117.138543476
115.915696934
114.653407961
113.351126147
112.008367605
110.624727075
109.199895296
107.733676412
106.226009054
104.676992987
103.086919843
101.456328528
99.7860537338
98.0772786177
96.3316144942
94.5512031628
92.7388426158
90.8981325464
89.0336545458
87.1511828182
85.2579465331
83.3629288504
81.4772092106
79.6143565996
77.790380779
76.0226899421
146.252088637
146.076318047
145.835226076
145.567983317
145.290869826
145.014294999
144.742659234
144.476203655
144.21347832
143.952504595
143.691248878
143.427845269
143.160669295
142.888330947
142.609638002
142.323553287
142.029155142
141.725604396
141.412118447
141.087951635
140.752380639
140.404694002
140.044184714
139.670144353
139.28186106
138.878615303
138.459679397
138.0243161
137.571778079
137.101307702
136.612137002
136.103487757
135.574571818
135.024591626
134.45274069
133.858204107
133.240159327
132.597776958
131.93022173
131.236653533
130.516228437
129.768099787
128.991419777
128.185340864
127.349017403
126.481607744
125.582276309
124.650195963
123.684550975
122.684539926
121.649379583
120.578308394
119.470591801
118.325527229
117.142450545
115.92074325
114.659841894
113.359247227
112.018537036
110.637380688
109.215555722
107.7529691
106.24968193
104.70594041
103.122211036
101.499222287
99.8380171672
98.1400170418
96.4070966078
94.6416688412
92.8467887015
91.0262732637
89.1848462348
87.32829835
85.4636910478
83.5996174121
81.7465916605
79.9176941098
78.1289552305
76.3990482196
146.455488149
146.223861284
145.922578264
145.611704286
145.306955028
145.015008952
144.736098826
144.467028665
144.204116912
143.944075199
143.684144664
143.422089247
143.156117599
142.884781614
142.606885403
142.321412653
142.027471211
141.724252091
141.410999973
141.086992258
140.751524349
140.403899349
140.043421694
139.669392025
139.281103746
138.877842409
138.458883792
138.023493124
137.570924857
137.100422697
136.611219683
136.102538431
135.57359154
135.023582162
134.451704584
133.857144829
133.239081345
132.596685775
131.929124019
131.235557228
130.515143065
129.767036962
128.990393773
128.184369079
127.348121156
126.480813037
125.581614824
124.649706367
123.684280234
122.684544919
121.649729437
120.579086987
119.471900642
118.32748934
117.145214998
115.924489916
114.664787053
113.365651361
112.026713687
110.647706488
109.228482865
107.769039265
106.269541625
104.730357265
103.152092475
101.535636686
99.8822132435
98.1934383849
96.471390792
94.7186881785
92.9385723086
91.1350008909
89.3127482026
87.4775110789
85.63604148
83.7963335082
81.9680087603
80.1632216832
78.3974876422
76.6906616824
146.789543101
146.426371199
146.026628065
145.657758805
145.320246554
145.012232255
144.726942731
144.456301357
144.193983298
143.935363675
143.677026257
143.416441064
143.151709634
142.881365891
142.604234824
142.319334926
142.025810828
141.722887181
141.409837193
141.085961606
140.750574515
140.402992164
140.042530382
139.6684964
139.280190022
138.876901089
138.457908503
138.022479781
137.569870927
137.099326702
136.610080908
136.101356831
135.572367622
135.022316854
134.450399178
133.855801228
133.237702429
132.595275403
131.927687235
131.234100594
130.513675285
129.76556827
128.988936503
128.182938286
127.346734966
126.479493323
125.580388229
124.648605141
123.683343771
122.683820682
121.649274733
120.578971411
119.472208018
118.328320985
117.146693332
115.926762722
114.668033908
113.370089237
112.032603307
110.655360874
109.238276854
107.78142026
106.285042002
104.749607794
103.175836629
101.564745068
99.9176979208
98.2364649801
96.5232837264
94.7809263579
93.0127686982
91.2228574323
89.4159691061
87.5976548722
85.7742795059
83.9530603674
82.1423005741
80.3523820137
78.5965199051
76.8933673028
147.339316133
146.685375312
146.133195855
145.695712749
145.324203328
145.002196551
144.713175244
144.443007328
144.18260073
143.926168907
143.669828807
143.41090033
143.14747276
142.878120216
142.601722532
142.317351958
142.024199993
141.721530032
141.408645975
141.084872167
140.749540256
140.401979833
140.041511835
139.667455975
139.279116829
138.875787461
138.456749287
138.021271713
137.568612285
137.098016691
136.608719424
136.099944407
135.570905455
135.02080666
134.448843118
133.854201599
133.236060693
132.593594177
131.925970141
131.232352054
130.511899859
129.763772842
128.987129876
128.181131368
127.344941282
126.477729487
125.578674479
124.646966217
123.681809364
122.682427435
121.64806684
120.578003029
119.471544524
118.328041528
117.146893489
115.927557834
114.66956117
113.372514066
112.036124821
110.660217858
109.244754978
107.789860452
106.295850048
104.763264864
103.192910167
101.58589961
99.9437047224
98.2682092437
96.5617662012
94.8272613948
93.0681683562
91.2885971448
89.4933212287
87.687769223
85.8779586245
84.0702777183
82.2713879709
80.4888497755
78.7297773834
77.0028664293
148.334553651
146.976737164
146.185988989
145.686144355
145.295302102
144.971544346
144.687130753
144.422622943
144.167219484
143.914774339
143.661462091
143.404770594
143.142963817
142.874765838
142.599176313
142.315360036
142.022578622
141.720147404
141.407408952
141.083714408
140.748404041
140.400828257
140.040334979
139.666240799
139.277854056
138.874471185
138.455375216
138.019834553
137.567108429
137.096444037
136.607076508
136.098230122
135.569118922
135.018947277
134.446910756
133.852197005
133.233987121
132.591454292
131.923766581
131.230088212
130.509580474
129.761403123
128.984715977
128.178680886
127.342463529
126.475235902
125.57617898
124.644485806
123.679364833
122.680044186
121.645775268
120.575839837
119.46955432
118.326278055
117.145421571
115.926456237
114.668926034
113.372459834
112.036788788
110.661764663
109.247381543
107.793801287
106.301383236
104.770718411
103.202668619
101.598410861
99.9594866595
98.287853848
96.5859387247
94.8567157135
93.1037328046
91.3311581622
89.5437971835
87.7470672046
85.9468655153
84.1490591658
82.3591780981
80.5819861236
78.8122869203
77.0205756407
150.127662116
147.199563644
146.086034264
145.558961529
145.191859504
144.897283811
144.635823944
144.387455898
144.143098272
143.898184471
143.650019888
143.396852052
143.137451
142.870883185
142.596383829
142.313281567
142.020952496
141.718791827
141.406196825
141.082559809
140.747275301
140.399703255
140.039174643
139.665024213
139.276569848
138.873112425
138.453938238
138.018322459
137.565522914
137.094785324
136.605344928
136.096426104
135.567242896
135.016999796
134.444892379
133.850107927
133.231826504
132.589222162
131.921463614
131.227715535
130.507139601
129.758896168
128.982145832
128.176051056
127.33977861
126.472501479
125.573402156
124.641675099
123.676530692
122.677199453
121.642935637
120.573024068
119.466785421
118.32358383
117.14283534
115.924017928
114.666683136
113.370469939
112.035121155
110.660502207
109.246623376
107.793665612
106.302010848
104.772276547
103.205355311
101.602459239
99.9651696211
98.2954937024
96.5959284822
94.8694794761
93.1197519733
91.3509828172
89.568061439
87.7765067315
85.9823650998
84.1921339865
82.4122342421
80.647449883
78.8773223742
76.9773974139
56.9305079368
53.378395189
50.9869676065
49.0295644282
47.3575448793
45.9007384457
44.6151610356
43.4711057421
42.4468982289
41.525790443
40.6943734107
39.9416387978
39.2583818009
38.6367995159
38.0702092502
37.5528382055
37.0796672659
36.6463062632
36.2488973975
35.8840365963
35.5487075416
35.2402292495
34.956211184
34.6945148306
34.4532219673
34.2306079172
34.0251177828
33.8353461723
33.6600215063
33.4979888132
33.3481981273
33.2096921631
33.0815968293
32.9631118927
32.8535035301
32.752097913
32.6582745307
32.5714605425
32.4911257588
32.4167769922
32.3479525033
32.2842144524
32.2251435804
32.1704033205
32.1199554364
32.0734821363
32.0305614355
31.9908180876
31.9539931191
31.9198743546
31.8882617932
31.8589656252
31.8318099654
31.8066451859
31.7833267125
31.7616897385
31.7416001042
31.722933931
31.705584008
31.6894289754
31.6743649747
31.6602989918
31.6471451499
31.6348249832
31.623266695
31.6124028069
31.6021737157
31.5925217778
31.5833948266
31.5747456253
31.5665310757
31.5587111614
31.5512472883
31.5441047332
31.5372557765
31.5306663275
31.5243142785
31.5181750258
31.5122273311
31.5064504271
31.5008261114
31.4953381374
31.4899706811
31.4847092354
31.4795439957
31.4744695256
31.4694748153
31.464548888
31.4596829505
31.4548667668
31.4500961673
31.4453621821
31.440673828
31.4360270982
31.4314007533
31.4267860774
31.4221777128
31.4175713743
31.4129627628
31.4083478192
31.4037236527
31.3990864995
31.3944328242
31.3897593432
31.3850634885
31.3803424525
31.3755926007
31.370810507
31.3659940727
31.3611404866
31.356247394
31.3513122721
31.3463328545
31.3413078687
31.3362354833
31.3311137747
31.3259411517
31.3207165913
31.3154395753
31.3101084339
31.3047226892
31.2992813619
31.2937808564
31.2882040423
31.2825163731
31.2766266226
31.2712597174
31.2660721893
31.2607444376
31.255390586
31.2500946062
31.2449192246
31.2399122733
31.2351283208
31.2306259448
31.2264615281
31.2226868757
31.2193413591
31.2164371303
31.2139272928
31.2120261437
31.2103631098
31.2087911941
31.2067177619
31.2024290343
31.1916687905
31.1643109609
31.0987059575
30.953619875
30.6585641248
30.1083744606
29.1703495472
27.7120349334
25.640885136
22.9309622909
19.6383206069
15.8813132668
11.6278324953
6.60261915777
1.57018231767
60.1118596937
56.0590550307
53.3470829468
51.1947417907
49.3928154461
47.8428969559
46.4867728012
45.2872063863
44.2180229376
43.2595873296
42.3965570051
41.6165857024
40.9095159137
40.2668539418
39.681405722
39.1470164462
38.6583751262
38.2108680025
37.8004605381
37.4236106985
37.0771897102
36.7584265926
36.4648535828
36.1942692444
35.9447021032
35.7143790337
35.5017042105
35.3052370224
35.1236707731
34.9558226325
34.8006147546
34.6570655813
34.5242777956
34.4014297352
34.2877685783
34.1826047273
34.0853009303
33.9952717026
33.9119793532
33.8349252559
33.7636545952
33.6977487742
33.6368317258
33.5805309123
33.5283748351
33.480100579
33.435411228
33.3940742282
33.3558454201
33.3204806675
33.2877604394
33.2574772101
33.2294350951
33.2034571286
33.1793693199
33.1570227133
33.1362812198
33.1170085708
33.0990780011
33.0823873359
33.0668355294
33.0523262592
33.0387706389
33.0260868925
33.0142041355
33.0030491848
32.9925560774
32.9826657792
32.9733229219
32.9644804011
32.9560897382
32.9481138952
32.9405082687
32.9332425821
32.9262834701
32.9195976636
32.9131593935
32.9069445012
32.90092862
32.8950929378
32.8894181795
32.8838852473
32.8784811444
32.8731907985
32.8679998126
32.8628893463
32.8578485429
32.8528736336
32.8479538064
32.8430837085
32.8382559355
32.833463284
32.8286931036
32.823939628
32.8192047934
32.8144807322
32.8097650663
32.805053578
32.8003414904
32.795625984
32.7909022568
32.7861678468
32.7814197974
32.776654014
32.7718677788
32.7670598509
32.7622238879
32.7573595106
32.7524618736
32.7475300357
32.742560815
32.7375517143
32.7324985706
32.7274052127
32.7222636964
32.7170764764
32.7118408137
32.7065550417
32.7012224695
32.695838558
32.6904082282
32.6849347803
32.679419352
32.6738726877
32.6683163158
32.6627626364
32.6572584554
32.6516069431
32.646058071
32.6407054266
32.6354380771
32.6303306258
32.6254507956
32.6208546505
32.6166173886
32.6128045217
32.6094888654
32.606720285
32.604540822
32.6029714997
32.6020206045
32.601517899
32.6011531679
32.600104776
32.5961357341
32.5840133469
32.5516154062
32.4740321444
32.3050509991
31.9678387735
31.3511025136
30.3191521158
28.7426574017
26.5389007361
23.6938381135
20.2680070487
16.3777597228
12.0062584113
6.89200212788
1.70382128883
62.319291046
58.3858614381
55.5187243946
53.2348123746
51.3328700389
49.7064215548
48.2904347781
47.042892718
45.9343713656
44.9430082575
44.0519033866
43.2476014602
42.5191437428
41.8574485003
41.2548856586
40.7049728224
40.2021502188
39.7416131027
39.3191779944
38.931185362
38.5744124772
38.2460117511
37.9434526657
37.6644803343
37.4070779031
37.1694332825
36.9499157457
36.747054096
36.5595137108
36.3860861058
36.225670303
36.0772623662
35.939945502
35.8128794925
35.6952932331
35.5864808942
35.4857901859
35.3926200162
35.306418269
35.2266713148
35.1529069133
35.0846833722
35.021596959
34.9632783092
34.9093595838
34.859303915
34.8130016914
34.7702034118
34.7306305283
34.6940248681
34.6601591924
34.6288209484
34.5998081384
34.5729445654
34.5480562551
34.5249845611
34.5035854114
34.4837217434
34.4652560274
34.4480783765
34.4320823393
34.417168467
34.4032448647
34.3902243097
34.3780286876
34.3665866308
34.3558335455
34.3457074678
34.3361508604
34.3271160199
34.3185510381
34.3104186607
34.3026702494
34.2952747314
34.2881873321
34.2813893404
34.2748472897
34.2685390006
34.2624359543
34.2565177444
34.2507676702
34.2451634886
34.2396901557
34.2343235408
34.2290595991
34.2238893427
34.2188009649
34.2137861015
34.2088311821
34.2039303279
34.199073301
34.1942560877
34.1894690887
34.1847053633
34.1799621928
34.1752293703
34.1705040258
34.1657807784
34.1610551842
34.1563246907
34.1515837068
34.1468295526
34.1420594406
34.1372693866
34.1324562756
34.1276188948
34.1227509581
34.1178519732
34.1129178108
34.1079467569
34.1029358477
34.0978837545
34.0927852661
34.0876445573
34.0824545901
34.077217157
34.0719306125
34.0665929251
34.0612084994
34.055773768
34.0502936338
34.0447731864
34.03921485
34.033631868
34.0280403146
34.0224455281
34.0168626311
34.011322368
34.0058740459
34.0005047089
33.9951755519
33.9900696582
33.9852730706
33.9808300168
33.9768241965
33.9733306771
33.9704399129
33.9681885596
33.9666478828
33.9658491038
33.9657840363
33.9662756342
33.9669034436
33.96658107
33.9624995077
33.9483900405
33.9101090858
33.8194786908
33.6255093764
33.2455140048
32.5629130594
31.4399770099
29.7509473951
27.4222278046
24.4498903444
20.8971529641
16.8770514697
12.3872592704
7.18102391867
1.83526148965
64.1234690726
60.3987698027
57.4947994215
55.1396413065
53.1695761568
51.4852650487
50.0215449695
48.7345335563
47.5929802039
46.5735581093
45.658250318
44.8327646516