/*--------------------------------*- C++ -*----------------------------------*\
| =========                 |                                                 |
| \\      /  F ield         | OpenFOAM: The Open Source CFD Toolbox           |
|  \\    /   O peration     | Version:  2106                                  |
|   \\  /    A nd           | Website:  www.openfoam.com                      |
|    \\/     M anipulation  |                                                 |
\*---------------------------------------------------------------------------*/
FoamFile
{
    version     2.0;
    format      ascii;
    arch        "LSB;label=32;scalar=64";
    class       volVectorField;
    location    "0.37";
    object      U;
}
// * * * * * * * * * * * * * * * * * * * * * * * * * * * * * * * * * * * * * //

dimensions      [0 1 -1 0 0 0 0];

internalField   nonuniform List<vector> 
11200
(
(0.662462406247 0.150569440853 0)
(0.558948687406 0.103243388522 0)
(0.383850766966 0.0513512254666 0)
(0.283747635128 0.0248708570102 0)
(0.232075316351 0.0124170470181 0)
(0.201908636161 0.00662281824664 0)
(0.183197983234 0.00380291521143 0)
(0.171276538569 0.00231587033246 0)
(0.16351035602 0.00146450664786 0)
(0.158388819581 0.000944892725639 0)
(0.155006681137 0.000615177724392 0)
(0.152786725289 0.000402235338655 0)
(0.151346572012 0.000264234432668 0)
(0.150428328566 0.000175252797563 0)
(0.149856714451 0.000118363340636 0)
(0.149512500474 8.2162151604e-05 0)
(0.149314925896 5.88672521771e-05 0)
(0.149209550051 4.33159649723e-05 0)
(0.149159677239 3.29336973238e-05 0)
(0.149142425437 2.81857112867e-05 0)
(0.149144571007 2.76841017567e-05 0)
(0.149156837053 2.98902244742e-05 0)
(0.149172449062 3.30510741622e-05 0)
(0.14918798627 3.59669455914e-05 0)
(0.149202184018 3.86024940109e-05 0)
(0.149214442695 4.10413864961e-05 0)
(0.149224595132 4.33183398562e-05 0)
(0.149232748557 4.54645313975e-05 0)
(0.149239139885 4.75193583593e-05 0)
(0.149244051375 4.95300153155e-05 0)
(0.149247768267 5.1558523889e-05 0)
(0.149250557995 5.36956863863e-05 0)
(0.149252616826 5.60242878497e-05 0)
(0.149254114022 5.84058958266e-05 0)
(0.149255182002 6.07671508472e-05 0)
(0.149255906872 6.30885583648e-05 0)
(0.149256384699 6.53801317649e-05 0)
(0.149256699196 6.76547338373e-05 0)
(0.149256904578 6.99240526899e-05 0)
(0.149257030678 7.2194331364e-05 0)
(0.149257099551 7.44666022068e-05 0)
(0.149257129513 7.67417332045e-05 0)
(0.149257132906 7.90197711926e-05 0)
(0.149257118306 8.12997263391e-05 0)
(0.149257091493 8.35796359094e-05 0)
(0.149257056394 8.58571939777e-05 0)
(0.149257016406 8.81297363909e-05 0)
(0.149256974816 9.0393937351e-05 0)
(0.149256935683 9.2646427972e-05 0)
(0.149256903871 9.48844644418e-05 0)
(0.14925688643 9.71050593166e-05 0)
(0.149256893448 9.93049462456e-05 0)
(0.149256938407 0.000101481325326 0)
(0.149257040318 0.00010363069891 0)
(0.149257225438 0.000105748848085 0)
(0.149257530909 0.000107829930579 0)
(0.149258008649 0.000109866438141 0)
(0.1492587324 0.000111849934673 0)
(0.14925981309 0.000113766623763 0)
(0.149261407938 0.000115591979587 0)
(0.14926376378 0.000117269689671 0)
(0.149267288783 0.000118717086798 0)
(0.149272449874 0.000119974388838 0)
(0.149279892973 0.000121235956559 0)
(0.149290653916 0.000122965467656 0)
(0.14930625554 0.000125338608752 0)
(0.149329082512 0.000128118242845 0)
(0.149362833612 0.000131077987731 0)
(0.149413102251 0.000134003601605 0)
(0.14948811855 0.00013678164459 0)
(0.149599818306 0.000140689990704 0)
(0.14977103777 0.000151553595159 0)
(0.150039538625 0.000172276874709 0)
(0.150468468745 0.000202524201673 0)
(0.151193619292 0.000232447096843 0)
(0.152492616433 0.00019164781556 0)
(0.155021574165 -0.000216759048879 0)
(0.162374716728 -0.00210996671336 0)
(0.187702220563 -0.0107879283973 0)
(0.204356553178 -0.0496565545493 0)
(0.965408258508 0.289214704867 0)
(0.961962878076 0.25265604062 0)
(0.823574426763 0.159021443531 0)
(0.698139413195 0.0959957335428 0)
(0.610225511949 0.0582481162562 0)
(0.54897153887 0.0362148545914 0)
(0.506588931761 0.023161285634 0)
(0.477567306212 0.01513751526 0)
(0.457745523756 0.0100177552347 0)
(0.444228488638 0.0066581419868 0)
(0.435053323125 0.00441555811911 0)
(0.428873138758 0.00290686883906 0)
(0.424754216211 0.00189106228523 0)
(0.422046656387 0.00121004942464 0)
(0.420297805568 0.000757166993902 0)
(0.41919317993 0.000459258219624 0)
(0.418515557133 0.000265855708838 0)
(0.418116393387 0.0001423990287 0)
(0.417895775987 6.61077507138e-05 0)
(0.417786714388 2.30908191355e-05 0)
(0.417745291766 1.40676585212e-06 0)
(0.417742009002 -1.01628664623e-05 0)
(0.417756602857 -1.37136161893e-05 0)
(0.417778557833 -1.32666921766e-05 0)
(0.417802848414 -1.08344338729e-05 0)
(0.417826215568 -7.49159756478e-06 0)
(0.417846966493 -3.87572330559e-06 0)
(0.417864503062 -3.56918576908e-07 0)
(0.41787882967 2.86365683105e-06 0)
(0.417890261906 5.68233535322e-06 0)
(0.417899271418 8.03510938894e-06 0)
(0.417906351582 9.83738904692e-06 0)
(0.417911703729 1.10063992721e-05 0)
(0.417915560589 1.18592694197e-05 0)
(0.41791829977 1.2681294086e-05 0)
(0.417920195869 1.34385392738e-05 0)
(0.417921490376 1.41126972459e-05 0)
(0.417922374935 1.47279121146e-05 0)
(0.417922976442 1.5312948384e-05 0)
(0.417923366991 1.58815074519e-05 0)
(0.417923600267 1.64343091869e-05 0)
(0.417923721123 1.69764543898e-05 0)
(0.417923760698 1.75117552229e-05 0)
(0.417923740849 1.80436174768e-05 0)
(0.41792367735 1.85750115231e-05 0)
(0.41792358185 1.91085317669e-05 0)
(0.417923463719 1.96458447498e-05 0)
(0.417923332331 2.01886378068e-05 0)
(0.417923199572 2.07388794653e-05 0)
(0.417923079087 2.12989367796e-05 0)
(0.417922988503 2.18690932114e-05 0)
(0.417922953318 2.24488257608e-05 0)
(0.417923007869 2.30381493253e-05 0)
(0.417923199224 2.36364807588e-05 0)
(0.417923592947 2.42434462982e-05 0)
(0.417924282045 2.48587569015e-05 0)
(0.417925400487 2.54781516274e-05 0)
(0.417927140191 2.60915075132e-05 0)
(0.417929779893 2.66820393427e-05 0)
(0.417933709069 2.72175955099e-05 0)
(0.417939531232 2.76487407499e-05 0)
(0.417948345483 2.79277271406e-05 0)
(0.417961637299 2.82149500477e-05 0)
(0.417981544819 2.77545910952e-05 0)
(0.418010830412 2.51385131415e-05 0)
(0.418053105739 1.93009734208e-05 0)
(0.418114563842 9.43890486095e-06 0)
(0.418205325036 -5.98233167031e-06 0)
(0.418340990148 -2.94866357455e-05 0)
(0.418546450577 -6.47539424528e-05 0)
(0.418863596981 -0.000115974345453 0)
(0.419362016906 -0.000188116257405 0)
(0.420155162638 -0.000307886212219 0)
(0.421446666964 -0.000532842333983 0)
(0.423628129851 -0.000999792795261 0)
(0.42741816009 -0.00209040180808 0)
(0.434238752527 -0.00485613483473 0)
(0.448264562638 -0.012253312203 0)
(0.474642147747 -0.0342399464021 0)
(0.478161320638 -0.0987647885136 0)
(1.02222097011 0.238416187172 0)
(1.08213754941 0.295926653623 0)
(1.03447726253 0.239503067366 0)
(0.954615455109 0.174290164983 0)
(0.879992105732 0.121345468277 0)
(0.818614485235 0.0830993833023 0)
(0.771410896976 0.0567316658533 0)
(0.736634433224 0.0387409672995 0)
(0.71162447222 0.0264327863878 0)
(0.693916658894 0.0179731051031 0)
(0.681541448506 0.0121424494283 0)
(0.673000154813 0.0081249105132 0)
(0.667180685995 0.00536632366677 0)
(0.663271708508 0.00348444688455 0)
(0.660688525793 0.00221256248088 0)
(0.659014186983 0.00136338135547 0)
(0.657954490258 0.000805242112445 0)
(0.657304182109 0.000445914177514 0)
(0.656921750784 0.000221065969346 0)
(0.656710175497 8.55787036684e-05 0)
(0.656603304109 8.35608054657e-06 0)
(0.656561749749 -3.37204984479e-05 0)
(0.656557844478 -5.68542342211e-05 0)
(0.656571315249 -6.68730770198e-05 0)
(0.656592839592 -6.84805151837e-05 0)
(0.656616654169 -6.55593488214e-05 0)
(0.656639452162 -6.05488300595e-05 0)
(0.656659627503 -5.485950733e-05 0)
(0.6566765956 -4.92755874105e-05 0)
(0.656690334645 -4.42040097397e-05 0)
(0.656701090868 -3.98396437514e-05 0)
(0.65670924757 -3.63012432163e-05 0)
(0.656715500224 -3.36949273381e-05 0)
(0.656720538329 -3.18562126896e-05 0)
(0.656724405381 -3.08088901061e-05 0)
(0.656727116142 -3.03016672118e-05 0)
(0.65672898134 -3.02458905355e-05 0)
(0.656730280738 -3.05567153144e-05 0)
(0.656731182301 -3.10846954971e-05 0)
(0.65673177689 -3.17472489535e-05 0)
(0.656732139822 -3.2514508416e-05 0)
(0.656732337347 -3.33510239642e-05 0)
(0.656732414988 -3.42326921455e-05 0)
(0.656732406484 -3.51403671299e-05 0)
(0.65673233634 -3.60584615137e-05 0)
(0.656732222237 -3.69760776339e-05 0)
(0.656732079099 -3.78860041607e-05 0)
(0.656731922243 -3.87823463632e-05 0)
(0.656731769029 -3.96602491942e-05 0)
(0.656731637673 -4.05145656754e-05 0)
(0.656731552091 -4.1341879262e-05 0)
(0.656731548436 -4.21381397085e-05 0)
(0.656731676394 -4.2902085498e-05 0)
(0.656732005198 -4.3637740189e-05 0)
(0.656732632886 -4.43589214861e-05 0)
(0.656733695389 -4.50948494583e-05 0)
(0.656735383189 -4.59024071651e-05 0)
(0.656737974734 -4.68774460704e-05 0)
(0.656741878494 -4.81421096542e-05 0)
(0.656747691677 -4.99205587958e-05 0)
(0.656756350499 -5.27233909918e-05 0)
(0.65676950422 -5.75449536145e-05 0)
(0.656788458288 -6.51952535912e-05 0)
(0.65681465688 -7.65375898795e-05 0)
(0.656851958978 -9.32654649816e-05 0)
(0.656907076847 -0.000117775544343 0)
(0.656989384044 -0.000153269247915 0)
(0.657112672898 -0.000205033562825 0)
(0.657298761209 -0.000281589665681 0)
(0.657583042053 -0.000396810102116 0)
(0.658023640417 -0.000575041658993 0)
(0.658709742014 -0.000863545481409 0)
(0.659788386337 -0.00135238481587 0)
(0.661517084806 -0.00221465754504 0)
(0.664337947722 -0.00381286580004 0)
(0.668946638896 -0.00694572518015 0)
(0.676368889445 -0.013351711518 0)
(0.688612288361 -0.0268415495512 0)
(0.705235451632 -0.0563152250683 0)
(0.700485431523 -0.113074531962 0)
(1.02251475936 0.170807153004 0)
(1.1013897767 0.27649647958 0)
(1.11752429609 0.266664799754 0)
(1.09214664939 0.219901698794 0)
(1.05187820307 0.168168846688 0)
(1.01020826967 0.123567395154 0)
(0.973494731106 0.0888375199195 0)
(0.943864590334 0.0630063703043 0)
(0.921142828524 0.044223203609 0)
(0.904284097378 0.0307423933323 0)
(0.892074889904 0.0211562958029 0)
(0.883404527773 0.014395470937 0)
(0.877352681634 0.00966795055732 0)
(0.873197709287 0.00639383873571 0)
(0.87039291976 0.00415116487288 0)
(0.868534015816 0.00263448927307 0)
(0.867327602794 0.00162401427016 0)
(0.86656418425 0.000962672061703 0)
(0.866096413823 0.000539118337746 0)
(0.865822161671 0.000275149843236 0)
(0.865671310792 0.000117065387488 0)
(0.865595054992 2.87902469897e-05 0)
(0.86556399249 -1.93261912772e-05 0)
(0.865561180073 -4.12622350451e-05 0)
(0.86557251971 -4.76663697583e-05 0)
(0.865589522002 -4.55260264613e-05 0)
(0.865607828551 -3.91567875148e-05 0)
(0.865625166212 -3.11458917932e-05 0)
(0.865640451734 -2.2964260142e-05 0)
(0.865653318135 -1.53797254029e-05 0)
(0.865663796564 -8.72149799912e-06 0)
(0.865672090163 -3.04247313746e-06 0)
(0.865678450684 1.73631532319e-06 0)
(0.865683085695 5.46776227366e-06 0)
(0.865686411686 8.03580935491e-06 0)
(0.865688815386 9.79311722788e-06 0)
(0.865690451641 1.11463425405e-05 0)
(0.865691616424 1.22906626323e-05 0)
(0.865692486404 1.32585705331e-05 0)
(0.865693080889 1.4144381569e-05 0)
(0.865693449069 1.49386618271e-05 0)
(0.865693656238 1.56640023773e-05 0)
(0.865693741383 1.63362324611e-05 0)
(0.865693736003 1.69718429012e-05 0)
(0.865693662257 1.75857830648e-05 0)
(0.865693535588 1.81878418062e-05 0)
(0.865693370225 1.87856742524e-05 0)
(0.865693182025 1.93853816435e-05 0)
(0.865692991332 1.99950084566e-05 0)
(0.865692821012 2.06241882706e-05 0)
(0.865692701477 2.12575161936e-05 0)
(0.865692674919 2.1882115899e-05 0)
(0.865692794825 2.24813917131e-05 0)
(0.865693131969 2.30292207276e-05 0)
(0.865693782576 2.34884567586e-05 0)
(0.865694877864 2.38257369485e-05 0)
(0.865696602917 2.39994840385e-05 0)
(0.865699251076 2.38889463788e-05 0)
(0.86570322543 2.33528055478e-05 0)
(0.865708941143 2.19732567067e-05 0)
(0.865716878118 1.9188588554e-05 0)
(0.865728651393 1.42799609577e-05 0)
(0.865746844135 5.42967204876e-06 0)
(0.865774429941 -8.94799948112e-06 0)
(0.865815276863 -3.08507104871e-05 0)
(0.865875309736 -6.42431048194e-05 0)
(0.865963871048 -0.000115999247299 0)
(0.866095472869 -0.000196876903832 0)
(0.866292663604 -0.000324131765455 0)
(0.866590258814 -0.000526232713608 0)
(0.867041852375 -0.000852116378192 0)
(0.867732492586 -0.00138870132614 0)
(0.868798498763 -0.00228472780697 0)
(0.870453071764 -0.00381473533293 0)
(0.873015007823 -0.00650288517771 0)
(0.876883054917 -0.0113584375962 0)
(0.882379491927 -0.0202502056654 0)
(0.88968720319 -0.0364484097338 0)
(0.896360783781 -0.0654841698995 0)
(0.886529788164 -0.110029124903 0)
(1.01287875557 0.118961024197 0)
(1.08820672618 0.231806938255 0)
(1.13741370378 0.253106765498 0)
(1.15409090762 0.228992753811 0)
(1.14994215124 0.188368358597 0)
(1.13538469461 0.14657984348 0)
(1.11758898274 0.110150965357 0)
(1.10059503067 0.080816222355 0)
(1.08612459452 0.0582265775155 0)
(1.07459094363 0.0413189870687 0)
(1.06579148217 0.0289160231084 0)
(1.05928799987 0.0199601032688 0)
(1.0545997678 0.0135815628972 0)
(1.05129075945 0.00909744479375 0)
(1.04899982824 0.00598615399058 0)
(1.04744336959 0.00385696478734 0)
(1.04640648008 0.00242159489166 0)
(1.04573054963 0.00147014633459 0)
(1.04530098134 0.000851698174129 0)
(1.04503647414 0.000459013159169 0)
(1.04488010413 0.000216754457458 0)
(1.04479248215 7.30160831629e-05 0)
(1.04474861217 -5.50525038878e-06 0)
(1.04473170823 -4.40092109337e-05 0)
(1.04472945301 -5.93864288992e-05 0)
(1.04473493282 -6.1720226125e-05 0)
(1.04474387751 -5.72465329031e-05 0)
(1.04475375996 -4.98041576572e-05 0)
(1.04476320094 -4.1644294857e-05 0)
(1.04477153011 -3.39881123771e-05 0)
(1.04477849683 -2.74221053671e-05 0)
(1.04478408823 -2.21495929551e-05 0)
(1.04478844991 -1.81260077921e-05 0)
(1.04479179228 -1.51371796057e-05 0)
(1.04479436907 -1.28063673922e-05 0)
(1.04479647294 -1.10102697978e-05 0)
(1.04479821566 -9.52210314037e-06 0)
(1.04479954272 -8.23349261537e-06 0)
(1.04480052508 -7.21521762315e-06 0)
(1.04480121421 -6.54686772704e-06 0)
(1.04480163219 -6.16804258608e-06 0)
(1.04480186748 -5.96035151718e-06 0)
(1.04480196602 -5.8729849293e-06 0)
(1.04480196626 -5.85678418389e-06 0)
(1.04480189261 -5.87091936277e-06 0)
(1.04480176182 -5.89566513596e-06 0)
(1.04480159057 -5.92139678679e-06 0)
(1.04480139933 -5.94382975362e-06 0)
(1.04480121405 -5.96596404862e-06 0)
(1.0448010403 -6.00084295963e-06 0)
(1.04480089308 -6.03230816733e-06 0)
(1.044800819 -6.05835642382e-06 0)
(1.04480087345 -6.085299887e-06 0)
(1.04480113199 -6.12749917765e-06 0)
(1.04480171947 -6.2259343143e-06 0)
(1.04480281502 -6.4995319515e-06 0)
(1.04480460511 -7.20426913788e-06 0)
(1.04480738739 -8.61999588072e-06 0)
(1.044811471 -1.12383479796e-05 0)
(1.04481732729 -1.50738464301e-05 0)
(1.04482596663 -2.00080323457e-05 0)
(1.04483854246 -2.62498736648e-05 0)
(1.04485635341 -3.60685788186e-05 0)
(1.04488169662 -5.24480378431e-05 0)
(1.04491804348 -7.96037698887e-05 0)
(1.04497054812 -0.000123778291366 0)
(1.04504681625 -0.000194741847896 0)
(1.04515819677 -0.000308070498968 0)
(1.04532183481 -0.000488924091476 0)
(1.04556359005 -0.000778319368857 0)
(1.04592213519 -0.00124356149432 0)
(1.04645531114 -0.00199626979523 0)
(1.04724720821 -0.00322694773408 0)
(1.04841073341 -0.00526631139682 0)
(1.05007313806 -0.00869109423362 0)
(1.05229100342 -0.014494849016 0)
(1.05482025764 -0.0242842910502 0)
(1.05687128168 -0.0403688663617 0)
(1.05573843127 -0.0655872498201 0)
(1.04212487506 -0.0994418141775 0)
(1.004474839 0.0814039987238 0)
(1.0691723909 0.181288540789 0)
(1.13080571845 0.216950419958 0)
(1.17375004314 0.210789156015 0)
(1.19865269374 0.183690076827 0)
(1.21019992042 0.149751683185 0)
(1.21350259368 0.116779144259 0)
(1.21251727139 0.088220678665 0)
(1.20973100892 0.0650481526289 0)
(1.20651121788 0.047020911517 0)
(1.20351915076 0.0334068117666 0)
(1.20101146451 0.0233557357113 0)
(1.19903445635 0.0160720162685 0)
(1.19753877398 0.0108795147194 0)
(1.19644129544 0.00723418740575 0)
(1.1956555507 0.00471351626646 0)
(1.19510483852 0.00299762567563 0)
(1.19472641037 0.00184915683913 0)
(1.19447141655 0.00109495650116 0)
(1.19430309613 0.000610608062784 0)
(1.19419444903 0.000307984057146 0)
(1.19412615805 0.00012576670607 0)
(1.19408510248 2.2221853234e-05 0)
(1.19406183777 -3.24530674646e-05 0)
(1.19404953149 -5.72718748386e-05 0)
(1.19404402718 -6.45976089543e-05 0)
(1.1940425246 -6.23752861262e-05 0)
(1.19404320586 -5.55198669018e-05 0)
(1.19404495571 -4.69422019646e-05 0)
(1.19404711599 -3.82557406566e-05 0)
(1.19404931407 -3.0261605055e-05 0)
(1.19405135731 -2.32644075905e-05 0)
(1.19405317629 -1.72881909644e-05 0)
(1.19405476485 -1.22597394011e-05 0)
(1.19405613857 -8.07263809071e-06 0)
(1.19405731586 -4.67210457429e-06 0)
(1.1940582689 -2.06143431001e-06 0)
(1.19405894507 -1.72366444614e-07 0)
(1.19405930452 1.14495266271e-06 0)
(1.19405942303 1.99960851472e-06 0)
(1.19405948273 2.67611765297e-06 0)
(1.19405952134 3.27701625105e-06 0)
(1.19405951249 3.80152507529e-06 0)
(1.1940594734 4.25982562478e-06 0)
(1.19405939977 4.66308337257e-06 0)
(1.19405928141 5.02838740235e-06 0)
(1.19405912056 5.36749704411e-06 0)
(1.19405892416 5.68362616497e-06 0)
(1.19405870077 5.96836128027e-06 0)
(1.19405849132 6.20495839396e-06 0)
(1.19405834331 6.41739390431e-06 0)
(1.19405828729 6.5991213149e-06 0)
(1.19405837271 6.72212455056e-06 0)
(1.19405865592 6.74563408707e-06 0)
(1.19405916871 6.61013806862e-06 0)
(1.19405989584 6.22068049189e-06 0)
(1.19406092831 5.43011559544e-06 0)
(1.19406242063 3.84530749337e-06 0)
(1.19406506142 1.07188067626e-06 0)
(1.19406987583 -3.19573664093e-06 0)
(1.19407736546 -9.73473513571e-06 0)
(1.19408747605 -1.99195966327e-05 0)
(1.19410099115 -3.5774348596e-05 0)
(1.19411989724 -6.02155499778e-05 0)
(1.19414632346 -9.78268259488e-05 0)
(1.19418309439 -0.000155924342946 0)
(1.1942342051 -0.000246154232352 0)
(1.19430529315 -0.000386995022452 0)
(1.1944042454 -0.00060790295811 0)
(1.19454184242 -0.000956206394224 0)
(1.19473213047 -0.00150840931609 0)
(1.19499188186 -0.00238877901493 0)
(1.19533590932 -0.00380051659972 0)
(1.1957614647 -0.00607650924369 0)
(1.19620820719 -0.00975552641326 0)
(1.19645640091 -0.0156812586125 0)
(1.19591924147 -0.0250644095398 0)
(1.19344226125 -0.039360351377 0)
(1.18669053365 -0.0598117218831 0)
(1.17014598672 -0.0851080856625 0)
(0.998962329853 0.0544316270171 0)
(1.0531095857 0.133401610141 0)
(1.11628271326 0.170777559985 0)
(1.17301275825 0.175143873025 0)
(1.21791250395 0.159583606944 0)
(1.25049861912 0.13495102082 0)
(1.27288494749 0.108411658131 0)
(1.28776725209 0.0838849740168 0)
(1.29745270571 0.0630565755946 0)
(1.30366077164 0.046299925538 0)
(1.30759236016 0.0333205195891 0)
(1.31005371236 0.0235495285504 0)
(1.31157362843 0.0163599113693 0)
(1.31249492046 0.0111713171874 0)
(1.31303860028 0.00749150683987 0)
(1.31334667711 0.00492448422243 0)
(1.31351007609 0.00316295213037 0)
(1.31358669244 0.00197474784916 0)
(1.31361305766 0.0011881924226 0)
(1.31361189978 0.000678624748268 0)
(1.31359705612 0.000357004116875 0)
(1.31357673049 0.000160750119969 0)
(1.31355573237 4.64656270807e-05 0)
(1.31353643325 -1.58725954862e-05 0)
(1.31351977199 -4.60610803623e-05 0)
(1.31350608087 -5.70708119144e-05 0)
(1.3134951752 -5.73248950505e-05 0)
(1.31348671811 -5.20854363692e-05 0)
(1.31348032181 -4.45221059133e-05 0)
(1.3134756013 -3.64593819228e-05 0)
(1.31347220552 -2.88707255328e-05 0)
(1.31346983084 -2.22093895353e-05 0)
(1.31346821684 -1.66265547456e-05 0)
(1.31346713483 -1.21300078862e-05 0)
(1.31346641916 -8.65442420323e-06 0)
(1.31346597212 -6.09789372437e-06 0)
(1.31346569197 -4.32264754391e-06 0)
(1.3134654892 -3.12113442625e-06 0)
(1.31346536115 -2.26462239456e-06 0)
(1.31346539456 -1.54912153961e-06 0)
(1.31346555352 -9.74300741039e-07 0)
(1.31346566036 -5.62467715292e-07 0)
(1.31346566514 -2.05220265351e-07 0)
(1.31346559962 1.28163011761e-07 0)
(1.3134654843 4.35073967632e-07 0)
(1.31346533118 7.24260356506e-07 0)
(1.31346514266 1.00791675013e-06 0)
(1.31346492125 1.2958260303e-06 0)
(1.31346467653 1.59728179148e-06 0)
(1.31346444164 1.9161000626e-06 0)
(1.3134642402 2.20267008207e-06 0)
(1.31346407952 2.4180665915e-06 0)
(1.31346399088 2.51601470513e-06 0)
(1.31346402942 2.43227587392e-06 0)
(1.31346428368 2.08368839534e-06 0)
(1.31346487232 1.38442904427e-06 0)
(1.31346575821 2.74268374165e-07 0)
(1.31346705631 -1.41002855114e-06 0)
(1.31346918268 -3.92541439838e-06 0)
(1.31347233936 -8.00242033212e-06 0)
(1.3134767426 -1.49181668268e-05 0)
(1.31348262182 -2.62350349024e-05 0)
(1.31349026115 -4.35553037217e-05 0)
(1.31350014613 -7.00533052742e-05 0)
(1.31351259729 -0.000110758507166 0)
(1.31352770308 -0.00017341817534 0)
(1.31354508852 -0.000270113539498 0)
(1.31356344981 -0.000419799725232 0)
(1.31357960653 -0.000652288647012 0)
(1.31358666496 -0.00101479166588 0)
(1.31357058331 -0.00158229684458 0)
(1.31350394703 -0.00247382329095 0)
(1.31333256435 -0.00387657144432 0)
(1.31294891565 -0.00608282309144 0)
(1.31214308567 -0.00953693169745 0)
(1.31050986221 -0.0148802229487 0)
(1.30729614158 -0.0229406427912 0)
(1.30129272495 -0.0345581212093 0)
(1.2906325726 -0.0501695184877 0)
(1.27184487678 -0.0685477378434 0)
(0.995736078321 0.0346338621353 0)
(1.04179516168 0.0905689242828 0)
(1.10222842021 0.121549567333 0)
(1.16491415868 0.129605835775 0)
(1.22202570975 0.122009269947 0)
(1.26951896687 0.106019940177 0)
(1.30680228169 0.0870975585343 0)
(1.33499539357 0.068636684666 0)
(1.35574481087 0.0523698437688 0)
(1.37069620056 0.0389256234336 0)
(1.38128278445 0.0282980791483 0)
(1.3886627008 0.0201712825341 0)
(1.39373034916 0.0141175146224 0)
(1.39715661236 0.00970533855327 0)
(1.39943434055 0.00655059580859 0)
(1.4009196477 0.00433445329771 0)
(1.40186617925 0.00280414208859 0)
(1.40245218637 0.00176573938887 0)
(1.40280127294 0.00107419097257 0)
(1.4029979614 0.000623230712786 0)
(1.40309917653 0.000336404914845 0)
(1.40314262526 0.000159618900254 0)
(1.40315288195 5.5160065456e-05 0)
(1.40314538924 -3.00207950062e-06 0)
(1.40312962659 -3.21257476994e-05 0)
(1.40311122248 -4.38925194763e-05 0)
(1.403093184 -4.57620780998e-05 0)
(1.40307703599 -4.24192451147e-05 0)
(1.40306338029 -3.67273637161e-05 0)
(1.40305229055 -3.03635256688e-05 0)
(1.40304356496 -2.42427973396e-05 0)
(1.40303687815 -1.88127197882e-05 0)
(1.40303186809 -1.42411769617e-05 0)
(1.40302818378 -1.05299065422e-05 0)
(1.40302552708 -7.57870496477e-06 0)
(1.40302366591 -5.26286554631e-06 0)
(1.40302242331 -3.45944478364e-06 0)
(1.4030216483 -2.02435093161e-06 0)
(1.40302117565 -8.52822809145e-07 0)
(1.40302081181 7.8035217287e-08 0)
(1.40302048962 7.86685137459e-07 0)
(1.4030202911 1.27554082696e-06 0)
(1.40302020464 1.64662125584e-06 0)
(1.40302013843 1.96453871235e-06 0)
(1.40302005747 2.26673911764e-06 0)
(1.40301995456 2.57119553339e-06 0)
(1.40301982701 2.88796229211e-06 0)
(1.40301967582 3.22188581243e-06 0)
(1.40301950242 3.57264644776e-06 0)
(1.40301929991 3.93109037397e-06 0)
(1.40301907987 4.25542302463e-06 0)
(1.40301887532 4.51366793799e-06 0)
(1.40301871515 4.66730163446e-06 0)
(1.40301862654 4.65718829767e-06 0)
(1.40301862514 4.39586824147e-06 0)
(1.40301871437 3.74106149479e-06 0)
(1.40301891847 2.48341716699e-06 0)
(1.40301922396 5.12443916947e-07 0)
(1.40301985782 -2.60349806266e-06 0)
(1.40302101687 -7.62245173845e-06 0)
(1.40302254164 -1.53467741462e-05 0)
(1.40302410203 -2.7095634783e-05 0)
(1.40302523025 -4.47262982635e-05 0)
(1.40302518606 -7.12239132959e-05 0)
(1.40302248051 -0.000111177143717 0)
(1.40301437844 -0.000171615952261 0)
(1.40299607919 -0.000263413956703 0)
(1.4029594047 -0.000403442765464 0)
(1.4028904263 -0.00061775882874 0)
(1.40276544036 -0.000946967249831 0)
(1.40254442798 -0.00145438672854 0)
(1.40216106103 -0.0022384272283 0)
(1.40150382561 -0.00344811348073 0)
(1.40038442891 -0.00530713087607 0)
(1.39848966072 -0.00813822749934 0)
(1.39530648599 -0.0123761129986 0)
(1.39002201165 -0.0185316194903 0)
(1.38148838519 -0.0270423147864 0)
(1.36821002747 -0.0379897924265 0)
(1.34779561013 -0.0504816760892 0)
(0.994011535494 0.0192358091072 0)
(1.03484765355 0.0523338439834 0)
(1.09199265933 0.0723631302737 0)
(1.15662424107 0.0791292341895 0)
(1.22032120889 0.0761045484364 0)
(1.27701949876 0.0673339739949 0)
(1.32424423302 0.0561509068776 0)
(1.3618157767 0.0447990154565 0)
(1.39068534496 0.034530383196 0)
(1.41226078312 0.0258814389389 0)
(1.42801824993 0.0189465306886 0)
(1.43929886242 0.0135849883534 0)
(1.44722808658 0.00955653934813 0)
(1.45270413065 0.00660011873844 0)
(1.45641894207 0.00447419161417 0)
(1.45889141344 0.00297351293541 0)
(1.46050226439 0.0019327665635 0)
(1.46152564899 0.00122369058356 0)
(1.4621556548 0.000749546774834 0)
(1.46252747205 0.000439013744825 0)
(1.46273374363 0.000240517097413 0)
(1.46283688217 0.00011740783467 0)
(1.46287818107 4.40452367094e-05 0)
(1.46288441696 2.68677962059e-06 0)
(1.46287228955 -1.84475374664e-05 0)
(1.46285193553 -2.74403633636e-05 0)
(1.46282938281 -2.94393640951e-05 0)
(1.46280784466 -2.76885102206e-05 0)
(1.46278884882 -2.41854594602e-05 0)
(1.46277293943 -2.01115655821e-05 0)
(1.46276010751 -1.61157221818e-05 0)
(1.46275005902 -1.25213367902e-05 0)
(1.46274238308 -9.45505922642e-06 0)
(1.46273664633 -6.92717088389e-06 0)
(1.46273244939 -4.8835551001e-06 0)
(1.46272945014 -3.2550834514e-06 0)
(1.46272736015 -1.97896852932e-06 0)
(1.46272592237 -1.0140024689e-06 0)
(1.46272492437 -3.15110368197e-07 0)
(1.4627243027 2.06373586854e-07 0)
(1.46272394564 6.86980370966e-07 0)
(1.46272370393 1.1618521247e-06 0)
(1.46272354594 1.58554659177e-06 0)
(1.46272343205 1.96453188624e-06 0)
(1.46272333237 2.31967939522e-06 0)
(1.46272322785 2.66418407648e-06 0)
(1.46272310442 3.00312955233e-06 0)
(1.46272295215 3.33486515205e-06 0)
(1.46272276618 3.65028880746e-06 0)
(1.46272254397 3.93624735756e-06 0)
(1.46272228905 4.18399668437e-06 0)
(1.46272200928 4.36226131966e-06 0)
(1.46272171162 4.42082325844e-06 0)
(1.46272140856 4.2875470767e-06 0)
(1.46272111776 3.87156409625e-06 0)
(1.46272085666 3.06469207949e-06 0)
(1.46272060059 1.74966220412e-06 0)
(1.46272025502 -2.09477301261e-07 0)
(1.46271968942 -3.04187045686e-06 0)
(1.4627187676 -7.62133863769e-06 0)
(1.46271721772 -1.47322709297e-05 0)
(1.46271435981 -2.54675106102e-05 0)
(1.46270907765 -4.13734130656e-05 0)
(1.46269956586 -6.4834522106e-05 0)
(1.46268276319 -9.94514824687e-05 0)
(1.46265353254 -0.000150615762897 0)
(1.46260336852 -0.000226511166215 0)
(1.46251851684 -0.00033960683456 0)
(1.46237651992 -0.000508511174141 0)
(1.46214054476 -0.000761640643767 0)
(1.46175063751 -0.00114274234193 0)
(1.46111221423 -0.00171946756365 0)
(1.46007418972 -0.0025875481171 0)
(1.45839562136 -0.00388650728958 0)
(1.45570263787 -0.00580870954581 0)
(1.45142992969 -0.00859723919546 0)
(1.4447572626 -0.0125121936344 0)
(1.43461578864 -0.0177339395314 0)
(1.4197463872 -0.0242106376095 0)
(1.39830371079 -0.0313962075542 0)
(0.993269671491 0.00617015388654 0)
(1.0315810175 0.0171020502953 0)
(1.08672185019 0.0239906522208 0)
(1.15174558547 0.0265606689256 0)
(1.2182354082 0.0258180619324 0)
(1.27925778741 0.0230488897606 0)
(1.33140140358 0.0193656359117 0)
(1.37377602782 0.0155468635063 0)
(1.40691057064 0.0120449367593 0)
(1.43203316673 0.00906640712228 0)
(1.45060217612 0.00666060235455 0)
(1.46402987773 0.00479009855897 0)
(1.47355017073 0.0033784342215 0)
(1.48017563218 0.00233874244036 0)
(1.48470227275 0.00158891659973 0)
(1.48773617571 0.00105828995836 0)
(1.48972730065 0.000689462301165 0)
(1.49100271968 0.000437636651153 0)
(1.49179579109 0.000268883093127 0)
(1.49227015548 0.000158107981966 0)
(1.49253864316 8.71214176798e-05 0)
(1.49267771664 4.29716803465e-05 0)
(1.49273824788 1.65816592464e-05 0)
(1.4927534201 1.66122103998e-06 0)
(1.49274418166 -6.07107658449e-06 0)
(1.49272339208 -9.41513208411e-06 0)
(1.49269874723 -1.02198097252e-05 0)
(1.49267447568 -9.65515271855e-06 0)
(1.492652675 -8.44006849514e-06 0)
(1.49263418623 -6.99270919694e-06 0)
(1.49261913166 -5.5525878714e-06 0)
(1.49260724924 -4.24037156089e-06 0)
(1.49259810962 -3.10404386453e-06 0)
(1.49259123663 -2.1497128466e-06 0)
(1.49258617533 -1.36059888576e-06 0)
(1.49258252522 -7.14457105751e-07 0)
(1.49257995045 -1.90340292996e-07 0)
(1.49257818088 2.33406902927e-07 0)
(1.49257701147 6.0329776803e-07 0)
(1.492576265 9.72141613642e-07 0)
(1.49257578782 1.27705800806e-06 0)
(1.49257548893 1.5615074174e-06 0)
(1.49257531177 1.84274135336e-06 0)
(1.49257520349 2.13041679007e-06 0)
(1.49257512457 2.43212668343e-06 0)
(1.49257504833 2.75052133952e-06 0)
(1.4925749554 3.08430292832e-06 0)
(1.49257483202 3.42956133531e-06 0)
(1.49257466771 3.77803186417e-06 0)
(1.49257445318 4.11539545612e-06 0)
(1.49257418303 4.42167388613e-06 0)
(1.49257385404 4.66345598607e-06 0)
(1.49257345905 4.7974001951e-06 0)
(1.49257298733 4.76056400548e-06 0)
(1.49257241943 4.46724210105e-06 0)
(1.49257172999 3.79881984388e-06 0)
(1.49257090246 2.60930900502e-06 0)
(1.49256979812 8.00123291832e-07 0)
(1.49256800491 -1.85633680625e-06 0)
(1.49256522616 -5.99314023049e-06 0)
(1.49256106658 -1.21426128727e-05 0)
(1.49255449909 -2.10768922671e-05 0)
(1.49254391157 -3.38836304642e-05 0)
(1.49252676356 -5.21178912871e-05 0)
(1.4924989434 -7.797979606e-05 0)
(1.49245375123 -0.00011449758961 0)
(1.49238031562 -0.000166049607361 0)
(1.4922615731 -0.000239127217753 0)
(1.49207016182 -0.000342228331552 0)
(1.49176147471 -0.000487900281624 0)
(1.49126323177 -0.000696344543372 0)
(1.49046670733 -0.00100126735582 0)
(1.48920251444 -0.00143509044541 0)
(1.48720480763 -0.00204532952138 0)
(1.48407517275 -0.00289334077454 0)
(1.4792338347 -0.00404660434931 0)
(1.47187402326 -0.0055593867579 0)
(1.4609823145 -0.00743318798864 0)
(1.44541162375 -0.00957397527721 0)
(1.42355264914 -0.0117332743946 0)
(0.993270469282 -0.00616839759575 0)
(1.03158099998 -0.0171003710655 0)
(1.08672178363 -0.0239897575862 0)
(1.15174562284 -0.0265602433374 0)
(1.21823548593 -0.0258179895658 0)
(1.27925788954 -0.0230491061486 0)