/*--------------------------------*- C++ -*----------------------------------*\
| =========                 |                                                 |
| \\      /  F ield         | OpenFOAM: The Open Source CFD Toolbox           |
|  \\    /   O peration     | Version:  2106                                  |
|   \\  /    A nd           | Website:  www.openfoam.com                      |
|    \\/     M anipulation  |                                                 |
\*---------------------------------------------------------------------------*/
FoamFile
{
    version     2.0;
    format      ascii;
    arch        "LSB;label=32;scalar=64";
    class       volScalarField;
    location    "0.12";
    object      p;
}
// * * * * * * * * * * * * * * * * * * * * * * * * * * * * * * * * * * * * * //

dimensions      [0 2 -2 0 0 0 0];

internalField   nonuniform List<scalar> 
11200
(
147.89481245
144.966210281
143.85235811
143.325024835
142.957692549
142.662911227
142.40126425
142.152722479
141.908200692
141.663129254
141.414811024
141.161491314
140.901938135
140.635215907
140.360557774
140.077290333
139.784787771
139.48244409
139.169660509
138.845849184
138.510385903
138.162621713
137.801898066
137.427546948
137.038882753
136.635204149
136.215794944
135.779924768
135.326849775
134.85581323
134.366046056
133.85676738
133.327184796
132.776494612
132.203882281
131.608523357
130.989583932
130.346220655
129.677580931
128.982803456
128.26101854
127.51134835
126.7329071
125.924801113
125.086128754
124.215980173
123.313436858
122.377570916
121.407444004
120.402105794
119.360591836
118.281920699
117.165090214
116.009072647
114.812808533
113.575198843
112.295095055
110.971286623
109.602485208
108.187304772
106.724236581
105.211617693
103.64759069
102.030054748
100.356600115
98.6244219185
96.8302099819
94.970004354
93.0390009498
91.0312852033
88.9394687557
86.7541944622
84.4632631786
82.0504942388
79.4938127197
76.7615820135
73.8062440019
70.5553331346
66.8556509558
62.0938060419
146.101770721
144.743596162
143.952623334
143.45260694
143.061616102
142.737730579
142.453206172
142.188600454
141.933108953
141.680583276
141.427196124
141.170433902
140.908559576
140.640296682
140.364644794
140.080769115
139.787932285
139.48545153
139.17266841
138.848920978
138.513559451
138.165905571
137.805319322
137.431131018
137.042644302
136.639152231
136.219935843
135.784262967
135.331388498
134.860554771
134.370991847
133.861917586
133.332537563
132.782049936
132.209642667
131.614492178
130.995764367
130.352615777
129.684193773
128.989637092
128.268076182
127.518633436
126.740423387
125.932552795
125.094120589
124.224217656
123.321926427
122.386320216
121.416462204
120.411403977
119.370183474
118.29182223
117.175321761
116.019658907
114.823779877
113.586592688
112.306957582
110.9836749
109.615469815
108.200973174
106.738697652
105.22700785
103.664080177
102.047852111
100.375956449
98.6456511727
96.8537212876
94.9963296039
93.0688367309
91.0655579505
88.9794243083
86.8014788197
84.5201759394
82.1203803398
79.5816984906
76.8756256569
73.9613645584
70.7810615635
67.2318821808
63.1185593484
145.106580525
144.45237964
143.90002255
143.462402729
143.090776341
142.768671648
142.479568549
142.20933123
141.94886471
141.692380132
141.435992525
141.177020187
140.913551074
140.644158213
140.367720536
140.083309436
139.790115299
139.487399552
139.174463897
138.850631387
138.515239844
138.167651227
137.80711792
137.4329891
137.044571872
136.641156349
136.222021236
135.786433275
135.333646993
134.862904836
134.373437497
133.864464554
133.335195194
132.784823922
132.212533271
131.617498483
130.998887533
130.355857461
129.687556505
128.993124383
128.271692442
127.522384024
126.744314787
125.936592816
125.098318621
124.228584992
123.326476689
122.391069871
121.421431223
120.416616645
119.375669353
118.297617332
117.181469996
116.026213873
114.830807043
113.594172046
112.315186876
110.992673625
109.625384379
108.211983176
106.751022984
105.240916942
103.679901443
102.066005284
100.396992166
98.6702703857
96.8827978581
95.0309756931
93.1104894711
91.1161003091
89.0413582285
86.8781998633
84.6165296166
82.2434287143
79.7421711646
77.0908863748
74.261577364
71.2225814677
67.9378579039
64.3842412122
144.556819342
144.193437525
143.793538106
143.424545499
143.086925978
142.778820181
142.493453078
142.222745061
141.960368803
141.701697349
141.443312678
141.182683252
140.917909238
140.647523361
140.370349549
140.085405294
139.791834301
139.488860407
139.175756515
138.851822681
138.51636781
138.16870225
137.808185759
137.434091191
137.045710444
136.642335793
136.223245506
135.787705044
135.334967835
134.86427538
134.374857368
133.865931876
133.336706001
132.786377226
132.214134506
131.619154995
131.00060432
130.35764298
129.689417243
128.99506682
128.273723992
127.524513129
126.746551264
125.93894829
125.100807028
124.231223171
123.329285072
122.394073304
121.424659849
120.420107033
119.379465914
118.301774068
117.186052623
116.031302424
114.836499113
113.600586895
112.32247072
111.001006194
109.63498649
108.22312625
106.764042896
105.256238994
103.698054442
102.087631313
100.422866937
98.7013621722
96.9203416614
95.0765533113
93.1661438978
91.1845032972
89.1260741909
86.9841261863
84.7504258522
82.4149276122
79.9655356658
77.3881395303
74.6679725493
71.7952955646
68.773672472
65.6402239443
144.222771381
143.990975423
143.689561611
143.378582332
143.073739905
142.781713032
142.502733564
142.233603318
141.970638731
141.710549703
141.450575836
141.18847972
140.922468829
140.651094086
140.373158801
140.08764602
139.79366314
139.490400993
139.177104302
138.853050475
138.517534579
138.16986021
137.809329892
137.435235394
137.046877822
136.643541
136.224498245
135.789012634
135.336336204
134.865709776
134.376363004
133.867514524
133.338372189
132.788132959
132.215983161
131.621099264
131.00264801
130.359784478
129.691660533
128.997417037
128.276187671
127.527099399
126.74927192
125.941818019
125.103843839
124.234448924
123.332726191
122.397761675
121.428634185
120.42441469
119.384164546
118.306933876
117.191759162
116.03766004
114.84363513
113.608656576
112.33166268
111.011548131
109.647156263
108.237264473
106.780572355
105.275668373
103.721014172
102.114915849
100.45548018
98.740565573
96.9677244765
95.1341347461
93.2365166328
91.2710357203
89.233195067
87.1177293901
84.9185288979
82.6286719954
80.2407328085
77.7476942327
75.1453490689
72.4381290308
69.6473923908
66.8238440595
144.01937884
143.843476323
143.602280207
143.334952315
143.057762568
142.781120938
142.509427462
142.242921695
141.980152136
141.719138756
141.457846667
141.194408829
140.927199775
140.654828672
140.376102629
140.089983962
139.795550665
139.491963387
139.178439432
138.854233011
138.51862068
138.1708905
137.810332835
137.436238163
137.047895732
136.644584814
136.225575979
135.790130238
135.337498143
134.866919357
134.377622592
133.868825729
133.339736024
132.789550369
132.217455493
131.622628558
131.004237857
130.361443258
129.693395921
128.999239709
128.278111495
127.529138554
126.751442323
125.94413788
125.10633471
124.237136929
123.335643184
122.400946621
121.432134504
120.428287484
119.38847916
118.311774533
117.197228153
116.043881663
114.850760559
113.616870106
112.341190674
111.022672714
109.660222548
108.252698333
106.798878709
105.297469919
103.747089065
102.146220942
100.493198519
98.7861720016
97.0230705041
95.2015603071
93.3190015562
91.3724086681
89.3584259514
87.2733417706
85.1131899077
82.8740286071
80.5525720057
78.1474680633
75.6617869126
73.1076935433
70.5121614468
67.9223376408
143.896261963
143.740653909
143.534350843
143.297786835
143.042309247
142.779026986
142.514410702
142.250898819
141.988762161
141.72717294
141.464797152
141.200158302
140.931826616
140.658493545
140.37898692
140.092259183
139.797365447
139.49343993
139.179674652
138.855301707
138.519579233
138.171780759
137.811187369
137.437081505
137.048744033
136.645449554
136.226465715
135.79105131
135.338455352
134.867916588
134.378663307
133.869913338
133.340874181
132.790743267
132.218708505
131.623948308
131.005631761
130.362919178
129.69496305
129.000907535
128.279887587
127.531033669
126.753472038
125.946322677
125.108699873
124.239712982
123.338466956
122.404062615
121.435596753
120.432161614
119.392844816
118.316728667
117.202888874
116.050392913
114.858297788
113.625646882
112.351465449
111.034755533
109.67449554
108.269619962
106.819030113
105.321566698
103.776000629
102.181019579
100.535211899
98.837048434
97.0848648319
95.2768472892
93.4110264716
91.4852886296
89.4974209001
87.4452179961
85.3267027841
83.14054532
80.8868185007
78.5682877556
76.1925170411
73.7751326747
71.3430541639
68.9357057161
143.82218215
143.67217165
143.485414908
143.269307882
143.029599756
142.776776149
142.518136465
142.257395571
141.996026093
141.734101682
141.470881501
141.205242128
140.935943043
140.661762994
140.381558465
140.094279634
139.798965048
139.494727426
139.180737257
138.856207367
138.520379748
138.172515004
137.811884164
137.437761874
137.049423392
136.646139052
136.227173578
135.791783678
135.339216979
134.868711401
134.379494827
133.870785013
133.341789654
132.791706557
132.219723902
131.625020488
131.006766136
130.364122049
129.696241193
129.002269659
128.281348649
127.532612628
126.755188164
125.948198161
125.110761597
124.241993731
123.341006659
122.406909797
121.438810297
120.435813527
119.397022798
118.321539128
117.208460989
116.056883585
114.865897744
113.634588428
112.362032872
111.047297772
109.689433661
108.287475506
106.84042999
105.347277187
103.806962984
102.21839092
100.58041678
98.8918452213
97.1514307758
95.3578876537
93.5099152446
91.6062498863
89.6457619412
87.6276222583
85.5515898163
83.4184828346
81.2309236244
78.9944606468
76.7191552611
74.4216522414
72.1266866536
69.866339668
143.779905596
143.630457582
143.454041029
143.250301449
143.020767091
142.775056794
142.520694717
142.262054133
142.001345088
141.739248606
141.475448807
141.209087826
140.93907412
140.664259024
140.383525792
140.095826258
139.800188428
139.495709813
139.181545102
138.856892728
138.520982492
138.173065107
137.812403754
137.4382673
137.049926798
136.646649275
136.227697192
135.792325686
135.339781381
134.869301619
134.380114034
133.871436383
133.342476588
132.792432868
132.22049396
131.625839442
131.007640167
130.365058826
129.697250738
129.003364921
128.282541912
127.533918225
126.756625807
125.949792219
125.112541517
124.243995142
123.343272764
122.409493066
121.441774454
120.43923568
119.400996436
118.326177877
117.213902986
116.063296788
114.873486351
113.643600531
112.372769377
111.060123259
109.704793876
108.305912234
106.862606879
105.374004287
103.839228893
102.257404183
100.627657136
98.9491274836
97.2209846768
95.4424575027
93.6128843503
91.7317935792
89.79903361
87.8149732
85.7808148743
83.6990576936
81.5741601958
79.4134380935
77.2281734973
75.0348256847
72.8555007379
70.7164535337
143.760628916
143.610750749
143.438786902
143.240850197
143.016287332
142.774166502
142.522029445
142.264518501
142.004189295
141.742025995
141.477933347
141.211195606
140.940803157
140.665648501
140.384630969
140.096704397
139.80089177
139.496282754
139.182023688
138.857305309
138.521350862
138.173405742
137.812729061
137.438587095
137.050246561
136.646974845
136.228032682
135.792674316
135.340145937
134.869684726
134.380518358
133.871864785
133.342932305
132.792919681
132.221016378
131.626402901
131.008251274
130.3657256
129.697982655
129.004172143
128.283438984
127.534922655
126.757758259
125.95107758
125.114009997
124.245683454
123.345225503
122.411764383
121.4444301
120.442355522
119.404677479
118.330537897
117.21908496
116.069474294
114.880870161
113.652446721
112.383389415
111.072896311
109.720179488
108.324469499
106.885015863
105.401091387
103.871999945
102.297083966
100.675737646
99.0074269322
97.2917191026
95.5283274247
93.7171788458
91.858509974
89.9530179294
88.0020724161
86.0080283368
83.9746457842
81.9076448918
79.8153938498
77.7096518287
75.6062246705
73.5248674807
71.4875832696
143.760631217
143.610766534
143.43881366
143.24088623
143.016331882
142.774218733
142.522088434
142.264583418
142.00425944
141.74210079
141.478012326
141.2112784
140.94088949
140.665738176
140.384723866
140.096800452
139.800990972
139.496385143
139.182129353
138.857414395
138.521463583
138.173522398
137.812850035
137.438712781
137.050378028
136.647112724
136.228177883
135.792827972
135.340309418
134.869859646
134.380706661
133.872068917
133.343155256
132.793165078
132.2212886
131.626707233
131.008594081
130.366114577
129.698427221
129.00468433
128.284032883
127.535615303
126.758570421
125.952034496
125.115142317
124.247028392
123.346828257
122.413679839
121.446724899
120.445110556
119.407990926
118.334528908
117.223898147
116.075285158
114.887891672
113.660937248
112.393662323
111.085331696
109.735237761
108.342708996
106.907118709
105.427880936
103.904474575
102.336454291
100.723468997
99.0652892623
97.3618479712
95.6132970832
93.8200832522
91.9830627234
90.1037378034
88.1842682004
86.2278371083
84.2390886198
82.2245497678
80.1931438256
78.1566916093
76.1302614218
74.1318201358
72.1805336549
143.779912564
143.630505324
143.454121919
143.250410306
143.020901608
142.775214262
142.520872329
142.262249419
142.001555964
141.739473346
141.475686018
141.209336419
140.939333271
140.664528151
140.383804528
140.096114419
139.800485993
139.496016909
139.181861999
138.857219861
138.521320502
138.173414887
137.812766547
137.438644983
137.050320857
136.647062274
136.228131949
135.792785525
135.340270306
134.869824482
134.380676748
133.872046195
133.343142335
132.793165296
132.221306113
131.626747152
131.008662676
130.366219527
129.698577898
129.004892148
128.284311697
127.535981983
126.759045475
125.952642832
125.115914173
124.248000498
123.348045222
122.415195838
121.4486057
120.447435974
119.410857797
118.338054705
117.228225343
116.080586525
114.89437668
113.668859834
112.403330277
111.097118143
109.749595532
108.360184395
106.928367902
105.453707354
103.935843863
102.374527731
100.769646346
99.121267687
97.4296815804
95.695435694
93.9194372917
92.1030655368
90.2482295829
88.3577605778
86.435573903
84.4869224399
82.5188133657
80.540421611
78.5634524364
76.6023579695
74.6739179119
72.7956490865
143.822194001
143.6722525
143.485551606
143.269491421
143.029826082
142.777040582
142.51843424
142.257722539
141.996378778
141.734477216
141.471277583
141.205656964
140.936375283
140.662211684
140.382023006
140.094759734
139.799460688
139.495238831
139.181264887
138.856751956
138.520942387
138.173097172
137.812487762
137.438389631
137.05007846
136.646825333
136.227895669
135.792547047
135.3400282
134.869578446
134.380427417
133.871795014
133.342891522
132.792917842
132.221065841
131.626518848
131.008452267
130.366034319
129.698426847
129.004786196
128.284264179
127.536009109
126.759166941
125.952882564
125.116301249
124.248570255
123.348840597
122.416268978
121.450019907
120.449268055
119.413200912
118.341021815
117.231953382
116.085241436
114.900159508
113.67601407
112.412150708
111.107961522
109.762893853
108.3764601
106.948251304
105.477953111
103.965369411
102.410440963
100.813273905
99.1741704706
97.4936856142
95.772717228
94.0125698918
92.2150546586
90.3826227526
88.5185427571
86.6271202359
84.7139641988
82.7863037962
80.8533260249
78.9264963533
77.0198010188
75.1494299015
73.3323746979
143.896279114
143.740770057
143.534546463
143.298048486
143.042630803
142.779401592
142.51483151
142.251359953
141.989258747
141.727700991
141.46535349
141.20074046
140.932432747
140.659122344
140.379637567
140.092931281
139.798058971
139.494155185
139.180412258
138.856062652
138.520364991
138.172593399
137.812029648
137.437956966
137.049657034
136.646405405
136.22747072
135.792112957
135.339582634
134.869120428
134.379957052
133.871313315
133.342400313
132.792419725
132.220564237
131.626018094
131.00795778
130.365552812
129.697966614
129.004357437
128.283879365
127.535683419
126.758918806
125.952734368
125.116280187
124.248709386
123.349180108
122.416857689
121.450917083
120.450545598
119.414946014
118.343340165
117.234973049
116.089117537
114.905079839
113.682205862
112.419888717
111.117577715
109.774789063
108.391118711
106.966257355
105.500008045
103.99230778
102.443256687
100.853153844
99.2225390584
97.5522410965
95.8434397361
94.0977471466
92.3173088976
90.5049241908
88.664194233
86.7996986405
84.9172133509
83.0239717853
81.1289651811
79.2432875484
77.3805360621
75.5567683093
73.7894652097
144.019402021
143.84363153
143.602539993
143.335297892
143.058185255
142.781611388
142.509976597
142.24352188
141.980797121
141.719823478
141.458567124
141.195161935
140.927983232
140.655640862
140.376942531
140.09085107
139.796444902
139.492885034
139.179389082
138.855211587
138.519629445
138.171931407
137.811410716
137.437358703
137.049063927
136.645806742
136.226859239
135.79148395
135.338933292
134.868449375
134.379264027
133.870598966
133.341666084
132.791667823
132.219797667
131.625240735
131.007174483
130.364769553
129.697190735
129.003597963
128.283147397
127.534992584
126.758285784
125.952179502
125.115828234
124.248390436
123.349030705
122.416922196
121.451249325
120.451210842
119.416023353
118.344925409
117.2371822
116.092090978
114.908987376
113.687252864
112.426323495
111.125700096
109.784960426
108.403773726
106.981918102
105.519301269
104.015985218
102.472215502
100.888457034
99.2654377876
97.6042017567
95.9061715872
94.173221383
92.4077640065
90.6128534544
88.7923079025
86.9508485753
85.0942640423
83.2296138206
81.3654903554
79.5124095358
77.6834620597
75.8947073116
74.1648716955
144.222801355
143.991174621
143.68989211
143.379018886
143.074270589
142.782325583
142.503416525
142.234347294
141.971436162
141.711394551
141.451463377
141.189406352
140.923431919
140.65209184
140.374190171
140.088710609
139.79476108
139.491532773
139.178270573
138.854252122
138.518773061
138.17113664
137.810647456
137.436606521
137.048306927
136.645034283
136.226064171
135.790661585
135.338080747
134.867565101
134.378347493
133.86965046
133.340686612
132.790659096
132.218762144
131.624181729
131.006096327
130.363677738
129.696092039
129.002500571
128.28206108
127.533929036
126.757259191
125.951207191
125.114931422
124.247595097
123.348368564
122.416431882
121.450977772
120.451215055
119.416372495
118.345703343
117.238490531
116.094052735
114.911751429
113.690998929
112.431267565
111.132102535
109.793134875
108.414097352
106.994843409
105.535369551
104.035841938
102.496628038
100.918334062
99.301848803
97.6483950245
95.9595894002
94.2375106575
92.4847763063
90.7046268494
88.9010189492
87.0787236508
85.2434336175
83.4018942919
81.5620908363
79.7336320754
77.9286606113
76.1626921719
74.4555873146
144.556856219
144.193684469
143.793941896
143.42507347
143.087562265
142.779549116
142.494260723
142.223620319
141.961302894
141.70268337
141.4443453
141.18375848
140.919024239
140.648676359
140.371539779
140.086633011
139.7931008
139.49016796
139.177107893
138.853221608
138.517823432
138.170229539
137.809756645
137.435711424
137.047393833
136.644093697
136.225089667
135.789649021
135.337027574
134.866469845
134.37720948
133.868469676
133.339463575
132.789394754
132.217457869
131.622839436
131.004718741
130.362268641
129.694656378
129.001044778
128.280593614
127.532460305
126.755801645
125.949775894
125.113544605
124.246274804
123.347141474
122.41533035
121.45004111
120.450490906
119.415918267
118.345588416
117.238798757
116.094885403
114.913230806
113.693272915
112.434516249
111.136542795
109.799027336
108.421754806
107.004640453
105.547753517
104.051345094
102.515880917
100.942079749
99.3309578779
97.6838798947
96.0026157339
94.289402851
92.5470129766
90.7788207386
88.9888709766
87.1819366653
85.3635643129
83.5401104872
81.7187787991
79.9078479339
78.1176631668
76.3614028677
74.6576382832
145.106629216
144.452688571
143.900509719
143.463027502
143.091519175
142.769513598
142.480493463
142.210326537
141.949920577
141.693488843
141.437148068
141.178217942
140.914787553
140.645430869
140.369027658
140.0846502
139.791490131
139.488811008
139.175916945
138.852132544
138.516789779
138.169218187
137.808738672
137.434671604
137.046321329
136.642980796
136.22393118
135.788441614
135.33576937
134.865160006
134.375847885
133.867056808
133.338000467
132.787882982
132.215899547
131.621237084
131.003074698
130.360585252
129.692937309
128.999294533
128.278817166
127.530664134
126.753994414
125.947968465
125.111750427
124.244510449
123.34542725
122.413690981
121.448506479
120.44909719
119.414709888
118.344619346
117.238134417
116.094604952
114.91342981
113.694066104
112.436040826
111.138964344
109.80254506
108.426607665
107.011114371
105.556189735
104.062149662
102.529535149
100.95915118
99.3521110897
97.7098862402
96.0343602334
94.327886361
92.5933499911
90.8342238171
89.0546164043
87.2592984113
85.4536953209
83.6438185812
81.8360443696
80.0370075079
78.2542153351
76.4947189467
74.7669989748
146.101866736
144.74405046
143.953302917
143.453459203
143.062618067
142.738861521
142.4544491
142.189942275
141.934539447
141.682094377
141.428781431
141.172088265
140.91027866
140.642076562
140.366481557
140.082658469
139.789869039
139.48742877
139.174680453
138.850975334
138.515653428
138.168066876
137.80756247
137.433457141
137.045059241
136.641665123
136.222557732
135.787005735
135.334267052
134.863589072
134.374206901
133.865344689
133.336216389
132.786026388
132.213970206
131.619235378
131.0010027
130.358446489
129.690734619
128.997031293
128.276497905
127.528294293
126.751580298
125.945517718
125.109272406
124.242016602
123.342931548
122.411210481
121.446062046
120.446714175
119.412418744
118.34245685
117.236145021
116.09284239
114.911959167
113.692966665
112.435408394
111.138913389
109.803212907
108.428158887
107.013745679
105.560135413
104.06768753
102.536992944
100.968913332
99.3646256109
97.7256711099
96.0540069841
94.3520620384
92.6228092854
90.8697961952
89.0971906075
87.3097971778
85.5130337099
83.7127973889
81.9149528527
80.1250252276
78.3477618804
76.5779917922
74.7857603103
147.894975223
144.966877026
143.853348275
143.326276459
142.959175543
142.664601039
142.403142317
142.154775227
141.910418203
141.665504451
141.417339157
141.16416964
140.904765771
140.638193882
140.363689136
140.080580214
139.788243309
139.486073783
139.173469054
138.849821775
138.514527281
138.166944344
137.80640472
137.43224338
137.043778092
136.640309614
136.221123982
135.785495364
135.332682783
134.861931302
134.372475847
133.863540732
133.334340001
132.784078093
132.211950574
131.617144902
130.998841298
130.356213783
129.688431211
128.994658307
128.274056851
127.525787203
126.749009939
125.942887694
125.106587284
124.239282074
123.340154634
122.408399769
121.443227988
120.44386953
119.409579073
118.339641077
117.233376068
116.090147935
114.909372463
113.690527374
112.433164162
111.136921948
109.801543632
108.426894847
107.012986122
105.55999871
104.06831462
102.538551247
100.971601048
99.3686761419
97.7313582757
96.0616563482
94.3620640271
92.6355886689
90.8858357947
89.1170428637
87.3341002459
85.5425300755
83.7483902101
81.958208206
80.1784532177
78.4140503706
76.6449470353
74.7461058645
54.6909628711
51.1403985681
48.7509762252
46.7971926391
45.1300535092
43.6787375712
42.3985766702
41.2592349996
40.2385507409
39.319485046
38.4885480698
37.7348320574
37.0493612407
36.4246296465
35.8542621622
35.3327655623
34.8553477954
34.4177879798
34.0163423957
33.647674848
33.3088030095
32.9970551812
32.710034179
32.4455861156
32.2017729156
31.9768478789
31.7692339841
31.5775048095
31.4003677397
31.2366490483
31.0852806739
30.9452886871
30.8157833925
30.6959510294
30.5850463725
30.4823860289
30.3873423666
30.2993385321
30.2178457635
30.1423878595
30.0725616578
30.0079707422
29.948214034
29.8928818178
29.8416274026
29.7941422402
29.7501423087
29.7093625115
29.6715559071
29.6364935663
29.6039635917
29.5737690391
29.5457262506
29.5196622192
29.495422353
29.4728607337
29.4518418473
29.4322408188
29.4139410092
29.3968336796
29.380820624
29.3658083697
29.3517297264
29.3384958313
29.3260330916
29.3142761859
29.3031588495
29.2926230553
29.2826219204
29.2731298414
29.264083625
29.2554388676
29.2471579458
29.2392073176
29.2315567106
29.2241782419
29.2170461831
29.2101378069
29.2034335096
29.1969152276
29.1905654188
29.1843684567
29.1783118613
29.1723853698
29.1665790449
29.1608835273
29.1552912642
29.1497973346
29.1443974878
29.1390880372
29.1338666862
29.1287325085
29.123684798
29.1187235795
29.1138508818
29.1090703398
29.1043850165
29.0997988177
29.0953182245
29.0909517578
29.0867083574
29.0825978055
29.0786333329
29.0748310783
29.0712068861
29.067777993
29.0645658236
29.0615959487
29.0588950253
29.0564928838
29.0544228044
29.0527224492
29.0514327018
29.0505980208
29.0502696486
29.0505054963
29.0513693897
29.0529339327
29.0552777993
29.0584903717
29.0626746663
29.0679423596
29.0744245126
29.0822696835
29.0916436352
29.1027300068
29.1157373377
29.1309053949
29.1485081691
29.1688626344
29.1923385598
29.2193645767
29.2504452118
29.2861836921
29.327309173
29.3747237586
29.4295517022
29.4932174743
29.5675883982
29.6551379887
29.7591728228
29.8839710243
30.0344414472
30.2153554096
30.4290277662
30.6712364845
30.9254011616
31.1538833621
31.297287352
31.2645896788
30.9371411225
30.1654026305
28.7950473715
26.7155516848
23.9051946804
20.4463212863
16.4960951924
12.0674774826
6.89470857155
1.66889788822
57.8737062896
53.8209715933
51.111277772
48.9628408566
47.1659714689
45.6216410414
44.2709529758
43.0760514485
42.0102897743
41.0537628625
40.1910686609
39.4099780444
38.7005760311
38.0546730872
37.4653862737
36.926838299
36.4339419988
35.9822467417
35.5678278123
35.187204794
34.8372791814
34.5152847475
34.2187464798
33.9454457024
33.6933897085
33.4607850759
33.2460143369
33.0476157682
32.864265717
32.6947630844
32.5380156076
32.3930278872
32.258891087
32.1347741164
32.0199156468
31.9136167618
31.8152344281
31.7241756859
31.639891983
31.5618708153
31.4896278065
31.4227056476
31.3606927398
31.3032614156
31.2500858776
31.2008377374
31.1552156862
31.1129427711
31.0737625787
31.0374375417
31.003747937
30.9724895195
30.9434720246
30.9165234875
30.8914775716
30.8681792475
30.8464890795
30.8262773418
30.807423566
30.7898155066
30.7733485225
30.7579280114
30.7434488964
30.729839849
30.7170294123
30.7049452019
30.6935263892
30.6827104641
30.6724377806
30.6626664634
30.6533536958
30.644458248
30.6359422368
30.6277711212
30.6199134564
30.6123404501
30.605025461
30.597944506
30.5910773857
30.5844049938
30.57790893
30.5715722789
30.5653829865
30.5593288612
30.5534001506
30.54758552
30.5418777411
30.5362704402
30.5307598062
30.5253390233
30.5200073839
30.5147611989
30.5096002233
30.5045221253
30.4995298054
30.4946234335
30.4898072818
30.4850810396
30.480452586
30.4759278834
30.4715140835
30.4672197975
30.4630566337
30.4590378789
30.4551795875
30.4514922134
30.4480004595
30.4447215465
30.4416836652
30.4389097068
30.4364313874
30.4342805953
30.4324957097
30.4311138467
30.4301841301
30.4297527675
30.4298848946
30.4306359374
30.4320874111
30.4343085677
30.4374011462
30.4414595071
30.4466040126
30.4529730369
30.4607097571
30.4699834626
30.4809825262
30.4939228832
30.509053264
30.5266632387
30.5470824025
30.5707085137
30.5979967638
30.6294930926
30.6658773327
30.7079636056
30.7567884395
30.8136880197
30.8804211866
30.959351797
31.0536956552
31.1675866592
31.3059876568
31.4736379751
31.6726391682
31.8980923291
32.1320241722
32.3343825708
32.4437377984
32.3646514238
31.9757951211
31.1253227912
29.6582395826
27.4688368869
24.5446081761
20.9725083942
16.9085106501
12.3835392368
7.14846326327
1.79035189444
60.0824048988
56.1487786392
53.2840323301
51.0041736624
49.1073643085
47.4864982619
46.0758633145
44.8328374691
43.7275480555
42.7378858773
41.8469133643
41.0413097416
40.3103692998
39.645319799
39.0388420571
38.4847276471
37.9776349111
37.5129154323
37.086489161
36.6947525233
36.3345084407
36.0029109776
35.6974198858
35.4157622549
35.1558995496
34.9159990726
34.6944092381
34.4896382246
34.3003352856
34.1252743366
33.9633395703
33.8135130613
33.674864278
33.5465410661
33.4277615406
33.3178066636
33.2160138844
33.1217718484
33.0345165116
32.9537284726
32.8789319886
32.8096834035
32.7455551685
32.6861593709
32.6311369889
32.5801707655
32.5329603533
32.4892225874
32.4486931055
32.4111262557
32.3762948291
32.3439873241
32.3140069771
32.2861651762
32.2602942313
32.2362394473
32.2138524627
32.1930015601
32.1735645114
32.1554087041
32.1384382469
32.1225577507
32.1076758794
32.0937048241
32.0805665725
32.0681871329
32.0565002883
32.0454438864
32.0349622623
32.0250053612
32.0155250065
32.006476993
31.9978215599
31.9895226823
31.9815473339
31.9738653458
31.9664492818
31.959274147
31.9523182662
31.945561242
31.9389841139
31.9325695804
31.9263047862
31.9201760909
31.9141727731
31.908283582
31.9025008426
31.8968171126
31.8912277828
31.8857254376
31.8803085443
31.8749727303
31.8697172122
31.8645394639
31.859441472
31.854421737
31.8494830435
31.8446251949
31.8398546419
31.8351756792
31.8305944677
31.8261188043
31.8217578327
31.8175219813
31.8134265354
31.8094797851
31.8057033931
31.8021123367
31.7987303465
31.79557768
31.7926822813
31.7900715749
31.7877796719
31.7858383532
31.7842917302
31.7831788841
31.7825581332
31.7824769523
31.7830094441
31.7842165568
31.786186162
31.7890049687
31.7927774441
31.7976268839
31.8036795395
31.8110849644
31.8200113842
31.8306512258
31.8432252118
31.8579904436
31.8752380175
31.8953207143
31.918646033
31.9456987705
31.977084794
32.0135312864
32.0559683811
32.1056051987
32.1640585556
32.2335484271
32.3171432684
32.4187542322
32.5433499307
32.6955477445
32.8772084158
33.08278156
33.2929193398
33.4661391104
33.5364944598
33.4086196417
32.9566616249
32.0290095149
30.4707726473
28.1804511719
25.1526575327
21.4769526292
17.3064913514
12.6887138899
7.39253004541
1.9061582701
61.8874830385
58.163306706
55.2619096715
52.9109041022
50.9459802532
49.2671619422
47.8086221952
46.5258957721
45.387311533
44.3693220533
43.453895267
42.6268897971
41.8769852705
41.1949465389
40.5731031544