/*--------------------------------*- C++ -*----------------------------------*\
| =========                 |                                                 |
| \\      /  F ield         | OpenFOAM: The Open Source CFD Toolbox           |
|  \\    /   O peration     | Version:  2106                                  |
|   \\  /    A nd           | Website:  www.openfoam.com                      |
|    \\/     M anipulation  |                                                 |
\*---------------------------------------------------------------------------*/
FoamFile
{
    version     2.0;
    format      ascii;
    arch        "LSB;label=32;scalar=64";
    class       volVectorField;
    location    "0.12";
    object      U;
}
// * * * * * * * * * * * * * * * * * * * * * * * * * * * * * * * * * * * * * //

dimensions      [0 1 -1 0 0 0 0];

internalField   nonuniform List<vector> 
11200
(
(0.662462405235 0.150569442173 0)
(0.558948680265 0.103243388561 0)
(0.383850751714 0.0513512250256 0)
(0.283747613825 0.0248708568439 0)
(0.232075289851 0.012417047616 0)
(0.201908604666 0.00662282000245 0)
(0.183197946531 0.0038029183224 0)
(0.171276496475 0.00231587455611 0)
(0.163510309161 0.00146451130955 0)
(0.15838877087 0.000944896869305 0)
(0.155006637621 0.00061518010742 0)
(0.152786699477 0.00040223442788 0)
(0.151346582942 0.000264228491901 0)
(0.150428402583 0.000175239814057 0)
(0.149856885206 0.00011834070791 0)
(0.14951280877 8.21260096905e-05 0)
(0.149315418591 5.88109779466e-05 0)
(0.149210274089 4.32305941701e-05 0)
(0.14916066786 3.28202023808e-05 0)
(0.14914374438 2.80755567959e-05 0)
(0.149146310613 2.75591255073e-05 0)
(0.149159024345 2.98441541155e-05 0)
(0.149175093626 3.30253865288e-05 0)
(0.149191128571 3.5941154322e-05 0)
(0.149205849108 3.85818279992e-05 0)
(0.149218637498 4.10311545834e-05 0)
(0.149229311753 4.3320385113e-05 0)
(0.149237966074 4.5478380123e-05 0)
(0.149244826432 4.75417296543e-05 0)
(0.149250165925 4.95527858841e-05 0)
(0.149254260924 5.1564365171e-05 0)
(0.149257373014 5.36543799574e-05 0)
(0.149259707777 5.59177404783e-05 0)
(0.149261430899 5.82896911734e-05 0)
(0.149262686695 6.06710145687e-05 0)
(0.149263570148 6.30218979691e-05 0)
(0.149264160015 6.53390340223e-05 0)
(0.14926454694 6.76289314171e-05 0)
(0.149264800992 6.99079581636e-05 0)
(0.149264958286 7.21851321352e-05 0)
(0.149265042747 7.44629486856e-05 0)
(0.149265073946 7.6742310951e-05 0)
(0.149265066993 7.90230092269e-05 0)
(0.149265033522 8.13041523889e-05 0)
(0.149264982431 8.3584187842e-05 0)
(0.149264920768 8.58609375939e-05 0)
(0.14926485434 8.81318572092e-05 0)
(0.149264787721 9.03943060938e-05 0)
(0.14926472464 9.2645505089e-05 0)
(0.149264669266 9.48825390207e-05 0)
(0.149264627223 9.71025964481e-05 0)
(0.149264606519 9.93027850019e-05 0)
(0.14926461895 0.000101480113008 0)
(0.149264681619 0.000103631375514 0)
(0.149264818938 0.000105752745071 0)
(0.149265065897 0.00010783901734 0)
(0.149265472916 0.000109882926312 0)
(0.149266111626 0.000111875159921 0)
(0.149267087625 0.000113801434124 0)
(0.149268557963 0.000115637885061 0)
(0.14927076261 0.000117333634125 0)
(0.149274103499 0.00011880301448 0)
(0.149279069759 0.000120068663099 0)
(0.149286306912 0.000121313872339 0)
(0.149296841312 0.00012298853207 0)
(0.149312199865 0.00012534386077 0)
(0.14933477893 0.000128132953798 0)
(0.149368311136 0.000131113801722 0)
(0.149418446593 0.000134061919143 0)
(0.14949349304 0.000136868855727 0)
(0.149605494215 0.000140874092581 0)
(0.1497776394 0.000152044025828 0)
(0.150048014955 0.000173035811003 0)
(0.150480110114 0.00020366380154 0)
(0.151210536252 0.000234201879379 0)
(0.152518927765 0.000193699587045 0)
(0.155065228078 -0.000218644816316 0)
(0.16245483041 -0.00213643605168 0)
(0.187976542239 -0.0109408967842 0)
(0.205504589027 -0.0505618262825 0)
(0.96540825626 0.289214708601 0)
(0.961962865722 0.252656043256 0)
(0.823574401537 0.159021447034 0)
(0.698139377283 0.0959957392348 0)
(0.610225466791 0.0582481247372 0)
(0.548971485827 0.0362148659365 0)
(0.506588872543 0.0231612991012 0)
(0.47756724386 0.0151375287391 0)
(0.457745464581 0.0100177649932 0)
(0.444228444947 0.00665814284596 0)
(0.435053316329 0.0044155433941 0)
(0.428873202287 0.00290683016526 0)
(0.424754397955 0.0018909900506 0)
(0.422047020189 0.00120993316324 0)
(0.420298431323 0.000756995454222 0)
(0.419194162233 0.000459019720575 0)
(0.418517003014 0.00026553828237 0)
(0.418118421475 0.000141994149792 0)
(0.417898516559 6.56258417728e-05 0)
(0.41779029978 2.2583837416e-05 0)
(0.417749974296 8.63294451863e-07 0)
(0.417747829973 -1.08872485393e-05 0)
(0.417763517146 -1.44997180594e-05 0)
(0.417786698498 -1.40996967482e-05 0)
(0.417812293882 -1.17047685558e-05 0)
(0.417836983716 -8.37797575322e-06 0)
(0.417859038426 -4.75498878326e-06 0)
(0.417877828507 -1.2067026773e-06 0)
(0.417893328493 2.06623362486e-06 0)
(0.417905825104 4.96343803605e-06 0)
(0.41791576198 7.42948120123e-06 0)
(0.41792363656 9.39819368223e-06 0)
(0.41792973527 1.0769939603e-05 0)
(0.417934252526 1.17166183977e-05 0)
(0.417937516358 1.25198500356e-05 0)
(0.417939824461 1.32988520548e-05 0)
(0.417941402927 1.40148798069e-05 0)
(0.417942471162 1.46582104723e-05 0)
(0.417943195099 1.52665425722e-05 0)
(0.417943662999 1.58551083826e-05 0)
(0.417943936277 1.64260142822e-05 0)
(0.417944065698 1.69829701901e-05 0)
(0.417944090339 1.75291442461e-05 0)
(0.41794403959 1.80681148372e-05 0)
(0.417943934857 1.86035517171e-05 0)
(0.417943792216 1.9138764481e-05 0)
(0.41794362484 1.96770580145e-05 0)
(0.417943443947 2.02219245096e-05 0)
(0.417943260149 2.07758114103e-05 0)
(0.417943086361 2.13396980934e-05 0)
(0.417942939701 2.19147408441e-05 0)
(0.417942843186 2.25017915655e-05 0)
(0.417942828624 2.31010927684e-05 0)
(0.417942940029 2.37119862386e-05 0)
(0.417943238495 2.4332712925e-05 0)
(0.417943810587 2.4960404449e-05 0)
(0.417944782087 2.55913368822e-05 0)
(0.417946333847 2.62202296707e-05 0)
(0.417948731628 2.68269647008e-05 0)
(0.417952362038 2.73800956097e-05 0)
(0.417957809578 2.78339232132e-05 0)
(0.41796614482 2.81200237263e-05 0)
(0.417978887601 2.83700489364e-05 0)
(0.417998182246 2.79789230627e-05 0)
(0.418026858927 2.55009129723e-05 0)
(0.418068549315 1.97189493708e-05 0)
(0.418129423165 9.82404213878e-06 0)
(0.418219711642 -5.72376751129e-06 0)
(0.418355222109 -2.94851479059e-05 0)
(0.41856120264 -6.5198800132e-05 0)
(0.41888015519 -0.000117113192864 0)
(0.419382565262 -0.000190281716505 0)
(0.420183493078 -0.000312024808862 0)
(0.421489605252 -0.000540475594429 0)
(0.423698125002 -0.00101402643497 0)
(0.427539374548 -0.00211938003298 0)
(0.434460536415 -0.00492448207258 0)
(0.448693361466 -0.0124359905568 0)
(0.475543380009 -0.0347756692629 0)
(0.48005724712 -0.100549949357 0)
(1.02222096743 0.238416192111 0)
(1.08213753676 0.295926658556 0)
(1.03447723804 0.239503075943 0)
(0.954615420562 0.174290178448 0)
(0.879992062537 0.121345486586 0)
(0.81861443542 0.083099405232 0)
(0.771410843734 0.0567316882963 0)
(0.736634382299 0.0387409845312 0)
(0.711624434479 0.0264327893492 0)
(0.69391665358 0.0179730809346 0)
(0.681541506639 0.0121423813905 0)
(0.673000322759 0.00812477800037 0)
(0.667181028617 0.00536610284367 0)
(0.663272310875 0.00348411193343 0)
(0.660689493645 0.00221208697891 0)
(0.659015645899 0.00136274056246 0)
(0.657956583976 0.000804416576167 0)
(0.657307070871 0.000444894862389 0)
(0.656925610207 0.000219857890012 0)
(0.65671517421 8.41999532035e-05 0)
(0.656609533901 6.81980213354e-06 0)
(0.656569409513 -3.56475409401e-05 0)
(0.656567121119 -5.91469413338e-05 0)
(0.656582221812 -6.92977866293e-05 0)
(0.656605450016 -7.09723740572e-05 0)
(0.656631005616 -6.80866986855e-05 0)
(0.656655529937 -6.30731025058e-05 0)
(0.656677376117 -5.7340005159e-05 0)
(0.656695927442 -5.16731695447e-05 0)
(0.656711137912 -4.64803558511e-05 0)
(0.656723238951 -4.19532171248e-05 0)
(0.656732578758 -3.81935012628e-05 0)
(0.656739737435 -3.53042637381e-05 0)
(0.65674540257 -3.31924851524e-05 0)
(0.656749890148 -3.18050891234e-05 0)
(0.656753211707 -3.10498859951e-05 0)
(0.656755501381 -3.07304800337e-05 0)
(0.656757075537 -3.08740377613e-05 0)
(0.656758166268 -3.12897130365e-05 0)
(0.656758883467 -3.18671255665e-05 0)
(0.656759314524 -3.25672561365e-05 0)
(0.656759535014 -3.33568259828e-05 0)
(0.656759602499 -3.42079126282e-05 0)
(0.65675956103 -3.50965432315e-05 0)
(0.656759442818 -3.60038652609e-05 0)
(0.65675927208 -3.69167499081e-05 0)
(0.656759068665 -3.78258515692e-05 0)
(0.656758848689 -3.87230926812e-05 0)
(0.65675862642 -3.96014989642e-05 0)
(0.656758420171 -4.04553085229e-05 0)
(0.656758255063 -4.12782585289e-05 0)
(0.656758164279 -4.20658674283e-05 0)
(0.656758193273 -4.28158637818e-05 0)
(0.65675840534 -4.35294636822e-05 0)
(0.65675888988 -4.42150912093e-05 0)
(0.65675977545 -4.48969585462e-05 0)
(0.656761248551 -4.56279243192e-05 0)
(0.656763569015 -4.64952264654e-05 0)
(0.656767122358 -4.76424797814e-05 0)
(0.656772497908 -4.92902893259e-05 0)
(0.656780592225 -5.18988197208e-05 0)
(0.656793015163 -5.65076646555e-05 0)
(0.656811261281 -6.39559427268e-05 0)
(0.656836771898 -7.5209065844e-05 0)
(0.656873176212 -9.18790111567e-05 0)
(0.656927242753 -0.000116452904821 0)
(0.657008548113 -0.000152169293645 0)
(0.657131047003 -0.000204398454418 0)
(0.657316838119 -0.00028182499719 0)
(0.657601832673 -0.000398605983695 0)
(0.658045068609 -0.000579575202329 0)
(0.658737256131 -0.000872831877058 0)
(0.65982819418 -0.00136988848408 0)
(0.661580389551 -0.00224672511796 0)
(0.664445000901 -0.00387193121558 0)
(0.66913464971 -0.00705825202191 0)
(0.676706063844 -0.0135785405028 0)
(0.689220784024 -0.0273286596842 0)
(0.706328139162 -0.0574188996126 0)
(0.702316891235 -0.115667011222 0)
(1.02251475671 0.170807159661 0)
(1.10138976524 0.276496486507 0)
(1.1175242752 0.266664812391 0)
(1.09214662119 0.219901718552 0)
(1.05187816944 0.16816887274 0)
(1.01020823342 0.123567424606 0)
(0.973494696482 0.0888375467951 0)
(0.943864564456 0.0630063845719 0)
(0.921142823714 0.044223190052 0)
(0.904284134288 0.0307423304059 0)
(0.892075000761 0.0211561554011 0)
(0.883404759578 0.0143952187327 0)
(0.877353099104 0.00966754705342 0)
(0.87319839641 0.00639324071962 0)
(0.87039398004 0.00415032816525 0)
(0.868535571643 0.00263337183393 0)
(0.867329793596 0.00162258035557 0)
(0.86656716326 0.000960896150712 0)
(0.866100345571 0.000536986916681 0)
(0.865827207668 0.000272657121725 0)
(0.865677557493 0.000114222306056 0)
(0.865602573015 2.5686638899e-05 0)
(0.865573098786 -2.26784557497e-05 0)
(0.865572040137 -4.48355816137e-05 0)
(0.865585060703 -5.13479980991e-05 0)
(0.865603747631 -4.9218052728e-05 0)
(0.865623731908 -4.27743506967e-05 0)
(0.865642698841 -3.46120313871e-05 0)
(0.865659528456 -2.62121728838e-05 0)
(0.865673823427 -1.83543763161e-05 0)
(0.865685595063 -1.1386308212e-05 0)
(0.865695044793 -5.38490091088e-06 0)
(0.865702438007 -2.7084217546e-07 0)
(0.865708010535 3.89806206006e-06 0)
(0.865712062224 6.99733891193e-06 0)
(0.865715015748 9.11634402315e-06 0)
(0.865717036542 1.06161799772e-05 0)
(0.865718399266 1.19211369953e-05 0)
(0.865719429286 1.30230691686e-05 0)
(0.865720143205 1.39936136899e-05 0)
(0.865720578088 1.48682728881e-05 0)
(0.865720804322 1.56612463508e-05 0)
(0.865720877255 1.63838218301e-05 0)
(0.865720838038 1.70541459193e-05 0)
(0.865720714457 1.76900248311e-05 0)
(0.865720526917 1.83059974538e-05 0)
(0.865720294456 1.89161406408e-05 0)
(0.865720035269 1.95369834409e-05 0)
(0.865719767177 2.01754521952e-05 0)
(0.865719513178 2.08242584692e-05 0)
(0.865719302838 2.14801829506e-05 0)
(0.865719173949 2.21365289828e-05 0)
(0.865719178246 2.27794800509e-05 0)
(0.865719385265 2.33850218003e-05 0)
(0.865719885857 2.39141573807e-05 0)
(0.865720799899 2.43099811484e-05 0)
(0.865722302809 2.45114241327e-05 0)
(0.865724648404 2.44740962069e-05 0)
(0.86572821407 2.40187554624e-05 0)
(0.865733460308 2.27992230255e-05 0)
(0.865740796288 2.01717844687e-05 0)
(0.865751743472 1.54705947383e-05 0)
(0.865768888406 6.98462255921e-06 0)
(0.865795296185 -7.14541983276e-06 0)
(0.865834932529 -2.89451997053e-05 0)
(0.865893690849 -6.23296937245e-05 0)
(0.865980962109 -0.000114291767513 0)
(0.866111402059 -0.000195797953767 0)
(0.866307850069 -0.000324445661249 0)
(0.866605662382 -0.000529275696668 0)
(0.867059427246 -0.000860197219842 0)
(0.867755890941 -0.00140576954378 0)
(0.868834326173 -0.00231767469222 0)
(0.87051313018 -0.00387606088053 0)
(0.873120082141 -0.0066159861002 0)
(0.877069123173 -0.0115689060323 0)
(0.882706369037 -0.0206501061357 0)
(0.890246955915 -0.0372262583411 0)
(0.897275009243 -0.0670201374539 0)
(0.887863083115 -0.113051361184 0)
(1.01287875302 0.118961032385 0)
(1.08820671597 0.23180694609 0)
(1.1374136867 0.253106780044 0)
(1.15409088668 0.228992776783 0)
(1.14994212912 0.188368388453 0)
(1.13538467474 0.146579875697 0)
(1.11758896971 0.110150991448 0)
(1.10059503114 0.0808162284596 0)
(1.08612461869 0.0582265429418 0)
(1.07459100761 0.0413188830926 0)
(1.06579161042 0.0289158123821 0)
(1.05928822759 0.0199597400931 0)
(1.05460014257 0.0135809947977 0)
(1.05129134222 0.00909661425669 0)
(1.04900069337 0.00598500204926 0)
(1.04744460412 0.00385543532293 0)
(1.04640818236 0.00241963962814 0)
(1.04573282681 0.00146772993772 0)
(1.04530394681 0.00084880265981 0)
(1.0450402408 0.000455637437171 0)
(1.04488476627 0.000212921925636 0)
(1.04479818442 6.8851046166e-05 0)
(1.04475542462 -9.82757288111e-06 0)
(1.0447396668 -4.85708178139e-05 0)
(1.04473866252 -6.40878050661e-05 0)
(1.04474540567 -6.64251252196e-05 0)
(1.04475560056 -6.18271269816e-05 0)
(1.04476670035 -5.4143391168e-05 0)
(1.04477730604 -4.5640827811e-05 0)
(1.04478672764 -3.7562874688e-05 0)
(1.04479469703 -3.05184186719e-05 0)
(1.04480118469 -2.47389831589e-05 0)
(1.04480630937 -2.02203962397e-05 0)
(1.04481027265 -1.68092465889e-05 0)
(1.04481330313 -1.41990478157e-05 0)
(1.04481566465 -1.21463465271e-05 0)
(1.04481766108 -1.05263399211e-05 0)
(1.04481927242 -9.03967846351e-06 0)
(1.04482041809 -7.78796834423e-06 0)
(1.04482122988 -6.86741637685e-06 0)
(1.04482174674 -6.31141947769e-06 0)
(1.04482202391 -5.99115662802e-06 0)
(1.04482212401 -5.83450358867e-06 0)
(1.0448220996 -5.77461561883e-06 0)
(1.04482198432 -5.76159909578e-06 0)
(1.04482180405 -5.77091165831e-06 0)
(1.0448215852 -5.79189727245e-06 0)
(1.04482134325 -5.82579769613e-06 0)
(1.04482107907 -5.86913216643e-06 0)
(1.04482080984 -5.90349327408e-06 0)
(1.04482056971 -5.92445947114e-06 0)
(1.04482039501 -5.93441806362e-06 0)
(1.04482033317 -5.93945774012e-06 0)
(1.04482044928 -5.95225637892e-06 0)
(1.04482083737 -5.99864284842e-06 0)
(1.04482165268 -6.13733791211e-06 0)
(1.04482315747 -6.53215965159e-06 0)
(1.04482560927 -7.58976630904e-06 0)
(1.04482929049 -9.71306247562e-06 0)
(1.04483461813 -1.34255586913e-05 0)
(1.04484253861 -1.83920109237e-05 0)
(1.04485431682 -2.4570975729e-05 0)
(1.04487118131 -3.41607579724e-05 0)
(1.04489533525 -5.01726613935e-05 0)
(1.04493028576 -7.69727035757e-05 0)
(1.04498120318 -0.000120936746579 0)
(1.04505574254 -0.000192010828155 0)
(1.04516534478 -0.000306048344528 0)
(1.04532734413 -0.000488694237714 0)
(1.0455679801 -0.000781792086767 0)
(1.04592667859 -0.00125406434932 0)
(1.04646255934 -0.00201948396434 0)
(1.04726187232 -0.00327280060881 0)
(1.04844122519 -0.00535243156212 0)
(1.05013385859 -0.00884923092271 0)
(1.05240526782 -0.014783159325 0)
(1.05502240771 -0.0248104913155 0)
(1.05720341629 -0.0413311841955 0)
(1.05622867954 -0.0673384908186 0)
(1.04270411768 -0.102566522142 0)
(1.00447483662 0.0814040075989 0)
(1.0691723819 0.181288547948 0)
(1.13080570497 0.216950433989 0)
(1.17375002929 0.2107891789 0)
(1.19865268308 0.183690106497 0)
(1.21019991675 0.149751713986 0)
(1.21350260095 0.116779166113 0)
(1.21251729386 0.0882206754468 0)
(1.20973105164 0.0650481004328 0)
(1.20651128777 0.0470207775483 0)
(1.20351925754 0.0334065536703 0)
(1.20101162177 0.023355301882 0)
(1.1990346818 0.0160713469828 0)
(1.19753908928 0.010878544916 0)
(1.19644172599 0.00723285022634 0)
(1.19565612508 0.00471174816887 0)
(1.19510558793 0.00299537218359 0)
(1.19472736812 0.00184637860713 0)
(1.19447261811 0.0010916350212 0)
(1.19430457778 0.000606748726977 0)
(1.19419624358 0.00030362041552 0)
(1.19412832218 0.000120974369134 0)
(1.1940876586 1.70330468538e-05 0)
(1.19406479865 -3.78882678597e-05 0)
(1.19405294107 -6.28259985404e-05 0)
(1.1940478953 -7.01584222798e-05 0)
(1.19404685398 -6.78223541227e-05 0)
(1.19404799049 -6.07361474176e-05 0)
(1.19405017679 -5.1827551134e-05 0)
(1.19405274477 -4.27384859975e-05 0)
(1.194055315 -3.4300377393e-05 0)
(1.19405768807 -2.68505708473e-05 0)
(1.1940597831 -2.04364345687e-05 0)
(1.19406159613 -1.4978150734e-05 0)
(1.19406315187 -1.03692121097e-05 0)
(1.1940644757 -6.52016387547e-06 0)
(1.19406558692 -3.40011261996e-06 0)
(1.19406643594 -1.0924502752e-06 0)
(1.19406695049 5.73392788769e-07 0)
(1.19406713713 1.69704340412e-06 0)
(1.19406717177 2.53522836353e-06 0)
(1.19406717818 3.25802347971e-06 0)
(1.19406714385 3.88338739952e-06 0)
(1.1940670793 4.41203350435e-06 0)
(1.19406697146 4.85967209592e-06 0)
(1.19406680613 5.25076038329e-06 0)
(1.19406658085 5.60127627511e-06 0)
(1.19406630863 5.91047888166e-06 0)
(1.19406602524 6.1797557016e-06 0)
(1.19406575838 6.43613400546e-06 0)
(1.19406552589 6.68727312763e-06 0)
(1.19406536373 6.92025504268e-06 0)
(1.19406532445 7.11018021949e-06 0)
(1.19406547462 7.21818777939e-06 0)
(1.19406588671 7.18620819971e-06 0)
(1.19406659702 6.93172030675e-06 0)
(1.19406753913 6.32783517744e-06 0)
(1.19406882401 5.08583824456e-06 0)
(1.19407080269 2.61643802284e-06 0)
(1.19407464436 -1.30642081146e-06 0)
(1.1940813818 -7.44465923681e-06 0)
(1.19409075316 -1.7173819338e-05 0)
(1.19410331351 -3.25793541936e-05 0)
(1.19412098305 -5.65576156092e-05 0)
(1.19414590965 -9.37360472484e-05 0)
(1.19418088967 -0.00015153022883 0)
(1.19422989093 -0.000241774380676 0)
(1.19429852318 -0.000383264685853 0)
(1.19439466685 -0.000606037488694 0)
(1.1945291625 -0.000958422484078 0)
(1.19471634257 -0.00151864814665 0)
(1.19497340678 -0.00241367204479 0)
(1.19531577863 -0.003851630574 0)
(1.19574178617 -0.00617408061211 0)
(1.19619248346 -0.00993494016853 0)
(1.19644897233 -0.0160044741174 0)
(1.19592187703 -0.0256393923654 0)
(1.19344350399 -0.0403714872599 0)
(1.18663722557 -0.061560274531 0)
(1.16987428492 -0.0880485951616 0)
(0.998962327677 0.0544316358998 0)
(1.05310957787 0.133401615246 0)
(1.11628270313 0.170777571227 0)
(1.17301275085 0.175143892707 0)
(1.21791250357 0.159583632795 0)
(1.25049862963 0.134951046928 0)
(1.27288497156 0.108411674123 0)
(1.28776729031 0.0838849636559 0)
(1.29745275604 0.0630565151523 0)
(1.30366082914 0.0462997825986 0)
(1.30759241637 0.0333202522665 0)
(1.31005375433 0.0235490861221 0)
(1.31157363768 0.0163592350179 0)
(1.31249487172 0.0111703428312 0)
(1.31303846043 0.00749016878777 0)
(1.31334640504 0.004922719852 0)
(1.3135096232 0.00316070762974 0)
(1.31358600427 0.00197198431142 0)
(1.31361207676 0.00118489139491 0)
(1.31361056871 0.000674791725263 0)
(1.31359531844 0.000352671176064 0)
(1.31357454335 0.000155978478388 0)
(1.31355305381 4.13094061336e-05 0)
(1.31353325326 -2.13003003522e-05 0)
(1.313516082 -5.16199066634e-05 0)
(1.3135018596 -6.26481632994e-05 0)
(1.31349043818 -6.28003056664e-05 0)
(1.31348149195 -5.73430793644e-05 0)
(1.31347463835 -4.94591216197e-05 0)
(1.31346949831 -4.09899208619e-05 0)
(1.31346572584 -3.29314967423e-05 0)
(1.31346302128 -2.57604094015e-05 0)
(1.31346113283 -1.96490551829e-05 0)
(1.31345983809 -1.46119751774e-05 0)
(1.31345895362 -1.06014830169e-05 0)
(1.3134583625 -7.5347339328e-06 0)
(1.31345798799 -5.30113964463e-06 0)
(1.31345772788 -3.76002650126e-06 0)
(1.31345752123 -2.67529920026e-06 0)
(1.31345747031 -1.83231386072e-06 0)
(1.31345760166 -1.10895609613e-06 0)
(1.31345772347 -5.72239624007e-07 0)
(1.31345772735 -1.17866179044e-07 0)
(1.31345763796 2.89084192753e-07 0)
(1.31345749153 6.50899023186e-07 0)
(1.31345730447 9.83335951145e-07 0)
(1.31345707757 1.3088595194e-06 0)
(1.31345681241 1.65282391771e-06 0)
(1.31345653174 2.0263893199e-06 0)
(1.31345625806 2.40116671574e-06 0)
(1.31345599563 2.75003149388e-06 0)
(1.31345575789 3.04739021595e-06 0)
(1.31345557561 3.25300157231e-06 0)
(1.31345549295 3.30439960364e-06 0)
(1.31345557636 3.11014518293e-06 0)
(1.31345593587 2.5461916128e-06 0)
(1.31345668279 1.48654308721e-06 0)
(1.31345772707 -1.16627255158e-07 0)
(1.31345942807 -2.48005268633e-06 0)
(1.31346211638 -6.07949990715e-06 0)
(1.31346586664 -1.23754019282e-05 0)
(1.31347095356 -2.30425217801e-05 0)
(1.31347760613 -3.9696263099e-05 0)
(1.31348624449 -6.54720210129e-05 0)
(1.31349713515 -0.000105439874888 0)
(1.31351028223 -0.000167452570499 0)
(1.31352521169 -0.00026377136232 0)
(1.31354044793 -0.00041363285238 0)
(1.31355254454 -0.000647425619531 0)
(1.313554241 -0.00101338135354 0)
(1.31353123415 -0.00158830147233 0)
(1.31345548217 -0.00249367541644 0)
(1.31327147099 -0.00392157616738 0)
(1.31286972854 -0.00617263616401 0)
(1.31203680187 -0.00970523290879 0)
(1.31036042077 -0.0151841598011 0)
(1.30707306718 -0.0234756586068 0)
(1.30093655463 -0.0354789843504 0)
(1.29002575678 -0.0517146973548 0)
(1.27075714031 -0.0710553545724 0)
(0.99573607635 0.0346338703532 0)
(1.04179515491 0.0905689262143 0)
(1.10222841295 0.121549573859 0)
(1.16491415668 0.129605849557 0)
(1.22202571778 0.12200928899 0)
(1.26951898858 0.106019959295 0)
(1.30680231809 0.0870975686806 0)
(1.3349954414 0.0686366718674 0)
(1.35574486091 0.0523697878025 0)
(1.37069623584 0.0389254970167 0)
(1.3812827784 0.0282978469775 0)
(1.38866261465 0.0201709017036 0)
(1.39373012923 0.0141169357437 0)
(1.3971561879 0.00970450769637 0)
(1.39943362193 0.00654945776475 0)
(1.40091852621 0.00433295525117 0)
(1.40186452888 0.00280223853783 0)
(1.40244986729 0.00176339712876 0)
(1.40279813703 0.00107139376638 0)
(1.40299385909 0.00061998245631 0)
(1.40309396321 0.000332732003515 0)
(1.40313617106 0.000155573850723 0)
(1.40314506999 5.08180973813e-05 0)
(1.40313616362 -7.5079728859e-06 0)
(1.40311893826 -3.68154382125e-05 0)
(1.40309902926 -4.86304718151e-05 0)
(1.40307951044 -5.04232610283e-05 0)
(1.4030619356 -4.68993330662e-05 0)
(1.40304693259 -4.09357203847e-05 0)
(1.40303459761 -3.42229986149e-05 0)
(1.40302474641 -2.76969359152e-05 0)
(1.40301706592 -2.18242492321e-05 0)
(1.40301120258 -1.67940494205e-05 0)
(1.40300680669 -1.26354044752e-05 0)
(1.40300356592 -9.27317507189e-06 0)
(1.40300122938 -6.58710849281e-06 0)
(1.40299960717 -4.45561824566e-06 0)
(1.4029985491 -2.76308478608e-06 0)
(1.40299789419 -1.37153230186e-06 0)
(1.40299744656 -2.35459215638e-07 0)
(1.40299706749 6.48088214872e-07 0)
(1.40299680327 1.26343337336e-06 0)
(1.40299668036 1.71347895151e-06 0)
(1.40299659722 2.0874709511e-06 0)
(1.40299650412 2.43440116438e-06 0)
(1.40299638872 2.77802992326e-06 0)
(1.40299624718 3.13278869863e-06 0)
(1.40299607857 3.50991496976e-06 0)
(1.40299587323 3.91403359874e-06 0)
(1.4029956266 4.32169940984e-06 0)
(1.40299535863 4.70654722885e-06 0)
(1.40299509526 5.04470866623e-06 0)
(1.40299486028 5.3004932091e-06 0)
(1.40299468035 5.41949291781e-06 0)
(1.40299458054 5.32141076977e-06 0)
(1.402994572 4.88343432461e-06 0)
(1.40299464862 3.91154436435e-06 0)
(1.40299484316 2.18037392724e-06 0)
(1.40299515782 -4.77205388909e-07 0)
(1.40299574767 -4.99426477049e-06 0)
(1.40299668922 -1.21332867805e-05 0)
(1.40299758303 -2.31905192589e-05 0)
(1.40299785535 -4.00180812367e-05 0)
(1.40299668527 -6.5587380389e-05 0)
(1.40299249281 -0.00010450999125 0)
(1.40298241305 -0.000163905581668 0)
(1.40296149458 -0.000254785241342 0)
(1.40292124611 -0.000394178925562 0)
(1.40284719727 -0.000608614463633 0)
(1.40271480899 -0.000939552066968 0)
(1.4024833838 -0.00145204088469 0)
(1.40208497682 -0.00224609338255 0)
(1.4014047774 -0.00347489198155 0)
(1.400249768 -0.00536897624877 0)
(1.39829888686 -0.00826219991936 0)
(1.39502551559 -0.0126072950348 0)
(1.38959329866 -0.0189433455812 0)
(1.38081456317 -0.0277496136799 0)
(1.36712636233 -0.0391633618658 0)
(1.34602612473 -0.0523544388942 0)
(0.994011533697 0.0192358160391 0)
(1.03484764768 0.0523338418792 0)
(1.09199265439 0.0723631306257 0)
(1.15662424312 0.0791292400913 0)
(1.220321223 0.0761045586215 0)
(1.27701952832 0.0673339847856 0)
(1.32424427755 0.0561509119989 0)
(1.36181582963 0.0447990054058 0)
(1.39068539127 0.0345303443332 0)
(1.41226079642 0.0258813528776 0)
(1.42801818917 0.0189463740232 0)
(1.43929866849 0.0135847324903 0)
(1.44722767841 0.00955615149646 0)
(1.45270340189 0.0065995630996 0)
(1.45641775877 0.00447343149808 0)
(1.45888961398 0.0029725131842 0)
(1.46049966196 0.00193149693513 0)
(1.4615220365 0.00122212877279 0)
(1.46215081256 0.000747681403744 0)
(1.46252117759 0.000436846574013 0)
(1.46272578309 0.000238064449338 0)
(1.46282706929 0.000114701933354 0)
(1.46286637818 4.11297379477e-05 0)
(1.46287041208 -3.75375553209e-07 0)
(1.46285599163 -2.16078064856e-05 0)
(1.46283340211 -3.06273603243e-05 0)
(1.46280861639 -3.25777006396e-05 0)
(1.46278490407 -3.07087341861e-05 0)
(1.46276384727 -2.70260432394e-05 0)
(1.46274602669 -2.27189395529e-05 0)
(1.46273146111 -1.84529944224e-05 0)
(1.46271987707 -1.45643358414e-05 0)
(1.4627108731 -1.11939070194e-05 0)
(1.46270401666 -8.36896138349e-06 0)
(1.46269889852 -6.04845789472e-06 0)
(1.46269516075 -4.16500512641e-06 0)
(1.46269250136 -2.65340233572e-06 0)
(1.46269065519 -1.46962455642e-06 0)
(1.4626893688 -5.82284796477e-07 0)
(1.46268853357 9.08904184996e-08 0)
(1.46268804633 6.56516136541e-07 0)
(1.46268774105 1.20735295656e-06 0)
(1.46268754776 1.69749926236e-06 0)
(1.46268741745 2.12760911668e-06 0)
(1.46268731325 2.52277258758e-06 0)
(1.46268720987 2.90235687091e-06 0)
(1.46268708888 3.2768447441e-06 0)
(1.46268693822 3.64830624348e-06 0)
(1.46268674916 4.0117469388e-06 0)
(1.46268651746 4.36784595702e-06 0)
(1.4626862459 4.70670982812e-06 0)
(1.4626859391 4.99828169048e-06 0)
(1.46268560174 5.19601900321e-06 0)
(1.46268524006 5.23408322552e-06 0)
(1.46268486276 5.02247897425e-06 0)
(1.46268448485 4.44513335269e-06 0)
(1.4626841293 3.36581415773e-06 0)
(1.46268370883 1.64716245631e-06 0)
(1.46268298359 -9.4000476865e-07 0)
(1.46268176019 -4.88833001368e-06 0)
(1.46267978622 -1.12463874319e-05 0)
(1.46267640083 -2.11212163493e-05 0)
(1.46267042922 -3.60263860204e-05 0)
(1.46265998506 -5.83078122514e-05 0)
(1.46264187691 -9.15468098169e-05 0)
(1.46261079926 -0.000141195866097 0)
(1.46255810523 -0.000215501365753 0)
(1.46246962618 -0.000326852414677 0)
(1.46232211791 -0.000494116503162 0)
(1.4620774179 -0.000746302625125 0)
(1.46167480707 -0.00112912119153 0)
(1.46101737206 -0.00170949491887 0)
(1.45994895532 -0.00258637306575 0)
(1.45822193797 -0.00390387137257 0)
(1.45545152114 -0.00586125580573 0)
(1.45105425511 -0.00871267112317 0)
(1.44418045205 -0.0127352130571 0)
(1.43371474663 -0.0181336359206 0)
(1.4183255286 -0.024887637441 0)
(1.39605745932 -0.032485271703 0)
(0.993269669825 0.00617015904346 0)
(1.0315810123 0.0171020437655 0)
(1.08672184692 0.0239906456783 0)
(1.15174559013 0.0265606659179 0)
(1.21823542589 0.0258180623398 0)
(1.27925782131 0.0230488918204 0)
(1.33140145235 0.0193656371591 0)
(1.37377608311 0.0155468602512 0)
(1.40691061409 0.0120449240798 0)
(1.43203316675 0.0090663783126 0)
(1.45060208395 0.00666054925567 0)
(1.46402962316 0.00479001137345 0)
(1.47354965767 0.00337830172075 0)
(1.48017473491 0.00233855230142 0)
(1.4847008332 0.00158865588595 0)
(1.48773400341 0.00105794678139 0)
(1.48972417555 0.000689026256523 0)
(1.49099839761 0.000437099997369 0)
(1.49179001278 0.000268241431204 0)
(1.49226265774 0.000157360842833 0)
(1.49252917143 8.62726637661e-05 0)
(1.49266603737 4.20289861507e-05 0)
(1.49272415825 1.55458723078e-05 0)
(1.4927367788 5.13576310247e-07 0)
(1.49272488866 -7.21092850378e-06 0)
(1.4927013977 -1.05520426602e-05 0)
(1.4926740794 -1.13416758987e-05 0)
(1.49264721477 -1.07383815253e-05 0)
(1.49262295575 -9.46128424319e-06 0)
(1.49260218428 -7.93589323556e-06 0)
(1.49258505561 -6.40026245306e-06 0)
(1.49257133433 -4.98136016479e-06 0)
(1.49256060183 -3.73302466911e-06 0)
(1.49255238326 -2.66698376652e-06 0)
(1.49254621534 -1.7710519456e-06 0)
(1.49254168088 -1.02402207736e-06 0)
(1.49253842148 -4.0492117732e-07 0)
(1.49253613999 1.03525318945e-07 0)
(1.49253461179 5.31774658504e-07 0)
(1.4925336294 9.54306956001e-07 0)
(1.49253300438 1.31795664818e-06 0)
(1.49253262206 1.64503861096e-06 0)
(1.49253240324 1.95946114499e-06 0)
(1.49253228143 2.27653632238e-06 0)
(1.49253220661 2.60703235744e-06 0)
(1.49253214419 2.95684003613e-06 0)
(1.49253206954 3.32829707257e-06 0)
(1.49253196478 3.72024610887e-06 0)
(1.49253181589 4.12658097989e-06 0)
(1.49253161237 4.53746260683e-06 0)
(1.49253134777 4.93495560905e-06 0)
(1.49253101645 5.29025679502e-06 0)
(1.49253061065 5.56253293662e-06 0)
(1.49253011839 5.69486126344e-06 0)
(1.49252951918 5.60823767829e-06 0)
(1.49252877979 5.19243543824e-06 0)
(1.49252786585 4.28932006102e-06 0)
(1.49252671289 2.69339425221e-06 0)
(1.49252498971 3.31992182965e-07 0)
(1.4925221389 -3.07814224069e-06 0)
(1.49251768676 -8.46299659227e-06 0)
(1.49251077922 -1.65087626172e-05 0)
(1.49249974594 -2.82220306081e-05 0)
(1.49248196265 -4.50907665136e-05 0)
(1.49245315525 -6.92094385963e-05 0)
(1.49240643462 -0.000103625191091 0)
(1.49233090184 -0.000152726877313 0)
(1.49220905162 -0.00022251215885 0)
(1.49201247348 -0.000321532762744 0)
(1.49169437966 -0.00046308791304 0)
(1.4911828846 -0.0006711229342 0)
(1.4903668197 -0.000972440325943 0)
(1.48906948011 -0.00140214768415 0)
(1.48701775415 -0.00201007762751 0)
(1.48380094439 -0.00285967230294 0)
(1.47881884725 -0.00402164091027 0)
(1.47123230354 -0.00555534535165 0)
(1.45997821527 -0.00746967605241 0)
(1.44383470249 -0.00968016865637 0)
(1.42108265139 -0.0119481076866 0)
(0.993270467795 -0.00616839458502 0)
(1.03158099533 -0.0171003821569 0)
(1.08672178133 -0.0239897711744 0)
(1.15174562864 -0.0265602555654 0)
(1.21823550466 -0.0258179994688 0)
(1.27925792433 -0.0230491130496 0)
(1.33140157953 -0.0193660447518 0)