/*--------------------------------*- C++ -*----------------------------------*\
| =========                 |                                                 |
| \\      /  F ield         | OpenFOAM: The Open Source CFD Toolbox           |
|  \\    /   O peration     | Version:  2106                                  |
|   \\  /    A nd           | Website:  www.openfoam.com                      |
|    \\/     M anipulation  |                                                 |
\*---------------------------------------------------------------------------*/
FoamFile
{
    version     2.0;
    format      ascii;
    arch        "LSB;label=32;scalar=64";
    class       volScalarField;
    location    "0.04";
    object      p;
}
// * * * * * * * * * * * * * * * * * * * * * * * * * * * * * * * * * * * * * //

dimensions      [0 2 -2 0 0 0 0];

internalField   nonuniform List<scalar> 
9600
(
2.59984996275
-0.298108276068
-1.20217855523
-1.58750300264
-1.80639530725
-1.94575624117
-2.04897181348
-2.13579692419
-2.21463460997
-2.28953181267
-2.36267722318
-2.43529364023
-2.50804887862
-2.58127742134
-2.65510927179
-2.72955284112
-2.80454663744
-2.88000578399
-2.9558319427
-3.0319351127
-3.10823872269
-3.18468139838
-3.26121633533
-3.33780934962
-3.41443633395
-3.49108077254
-3.56773163535
-3.64438171506
-3.72102632415
-3.79766236055
-3.87428767721
-3.95090064217
-4.0274998357
-4.10408386511
-4.18065126845
-4.25720050387
-4.3337298676
-4.41023748087
-4.48672141631
-4.56317962112
-4.63960993582
-4.71601008689
-4.79237761226
-4.86870979638
-4.94500369145
-5.02125607191
-5.09746340886
-5.17362185303
-5.24972724812
-5.32577517081
-5.40176091075
-5.47767947347
-5.55352553122
-5.62929336732
-5.70497683914
-5.78056935579
-5.85606384981
-5.93145274362
-6.0067279153
-6.08188067135
-6.15690172497
-6.23178117368
-6.30650847271
-6.38107240228
-6.45546103424
-6.52966170558
-6.60366099412
-6.67744468049
-6.75099769938
-6.82430409097
-6.89734694211
-6.97010833706
-7.04256930785
-7.11470979513
-7.18650861878
-7.25794344813
-7.32899076745
-7.39962583921
-7.46982266273
-7.53955392197
-7.60879092761
-7.67750356271
-7.74566023578
-7.81322784046
-7.88017171817
-7.94645561974
-8.01204166392
-8.07689029422
-8.14096023883
-8.20420847781
-8.26659021636
-8.32805885444
-8.38856594335
-8.44806113465
-8.50649214056
-8.56380472252
-8.61994270294
-8.67484797549
-8.72846049094
-8.78071821118
-8.83155705258
-8.88091087636
-8.92871155489
-8.97488902992
-9.0193713365
-9.06208455488
-9.10295276899
-9.1418980977
-9.17884077743
-9.21369927286
-9.24639032974
-9.27682897111
-9.30492852035
-9.33060066671
-9.35375560103
-9.37430208228
-9.39214747538
-9.40719785211
-9.41935815309
-9.42853231041
-9.43462327802
-9.43753304203
-9.43716273073
-9.43341287298
-9.42618380749
-9.41537597682
-9.40088775281
-9.38261758747
-9.36046396951
-9.3343252301
-9.30409940333
-9.26968422817
-9.23097723959
-9.18787566551
-9.14027603331
-9.08807377894
-9.03116302526
-8.96943621272
-8.90278326068
-8.83109047103
-8.75423942352
-8.67210544013
-8.58455517597
-8.49144384564
-8.39261243005
-8.28788343378
-8.17705360303
-8.05988428379
-7.93608999789
-7.80532179109
-7.66713992397
-7.52097041849
-7.36603226157
-7.20120529973
-7.02479420786
-6.83417416626
-6.62526462836
-6.39154237395
-6.13170487431
-5.92433412607
0.688273951709
-0.494046350329
-1.10263473113
-1.45650281403
-1.69885616522
-1.86904737819
-1.99665648639
-2.10065420306
-2.19125449728
-2.27417119749
-2.35277742356
-2.42909028045
-2.50431369686
-2.57915339394
-2.65400335155
-2.72906184496
-2.80440886528
-2.88004752942
-2.95595129676
-3.0320747934
-3.1083695716
-3.18479123821
-3.26130248963
-3.33787383501
-3.41448298967
-3.4911137272
-3.56775459092
-3.64439768056
-3.72103759276
-3.79767060492
-3.87429408565
-3.95090604477
-4.02750480396
-4.10408879262
-4.18065642409
-4.25720602209
-4.3337358133
-4.4102438814
-4.48672831484
-4.56318708758
-4.63961804199
-4.7160188957
-4.79238719262
-4.86872020743
-4.94501500647
-5.02126836468
-5.09747674767
-5.17363630604
-5.24974287576
-5.32579204873
-5.40177913941
-5.47769915926
-5.55354678249
-5.62931629882
-5.70500157148
-5.78059601514
-5.85609256753
-5.93148365493
-6.00676116046
-6.08191639864
-6.15694009479
-6.23182235927
-6.30655265683
-6.38111977583
-6.45551179695
-6.52971606716
-6.60371917535
-6.67750691592
-6.75106423398
-6.82437517641
-6.89742283667
-6.97018930569
-7.04265562391
-7.11480174235
-7.18660649218
-7.25804755535
-7.32910143095
-7.39974339806
-7.46994747315
-7.53968635623
-7.60893136945
-7.67765240115
-7.74581786331
-7.81339465777
-7.88034814008
-7.94664207632
-8.01223859632
-8.07709814965
-8.14117946876
-8.20443954003
-8.26683357891
-8.32831499894
-8.38883536386
-8.44834433009
-8.50678960612
-8.56411695066
-8.62027019779
-8.67519126597
-8.72882012371
-8.78109473157
-8.83195099945
-8.88132278576
-8.92914196391
-8.97533849013
-9.01984041135
-9.0625737926
-9.1034626808
-9.14242916646
-9.17939348388
-9.21427409855
-9.24698768955
-9.27744906878
-9.30557164361
-9.33126716989
-9.35444586928
-9.37501650577
-9.39288642141
-9.4079616773
-9.42014724984
-9.42934713514
-9.43546431975
-9.43840078028
-9.43805767246
-9.43433558512
-9.42713448948
-9.41635346775
-9.40189238243
-9.38365046752
-9.36152667159
-9.33541989575
-9.30522884657
-9.27085202408
-9.23218792736
-9.18913503323
-9.14159142893
-9.08945452715
-9.03262100169
-8.9709864344
-8.90444442156
-8.83288574958
-8.75619798465
-8.6742645395
-8.58696241822
-8.49415959702
-8.39571307369
-8.29146643927
-8.18124533275
-8.06485101881
-7.94205279217
-7.81257861822
-7.67610288163
-7.53222997216
-7.38047369963
-7.22023733967
-7.05081230843
-6.87149944871
-6.6820389112
-6.48267657669
-6.27504175413
-6.08794349186
-0.287636253433
-0.76897196141
-1.16018394365
-1.45172165897
-1.67314379164
-1.84084049119
-1.97261990831
-2.0820353068
-2.17752619423
-2.26438040447
-2.34598500468
-2.42450143355
-2.50129957216
-2.57723527113
-2.65282746412
-2.72837349053
-2.8040276092
-2.87985589073
-2.95586941054
-3.03205254455
-3.10837667114
-3.18481034986
-3.26132441369
-3.33789419677
-3.41450011438
-3.49112735481
-3.56776511397
-3.64440570611
-3.72104373769
-3.79767541495
-3.8742979985
-3.95090938314
-4.02750779698
-4.10409159682
-4.18065913561
-4.25720870804
-4.33373854858
-4.41024681696
-4.48673144405
-4.56319044744
-4.63962167018
-4.71602282729
-4.79239145016
-4.86872487841
-4.94502013507
-5.02127397719
-5.09748285058
-5.17364291049
-5.24974999191
-5.32579971224
-5.4017874028
-5.47770808056
-5.55355641678
-5.62932669786
-5.70501279117
-5.78060811054
-5.85610559102
-5.93149765666
-6.00677619448
-6.08193252958
-6.15695739955
-6.23184092426
-6.30657257286
-6.38114113605
-6.45553469909
-6.5297406141
-6.60374547553
-6.67753507845
-6.75109436548
-6.82440738024
-6.89745721479
-6.97022595885
-7.04269465616
-7.11484326689
-7.18665063463
-7.25809445499
-7.32915124081
-7.39979628227
-7.47000360203
-7.53974590228
-7.60899450581
-7.67771930189
-7.74588870545
-7.81346962393
-7.88042741941
-7.94672586178
-8.01232707936
-8.07719151697
-8.14127790534
-8.20454323644
-8.26694273494
-8.32842981831
-8.38895604508
-8.4484710633
-8.50692258094
-8.56425637018
-8.62041628795
-8.67534426868
-8.72898027025
-8.78126221338
-8.83212595606
-8.88150531793
-8.9293322478
-8.97553673465
-9.02004681264
-9.06278850795
-9.10368583646
-9.14266089803
-9.17963397435
-9.21452359333
-9.24724655845
-9.27771799624
-9.30585105454
-9.33155741484
-9.35474733297
-9.37532961015
-9.39321161851
-9.40829944865
-9.42049811184
-9.42971164746
-9.43584310304
-9.43879456745
-9.43846737877
-9.43476240029
-9.42758018147
-9.41682077448
-9.4023835793
-9.38416779763
-9.3620726976
-9.33599760089
-9.30584175645
-9.27150441584
-9.23288502573
-9.18988317087
-9.14239831624
-9.09032972034
-9.03357645916
-8.97203705807
-8.90560871356
-8.8341867043
-8.75766412047
-8.67593126965
-8.58887439281
-8.49637394208
-8.39830257792
-8.29452309342
-8.184886531
-8.06922940532
-7.9473691526
-7.81910013929
-7.68419186498
-7.54238865415
-7.39341662064
-7.23701055913
-7.07298221468
-6.901403325
-6.72304797416
-6.53973078515
-6.35415027818
-6.17760673364
-0.83916113728
-1.02547577521
-1.26789430643
-1.49032724189
-1.67743777924
-1.83131923681
-1.9595377268
-2.06955604119
-2.16706832503
-2.25619834152
-2.33986162971
-2.42006884601
-2.49817977489
-2.57509578128
-2.6513973344
-2.72744249704
-2.80343852223
-2.87949456374
-2.95565582293
-3.03193224939
-3.10831329464
-3.18478034873
-3.26131307022
-3.33789260564
-3.41450310173
-3.4911320721
-3.56777010497
-3.64441030962
-3.7210477267
-3.79767878479
-3.87430084188
-3.95091182155
-4.02750995101
-4.10409356976
-4.18066101492
-4.25721055782
-4.33374039964
-4.4102486519
-4.48673336979
-4.56319253009
-4.639623936
-4.71602530244
-4.79239416006
-4.86872782041
-4.94502333029
-5.02127744784
-5.09748659884
-5.1736469626
-5.24975438988
-5.32580448082
-5.40179256841
-5.47771367988
-5.55356248564
-5.62933326706
-5.70501988456
-5.78061574609
-5.85611378255
-5.93150641832
-6.00678554705
-6.08194250551
-6.15696804362
-6.23185229315
-6.30658473407
-6.38115416396
-6.45554867419
-6.52975562371
-6.60376159719
-6.67755237176
-6.7511128811
-6.82442716554
-6.89747831246
-6.97024841002
-7.04271850679
-7.11486857523
-7.18667747459
-7.25812291506
-7.32918142129
-7.39982829104
-7.47003754878
-7.53978189448
-7.60903264934
-7.6777597048
-7.74593148029
-7.8135148865
-7.88047528661
-7.94677645097
-8.01238050792
-8.07724790031
-8.14133735585
-8.2046058666
-8.26700866167
-8.32849916276
-8.38902892894
-8.44854760962
-8.50700292417
-8.56434066767
-8.62050472065
-8.67543702931
-8.72907754765
-8.78136418976
-8.83223284555
-8.88161744053
-8.92944987963
-8.97566014745
-9.02017623968
-9.06292413853
-9.10382784795
-9.14280950191
-9.1797894283
-9.21468614761
-9.24741634966
-9.27789495043
-9.30603525371
-9.33174907223
-9.35494672445
-9.37553703676
-9.39342740686
-9.40852396938
-9.42073178144
-9.429954911
-9.43609646628
-9.43905868774
-9.43874311701
-9.43505074593
-9.42788210104
-9.41713733024
-9.40271634926
-9.38451900497
-9.36244511854
-9.33639448579
-9.30626700628
-9.27196290503
-9.23338280341
-9.1904275823
-9.14299829845
-9.0909962499
-9.03432292527
-8.97287971824
-8.90656766458
-8.83528717908
-8.7589374199
-8.67741556771
-8.5906166313
-8.4984330567
-8.40075307381
-8.29745897258
-8.18842680651
-8.07352596333
-7.95261774177
-7.8255558201
-7.69219017084
-7.55237575072
-7.40599109767
-7.25297510609
-7.09339614943
-6.92757501368
-6.75630436212
-6.58093733594
-6.40295930964
-6.22605151685
-1.17656332005
-1.22830160838
-1.37217821695
-1.53645853153
-1.69075277448
-1.82872546208
-1.95073612812
-2.05933381987
-2.15757206551
-2.24823381688
-2.3335738365
-2.41530793097
-2.49469042791
-2.57260871854
-2.64966940229
-2.72627146394
-2.80266502799
-2.87899743624
-2.9553449163
-3.03174418493
-3.10820416097
-3.18472037963
-3.26128268355
-3.33787929525
-3.41449913022
-3.49113282605
-3.5677729555
-3.64441384218
-3.72105124672
-3.79768200722
-3.87430369856
-3.95091434571
-4.02751220803
-4.10409562748
-4.18066293451
-4.25721239879
-4.33374222225
-4.41025053659
-4.48673537961
-4.56319462967
-4.63962620998
-4.71602782832
-4.79239700676
-4.86873103174
-4.94502692295
-5.02128139535
-5.09749087293
-5.17365151821
-5.24975928407
-5.32580975308
-5.40179825801
-5.47771983139
-5.55356914565
-5.62934047828
-5.70502768205
-5.7806241558
-5.85612282601
-5.9315161199
-6.00679594068
-6.08195363861
-6.15697997575
-6.23186509234
-6.3065984737
-6.38116891959
-6.45556452137
-6.5297726364
-6.6037798516
-6.67757194219
-6.75113383845
-6.82444956883
-6.89750221467
-6.9702738644
-7.04274557435
-7.11489733134
-7.18670801145
-7.25815533937
-7.32921584942
-7.39986484392
-7.47007634746
-7.53982305714
-7.60907629147
-7.67780594242
-7.74598043292
-7.81356667851
-7.88053004661
-7.94683430929
-8.01244159385
-8.07731234003
-8.14140527088
-8.20467737382
-8.26708387523
-8.32857819571
-8.38911189316
-8.44863461848
-8.50709409905
-8.56443614233
-8.62060463597
-8.67554151939
-8.72918672787
-8.78147815058
-8.83235164753
-8.88174112224
-8.92957855716
-8.97579395232
-9.02031526683
-9.06306844299
-9.10397749131
-9.14296460213
-9.17995016861
-9.21485273139
-9.24758897093
-9.2780738157
-9.30622060197
-9.3319411901
-9.35514592711
-9.3757436316
-9.39364170657
-9.40874635071
-9.42096270886
-9.43019491081
-9.43634613114
-9.43931875165
-9.43901452371
-9.43533463404
-9.42817974835
-9.41745021393
-9.40304634381
-9.38486849906
-9.36281698091
-9.33679208694
-9.3066944533
-9.27242532244
-9.23388647568
-9.19098012031
-9.14360904964
-9.09167678009
-9.03508731007
-8.9737449033
-8.907554352
-8.83642108424
-8.7602504085
-8.67894676269
-8.5924139733
-8.50055555913
-8.40327401286
-8.30047002579
-8.19204261054
-8.07788986656
-7.95791054586
-7.83200673384
-7.70008934401
-7.56209013343
-7.41798064789
-7.26780220669
-7.11171094982
-6.95003199127
-6.7833165579
-6.6122307185
-6.43704177963
-6.25789041172
-1.38068689236
-1.37569986971
-1.45967153959
-1.58046416454
-1.70709452634
-1.82972803925
-1.94453340224
-2.05059911862
-2.14873849133
-2.24041542466
-2.32715220931
-2.4102896052
-2.49091306675
-2.56985229152
-2.64771281972
-2.72491852208
-2.80175330177
-2.87839832496
-2.95496371737
-3.03150862575
-3.10806381937
-3.18464063259
-3.26124021594
-3.33785889195
-3.41449118672
-3.49113148977
-3.56777480195
-3.64441696353
-3.72105465381
-3.79768524766
-3.87430661302
-3.95091691834
-4.02751447954
-4.10409765178
-4.18066477033
-4.25721410457
-4.33374385299
-4.41025213643
-4.48673698302
-4.56319633821
-4.63962807483
-4.71602989753
-4.79239930946
-4.86873356803
-4.94502966674
-5.02128432982
-5.09749404506
-5.17365496669
-5.24976299611
-5.32581376816
-5.40180261645
-5.47772457313
-5.55357430687
-5.6293460865
-5.70503375039
-5.78063068836
-5.85612982406
-5.93152359072
-6.00680390457
-6.08196212912
-6.15698903636
-6.23187477528
-6.30660883878
-6.38118003369
-6.45557645599
-6.52978546227
-6.60379363375
-6.67758673571
-6.75114968135
-6.82446648532
-6.89752022135
-6.97029298055
-7.04276583095
-7.11491877608
-7.18673070909
-7.2581793677
-7.32924129563
-7.39989180337
-7.47010492198
-7.53985335123
-7.60910840823
-7.67783998189
-7.7460164928
-7.8136048552
-7.88057043605
-7.9468770076
-8.01248669744
-8.07735994507
-8.14145547227
-8.20473026433
-8.26713954642
-8.32863674124
-8.38917341322
-8.44869922515
-8.50716192384
-8.56450733904
-8.62067936915
-8.67561994506
-8.72926898756
-8.78156439201
-8.83244205708
-8.88183592177
-8.92967796138
-8.9758981374
-9.02042435938
-9.06318254647
-9.10409673673
-9.14308916761
-9.18008025833
-9.21498851645
-9.24773057917
-9.27822137967
-9.3063743243
-9.33210134867
-9.35531283049
-9.37591757524
-9.39382300041
-9.40893538723
-9.42115999556
-9.43040106102
-9.43656184969
-9.43954486325
-9.43925200402
-9.43558463945
-9.42844366716
-9.41772973535
-9.40334353177
-9.38518582948
-9.36315739251
-9.3371591368
-9.30709254029
-9.27285983405
-9.23436384814
-9.19150803252
-9.14419685415
-9.09233598137
-9.03583195927
-8.97459203083
-8.9085245159
-8.83753907954
-8.76154642981
-8.68045803048
-8.59418617207
-8.50264415378
-8.40574667683
-8.30341009839
-8.1955523156
-8.0820942255
-7.96296313225
-7.8380958402
-7.70744350817
-7.5709814978
-7.42872427087
-7.28074368639
-7.12718678115
-6.96828190123
-6.80431700119
-6.63547700305
-6.46142196985
-6.28115711423
-1.50385847649
-1.4784179077
-1.52779710229
-1.61798282704
-1.72292117581
-1.83222886339
-1.94001218562
-2.04314867303
-2.1407247683
-2.23304712726
-2.32093160733
-2.40532373682
-2.48711012515
-2.56703686124
-2.6456895977
-2.72350438504
-2.80079143059
-2.87776214112
-2.95455491121
-3.03125404199
-3.10791107497
-3.18455312003
-3.26119308883
-3.33783582159
-3.4144817981
-3.4911294139
-3.56777628018
-3.64441989572
-3.72105794776
-3.79768839488
-3.87430941965
-3.95091934841
-4.02751656549
-4.10409944949
-4.18066634197
-4.25721551455
-4.33374516175
-4.41025339994
-4.4867382678
-4.56319771488
-4.63962960889
-4.71603163519
-4.7924012774
-4.86873577198
-4.94503210337
-5.02128700165
-5.09749692498
-5.17365803414
-5.24976627514
-5.32581728611
-5.40180642019
-5.47772870954
-5.55357881492
-5.62935099109
-5.70503906108
-5.78063640665
-5.85613595144
-5.93153013611
-6.00681088861
-6.08196958361
-6.15699700197
-6.2318832987
-6.30661797266
-6.38118983868
-6.45558699652
-6.52979679993
-6.60380582501
-6.6775998292
-6.75116371246
-6.82448147745
-6.89753619123
-6.97030994731
-7.04278382439
-7.11493784123
-7.18675090682
-7.25820077136
-7.32926398564
-7.39991586354
-7.47013043813
-7.53988041039
-7.60913709718
-7.67787038559
-7.74604869428
-7.81363893656
-7.88060647901
-7.9469150926
-8.01252690197
-8.07740234321
-8.14150013538
-8.20477726099
-8.26718894114
-8.32868859477
-8.38922778721
-8.44875618836
-8.50722155696
-8.56456973395
-8.62074461946
-8.67568813466
-8.72934019074
-8.78163869502
-8.8325195769
-8.88191679919
-8.9297623327
-8.97598611019
-9.02051601893
-9.06327799473
-9.10419612989
-9.14319270759
-9.18018814033
-9.21510089863
-9.24784760004
-9.27834321532
-9.30650121618
-9.33223357499
-9.35545066788
-9.37606130931
-9.39397298338
-9.40909207445
-9.42132394218
-9.43057289664
-9.43674229144
-9.43973474649
-9.43945232166
-9.43579657103
-9.42866865393
-9.41796955129
-9.40360028883
-9.3854619902
-9.36345590668
-9.33748366482
-9.30744758786
-9.27325077406
-9.23479703054
-9.1919910907
-9.14473903199
-9.09294839117
-9.03652800909
-8.9753880669
-8.90944027812
-8.83859801275
-8.76277660863
-8.68189370621
-8.59586896289
-8.5046239699
-8.40808347205
-8.30617630361
-8.19883527773
-8.08599850362
-7.96761257628
-7.84363656672
-7.71404555046
-7.57883533571
-7.43803316881
-7.29170394433
-7.13995315244
-6.98290650965
-6.82066800755
-6.65318420202
-6.47998116509
-6.30006945126
-1.57793626157
-1.54692831292
-1.57690697027
-1.64673533756
-1.7359489978
-1.83484394459
-1.93670259555
-2.03712058885
-2.13398178028
-2.22669029827
-2.31546620839
-2.40089913489
-2.48368377292
-2.5644773804
-2.6438368218
-2.72220158288
-2.79990083112
-2.87717044444
-2.95417333864
-3.03101609709
-3.10776817022
-3.18447117083
-3.26114893347
-3.33781420491
-3.41447300387
-3.49112747239
-3.56777766895
-3.64442264789
-3.72106104268
-3.79769135043
-3.8743120464
-3.95092160511
-4.02751847808
-4.10410106732
-4.18066771545
-4.25721670046
-4.33374621568
-4.41025438446
-4.48673925383
-4.56319878441
-4.63963081333
-4.71603302203
-4.79240286388
-4.86873755055
-4.94503405602
-5.02128909884
-5.09749914066
-5.17366041647
-5.24976882433
-5.32582003082
-5.40180940311
-5.4777319714
-5.55358238621
-5.62935488548
-5.7050432796
-5.78064094462
-5.85614080634
-5.93153531449
-6.0068164078
-6.08197546957
-6.15700328743
-6.2318900201
-6.30662516865
-6.38119755234
-6.45559527689
-6.52980569673
-6.6038153826
-6.67761008342
-6.75117468706
-6.82449318486
-6.89754863828
-6.97032314386
-7.04279779015
-7.11495260841
-7.18676652023
-7.25821728734
-7.32928146889
-7.39993438323
-7.47015006491
-7.53990121423
-7.60915914542
-7.67789374159
-7.74607341825
-7.81366508884
-7.88063412262
-7.94694429276
-8.0125577234
-8.07743484807
-8.14153438383
-8.20481331242
-8.26722685372
-8.3287284252
-8.38926959449
-8.44880003973
-8.50726753049
-8.56461791402
-8.6207950876
-8.67574096543
-8.72939545599
-8.78169647874
-8.83257998763
-8.88197995706
-8.92982833859
-8.97605503129
-9.0205879167
-9.06335297148
-9.10427433778
-9.14327431079
-9.18027325979
-9.21518962478
-9.24794005079
-9.27843958453
-9.3066017476
-9.33233849401
-9.35556017384
-9.37617565782
-9.39409256113
-9.40921738888
-9.42145554613
-9.4307113734
-9.43688832469
-9.43988919046
-9.43961620555
-9.43597109922
-9.42885527616
-9.41817003527
-9.4038167315
-9.38569685558
-9.3637121875
-9.33776505903
-9.30775851881
-9.27359638413
-9.23518344045
-9.19242581795
-9.14523116935
-9.09350861009
-9.03716891093
-8.97612490839
-8.91029151232
-8.83958559918
-8.76392661604
-8.6832372369
-8.59744314671
-8.50647306685
-8.41025987131
-8.3087417537
-8.20186306083
-8.08957475443
-7.97183612427
-7.8486196736
-7.7199134148
-7.58572260669
-7.44607445589
-7.30101920048
-7.15062521849
-6.99495674724
-6.83403364747
-6.66775244356
-6.49575335394
-6.31742437573
-1.62019581812
-1.58869496036
-1.60841334205
-1.66594419511
-1.74503429484
-1.83686187871
-1.93448706649
-2.03284493075
-2.12908238381
-2.22199657393
-2.31138225022
-2.39756229819
-2.48108097176
-2.56252191777
-2.64241480706
-2.72119805149
-2.79921285614
-2.87671229702
-2.95387718248
-3.03083147273
-3.1076573194
-3.18440763189
-3.26111473387
-3.33779749689
-3.41446623615
-3.4911260025
-3.56777876918
-3.64442480153
-3.72106346369
-3.79769366764
-3.87431411544
-3.95092339524
-4.02752000438
-4.10410235683
-4.18066879532
-4.2572176078
-4.33374699875
-4.41025509903
-4.48673996481
-4.56319955819
-4.63963171011
-4.71603407229
-4.79240407653
-4.86873891543
-4.94503555558
-5.02129072017
-5.09750088013
-5.17366223432
-5.24977074266
-5.32582208535
-5.40181163857
-5.47773442598
-5.5535850849
-5.62935783458
-5.70504647429
-5.78064437819
-5.85614447706
-5.93153923015
-6.00682058293
-6.08197992367
-6.1570080429
-6.23189510181
-6.30663060363
-6.38120337003
-6.45560151157
-6.52981238571
-6.60382255991
-6.67761777526
-6.75118291045
-6.82450194963
-6.89755795178
-6.97033301696
-7.04280824091
-7.11496366143
-7.18677820572
-7.25822964244
-7.32929453896
-7.3999482201
-7.47016472284
-7.53991674566
-7.60917559869
-7.67791116004
-7.74609184087
-7.81368455261
-7.8806546658
-7.94696595704
-8.01258055308
-8.07745888696
-8.14155967327
-8.20483989222
-8.26725476401
-8.32875770775
-8.38930029311
-8.44883220058
-8.50730120114
-8.56465314131
-8.62083191737
-8.67577944783
-8.7294356537
-8.78173846741
-8.83262385191
-8.88202577826
-8.92987618821
-8.97610497274
-9.02064002874
-9.06340736778
-9.10433116056
-9.14333368568
-9.18033526759
-9.2152543361
-9.24800759051
-9.27851015167
-9.3066755611
-9.332415727
-9.35564098896
-9.37626031863
-9.3941814906
-9.40931110719
-9.42155457166
-9.4308162367
-9.43699968811
-9.44000792832
-9.43974338374
-9.43610793888
-9.42900321499
-9.4183308237
-9.40399246138
-9.38589000132
-9.36392574996
-9.33800268951
-9.30802451042
-9.27389571397
-9.2355220753
-9.19281107296
-9.14567180681
-9.09401486385
-9.0377528107
-8.97680081809
-8.91107663755
-8.84050047549
-8.76499545743
-8.68448823321
-8.59890950578
-8.50819446881
-8.41228281013
-8.31111967421
-8.20465778696
-8.09285788466
-7.97568945601
-7.85313367391
-7.725186106
-7.59185749673
-7.45317522442
-7.3091821057
-7.15993216794
-7.00547495666
-6.84582660518
-6.68094500469
-6.51068026407
-6.33483650907
-1.63945876941
-1.60843724437
-1.62374924195
-1.67551978889
-1.74967379408
-1.83794320653
-1.93337174023
-2.03062454903
-2.12650332468
-2.21950271608
-2.30919721611
-2.39576731508
-2.47967493136
-2.561462068
-2.64164205583
-2.72065161168
-2.7988376769
-2.87646214568
-2.95371510807
-3.03073050226
-3.10759668445
-3.18437284055
-3.26109596652
-3.33778828562
-3.41446245615
-3.49112512666
-3.56777932059
-3.644425961
-3.72106480092
-3.79769497791
-3.87431531711
-3.95092446239
-4.02752092955
-4.10410313701
-4.18066943327
-4.25721812108
-4.33374742418
-4.41025548308
-4.48674036185
-4.56320002211
-4.63963228309
-4.71603477612
-4.79240491279
-4.86873987257
-4.94503660649
-5.02129183668
-5.0975020359
-5.17366343647
-5.24977200539
-5.32582344133
-5.4018131249
-5.47773607261
-5.55358690466
-5.62935982668
-5.70504863091
-5.78064669173
-5.85614694756
-5.93154186668
-6.0068233997
-6.08198293473
-6.15701125905
-6.23189853338
-6.30663426249
-6.38120726972
-6.45560566899
-6.52981682183
-6.603827297
-6.67762283371
-6.7511883063
-6.82450769418
-6.89756405347
-6.97033948434
-7.04281508485
-7.11497089503
-7.18678584399
-7.25823770485
-7.32930305277
-7.39995722018
-7.47017424697
-7.5399268274
-7.60918626412
-7.67792242779
-7.74610372608
-7.81369707155
-7.88066783887
-7.94697980884
-8.01259511005
-8.07747417514
-8.14157571897
-8.2048567251
-8.26727241812
-8.32877621665
-8.38931968421
-8.44885249461
-8.50732241589
-8.56467529762
-8.62085504248
-8.67580357594
-8.72946082759
-8.78176473434
-8.83265125612
-8.88205436005
-8.92990598845
-8.97613605083
-9.02067247548
-9.06344129148
-9.10436666437
-9.1433708392
-9.18037412273
-9.21529497254
-9.24805014452
-9.27855479895
-9.306722468
-9.33246503678
-9.35569288781
-9.3763151098
-9.3942395942
-9.40937297941
-9.42162066554
-9.43088708163
-9.4370759877
-9.44009057409
-9.43983341673
-9.43620655483
-9.42911185936
-9.41845128336
-9.40412686386
-9.38604081592
-9.36409589398
-9.33819567413
-9.30824454239
-9.27414780697
-9.23581220524
-9.19314630105
-9.14606044086
-9.09446681258
-9.03827992574
-8.97741699179
-8.91179809251
-8.84134651925
-8.76598895575
-8.68565565647
-8.60028158848
-8.50980732346
-8.41417863588
-8.31334713613
-8.20727207375
-8.09592200428
-7.97927546141
-7.85732099536
-7.73006166609
-7.59751498817
-7.4597151331
-7.31671059009
-7.1685612004
-7.01534071476
-6.85711400582
-6.69394634663
-6.52590679776
-6.35314100768
-1.63945911225
-1.60843723982
-1.62374913461
-1.67551981233
-1.74967394328
-1.83794326661
-1.93337184043
-2.03062470948
-2.12650345276
-2.21950284111
-2.30919733193
-2.39576739935
-2.47967502822
-2.5614621517
-2.64164210991
-2.7206516662
-2.79883772761
-2.87646217642
-2.95371512924
-3.03073052071
-3.10759668085
-3.18437280267
-3.26109593032
-3.33778825631
-3.41446244184
-3.49112514423
-3.56777939315
-3.64442610396
-3.72106501774
-3.79769526369
-3.87431565782
-3.95092482766
-4.02752127801
-4.10410342971
-4.1806696556
-4.25721826852
-4.33374751539
-4.41025555087
-4.48674044761
-4.56320016908
-4.63963252561
-4.7160351304
-4.79240537155
-4.86874041386
-4.94503719985
-5.02129244961
-5.09750264729
-5.17366404141
-5.24977262477
-5.32582410426
-5.4018138616
-5.47773690354
-5.55358783609
-5.62936085353
-5.70504974423
-5.78064788548
-5.85614822421
-5.9315432356
-6.00682487198
-6.08198451662
-6.15701295013
-6.23190032618
-6.30663615032
-6.38120924909
-6.4556077411
-6.52981899453
-6.60382958319
-6.67762524836
-6.75119086344
-6.82451040593
-6.89756693009
-6.97034253364
-7.0428183118
-7.11497430198
-7.18678943216
-7.25824147759
-7.32930701904
-7.39996139501
-7.47017864717
-7.53993146676
-7.60919114653
-7.67792754844
-7.74610907745
-7.81370265075
-7.88067365029
-7.94698586045
-8.01260140789
-8.07748072265
-8.14158252347
-8.20486380394
-8.26727979795
-8.32878392173
-8.38932772527
-8.44886086763
-8.50733111339
-8.56468432363
-8.62086441389
-8.67581331506
-8.72947095149
-8.78177525191
-8.83266216956
-8.88206567831
-8.92991774216
-8.97614829783
-9.02068529734
-9.06345476427
-9.10438083656
-9.14338573552
-9.18038978126
-9.21531148518
-9.24806764965
-9.27857343532
-9.30674235238
-9.33248630985
-9.3557157789
-9.37633994906
-9.39426674767
-9.40940281203
-9.42165358924
-9.4309236642
-9.43711699237
-9.44013688504
-9.43988601443
-9.43626661572
-9.42918086743
-9.41853105501
-9.4042195199
-9.38614881217
-9.36422211883
-9.33834357242
-9.30841828117
-9.27435245562
-9.23605378252
-9.19343173122
-9.14639779412
-9.09486588626
-9.03875255542
-8.97797689218
-8.91246101983
-8.8421310807
-8.7669173373
-8.68675392906
-8.60157975815
-8.51133965356
-8.41598521972
-8.31547498097
-8.20977446983
-8.09885938087
-7.98271666991
-7.86134489558
-7.73475612439
-7.60297876894
-7.46605989865
-7.32406676625
-7.17708499036
-7.02523043005
-6.86864147287
-6.70750022945
-6.54206039564
-6.37271055449
-1.62019687469
-1.58869495522
-1.60841316375
-1.66594435206
-1.74503476055
-1.83686211187
-1.93448742147
-2.03284539644
-2.12908277759
-2.2219969198
-2.31138255732
-2.39756253287
-2.48108120604
-2.56252211892
-2.64241494209
-2.72119816948
-2.79921294194
-2.87671230979
-2.95387713516
-3.03083137861
-3.10765715405
-3.18440738474
-3.2611144537
-3.33779722697
-3.41446601253
-3.49112588092
-3.567778817
-3.6444250654
-3.72106395613
-3.79769437787
-3.87431500561
-3.95092438156
-4.02752096912
-4.10410319146
-4.18066943878
-4.2572180489
-4.33374728567
-4.41025532074
-4.48674024064
-4.5632000151
-4.63963244766
-4.71603513522
-4.79240544747
-4.86874053197
-4.94503732287
-5.021292546
-5.09750269934
-5.17366404821
-5.24977260371
-5.32582408145
-5.40181385726
-5.47773692582
-5.55358788149
-5.62936091297
-5.70504980906
-5.78064795466
-5.85614830394
-5.93154333495
-6.00682499733
-6.08198466616
-6.15701310958
-6.23190047221
-6.30663625759
-6.38120929617
-6.45560771392
-6.52981889004
-6.60382940821
-6.67762501505
-6.75119058569
-6.82451009746
-6.89756660231
-6.97034219159
-7.04281795124
-7.11497391076
-7.18678899494
-7.25824098124
-7.32930645576
-7.39996076149
-7.4701779405
-7.53993067776
-7.60919025623
-7.67792652945
-7.746107902
-7.81370129895
-7.88067211054
-7.94698412145
-8.01259945177
-8.07747852989
-8.14158008436
-8.2048611265
-8.26727690202
-8.3287808194
-8.38932440807
-8.44885730956
-8.5073272884
-8.56468022497
-8.62086004944
-8.67580868569
-8.72946603618
-8.78177001513
-8.83265658379
-8.88205973979
-8.92991147443
-8.9761417449
-9.0206785024
-9.06344775458
-9.10437361586
-9.14337830894
-9.18038218559
-9.21530380703
-9.24806000784
-9.27856593915
-9.3067351059
-9.33247946941
-9.35570959188
-9.37633471658
-9.39426276206
-9.40940037829
-9.4216531414
-9.43092582936
-9.43712253716
-9.44014663549
-9.43990091652
-9.43628789122
-9.42921004812
-9.41856990467
-9.40427005622
-9.38621349163
-9.36430396229
-9.33844613867
-9.30854572531
-9.27450978314
-9.23624703739
-9.19366800662
-9.14668536444
-9.09521455834
-9.03917397578
-8.97848483303
-8.91307173883
-8.84286351181
-8.76779349378
-8.68779990875
-8.60282621098
-8.51282184496
-8.41774408046
-8.31755794103
-8.21223631767
-8.10176308716
-7.98613449506
-7.86536035754
-7.73946625045
-7.60849484349
-7.47251415813
-7.33161700421
-7.18592531482
-7.03560606128
-6.88087390144
-6.72201390789
-6.55941656192
-6.39362455443
-1.57793791787
-1.54692817865
-1.57690696658
-1.64673575086
-1.73594980728
-1.83484448182
-1.93670330981
-2.03712137128
-2.13398247752
-2.22669086171
-2.3154666605
-2.40089947645
-2.48368399958
-2.56447751509
-2.64383685541
-2.72220153337
-2.79990070952
-2.87717024553
-2.95417308188
-3.03101579669
-3.10776781505
-3.18447076379
-3.26114852446
-3.33781384559
-3.41447274705
-3.49112739363
-3.56777785823
-3.64442316971
-3.72106192011
-3.79769256624
-3.87431353397
-3.95092323154
-4.02752006373