/*--------------------------------*- C++ -*----------------------------------*\
| =========                 |                                                 |
| \\      /  F ield         | OpenFOAM: The Open Source CFD Toolbox           |
|  \\    /   O peration     | Version:  2106                                  |
|   \\  /    A nd           | Website:  www.openfoam.com                      |
|    \\/     M anipulation  |                                                 |
\*---------------------------------------------------------------------------*/
FoamFile
{
    version     2.0;
    format      ascii;
    arch        "LSB;label=32;scalar=64";
    class       surfaceScalarField;
    location    "0.04";
    object      phi;
}
// * * * * * * * * * * * * * * * * * * * * * * * * * * * * * * * * * * * * * //

dimensions      [0 3 -1 0 0 0 0];

oriented        oriented;

internalField   nonuniform List<scalar> 
18840
(
3.37538448172e-05
1.62461551913e-05
2.25352408987e-05
1.12186046789e-05
1.63022077592e-05
6.23303318009e-06
1.28116706406e-05
3.49053701327e-06
1.08126199144e-05
1.99905128464e-06
9.61786894716e-06
1.19475141992e-06
8.87518480527e-06
7.42684623821e-07
8.40240024197e-06
4.72785072874e-07
8.09953588557e-06
3.02864923099e-07
7.90742788166e-06
1.92108571387e-07
7.78860275953e-06
1.18825544862e-07
7.71816162465e-06
7.04415886671e-08
7.67912948502e-06
3.90323716192e-08
7.6598606412e-06
1.92691368494e-08
7.65244491892e-06
7.41585728619e-09
7.65162052902e-06
8.24517905132e-10
7.65408118583e-06
-2.46055754522e-09
7.65777370337e-06
-3.69250136025e-09
7.66158414583e-06
-3.81043458462e-09
7.66496243689e-06
-3.37832994945e-09
7.66770537355e-06
-2.74303362456e-09
7.66980165946e-06
-2.09640346762e-09
7.67133139979e-06
-1.52988144306e-09
7.67240630526e-06
-1.07507826799e-09
7.67313743728e-06
-7.31319899497e-10
7.67362040971e-06
-4.83160545308e-10
7.67393082853e-06
-3.10607922232e-10
7.67412506899e-06
-1.94426567267e-10
7.67424331827e-06
-1.18421061434e-10
7.67431318761e-06
-7.00216488103e-11
7.67435306126e-06
-4.00104426393e-11
7.67437484238e-06
-2.19058888141e-11
7.674386038e-06
-1.13106191125e-11
7.67439126573e-06
-5.34010719175e-12
7.67439332392e-06
-2.19236326014e-12
7.6743937802e-06
-5.88724455839e-13
7.67439336134e-06
2.64314236635e-13
7.67439266409e-06
5.36084138644e-13
7.6743919611e-06
5.34505198981e-13
7.67439136069e-06
4.29868750386e-13
7.67439090082e-06
2.98865073567e-13
7.67439058397e-06
1.74705026808e-13
7.67439038714e-06
7.54967478111e-14
7.67439029756e-06
-5.73861748625e-15
7.67439029214e-06
-7.22618159922e-14
7.67439035267e-06
-1.29849896803e-13
7.67439046249e-06
-1.77816958912e-13
7.67439061332e-06
-2.17503072904e-13
7.67439080803e-06
-2.56734506629e-13
7.67439104542e-06
-2.96438026421e-13
7.67439133012e-06
-3.32370699562e-13
7.67439166624e-06
-3.65605870163e-13
7.67439205815e-06
-3.97348251043e-13
7.6743925041e-06
-4.28243314889e-13
7.67439300254e-06
-4.58982623458e-13
7.67439354959e-06
-4.90167610093e-13
7.67439414113e-06
-5.20767419586e-13
7.67439477244e-06
-5.50437838452e-13
7.67439544114e-06
-5.79855737368e-13
7.67439614683e-06
-6.11197487697e-13
7.67439689089e-06
-6.45905093838e-13
7.67439767516e-06
-6.83581428999e-13
7.6743985015e-06
-7.22290958677e-13
7.67439937115e-06
-7.59710421058e-13
7.67440028518e-06
-7.94538341863e-13
7.6744012449e-06
-8.27373877542e-13
7.6744022532e-06
-8.59726055248e-13
7.67440331236e-06
-8.92209122366e-13
7.67440442344e-06
-9.24663923549e-13
7.6744055826e-06
-9.58729774851e-13
7.67440678494e-06
-9.9445045023e-13
7.67440802507e-06
-1.03126943353e-12
7.67440929644e-06
-1.06876408137e-12
7.6744105935e-06
-1.10642052028e-12
7.67441191291e-06
-1.14428950689e-12
7.67441325432e-06
-1.18303566821e-12
7.67441462046e-06
-1.22361416568e-12
7.6744160154e-06
-1.26694915722e-12
7.67441744281e-06
-1.31291889392e-12
7.67441890445e-06
-1.35985165816e-12
7.67442039957e-06
-1.40524288234e-12
7.67442192568e-06
-1.44711695788e-12
7.67442347995e-06
-1.48528414738e-12
7.67442506111e-06
-1.52176356928e-12
7.67442667106e-06
-1.5599116888e-12
7.67442831474e-06
-1.60253078539e-12
7.67442999756e-06
-1.65010156994e-12
7.67443172267e-06
-1.70055963635e-12
7.67443349086e-06
-1.75123086155e-12
7.67443530345e-06
-1.80162155879e-12
7.67443716499e-06
-1.85447590034e-12
7.67443908264e-06
-1.91373474602e-12
7.67444106348e-06
-1.98157258235e-12
7.67444311336e-06
-2.05789227257e-12
7.67444523912e-06
-2.14252101879e-12
7.67444745281e-06
-2.23719244006e-12
7.67444977296e-06
-2.34568839045e-12
7.67445222232e-06
-2.47268909036e-12
7.67445482428e-06
-2.62199696111e-12
7.67445760126e-06
-2.79521509479e-12
7.67446058695e-06
-3.00324413051e-12
7.67446386333e-06
-3.29036806855e-12
7.67446749249e-06
-3.63563777076e-12
7.67447154909e-06
-4.05361563351e-12
7.67447612773e-06
-4.56454031135e-12
7.6744813421e-06
-5.19152790535e-12
7.67448733813e-06
-5.96514221633e-12
7.67449430081e-06
-6.92636561935e-12
7.6745024638e-06
-8.12455162829e-12
7.67451212357e-06
-9.6230123796e-12
7.67452366315e-06
-1.15073256295e-11
7.67453755573e-06
-1.38607639885e-11
7.67455437535e-06
-1.67950752789e-11
7.67457484931e-06
-2.04514206518e-11
7.67459986848e-06
-2.50036457666e-11
7.67463054773e-06
-3.06697840899e-11
7.6746682842e-06
-3.77284326158e-11
7.67471481901e-06
-4.65295717552e-11
7.67477231655e-06
-5.75013762604e-11
7.67484346399e-06
-7.11654339198e-11
7.67493160838e-06
-8.81710176007e-11
7.67504095077e-06
-1.09359509323e-10
7.67517685554e-06
-1.3591014331e-10
7.67534675936e-06
-1.69918660379e-10
7.67556143082e-06
-2.14673861373e-10
7.67582406509e-06
-2.62693961031e-10
7.67614973631e-06
-3.2569700888e-10
7.67655491142e-06
-4.0519795013e-10
7.67705933901e-06
-5.0446472083e-10
7.67768742437e-06
-6.28143822441e-10
7.67846958121e-06
-7.8223297183e-10
7.67944377354e-06
-9.7427494996e-10
7.6806573615e-06
-1.21368942104e-09
7.68216947448e-06
-1.51224479e-09
7.684054022e-06
-1.88467181822e-09
7.6864033927e-06
-2.34944128251e-09
7.68933310661e-06
-2.92976515786e-09
7.69298785681e-06
-3.65485744473e-09
7.69754923526e-06
-4.56151927934e-09
7.70324540714e-06
-5.69624552109e-09
7.71036345075e-06
-7.11805498679e-09
7.71926553317e-06
-8.90213916739e-09
7.73041009248e-06
-1.1144654088e-08
7.74437947108e-06
-1.39694123469e-08
7.76191664294e-06
-1.75371938688e-08
7.78397498325e-06
-2.20584344367e-08
7.81178622925e-06
-2.78112816066e-08
7.84695473585e-06
-3.51683927712e-08
7.89159158277e-06
-4.46367042532e-08
7.94851005354e-06
-5.69182731668e-08
8.02152096893e-06
-7.30105994454e-08
8.11590955874e-06
-9.4388315061e-08
8.23929232799e-06
-1.23382444773e-07
8.40342299996e-06
-1.64130205059e-07
8.62875068097e-06
-2.25327169805e-07
8.95740593527e-06
-3.28654427743e-07
9.49233813754e-06
-5.34931812615e-07
1.0523892367e-05
-1.0315555581e-06
1.29696950243e-05
-2.44580403942e-06
-6.8676444868e-06
1.98373554273e-05
5.01387532289e-05
1.61074015416e-05
4.41599537443e-05
1.71974046735e-05
3.77641978611e-05
1.26287898203e-05
3.26614247906e-05
8.593309866e-06
2.89717677831e-05
5.68870856023e-06
2.64131466408e-05
3.75337263287e-06
2.46677215625e-05
2.48810969532e-06
2.34884846295e-05
1.65202187489e-06
2.27006768058e-05
1.09067247694e-06
2.21829678342e-05
7.09817206378e-07
2.18508234695e-05
4.50969495925e-07
2.16448436681e-05
2.76420981821e-07
2.15230918093e-05
1.60783936678e-07
2.14560602895e-05
8.6300367484e-08
2.14232523639e-05
4.02236020644e-08
2.14107680652e-05
1.33087107395e-08
2.14094144604e-05
-1.10706433839e-09
2.14134808473e-05
-7.75897414522e-09
2.14195420658e-05
-9.87174911628e-09
2.14257381142e-05
-9.57452978653e-09
2.14311858365e-05
-8.19093277237e-09
2.14355776734e-05
-6.48844963518e-09
2.14389143885e-05
-4.86685578763e-09
2.14413381091e-05
-3.49909047449e-09
2.14430356568e-05
-2.42917126087e-09
2.14441881781e-05
-1.6359980225e-09
2.14449492642e-05
-1.07201441301e-09
2.14454391035e-05
-6.84566935106e-10
2.14457466301e-05
-4.26219541982e-10
2.14459349097e-05
-2.58548882164e-10
2.14460471487e-05
-1.52475777083e-10
2.14461120844e-05
-8.70480370948e-11
2.14461483171e-05
-4.77431568191e-11
2.14461675602e-05
-2.47972303752e-11
2.14461769664e-05
-1.18160399896e-11
2.14461808722e-05
-4.74814671084e-12
2.14461818764e-05
-1.00452418523e-12
2.14461815774e-05
5.42752806733e-13
2.14461808987e-05
9.35887335262e-13
2.1446180088e-05
9.75025649036e-13
2.1446179321e-05
8.22684301855e-13
2.14461786738e-05
6.16428515107e-13
2.14461781652e-05
4.18949280092e-13
2.14461778288e-05
1.87276902616e-13
2.14461776286e-05
-2.43434497764e-15
2.14461775297e-05
-1.54699822042e-13
2.14461775076e-05
-2.73929094687e-13
2.14461775432e-05
-3.67569998787e-13
2.14461776345e-05
-4.46100865385e-13
2.14461777729e-05
-5.135665941e-13
2.1446177959e-05
-5.71343554091e-13
2.1446178197e-05
-6.21933301826e-13
2.14461784889e-05
-6.68318439257e-13
2.1446178833e-05
-7.14186244893e-13
2.1446179223e-05
-7.60683157892e-13
2.14461796534e-05
-8.08992559641e-13
2.14461801213e-05
-8.59089207396e-13
2.14461806261e-05
-9.10822756077e-13
2.14461811661e-05
-9.64542979295e-13
2.14461817395e-05
-1.02085129437e-12
2.14461823458e-05
-1.0795194731e-12
2.14461829853e-05
-1.13938149679e-12
2.14461836598e-05
-1.19844306137e-12
2.14461843722e-05
-1.25458062586e-12
2.14461851259e-05
-1.30694354133e-12
2.14461859245e-05
-1.35739494848e-12
2.14461867689e-05
-1.40722510404e-12
2.14461876566e-05
-1.45770470859e-12
2.14461885859e-05
-1.5115045077e-12
2.14461895532e-05
-1.57150394204e-12
2.14461905526e-05
-1.63810045223e-12
2.14461915782e-05
-1.71093555758e-12
2.14461926254e-05
-1.78919366884e-12
2.14461936911e-05
-1.87125786482e-12
2.14461947746e-05
-1.95531648891e-12
2.14461958765e-05
-2.04007643833e-12
2.14461969979e-05
-2.12518412141e-12
2.14461981395e-05
-2.21116038832e-12
2.1446199303e-05
-2.2988360238e-12
2.14462004903e-05
-2.38841382608e-12
2.14462017043e-05
-2.47862246912e-12
2.14462029473e-05
-2.56720008877e-12
2.14462042206e-05
-2.65291262892e-12
2.14462055252e-05
-2.73731559494e-12
2.14462068634e-05
-2.82476148499e-12
2.14462082396e-05
-2.92033069236e-12
2.14462096607e-05
-3.02703857226e-12
2.14462111357e-05
-3.14441895033e-12
2.14462126752e-05
-3.26999232008e-12
2.14462142899e-05
-3.40294557193e-12
2.14462159903e-05
-3.5473391066e-12
2.14462177882e-05
-3.71190865839e-12
2.14462197003e-05
-3.90607055731e-12
2.14462217508e-05
-4.1355426909e-12
2.14462239717e-05
-4.40228205068e-12
2.14462264012e-05
-4.70923102103e-12
2.14462290828e-05
-5.06646576719e-12
2.14462320689e-05
-5.49273052914e-12
2.14462354284e-05
-6.01165212821e-12
2.14462392543e-05
-6.64843397792e-12
2.14462436605e-05
-7.43187692204e-12
2.14462487552e-05
-8.39563380305e-12
2.14462546994e-05
-9.57068627508e-12
2.14462616943e-05
-1.10167817817e-11
2.14462699867e-05
-1.28074222296e-11
2.14462798821e-05
-1.50285753234e-11
2.14462917563e-05
-1.77780433961e-11
2.14463060585e-05
-2.11669311328e-11
2.14463233067e-05
-2.5311744837e-11
2.14463440344e-05
-3.02932059123e-11
2.14463685455e-05
-3.59664332436e-11
2.14463995912e-05
-4.48636910792e-11
2.14464383248e-05
-5.54866696017e-11
2.14464863183e-05
-6.8409943854e-11
2.14465457762e-05
-8.4438976801e-11
2.14466195016e-05
-1.04383785218e-10
2.14467109942e-05
-1.29217678474e-10
2.14468246144e-05
-1.6015458515e-10
2.14469658023e-05
-1.98707001591e-10
2.1447141341e-05
-2.46737043184e-10
2.14473596639e-05
-3.06527648052e-10
2.14476311855e-05
-3.80907149072e-10
2.14479686839e-05
-4.73433372895e-10
2.14483874064e-05
-5.88675671921e-10
2.14489053155e-05
-7.32677760618e-10
2.14495557204e-05
-9.13160690142e-10
2.14503685917e-05
-1.13862993923e-09
2.14513830907e-05
-1.41975819906e-09
2.14526486738e-05
-1.77014022178e-09
2.14542272753e-05
-2.2068855945e-09
2.14561962889e-05
-2.75140693347e-09
2.14586523527e-05
-3.43050942026e-09
2.14617162044e-05
-4.27773740124e-09
2.14655388094e-05
-5.33504518776e-09
2.14703089801e-05
-6.65498252128e-09
2.14762629698e-05
-8.30352527484e-09
2.14836967062e-05
-1.03636264253e-08
2.14929813524e-05
-1.29396751267e-08
2.1504582994e-05
-1.61633119456e-08
2.15190877579e-05
-2.02011320477e-08
2.15372342706e-05
-2.52647086689e-08
2.15599557199e-05
-3.16236723181e-08
2.15884344755e-05
-3.9623340285e-08
2.16241740039e-05
-4.97088527055e-08
2.16690950628e-05
-6.24582573034e-08
2.17256656272e-05
-7.86288863118e-08
2.17970789659e-05
-9.92243451337e-08
2.1887503777e-05
-1.25593072942e-07
2.20024448224e-05
-1.59577698678e-07
2.21492792101e-05
-2.03752436034e-07
2.23380904215e-05
-2.6182161172e-07
2.25830411987e-05
-3.39338860456e-07
2.29047839057e-05
-4.45124693704e-07
2.33349839511e-05
-5.94329869295e-07
2.39253024139e-05
-8.1564554548e-07
2.47658211482e-05
-1.16917443822e-06
2.6021198128e-05
-1.79031184012e-06
2.79856627527e-05
-2.99602244245e-06
3.10880925208e-05
-5.54823381516e-06
-1.11251993389e-05
3.53456390472e-05
5.35848204772e-05
1.25225810016e-05
5.29192920383e-05
1.78629328602e-05
4.96479212143e-05
1.59001613792e-05
4.58583653918e-05
1.23828652259e-05
4.2482095338e-05
9.06497853098e-06
3.98005956244e-05
6.43487215449e-06
3.77969388689e-05
4.49176611612e-06
3.63550549658e-05
3.09390525137e-06
3.53463726025e-05
2.09935450114e-06
3.46589281841e-05
1.39726112645e-06
3.42034454522e-05
9.06451990089e-07
3.39115894807e-05
5.68276658781e-07
3.37323100246e-05
3.40063283141e-07
3.36282409356e-05
1.90369370992e-07
3.35726371969e-05
9.58273216186e-08
3.35468651021e-05
3.90808142747e-08
3.35383611861e-05
7.3968320883e-09
3.35389945829e-05
-8.39237969977e-09
3.35437778207e-05
-1.46550392709e-08
3.35498363818e-05
-1.56331878752e-08
3.35556741142e-05
-1.40288008141e-08
3.35606363339e-05
-1.14508566176e-08
3.35645445585e-05
-8.77531300301e-09
3.35674617652e-05
-6.41655482422e-09
3.35695510828e-05
-4.51876535526e-09
3.35709976446e-05
-3.08284795473e-09
3.35719704721e-05
-2.04512153539e-09
3.3572607887e-05
-1.32224120928e-09
3.35730155169e-05
-8.34086231047e-10
3.35732701208e-05
-5.13363937914e-10
3.35734253717e-05
-3.07910249023e-10
3.35735176221e-05
-1.79462935084e-10
3.35735708227e-05
-1.01102140938e-10
3.35736003738e-05
-5.45201421535e-11
3.35736159848e-05
-2.76205832425e-11
3.357362366e-05
-1.26334963917e-11
3.35736270999e-05
-4.68145206568e-12
3.35736280807e-05
-6.56861041334e-13
3.35736278975e-05
8.80332813237e-13
3.35736273156e-05
1.33125634642e-12
3.35736266482e-05
1.29301547151e-12
3.3573626056e-05
1.0397794718e-12
3.35736255896e-05
7.3303064223e-13
3.35736251953e-05
4.53612357274e-13
3.35736248829e-05
1.95635154595e-13
3.35736246694e-05
-5.19479085044e-14
3.35736245347e-05
-2.46673141585e-13
3.35736244592e-05
-3.95629838437e-13
3.35736244498e-05
-5.38093389458e-13
3.35736245024e-05
-6.53142853915e-13
3.35736246079e-05
-7.34686257794e-13
3.35736247608e-05
-8.01172956201e-13
3.357362496e-05
-8.61209278181e-13
3.35736252015e-05
-9.19805302563e-13
3.3573625482e-05
-9.80998809392e-13
3.35736257992e-05
-1.0435831676e-12
3.35736261489e-05
-1.1065122214e-12
3.35736265273e-05
-1.16890224088e-12
3.35736269326e-05
-1.23207897337e-12
3.35736273648e-05
-1.29942982765e-12
3.35736278249e-05
-1.37236610639e-12
3.35736283145e-05
-1.44848845122e-12
3.35736288342e-05
-1.52359124594e-12
3.35736293833e-05
-1.59361526557e-12
3.35736299596e-05
-1.65738480228e-12
3.35736305624e-05
-1.71918967666e-12
3.35736311954e-05
-1.78360100477e-12
3.35736318669e-05
-1.84948006643e-12
3.35736325741e-05
-1.92220418488e-12
3.35736333123e-05
-2.00174808399e-12
3.35736340736e-05
-2.08903293636e-12
3.35736348504e-05
-2.18431087343e-12
3.35736356365e-05
-2.28736972625e-12
3.35736364293e-05
-2.39726143027e-12
3.35736372298e-05
-2.51234339669e-12
3.35736380406e-05
-2.63078486399e-12
3.35736388647e-05
-2.75095711849e-12
3.35736397035e-05
-2.87184543784e-12
3.35736405573e-05
-2.99348628408e-12
3.35736414258e-05
-3.11633803236e-12
3.35736423098e-05
-3.24004321465e-12
3.35736432108e-05
-3.36347921164e-12
3.35736441317e-05
-3.48641598421e-12
3.35736450772e-05
-3.61146692267e-12
3.35736460533e-05
-3.74410604511e-12
3.35736470664e-05
-3.89005792303e-12
3.35736481231e-05
-4.05237072976e-12
3.35736492319e-05
-4.23125859929e-12
3.35736504055e-05
-4.42711881976e-12
3.35736516597e-05
-4.64419439388e-12
3.35736530123e-05
-4.89179980771e-12
3.35736544817e-05
-5.1821268789e-12
3.35736560892e-05
-5.52672639697e-12
3.35736578638e-05
-5.93488438481e-12
3.35736598463e-05
-6.41598680359e-12
3.3573662089e-05
-6.98437323964e-12
3.35736646526e-05
-7.66228925065e-12
3.35736676027e-05
-8.47624884279e-12
3.35736710062e-05
-9.44914517152e-12
3.35736749159e-05
-1.05884577842e-11
3.35736793486e-05
-1.18773748985e-11
3.35736848863e-05
-1.39277763972e-11
3.35736916274e-05
-1.62935240452e-11
3.35736998296e-05
-1.91940671532e-11
3.35737098328e-05
-2.27821736474e-11
3.35737220667e-05
-2.72271639504e-11
3.35737370785e-05
-3.27436075051e-11
3.35737555695e-05
-3.96042273961e-11
3.35737784532e-05
-4.8142412973e-11
3.35738069789e-05
-5.87693822919e-11
3.35738430801e-05
-7.2019436247e-11
3.35738868555e-05
-8.85830621023e-11
3.35739406334e-05
-1.09218033318e-10
3.35740071634e-05
-1.34909499577e-10
3.35740896464e-05
-1.66901714646e-10
3.35741920268e-05
-2.0674569207e-10
3.35743192025e-05
-2.56378047477e-10
3.35744772661e-05
-3.18217605268e-10
3.35746738128e-05
-3.95276684035e-10
3.35749183356e-05
-4.91289986962e-10
3.35752226902e-05
-6.10899385259e-10
3.35756016617e-05
-7.59887585879e-10
3.35760737134e-05
-9.45515784468e-10
3.35766619748e-05
-1.176993975e-09
3.35773951564e-05
-1.46591788284e-09
3.35783084562e-05
-1.82649558193e-09
3.35794466751e-05
-2.27687922479e-09
3.35808658867e-05
-2.83904534457e-09
3.35826360172e-05
-3.54039707151e-09
3.35848443364e-05
-4.41533301431e-09
3.35875997882e-05
-5.50697316841e-09
3.35910384607e-05
-6.86932074467e-09
3.35953305199e-05
-8.56996538606e-09
3.36006888548e-05
-1.06935262653e-08
3.36073798536e-05
-1.33460906154e-08
3.36157370437e-05
-1.66608526452e-08
3.3626178465e-05
-2.08052190086e-08
3.36392286208e-05
-2.59899203745e-08
3.36555462072e-05
-3.24808777506e-08
3.36759596081e-05
-4.0614573125e-08
3.370151268e-05
-5.08179637763e-08
3.37335236921e-05
-6.36348504637e-08
3.37736616366e-05
-7.97613683595e-08
3.38240465479e-05
-1.00093870625e-07
3.38873827421e-05
-1.25794466103e-07
3.3967137223e-05
-1.58383126133e-07
3.40677826863e-05
-1.99869540814e-07
3.41951355581e-05
-2.52945808599e-07
3.43568361085e-05
-3.21278086509e-07
3.45630493375e-05
-4.09965522963e-07
3.48275229411e-05
-5.2629500754e-07
3.51692418189e-05
-6.81057374505e-07
3.56150957129e-05
-8.90978437499e-07
3.62042463978e-05
-1.18348041417e-06
3.69950657821e-05
-1.60646557266e-06
3.80748245351e-05
-2.24893628174e-06
3.95676341886e-05
-3.2831292557e-06
4.16146538312e-05
-5.04305086916e-06
4.42198559167e-05
-8.15343172162e-06
-1.36006605939e-05
4.66953234213e-05
5.35711943562e-05
8.95138707299e-06
5.55898272458e-05
1.58442994572e-05
5.52511771082e-05
1.62388124821e-05
5.36199378692e-05
1.40141046067e-05
5.15848287367e-05
1.11000879454e-05
4.96522734324e-05
8.36742779688e-06
4.80345448014e-05
6.1094951418e-06
4.67756773129e-05
4.35277303713e-06
4.58434200059e-05
3.03161207214e-06
4.51795170516e-05
2.06116439164e-06
4.47232280141e-05
1.36274117265e-06
4.44208184423e-05
8.70686426147e-07
4.42283996749e-05
5.32482199094e-07
4.41118803455e-05
3.06888776701e-07
4.40457964106e-05
1.61911351785e-07
4.40118023248e-05
7.30749309443e-08
4.39971718755e-05
2.20272855437e-08
4.39934130207e-05
-4.63353944025e-09
4.39951659276e-05
-1.64080291686e-08
4.39991971672e-05
-1.96645556004e-08
4.40037203922e-05
-1.85521902808e-08
4.40078565798e-05
-1.55872501359e-08
4.40112624409e-05
-1.21814120143e-08
4.40138849909e-05
-9.03936309277e-09
4.40158087496e-05
-6.4427954054e-09
4.40171673569e-05
-4.44173076428e-09
4.40180971792e-05
-2.97520999483e-09
4.40187164844e-05
-1.94179471007e-09
4.40191189936e-05
-1.23682350121e-09
4.40193746581e-05
-7.69238205827e-10
4.40195334352e-05
-4.66882295023e-10
4.401962978e-05
-2.75993817325e-10
4.40196867753e-05
-1.58289631366e-10
4.40197195125e-05
-8.74595026849e-11
4.4019737633e-05
-4.59591231366e-11
4.40197471582e-05
-2.23907128297e-11
4.40197517588e-05
-9.52156869058e-12
4.40197537653e-05
-2.9190027007e-12
4.401975447e-05
-6.06777364584e-14
4.40197542844e-05
1.30801263154e-12
4.40197538179e-05
1.57469781766e-12
4.40197532861e-05
1.41227730601e-12
4.40197527981e-05
1.09153238725e-12
4.40197524078e-05
7.28010826743e-13
4.40197521417e-05
3.48985342884e-13
4.40197519471e-05
3.79621214328e-14
4.40197518021e-05
-2.04651888699e-13
4.4019751687e-05
-3.56602488119e-13
4.40197515871e-05
-5.14684096038e-13
4.40197515189e-05
-6.35603679522e-13
4.40197514879e-05
-7.31604154609e-13
4.40197514989e-05
-8.12614586055e-13
4.40197515512e-05
-8.82957719657e-13
4.40197516383e-05
-9.47882690399e-13
4.40197517521e-05
-1.01098128977e-12
4.40197518865e-05
-1.07545063475e-12
4.40197520411e-05
-1.14386775266e-12
4.40197522177e-05
-1.21699682461e-12
4.40197524155e-05
-1.29441731339e-12
4.40197526333e-05
-1.37513416562e-12
4.40197528685e-05
-1.45700963575e-12
4.40197531177e-05
-1.53727682163e-12
4.40197533804e-05
-1.61335117965e-12
4.4019753659e-05
-1.68422024348e-12
4.40197539581e-05
-1.75112086162e-12
4.40197542822e-05
-1.81595787955e-12
4.40197546325e-05
-1.87720475908e-12
4.4019754999e-05
-1.93721430553e-12
4.40197553793e-05
-2.00520759893e-12
4.40197557686e-05
-2.08218671672e-12
4.40197561619e-05
-2.17101773635e-12
4.40197565545e-05
-2.27364459958e-12
4.40197569434e-05
-2.39079222158e-12
4.40197573279e-05
-2.52066364767e-12
4.40197577086e-05
-2.65885055581e-12
4.40197580863e-05
-2.80049774599e-12
4.40197584617e-05
-2.94202628797e-12
4.4019758834e-05
-3.08160435243e-12
4.40197592026e-05
-3.2198833664e-12
4.40197595684e-05
-3.35947989375e-12
4.40197599343e-05
-3.50258610749e-12
4.40197603056e-05
-3.64951773262e-12
4.40197606888e-05
-3.7993612409e-12
4.40197610899e-05
-3.9535656541e-12
4.40197615132e-05
-4.11753600181e-12
4.40197619628e-05
-4.2983096332e-12
4.40197624454e-05
-4.50192197437e-12
4.40197629738e-05
-4.73351162185e-12
4.40197635667e-05
-4.99851801553e-12
4.40197642456e-05
-5.3043853134e-12
4.40197650312e-05
-5.66255194715e-12
4.40197659449e-05
-6.08865356906e-12
4.40197670141e-05
-6.60064480352e-12
4.40197682781e-05
-7.2170004673e-12
4.40197697886e-05
-7.95539526041e-12
4.40197716066e-05
-8.83626693166e-12
4.40197738032e-05
-9.89177891389e-12
4.40197764689e-05
-1.11708169102e-11
4.40197797303e-05
-1.27367634909e-11
4.40197837825e-05
-1.46633025565e-11
4.40197889226e-05
-1.70407732928e-11
4.40197949655e-05
-1.99853307113e-11
4.40198022994e-05
-2.36264753395e-11
4.40198112614e-05
-2.81384084189e-11
4.4019822251e-05
-3.37404013348e-11
4.40198357706e-05
-4.07058278741e-11
4.40198524453e-05
-4.93710457223e-11
4.40198730433e-05
-6.01508632446e-11
4.40198985123e-05
-7.3559694012e-11
4.40199300312e-05
-9.02371514348e-11
4.40199690966e-05
-1.1101952551e-10
4.40200176462e-05
-1.3706774217e-10
4.40200780001e-05
-1.6951308896e-10
4.40201530142e-05
-2.0987687947e-10
4.40202462718e-05
-2.60123608901e-10
4.40203622577e-05
-3.22702635609e-10
4.40205065647e-05
-4.00663805443e-10
4.40206861617e-05
-4.97812240366e-10
4.40209097536e-05
-6.18884584037e-10
4.40211882227e-05
-7.69779017104e-10
4.40215351648e-05
-9.57857551423e-10
4.40219675525e-05
-1.19229826729e-09
4.40225065711e-05
-1.4845906374e-09
4.40231786705e-05
-1.84916197593e-09
4.40240168316e-05
-2.30411912645e-09
4.40250622377e-05
-2.87192874569e-09
4.40263661524e-05
-3.58084821997e-09
4.40279927739e-05
-4.46577918663e-09
4.40300224541e-05
-5.57021521519e-09
4.40325556127e-05
-6.94860763499e-09
4.40357176943e-05
-8.6691662909e-09
4.40396655105e-05
-1.08172920936e-08
4.40445952438e-05
-1.34998803674e-08
4.40507523908e-05
-1.68508239953e-08
4.40584442046e-05
-2.10380341276e-08
4.4068055482e-05
-2.62722898126e-08
4.40800685613e-05
-3.28184470441e-08
4.40950884603e-05
-4.10098782618e-08
4.4113874661e-05
-5.12671189404e-08
4.41373817552e-05
-6.41218124075e-08
4.41668114361e-05
-8.02478162609e-08
4.42036789243e-05
-1.00502402248e-07
4.42498986499e-05
-1.25981112916e-07
4.4307895917e-05
-1.58091154288e-07
4.43807530748e-05
-1.98651558492e-07
4.44724025925e-05
-2.50032608526e-07
4.4587885747e-05
-3.15352763304e-07
4.4733703383e-05
-3.98763394361e-07
4.49182981987e-05
-5.05872775497e-07
4.51527294676e-05
-6.44396634603e-07
4.54516294525e-05
-8.25194509968e-07
4.58345640121e-05
-1.06399134282e-06
4.63279399558e-05
-1.38435362241e-06
4.69674824764e-05
-1.82302182743e-06
4.78006848533e-05
-2.4396665762e-06
4.88864231987e-05
-3.33467375793e-06
5.02827703672e-05
-4.67947755835e-06
5.19986664167e-05
-6.75895334453e-06
5.38508822547e-05
-1.0005647745e-05
-1.49144633316e-05
5.51646865631e-05
5.27612492295e-05
6.19013850254e-06
5.57432871931e-05
1.28622609394e-05
5.73206956544e-05
1.46614046916e-05
5.7628844836e-05
1.37059557272e-05
5.71662230211e-05
1.15627101152e-05
5.63733094163e-05
9.16034191688e-06
5.5530651569e-05
6.95215344548e-06
5.47789500446e-05
5.10447506741e-06
5.41696576389e-05
3.64090487932e-06
5.37064342035e-05
2.52438821096e-06
5.33713045382e-05
1.69787112332e-06
5.31391876759e-05
1.10280356933e-06
5.29851473672e-05
6.86522643916e-07
5.28875314299e-05
4.04504853581e-07
5.28289530375e-05
2.20489818216e-07
5.27962156181e-05
1.05812339775e-07
5.27797766048e-05
3.84662765047e-08
5.2772993365e-05
2.14961520298e-09
5.27715762694e-05
-1.4991061869e-08
5.27727649147e-05
-2.08533552812e-08
5.27749666192e-05
-2.07540811638e-08
5.27773198155e-05
-1.79406703773e-08
5.27794179758e-05
-1.42798198694e-08
5.27811164522e-05
-1.07380994155e-08
5.27824075579e-05
-7.73416876533e-09
5.27833450289e-05
-5.37947091495e-09
5.27840017011e-05
-3.63214243104e-09
5.27844482154e-05
-2.38855160864e-09
5.27847441377e-05
-1.53296615314e-09
5.27849357834e-05
-9.6108374756e-10
5.27850572421e-05
-5.88527267195e-10
5.27851326031e-05
-3.5153353438e-10
5.27851783481e-05
-2.04213899847e-10
5.27852054578e-05
-1.14758644881e-10
5.2785221076e-05
-6.17890242367e-11
5.27852297584e-05
-3.13152006705e-11
5.27852343745e-05
-1.43961460304e-11
5.27852366767e-05
-5.48717541522e-12
5.27852374741e-05
-1.10830711455e-12
5.27852377079e-05
8.34041895841e-13
5.27852376229e-05
1.44830265088e-12
5.27852374077e-05
1.44695127677e-12
5.27852371687e-05
1.17941823739e-12
5.27852369396e-05
8.28825712912e-13
5.2785236694e-05
4.84209905082e-13
5.27852364166e-05
2.14741204297e-13
5.27852361472e-05
-4.02371054311e-14
5.27852359462e-05
-2.86440382338e-13
5.27852358098e-05
-4.76744248655e-13
5.27852357109e-05
-6.09322188981e-13
5.27852356428e-05
-7.09085903468e-13
5.27852356037e-05
-7.88518119245e-13
5.27852355914e-05
-8.57363177346e-13
5.2785235603e-05
-9.21527917196e-13
5.27852356357e-05
-9.84439469415e-13
5.27852356862e-05
-1.04804829286e-12
5.27852357517e-05
-1.1139853028e-12
5.27852358307e-05
-1.18286580722e-12
5.27852359229e-05
-1.25539578947e-12
5.27852360284e-05
-1.33162188197e-12
5.27852361471e-05
-1.4094756817e-12
5.27852362777e-05
-1.48563308165e-12
5.27852364192e-05
-1.55609765598e-12
5.278523657e-05
-1.61933346155e-12
5.27852367289e-05
-1.67692897884e-12
5.27852368945e-05
-1.73265578496e-12
5.2785237068e-05
-1.7925848799e-12
5.27852372529e-05
-1.8609745653e-12
5.27852374493e-05
-1.93761825668e-12
5.27852376511e-05
-2.02159971671e-12
5.27852378506e-05
-2.11232379005e-12
5.27852380407e-05
-2.21033146339e-12
5.27852382163e-05
-2.31766804494e-12
5.27852383756e-05
-2.43639591859e-12
5.27852385205e-05
-2.56648710241e-12
5.27852386541e-05
-2.70495056823e-12
5.27852387779e-05
-2.84717724551e-12
5.27852388914e-05
-2.98955516429e-12
5.27852389931e-05
-3.13148635436e-12
5.27852390824e-05
-3.27520124047e-12
5.27852391601e-05
-3.42395871229e-12
5.27852392293e-05
-3.58025387657e-12
5.27852392948e-05
-3.74584596466e-12
5.27852393616e-05
-3.92362285413e-12
5.27852394344e-05
-4.1186336662e-12
5.27852395183e-05
-4.33709717288e-12
5.27852396202e-05
-4.58472596407e-12
5.2785239751e-05
-4.86685938442e-12
5.27852399256e-05
-5.19090201276e-12
5.27852401618e-05
-5.56867145742e-12
5.27852404801e-05
-6.01643724686e-12
5.27852409031e-05
-6.55305600636e-12
5.27852414579e-05
-7.19853878269e-12
5.27852421797e-05
-7.97643980622e-12
5.27852431152e-05
-8.91782270924e-12
5.27852443262e-05
-1.00641326244e-11
5.2785245888e-05
-1.14674395056e-11
5.27852478882e-05
-1.31886500647e-11
5.27852504291e-05
-1.52993613248e-11
5.27852536391e-05
-1.78902668681e-11
5.27852576887e-05
-2.10952142959e-11
5.27852628311e-05
-2.51183050163e-11
5.27852693279e-05
-3.01093548429e-11
5.27852774998e-05
-3.62961017081e-11
5.27852877531e-05
-4.3975411564e-11
5.27853005992e-05
-5.35214913424e-11
5.27853166722e-05
-6.54019532987e-11
5.27853367621e-05
-8.01932442681e-11
5.2785361859e-05
-9.86027283573e-11
5.2785393196e-05
-1.21517424433e-10
5.27854322947e-05
-1.50045352211e-10
5.27854809473e-05
-1.85638772197e-10
5.27855414967e-05
-2.29985482466e-10
5.27856168926e-05
-2.85213630281e-10
5.27857108095e-05
-3.53999141451e-10
5.2785827826e-05
-4.39684043279e-10
5.27859736437e-05
-5.4645130957e-10
5.27861553737e-05
-6.79526781246e-10
5.27863818986e-05
-8.45413152082e-10
5.27866643189e-05
-1.05221996362e-09
5.27870165463e-05
-1.31011156755e-09
5.27874559166e-05
-1.63170337585e-09
5.27880040763e-05
-2.03279369032e-09
5.27886880436e-05
-2.53317589307e-09
5.27895415261e-05
-3.15763881662e-09
5.27906066585e-05
-3.93711298944e-09
5.27919359585e-05
-4.91025090195e-09
5.27935951559e-05
-6.12511457344e-09
5.27956665117e-05
-7.64168614366e-09
5.27982528521e-05
-9.53502852965e-09
5.28014826896e-05
-1.18991139561e-08
5.28055167517e-05
-1.4851538444e-08
5.28105561481e-05
-1.85394813586e-08
5.28168525034e-05
-2.31473366618e-08
5.28247206987e-05
-2.89063561362e-08
5.28345550214e-05
-3.61067336938e-08
5.28468494526e-05
-4.51129614938e-08
5.28622230842e-05
-5.63835830688e-08
5.2881452291e-05
-7.04964913245e-08
5.29055115967e-05
-8.8181331487e-08
5.29356253114e-05
-1.10361633976e-07
5.29733330321e-05
-1.38210149031e-07
5.30205735077e-05
-1.73221635393e-07
5.30797920894e-05
-2.17309700283e-07
5.31540785193e-05
-2.72937903339e-07
5.32473451859e-05
-3.43299335908e-07
5.33645588217e-05
-4.32566424781e-07
5.35120417534e-05
-5.46246157318e-07
5.36978646899e-05
-6.91695531201e-07
5.39323561705e-05
-8.78887889837e-07
5.42287480353e-05
-1.12158624834e-06
5.46039460101e-05
-1.43918907852e-06
5.50793021492e-05