/*--------------------------------*- C++ -*----------------------------------*\
| =========                 |                                                 |
| \\      /  F ield         | OpenFOAM: The Open Source CFD Toolbox           |
|  \\    /   O peration     | Version:  2106                                  |
|   \\  /    A nd           | Website:  www.openfoam.com                      |
|    \\/     M anipulation  |                                                 |
\*---------------------------------------------------------------------------*/
FoamFile
{
    version     2.0;
    format      ascii;
    arch        "LSB;label=32;scalar=64";
    class       volVectorField;
    location    "0.04";
    object      U;
}
// * * * * * * * * * * * * * * * * * * * * * * * * * * * * * * * * * * * * * //

dimensions      [0 1 -1 0 0 0 0];

internalField   nonuniform List<vector> 
9600
(
(0.675391728958 0.157681557792 0)
(0.563811716723 0.102435471119 0)
(0.381523832274 0.0510670262532 0)
(0.283860702585 0.0244561284266 0)
(0.232347613654 0.01192311139 0)
(0.202084575163 0.00620584967474 0)
(0.183529093766 0.00348151739749 0)
(0.171866348779 0.00206254847937 0)
(0.164417851656 0.00125180100375 0)
(0.159665697217 0.000755640417329 0)
(0.156688476637 0.000441123498128 0)
(0.154886726091 0.000240702784129 0)
(0.153855170748 0.000115410528879 0)
(0.153315863272 4.03421357645e-05 0)
(0.153078718064 -1.49688796737e-06 0)
(0.153015963077 -2.19604334604e-05 0)
(0.15304478564 -2.90356319283e-05 0)
(0.153113758441 -2.90308229245e-05 0)
(0.153192935211 -2.54851865018e-05 0)
(0.153266837611 -2.06263651569e-05 0)
(0.153328799137 -1.57523596797e-05 0)
(0.153377250215 -1.14972345456e-05 0)
(0.153413242745 -8.08176333771e-06 0)
(0.153438908955 -5.49890981284e-06 0)
(0.153456590409 -3.63448626236e-06 0)
(0.153468405202 -2.33984351441e-06 0)
(0.153476081014 -1.47098985642e-06 0)
(0.153480934814 -9.0591656123e-07 0)
(0.153483921673 -5.4931029136e-07 0)
(0.153485707188 -3.30852895745e-07 0)
(0.153486739955 -2.00873265509e-07 0)
(0.153487313573 -1.25400408152e-07 0)
(0.153487615124 -8.19140419584e-08 0)
(0.153487760841 -5.6188160524e-08 0)
(0.15348782135 -4.04558643028e-08 0)
(0.153487837797 -3.24595348767e-08 0)
(0.153487831593 -3.15759721925e-08 0)
(0.153487815009 -3.48495169565e-08 0)
(0.153487796233 -4.00187346921e-08 0)
(0.153487778778 -4.51596386519e-08 0)
(0.153487763683 -5.00454895176e-08 0)
(0.153487751185 -5.50046486823e-08 0)
(0.15348774102 -6.03619758811e-08 0)
(0.153487732816 -6.63429114998e-08 0)
(0.153487726186 -7.27538858375e-08 0)
(0.153487720673 -7.94617757745e-08 0)
(0.153487715902 -8.64523288612e-08 0)
(0.153487711602 -9.37541968213e-08 0)
(0.153487707698 -1.01463681681e-07 0)
(0.153487704185 -1.09668325844e-07 0)
(0.153487701076 -1.18455856608e-07 0)
(0.153487698435 -1.279110472e-07 0)
(0.153487696322 -1.38070852139e-07 0)
(0.153487694739 -1.48970459407e-07 0)
(0.153487693631 -1.60624801529e-07 0)
(0.153487692918 -1.73085626727e-07 0)
(0.153487692498 -1.86410572925e-07 0)
(0.153487692258 -2.006552193e-07 0)
(0.153487692103 -2.15854982141e-07 0)
(0.153487691979 -2.32060153795e-07 0)
(0.153487691868 -2.4933644493e-07 0)
(0.153487691774 -2.67749242156e-07 0)
(0.153487691709 -2.87359619922e-07 0)
(0.153487691681 -3.0822079644e-07 0)
(0.15348769169 -3.30373855271e-07 0)
(0.153487691738 -3.53853308326e-07 0)
(0.153487691843 -3.78680850908e-07 0)
(0.153487692036 -4.04912946073e-07 0)
(0.153487692325 -4.32642987301e-07 0)
(0.15348769266 -4.61983156152e-07 0)
(0.153487692934 -4.93020081454e-07 0)
(0.153487693024 -5.25826259548e-07 0)
(0.153487692798 -5.60464461174e-07 0)
(0.153487692125 -5.96984196184e-07 0)
(0.153487690907 -6.35435570319e-07 0)
(0.153487689103 -6.75881505305e-07 0)
(0.153487686726 -7.1840130662e-07 0)
(0.153487683837 -7.63096182089e-07 0)
(0.153487680505 -8.10074088444e-07 0)
(0.153487676782 -8.59425827941e-07 0)
(0.153487672681 -9.11208952081e-07 0)
(0.153487668182 -9.6544864385e-07 0)
(0.153487663257 -1.02216633081e-06 0)
(0.153487657888 -1.08141708258e-06 0)
(0.153487652102 -1.14329871019e-06 0)
(0.153487645977 -1.20792382598e-06 0)
(0.153487639632 -1.27537991679e-06 0)
(0.153487633181 -1.34570594722e-06 0)
(0.153487626716 -1.41890200285e-06 0)
(0.153487620314 -1.4949669748e-06 0)
(0.153487614088 -1.57393858373e-06 0)
(0.153487608197 -1.65589754043e-06 0)
(0.153487602829 -1.74092126309e-06 0)
(0.153487598172 -1.82902461167e-06 0)
(0.153487594428 -1.92014420645e-06 0)
(0.153487591871 -2.01418472019e-06 0)
(0.15348759089 -2.11108870931e-06 0)
(0.153487591982 -2.21085425753e-06 0)
(0.153487595691 -2.31343811761e-06 0)
(0.153487602565 -2.41855746763e-06 0)
(0.153487613242 -2.52560949805e-06 0)
(0.153487629001 -2.63413314897e-06 0)
(0.153487651398 -2.74404913925e-06 0)
(0.153487681893 -2.85563913963e-06 0)
(0.153487722278 -2.96912531758e-06 0)
(0.153487774746 -3.0846206895e-06 0)
(0.153487842008 -3.20218899451e-06 0)
(0.153487927507 -3.3220173884e-06 0)
(0.153488035639 -3.4446962651e-06 0)
(0.153488171761 -3.57198591139e-06 0)
(0.153488341711 -3.7087850295e-06 0)
(0.153488554761 -3.86375925103e-06 0)
(0.153488822391 -4.03264637607e-06 0)
(0.153489156889 -4.21229124866e-06 0)
(0.153489574139 -4.40232906417e-06 0)
(0.153490094175 -4.6034416332e-06 0)
(0.153490741988 -4.81668098367e-06 0)
(0.153491548694 -5.04349755851e-06 0)
(0.153492552962 -5.28574619178e-06 0)
(0.153493802793 -5.54557194987e-06 0)
(0.153495357818 -5.82543119119e-06 0)
(0.153497292416 -6.12868390624e-06 0)
(0.153499701246 -6.46215183333e-06 0)
(0.153502713456 -6.84636162221e-06 0)
(0.153506502438 -7.34875915591e-06 0)
(0.153511207872 -8.08679244066e-06 0)
(0.15351701649 -8.99159543385e-06 0)
(0.153524231955 -1.00274014611e-05 0)
(0.153533214147 -1.11951215333e-05 0)
(0.153544398772 -1.25102138295e-05 0)
(0.153558326215 -1.39952551308e-05 0)
(0.15357567063 -1.56792765742e-05 0)
(0.153597273332 -1.75993524004e-05 0)
(0.153624184288 -1.98023030864e-05 0)
(0.153657715051 -2.23469312263e-05 0)
(0.153699504796 -2.53078863372e-05 0)
(0.153751602571 -2.8780394229e-05 0)
(0.153816572483 -3.28851178402e-05 0)
(0.153897628915 -3.77747987725e-05 0)
(0.153998807322 -4.36446073402e-05 0)
(0.15412518016 -5.0745388889e-05 0)
(0.154283136044 -5.93984913691e-05 0)
(0.154480744855 -7.00150364086e-05 0)
(0.154728234059 -8.31248689775e-05 0)
(0.155038614867 -9.94167508973e-05 0)
(0.155428520715 -0.000119790209744 0)
(0.155919344457 -0.000145426930811 0)
(0.156538797255 -0.000177893556628 0)
(0.157323086092 -0.000219282381019 0)
(0.158320022254 -0.000272401696209 0)
(0.1595935717 -0.000341054617998 0)
(0.161230799709 -0.000430527357067 0)
(0.163353310083 -0.000548839691159 0)
(0.166139323734 -0.000711352864325 0)
(0.169875383982 -0.000959461768016 0)
(0.175085112733 -0.00143298701778 0)
(0.182908903307 -0.00264340278449 0)
(0.196723131601 -0.00656264885021 0)
(0.227601031363 -0.0210924180347 0)
(0.299149569211 -0.0778974057203 0)
(0.977197758905 0.297007037084 0)
(0.962685147455 0.250389245496 0)
(0.820680229849 0.158556377031 0)
(0.697962172788 0.0957285739871 0)
(0.610830438413 0.0577750232012 0)
(0.549803375112 0.0356781602889 0)
(0.507860983762 0.0226043989998 0)
(0.47946528585 0.014549155369 0)
(0.460421008773 0.00938769117637 0)
(0.447811398938 0.00599207215347 0)
(0.439630219002 0.00373323085311 0)
(0.434476007478 0.00223550825346 0)
(0.431360563673 0.00125863854614 0)
(0.429586835367 0.000640047149739 0)
(0.42866733296 0.000265495083232 0)
(0.428267374785 5.33926968139e-05 0)
(0.428163266902 -5.41579812339e-05 0)
(0.428211485754 -9.83009093962e-05 0)
(0.428324876744 -0.000106604383841 0)
(0.428453791011 -9.67983252214e-05 0)
(0.428573007836 -7.9760936775e-05 0)
(0.428672158274 -6.16038950135e-05 0)
(0.428749169868 -4.53341639367e-05 0)
(0.42880607184 -3.20877944267e-05 0)
(0.428846487018 -2.19735723477e-05 0)
(0.428874258585 -1.46129026703e-05 0)
(0.428892796876 -9.45903069596e-06 0)
(0.428904848594 -5.96656227319e-06 0)
(0.428912488753 -3.66754905649e-06 0)
(0.428917212594 -2.19404064084e-06 0)
(0.428920058018 -1.27335300419e-06 0)
(0.428921723291 -7.12213444056e-07 0)
(0.428922665245 -3.78742685623e-07 0)
(0.42892317474 -1.86084794043e-07 0)
(0.42892343185 -7.92395747891e-08 0)
(0.428923545641 -2.50846857595e-08 0)
(0.428923581439 -2.41420802614e-09 0)
(0.428923578768 6.26667822271e-09 0)
(0.428923561154 7.66356967239e-09 0)
(0.42892353945 5.25786172137e-09 0)
(0.428923517413 1.26271930167e-09 0)
(0.428923496965 -2.86081906372e-09 0)
(0.428923478849 -6.32258956874e-09 0)
(0.428923463422 -8.72492816746e-09 0)
(0.428923450611 -1.07005082764e-08 0)
(0.428923439719 -1.2655930584e-08 0)
(0.428923430096 -1.46252732418e-08 0)
(0.428923421244 -1.65998110827e-08 0)
(0.428923412931 -1.86663161109e-08 0)
(0.428923405037 -2.07889743653e-08 0)
(0.428923397449 -2.28955798665e-08 0)
(0.428923390167 -2.49651981463e-08 0)
(0.428923383225 -2.70314422154e-08 0)
(0.428923376598 -2.91546602275e-08 0)
(0.42892337018 -3.13775380886e-08 0)
(0.428923363824 -3.37227626472e-08 0)
(0.428923357412 -3.61608660505e-08 0)
(0.428923350878 -3.86715002257e-08 0)
(0.428923344168 -4.12693907459e-08 0)
(0.428923337216 -4.39989415977e-08 0)
(0.428923329964 -4.68955115528e-08 0)
(0.42892332237 -4.99559228625e-08 0)
(0.428923314419 -5.31251359122e-08 0)
(0.428923306129 -5.63401488702e-08 0)
(0.428923297537 -5.9578766856e-08 0)
(0.428923288683 -6.28944490752e-08 0)
(0.428923279576 -6.63905031531e-08 0)
(0.428923270174 -7.01549784206e-08 0)
(0.428923260414 -7.41982117597e-08 0)
(0.428923250208 -7.85378035959e-08 0)
(0.428923239428 -8.31566601139e-08 0)
(0.428923227931 -8.80321051916e-08 0)
(0.428923215592 -9.31506634752e-08 0)
(0.428923202322 -9.84999497926e-08 0)
(0.428923188078 -1.04077805123e-07 0)
(0.428923172853 -1.09896107356e-07 0)
(0.428923156657 -1.15979488162e-07 0)
(0.428923139492 -1.2235841745e-07 0)
(0.42892312137 -1.29051688708e-07 0)
(0.428923102316 -1.36053698619e-07 0)
(0.428923082381 -1.43330657962e-07 0)
(0.428923061636 -1.50838814914e-07 0)
(0.428923040153 -1.58569182726e-07 0)
(0.428923017994 -1.66581032526e-07 0)
(0.428922995215 -1.7498493372e-07 0)
(0.428922971894 -1.83881777013e-07 0)
(0.42892294815 -1.93309535316e-07 0)
(0.42892292418 -2.03241831884e-07 0)
(0.42892290025 -2.13640863312e-07 0)
(0.42892287666 -2.24524195253e-07 0)
(0.428922853691 -2.35994095338e-07 0)
(0.428922831616 -2.48203657732e-07 0)
(0.428922810768 -2.61285400485e-07 0)
(0.428922791624 -2.7530570647e-07 0)
(0.428922774842 -2.90290075391e-07 0)
(0.428922761241 -3.06300795344e-07 0)
(0.428922751757 -3.23517752926e-07 0)
(0.428922747465 -3.4224798855e-07 0)
(0.428922749713 -3.62871373196e-07 0)
(0.428922760198 -3.85896502375e-07 0)
(0.42892278076 -4.12458643972e-07 0)
(0.428922814026 -4.44591484729e-07 0)
(0.428922863112 -4.81360040699e-07 0)
(0.42892293148 -5.22929361155e-07 0)
(0.428923023674 -5.69895263434e-07 0)
(0.428923145352 -6.22925576335e-07 0)
(0.428923303453 -6.82735754452e-07 0)
(0.428923506361 -7.50142794966e-07 0)
(0.42892376379 -8.25893353841e-07 0)
(0.428924085577 -9.09967978215e-07 0)
(0.428924481428 -9.99002593405e-07 0)
(0.428924981483 -1.08355691159e-06 0)
(0.428925623124 -1.17346788202e-06 0)
(0.42892643511 -1.27737584912e-06 0)
(0.428927454549 -1.40133487144e-06 0)
(0.428928730833 -1.55151236762e-06 0)
(0.428930326435 -1.73541754188e-06 0)
(0.428932319194 -1.96256165902e-06 0)
(0.428934806054 -2.24496023804e-06 0)
(0.428937907861 -2.59755164105e-06 0)
(0.428941775101 -3.03867317558e-06 0)
(0.428946594221 -3.59127352587e-06 0)
(0.428952593675 -4.28566658797e-06 0)
(0.428960046873 -5.16765898083e-06 0)
(0.428969290869 -6.32551638605e-06 0)
(0.428980823627 -7.90345213222e-06 0)
(0.428995268616 -9.92800923945e-06 0)
(0.429013316824 -1.24647120158e-05 0)
(0.429035839199 -1.56253501707e-05 0)
(0.429063934668 -1.9558096345e-05 0)
(0.429098978483 -2.44490891769e-05 0)
(0.429142688231 -3.05306675153e-05 0)
(0.429197209162 -3.80929633846e-05 0)
(0.429265222522 -4.74976605108e-05 0)
(0.429350081005 -5.9196026112e-05 0)
(0.429455978309 -7.37534121958e-05 0)
(0.429588164181 -9.18799032395e-05 0)
(0.42975321816 -0.000114467670989 0)
(0.429959396418 -0.000142640207164 0)
(0.430217072183 -0.000177819511055 0)
(0.43053930116 -0.000221813513427 0)
(0.430942552625 -0.00027692774495 0)
(0.431447656679 -0.000346115481701 0)
(0.432081041666 -0.000433186483944 0)
(0.432876374333 -0.000543093959212 0)
(0.433876760198 -0.000682332955831 0)
(0.435137730805 -0.000859514850722 0)
(0.436731378548 -0.00108621437111 0)
(0.438752220112 -0.00137824399021 0)
(0.441325739874 -0.00175766299262 0)
(0.444621310331 -0.0022561538361 0)
(0.448872716135 -0.0029212052254 0)
(0.45441268231 -0.00382884956103 0)
(0.461735640728 -0.00511368919155 0)
(0.471621476549 -0.00704848450588 0)
(0.48537580685 -0.0102674691313 0)
(0.505273954421 -0.0163972910182 0)
(0.535675531406 -0.029908325602 0)
(0.585475645955 -0.0636957259697 0)
(0.662318390464 -0.151730232473 0)
(1.03387011787 0.239248861047 0)
(1.08315773713 0.293609160255 0)
(1.03303332787 0.23902710135 0)
(0.95466192203 0.174304252464 0)
(0.880663663321 0.121134508679 0)
(0.819695798887 0.0825884126969 0)
(0.773148329439 0.0559238316597 0)
(0.739241623753 0.0376523322621 0)
(0.715282370153 0.0251028673423 0)
(0.69877896495 0.0164659314453 0)
(0.687710011885 0.0105399662537 0)
(0.680511298609 0.00651568654318 0)
(0.676004342107 0.00383316478558 0)
(0.673319469042 0.00209418014604 0)
(0.671828022923 0.00100997130385 0)
(0.671086606202 0.000369719272239 0)
(0.670791722503 2.05154319368e-05 0)
(0.670743244101 -0.000145975005688 0)
(0.670815448852 -0.000204884621841 0)
(0.67093383731 -0.000205544638947 0)
(0.671057663801 -0.000178989736261 0)
(0.671167513805 -0.000143412628347 0)
(0.671256444724 -0.00010846760821 0)
(0.671324162121 -7.85005880219e-05 0)
(0.671373424423 -5.48037897113e-05 0)
(0.671407975031 -3.70944647919e-05 0)
(0.671431471636 -2.44193870313e-05 0)
(0.671447022546 -1.56614776355e-05 0)
(0.671457061313 -9.79007102512e-06 0)
(0.671463389124 -5.95874806626e-06 0)
(0.671467283728 -3.52105656101e-06 0)
(0.67146962108 -2.00817972382e-06 0)
(0.67147098451 -1.09361537502e-06 0)
(0.671471752588 -5.57345500021e-07 0)
(0.671472165546 -2.54774546306e-07 0)
(0.67147237305 -9.24923358156e-08 0)
(0.671472467009 -1.12790527378e-08 0)
(0.671472498994 2.59845228047e-08 0)
(0.67147249812 4.16323618035e-08 0)
(0.67147248308 4.6839861467e-08 0)
(0.671472463627 4.57626079466e-08 0)
(0.671472444372 4.19296587386e-08 0)
(0.671472427014 3.74428998892e-08 0)
(0.671472411355 3.35386238134e-08 0)
(0.671472396886 3.05786965017e-08 0)
(0.671472383748 2.90006916125e-08 0)
(0.671472371845 2.87633322842e-08 0)
(0.671472360766 2.96884492612e-08 0)
(0.671472350349 3.15743923999e-08 0)
(0.671472340586 3.40070894641e-08 0)
(0.671472331321 3.68361557078e-08 0)
(0.671472322388 3.99850643751e-08 0)
(0.671472313678 4.3424732941e-08 0)
(0.671472305113 4.71349942774e-08 0)
(0.671472296585 5.10782815049e-08 0)
(0.671472288003 5.52453430197e-08 0)
(0.671472279274 5.96378194755e-08 0)
(0.671472270296 6.42807476584e-08 0)
(0.671472260984 6.91957495906e-08 0)
(0.671472251285 7.44011105469e-08 0)
(0.671472241167 7.99389467878e-08 0)
(0.671472230616 8.58703790478e-08 0)
(0.671472219619 9.22583447047e-08 0)
(0.671472208148 9.91563723663e-08 0)
(0.671472196147 1.06596343711e-07 0)
(0.671472183561 1.14602838226e-07 0)
(0.671472170395 1.23191748592e-07 0)
(0.671472156732 1.32384478288e-07 0)
(0.671472142591 1.42136433821e-07 0)
(0.671472127874 1.52419551497e-07 0)
(0.671472112426 1.63226193326e-07 0)
(0.671472096063 1.74580286142e-07 0)
(0.671472078623 1.86526016466e-07 0)
(0.67147206001 1.99123178872e-07 0)
(0.671472040203 2.12437000108e-07 0)
(0.671472019235 2.26520480812e-07 0)
(0.671471997154 2.41405720184e-07 0)
(0.671471973991 2.57115488712e-07 0)
(0.671471949745 2.73673219272e-07 0)
(0.671471924402 2.91110718504e-07 0)
(0.671471897967 3.09475645638e-07 0)
(0.671471870485 3.28822859982e-07 0)
(0.671471842045 3.49192570552e-07 0)
(0.671471812764 3.70595224535e-07 0)
(0.671471782771 3.93012380551e-07 0)
(0.671471752186 4.16420479925e-07 0)
(0.671471721142 4.40827194693e-07 0)
(0.671471689831 4.66284653975e-07 0)
(0.671471658546 4.92856651463e-07 0)
(0.67147162766 5.20564119045e-07 0)
(0.671471597581 5.49361915447e-07 0)
(0.671471568707 5.79170214527e-07 0)
(0.671471541476 6.09930104488e-07 0)
(0.671471516455 6.41632722428e-07 0)
(0.671471494445 6.74281721624e-07 0)
(0.6714714765 7.07813438819e-07 0)
(0.671471463867 7.42036667375e-07 0)
(0.671471457906 7.7667996069e-07 0)
(0.671471460005 8.11532040073e-07 0)
(0.671471471316 8.46631605784e-07 0)
(0.671471493019 8.82798879872e-07 0)
(0.671471531021 9.21837913572e-07 0)
(0.671471591922 9.60913990569e-07 0)
(0.671471679855 9.98019864676e-07 0)
(0.671471800683 1.03139453174e-06 0)
(0.67147196215 1.05904200467e-06 0)
(0.671472174121 1.07860916051e-06 0)
(0.671472449133 1.08729752923e-06 0)
(0.671472803393 1.08188717222e-06 0)
(0.671473258998 1.05915910441e-06 0)
(0.67147384585 1.01837155947e-06 0)
(0.671474585638 9.64618856987e-07 0)
(0.671475503244 8.83475076963e-07 0)
(0.671476647352 7.59889827697e-07 0)
(0.671478077423 5.79416422181e-07 0)
(0.671479864479 3.25080219328e-07 0)
(0.671482096033 -2.43247087122e-08 0)
(0.671484880796 -4.95405774235e-07 0)
(0.671488354077 -1.1215205689e-06 0)
(0.671492684746 -1.94433504301e-06 0)
(0.671498083814 -3.01584314629e-06 0)
(0.671504814761 -4.40096187985e-06 0)
(0.671513206955 -6.18070200877e-06 0)
(0.671523670996 -8.45480106394e-06 0)
(0.671536712672 -1.13387482484e-05 0)
(0.671552967119 -1.49687357682e-05 0)
(0.671573230827 -1.95753528806e-05 0)
(0.671598494076 -2.54280168016e-05 0)
(0.671630000274 -3.28506428615e-05 0)
(0.671669302326 -4.22453206867e-05 0)
(0.671718337552 -5.41145837936e-05 0)
(0.671779524785 -6.90871760773e-05 0)
(0.671855887092 -8.79491782281e-05 0)
(0.671951205507 -0.000111683130597 0)
(0.67207021045 -0.000141518814639 0)
(0.672218822342 -0.000178998183349 0)
(0.672404457314 -0.000226057011863 0)
(0.672636414745 -0.000285129080467 0)
(0.672926366371 -0.000359282304424 0)
(0.673288978178 -0.000452396663351 0)
(0.673742709458 -0.000569395469315 0)
(0.674310841515 -0.000716550989888 0)
(0.675022804446 -0.000901897151074 0)
(0.675915907042 -0.0011357902372 0)
(0.677037620275 -0.00143167844719 0)
(0.678448617521 -0.0018071859109 0)
(0.680226873904 -0.00228567534635 0)
(0.682473299015 -0.00289854735581 0)
(0.685319633501 -0.00368874228575 0)
(0.688939785415 -0.00471631311705 0)
(0.693566615942 -0.00606774996474 0)
(0.6995176756 -0.00787262862487 0)
(0.707235969826 -0.0103356104492 0)
(0.7173565939 -0.0138024099707 0)
(0.730818021089 -0.0189047175375 0)
(0.749032835823 -0.026890060023 0)
(0.774072547065 -0.0403552284097 0)
(0.808799337408 -0.0647869829852 0)
(0.856473766364 -0.111656083662 0)
(0.913333546967 -0.201974391761 0)
(1.03384313218 0.171305072931 0)
(1.10234332774 0.275486598364 0)
(1.11674822993 0.266099267991 0)
(1.0923698725 0.219453608087 0)
(1.05255491691 0.167461276449 0)
(1.01129808964 0.122484327792 0)
(0.975246536632 0.0873292726175 0)
(0.946481900626 0.0610695894033 0)
(0.924796543816 0.0419075655078 0)
(0.909118158053 0.0281445741092 0)
(0.898185261256 0.0184055504111 0)
(0.890826826235 0.0116338761738 0)
(0.886060795976 0.00702977995537 0)
(0.883110400799 0.00398864801602 0)
(0.881386404398 0.00205355707607 0)
(0.880457821205 0.000881313561905 0)
(0.880020691363 0.00021789181668 0)
(0.879868700075 -0.000120181461167 0)
(0.879868323676 -0.000261617845863 0)
(0.879937573509 -0.000292549727629 0)
(0.88002912841 -0.000268165097293 0)
(0.880118428134 -0.000221650847967 0)
(0.88019468748 -0.000171332830125 0)
(0.880254856502 -0.000126106141804 0)
(0.880299796703 -8.92916242335e-05 0)
(0.88033199195 -6.12095546644e-05 0)
(0.880354290707 -4.07872363983e-05 0)
(0.880369297695 -2.64864274447e-05 0)
(0.880379143211 -1.67840781073e-05 0)
(0.880385452177 -1.03814313457e-05 0)
(0.880389404128 -6.26199241797e-06 0)
(0.880391823289 -3.6750009109e-06 0)
(0.880393267947 -2.08939509012e-06 0)
(0.88039410643 -1.14217351795e-06 0)
(0.880394576147 -5.92207870073e-07 0)
(0.880394826692 -2.83598327382e-07 0)
(0.88039495047 -1.18401801399e-07 0)
(0.880395004363 -3.70940114853e-08 0)
(0.88039502195 -4.53859818812e-10 0)
(0.880395019145 1.13500554501e-08 0)
(0.880395005611 1.15357852799e-08 0)
(0.880394988783 6.58834037666e-09 0)
(0.880394971755 -2.36882144342e-10 0)
(0.880394955889 -7.31923931098e-09 0)
(0.880394941828 -1.33817483245e-08 0)
(0.880394929262 -1.83756069381e-08 0)
(0.880394917395 -2.3141075596e-08 0)
(0.880394905776 -2.8010004038e-08 0)
(0.880394894064 -3.2586441857e-08 0)
(0.88039488222 -3.66765261538e-08 0)
(0.880394870398 -4.04185531278e-08 0)
(0.880394858673 -4.40227055806e-08 0)
(0.880394847071 -4.76337959265e-08 0)
(0.88039483549 -5.13677540632e-08 0)
(0.88039482375 -5.52844033238e-08 0)
(0.88039481168 -5.94078799057e-08 0)
(0.880394799182 -6.37691444285e-08 0)
(0.880394786242 -6.84053388999e-08 0)
(0.880394772841 -7.33446635115e-08 0)
(0.880394758924 -7.85983677617e-08 0)
(0.880394744412 -8.41521673021e-08 0)
(0.88039472921 -8.99654794652e-08 0)
(0.880394713244 -9.60047286955e-08 0)
(0.880394696506 -1.0225540005e-07 0)
(0.880394679039 -1.08732258928e-07 0)
(0.880394660903 -1.15467006231e-07 0)
(0.880394642113 -1.22500097661e-07 0)
(0.880394622564 -1.29882628397e-07 0)
(0.880394602108 -1.37685876837e-07 0)
(0.880394580639 -1.45921290411e-07 0)
(0.880394558029 -1.54601506016e-07 0)
(0.880394534151 -1.63748052767e-07 0)
(0.880394508906 -1.73392243247e-07 0)
(0.880394482241 -1.83568503024e-07 0)
(0.88039445415 -1.94298797393e-07 0)
(0.880394424648 -2.05582512486e-07 0)
(0.880394393743 -2.17400693064e-07 0)
(0.880394361423 -2.29741040869e-07 0)
(0.88039432766 -2.42615882335e-07 0)
(0.880394292437 -2.56053555994e-07 0)
(0.880394255793 -2.70085288904e-07 0)
(0.880394217834 -2.84743651914e-07 0)
(0.88039417872 -3.00073359908e-07 0)
(0.880394138615 -3.16149892146e-07 0)
(0.88039409764 -3.33089605608e-07 0)
(0.880394055878 -3.51030805871e-07 0)
(0.880394013445 -3.7009087663e-07 0)
(0.880393970579 -3.90346957213e-07 0)
(0.880393927673 -4.11877214707e-07 0)
(0.880393885214 -4.34834775709e-07 0)
(0.880393843689 -4.59483699004e-07 0)
(0.880393803563 -4.86160951274e-07 0)
(0.880393765367 -5.15211940978e-07 0)
(0.880393729834 -5.46970265406e-07 0)
(0.880393697967 -5.81811567318e-07 0)
(0.880393671009 -6.20224717896e-07 0)
(0.880393650392 -6.6281144228e-07 0)
(0.880393637823 -7.10215626311e-07 0)
(0.880393635567 -7.63060154202e-07 0)
(0.880393647033 -8.21864859149e-07 0)
(0.880393676808 -8.86514907663e-07 0)
(0.880393726606 -9.55825994912e-07 0)
(0.880393798677 -1.03310951342e-06 0)
(0.880393899891 -1.12103923217e-06 0)
(0.880394037864 -1.22227229635e-06 0)
(0.880394221702 -1.34000459963e-06 0)
(0.88039446274 -1.47823629902e-06 0)
(0.880394774919 -1.64208808715e-06 0)
(0.88039517523 -1.8381580659e-06 0)
(0.880395684805 -2.07537899936e-06 0)
(0.880396331479 -2.3675633618e-06 0)
(0.88039714882 -2.73598270711e-06 0)
(0.880398177629 -3.19156201276e-06 0)
(0.880399470134 -3.7508971109e-06 0)
(0.880401090517 -4.43820875139e-06 0)
(0.880403118541 -5.28466637179e-06 0)
(0.880405653874 -6.32935519834e-06 0)
(0.880408820764 -7.62116983479e-06 0)
(0.880412774139 -9.22109288512e-06 0)
(0.880417707531 -1.12050532396e-05 0)
(0.88042386285 -1.36678299917e-05 0)
(0.880431542148 -1.67276993665e-05 0)
(0.880441122521 -2.05334022046e-05 0)
(0.880453074994 -2.52738475383e-05 0)
(0.880467985945 -3.11883863637e-05 0)
(0.88048658767 -3.85699056008e-05 0)
(0.880509793682 -4.77811133878e-05 0)
(0.880538743246 -5.92674512025e-05 0)
(0.88057486385 -7.35880812749e-05 0)
(0.880619940747 -9.14467180036e-05 0)
(0.880676204017 -0.000113726962449 0)
(0.880746440245 -0.000141536468737 0)
(0.880834134268 -0.000176262525504 0)
(0.880943646294 -0.000219643185148 0)
(0.881080432643 -0.00027385837597 0)
(0.881251324089 -0.000341645009843 0)
(0.881464878812 -0.00042644255937 0)
(0.881731827392 -0.00053258048921 0)
(0.882065633546 -0.000665521255977 0)
(0.882483207231 -0.000832173658967 0)
(0.883005816434 -0.00104130016132 0)
(0.883660251963 -0.00130405733034 0)
(0.884480321971 -0.00163471979197 0)
(0.885508788715 -0.00205165416961 0)
(0.886799895996 -0.00257865321672 0)
(0.888422689757 -0.00324680533311 0)
(0.89046543208 -0.0040971584951 0)
(0.893041543671 -0.00518460478814 0)
(0.89629770868 -0.00658373233611 0)
(0.900425110584 -0.00839795136232 0)
(0.905675262564 -0.0107743265186 0)
(0.912382562651 -0.0139288958141 0)
(0.920996406351 -0.0181920906093 0)
(0.932125529477 -0.0240938297658 0)
(0.946593613909 -0.0325281291058 0)
(0.965482704647 -0.0450742112531 0)
(0.990057619278 -0.0645903344772 0)
(1.0213448716 -0.096151790701 0)
(1.05882550185 -0.14812943642 0)
(1.09519013068 -0.231463188077 0)
(1.02388582273 0.119308472354 0)
(1.08878015091 0.231398227703 0)
(1.1366999885 0.25255305314 0)
(1.15429726086 0.228279962001 0)
(1.15047099291 0.187293699201 0)
(1.13619987748 0.145023517104 0)
(1.11888789393 0.108048135124 0)
(1.10252446516 0.0781613324048 0)
(1.08880340956 0.0550817320901 0)
(1.07812061927 0.0378075936225 0)
(1.07024157512 0.0252047813444 0)
(1.06468719473 0.0162336992418 0)
(1.06093438175 0.0100159916456 0)
(1.05850836232 0.00583781828351 0)
(1.05701700658 0.00313287195738 0)
(1.05615612694 0.00146142942736 0)
(1.05570130017 0.00049020908926 0)
(1.05549401384 -2.61267625975e-05 0)
(1.05542801958 -0.000261517532613 0)
(1.05543542251 -0.000335231770438 0)
(1.05547483713 -0.000324436087137 0)
(1.05552318274 -0.00027639263695 0)
(1.05556888743 -0.000217962389863 0)
(1.05560716311 -0.000162816030596 0)
(1.05563693467 -0.000116661232165 0)
(1.05565892435 -8.07913820731e-05 0)
(1.05567453769 -5.43392447984e-05 0)
(1.05568527454 -3.56054663038e-05 0)
(1.05569245996 -2.27702907575e-05 0)
(1.05569715423 -1.42232261801e-05 0)
(1.05570015348 -8.67503527109e-06 0)
(1.05570202888 -5.15833832032e-06 0)
(1.05570317601 -2.98054345949e-06 0)
(1.05570386102 -1.66353946424e-06 0)
(1.05570425871 -8.87183816848e-07 0)
(1.05570448135 -4.42706537814e-07 0)
(1.05570459989 -1.96969197592e-07 0)
(1.05570465825 -6.70210695329e-08 0)
(1.05570468083 -3.78930429156e-09 0)
(1.05570468375 2.14592015825e-08 0)
(1.05570467817 2.88756348765e-08 0)
(1.05570466837 2.83033941342e-08 0)
(1.05570465695 2.4784012641e-08 0)
(1.0557046451 2.0657550886e-08 0)
(1.05570463284 1.6654625819e-08 0)
(1.05570461965 1.25995634539e-08 0)
(1.05570460574 8.95425784368e-09 0)
(1.05570459203 6.37824403263e-09 0)
(1.05570457903 4.73285625923e-09 0)
(1.05570456645 3.68023988213e-09 0)
(1.05570455394 3.06777461026e-09 0)
(1.05570454135 2.84841142039e-09 0)
(1.05570452861 2.92772379883e-09 0)
(1.05570451563 3.19434507026e-09 0)
(1.05570450233 3.58366867727e-09 0)
(1.05570448861 4.07096515033e-09 0)
(1.05570447438 4.67177941623e-09 0)
(1.05570445958 5.39251436335e-09 0)
(1.05570444415 6.21779456041e-09 0)
(1.05570442806 7.1481838395e-09 0)
(1.05570441127 8.21388566305e-09 0)
(1.05570439371 9.46192371091e-09 0)
(1.05570437535 1.09626804818e-08 0)
(1.05570435612 1.27648636036e-08 0)
(1.05570433598 1.48591582698e-08 0)
(1.05570431485 1.7176762485e-08 0)
(1.05570429273 1.96230806889e-08 0)
(1.0557042696 2.21128751844e-08 0)
(1.05570424549 2.46647005042e-08 0)
(1.0557042203 2.72932448611e-08 0)
(1.05570419388 3.00111073287e-08 0)
(1.05570416604 3.28224465205e-08 0)
(1.05570413664 3.57305982021e-08 0)
(1.0557041056 3.87510691384e-08 0)
(1.0557040729 4.19195865287e-08 0)
(1.0557040386 4.52893900534e-08 0)
(1.05570400273 4.89123088077e-08 0)
(1.0557039653 5.28177415192e-08 0)
(1.05570392628 5.7009613976e-08 0)
(1.05570388562 6.14799411069e-08 0)
(1.05570384333 6.62202785809e-08 0)
(1.05570379947 7.12237069447e-08 0)
(1.05570375416 7.64760358353e-08 0)
(1.05570370753 8.19391471378e-08 0)
(1.05570365971 8.75451893386e-08 0)
(1.05570361077 9.32121717611e-08 0)
(1.05570356087 9.88703244175e-08 0)
(1.05570351021 1.04465668729e-07 0)
(1.05570345914 1.09921843629e-07 0)
(1.05570340806 1.15090659249e-07 0)
(1.05570335743 1.19737266264e-07 0)
(1.05570330772 1.23569503694e-07 0)
(1.05570325946 1.26272439179e-07 0)
(1.05570321336 1.27486664407e-07 0)
(1.05570317032 1.26736726973e-07 0)
(1.05570313154 1.23362933722e-07 0)
(1.0557030985 1.16510492116e-07 0)
(1.05570307289 1.05151731247e-07 0)
(1.05570305666 8.80254299633e-08 0)
(1.05570305224 6.33665270456e-08 0)
(1.05570306305 2.82056491251e-08 0)
(1.05570309324 -2.18778560922e-08 0)
(1.05570314769 -8.85109196922e-08 0)
(1.05570323257 -1.74799225447e-07 0)
(1.05570335525 -2.85013967723e-07 0)
(1.05570352495 -4.2449698906e-07 0)
(1.05570375324 -5.99912926241e-07 0)
(1.05570405438 -8.19483376743e-07 0)
(1.05570444611 -1.0931061789e-06 0)
(1.0557049505 -1.43256572222e-06 0)
(1.05570559513 -1.85219717964e-06 0)
(1.05570641302 -2.3715118945e-06 0)
(1.05570744495 -3.01427926066e-06 0)
(1.05570874343 -3.81118292452e-06 0)
(1.05571037416 -4.80020566584e-06 0)
(1.05571241887 -6.02801508101e-06 0)
(1.05571497934 -7.55255789892e-06 0)
(1.05571818229 -9.44605715972e-06 0)
(1.05572218581 -1.17983228043e-05 0)
(1.0557271874 -1.4721059875e-05 0)
(1.05573343429 -1.83535492594e-05 0)
(1.05574123525 -2.28703875709e-05 0)
(1.05575097545 -2.84903347242e-05 0)
(1.05576313577 -3.54879507766e-05 0)
(1.05577831596 -4.42083161137e-05 0)
(1.05579726508 -5.50818408216e-05 0)
(1.05582091799 -6.86447993234e-05 0)
(1.05585044194 -8.55619468769e-05 0)
(1.05588729826 -0.000106662714445 0)
(1.05593331479 -0.000132985452847 0)
(1.05599077585 -0.000165830608383 0)
(1.05606253726 -0.00020682608802 0)
(1.05615217159 -0.000258009655784 0)
(1.05626414869 -0.000321934439533 0)
(1.05640406141 -0.000401802760461 0)
(1.05657891062 -0.000501634269049 0)
(1.05679746491 -0.000626479449246 0)
(1.05707071136 -0.000782694577569 0)
(1.05741242339 -0.000978295303019 0)
(1.05783988072 -0.00122341048311 0)
(1.05837478111 -0.00153087271668 0)
(1.05904439459 -0.00191699748933 0)
(1.05988303436 -0.0024026148708 0)
(1.06093393981 -0.00301444800521 0)
(1.062251689 -0.00378698962104 0)
(1.06390530694 -0.004765096342 0)