/*--------------------------------*- C++ -*----------------------------------*\
| =========                 |                                                 |
| \\      /  F ield         | OpenFOAM: The Open Source CFD Toolbox           |
|  \\    /   O peration     | Version:  2106                                  |
|   \\  /    A nd           | Website:  www.openfoam.com                      |
|    \\/     M anipulation  |                                                 |
\*---------------------------------------------------------------------------*/
FoamFile
{
    version     2.0;
    format      ascii;
    arch        "LSB;label=32;scalar=64";
    class       volScalarField;
    location    "0.04";
    object      p;
}
// * * * * * * * * * * * * * * * * * * * * * * * * * * * * * * * * * * * * * //

dimensions      [0 2 -2 0 0 0 0];

internalField   nonuniform List<scalar> 
11200
(
181.856639153
178.928091224
177.814407187
177.287373379
176.920493155
176.626311484
176.365372375
176.117572191
175.873726569
175.629158855
175.381075153
175.127649099
174.867610223
174.600017271
174.324122737
174.039304515
173.745085072
173.440846591
173.126021649
172.800060405
172.462383593
172.112381868
171.749420425
171.372852213
170.981990188
170.576127064
170.154544181
169.716509025
169.261275848
168.7880863
168.296169655
167.784743686
167.253015886
166.700182873
166.125430436
165.527933847
164.906858186
164.261358875
163.590582325
162.893666549
162.169741627
161.417929972
160.637346417
159.827098152
158.986284494
158.113996396
157.209315723
156.271314404
155.299053498
154.291582007
153.247935084
152.167131304
151.048168826
149.890020368
148.691626886
147.451889691
146.16966047
144.84372862
143.472805384
142.055504121
140.590315684
139.075577121
137.509431674
135.889779099
134.214210674
132.479922249
130.68360445
128.821298662
126.888203101
124.878408429
122.784543438
120.597278
118.304390075
115.889765902
113.331424103
110.597899366
107.641931036
104.392028746
100.698003447
95.9414759729
180.063561899
178.705423334
177.914542669
177.414697935
177.023986178
176.700493983
176.416456218
176.152379482
175.897384997
175.645238723
175.392030305
175.135178501
174.872903003
174.603912693
174.327221608
174.042026383
173.747577557
173.443252929
173.12849651
172.802690161
172.465215384
172.115442882
171.752723615
171.376380211
170.985730305
170.58007599
170.158699663
169.720868617
169.265836453
168.792843443
168.301121478
167.789892764
167.258365564
166.705736292
166.131190552
165.533903477
164.91304003
164.267755597
163.597196653
162.900501371
162.176800067
161.425215453
160.644862761
159.834849712
158.994276259
158.122234069
157.21780582
156.280064483
155.308072557
154.30088098
153.25752738
152.177033393
151.05840091
149.900607218
148.702598954
147.463284495
146.181524234
144.856118303
143.485791328
142.069173498
140.604777108
139.090966789
137.52591988
135.907573862
134.233560103
132.501137865
130.70709227
128.847586271
126.917981097
124.912592163
122.824345558
120.644276443
118.360865298
115.958973479
113.418213283
110.71009342
107.793765203
104.61097817
101.058329303
96.9359558725
179.068303686
178.414137127
177.861829007
177.424299254
177.052836742
176.730987455
176.442225473
176.172381054
175.912300752
175.656122102
175.39988344
175.140835394
174.87701663
174.606974317
174.329585775
174.043941957
173.749268279
173.444886238
173.130109905
172.804319746
172.466883667
172.117159736
171.754493848
171.378217162
170.987643481
170.582069322
170.160776464
169.723033333
169.268095798
168.795207929
168.303597289
167.79247658
167.261056382
166.708534527
166.134097508
165.536921088
164.916170699
164.271002199
163.600562602
162.903990719
162.180417599
161.428966833
160.64875473
159.838890317
158.998475083
158.126602479
157.222357344
156.284815353
155.313042532
154.306094222
153.263013435
152.182828332
151.064548719
149.907161573
148.709625444
147.470863296
146.189753341
144.86511749
143.495707062
142.080185116
140.617104422
139.104878325
137.54174337
135.925726399
134.254595235
132.525756943
130.736168241
128.882228731
126.959621827
124.963105317
122.886223269
120.720904655
118.457045462
116.081686813
113.578045003
110.924134598
108.091710202
105.048630388
101.758383277
98.1966832878
178.518474853
178.15512948
177.755259745
177.386311938
177.048783684
176.740838935
176.455708058
176.185291231
175.923215457
175.664789786
175.406524754
175.145821777
174.880728414
174.609745469
174.331687795
174.045584721
173.750606219
173.446027651
173.131156328
172.805321778
172.467876499
172.118168039
171.755533614
171.379297171
170.988767613
170.583239018
170.161991477
169.724291697
169.269393522
168.796539084
168.304961122
167.793883508
167.262514198
166.710049411
166.135673791
165.538562487
164.917880858
164.272785095
163.602422886
162.90593395
162.182450455
161.43109738
160.650992713
159.841247468
159.000965465
158.12924296
157.225168309
156.287821496
155.316273862
154.309587277
153.26681273
152.186988031
151.06913471
149.91225408
148.715322219
147.47728352
146.197042501
144.873453781
143.505310007
142.091326313
140.630120469
139.120192465
137.559889549
135.947351377
134.280471809
132.556850773
130.773712001
128.927801841
127.015264657
125.031486802
122.970904674
120.826772753
118.590835762
116.253009646
113.801133889
111.220987318
108.497616927
105.621023859
102.594617153
99.4551721419
178.18436835
177.952604012
177.651209514
177.340252076
177.035459089
176.743531579
176.464711812
176.195790795
175.933050132
175.673145327
175.413251234
175.151066485
174.884745626
174.612804808
174.334033821
174.047422354
173.752098968
173.447287977
173.13227055
172.806359458
172.468885221
172.119180162
171.756570822
171.380373821
170.989893712
170.584422175
170.163238
169.72560752
169.270785386
168.798014451
168.306525257
167.795535749
167.264250732
166.711867302
166.13757239
165.540543299
164.919947037
164.274941088
163.604674453
162.908288216
162.18491606
161.433684773
160.653714492
159.844118746
159.004004315
158.132470998
157.228611394
156.291511008
155.320248433
154.313894137
153.271509484
152.192144876
151.074837199
149.918606531
148.722451888
147.485345695
146.206226779
144.883991598
143.517482616
142.105472192
140.646656916
139.13963233
137.582855121
135.974635014
134.313079156
132.596045046
130.821083782
128.98537139
127.08562546
125.118007492
123.078014026
120.960369156
118.75894602
116.466795028
114.076447991
111.58082725
108.975647778
106.265283654
103.47116944
100.644102585
177.980925909
177.805038927
177.563847743
177.296524528
177.019357869
176.742776314
176.471190302
176.204832739
175.942224351
175.681338569
175.420082574
175.156530039
174.889004593
174.616080089
174.336547402
174.049371239
173.753646765
173.448562809
173.133366878
172.807351146
172.469823788
172.120100917
171.75749768
171.38132258
170.990874549
170.585441506
170.164299846
169.726714244
169.271937364
168.799210375
168.307763197
167.796814942
167.26557479
166.713241706
166.139004607
165.542040665
164.921515613
164.276587286
163.606405403
162.91011239
162.186843724
161.435728428
160.65588924
159.846442737
159.006499338
158.135163376
157.231533323
156.294701698
155.323754982
154.317773826
153.275831938
152.196994638
151.080316958
149.924841071
148.729592861
147.493577448
146.215773644
144.895127549
143.530546346
142.120891358
140.664952858
139.161426058
137.608926115
136.005940199
134.350800759
132.641657382
130.876438722
129.052810461
127.168131787
125.21941553
123.203303235
121.116079312
118.95377231
116.712433491
114.388770902
111.981433451
109.493515248
106.937271458
104.339894036
101.748851328
177.85776644
177.702148997
177.495827722
177.259244969
177.003763617
176.740509271
176.47596186
176.212553965
175.950531718
175.68902538
175.42664809
175.161868494
174.893208898
174.619326508
174.339031963
174.051277437
173.75513179
173.449753569
173.134364038
172.808228045
172.470633087
172.12087969
171.758271262
171.382107825
170.991682444
170.586279185
170.165172022
169.727624276
169.272888305
168.800205514
168.308806663
167.797912113
167.266730954
166.714461428
166.140290078
165.543392201
164.922936274
164.278082855
163.607983734
162.911783178
162.188618867
161.437622231
160.657918897
159.848628887
159.008866798
158.13774206
157.234359312
156.297819081
155.32721766
154.321647097
153.280195314
152.201944993
151.085972285
149.931345073
148.737120585
147.502342257
146.226035832
144.90720437
143.544821275
142.137825247
140.68511298
139.185526826
137.637839792
136.040740179
134.392816034
132.692537946
130.938241632
129.128113856
127.260186338
125.332347096
123.342385825
121.288102549
119.167529885
116.979355102
114.723682855
112.403336097
110.025981961
107.607430782
105.17488742
102.768150391
177.783651567
177.63360446
177.446801222
177.230644959
176.990900331
176.738071141
176.479466645
176.218796013
175.957507841
175.69563546
175.432387651
175.166588998
174.896953597
174.62222747
174.341249997
174.05296973
173.756436621
173.450784672
173.135210913
172.808957778
172.471294718
172.121507826
171.758889552
171.382732056
170.992323017
170.586942996
170.165863811
169.728347565
169.27364607
168.801000535
168.30964147
167.798788666
167.26765093
166.715426024
166.141301961
165.544458664
164.92406552
164.279282066
163.609261349
162.913149685
162.190087099
161.439207803
160.659640639
159.850509431
159.01093338
158.140027593
157.236903729
156.300670757
155.330435586
154.325303635
153.284378323
152.20676112
151.091551038
149.937843722
148.744730119
147.511294731
146.236613588
144.919752038
143.559761954
142.155676941
140.70650732
139.211233942
137.668800732
136.078111403
134.438022104
132.747338066
131.004815063
129.209169683
127.359104775
125.453361777
123.490818362
121.470659919
119.392669769
117.257705107
115.068451782
112.830559503
110.554246773
108.256394695
105.962044633
103.703625343
177.741349547
177.591842368
177.415353845
177.211535585
176.981932549
176.736185099
176.481829402
176.223233731
175.962584026
175.700520916
175.436678668
175.170148618
174.899795299
174.624438476
174.342944663
174.054263432
173.757432755
173.451569316
173.135852151
172.809506748
172.471789572
172.121975409
171.759348199
171.383194048
170.992796516
170.587433507
170.16637523
169.728882866
169.274207732
168.801590829
168.310262669
167.799443208
167.268341825
166.716157582
166.142079568
165.545286047
164.9249473
164.28022572
163.610276239
162.91424719
162.191280995
161.440514737
160.661080666
159.852106706
159.012717072
158.142033046
157.239173916
156.303257973
155.333403367
154.32872888
153.288354516
152.211401917
151.096994559
149.944257767
148.752318556
147.520305384
146.247347937
144.932576823
143.575122755
142.174114543
140.728683294
139.237960266
137.701065013
136.11712218
134.48526016
132.804619657
131.074371795
129.293748566
127.462092915
125.5789409
123.644153427
121.658121938
119.622083878
117.53859266
115.412192661
113.250329892
111.064476258
108.871353394
106.69337456
104.557101273
177.722059688
177.572109717
177.400058918
177.202025431
176.977373661
176.735195848
176.483047647
176.225567174
175.965285851
175.703147042
175.439005464
175.172094839
174.90136222
174.62566912
174.343898384
174.05500133
173.758010217
173.452032853
173.136238977
172.809844436
172.472099123
172.122271533
171.75964095
171.383490237
170.9931008
170.587749214
170.166704923
169.729228721
169.274571783
168.801975159
168.310669603
167.79987544
167.268802487
166.716650096
166.142607495
165.545854603
164.925562925
164.280896166
163.611011007
162.915057929
162.1921819
161.441523001
160.662217032
159.85339619
159.014189894
158.143725812
157.24113107
156.305533536
155.336063051
154.331852604
153.292039394
152.215765859
151.102180661
149.950439651
148.759706897
147.52915598
146.257971683
144.945351904
143.590509696
142.192674809
140.751092705
139.265043161
137.733836388
136.156806496
134.533347366
132.862926119
131.145111117
129.379618249
127.566380489
125.705647485
123.798134618
121.845240436
119.849358272
117.814307702
115.74590583
113.652666488
111.546555164
109.443651843
107.364017126
105.329935717
177.722062916
177.572126438
177.400086617
177.202062342
176.977418926
176.735248507
176.483106716
176.225631748
175.965355158
175.703220432
175.439082422
175.172175016
174.901445458
174.625755432
174.343987865
174.055094158
173.758106629
173.452133121
173.136343417
172.809953329
172.472212653
172.122389811
171.7597641
171.383618504
170.993234646
170.587889365
170.166852371
169.729384673
169.274737706
168.80215289
168.310861335
167.800083695
167.269030108
166.716900384
166.142884522
165.546163444
164.925909834
164.281288892
163.611459151
162.915573268
162.192778778
161.442218785
160.663032685
159.854357002
159.015326432
158.145075141
157.24273823
156.307453286
155.338361966
154.334611571
153.29535663
152.21976055
151.106997362
149.956253651
148.766730806
147.537647851
146.268244845
144.957786687
143.605567468
142.210915793
140.773199713
139.291831675
137.766290621
136.19613833
134.581022686
132.920717863
131.215166637
129.464541271
127.669303198
125.830311756
123.948994574
122.027555854
120.069263235
118.078825827
116.062865137
114.030448897
111.99360474
109.967676719
107.970941467
106.0228444
177.741359271
177.591892895
177.415437533
177.211647058
176.982069195
176.736343909
176.482007323
176.223428062
175.962792458
175.700741506
175.436909893
175.170389457
174.900045277
174.6246976
174.343213264
174.054542052
173.757722112
173.451870196
173.136165459
172.809833289
172.472129909
172.122329894
171.759717213
171.383578328
170.99319742
170.587853155
170.166816502
169.729349385
169.274703942
168.80212215
168.310835587
167.800065294
167.269021789
166.716905372
166.142906738
165.546207768
164.925982375
164.281397281
163.611612832
162.915783835
162.193060354
161.442588484
160.663511158
159.854969166
159.016102434
158.146051567
157.243959555
156.30897359
155.340246977
154.33694112
153.298227602
152.223290428
151.111328541
149.961558684
148.773218877
147.545572667
146.277914124
144.969573546
143.619924046
142.228389541
140.794454968
139.317679103
137.797705862
136.234286531
134.627311148
132.976838924
131.283142622
129.546764603
127.76861771
125.950096787
124.093211148
122.200787484
120.27672955
118.326343171
116.356724674
114.377181426
112.399611893
110.43873599
108.511653269
106.636192939
177.783667957
177.633689893
177.446942533
177.230832844
176.991130248
176.738337924
176.479765072
176.219121524
175.957856562
175.696004166
175.432773852
175.166991053
174.897370751
174.62265975
174.341697977
174.053434329
173.756919051
173.451286165
173.135732823
172.809501354
172.471860935
172.122097337
171.75950305
171.383370796
170.992989241
170.58764015
170.166596598
169.72912196
169.274469411
168.801881666
168.310590835
167.79981836
167.268775155
166.71666204
166.142670428
165.545983144
164.925775273
164.281214986
163.611464383
162.915680347
162.193015381
161.442618439
160.663635856
159.855212537
159.01649347
158.14662548
157.244759164
156.310050966
155.341665402
154.338777416
153.300574931
152.226261695
151.115060507
149.96621701
148.779004303
147.552728482
146.286735067
144.980416387
143.633220175
142.244659767
140.81432651
139.341905547
137.827195749
136.270134047
134.67082543
133.02958341
131.34698094
129.62391309
127.861677495
126.062083013
124.227587547
122.361474357
120.468073944
118.553036798
116.623656097
114.689220894
112.761357417
110.854295663
108.98455133
107.169475296
177.857789864
177.702271469
177.496029704
177.259512652
177.004090249
176.740887309
176.476383781
176.213013266
175.951022935
175.689544045
175.42719081
175.162433069
174.893794337
174.619932864
174.339660006
174.051928374
173.755807261
173.450455166
173.135093746
172.808987491
172.471423535
172.121702106
171.759126696
171.382998063
170.992610553
170.587249829
170.166191605
169.728701057
169.27403259
168.801429748
168.310125184
167.799340718
167.268287626
166.716167254
166.142171768
165.545484962
164.925283078
164.28073557
163.611006138
162.915253637
162.19263289
161.442295474
160.66339085
159.85506781
159.016476124
158.14676848
157.245102619
156.310643661
155.342566604
154.34005903
153.302324114
152.228584035
151.118083853
149.970096181
148.783926825
147.558921435
146.294473244
144.990031978
143.645114284
142.259316143
140.832327827
139.363952148
137.854126832
136.302952469
134.710726844
133.077987133
131.405561636
129.694633362
127.946818977
126.164266445
124.349776127
122.506950302
120.640375902
118.755845818
116.860624941
114.963762888
113.076460527
111.21250768
109.388273073
107.621631662
177.980957063
177.805202154
177.564115575
177.296877756
177.019787065
176.743271275
176.471741063
176.205430804
175.942862688
175.682011518
175.420785934
175.157261137
174.889762254
174.616864388
174.337359183
174.050211695
173.754517671
173.449465775
173.134306002
172.808328008
172.47083954
172.121156648
171.758594706
171.382463097
170.992062212
170.586681847
170.165600509
169.728085268
169.273391799
168.800764493
168.309436571
167.79863024
167.267557017
166.715418595
166.141407807
165.544709391
164.924500686
164.279952578
163.610230287
162.914494347
162.191901533
161.441605899
160.662759847
159.854515655
159.01602741
158.146453132
157.24495707
156.310712221
155.342903064
154.34072861
153.303405831
152.230173544
151.120296919
149.973072938
148.787836972
147.563970454
146.300909653
144.998155848
143.65528733
142.271973624
140.847992484
139.383250473
137.877807935
136.331909336
134.746019747
133.120868372
131.457500214
129.75733746
128.022253119
126.254658055
124.457603536
122.634901438
120.791264657
118.932473335
117.0655799
115.199177875
113.343808781
111.512659943
109.722037306
107.991010019
178.184407945
177.952812873
177.651549653
177.340697766
177.035997582
176.744149617
176.465396859
176.196532394
175.933839766
175.67397628
175.414118633
175.151967337
174.885678751
174.613770537
174.335033392
174.048457422
173.753172478
173.448400655
173.133425558
172.807559602
172.470132186
172.120475215
171.757915484
171.381770568
170.991346553
170.585937114
170.164823358
169.727274039
169.272545922
168.799884135
168.308522493
167.797683757
167.2665801
166.714413823
166.140378044
165.543657779
164.923430656
164.278868921
163.60913923
162.913403772
162.190821164
161.440547376
160.661737404
159.853546821
159.015133631
158.145660571
157.244297579
156.310224484
155.342634048
154.340735345
153.303757451
152.230953788
151.121607221
149.975036205
148.790601951
147.567716179
146.305852179
145.004555863
143.663458818
142.28229396
140.860914228
139.399315006
137.897661042
136.356318582
134.775893217
133.157273976
131.501684345
129.810740816
128.086520208
126.331635268
124.549318683
122.743514116
120.918972834
119.081358532
117.237373921
115.394943473
113.563596507
111.755423065
109.986026081
108.275334594
178.518522865
178.155387626
177.755674651
177.386850374
177.049428884
176.741574142
176.456518122
176.186163835
175.924140744
175.665760131
175.407534753
175.146868257
174.881810403
174.610864096
174.332845963
174.046787464
173.751862381
173.447326803
173.132497392
172.806713083
172.469322608
172.119672106
171.757098627
171.380926897
170.990467879
170.585018596
170.163862436
169.726269428
169.271496981
168.798790481
168.307383666
167.796499313
167.265350069
166.713139159
166.139061074
165.542301602
164.92203987
164.277448222
163.607694188
162.911941168
162.189349263
161.439076428
160.660279619
159.852116773
159.013749088
158.144343254
157.243074014
156.309127077
155.341702094
154.340016254
153.303308443
152.230844022
151.121920295
149.975873154
148.792085022
147.569994583
146.309106215
145.009002485
143.669358722
142.289959831
140.870720264
139.411707854
137.913172177
136.375577966
134.799643857
133.186386784
131.537172237
129.853769911
128.138414986
126.393873788
124.623511799
122.831358676
121.022163256
119.20143395
117.375464842
115.551352149
113.737187768
111.943055757
110.181935968
108.471805572
179.068364736
178.414458585
177.862328566
177.424935606
177.053589371
176.731836258
176.443152992
176.173373403
175.913346938
175.657213638
175.401014216
175.142001541
174.878216359
174.608207731
174.330854755
174.045251089
173.750624862
173.446265885
173.131535039
172.805794889
172.468411876
172.118744893
171.756139699
171.379926758
170.989420774
170.583921285
170.162713405
169.725068592
169.270245168
168.797489012
168.306034196
167.795103164
167.263906853
166.711649073
166.137523828
165.540717931
164.920411161
164.275777183
163.605984605
162.910197848
162.187578081
161.437284428
160.658475612
159.850311844
159.011956926
158.142580606
157.241361231
156.30748866
155.340167847
154.338622653
153.302099971
152.22987458
151.121255152
149.975591232
148.792281274
147.57078301
146.310624467
145.011416506
143.672868016
142.294803672
140.877184954
139.42013513
137.923968715
136.389225803
134.816711362
133.207539515
131.563182685
129.885524042
128.176916393
126.440240938
124.678963835
122.897182588
121.099650301
119.29176419
117.47948051
115.669066109
113.866912544
112.080069479
110.315084484
108.578606878
180.06367102
178.705891082
177.915235585
177.415562594
177.024998537
176.701632117
176.417701784
176.153718023
175.898805073
175.646731409
175.393588875
175.136798
174.874579517
174.605641955
174.328995936
174.043834267
173.749435163
173.445211298
173.130533626
172.804795486
172.467384564
172.117672899
171.75501416
171.378743299
170.988177364
170.582616408
170.161342769
169.723628311
169.268733218
168.795903669
168.304373886
167.793367458
167.262098754
166.709769914
166.135575335
165.538701716
164.918328914
164.27363094
163.603776897
162.907931803
162.185257562
161.43491426
160.656061817
159.847861884
159.009480016
158.14008811
157.238867138
156.305010215
155.337726014
154.336242626
153.299812078
152.227715474
151.119269218
149.97383242
148.790815703
147.569690448
146.310000406
145.011375588
143.673547678
142.29636834
140.879830939
139.424096212
137.9295223
136.396699485
134.826489872
133.220071743
131.578987379
129.905191593
128.201124149
126.469752321
124.714621961
122.939900374
121.150394239
119.351526924
117.54917909
115.7491899
113.956980891
112.177060151
110.404215925
108.603984036
181.856815106
178.928771813
177.81541109
177.2886377
176.921986697
176.628008481
176.367252928
176.11962142
175.875933457
175.631515693
175.383577313
175.130295071
174.870402096
174.602962461
174.327237042
174.042603428
173.748531337
173.444438497
173.129779513
172.803998547
172.466511292
172.11670669
171.753948582
171.37757758
170.986913419
170.581257901
170.159900251
169.722110296
169.26714293
168.794242932
168.302643801
167.791568068
167.260228198
166.707827413
166.133560436
165.536614276
164.91616916
164.271399453
163.601474565
162.905559808
162.182817454
161.432408112
160.653492376
159.845232724
159.006795689
158.137354303
157.236090856
156.302200018
155.334892376
154.333398349
153.296972706
152.224899871
151.116500228
149.971137571
148.788227799
147.567249154
146.307753852
145.009381674
143.67187582
142.295101657
140.87906889
139.423957664
137.930149066
136.398260335
134.829184827
133.224136626
131.584701689
129.912898863
128.211209003
126.482650219
124.730834396
122.960008489
121.175079572
119.381605144
117.585771141
115.794335509
114.014143948
112.251194601
110.488023106
108.590303642
88.4503793083
84.9267217839
82.5571263189
80.6255921932
78.9751972377
77.5318027166
76.2510068771
75.1045803674
74.0730138416
73.1415785827
72.2984012466
71.533500884
70.8382945955
70.2053204118
69.628055872
69.1007814517
68.6184688335
68.176686284
67.7715178216
67.3994941253
67.0575334825
66.7428919359
66.4531208235
66.1860302576
65.9396569711
65.7122356789
65.502174683
65.3080358603
65.1285175182
64.9624393332
64.808729236
64.6664116038
64.5345964839
64.41246969
64.2992841853
64.1943536883
64.0970478805
64.0067874074
63.9230384327
63.8453099585
63.7731609548
63.7062279297
63.6441383873
63.5864916696
63.5329213026
63.4831197979
63.4368093836
63.3937433314
63.3536575812
63.3163163146
63.2815087992
63.2490529058
63.2187612866
63.1904479712
63.1639538477
63.1391338596
63.115853457
63.09398691
63.0734165837
63.0540335285
63.0357383845
63.0184405428
63.0020559617
62.9865054498
62.9717147436
62.9576156885
62.9441464175
62.931250108
62.9188731489
62.9069648395
62.8954793849
62.884376868
62.8736215129
62.8631794138
62.853018013
62.8431080392
62.8334246195
62.8239452332
62.8146475908
62.8055099962
62.7965128603
62.7876396478
62.7788757411
62.7702061084
62.7616162957
62.7530941842
62.7446294147
62.7362115432
62.7278300046
62.7194753032
62.7111394251
62.7028156542
62.6944960703
62.6861740136
62.6778441996
62.6695015861
62.6611417105
62.6527592894
62.644350803
62.6359135422
62.6274446324
62.6189419649
62.6104036091
62.6018290578
62.5932192137
62.584575552
62.5759006481
62.5671980551
62.5584725015
62.5497307763
62.5409830866
62.5322410006
62.523518656
62.5148330462
62.5062032294
62.4976537279
62.4892145078
62.4809188963
62.4728057871
62.4649201792
62.4573143312
62.4500493495
62.4431944047
62.4368277583
62.4310391872
62.4259300262
62.421616396
62.4182256355
62.4159003052
62.4147999076
62.4150951844
62.4169675674
62.420599351
62.4261577368
62.4337660441
62.4434560793
62.4550752818
62.4681226945
62.4814760809
62.49290365
62.4982375007
62.4900500885
62.4553430914
62.371840435
62.2022835902
61.8866373261
61.3340978931
60.4211532005
59.0060492992
56.9637238916
54.2249106751
50.7898034746
46.7013893539
42.0008599164
36.723129763
30.9406608713
24.6853801041
17.7019468841
9.83507290719
2.60976184421
91.6539472346
87.6133515789
84.9236403849
82.7967647901
81.015370042
79.4776495689
78.1251423538
76.9222150181
75.8449102623
74.8756110457
74.0004797074
73.2081534137
72.4890548052
71.8349951026
71.2389136045
70.6946875349
70.1969831042
69.7411345836
69.3230448456
68.9391026562
68.5861130193
68.2612402806
67.9619607841
67.6860219574
67.4314074549
67.1963066466
66.9790886137
66.7782807091
66.592550335
66.4206895016
66.2616008698
66.1142857312
65.9778332586
65.8514093599
65.7342484866
65.6256469353
65.5249582677
65.4315884873
65.3449898395
65.2646550732
65.1901086096
65.1209015555
65.0566071922
64.9968864391
64.9414369143
64.8899182098
64.8420149368
64.79743224
64.7559334453
64.7172859124
64.681268205
64.6476724472
64.6163120084
64.5870141222
64.559615962
64.5339659317
64.509923204
64.4873566544
64.4661439416
64.4461714465
64.427336096
64.4095434267
64.3927056191
64.3767407186
64.3615713987
64.3471271223
64.33334312
64.3201600665
64.3075224669
64.2953774936
64.2836783497
64.2723824315
64.2614533916
64.2508548639
64.2405520212
64.2305167941
64.2207204911
64.2111408841
64.2017558096
64.192539562
64.1834748651
64.1745431778
64.1657274291
64.1570158319
64.1483889842
64.1398373843
64.1313494203
64.1229132167
64.1145211896
64.1061587752
64.0978235846
64.0895020367
64.0811922286
64.0728842096
64.0645711653
64.0562522875
64.0479177664
64.0395687576
64.0311956349
64.0228015728
64.0143789286
64.0059279127
63.9974485685
63.9889365924
63.9803973587
63.9718317699
63.9632411217
63.9546331615
63.9460107205
63.9373841408
63.9287639098
63.9201629824
63.911599339
63.9030905225
63.8946629411
63.8863405299
63.8781618264
63.8701660328
63.8623961842
63.8549106774
63.8477714414
63.8410530056
63.8348393884
63.8292317324
63.8243396491
63.8202952444
63.817247715
63.8153623869
63.8148295067
63.8158616998
63.8186958794
63.823580636
63.8307760752
63.8405397449
63.8530816921
63.8685203896
63.8867835984
63.9074195363
63.9293248647
63.9502078457
63.9657116755
63.9681288698
63.944031592
63.870624441
63.7101286711
63.4020368655
62.8548901837
61.943459415
60.5219517112
58.4591122657
55.6798132403
52.1815697862
48.0087841213
43.2062006702
37.8065991867
31.874482992
25.4580774824
18.3518077212
10.3701997555
2.83672482095
93.8789647847
89.9511941398
87.1049955143
84.8448334488
82.9615442587
81.3455333652
79.9316623212
78.6795851088
77.5620933348
76.5592972154
75.6557420902
74.8388977218
74.098335168
73.4252390823
72.8120840673
72.2523996395
71.7405893752
71.2717874115
70.8417423094
70.4467225783
70.0834383573
69.7489775369
69.4407536626
69.1564617684
68.8940409462
68.6516423871
68.4276020394
68.2204175417
68.0287289132
67.851302607
67.6870174695
67.5348523137
67.3938750208
67.2632313027
67.142136548
67.0298691324
66.9257653642
66.8292148448
66.7396550191
66.6565678276
66.5794763507
66.507936402
66.4415007823
66.379784898
66.3224234833
66.2691088292
66.2195466977
66.1734744227
66.1306196239
66.0907300563
66.053575404
66.0189434405
65.9866371655
65.9564732202
65.9282816527
65.901905242
65.8771980125
65.8540238803
65.8322562331
65.8117775689
65.7924807515
65.7742673321
65.7570458367
65.7407313482
65.7252439553
65.7105106458
65.6964640033
65.6830418887
65.6701869211
65.6578449601
65.6459684067
65.6345128921
65.6234392463
65.6127099906
65.6022891396
65.5921481139
65.5822580368
65.5725944285
65.5631343766
65.5538520491
65.5447295101
65.5357485865
65.526890491
65.5181421624
65.5094843278
65.5009073646
65.4924005683
65.4839507848
65.4755505756
65.4671849216
65.4588511664
65.4505370715
65.4422389631
65.4339473838
65.425654406
65.4173589922
65.4090525992
65.4007368331
65.3924020451
65.3840505825
65.3756752135
65.3672757529
65.3588538899
65.3504056583
65.3419354922
65.3334450141
65.3249355186
65.3164168735
65.3078941828
65.2993764245
65.2908752009
65.2824049551
65.2739861595
65.2656393153
65.2573933181
65.2492753773
65.2413276947
65.2335940019
65.226124479
65.2189863598
65.2122489846
65.2059967254
65.2003279013
65.1953596646
65.1912206546
65.1880636332
65.1860640929
65.1854179096
65.1863507215
65.1891146578
65.1939898453
65.2012718267
65.2112710214
65.2242946487
65.2405963805
65.2603210902
65.2834000418
65.3093429271
65.3369509865
65.3637544372
65.3850256059
65.3926071416
65.372470011
65.3011641522
65.1403701809
64.8293989517
64.2770275804
63.3580083362
61.9247427746
59.8413723123
57.0267350829
53.4742313882
49.2278581158
44.335061327
38.8271684111
32.7596895147
26.1924679194
18.9691318525
10.8818719888
3.05527541416
95.6943364721
91.9776013618
89.092869505
86.7590125299
84.8051859754
83.1291694656
81.6658331481
80.3729931605
79.2215690803
78.1901290132
77.2620211571
76.4238088323
75.6643845206
74.974426822
74.3460326031
73.7724483769