/*--------------------------------*- C++ -*----------------------------------*\
| =========                 |                                                 |
| \\      /  F ield         | OpenFOAM: The Open Source CFD Toolbox           |
|  \\    /   O peration     | Version:  2106                                  |
|   \\  /    A nd           | Website:  www.openfoam.com                      |
|    \\/     M anipulation  |                                                 |
\*---------------------------------------------------------------------------*/
FoamFile
{
    version     2.0;
    format      ascii;
    arch        "LSB;label=32;scalar=64";
    class       surfaceScalarField;
    location    "0.04";
    object      phi;
}
// * * * * * * * * * * * * * * * * * * * * * * * * * * * * * * * * * * * * * //

dimensions      [0 3 -1 0 0 0 0];

oriented        oriented;

internalField   nonuniform List<scalar> 
22100
(
3.38456571009e-05
1.61543429058e-05
2.24564879031e-05
1.13891680297e-05
1.6258412402e-05
6.19807454262e-06
1.27997165481e-05
3.45869498904e-06
1.08108850037e-05
1.9888307899e-06
9.61804462729e-06
1.19283973912e-06
8.87537289194e-06
7.42671272028e-07
8.40247773835e-06
4.72894902901e-07
8.09965044857e-06
3.02827272443e-07
7.90768217781e-06
1.91968502695e-07
7.78903042058e-06
1.18652242135e-07
7.71875329954e-06
7.02778229621e-08
7.67986434223e-06
3.88898036077e-08
7.66072600486e-06
1.91392010513e-08
7.65339537705e-06
7.33137496051e-09
7.65223045158e-06
1.16543229496e-09
7.65473643941e-06
-2.50580412358e-09
7.65851608536e-06
-3.77982409762e-09
7.66235524346e-06
-3.83967505129e-09
7.66573643304e-06
-3.38196306946e-09
7.66847392605e-06
-2.73839175765e-09
7.67055964631e-06
-2.08656147231e-09
7.67201981335e-06
-1.46076872954e-09
7.67306036007e-06
-1.04072735987e-09
7.67378343444e-06
-7.22717602182e-10
7.67426418865e-06
-4.79854911055e-10
7.67457356816e-06
-3.08051559299e-10
7.67476642224e-06
-1.91333133321e-10
7.67488249522e-06
-1.14647399025e-10
7.67494941994e-06
-6.5851003731e-11
7.67498452236e-06
-3.45723191135e-11
7.67499733303e-06
-1.2913822517e-11
7.67499759749e-06
-9.50778202424e-13
7.67499193077e-06
4.5759758299e-12
7.67498379958e-06
6.90163002633e-12
7.67497519185e-06
7.53881731711e-12
7.67496698166e-06
7.55658078705e-12
7.67495922209e-06
7.6458754192e-12
7.67495146057e-06
8.13642078949e-12
7.67494306294e-06
9.05563819015e-12
7.67493348872e-06
1.02372574846e-11
7.67492244845e-06
1.1450695583e-11
7.67490994069e-06
1.24800210957e-11
7.67489618009e-06
1.31995741472e-11
7.67488144648e-06
1.36673144333e-11
7.6748659083e-06
1.41564192635e-11
7.67484944307e-06
1.50847440094e-11
7.67483149902e-06
1.6864775589e-11
7.67481113258e-06
1.97148543699e-11
7.67478712912e-06
2.36932940045e-11
7.67475827265e-06
2.86739743804e-11
7.67472355124e-06
3.44510782083e-11
7.67468219176e-06
4.08826751822e-11
7.67463356115e-06
4.79338444583e-11
7.67457701383e-06
5.56371786158e-11
7.67451180951e-06
6.40708102264e-11
7.67443720905e-06
7.3304712578e-11
7.67435276538e-06
8.31863304629e-11
7.67425877953e-06
9.30379655946e-11
7.67415692618e-06
1.01389827636e-10
7.6740532053e-06
1.03673259644e-10
7.67396069264e-06
9.26028235167e-11
7.67389399791e-06
6.6656081087e-11
7.67387399951e-06
1.97506722219e-11
7.67394513577e-06
-7.15085266304e-11
7.67418151142e-06
-2.36729732342e-10
7.67470379706e-06
-5.22477391357e-10
7.67570391798e-06
-1.0000896715e-09
7.67747955568e-06
-1.77547185317e-09
7.6804584292e-06
-2.978668257e-09
7.68525109711e-06
-4.79247093958e-09
7.69361047339e-06
-8.35927299554e-09
7.70734325744e-06
-1.37327799147e-08
7.73035537167e-06
-2.30121202027e-08
7.77166128688e-06
-4.1305841352e-08
7.85552185741e-06
-8.38603012496e-08
8.05135713482e-06
-1.95834706135e-07
8.57882712578e-06
-5.27469078887e-07
1.02712105946e-05
-1.69238234028e-06
-6.38518723215e-06
1.66563989544e-05
5.02174635639e-05
1.59368781674e-05
4.42449752811e-05
1.73616544746e-05
3.77839704578e-05
1.26590778647e-05
3.26583940708e-05
8.58427005067e-06
2.89639127989e-05
5.68331101374e-06
2.64061955575e-05
3.75055623606e-06
2.46628600171e-05
2.48600643771e-06
2.34855879875e-05
1.65016696064e-06
2.26994222419e-05
1.08899347695e-06
2.21830374369e-05
7.08354186919e-07
2.18519206381e-05
4.49770276546e-07
2.16466954863e-05
2.75504426526e-07
2.15254530969e-05
1.60133657627e-07
2.14587139469e-05
8.587959829e-08
2.14260333281e-05
4.00128168892e-08
2.14139456872e-05
1.32533401846e-08
2.14127373446e-05
-1.29780751566e-09
2.14166772694e-05
-7.7206481745e-09
2.14226278826e-05
-9.79159076571e-09
2.14287230677e-05
-9.47861211157e-09
2.14340874222e-05
-8.10407116245e-09
2.14384238735e-05
-6.42390337775e-09
2.14417913927e-05
-4.82846849738e-09
2.14442352886e-05
-3.48393004477e-09
2.14459416286e-05
-2.42750030075e-09
2.14471049827e-05
-1.64098884282e-09
2.14478810125e-05
-1.08158559628e-09
2.1448391864e-05
-6.99877158847e-10
2.14487317758e-05
-4.52851897094e-10
2.14489405823e-05
-2.73848627799e-10
2.14490539696e-05
-1.48173824244e-10
2.14491110111e-05
-7.10932136557e-11
2.14491359411e-05
-2.76426543253e-11
2.14491435503e-05
-4.98859264233e-12
2.14491416548e-05
7.11757397662e-12
2.14491349267e-05
1.32484202202e-11
2.14491259363e-05
1.63658383725e-11
2.14491158744e-05
1.82699214156e-11
2.14491050412e-05
1.99481461053e-11
2.14490932276e-05
2.18260024313e-11
2.14490800279e-05
2.39635502622e-11
2.14490650425e-05
2.62424217173e-11
2.14490479778e-05
2.84986317722e-11
2.144902868e-05
3.0668646515e-11
2.14490071256e-05
3.29210611594e-11
2.14489833361e-05
3.56585796337e-11
2.14489571803e-05
3.94144149627e-11
2.14489281859e-05
4.46827151714e-11
2.14488956225e-05
5.16231083625e-11
2.14488585703e-05
6.0286930813e-11
2.14488161381e-05
7.05062637144e-11
2.14487676518e-05
8.19959148148e-11
2.14487127537e-05
9.44621865491e-11
2.14486514386e-05
1.07571914602e-10
2.14485841763e-05
1.20889080155e-10
2.14485122478e-05
1.33798266229e-10
2.1448438297e-05
1.45189047761e-10
2.14483672614e-05
1.52671531279e-10
2.14483080192e-05
1.51462086455e-10
2.14482755574e-05
1.33647791033e-10
2.14482979354e-05
8.13111949932e-11
2.14484275107e-05
-3.71211847986e-11
2.14487496262e-05
-2.55906859481e-10
2.14494055697e-05
-6.36818612007e-10
2.14505214503e-05
-1.18795499594e-09
2.14523216006e-05
-2.03715168718e-09
2.14552486843e-05
-3.44946359046e-09
2.14599893169e-05
-5.7404143039e-09
2.14676420802e-05
-9.42786331935e-09
2.148002494e-05
-1.53611497644e-08
2.15002394952e-05
-2.50067632509e-08
2.15332200603e-05
-4.13396976856e-08
2.15877369986e-05
-6.82495588918e-08
2.16798522505e-05
-1.15127087071e-07
2.18409046995e-05
-2.02357705092e-07
2.21345891421e-05
-3.77543671343e-07
2.26927251273e-05
-7.53969173307e-07
2.3777562178e-05
-1.6123043773e-06
2.58166368771e-05
-3.73145532618e-06
-8.5712438434e-06
2.80026950563e-05
5.35175149455e-05
1.24193622619e-05
5.29377487841e-05
1.79414190495e-05
4.96627147716e-05
1.59341106014e-05
4.5860868279e-05
1.23861154101e-05
4.24802632193e-05
9.06391514196e-06
3.9798091701e-05
6.4327270658e-06
3.77951079319e-05
4.48898982546e-06
3.63543304813e-05
3.09094439103e-06
3.5346829807e-05
2.09649452383e-06
3.46604809806e-05
1.39470377829e-06
3.4205924215e-05
9.04328135423e-07
3.39147890783e-05
5.66640860927e-07
3.37360234939e-05
3.38900545426e-07
3.36322886735e-05
1.89615520691e-07
3.35769030733e-05
9.53991269947e-08
3.35512612347e-05
3.88953753891e-08
3.35427778248e-05
7.18526159806e-09
3.35434493546e-05
-8.39300815062e-09
3.35481884809e-05
-1.45318798614e-08
3.35542076217e-05
-1.54990453131e-08
3.35600195927e-05
-1.39172175535e-08
3.35649703303e-05
-1.13754342644e-08
3.35688748344e-05
-8.73314476109e-09
3.35717905477e-05
-6.39903852703e-09
3.357387946e-05
-4.51502908575e-09
3.35753246749e-05
-3.08423479601e-09
3.35762922914e-05
-2.04699201377e-09
3.35769173054e-05
-1.32283531683e-09
3.35773008644e-05
-8.34872636299e-10
3.3577548756e-05
-5.20985409079e-10
3.35777239935e-05
-3.23542816879e-10
3.35778179551e-05
-1.65985261536e-10
3.35778667304e-05
-7.78866148471e-11
3.35778893464e-05
-2.92274761542e-11
3.35778962899e-05
-1.18608099069e-12
3.35778944207e-05
1.43477851039e-11
3.35778877759e-05
2.2961598169e-11
3.3577878566e-05
2.80470357363e-11
3.35778677579e-05
3.16490788534e-11
3.35778555446e-05
3.48887422123e-11
3.3577841716e-05
3.82497594931e-11
3.35778259085e-05
4.18495781563e-11
3.35778077744e-05
4.56510793417e-11
3.35777871098e-05
4.9667503608e-11
3.35777639148e-05
5.41064742907e-11
3.35777383023e-05
5.93756563295e-11
3.35777102213e-05
6.60653788803e-11
3.35776791786e-05
7.48528914072e-11
3.35776447303e-05
8.55922819309e-11
3.35776063472e-05
9.82804685386e-11
3.35775635881e-05
1.12691125251e-10
3.35775163134e-05
1.28385663315e-10
3.35774648265e-05
1.44731738227e-10
3.35774100396e-05
1.60796615743e-10
3.35773538504e-05
1.75208487418e-10
3.35772998312e-05
1.85833033771e-10
3.35772543275e-05
1.88938409104e-10
3.35772281898e-05
1.77628481121e-10
3.35772388776e-05
1.40272655481e-10
3.35773129525e-05
5.95102445422e-11
3.35775023763e-05
-1.08139409562e-10
3.35779027591e-05
-4.37767098371e-10
3.35785770567e-05
-9.30730019246e-10
3.35795917503e-05
-1.6521600119e-09
3.35812693998e-05
-2.86614335843e-09
3.35840640254e-05
-4.83200026869e-09
3.35886011926e-05
-7.9865334938e-09
3.35958969863e-05
-1.303588834e-08
3.36075960482e-05
-2.11264623784e-08
3.36264060097e-05
-3.41706596852e-08
3.36568438219e-05
-5.54442365857e-08
3.37056667144e-05
-9.01623293228e-08
3.37852879423e-05
-1.47870534719e-07
3.39168570794e-05
-2.46695865508e-07
3.41367417595e-05
-4.22241791341e-07
3.45060167167e-05
-7.46817725217e-07
3.51176536835e-05
-1.36560499483e-06
3.60700468947e-05
-2.56469633986e-06
3.72502234611e-05
-4.91163103646e-06
-8.96834755364e-06
3.76473270986e-05
5.35112641915e-05
8.90809721158e-06
5.55778493309e-05
1.58748324334e-05
5.52528773482e-05
1.62590813627e-05
5.36206706144e-05
1.40183210536e-05
5.15847429186e-05
1.10998419338e-05
4.96521096355e-05
8.36535969014e-06
4.80347510804e-05
6.10634802587e-06
4.67765334425e-05
4.34916202678e-06
4.58450468765e-05
3.02798148112e-06
4.51819151503e-05
2.05783629016e-06
4.47263158585e-05
1.35992854458e-06
4.44244681292e-05
8.68489884406e-07
4.42324683124e-05
5.30901644855e-07
4.41162352011e-05
3.05849665339e-07
4.40503333189e-05
1.6130163095e-07
4.40164588439e-05
7.27699608808e-08
4.40017611188e-05
2.1882570168e-08
4.39979746333e-05
-4.60737230348e-09
4.39997396436e-05
-1.62980408315e-08
4.40037728096e-05
-1.95334686887e-08
4.4008296108e-05
-1.8441655773e-08
4.40124328907e-05
-1.55129882775e-08
4.40158417641e-05
-1.21421695522e-08
4.40184710774e-05
-9.02772750841e-09
4.40204053667e-05
-6.44793145235e-09
4.40217771758e-05
-4.45409438585e-09
4.40227207847e-05
-2.98842412198e-09
4.40233522227e-05
-1.95224868614e-09
4.40237620093e-05
-1.24313526688e-09
4.40240096921e-05
-7.67893394995e-10
4.40241378411e-05
-4.51756459136e-10
4.40242022667e-05
-2.31223854396e-10
4.40242359825e-05
-1.12905762595e-10
4.4024255073e-05
-4.9738560113e-11
4.40242622917e-05
-9.55217152958e-12
4.40242623833e-05
1.36727946597e-11
4.40242580721e-05
2.73514360057e-11
4.40242510428e-05
3.57002190917e-11
4.40242420844e-05
4.14979645772e-11
4.40242313017e-05
4.64813103418e-11
4.40242184599e-05
5.14845231359e-11
4.40242032092e-05
5.68189254354e-11
4.40241852289e-05
6.25854343384e-11
4.40241643426e-05
6.89033173497e-11
4.40241405417e-05
7.60350090219e-11
4.40241138564e-05
8.43973627513e-11
4.40240841771e-05
9.45640823183e-11
4.40240515015e-05
1.06847485546e-10
4.4024015478e-05
1.21221112476e-10
4.40239757134e-05
1.3763495866e-10
4.40239320716e-05
1.55691636513e-10
4.4023884808e-05
1.74697112762e-10
4.40238346894e-05
1.93562262816e-10
4.4023783204e-05
2.10655148737e-10
4.40237329286e-05
2.23608100603e-10
4.40236880121e-05
2.28868846585e-10
4.40236546192e-05
2.20803557149e-10
4.40236411194e-05
1.90231745846e-10
4.40236595897e-05
1.21505684496e-10
4.4023732332e-05
-1.32677319015e-11
4.40238821641e-05
-2.581236636e-10
4.40241832487e-05
-7.39284516281e-10
4.40248324061e-05
-1.58054217288e-09
4.40260241166e-05
-2.84454985589e-09
4.40279910544e-05
-4.83353728426e-09
4.40311513849e-05
-7.99243874421e-09
4.40361870012e-05
-1.30219189996e-08
4.40441803897e-05
-2.10287551163e-08
4.40568482863e-05
-3.37937015578e-08
4.40768983318e-05
-5.42200894532e-08
4.41085580162e-05
-8.7103415175e-08
4.41588559641e-05
-1.40459899716e-07
4.42390818483e-05
-2.28096120963e-07
4.43669065806e-05
-3.74520245965e-07
4.45686005437e-05
-6.23935227744e-07
4.48783132407e-05
-1.05652975641e-06
4.53252109319e-05
-1.81250194004e-06
4.58804734141e-05
-3.11995800763e-06
4.62874923379e-05
-5.31864921281e-06
-8.5541604378e-06
4.58733050744e-05
5.27357962935e-05
6.17230011019e-06
5.57340590606e-05
1.28765682205e-05
5.73199602029e-05
1.46731790272e-05
5.76290469855e-05
1.3709233188e-05
5.71665797301e-05
1.15623082917e-05
5.637387234e-05
9.15806642565e-06
5.55315109116e-05
6.94870912144e-06
5.47802080009e-05
5.10046496323e-06
5.41713700348e-05
3.63681987636e-06
5.37086037857e-05
2.52060335805e-06
5.33738905984e-05
1.69464286129e-06
5.31421197754e-05
1.10026199309e-06
5.29883413195e-05
6.8468130977e-07
5.28909034437e-05
4.0328847963e-07
5.2832431491e-05
2.19774078882e-07
5.27997433338e-05
1.05458102129e-07
5.2783287948e-05
3.83374602746e-08
5.27764828901e-05
2.19679435442e-09
5.27750653081e-05
-1.48816061139e-08
5.27762528543e-05
-2.0722254086e-08
5.2778452288e-05
-2.06422172401e-08
5.27808022367e-05
-1.78636815707e-08
5.278289752e-05
-1.42375561241e-08
5.27845933302e-05
-1.07228500117e-08
5.27858818724e-05
-7.73502212404e-09
5.27868164e-05
-5.38662355064e-09
5.27874677053e-05
-3.63752181453e-09
5.27879020967e-05
-2.38459667167e-09
5.27881782098e-05
-1.51770694827e-09
5.27883476381e-05
-9.3651292263e-10
5.27884540181e-05
-5.58132130228e-10
5.27885386581e-05
-3.16560230543e-10
5.27885951095e-05
-1.70495009795e-10
5.27886328128e-05
-8.86623455781e-11
5.27886502091e-05
-2.78880126703e-11
5.27886563379e-05
7.14399368998e-12
5.27886560604e-05
2.78424324658e-11
5.27886519723e-05
4.04869444581e-11
5.27886452489e-05
4.91276739717e-11
5.27886362905e-05
5.62114463485e-11
5.27886250145e-05
6.30675895505e-11
5.27886111702e-05
7.02732644141e-11
5.278859454e-05
7.81003434891e-11
5.27885750836e-05
8.674769587e-11
5.27885530167e-05
9.639323931e-11
5.27885290021e-05
1.0699008271e-10
5.27885033647e-05
1.19263953963e-10
5.27884729362e-05
1.36761648403e-10
5.278843887e-05
1.54940014484e-10
5.27884009053e-05
1.75144195986e-10
5.27883589565e-05
1.96916865591e-10
5.27883133321e-05
2.19268770252e-10
5.27882647968e-05
2.40694717227e-10
5.27882147551e-05
2.58979917163e-10
5.27881655937e-05
2.70895263502e-10
5.27881212264e-05
2.71507544903e-10
5.2788088166e-05
2.52620557144e-10
5.27880796889e-05
1.98096907144e-10
5.27881327691e-05
6.82632074464e-11
5.2788239477e-05
-1.20064986764e-10
5.27884331368e-05
-4.52098228209e-10
5.27888358212e-05
-1.14259285341e-09
5.2789464918e-05
-2.2104495035e-09
5.27904889794e-05
-3.86933043108e-09
5.27921462507e-05
-6.49119317345e-09
5.27947915402e-05
-1.06376996901e-08
5.27989654056e-05
-1.71953558924e-08
5.28055072939e-05
-2.75699348824e-08
5.28157218548e-05
-4.40074708649e-08
5.28316294027e-05
-7.01269017167e-08
5.28563391009e-05
-1.11812519228e-07
5.28946041712e-05
-1.78724533611e-07
5.29534110068e-05
-2.86902591192e-07
5.30421637447e-05
-4.63272574213e-07
5.31712082533e-05
-7.52979295728e-07
5.33451810169e-05
-1.23050211463e-06
5.35442600808e-05
-2.01158070352e-06
5.36804844173e-05
-3.25618214134e-06
5.35085640352e-05
-5.14672862404e-06
-7.67669887879e-06
5.26311022227e-05
5.19838763255e-05
4.18842301752e-06
5.50602636687e-05
9.80017942102e-06
5.76425460536e-05
1.20908954414e-05
5.93336996975e-05
1.20180784634e-05
6.02415559771e-05
1.06544511534e-05
6.06143052571e-05
8.7853165613e-06
6.06796517701e-05
6.88336233442e-06
6.05966074562e-05
5.18350937081e-06
6.04602523247e-05
3.77317547267e-06
6.03205538718e-05
2.66030265112e-06
6.01997422951e-05
1.81545555613e-06
6.0104684596e-05
1.19532091119e-06
6.00346346896e-05
7.54732320246e-07
5.99856743033e-05
4.52249645062e-07
5.99530657733e-05
2.52382936962e-07
5.99323793916e-05
1.26144326049e-07
5.99199338957e-05
5.07823568528e-08
5.99129783783e-05
9.15136974272e-09
5.99093978811e-05
-1.13022765722e-08
5.99078451266e-05
-1.91707569313e-08
5.99073979999e-05
-2.01962142766e-08
5.99074956797e-05
-1.79620665843e-08
5.99078148797e-05
-1.45567843759e-08
5.99081833107e-05
-1.10904940853e-08
5.99085201685e-05
-8.07033567286e-09
5.9908795462e-05
-5.6598555391e-09
5.99090057787e-05
-3.84560167133e-09
5.99091612191e-05
-2.53799146244e-09
5.99092738681e-05
-1.62881931883e-09
5.99093563774e-05
-1.01819413475e-09
5.99094184862e-05
-6.2016646016e-10
5.99094621353e-05
-3.60775592556e-10
5.99094866198e-05
-1.95933279939e-10
5.99094889655e-05
-9.20086016028e-11
5.99094832143e-05
-2.28458821939e-11
5.99094804128e-05
9.75893827322e-12
5.99094767539e-05
3.18830739306e-11
5.99094727499e-05
4.52918308176e-11
5.99094678504e-05
5.49627191507e-11
5.99094611125e-05
6.36799352356e-11
5.99094520467e-05
7.23456413903e-11
5.99094403468e-05
8.14849438758e-11
5.99094258272e-05
9.14787267974e-11
5.990940841e-05
1.02651995959e-10
5.99093879741e-05
1.15336176628e-10
5.99093639301e-05
1.29883218525e-10
5.99093358783e-05
1.46618491565e-10
5.99093065972e-05
1.65664872023e-10
5.9909274417e-05
1.86794233955e-10
5.99092391855e-05
2.09871614617e-10
5.99092010778e-05
2.34219903239e-10
5.99091606174e-05
2.58572832333e-10
5.99091188477e-05
2.80953972971e-10
5.99090775614e-05
2.98489153376e-10
5.99090395585e-05
3.07088761204e-10
5.99090085481e-05
3.01020053052e-10
5.99089875874e-05
2.72659002189e-10
5.99089716045e-05
2.13715071013e-10
5.99089339354e-05
1.05826281155e-10
5.99089291186e-05
-1.15446892262e-10
5.99090818913e-05
-6.05364881259e-10
5.99093159375e-05
-1.37743483022e-09
5.99097017828e-05
-2.59718511446e-09
5.99103346106e-05
-4.50283825585e-09
5.99113334299e-05
-7.49028594902e-09
5.99128757777e-05
-1.21798523533e-08
5.99152250918e-05
-1.95440662753e-08
5.99187718988e-05
-3.11159113563e-08
5.99240871756e-05
-4.9321885986e-08
5.99319862156e-05
-7.80251940767e-08
5.99435795046e-05
-1.23405230959e-07
5.99602294855e-05
-1.95374048444e-07
5.99831872516e-05
-3.09859900805e-07
6.00122844515e-05
-4.92369331241e-07
6.00424157682e-05
-7.83110264458e-07
6.00552393073e-05
-1.24332547675e-06
6.00028125201e-05
-1.95915404479e-06
5.97805743578e-05
-3.03394431784e-06
5.91920868133e-05
-4.55824137441e-06
-6.48588468905e-06
5.80012722596e-05
5.1437334066e-05
2.75108818193e-06
5.42654190039e-05
6.97209299849e-06
5.72477427323e-05
9.10857051137e-06
5.97848981159e-05
9.48092204682e-06
6.17093672975e-05
8.72998118165e-06
6.30689232315e-05
7.42576011829e-06
6.3985380114e-05
5.96690525244e-06
6.45826277998e-05
4.58626181473e-06
6.49610625092e-05
3.39474125783e-06
6.51941897782e-05
2.42717620629e-06
6.53330215083e-05
1.67662488382e-06
6.5411926655e-05
1.11641687424e-06
6.54536596459e-05
7.13000272512e-07
6.54730814917e-05
4.32828390515e-07
6.54797442357e-05
2.45720333742e-07
6.54796459169e-05
1.26242330465e-07
6.54764220619e-05
5.40055089919e-08
6.54721828935e-05
1.33895340641e-08
6.54680031797e-05
-7.12378426021e-09
6.54644017212e-05
-1.55705881463e-08
6.54615289458e-05
-1.73245466664e-08
6.54593590722e-05
-1.57928209255e-08
6.54577878142e-05
-1.29854170351e-08
6.54566890287e-05
-9.990758873e-09
6.54559438386e-05
-7.32346213261e-09
6.54554525827e-05
-5.1664506535e-09
6.54551378558e-05
-3.52860750314e-09
6.54549428334e-05
-2.3409352413e-09
6.54548264016e-05
-1.5108663172e-09
6.54547577826e-05
-9.4872418744e-10
6.5454715141e-05
-5.77368533344e-10
6.54546882623e-05
-3.3432165742e-10
6.54546691643e-05
-1.77597311958e-10
6.54546591872e-05
-8.28021675846e-11
6.5454664053e-05
-2.81706288004e-11
6.54546692449e-05
4.61905935606e-12
6.54546698727e-05
3.18231876101e-11
6.54546684333e-05
4.76371448605e-11
6.54546652729e-05
5.90755393411e-11
6.54546605251e-05
6.90995283e-11
6.54546538752e-05
7.91118935007e-11
6.54546449527e-05
8.98536000954e-11
6.54546335304e-05
1.01794647076e-10
6.54546195223e-05
1.15311106542e-10
6.54546028734e-05
1.30752980457e-10
6.54545834423e-05
1.48445400019e-10
6.54545609728e-05
1.68606633668e-10
6.54545358845e-05
1.90478324353e-10
6.54545094197e-05
2.12940553823e-10
6.54544796232e-05
2.3911656502e-10
6.54544463163e-05
2.66642288828e-10
6.54544096681e-05
2.93970424995e-10
6.5454370074e-05
3.18967305184e-10
6.54543282087e-05
3.38595627875e-10
6.54542851444e-05
3.48505996072e-10
6.54542425327e-05
3.42424626288e-10
6.54542033604e-05
3.11219261116e-10
6.54541750527e-05
2.41839448872e-10
6.54541581044e-05
1.22650839127e-10
6.54541412051e-05
-9.89167394104e-11
6.54541393676e-05
-6.0425196791e-10
6.54541544673e-05
-1.39349644172e-09
6.54541910554e-05
-2.63468793625e-09
6.54542495849e-05
-4.56197872783e-09
6.54543172856e-05
-7.55814306341e-09
6.5454356516e-05
-1.22187467303e-08
6.54542846851e-05
-1.9471526791e-08
6.54539379855e-05
-3.07683508274e-08
6.54529975007e-05
-4.83806115222e-08
6.54508496034e-05
-7.58766807788e-08
6.54463160631e-05
-1.18871195142e-07
6.54371197057e-05
-1.86177183156e-07
6.54188056437e-05
-2.91545276563e-07
6.53825766164e-05
-4.56139830033e-07
6.53111317112e-05
-7.11665049956e-07
6.51711540165e-05
-1.10334780795e-06
6.49016932415e-05
-1.68969377236e-06
6.44005480528e-05
-2.53279992429e-06
6.35163905508e-05
-3.67408449629e-06
-5.06781922052e-06
6.20983247266e-05
5.10847269419e-05
1.66636044394e-06
5.36094894095e-05
4.44732901731e-06
5.66797034508e-05
6.03835526689e-06
5.96716612233e-05
6.48896328002e-06
6.22651912159e-05
6.13645048492e-06
6.43544685587e-05
5.33648234715e-06
6.59546052926e-05
4.36676837475e-06
6.71341241517e-05
3.40674311704e-06
6.79760283368e-05
2.55283754828e-06
6.85590329812e-05
1.84417233761e-06
6.89502627905e-05
1.28539603994e-06
6.92036705303e-05
8.63010099288e-07
6.93609496832e-05
5.55721878635e-07
6.94533240109e-05
3.40454451789e-07
6.95034932323e-05
1.95551057272e-07
6.95274489812e-05
1.02286109456e-07
6.95360635357e-05
4.53901371945e-08
6.95364341318e-05
1.30178386812e-08
6.95329416176e-05
-3.63256602019e-09
6.95281437847e-05
-1.07740676337e-08
6.95233871024e-05
-1.25689190696e-08
6.95192821809e-05
-1.16883850329e-08
6.95160173273e-05
-9.72024519104e-09
6.95135629828e-05
-7.53525143897e-09
6.95117956277e-05
-5.55426032114e-09
6.95105669424e-05
-3.93552832525e-09
6.95097383038e-05
-2.69768904799e-09
6.95091946278e-05
-1.79525400242e-09
6.95088467827e-05
-1.16151768572e-09
6.95086288879e-05
-7.29951824448e-10
6.95084949835e-05
-4.43228596842e-10
6.95084163843e-05
-2.56016306939e-10
6.9508375285e-05
-1.37074674838e-10
6.95083555812e-05
-6.36283364819e-11
6.95083398074e-05
-1.25794815668e-11
6.95083284684e-05
1.62745423127e-11
6.95083261566e-05
3.49026186707e-11
6.95083257181e-05
4.90876838205e-11
6.95083250466e-05
6.07133273515e-11
6.95083232208e-05
7.15449905629e-11
6.95083197142e-05
8.26685984984e-11
6.95083142605e-05
9.47442116752e-11
6.95083068093e-05
1.08240793465e-10
6.95082974536e-05
1.2353044496e-10
6.95082863245e-05
1.4092350274e-10
6.95082735124e-05
1.60645334566e-10
6.95082590251e-05
1.82786993345e-10
6.950824201e-05
2.07295293548e-10
6.95082206807e-05
2.33956570981e-10
6.9508196434e-05
2.62769733073e-10
6.95081692692e-05
2.92848748562e-10
6.95081391784e-05
3.22737268997e-10
6.95081062281e-05
3.50325501886e-10
6.95080705781e-05
3.72599549921e-10
6.95080324056e-05
3.85285955379e-10
6.95079915374e-05
3.82422271926e-10
6.95079465143e-05
3.55906964709e-10
6.95078930211e-05
2.95241512825e-10
6.9507826444e-05
1.89011027121e-10
6.95077356846e-05
-8.73287059426e-12
6.95075948563e-05
-4.64360397847e-10
6.95073911898e-05
-1.19090233536e-09
6.95070655261e-05
-2.30994284945e-09
6.95065288047e-05
-4.02579668065e-09
6.95056285265e-05
-6.65789087621e-09
6.95041078145e-05
-1.06975766091e-08
6.95015379634e-05
-1.69009314018e-08
6.94972098801e-05
-2.64395073178e-08
6.94899425125e-05
-4.1112650929e-08
6.94777676948e-05
-6.37014355224e-08
6.94574047765e-05
-9.85078947596e-08
6.942337122e-05
-1.5214312946e-07
6.93664764524e-05
-2.34649891699e-07
6.92713099264e-05
-3.6097274964e-07
6.9112212991e-05
-5.52567863307e-07
6.88472940875e-05
-8.38429139479e-07
6.84110996943e-05
-1.25350012221e-06
6.77092755268e-05
-1.83097680297e-06
6.66221024435e-05
-2.58691221249e-06
-3.48767525901e-06
6.5041958262e-05
5.08798399998e-05
7.86519618246e-07
5.3166602091e-05
2.16056539355e-06
5.6205686856e-05
2.99926932594e-06
5.94105902051e-05
3.28405901891e-06
6.23918081769e-05
3.15523187408e-06
6.49477809064e-05
2.78050925239e-06
6.70142012747e-05
2.30034789098e-06
6.86100141515e-05
1.81093039409e-06
6.97956145514e-05
1.36723759342e-06
7.0645824325e-05
9.93963270234e-07
7.12345975743e-05
6.96623642281e-07
7.16275305024e-05
4.70077987437e-07
7.18790395509e-05
3.04213407782e-07
7.20321020798e-05
1.87392114036e-07
7.21192809317e-05
1.083719673e-07
7.21643007474e-05
5.72656648026e-08
7.21837690412e-05
2.59208838542e-08
7.21888229499e-05
7.96269916994e-09
7.21865584162e-05
-1.36941623295e-09
7.21812454607e-05
-5.46243228964e-09
7.21752602787e-05
-6.58469040665e-09
7.21697762961e-05
-6.20468000988e-09
7.21652550447e-05
-5.19842058308e-09
7.21617710682e-05
-4.04988361291e-09
7.21592147397e-05
-2.99593110138e-09
7.21574099214e-05
-2.1284124421e-09
7.2156175965e-05
-1.46146522444e-09
7.21553557515e-05
-9.73068834952e-10
7.21548244713e-05
-6.2874703169e-10
7.21544886147e-05
-3.93196677989e-10
7.21542816201e-05
-2.35938715015e-10
7.21541581299e-05
-1.32706602401e-10
7.21540864388e-05
-6.57711773563e-11
7.21540446024e-05
-2.20542295477e-11
7.21540254144e-05
6.7335208944e-12
7.21540167951e-05
2.5489916702e-11
7.21540134604e-05
3.92017554569e-11
7.21540130307e-05
5.06269967237e-11
7.21540135591e-05
6.11639969851e-11
7.21540138085e-05
7.1878472517e-11
7.21540130463e-05
8.3454087966e-11
7.21540109065e-05
9.63674651511e-11
7.21540072959e-05
1.10994341691e-10
7.21540022686e-05
1.27651550983e-10
7.21539958792e-05
1.46614280176e-10
7.2153988058e-05
1.68076853699e-10
7.21539785688e-05
1.92109347296e-10
7.21539670892e-05
2.18636830136e-10
7.21539532488e-05
2.47488356885e-10
7.21539368421e-05
2.78552162367e-10
7.21539176316e-05
3.11056681407e-10
7.21538953113e-05
3.43714610515e-10
7.21538694385e-05
3.74667024175e-10
7.21538393197e-05
4.01266897547e-10
7.21538037613e-05
4.19786852689e-10
7.21537607298e-05
4.24941392572e-10
7.21537072705e-05
4.09229810595e-10
7.21536399414e-05
3.62454837208e-10
7.21535569544e-05
2.7159750216e-10
7.21534204766e-05
1.26929772016e-10
7.21531513401e-05
-1.9634408111e-10
7.21527552167e-05
-7.95925550885e-10
7.21521051957e-05
-1.66079935607e-09
7.21510441101e-05
-2.9650995679e-09
7.21493060669e-05
-4.91968234902e-09
7.21464531869e-05
-7.84410938885e-09
7.21417745515e-05
-1.22215771997e-08
7.21341234516e-05
-1.87878660702e-08
7.21216373036e-05
-2.86262679432e-08
7.21012983565e-05
-4.3362417092e-08
7.20682405355e-05
-6.54498807444e-08
7.20146497955e-05
-9.85519674257e-08
7.19280543117e-05
-1.48053774411e-07
7.1788751471e-05
-2.21669264374e-07
7.15661604218e-05
-3.29976519317e-07
7.12141916549e-05
-4.86460711831e-07
7.06667778076e-05
-7.06087189134e-07
6.98367750851e-05
-1.00097520324e-06
6.86232749656e-05
-1.37341284059e-06
-1.80348097267e-06
6.69390807215e-05
5.07864636008e-05
5.51798710032e-11
5.29469721496e-05
5.53175257391e-11
5.59462096272e-05
3.07110847067e-11
5.92302527451e-05
1.50368237718e-11
6.23854810358e-05
2.9936928835e-12
6.51659957212e-05
-5.77811710936e-12
6.74663542626e-05
-1.07708306255e-11
6.92772970983e-05
-1.23111372827e-11
7.06445462679e-05
-1.11698970712e-11
7.16385185523e-05
-8.3688828354e-12
7.23351479439e-05
-4.98736521504e-12
7.28052286653e-05
-2.05038651325e-12
7.3109442808e-05
-3.25461277634e-13
7.32968349813e-05
-4.74185497584e-14
7.34052075227e-05
-9.85827980448e-13
7.34624750384e-05
-2.64698987314e-12
7.34883990958e-05
-4.30280484996e-12
7.34963653598e-05
-4.94665841202e-12
7.34950001525e-05
-5.68271215534e-12
7.34895434955e-05
-7.0807652238e-12
7.3482966944e-05
-8.94814262082e-12
7.34767729459e-05
-1.07214211866e-11
7.34715870503e-05
-1.16965590001e-11
7.34675501325e-05
-1.13698808094e-11
7.34645659216e-05
-9.60624756844e-12
7.34624464591e-05
-6.63012600737e-12
7.34609899842e-05
-2.74930592157e-12
7.34600173097e-05
1.54667896406e-12
7.34593846546e-05
5.37958170875e-12
7.34589831137e-05
9.23867491922e-12
7.3458734464e-05
1.30352739192e-11
7.3458584661e-05
1.70166955931e-11
7.3458497473e-05
2.12330279647e-11
7.34584496001e-05
2.58497061838e-11
7.34584255576e-05
3.12188764114e-11
7.34584150083e-05
3.6902046092e-11
7.34584119148e-05
4.34353098978e-11
7.34584127364e-05
5.09990076936e-11
7.34584151798e-05
5.97114599493e-11
7.34584178683e-05
6.9752829051e-11
7.34584200395e-05
8.13129521569e-11
7.34584213538e-05
9.46140993898e-11
7.34584217581e-05
1.09891835676e-10
7.34584213374e-05
1.27388446382e-10
7.34584201603e-05
1.47330076879e-10
7.34584181703e-05
1.69868667865e-10
7.34584151572e-05
1.95069660028e-10
7.3458410786e-05
2.22912616654e-10
7.34584046746e-05
2.53285709933e-10
7.34583965824e-05
2.85995986841e-10
7.34583861999e-05
3.20425916862e-10
7.3458373047e-05
3.55564008783e-10
7.34583563808e-05
3.89943159296e-10
7.34583349784e-05
4.21506546734e-10
7.34583066851e-05
4.47402937846e-10
7.34582677663e-05
4.63645716028e-10
7.34582122617e-05
4.64690067074e-10
7.34581313847e-05
4.43114434721e-10
7.34580136711e-05
3.88684959258e-10
7.34578544826e-05
2.85059311559e-10
7.34575466177e-05
1.10240950758e-10
7.34569747557e-05
-2.25238704696e-10
7.34561133925e-05
-8.00202751524e-10
7.34547099794e-05
-1.56186882869e-09
7.34524237431e-05
-2.63307959929e-09
7.34487061898e-05
-4.12590447086e-09
7.34426750325e-05
-6.18989159251e-09
7.34329213744e-05
-9.03407504153e-09
7.34171943514e-05
-1.28994926166e-08
7.33918883775e-05
-1.80567919557e-08
7.3351274402e-05
-2.48359852477e-08
7.32863159089e-05
-3.35930879503e-08
7.31829024802e-05
-4.46395678032e-08
7.30193292763e-05
-5.80952681326e-08
7.27629592905e-05
-7.36061717077e-08
7.23663719297e-05
-8.98736372757e-08
7.17642385063e-05
-1.03954679773e-07
7.08737564682e-05
-1.10494229955e-07
6.96025831011e-05
-1.02240007385e-07
-7.06440035749e-08
6.78697464967e-05
5.07864625783e-05
-7.86408238834e-07
5.29469713402e-05