/*--------------------------------*- C++ -*----------------------------------*\
| =========                 |                                                 |
| \\      /  F ield         | OpenFOAM: The Open Source CFD Toolbox           |
|  \\    /   O peration     | Version:  2106                                  |
|   \\  /    A nd           | Website:  www.openfoam.com                      |
|    \\/     M anipulation  |                                                 |
\*---------------------------------------------------------------------------*/
FoamFile
{
    version     2.0;
    format      ascii;
    arch        "LSB;label=32;scalar=64";
    class       volVectorField;
    location    "0.04";
    object      U;
}
// * * * * * * * * * * * * * * * * * * * * * * * * * * * * * * * * * * * * * //

dimensions      [0 1 -1 0 0 0 0];

internalField   nonuniform List<vector> 
11200
(
(0.662457761698 0.150573627555 0)
(0.558933959341 0.103247988395 0)
(0.383835779244 0.051352939175 0)
(0.283756169707 0.0248666422015 0)
(0.232144679366 0.0124030107885 0)
(0.202090931585 0.00659483296871 0)
(0.183557579805 0.00375782312948 0)
(0.171883883194 0.00225255299054 0)
(0.164433239068 0.00138441040395 0)
(0.159683207214 0.000851864046404 0)
(0.156709319858 0.000514708573022 0)
(0.154911097175 0.000300351441204 0)
(0.15388279653 0.000166285576469 0)
(0.153346462312 8.48150469958e-05 0)
(0.153111316714 3.67659785791e-05 0)
(0.153046175871 1.13085473786e-05 0)
(0.153072602636 9.55774367286e-06 0)
(0.153142860654 1.65475189777e-05 0)
(0.153223408698 2.33568456646e-05 0)
(0.153297883127 2.87030233459e-05 0)
(0.153360065257 3.23591462184e-05 0)
(0.153408563754 3.43182319507e-05 0)
(0.15344401631 3.52395746493e-05 0)
(0.153468956502 3.71273669095e-05 0)
(0.153486448397 3.95444667026e-05 0)
(0.153498420687 4.18068422231e-05 0)
(0.15350632962 4.38465875861e-05 0)
(0.153511419197 4.57820300873e-05 0)
(0.153514642967 4.77628377388e-05 0)
(0.153516654395 4.99288744699e-05 0)
(0.15351787097 5.22222700483e-05 0)
(0.1535185534 5.45052939867e-05 0)
(0.153518897206 5.6729648533e-05 0)
(0.153519063424 5.89191404106e-05 0)
(0.15351914526 6.11008982572e-05 0)
(0.153519191906 6.32881557231e-05 0)
(0.153519230526 6.54893009945e-05 0)
(0.153519270729 6.77090308988e-05 0)
(0.1535193098 6.99484594163e-05 0)
(0.153519338458 7.22054433706e-05 0)
(0.15351934665 7.44756733775e-05 0)
(0.153519327856 7.675400888e-05 0)
(0.153519280912 7.90352369499e-05 0)
(0.153519209995 8.13148297264e-05 0)
(0.15351912336 8.35899616107e-05 0)
(0.153519030831 8.5859733585e-05 0)
(0.153518940401 8.81242178288e-05 0)
(0.153518855236 9.03832570376e-05 0)
(0.153518773426 9.26353832643e-05 0)
(0.153518689666 9.48778210779e-05 0)
(0.153518598867 9.71058350836e-05 0)
(0.153518501598 9.93135378342e-05 0)
(0.15351840775 0.000101495501353 0)
(0.153518337068 0.000103647359654 0)
(0.153518318426 0.000105765627999 0)
(0.153518390381 0.000107847820787 0)
(0.15351860414 0.000109891568465 0)
(0.153519030542 0.000111891367021 0)
(0.153519772429 0.000113834928261 0)
(0.153520976749 0.00011569934784 0)
(0.153522876343 0.000117428952623 0)
(0.153525873374 0.000118934264063 0)
(0.153530523972 0.000120211597768 0)
(0.153537565547 0.00012149305425 0)
(0.153548107351 0.000123294944139 0)
(0.153563888714 0.000125799866389 0)
(0.153587697598 0.000128718179621 0)
(0.153623877733 0.000131767647307 0)
(0.1536789689 0.000134731422721 0)
(0.153762393363 0.000137871155489 0)
(0.153888475543 0.000143887797951 0)
(0.154086582612 0.000159318992965 0)
(0.154400349095 0.000181749488118 0)
(0.154901294873 0.000211842741495 0)
(0.155744546793 0.000237527659054 0)
(0.157245592242 0.000174317930089 0)
(0.160130167234 -0.000327729896049 0)
(0.168223352677 -0.00257586876433 0)
(0.196163659698 -0.012838940755 0)
(0.222346975076 -0.0598437527419 0)
(0.965404668397 0.289224602144 0)
(0.961960492295 0.252657595524 0)
(0.823609948121 0.158995185356 0)
(0.698281010322 0.0959216616057 0)
(0.610573513883 0.0581044884577 0)
(0.549657822245 0.0359815566929 0)
(0.507769034449 0.0228250949384 0)
(0.479405847054 0.0146966161055 0)
(0.460397093889 0.00948377924519 0)
(0.447818081145 0.00605503451711 0)
(0.439660730036 0.00377567685321 0)
(0.434524485646 0.00226549090179 0)
(0.431421780408 0.00128074796027 0)
(0.429656102956 0.000656138597932 0)
(0.428741167743 0.000275599919564 0)
(0.428346181885 5.90358872999e-05 0)
(0.428247650572 -4.40029033139e-05 0)
(0.428296710345 -8.41330000962e-05 0)
(0.428407912669 -9.10450659363e-05 0)
(0.428534807809 -8.21391157168e-05 0)
(0.428652468184 -6.73073607898e-05 0)
(0.42875062013 -5.18824290192e-05 0)
(0.428827695759 -3.80322918594e-05 0)
(0.428885432626 -2.53585628769e-05 0)
(0.428926534261 -1.45869101566e-05 0)
(0.428954848281 -6.15751045828e-06 0)
(0.428973978166 1.52188756251e-07 0)
(0.428986734476 4.72168069971e-06 0)
(0.428995240011 7.85156824439e-06 0)
(0.429000824142 9.7330751947e-06 0)
(0.429004263808 1.08397001689e-05 0)
(0.429006211953 1.17229281863e-05 0)
(0.429007268225 1.24216010855e-05 0)
(0.429007855442 1.30000803343e-05 0)
(0.429008185295 1.35236874706e-05 0)
(0.429008367778 1.40196264205e-05 0)
(0.429008471903 1.45075456214e-05 0)
(0.429008535355 1.50000460255e-05 0)
(0.429008574791 1.55029156486e-05 0)
(0.429008593344 1.60163307212e-05 0)
(0.429008586874 1.65368450029e-05 0)
(0.429008548976 1.70597153818e-05 0)
(0.42900847389 1.75806606858e-05 0)
(0.429008358554 1.80977860925e-05 0)
(0.429008204416 1.8613324525e-05 0)
(0.429008017795 1.91335317997e-05 0)
(0.42900780735 1.96667413301e-05 0)
(0.42900758005 2.0220487273e-05 0)
(0.429007341274 2.07970781819e-05 0)
(0.429007096095 2.13958876532e-05 0)
(0.429006851077 2.20130394773e-05 0)
(0.429006619163 2.26433429281e-05 0)
(0.429006424072 2.32825345234e-05 0)
(0.429006303351 2.39276448651e-05 0)
(0.429006312489 2.45766256858e-05 0)
(0.42900653286 2.52282695311e-05 0)
(0.429007083832 2.58809719945e-05 0)
(0.429008141802 2.6529399474e-05 0)
(0.429009971531 2.71607176535e-05 0)
(0.429012952568 2.77527503293e-05 0)
(0.429017683886 2.82297668956e-05 0)
(0.429025271041 2.84968177766e-05 0)
(0.429037471691 2.85780452919e-05 0)
(0.429056785026 2.79123608861e-05 0)
(0.429086294237 2.47251877648e-05 0)
(0.429130251406 1.76818751178e-05 0)
(0.42919608056 5.70724798273e-06 0)
(0.429296006235 -1.31785905514e-05 0)
(0.429449143352 -4.21630898167e-05 0)
(0.429686293836 -8.56740722752e-05 0)
(0.430058633123 -0.000148526806585 0)
(0.430649155219 -0.000238796272323 0)
(0.431595354097 -0.000394492527098 0)
(0.433144019243 -0.000682643834322 0)
(0.435761744898 -0.00126526498215 0)
(0.440313737589 -0.00259305293218 0)
(0.448520813936 -0.00591219568756 0)
(0.465192059841 -0.0147331876703 0)
(0.497104404943 -0.0408271691458 0)
(0.511189722448 -0.118606672141 0)
(1.0222207279 0.238423903075 0)
(1.08215510426 0.295900101608 0)
(1.03456905641 0.239394843438 0)
(0.954876442372 0.174049204396 0)
(0.880557406389 0.120919090493 0)
(0.819656447253 0.0824416394867 0)
(0.773128019749 0.0558146784896 0)
(0.739233311043 0.0375645150992 0)
(0.715297149473 0.0250284508379 0)
(0.698817643394 0.0164013818749 0)
(0.687769281831 0.0104836295849 0)
(0.680587220593 0.00646636810969 0)
(0.676092748469 0.00378957892799 0)
(0.673416371298 0.0020550194862 0)
(0.671930256635 0.000974494693201 0)
(0.671192624289 0.000338080088353 0)
(0.67089987174 -9.23042887678e-06 0)
(0.670851839238 -0.000177459940542 0)
(0.670924103022 -0.000238375384227 0)
(0.671041981135 -0.000240362282348 0)
(0.671165441784 -0.000214461598622 0)
(0.671275214881 -0.000178766236237 0)
(0.67136436858 -0.000142942190311 0)
(0.671432452351 -0.000111835615515 0)
(0.671482033457 -8.67799844916e-05 0)
(0.671516889461 -6.7476460933e-05 0)
(0.671540658653 -5.30965126408e-05 0)
(0.671556367849 -4.26679285591e-05 0)
(0.671566399436 -3.53365516254e-05 0)
(0.671572785317 -3.05129170023e-05 0)
(0.671577140502 -2.76395708582e-05 0)
(0.671580010319 -2.62713686731e-05 0)
(0.671581670109 -2.59109891093e-05 0)
(0.671582638014 -2.6170972647e-05 0)
(0.671583201331 -2.67549642605e-05 0)
(0.671583513828 -2.75260784382e-05 0)
(0.671583683372 -2.83991839075e-05 0)
(0.671583773099 -2.93235949353e-05 0)
(0.671583816296 -3.02704625878e-05 0)
(0.671583826396 -3.12245314711e-05 0)
(0.671583804775 -3.21794029139e-05 0)
(0.671583746771 -3.31335520088e-05 0)
(0.671583645698 -3.40872819548e-05 0)
(0.671583496757 -3.50398261237e-05 0)
(0.67158330054 -3.59871622254e-05 0)
(0.671583063917 -3.6922200784e-05 0)
(0.671582796829 -3.78363217708e-05 0)
(0.671582506395 -3.87206504381e-05 0)
(0.671582200248 -3.95698095124e-05 0)
(0.671581889207 -4.03785271138e-05 0)
(0.671581586483 -4.114546716e-05 0)
(0.671581312706 -4.18715866806e-05 0)
(0.671581100737 -4.25586982464e-05 0)
(0.671581000279 -4.32102886228e-05 0)
(0.671581085992 -4.38328544627e-05 0)
(0.671581471605 -4.44388202245e-05 0)
(0.671582329789 -4.5056619578e-05 0)
(0.671583921919 -4.57563803866e-05 0)
(0.67158664828 -4.66899990412e-05 0)
(0.671591079135 -4.81165638525e-05 0)
(0.671598128424 -5.05822182829e-05 0)
(0.671609446879 -5.51508899323e-05 0)
(0.671626899946 -6.31762404989e-05 0)
(0.671652196511 -7.58247552908e-05 0)
(0.671689459022 -9.49831961934e-05 0)
(0.671746671106 -0.000123562030246 0)
(0.671835143714 -0.000165717480402 0)
(0.671971717504 -0.000228336060813 0)
(0.672183241295 -0.000322528129459 0)
(0.672513414958 -0.000466440262974 0)
(0.673033621703 -0.000691702821911 0)
(0.673854156833 -0.00105779815835 0)
(0.675159319192 -0.00167495650574 0)
(0.677269948117 -0.0027539689584 0)
(0.680735300106 -0.00473206018076 0)
(0.686441031107 -0.00856890855864 0)
(0.695739837669 -0.0163743748694 0)
(0.711167233376 -0.0328408528538 0)
(0.73310598125 -0.0689566672678 0)
(0.735776775328 -0.140828594284 0)
(1.02251667611 0.170804903088 0)
(1.10141809936 0.276423675691 0)
(1.11763953472 0.26644541746 0)
(1.09244501096 0.219451689859 0)
(1.05249362807 0.167403452088 0)
(1.01130831205 0.122414881248 0)
(0.975269279526 0.0872562147471 0)
(0.946509142131 0.0609989618871 0)
(0.924838314458 0.0418428812749 0)
(0.909176506674 0.0280882878491 0)
(0.898258677604 0.018359252329 0)
(0.890913020422 0.0115980576415 0)
(0.886157000762 0.00700385473548 0)
(0.883213776263 0.0039712935921 0)
(0.881494567882 0.00204327143608 0)
(0.880569160168 0.000876776876798 0)
(0.880132857286 0.000217413927236 0)
(0.879979984667 -0.000118019840218 0)
(0.879979621164 -0.000258526322008 0)
(0.880049371994 -0.000289002054124 0)
(0.880141305933 -0.000264316705461 0)
(0.880230942249 -0.000217506650047 0)
(0.880307583741 -0.000166750869548 0)
(0.880368200773 -0.000120905342721 0)
(0.880413646529 -8.32331490964e-05 0)
(0.88044641851 -5.41234401386e-05 0)
(0.880469338094 -3.26106914085e-05 0)
(0.880484956303 -1.72227459945e-05 0)
(0.880495321371 -6.47496571993e-06 0)
(0.880501935533 9.07245135797e-07 0)
(0.880505846623 5.68543563328e-06 0)
(0.88050798275 8.38734614791e-06 0)
(0.88050919952 1.00547438679e-05 0)
(0.880509984552 1.12120220385e-05 0)
(0.880510514364 1.21042993176e-05 0)
(0.880510844633 1.28188089186e-05 0)
(0.880511051373 1.34291169684e-05 0)
(0.88051118076 1.39834542359e-05 0)
(0.88051125855 1.451390211e-05 0)
(0.880511295024 1.50394200564e-05 0)
(0.880511289994 1.55690240162e-05 0)
(0.880511238054 1.61056966257e-05 0)
(0.880511132244 1.6649756332e-05 0)
(0.880510967727 1.72021883907e-05 0)
(0.880510744549 1.7767092453e-05 0)
(0.880510468419 1.83529151075e-05 0)
(0.88051014906 1.89755569807e-05 0)
(0.880509794646 1.96511632638e-05 0)
(0.880509416149 2.03684690566e-05 0)
(0.880509027205 2.11226014372e-05 0)
(0.880508642922 2.19066511009e-05 0)
(0.880508287861 2.27091788095e-05 0)
(0.880507999945 2.35133510616e-05 0)
(0.880507835021 2.42946612543e-05 0)
(0.880507875353 2.50176015017e-05 0)
(0.88050824013 2.56283213696e-05 0)
(0.880509092878 2.60401868303e-05 0)
(0.880510655141 2.61185421384e-05 0)
(0.880513268431 2.56973574743e-05 0)
(0.880517345546 2.46044807376e-05 0)
(0.880523376666 2.2089336826e-05 0)
(0.880532657933 1.7069493018e-05 0)
(0.880548088143 7.99777584006e-06 0)
(0.880573566616 -7.76483644282e-06 0)
(0.880613649517 -3.27946175219e-05 0)
(0.880675138022 -7.20962971768e-05 0)
(0.880769130774 -0.000134419454331 0)
(0.880913207433 -0.000233569890076 0)
(0.881134994514 -0.000391724298473 0)
(0.88147770992 -0.000645376354929 0)
(0.882008857971 -0.00105676362758 0)
(0.882835805027 -0.0017347584348 0)
(0.884131796695 -0.00286510731356 0)
(0.886170785897 -0.00478980720696 0)
(0.889369679025 -0.00815664203242 0)
(0.894282992002 -0.0142132322937 0)
(0.901458177269 -0.025302486061 0)
(0.911342714308 -0.0456313097892 0)
(0.921654689137 -0.0824867295567 0)
(0.91560977803 -0.141465099814 0)
(1.01288116236 0.118946777419 0)
(1.08823313799 0.231686811926 0)
(1.13751122695 0.25278193816 0)
(1.15433106356 0.228352256526 0)
(1.15042265907 0.187302046709 0)
(1.13622577393 0.144996547932 0)
(1.11892483747 0.107999416773 0)
(1.10256247034 0.0781023855111 0)
(1.08885001727 0.0550210846893 0)
(1.07817729676 0.0377514608501 0)
(1.07030736077 0.0251572873353 0)
(1.06476084944 0.016196887531 0)
(1.06101434913 0.00999004820235 0)
(1.05859291796 0.00582154138124 0)
(1.0571045925 0.00312429463556 0)
(1.05624558185 0.00145832022733 0)
(1.05579126378 0.00049030855529 0)
(1.05558363194 -2.34943574424e-05 0)
(1.05551775093 -0.000257100463873 0)
(1.05552552886 -0.000330265485894 0)
(1.05556525897 -0.000319720184995 0)
(1.05561387922 -0.000272297824132 0)
(1.05565985667 -0.000214579168191 0)
(1.0556984129 -0.000160105551576 0)
(1.05572846608 -0.000114563596178 0)
(1.05575073821 -7.93262901216e-05 0)
(1.05576660902 -5.36289917267e-05 0)
(1.05577751555 -3.58382514298e-05 0)
(1.05578472792 -2.41265502636e-05 0)
(1.0557893386 -1.67899341334e-05 0)
(1.05579229092 -1.2337164346e-05 0)
(1.0557944186 -9.50951343045e-06 0)
(1.05579610088 -7.55744241468e-06 0)
(1.05579733067 -6.20451955776e-06 0)
(1.05579814242 -5.43773319001e-06 0)
(1.05579863483 -5.10708281187e-06 0)
(1.05579894205 -5.00769665296e-06 0)
(1.05579913725 -5.03612907724e-06 0)
(1.05579926142 -5.12462860032e-06 0)
(1.05579933152 -5.23229297181e-06 0)
(1.05579935082 -5.34047555642e-06 0)
(1.05579931609 -5.44215222591e-06 0)
(1.05579922218 -5.53433739693e-06 0)
(1.05579906635 -5.61419921856e-06 0)
(1.05579885208 -5.67789223534e-06 0)
(1.05579859258 -5.72275668097e-06 0)
(1.05579830249 -5.75437488041e-06 0)
(1.05579796769 -5.7812790721e-06 0)
(1.05579758347 -5.78162321514e-06 0)
(1.05579717052 -5.7478504637e-06 0)
(1.05579674543 -5.68195813452e-06 0)
(1.05579633072 -5.58924857346e-06 0)
(1.05579596039 -5.48035755874e-06 0)
(1.05579568446 -5.37321380476e-06 0)
(1.05579557662 -5.29505976775e-06 0)
(1.05579574547 -5.28848761067e-06 0)
(1.05579635649 -5.42663519099e-06 0)
(1.0557976995 -5.85689523002e-06 0)
(1.05580029565 -6.9705875892e-06 0)
(1.0558044646 -9.72320668461e-06 0)
(1.05581073377 -1.47825986196e-05 0)
(1.0558206854 -2.17405695919e-05 0)
(1.05583579303 -3.22541707762e-05 0)
(1.05585817747 -5.01557880398e-05 0)
(1.05589195568 -8.09821942074e-05 0)
(1.05594312261 -0.000132701277402 0)
(1.05602061207 -0.0002177315412 0)
(1.05613800367 -0.000355908862935 0)
(1.05631615603 -0.000579269128866 0)
(1.05658706804 -0.00093995299846 0)
(1.05699946519 -0.00152352898176 0)
(1.05762722762 -0.00247203617154 0)
(1.05858011273 -0.00402677220045 0)
(1.06001105472 -0.00660578338892 0)
(1.06210652311 -0.0109378402694 0)
(1.06500300811 -0.0182862959162 0)
(1.06853788853 -0.0307379262925 0)
(1.07193133246 -0.0514281719728 0)
(1.07222380635 -0.0844973113811 0)
(1.05895565547 -0.131154802371 0)
(1.0044767604 0.0813806882648 0)
(1.06918755085 0.181136252562 0)
(1.13085379896 0.216558251237 0)
(1.17385795474 0.210031333558 0)
(1.19885534435 0.182443073664 0)
(1.21053819285 0.147914923771 0)
(1.21401995432 0.114297448568 0)
(1.21325655742 0.0851024797204 0)
(1.21073160323 0.0613732372845 0)
(1.20780637642 0.0429343061155 0)
(1.20513343826 0.0290996359324 0)
(1.20295855584 0.0190376930871 0)
(1.20131574903 0.0119422311525 0)
(1.20014322331 0.0071021564655 0)
(1.19934666917 0.00392319617805 0)
(1.19883090352 0.00192772922634 0)
(1.19851347321 0.000745005167317 0)
(1.19832983719 9.79323649919e-05 0)
(1.19823207233 -0.000213334665958 0)
(1.19818601913 -0.00032789062985 0)
(1.1981694615 -0.000336561125249 0)
(1.19816819245 -0.000295695159811 0)
(1.19817376656 -0.000237950618933 0)
(1.19818153277 -0.000180500313682 0)
(1.19818917011 -0.000131021742662 0)
(1.19819571041 -9.18278724621e-05 0)
(1.19820090556 -6.24979525819e-05 0)
(1.19820486801 -4.14319707147e-05 0)
(1.19820784248 -2.6689100912e-05 0)
(1.19821008469 -1.64588656283e-05 0)
(1.19821181727 -9.33134307078e-06 0)
(1.19821318718 -4.3916725121e-06 0)
(1.1982141922 -1.19737940837e-06 0)
(1.1982147553 6.99052374551e-07 0)
(1.19821499477 1.71967079232e-06 0)
(1.19821516787 2.35110881933e-06 0)
(1.19821535034 2.80736488677e-06 0)
(1.19821551009 3.1566211214e-06 0)
(1.19821564628 3.44355619799e-06 0)
(1.19821574778 3.70091046186e-06 0)
(1.19821580036 3.9514729723e-06 0)
(1.19821579456 4.20885663729e-06 0)
(1.19821572452 4.48033534466e-06 0)
(1.19821558716 4.7705413896e-06 0)
(1.19821538112 5.08262034197e-06 0)
(1.19821510228 5.41617866011e-06 0)
(1.19821474924 5.75989400885e-06 0)
(1.19821435103 6.09632721221e-06 0)
(1.19821393393 6.44749181188e-06 0)
(1.19821349625 6.83433489742e-06 0)
(1.19821304809 7.25335949131e-06 0)
(1.19821261338 7.68987021863e-06 0)
(1.19821222731 8.11948968892e-06 0)
(1.19821194155 8.50473096437e-06 0)
(1.19821183161 8.78863183929e-06 0)
(1.19821200052 8.8837730787e-06 0)
(1.19821256215 8.65685016461e-06 0)
(1.19821353944 7.91226082481e-06 0)
(1.19821471247 6.32547448097e-06 0)
(1.19821638528 3.08660680433e-06 0)
(1.19822034159 -2.73885452285e-06 0)
(1.19822738271 -1.24327729495e-05 0)
(1.19823749195 -2.8710775489e-05 0)
(1.19825222654 -5.49700901752e-05 0)
(1.1982739341 -9.68595721406e-05 0)
(1.19830563323 -0.000163566324566 0)
(1.19835165224 -0.000269811461118 0)
(1.19841828976 -0.000439062005437 0)
(1.19851463213 -0.000708828626498 0)
(1.19865351615 -0.00113943120704 0)
(1.19885233787 -0.00182844375328 0)
(1.19913282372 -0.00293455902374 0)
(1.1995169558 -0.00471785826042 0)
(1.2000111495 -0.00760555079712 0)
(1.20056260056 -0.0122931645668 0)
(1.20094545969 -0.0198847849901 0)
(1.20051849458 -0.0320159654571 0)
(1.19794425974 -0.0507982222537 0)
(1.19041014958 -0.0783747621786 0)
(1.17125807288 -0.114399332098 0)
(0.998963549298 0.0544047870177 0)
(1.05310945335 0.133242249607 0)
(1.11626617448 0.170376834833 0)
(1.17295216817 0.174377561351 0)
(1.2177667379 0.158330426694 0)
(1.25021331423 0.133113291608 0)
(1.27239547572 0.105936674508 0)
(1.28700496313 0.0807819548712 0)
(1.29635348182 0.0594037498518 0)
(1.30217386553 0.0422387010212 0)
(1.30568730692 0.0290373726257 0)
(1.30772375391 0.0192497899545 0)
(1.30883517302 0.0122396600876 0)
(1.30938362198 0.0073935260674 0)
(1.30960335312 0.00417071311794 0)
(1.30964298888 0.00212147474562 0)
(1.30959395322 0.000888419816685 0)
(1.30951033372 0.000199454161706 0)
(1.30942161198 -0.000144795028063 0)
(1.30934189478 -0.000283228121348 0)
(1.30927678764 -0.000308374717754 0)
(1.30922680932 -0.000278462343962 0)
(1.30919019082 -0.000227731688714 0)
(1.30916437558 -0.000174598797867 0)
(1.30914678671 -0.000127661294816 0)
(1.30913518729 -8.98718662489e-05 0)
(1.30912779578 -6.12414920646e-05 0)
(1.3091232814 -4.04852405318e-05 0)
(1.30912068202 -2.59591115436e-05 0)
(1.30911929258 -1.61059583697e-05 0)
(1.30911859735 -9.65934385197e-06 0)
(1.30911828532 -5.66538987894e-06 0)
(1.30911818145 -3.38145806802e-06 0)
(1.30911820979 -2.1187307385e-06 0)
(1.30911843427 -1.32942085967e-06 0)
(1.30911879802 -8.07883854986e-07 0)
(1.3091191169 -5.18556239127e-07 0)
(1.3091193485 -3.26127323298e-07 0)
(1.30911952188 -1.70028841022e-07 0)
(1.30911965033 -2.8534786147e-08 0)
(1.30911973279 1.14415181914e-07 0)
(1.30911976137 2.71506007125e-07 0)
(1.30911972832 4.52105783602e-07 0)
(1.30911962936 6.64642230136e-07 0)
(1.30911946347 9.18415496716e-07 0)
(1.30911923057 1.2259373888e-06 0)
(1.30911893018 1.60790890466e-06 0)
(1.30911857475 2.08494202239e-06 0)
(1.30911819007 2.6381110598e-06 0)
(1.30911777839 3.23541639236e-06 0)
(1.30911733126 3.86005911281e-06 0)
(1.30911685834 4.48916738642e-06 0)
(1.30911637958 5.08502983798e-06 0)
(1.30911592352 5.5900480361e-06 0)
(1.30911552978 5.91746191277e-06 0)
(1.30911525443 5.9364202216e-06 0)
(1.30911518991 5.45098685311e-06 0)
(1.30911549513 4.18692526828e-06 0)
(1.30911623591 1.88283950082e-06 0)
(1.3091173116 -1.5040552055e-06 0)
(1.30911896524 -6.79042827249e-06 0)
(1.30912142925 -1.67275594049e-05 0)
(1.30912472261 -3.35651967737e-05 0)
(1.30912898734 -6.0880319035e-05 0)
(1.30913420792 -0.000104770476915 0)
(1.3091399088 -0.000174848124993 0)
(1.30914486088 -0.000286238645504 0)
(1.30914649825 -0.000462843998926 0)
(1.30913975703 -0.000742484402804 0)
(1.30911486415 -0.00118524277385 0)
(1.30905319731 -0.00188680711712 0)
(1.30891933285 -0.00299952424668 0)
(1.30864543625 -0.00476522643085 0)
(1.30810035579 -0.00756424933792 0)
(1.30703058287 -0.0119818447849 0)
(1.304947686 -0.0188817004425 0)
(1.30093691604 -0.0294309476779 0)
(1.29347964096 -0.0449505537017 0)
(1.28013235274 -0.0664670999368 0)
(1.25639716268 -0.0932753073025 0)
(0.995736779831 0.0346095146698 0)
(1.04178028058 0.0904301738238 0)
(1.10214856063 0.121204774837 0)
(1.16468838872 0.128949993986 0)
(1.2215387855 0.120940139577 0)
(1.26862377293 0.104455692522 0)
(1.30532906936 0.0849944649341 0)
(1.33276706772 0.0660028594586 0)
(1.35259616061 0.0492708833782 0)
(1.36649349903 0.0354797876774 0)
(1.37593969925 0.0246614690159 0)
(1.38214932594 0.0165162838605 0)
(1.38607395631 0.0106094896948 0)
(1.38843471097 0.00648260761232 0)
(1.3897622119 0.00371131889499 0)
(1.39043526764 0.00193179584831 0)
(1.39071531949 0.000848984901952 0)
(1.39077605894 0.000234839269324 0)
(1.39072737321 -7.94459027701e-05 0)
(1.39063475927 -0.000212624151778 0)
(1.39053447455 -0.000244623314368 0)
(1.39044410344 -0.000226185744778 0)
(1.39037028896 -0.000187486264367 0)
(1.39031377919 -0.000145018892588 0)
(1.39027255176 -0.000106708899473 0)
(1.39024362533 -7.549295014e-05 0)
(1.39022400825 -5.16651354967e-05 0)
(1.39021112265 -3.43179806036e-05 0)
(1.39020292671 -2.21623435075e-05 0)
(1.39019788293 -1.39237989524e-05 0)
(1.3901948852 -8.49378127465e-06 0)
(1.39019320765 -4.966031072e-06 0)
(1.39019240216 -2.67455900016e-06 0)
(1.39019213228 -1.13650985361e-06 0)
(1.3901920922 -9.44716188314e-08 0)
(1.39019211443 5.49100842532e-07 0)
(1.3901922248 9.15420616011e-07 0)
(1.39019242253 1.1459596705e-06 0)
(1.39019262655 1.32245039061e-06 0)
(1.39019279969 1.48605735871e-06 0)
(1.39019292843 1.65752222278e-06 0)
(1.39019300406 1.84853814776e-06 0)
(1.3901930213 2.06795961112e-06 0)
(1.39019297883 2.32417269559e-06 0)
(1.3901928786 2.62597190887e-06 0)
(1.39019272455 2.98266172086e-06 0)
(1.39019252049 3.40435936957e-06 0)
(1.39019226362 3.90165502434e-06 0)
(1.39019193756 4.46823163586e-06 0)
(1.39019154341 5.07688001764e-06 0)
(1.39019110062 5.71426523849e-06 0)
(1.39019061864 6.36281762017e-06 0)
(1.39019010683 6.99213912047e-06 0)
(1.3901895791 7.55426010624e-06 0)
(1.39018905341 7.97598199482e-06 0)
(1.39018854688 8.14720513878e-06 0)
(1.39018806232 7.90050999381e-06 0)
(1.39018757795 6.96568739332e-06 0)
(1.39018706281 4.91390176988e-06 0)
(1.39018638318 1.35711161841e-06 0)
(1.39018516179 -4.38318614731e-06 0)
(1.39018305069 -1.43528774811e-05 0)
(1.39017944095 -3.06306401043e-05 0)
(1.39017290006 -5.657340441e-05 0)
(1.39016106083 -9.76776140535e-05 0)
(1.39013990254 -0.000162525712072 0)
(1.39010263309 -0.000264515483289 0)
(1.3900379677 -0.000424639272821 0)
(1.38992715635 -0.000675688768018 0)
(1.38973895398 -0.00106905936065 0)
(1.38942138115 -0.00168529714752 0)
(1.38888795693 -0.00264999557855 0)
(1.38799454489 -0.0041571381891 0)
(1.3865007109 -0.00650105236333 0)
(1.38400738246 -0.0101142687967 0)
(1.37985894369 -0.0155983923546 0)
(1.37300614978 -0.023706472163 0)
(1.36191706431 -0.0351981769979 0)
(1.34448720252 -0.0505164761995 0)
(1.31741528804 -0.0690370664918 0)
(0.994011975669 0.0192190106063 0)
(1.03482160966 0.0522397950076 0)
(1.09186367086 0.0721307355379 0)
(1.15626951617 0.078688327511 0)
(1.21956724183 0.0753868836871 0)
(1.27564618016 0.0662851019006 0)
(1.32199901956 0.0547418666643 0)
(1.35843602262 0.0430352877205 0)
(1.38592577507 0.0324555092831 0)
(1.40592138853 0.0235738452645 0)
(1.4199672006 0.0165098315497 0)
(1.42948604918 0.0111338445945 0)
(1.43568714798 0.00720128455245 0)
(1.43954347695 0.00443344958454 0)
(1.44180452475 0.00256233170008 0)
(1.44302521129 0.00135282532074 0)
(1.44360051828 0.000611386263861 0)
(1.44380017658 0.000186802376696 0)
(1.4437998516 -3.36867303986e-05 0)
(1.44370775266 -0.000129976823742 0)
(1.44358622485 -0.00015624197784 0)
(1.4434677863 -0.000147049206192 0)
(1.44336673071 -0.000123105659545 0)
(1.44328709257 -9.58481013192e-05 0)
(1.44322772253 -7.08685042207e-05 0)
(1.44318531881 -5.03290474016e-05 0)
(1.44315609263 -3.4555215926e-05 0)
(1.44313657657 -2.30181097851e-05 0)
(1.44312393212 -1.48947176379e-05 0)
(1.44311598705 -9.34735712429e-06 0)
(1.44311116019 -5.64507211686e-06 0)
(1.4431083579 -3.20587062515e-06 0)
(1.44310683656 -1.62898995211e-06 0)
(1.44310607925 -6.61254076983e-07 0)
(1.44310579152 -1.01230007285e-07 0)
(1.44310578769 2.76327726043e-07 0)
(1.44310591792 5.99538938763e-07 0)
(1.44310610949 8.64619742677e-07 0)
(1.44310631662 1.09260434257e-06 0)
(1.44310651017 1.31132063864e-06 0)
(1.44310667113 1.53962152468e-06 0)
(1.44310678674 1.78975293394e-06 0)
(1.44310684975 2.07066454415e-06 0)
(1.44310685751 2.38943431812e-06 0)
(1.44310681002 2.75183936206e-06 0)
(1.44310670766 3.16165691857e-06 0)
(1.44310655 3.61935314653e-06 0)
(1.44310633553 4.12224938999e-06 0)
(1.44310605951 4.67075615975e-06 0)
(1.44310571986 5.27534433352e-06 0)
(1.44310531709 5.92584721465e-06 0)
(1.44310484839 6.59940642171e-06 0)
(1.44310431 7.2615962807e-06 0)
(1.44310369589 7.86121283723e-06 0)
(1.44310299425 8.32218259849e-06 0)
(1.44310218253 8.53200183963e-06 0)
(1.44310122095 8.32640946116e-06 0)
(1.44310005585 7.47378613867e-06 0)
(1.44309865318 5.65093661789e-06 0)
(1.4430966914 2.4585958227e-06 0)
(1.44309303499 -2.39063144401e-06 0)
(1.44308676392 -1.01823581721e-05 0)
(1.44307680478 -2.34053357469e-05 0)
(1.44306051322 -4.4433512084e-05 0)
(1.44303360355 -7.72413155811e-05 0)
(1.44298914512 -0.000128144012718 0)
(1.44291579714 -0.000206895497536 0)
(1.44279526089 -0.000328659606209 0)
(1.44259796839 -0.000516620527115 0)
(1.44227598574 -0.000806424390023 0)
(1.44175202445 -0.00125292174332 0)
(1.44090207038 -0.0019397832169 0)
(1.43952817295 -0.00299287535293 0)
(1.43731696709 -0.00459712348827 0)
(1.43377944715 -0.00701364147303 0)
(1.42816856022 -0.0105876038249 0)
(1.41938200806 -0.0157225711663 0)
(1.40592718155 -0.0227816864339 0)
(1.38593113587 -0.031906174643 0)
(1.35672485985 -0.0426744752557 0)
(0.993270023237 0.00616418108235 0)
(1.03154905126 0.0170688383509 0)
(1.0865662885 0.0239087390719 0)
(1.1513207243 0.0264053991775 0)
(1.21733582018 0.0255654703931 0)
(1.27762331921 0.0226798843674 0)
(1.32873404064 0.0188700822183 0)
(1.36976607084 0.0149266917644 0)
(1.40126858901 0.0113153885268 0)
(1.42452240107 0.00825492529864 0)
(1.44106527767 0.00580345998544 0)
(1.45240496096 0.00392747680979 0)
(1.45987362613 0.00254905812021 0)
(1.46457214415 0.00157522048031 0)
(1.46736507711 0.000914629336856 0)
(1.46890208132 0.000486174782626 0)
(1.46965117188 0.000222552288551 0)
(1.46993529793 7.08822243635e-05 0)
(1.46996700673 -8.4457465634e-06 0)
(1.46987867794 -4.35824317295e-05 0)
(1.46974759138 -5.36948201268e-05 0)
(1.46961496031 -5.10372888992e-05 0)
(1.46949961503 -4.29742692992e-05 0)
(1.4694076181 -3.35929596738e-05 0)
(1.46933844207 -2.49094560067e-05 0)
(1.46928869572 -1.77213774688e-05 0)
(1.46925420311 -1.21700478151e-05 0)
(1.46923103656 -8.08554261115e-06 0)
(1.46921593471 -5.18607535321e-06 0)
(1.46920637997 -3.18653903765e-06 0)
(1.46920052515 -1.83528042067e-06 0)
(1.46919707606 -9.3191829674e-07 0)
(1.46919515526 -3.35719340026e-07 0)
(1.46919418123 6.18773826732e-08 0)
(1.46919378574 3.58826575291e-07 0)
(1.46919372428 5.80985646495e-07 0)
(1.46919383515 7.65891041395e-07 0)
(1.46919403114 9.38110578064e-07 0)
(1.469194259 1.11494490197e-06 0)
(1.46919448316 1.30832848518e-06 0)
(1.46919468103 1.52620824016e-06 0)
(1.46919483904 1.77520519227e-06 0)
(1.4691949501 2.06142592282e-06 0)
(1.4691950117 2.39073823998e-06 0)
(1.46919502356 2.76875076753e-06 0)
(1.46919498495 3.20008992161e-06 0)
(1.46919489377 3.68810983989e-06 0)
(1.46919474641 4.23465495677e-06 0)
(1.46919453679 4.83964014354e-06 0)
(1.46919425849 5.5017376448e-06 0)
(1.46919390521 6.21109671707e-06 0)
(1.46919346781 6.95076997321e-06 0)
(1.469192933 7.69472685738e-06 0)
(1.46919228014 8.40395898876e-06 0)
(1.46919147504 9.02126993353e-06 0)
(1.46919045899 9.46188675673e-06 0)
(1.46918913232 9.59815529407e-06 0)
(1.46918733731 9.23806092829e-06 0)
(1.46918489662 8.0754521753e-06 0)
(1.46918167649 5.59602726617e-06 0)
(1.46917652239 1.48093462516e-06 0)
(1.46916727392 -3.99677441975e-06 0)
(1.46915237155 -1.20324868987e-05 0)
(1.46912909103 -2.48812133758e-05 0)
(1.46909175553 -4.48001177206e-05 0)
(1.46903148699 -7.50424979643e-05 0)
(1.46893407736 -0.000120660745714 0)
(1.46877703093 -0.000189510909639 0)
(1.46852461146 -0.000292149915283 0)
(1.46811953071 -0.000443579114616 0)
(1.46747068021 -0.000666148020913 0)
(1.46643431005 -0.000992409139038 0)
(1.46478542709 -0.00146872335446 0)
(1.46217613884 -0.00215907188708 0)
(1.45807842013 -0.00314722785099 0)
(1.45171152829 -0.00453343081789 0)
(1.44196513285 -0.00641748981971 0)
(1.4273849107 -0.00885810117641 0)
(1.40621135174 -0.0118207709033 0)
(1.37605459976 -0.015092956616 0)
(0.993270821193 -0.0061624185663 0)
(1.03154903511 -0.0170670939857 0)
(1.08656622359 -0.0239077923102 0)
(1.15132076333 -0.0264049543004 0)
(1.21733589925 -0.0255653986349 0)
(1.27762342141 -0.0226800967664 0)