/*--------------------------------*- C++ -*----------------------------------*\
| =========                 |                                                 |
| \\      /  F ield         | OpenFOAM: The Open Source CFD Toolbox           |
|  \\    /   O peration     | Version:  v1706                                 |
|   \\  /    A nd           | Web:      www.OpenFOAM.com                      |
|    \\/     M anipulation  |                                                 |
\*---------------------------------------------------------------------------*/
FoamFile
{
    version     2.0;
    format      ascii;
    class       volScalarField;
    location    "300";
    object      p;
}
// * * * * * * * * * * * * * * * * * * * * * * * * * * * * * * * * * * * * * //

dimensions      [0 2 -2 0 0 0 0];


internalField   nonuniform List<scalar> 
800
(
2.91997e-33
-3.30573e-32
-1.2474e-31
-2.43015e-31
-3.72757e-31
-5.02896e-31
-6.35788e-31
-7.68793e-31
-9.0175e-31
-1.03469e-30
-1.16765e-30
-1.30061e-30
-1.43357e-30
-1.56653e-30
-1.69949e-30
-1.83246e-30
-1.96542e-30
-2.09838e-30
-2.23134e-30
-2.36431e-30
-2.49727e-30
-2.63023e-30
-2.7632e-30
-2.89616e-30
-3.02912e-30
-3.16208e-30
-3.29505e-30
-3.42801e-30
-3.56097e-30
-3.69394e-30
-3.8269e-30
-3.95986e-30
-4.09282e-30
-4.22579e-30
-4.35875e-30
-4.49171e-30
-4.62468e-30
-4.75764e-30
-4.8906e-30
-5.02356e-30
-5.15653e-30
-5.28949e-30
-5.42245e-30
-5.55542e-30
-5.68838e-30
-5.82134e-30
-5.9543e-30
-6.08727e-30
-6.22023e-30
-6.35319e-30
-6.48616e-30
-6.61912e-30
-6.75208e-30
-6.88504e-30
-7.01801e-30
-7.15097e-30
-7.28393e-30
-7.4169e-30
-7.54986e-30
-7.68282e-30
-7.81578e-30
-7.94875e-30
-8.08171e-30
-8.21467e-30
-8.34764e-30
-8.4806e-30
-8.61356e-30
-8.74652e-30
-8.87949e-30
-9.01245e-30
-9.14541e-30
-9.27838e-30
-9.41134e-30
-9.5443e-30
-9.67726e-30
-9.81023e-30
-9.94319e-30
-1.00762e-29
-1.02091e-29
-1.03421e-29
-1.0475e-29
-1.0608e-29
-1.0741e-29
-1.08739e-29
-1.10069e-29
-1.11399e-29
-1.12728e-29
-1.14058e-29
-1.15387e-29
-1.16717e-29
-1.18047e-29
-1.19376e-29
-1.20706e-29
-1.22036e-29
-1.23365e-29
-1.24695e-29
-1.26024e-29
-1.27354e-29
-1.28684e-29
-1.30013e-29
-1.31343e-29
-1.32673e-29
-1.34002e-29
-1.35332e-29
-1.36661e-29
-1.37991e-29
-1.39321e-29
-1.4065e-29
-1.4198e-29
-1.4331e-29
-1.44639e-29
-1.45969e-29
-1.47299e-29
-1.48628e-29
-1.49958e-29
-1.51287e-29
-1.52617e-29
-1.53947e-29
-1.55276e-29
-1.56606e-29
-1.57936e-29
-1.59265e-29
-1.60595e-29
-1.61924e-29
-1.63254e-29
-1.64584e-29
-1.65913e-29
-1.67243e-29
-1.68573e-29
-1.69902e-29
-1.71232e-29
-1.72561e-29
-1.73891e-29
-1.75221e-29
-1.7655e-29
-1.7788e-29
-1.7921e-29
-1.80539e-29
-1.81869e-29
-1.83198e-29
-1.84528e-29
-1.85858e-29
-1.87187e-29
-1.88517e-29
-1.89847e-29
-1.91176e-29
-1.92506e-29
-1.93836e-29
-1.95165e-29
-1.96495e-29
-1.97824e-29
-1.99154e-29
-2.00484e-29
-2.01813e-29
-2.03143e-29
-2.04473e-29
-2.05802e-29
-2.07132e-29
-2.08461e-29
-2.09791e-29
-2.11121e-29
-2.1245e-29
-2.1378e-29
-2.1511e-29
-2.16439e-29
-2.17769e-29
-2.19098e-29
-2.20428e-29
-2.21758e-29
-2.23087e-29
-2.24417e-29
-2.25747e-29
-2.27076e-29
-2.28406e-29
-2.29735e-29
-2.31065e-29
-2.32395e-29
-2.33724e-29
-2.35054e-29
-2.36384e-29
-2.37713e-29
-2.39043e-29
-2.40373e-29
-2.41702e-29
-2.43032e-29
-2.44361e-29
-2.45691e-29
-2.47021e-29
-2.4835e-29
-2.4968e-29
-2.5101e-29
-2.52339e-29
-2.53669e-29
-2.54998e-29
-2.56328e-29
-2.57658e-29
-2.58987e-29
-2.60317e-29
-2.61647e-29
-2.62976e-29
-2.64306e-29
-2.65635e-29
-2.66965e-29
-2.68295e-29
-2.69624e-29
-2.70954e-29
-2.72284e-29
-2.73613e-29
-2.74943e-29
-2.76272e-29
-2.77602e-29
-2.78932e-29
-2.80261e-29
-2.81591e-29
-2.82921e-29
-2.8425e-29
-2.8558e-29
-2.8691e-29
-2.88239e-29
-2.89569e-29
-2.90898e-29
-2.92228e-29
-2.93558e-29
-2.94887e-29
-2.96217e-29
-2.97547e-29
-2.98876e-29
-3.00206e-29
-3.01535e-29
-3.02865e-29
-3.04195e-29
-3.05524e-29
-3.06854e-29
-3.08184e-29
-3.09513e-29
-3.10843e-29
-3.12172e-29
-3.13502e-29
-3.14832e-29
-3.16161e-29
-3.17491e-29
-3.18821e-29
-3.2015e-29
-3.2148e-29
-3.22809e-29
-3.24139e-29
-3.25469e-29
-3.26798e-29
-3.28128e-29
-3.29458e-29
-3.30787e-29
-3.32117e-29
-3.33447e-29
-3.34776e-29
-3.36106e-29
-3.37435e-29
-3.38765e-29
-3.40095e-29
-3.41424e-29
-3.42754e-29
-3.44084e-29
-3.45413e-29
-3.46743e-29
-3.48072e-29
-3.49402e-29
-3.50732e-29
-3.52061e-29
-3.53391e-29
-3.54721e-29
-3.5605e-29
-3.5738e-29
-3.58709e-29
-3.60039e-29
-3.61369e-29
-3.62698e-29
-3.64028e-29
-3.65358e-29
-3.66687e-29
-3.68017e-29
-3.69346e-29
-3.70676e-29
-3.72006e-29
-3.73336e-29
-3.74666e-29
-3.75993e-29
-3.77311e-29
-3.78642e-29
-3.80088e-29
-3.81614e-29
-3.82191e-29
-3.80292e-29
-3.82982e-29
-4.1767e-29
-4.66513e-29
-2.35512e-29
6.36927e-29
-3.49453e-31
-9.51253e-28
-2.06328e-27
5.00297e-27
2.84113e-26
3.27816e-27
-2.6586e-25
-5.13126e-25
1.60988e-24
7.81503e-24
-1.23094e-24
-7.6883e-23
-1.27443e-22
5.03674e-22
2.1292e-21
-9.58016e-22
-2.20805e-20
-3.0771e-20
1.56832e-19
5.76578e-19
-5.96332e-19
-6.95607e-18
-4.51667e-19
8.18487e-17
8.09104e-17
-4.21167e-17
-7.80871e-17
5.55167e-20
-3.85054e-17
-7.48312e-17
3.92399e-17
4.58075e-17
-3.73598e-17
-4.60408e-17
-1.44638e-18
4.6747e-17
7.35166e-17
-5.08639e-20
-7.60002e-17
-7.89495e-17
-2.8423e-17
9.31039e-18
-7.47975e-17
-1.51715e-16
-7.04366e-17
-2.77151e-17
-1.10254e-16
-1.23932e-16
-3.60361e-17
9.18755e-17
8.57245e-17
-7.49512e-17
-1.21044e-16
-7.67031e-17
-6.63136e-17
-7.25273e-17
-6.92326e-17
-3.41281e-17
-4.65408e-18
-5.78231e-17
-8.17828e-17
1.8792e-17
1.25825e-16
1.18804e-16
-3.29095e-17
-1.14682e-16
-1.4357e-17
4.93112e-18
-9.72858e-17
-1.09848e-16
-4.17039e-17
-2.4198e-18
1.68028e-18
-2.4344e-17
-3.4979e-17
-1.30805e-17
-2.99291e-17
-3.08265e-17
-7.53826e-17
-7.39457e-17
-3.6692e-17
-3.87859e-17
4.16286e-17
7.86516e-17
-3.45855e-17
-1.13811e-16
-1.18211e-16
-7.20409e-17
1.09791e-17
4.27515e-17
-6.382e-18
-7.75316e-17
-3.27384e-18
8.37373e-17
7.61016e-17
5.84614e-17
3.64191e-17
1.23515e-17
-6.76202e-17
-1.2444e-16
-1.08013e-16
-6.4529e-17
-1.36278e-17
4.12382e-18
4.23968e-17
3.91568e-17
9.09786e-18
-4.23033e-18
-7.62054e-17
-1.07738e-16
-3.0865e-18
3.49205e-17
-6.8941e-17
-1.44249e-16
-7.72317e-17
4.46315e-18
4.31042e-18
1.18318e-19
-1.6694e-18
-2.87578e-17
-7.34933e-17
-3.87203e-17
3.92227e-17
-6.08211e-18
-6.63444e-17
-3.33403e-17
-4.8497e-18
-3.85155e-17
-9.8796e-17
-6.6075e-17
2.45707e-17
4.15327e-18
-5.46142e-17
-4.36093e-17
-7.99919e-17
-1.35974e-16
-1.12499e-16
-4.18902e-17
4.03469e-17
4.84246e-17
9.15762e-18
2.71618e-17
3.01003e-17
-3.16747e-17
-4.02975e-17
2.95682e-17
4.87264e-17
3.87412e-17
2.99628e-17
4.25571e-17
1.16751e-18
-8.01396e-17
-4.21004e-17
4.58453e-17
4.2847e-17
-4.17243e-17
-3.58807e-17
4.02199e-17
-3.52704e-17
-8.11113e-17
-3.49571e-18
4.6208e-17
4.68579e-17
2.09097e-19
-8.13447e-17
-7.80537e-17
4.71709e-18
1.0691e-17
-3.79885e-17
-7.88216e-17
-3.86189e-17
1.06141e-17
1.15699e-17
-7.09071e-17
-1.55844e-16
-1.51933e-16
-6.37077e-17
-2.73105e-17
-1.06908e-16
-1.12631e-16
-6.76711e-17
-7.00212e-17
-1.1294e-16
-7.4484e-17
4.11788e-18
7.00353e-18
6.92517e-19
-1.93693e-19
2.57207e-19
4.23534e-19
4.07615e-19
3.87343e-19
3.85171e-19
3.86881e-19
3.87433e-19
3.87358e-19
3.87286e-19
3.8728e-19
3.87287e-19
3.87289e-19
3.87288e-19
3.87288e-19
3.87288e-19
3.87288e-19
3.87288e-19
3.87288e-19
3.87288e-19
3.87288e-19
3.87288e-19
3.87288e-19
3.87288e-19
3.87288e-19
3.87288e-19
3.87288e-19
3.87288e-19
3.87288e-19
3.87288e-19
3.87288e-19
3.87288e-19
3.87288e-19
3.87288e-19
3.87288e-19
3.87288e-19
3.87288e-19
3.87288e-19
3.87288e-19
3.87288e-19
3.87288e-19
3.87288e-19
3.87288e-19
3.87288e-19
3.87288e-19
3.87288e-19
3.87288e-19
3.87288e-19
3.87288e-19
3.87288e-19
3.87288e-19
3.87288e-19
3.87288e-19
3.87288e-19
3.87288e-19
3.87288e-19
3.87288e-19
3.87288e-19
3.87288e-19
3.87288e-19
3.87288e-19
3.87288e-19
3.87288e-19
3.87288e-19
3.87288e-19
3.87288e-19
3.87288e-19
3.87288e-19
3.87288e-19
3.87288e-19
3.87288e-19
3.87288e-19
3.87288e-19
3.87288e-19
3.87288e-19
3.87288e-19
3.87288e-19
3.87288e-19
3.87288e-19
3.87288e-19
3.87288e-19
3.87288e-19
3.87288e-19
3.87288e-19
3.87288e-19
3.87288e-19
3.87288e-19
3.87288e-19
3.87288e-19
3.87288e-19
3.87288e-19
3.87288e-19
3.87288e-19
3.87288e-19
3.87288e-19
3.87288e-19
3.87288e-19
3.87288e-19
3.87288e-19
3.87288e-19
3.87288e-19
3.87288e-19
3.87288e-19
3.87288e-19
3.87288e-19
3.87288e-19
3.87288e-19
3.87288e-19
3.87288e-19
3.87288e-19
3.87288e-19
3.87288e-19
3.87288e-19
3.87288e-19
3.87288e-19
3.87288e-19
3.87288e-19
3.87288e-19
3.87288e-19
3.87288e-19
3.87288e-19
3.87288e-19
3.87288e-19
3.87288e-19
3.87288e-19
3.87288e-19
3.87288e-19
3.87288e-19
3.87288e-19
3.87288e-19
3.87288e-19
3.87288e-19
3.87288e-19
3.87288e-19
3.87288e-19
3.87288e-19
3.87288e-19
3.87288e-19
3.87288e-19
3.87288e-19
3.87288e-19
3.87288e-19
3.87288e-19
3.87288e-19
3.87288e-19
3.87288e-19
3.87288e-19
3.87288e-19
3.87288e-19
3.87288e-19
3.87288e-19
3.87288e-19
3.87288e-19
3.87288e-19
3.87288e-19
3.87288e-19
3.87288e-19
3.87288e-19
3.87288e-19
3.87288e-19
3.87288e-19
3.87288e-19
3.87288e-19
3.87288e-19
3.87288e-19
3.87288e-19
3.87288e-19
3.87288e-19
3.87288e-19
3.87288e-19
3.87288e-19
3.87288e-19
3.87288e-19
3.87288e-19
3.87288e-19
3.87288e-19
3.87288e-19
3.87288e-19
3.87288e-19
3.87288e-19
3.87288e-19
3.87288e-19
3.87288e-19
3.87288e-19
3.87288e-19
3.87288e-19
3.87288e-19
3.87288e-19
3.87288e-19
3.87288e-19
3.87288e-19
3.87288e-19
3.87288e-19
3.87288e-19
3.87288e-19
3.87288e-19
3.87288e-19
3.87288e-19
3.87288e-19
3.87288e-19
3.87288e-19
3.87288e-19
3.87288e-19
3.87288e-19
3.87288e-19
3.87288e-19
3.87288e-19
3.87288e-19
3.87288e-19
3.87288e-19
3.87288e-19
3.87288e-19
3.87288e-19
3.87288e-19
3.87288e-19
3.87288e-19
3.87288e-19
3.87288e-19
3.87288e-19
3.87288e-19
3.87288e-19
3.87288e-19
3.87288e-19
3.87288e-19
3.87288e-19
3.87288e-19
3.87288e-19
3.87288e-19
3.87288e-19
3.87288e-19
3.87288e-19
3.87288e-19
3.87292e-19
3.87307e-19
3.87326e-19
3.87308e-19
3.87148e-19
3.87302e-19
3.89135e-19
3.98171e-19
4.11475e-19
3.85276e-19
1.71212e-19
-2.65467e-19
-3.55365e-19
3.70305e-18
1.19267e-17
-2.16086e-18
-8.65943e-17
-1.43739e-16
-7.03699e-17
1.68335e-18
5.68353e-18
9.39094e-19
1.1776e-19
3.52164e-19
3.7821e-19
3.79559e-19
3.83532e-19
3.86079e-19
3.86844e-19
3.87114e-19
3.87223e-19
3.87265e-19
3.8728e-19
3.87285e-19
3.87287e-19
3.87288e-19
3.87288e-19
3.87288e-19
3.87288e-19
3.87288e-19
3.87288e-19
3.87288e-19
3.87288e-19
3.87288e-19
3.87288e-19
3.87288e-19
3.87288e-19
3.87288e-19
3.87288e-19
3.87288e-19
3.87288e-19
3.87288e-19
3.87288e-19
3.87288e-19
3.87288e-19
3.87288e-19
3.87288e-19
3.87288e-19
3.87288e-19
3.87288e-19
3.87288e-19
3.87288e-19
3.87288e-19
3.87288e-19
3.87288e-19
3.87288e-19
3.87288e-19
3.87288e-19
3.87288e-19
3.87288e-19
3.87288e-19
3.87288e-19
3.87288e-19
3.87288e-19
3.87288e-19
3.87288e-19
3.87288e-19
3.87288e-19
3.87288e-19
3.87288e-19
3.87288e-19
3.87288e-19
3.87288e-19
3.87288e-19
3.87288e-19
)
;

boundaryField
{
    left
    {
        type            zeroGradient;
    }
    right
    {
        type            zeroGradient;
    }
    empty
    {
        type            empty;
    }
}


// ************************************************************************* //
