/*--------------------------------*- C++ -*----------------------------------*\
| =========                 |                                                 |
| \\      /  F ield         | OpenFOAM: The Open Source CFD Toolbox           |
|  \\    /   O peration     | Version:  v1706                                 |
|   \\  /    A nd           | Web:      www.OpenFOAM.com                      |
|    \\/     M anipulation  |                                                 |
\*---------------------------------------------------------------------------*/
FoamFile
{
    version     2.0;
    format      ascii;
    class       volScalarField;
    location    "300";
    object      pB;
}
// * * * * * * * * * * * * * * * * * * * * * * * * * * * * * * * * * * * * * //

dimensions      [1 1 -3 0 0 -1 0];


internalField   nonuniform List<scalar> 
800
(
2.1566e-13
2.1566e-13
2.1566e-13
2.1566e-13
2.1566e-13
2.1566e-13
2.1566e-13
2.1566e-13
2.1566e-13
2.1566e-13
2.1566e-13
2.1566e-13
2.1566e-13
2.1566e-13
2.1566e-13
2.1566e-13
2.1566e-13
2.1566e-13
2.1566e-13
2.1566e-13
2.1566e-13
2.1566e-13
2.1566e-13
2.1566e-13
2.1566e-13
2.1566e-13
2.1566e-13
2.1566e-13
2.1566e-13
2.1566e-13
2.1566e-13
2.1566e-13
2.1566e-13
2.1566e-13
2.1566e-13
2.1566e-13
2.1566e-13
2.1566e-13
2.1566e-13
2.1566e-13
2.1566e-13
2.1566e-13
2.1566e-13
2.1566e-13
2.1566e-13
2.1566e-13
2.1566e-13
2.1566e-13
2.1566e-13
2.1566e-13
2.1566e-13
2.1566e-13
2.1566e-13
2.1566e-13
2.1566e-13
2.1566e-13
2.1566e-13
2.1566e-13
2.1566e-13
2.1566e-13
2.1566e-13
2.1566e-13
2.1566e-13
2.1566e-13
2.1566e-13
2.1566e-13
2.1566e-13
2.1566e-13
2.1566e-13
2.1566e-13
2.1566e-13
2.1566e-13
2.1566e-13
2.1566e-13
2.1566e-13
2.1566e-13
2.1566e-13
2.1566e-13
2.1566e-13
2.1566e-13
2.1566e-13
2.1566e-13
2.1566e-13
2.1566e-13
2.1566e-13
2.1566e-13
2.1566e-13
2.1566e-13
2.1566e-13
2.1566e-13
2.1566e-13
2.1566e-13
2.1566e-13
2.1566e-13
2.1566e-13
2.1566e-13
2.1566e-13
2.1566e-13
2.1566e-13
2.1566e-13
2.1566e-13
2.1566e-13
2.1566e-13
2.1566e-13
2.1566e-13
2.1566e-13
2.1566e-13
2.1566e-13
2.1566e-13
2.1566e-13
2.1566e-13
2.1566e-13
2.1566e-13
2.1566e-13
2.1566e-13
2.1566e-13
2.1566e-13
2.1566e-13
2.1566e-13
2.1566e-13
2.1566e-13
2.1566e-13
2.1566e-13
2.1566e-13
2.1566e-13
2.1566e-13
2.1566e-13
2.1566e-13
2.1566e-13
2.1566e-13
2.1566e-13
2.1566e-13
2.1566e-13
2.1566e-13
2.1566e-13
2.1566e-13
2.1566e-13
2.1566e-13
2.1566e-13
2.1566e-13
2.1566e-13
2.1566e-13
2.1566e-13
2.1566e-13
2.1566e-13
2.1566e-13
2.1566e-13
2.1566e-13
2.1566e-13
2.1566e-13
2.1566e-13
2.1566e-13
2.1566e-13
2.1566e-13
2.1566e-13
2.1566e-13
2.1566e-13
2.1566e-13
2.1566e-13
2.1566e-13
2.1566e-13
2.1566e-13
2.1566e-13
2.1566e-13
2.1566e-13
2.1566e-13
2.1566e-13
2.1566e-13
2.1566e-13
2.1566e-13
2.1566e-13
2.1566e-13
2.1566e-13
2.1566e-13
2.1566e-13
2.1566e-13
2.1566e-13
2.1566e-13
2.1566e-13
2.1566e-13
2.1566e-13
2.1566e-13
2.1566e-13
2.1566e-13
2.1566e-13
2.1566e-13
2.1566e-13
2.1566e-13
2.1566e-13
2.1566e-13
2.1566e-13
2.1566e-13
2.1566e-13
2.1566e-13
2.1566e-13
2.1566e-13
2.1566e-13
2.1566e-13
2.1566e-13
2.1566e-13
2.1566e-13
2.1566e-13
2.1566e-13
2.1566e-13
2.1566e-13
2.1566e-13
2.1566e-13
2.1566e-13
2.1566e-13
2.1566e-13
2.1566e-13
2.1566e-13
2.1566e-13
2.1566e-13
2.1566e-13
2.1566e-13
2.1566e-13
2.1566e-13
2.1566e-13
2.1566e-13
2.1566e-13
2.1566e-13
2.1566e-13
2.1566e-13
2.1566e-13
2.1566e-13
2.1566e-13
2.1566e-13
2.1566e-13
2.1566e-13
2.1566e-13
2.1566e-13
2.1566e-13
2.1566e-13
2.1566e-13
2.1566e-13
2.1566e-13
2.1566e-13
2.1566e-13
2.1566e-13
2.1566e-13
2.1566e-13
2.1566e-13
2.1566e-13
2.1566e-13
2.1566e-13
2.1566e-13
2.1566e-13
2.1566e-13
2.1566e-13
2.1566e-13
2.1566e-13
2.1566e-13
2.1566e-13
2.1566e-13
2.1566e-13
2.1566e-13
2.1566e-13
2.1566e-13
2.1566e-13
2.1566e-13
2.1566e-13
2.1566e-13
2.1566e-13
2.1566e-13
2.1566e-13
2.1566e-13
2.1566e-13
2.1566e-13
2.1566e-13
2.1566e-13
2.1566e-13
2.1566e-13
2.1566e-13
2.1566e-13
2.1566e-13
2.1566e-13
2.1566e-13
2.1566e-13
2.1566e-13
2.1566e-13
2.1566e-13
2.1566e-13
2.1566e-13
2.1566e-13
2.1566e-13
2.1566e-13
2.1566e-13
2.1566e-13
2.1566e-13
2.1566e-13
2.1566e-13
2.1566e-13
2.1566e-13
2.1566e-13
2.1566e-13
2.1566e-13
2.1566e-13
2.1566e-13
2.1566e-13
2.1566e-13
2.1566e-13
2.1566e-13
2.1566e-13
2.1566e-13
2.1566e-13
2.1566e-13
2.1566e-13
2.1566e-13
2.1566e-13
2.1566e-13
2.1566e-13
2.1566e-13
2.1566e-13
2.1566e-13
2.1566e-13
2.1566e-13
2.1566e-13
2.15234e-13
2.14808e-13
2.14381e-13
2.13955e-13
2.14381e-13
2.16087e-13
2.19497e-13
2.2504e-13
2.33566e-13
2.45503e-13
2.60425e-13
2.7833e-13
2.98794e-13
3.20537e-13
3.43984e-13
3.68285e-13
3.93438e-13
4.18591e-13
4.42466e-13
4.65061e-13
4.85951e-13
5.04709e-13
5.20483e-13
5.33273e-13
5.42652e-13
5.48194e-13
5.49047e-13
5.44784e-13
5.34978e-13
5.19204e-13
4.96609e-13
4.66766e-13
4.29676e-13
3.85764e-13
3.34605e-13
2.77051e-13
2.13529e-13
1.44038e-13
7.02834e-14
-7.73419e-15
-8.91624e-14
-1.73149e-13
-2.5884e-13
-3.44105e-13
-4.28518e-13
-5.10798e-13
-5.89669e-13
-6.62997e-13
-7.2993e-13
-7.88763e-13
-8.38643e-13
-8.77865e-13
-9.06002e-13
-9.2135e-13
-9.23482e-13
-9.11545e-13
-8.85539e-13
-8.44611e-13
-7.89189e-13
-7.19272e-13
-6.34859e-13
-5.36804e-13
-4.2596e-13
-3.04457e-13
-1.72722e-13
-3.28874e-14
1.13769e-13
2.65541e-13
4.20297e-13
5.76332e-13
7.30662e-13
8.81155e-13
1.02696e-12
1.16509e-12
1.29341e-12
1.41022e-12
1.51382e-12
1.60292e-12
1.67583e-12
1.73167e-12
1.76919e-12
1.7888e-12
1.7888e-12
1.76962e-12
1.73167e-12
1.67583e-12
1.60292e-12
1.51382e-12
1.4098e-12
1.29213e-12
1.16381e-12
1.02525e-12
8.79023e-13
7.26825e-13
5.72069e-13
4.1646e-13
2.61704e-13
1.09505e-13
-3.80033e-14
-1.78691e-13
-3.10852e-13
-4.32781e-13
-5.43626e-13
-6.42107e-13
-7.27372e-13
-7.97716e-13
-8.53564e-13
-8.94492e-13
-9.20924e-13
-9.32861e-13
-9.30729e-13
-9.15381e-13
-8.88097e-13
-8.48448e-13
-7.98568e-13
-7.39735e-13
-6.72802e-13
-5.99474e-13
-5.20604e-13
-4.38323e-13
-3.53911e-13
-2.68645e-13
-1.82954e-13
-9.89679e-14
-1.71134e-14
6.13306e-14
1.35938e-13
2.05855e-13
2.69804e-13
3.27784e-13
3.78943e-13
4.23281e-13
4.60371e-13
4.89362e-13
5.11104e-13
5.26026e-13
5.34978e-13
5.37963e-13
5.36684e-13
5.31141e-13
5.21762e-13
5.08972e-13
4.93198e-13
4.7444e-13
4.53976e-13
4.32234e-13
4.09212e-13
3.85338e-13
3.61464e-13
3.38442e-13
3.167e-13
2.96236e-13
2.77478e-13
2.61277e-13
2.48061e-13
2.37829e-13
2.30582e-13
2.25892e-13
2.22908e-13
2.21629e-13
2.21203e-13
2.21629e-13
2.22055e-13
2.22482e-13
2.22908e-13
2.23334e-13
2.23761e-13
2.24187e-13
2.24613e-13
2.2504e-13
2.25466e-13
2.25892e-13
2.26319e-13
2.26745e-13
2.27171e-13
2.27598e-13
2.28024e-13
2.2845e-13
2.28877e-13
2.29303e-13
2.29729e-13
2.30156e-13
2.30582e-13
2.31008e-13
2.31434e-13
2.31861e-13
2.32287e-13
2.32713e-13
2.3314e-13
2.33566e-13
2.33992e-13
2.34419e-13
2.34845e-13
2.35271e-13
2.35698e-13
2.36124e-13
2.3655e-13
2.36977e-13
2.37403e-13
2.37829e-13
2.38256e-13
2.38682e-13
2.39108e-13
2.39535e-13
2.39961e-13
2.40387e-13
2.40814e-13
2.4124e-13
2.41666e-13
2.42093e-13
2.42519e-13
2.42945e-13
2.43372e-13
2.43798e-13
2.44224e-13
2.44651e-13
2.45077e-13
2.45503e-13
2.4593e-13
2.46356e-13
2.46782e-13
2.47209e-13
2.47635e-13
2.48061e-13
2.48488e-13
2.48914e-13
2.4934e-13
2.49766e-13
2.50193e-13
2.50619e-13
2.51045e-13
2.51472e-13
2.51898e-13
2.52324e-13
2.52751e-13
2.53177e-13
2.53603e-13
2.5403e-13
2.54456e-13
2.54882e-13
2.55309e-13
2.55735e-13
2.56161e-13
2.56588e-13
2.57014e-13
2.5744e-13
2.57867e-13
2.58293e-13
2.58719e-13
2.59146e-13
2.59572e-13
2.59998e-13
2.60425e-13
2.60851e-13
2.61277e-13
2.61704e-13
2.6213e-13
2.62556e-13
2.62983e-13
2.63409e-13
2.63835e-13
2.64262e-13
2.64688e-13
2.65114e-13
2.65541e-13
2.65967e-13
2.66393e-13
2.6682e-13
2.67246e-13
2.67672e-13
2.68099e-13
2.68525e-13
2.68951e-13
2.69377e-13
2.69804e-13
2.7023e-13
2.70656e-13
2.71083e-13
2.71509e-13
2.71935e-13
2.72362e-13
2.72788e-13
2.73214e-13
2.73641e-13
2.74067e-13
2.74493e-13
2.7492e-13
2.75346e-13
2.75772e-13
2.76199e-13
2.76625e-13
2.77051e-13
2.77478e-13
2.77904e-13
2.7833e-13
2.78757e-13
2.79183e-13
2.79609e-13
2.80036e-13
2.80462e-13
2.80888e-13
2.81315e-13
2.81741e-13
2.82167e-13
2.82594e-13
2.8302e-13
2.83446e-13
2.83873e-13
2.84299e-13
2.84725e-13
2.85152e-13
2.85578e-13
2.86004e-13
2.86431e-13
2.86857e-13
2.87283e-13
2.87709e-13
2.88136e-13
2.88562e-13
2.88988e-13
2.89415e-13
2.89841e-13
2.90267e-13
2.90694e-13
2.9112e-13
2.91546e-13
2.91973e-13
2.92399e-13
2.92825e-13
2.93252e-13
2.93678e-13
2.94104e-13
2.94531e-13
2.94957e-13
2.95383e-13
2.9581e-13
2.96236e-13
2.96662e-13
2.97089e-13
2.97515e-13
2.97941e-13
2.98368e-13
2.98794e-13
2.9922e-13
2.99647e-13
3.00073e-13
3.00499e-13
3.00926e-13
3.01352e-13
3.01778e-13
3.02205e-13
3.02631e-13
3.03057e-13
3.03484e-13
3.0391e-13
3.04336e-13
3.04763e-13
3.05189e-13
3.05615e-13
3.06041e-13
3.06468e-13
3.06894e-13
3.0732e-13
3.07747e-13
3.08173e-13
3.08599e-13
3.09026e-13
3.09452e-13
3.09878e-13
3.10305e-13
3.10731e-13
3.11157e-13
3.11584e-13
3.1201e-13
3.12436e-13
3.12863e-13
3.13289e-13
3.13715e-13
3.14142e-13
3.14568e-13
3.14994e-13
3.15421e-13
3.15847e-13
3.16273e-13
3.167e-13
3.17126e-13
3.17552e-13
3.17979e-13
3.18405e-13
3.18831e-13
3.19258e-13
3.19684e-13
3.2011e-13
3.20537e-13
3.20963e-13
3.21389e-13
3.21816e-13
3.22242e-13
3.22668e-13
3.23095e-13
3.23521e-13
3.23947e-13
3.24373e-13
3.248e-13
3.25226e-13
3.25652e-13
3.26079e-13
3.26505e-13
3.26931e-13
3.27358e-13
3.27784e-13
3.2821e-13
3.28637e-13
3.29063e-13
3.29489e-13
3.29916e-13
3.30768e-13
3.30768e-13
3.30768e-13
3.30768e-13
3.30768e-13
3.30768e-13
3.30768e-13
3.30768e-13
3.30768e-13
3.30768e-13
3.30768e-13
3.30768e-13
3.30768e-13
3.30768e-13
3.30768e-13
3.30768e-13
3.30768e-13
3.30768e-13
3.30768e-13
3.30768e-13
3.30768e-13
3.30768e-13
3.30768e-13
3.30768e-13
3.30768e-13
3.30768e-13
3.30768e-13
3.30768e-13
3.30768e-13
3.30768e-13
3.30768e-13
3.30768e-13
3.30768e-13
3.30768e-13
3.30768e-13
3.30768e-13
3.30768e-13
3.30768e-13
3.30768e-13
3.30768e-13
3.30768e-13
3.30768e-13
3.30768e-13
3.30768e-13
3.30768e-13
3.30768e-13
3.30768e-13
3.30768e-13
3.30768e-13
3.30768e-13
3.30768e-13
3.30768e-13
3.30768e-13
3.30768e-13
3.30768e-13
3.30768e-13
3.30768e-13
3.30768e-13
3.30768e-13
3.30768e-13
3.30768e-13
3.30768e-13
3.30768e-13
3.30768e-13
3.30768e-13
3.30768e-13
)
;

boundaryField
{
    left
    {
        type            zeroGradient;
    }
    right
    {
        type            zeroGradient;
    }
    empty
    {
        type            empty;
    }
}


// ************************************************************************* //
