/*--------------------------------*- C++ -*----------------------------------*\
| =========                 |                                                 |
| \\      /  F ield         | OpenFOAM: The Open Source CFD Toolbox           |
|  \\    /   O peration     | Version:  v1706                                 |
|   \\  /    A nd           | Web:      www.OpenFOAM.com                      |
|    \\/     M anipulation  |                                                 |
\*---------------------------------------------------------------------------*/
FoamFile
{
    version     2.0;
    format      ascii;
    class       surfaceScalarField;
    location    "300";
    object      phi;
}
// * * * * * * * * * * * * * * * * * * * * * * * * * * * * * * * * * * * * * //

dimensions      [0 3 -1 0 0 0 0];
oriented        oriented;


internalField   nonuniform List<scalar> 
799
(
-2.8026e-45
1.65287e-29
1.65287e-29
1.65287e-29
1.65287e-29
1.65287e-29
1.65287e-29
1.65287e-29
1.65287e-29
1.65287e-29
1.65287e-29
1.65287e-29
1.65287e-29
1.65287e-29
1.65287e-29
1.65287e-29
1.65287e-29
1.65287e-29
1.65287e-29
1.65287e-29
1.65287e-29
1.65287e-29
1.65287e-29
1.65287e-29
1.65287e-29
1.65287e-29
1.65287e-29
1.65287e-29
1.65287e-29
1.65287e-29
1.65287e-29
1.65287e-29
1.65287e-29
1.65287e-29
1.65287e-29
1.65287e-29
1.65287e-29
1.65287e-29
1.65287e-29
1.65287e-29
1.65287e-29
1.65287e-29
1.65287e-29
1.65287e-29
1.65287e-29
1.65287e-29
1.65287e-29
1.65287e-29
1.65287e-29
1.65287e-29
1.65287e-29
1.65287e-29
1.65287e-29
1.65287e-29
1.65287e-29
1.65287e-29
1.65287e-29
1.65287e-29
1.65287e-29
1.65287e-29
1.65287e-29
1.65287e-29
1.65287e-29
1.65287e-29
1.65287e-29
1.65287e-29
1.65287e-29
1.65287e-29
1.65287e-29
1.65287e-29
1.65287e-29
1.65287e-29
1.65287e-29
1.65287e-29
1.65287e-29
1.65287e-29
1.65287e-29
1.65287e-29
1.65287e-29
1.65287e-29
1.65287e-29
1.65287e-29
1.65287e-29
1.65287e-29
1.65287e-29
1.65287e-29
1.65287e-29
1.65287e-29
1.65287e-29
1.65287e-29
1.65287e-29
1.65287e-29
1.65287e-29
1.65287e-29
1.65287e-29
1.65287e-29
1.65287e-29
1.65287e-29
1.65287e-29
1.65287e-29
1.65287e-29
1.65287e-29
1.65287e-29
1.65287e-29
1.65287e-29
1.65287e-29
1.65287e-29
1.65287e-29
1.65287e-29
1.65287e-29
1.65287e-29
1.65287e-29
1.65287e-29
1.65287e-29
1.65287e-29
1.65287e-29
1.65287e-29
1.65287e-29
1.65287e-29
1.65287e-29
1.65287e-29
1.65287e-29
1.65287e-29
1.65287e-29
1.65287e-29
1.65287e-29
1.65287e-29
1.65287e-29
1.65287e-29
1.65287e-29
1.65287e-29
1.65287e-29
1.65287e-29
1.65287e-29
1.65287e-29
1.65287e-29
1.65287e-29
1.65287e-29
1.65287e-29
1.65287e-29
1.65287e-29
1.65287e-29
1.65287e-29
1.65287e-29
1.65287e-29
1.65287e-29
1.65287e-29
1.65287e-29
1.65287e-29
1.65287e-29
1.65287e-29
1.65287e-29
1.65287e-29
1.65287e-29
1.65287e-29
1.65287e-29
1.65287e-29
1.65287e-29
1.65287e-29
1.65287e-29
1.65287e-29
1.65287e-29
1.65287e-29
1.65287e-29
1.65287e-29
1.65287e-29
1.65287e-29
1.65287e-29
1.65287e-29
1.65287e-29
1.65287e-29
1.65287e-29
1.65287e-29
1.65287e-29
1.65287e-29
1.65287e-29
1.65287e-29
1.65287e-29
1.65287e-29
1.65287e-29
1.65287e-29
1.65287e-29
1.65287e-29
1.65287e-29
1.65287e-29
1.65287e-29
1.65287e-29
1.65287e-29
1.65287e-29
1.65287e-29
1.65287e-29
1.65287e-29
1.65287e-29
1.65287e-29
1.65287e-29
1.65287e-29
1.65287e-29
1.65287e-29
1.65287e-29
1.65287e-29
1.65287e-29
1.65287e-29
1.65287e-29
1.65287e-29
1.65287e-29
1.65287e-29
1.65287e-29
1.65287e-29
1.65287e-29
1.65287e-29
1.65287e-29
1.65287e-29
1.65287e-29
1.65287e-29
1.65287e-29
1.65287e-29
1.65287e-29
1.65287e-29
1.65287e-29
1.65287e-29
1.65287e-29
1.65287e-29
1.65287e-29
1.65287e-29
1.65287e-29
1.65287e-29
1.65287e-29
1.65287e-29
1.65287e-29
1.65287e-29
1.65287e-29
1.65287e-29
1.65287e-29
1.65287e-29
1.65287e-29
1.65287e-29
1.65287e-29
1.65287e-29
1.65287e-29
1.65287e-29
1.65287e-29
1.65287e-29
1.65287e-29
1.65287e-29
1.65287e-29
1.65287e-29
1.65287e-29
1.65287e-29
1.65287e-29
1.65287e-29
1.65287e-29
1.65287e-29
1.65287e-29
1.65287e-29
1.65287e-29
1.65287e-29
1.65287e-29
1.65287e-29
1.65287e-29
1.65287e-29
1.65287e-29
1.65287e-29
1.65287e-29
1.65287e-29
1.65287e-29
1.65287e-29
1.65287e-29
1.65287e-29
1.65287e-29
1.65287e-29
1.65287e-29
1.65287e-29
1.65287e-29
1.65287e-29
1.65287e-29
1.65287e-29
1.65287e-29
1.65287e-29
1.65287e-29
1.65287e-29
1.65287e-29
1.65287e-29
1.65287e-29
1.65287e-29
1.65287e-29
1.65287e-29
1.65287e-29
1.65287e-29
1.65287e-29
1.65287e-29
1.65287e-29
1.65287e-29
1.65287e-29
1.65287e-29
1.65287e-29
1.65287e-29
1.65287e-29
1.65287e-29
1.65287e-29
1.65287e-29
1.65287e-29
1.65287e-29
1.65287e-29
1.65287e-29
1.65287e-29
1.65287e-29
1.65287e-29
1.65287e-29
1.65287e-29
1.65286e-29
1.65287e-29
1.65283e-29
1.65291e-29
1.65229e-29
1.65168e-29
1.65168e-29
1.69605e-29
1.61716e-29
1.89327e-29
1.10441e-29
1.26218e-29
1.73549e-29
1.89327e-29
1.41995e-29
9.46633e-30
1.26218e-29
6.5081e-30
6.31089e-30
1.02552e-29
6.31089e-30
7.88861e-30
4.73317e-30
6.31089e-30
3.15544e-30
3.8457e-30
9.46633e-30
7.88861e-30
6.31089e-30
3.15544e-30
3.15544e-30
7.88861e-30
9.46633e-30
1.10441e-29
-3.15544e-30
0
6.70532e-30
1.26218e-29
1.41995e-29
6.31089e-30
4.33873e-30
1.2819e-29
8.28304e-30
4.73317e-30
6.31089e-30
9.46633e-30
1.10441e-29
9.46633e-30
6.31089e-30
3.15544e-30
0
3.15544e-30
6.31089e-30
7.88861e-30
9.46633e-30
2.76101e-30
1.57772e-29
1.10441e-29
9.66355e-30
1.02552e-29
9.0719e-30
8.67747e-30
8.67747e-30
8.28304e-30
9.46633e-30
8.08582e-30
7.88861e-30
7.79e-30
6.31089e-30
6.31089e-30
0
-6.31089e-30
7.88861e-30
3.15544e-30
3.15544e-30
3.15544e-30
1.57772e-30
0
3.15544e-30
3.15544e-30
1.18329e-30
3.15544e-30
4.73317e-30
4.73317e-30
0
9.46633e-30
2.36658e-30
-1.57772e-30
0
3.9443e-30
3.15544e-30
3.15544e-30
3.15544e-30
3.15544e-30
0
0
-6.31089e-30
-3.15544e-30
-6.31089e-30
-3.15544e-30
-1.57772e-29
-1.26218e-29
-1.2178e-29
-1.26218e-29
-1.24246e-29
-1.26218e-29
-1.57772e-29
-1.41995e-29
-1.26218e-29
-1.26218e-29
-1.26218e-29
-1.57772e-29
-1.26218e-29
-1.57772e-29
-1.26218e-29
-1.26218e-29
-9.46633e-30
-7.88861e-30
-9.46633e-30
-9.46633e-30
-1.10441e-29
-9.46633e-30
-6.31089e-30
-1.26218e-29
-1.26218e-29
-1.14385e-29
-9.46633e-30
-1.10441e-29
-1.16357e-29
-9.46633e-30
-1.06496e-29
-1.57772e-29
-1.26218e-29
-1.53828e-29
-1.30162e-29
-1.38051e-29
-1.26218e-29
-1.57772e-29
-1.57772e-29
-1.57772e-29
-1.54814e-29
-1.26218e-29
-1.61716e-29
-1.26218e-29
-1.57772e-29
-2.05104e-29
-1.89327e-29
-1.89327e-29
-1.91792e-29
-1.73549e-29
-1.89327e-29
-1.41995e-29
-1.26218e-29
-1.47911e-29
-1.41995e-29
-1.41995e-29
-1.26218e-29
-1.57772e-29
-1.46925e-29
-1.26218e-29
-1.57772e-29
-1.85382e-29
-1.26218e-29
-1.10441e-29
-1.57772e-29
-2.36658e-30
-1.73549e-29
-1.14385e-29
-7.88861e-30
-7.88861e-30
-6.31089e-30
-6.31089e-30
-6.70532e-30
-6.4588e-30
-6.4588e-30
-6.45264e-30
-6.46111e-30
-6.45418e-30
-6.44936e-30
-6.45629e-30
-6.45211e-30
-6.4674e-30
-6.44899e-30
-6.45476e-30
-6.44907e-30
-6.45285e-30
-6.45354e-30
-6.45961e-30
-6.45774e-30
-6.44732e-30
-6.44638e-30
-6.4618e-30
-6.46271e-30
-6.45636e-30
-6.43955e-30
-6.45319e-30
-6.45352e-30
-6.45918e-30
-6.44976e-30
-6.44749e-30
-6.45151e-30
-6.46151e-30
-6.45255e-30
-6.45748e-30
-6.44307e-30
-6.45886e-30
-6.45605e-30
-6.46105e-30
-6.44887e-30
-6.45064e-30
-6.45645e-30
-6.4535e-30
-6.4543e-30
-6.45524e-30
-6.45031e-30
-6.45066e-30
-6.45655e-30
-6.46025e-30
-6.44969e-30
-6.44878e-30
-6.46074e-30
-6.45323e-30
-6.44169e-30
-6.45203e-30
-6.46463e-30
-6.4433e-30
-6.46641e-30
-6.44881e-30
-6.45284e-30
-6.46218e-30
-6.4449e-30
-6.46446e-30
-6.44947e-30
-6.45096e-30
-6.45e-30
-6.45926e-30
-6.45799e-30
-6.43558e-30
-6.46412e-30
-6.45145e-30
-6.45817e-30
-6.44612e-30
-6.45448e-30
-6.46318e-30
-6.44673e-30
-6.46356e-30
-6.45005e-30
-6.44706e-30
-6.46849e-30
-6.43962e-30
-6.45905e-30
-6.44878e-30
-6.45924e-30
-6.44114e-30
-6.46188e-30
-6.45295e-30
-6.45672e-30
-6.44596e-30
-6.46527e-30
-6.44833e-30
-6.45231e-30
-6.45399e-30
-6.45872e-30
-6.45284e-30
-6.44862e-30
-6.45877e-30
-6.45184e-30
-6.46328e-30
-6.45216e-30
-6.44183e-30
-6.45359e-30
-6.45725e-30
-6.45985e-30
-6.45788e-30
-6.43905e-30
-6.46118e-30
-6.4568e-30
-6.44838e-30
-6.44765e-30
-6.44561e-30
-6.4732e-30
-6.45881e-30
-6.4475e-30
-6.44526e-30
-6.45412e-30
-6.46308e-30
-6.45552e-30
-6.44909e-30
-6.45814e-30
-6.44974e-30
-6.45466e-30
-6.43934e-30
-6.46894e-30
-6.45886e-30
-6.43876e-30
-6.45717e-30
-6.45532e-30
-6.45483e-30
-6.45244e-30
-6.4568e-30
-6.45953e-30
-6.44623e-30
-6.45011e-30
-6.45152e-30
-6.45726e-30
-6.44573e-30
-6.46596e-30
-6.45706e-30
-6.4627e-30
-6.44534e-30
-6.44017e-30
-6.46253e-30
-6.46687e-30
-6.42686e-30
-6.46719e-30
-6.46376e-30
-6.43321e-30
-6.47518e-30
-6.44058e-30
-6.44627e-30
-6.47407e-30
-6.43686e-30
-6.47055e-30
-6.44228e-30
-6.45515e-30
-6.4538e-30
-6.43956e-30
-6.46728e-30
-6.46189e-30
-6.43244e-30
-6.46958e-30
-6.44632e-30
-6.46244e-30
-6.45002e-30
-6.45802e-30
-6.4477e-30
-6.45967e-30
-6.45185e-30
-6.45771e-30
-6.45167e-30
-6.45382e-30
-6.43698e-30
-6.45755e-30
-6.46025e-30
-6.46917e-30
-6.42521e-30
-6.48054e-30
-6.43742e-30
-6.45179e-30
-6.4502e-30
-6.46118e-30
-6.45091e-30
-6.44958e-30
-6.4662e-30
-6.44718e-30
-6.45217e-30
-6.45984e-30
-6.45408e-30
-6.44723e-30
-6.44501e-30
-6.45808e-30
-6.46263e-30
-6.46467e-30
-6.45757e-30
-6.43536e-30
-6.45683e-30
-6.46232e-30
-6.43789e-30
-6.45712e-30
-6.4567e-30
-6.45344e-30
-6.45347e-30
-6.4694e-30
-6.44319e-30
-6.45634e-30
-6.45034e-30
-6.45473e-30
-6.44115e-30
-6.45866e-30
-6.4495e-30
-6.46687e-30
-6.44092e-30
-6.46502e-30
-6.44928e-30
-6.46693e-30
-6.44324e-30
-6.45595e-30
-6.44653e-30
-6.46075e-30
-6.46682e-30
-6.44603e-30
-6.43971e-30
-6.44486e-30
-6.46682e-30
-6.45404e-30
-6.45885e-30
-6.45386e-30
-6.45853e-30
-6.45059e-30
-6.45237e-30
-6.43741e-30
-6.46449e-30
-6.45135e-30
-6.4544e-30
-6.45543e-30
-6.46204e-30
-6.43928e-30
-6.46443e-30
-6.45223e-30
-6.46133e-30
-6.43911e-30
-6.4613e-30
-6.43646e-30
-6.47421e-30
-6.43723e-30
-6.43415e-30
-6.4588e-30
-6.46496e-30
-6.70532e-30
-6.70532e-30
-5.52203e-30
-6.31089e-30
-6.31089e-30
-3.15544e-30
0
0
-1.97215e-31
-7.39557e-32
3.69779e-32
-1.07852e-32
-1.20852e-32
-3.65927e-33
-1.48297e-32
-1.56963e-32
7.94446e-34
-2.32556e-32
-1.90938e-32
-1.70234e-32
-4.00101e-33
-1.16205e-32
-2.25837e-32
-9.22138e-33
-1.48152e-32
-6.89647e-33
-1.64417e-32
7.75149e-33
-1.52964e-32
-1.35484e-32
-1.60829e-32
-1.39408e-32
-1.08341e-32
-2.22481e-33
-2.56195e-32
-1.60655e-32
-7.55312e-33
-1.76897e-32
-1.38295e-32
5.88726e-35
-1.51588e-32
-1.61916e-32
-1.38207e-32
-4.19257e-33
-2.55811e-32
9.36188e-33
-2.78397e-32
-1.05943e-32
-1.08044e-32
-1.27538e-32
-1.62315e-32
-1.10588e-32
-4.67416e-33
-2.54215e-32
-9.81551e-33
4.51475e-33
-2.52158e-32
-1.16275e-32
-1.27173e-32
-1.73922e-33
-2.38761e-32
-1.52912e-32
-1.09091e-32
-5.08001e-33
-1.8596e-32
-1.25904e-32
-8.66404e-33
-7.59658e-33
-1.59779e-32
-1.34866e-33
-9.62998e-33
-8.45774e-33
)
;

boundaryField
{
    left
    {
        type            calculated;
        value           uniform 0;
    }
    right
    {
        type            calculated;
        value           uniform 0;
    }
    empty
    {
        type            empty;
        value           nonuniform 0();
    }
}


// ************************************************************************* //
