/*--------------------------------*- C++ -*----------------------------------*\
| =========                 |                                                 |
| \\      /  F ield         | OpenFOAM: The Open Source CFD Toolbox           |
|  \\    /   O peration     | Version:  v1706                                 |
|   \\  /    A nd           | Web:      www.OpenFOAM.com                      |
|    \\/     M anipulation  |                                                 |
\*---------------------------------------------------------------------------*/
FoamFile
{
    version     2.0;
    format      ascii;
    class       volVectorField;
    location    "300";
    object      U;
}
// * * * * * * * * * * * * * * * * * * * * * * * * * * * * * * * * * * * * * //

dimensions      [0 1 -1 0 0 0 0];


internalField   nonuniform List<vector> 
800
(
(-1.48605e-33 0 0)
(1.07393e-32 0 0)
(2.08759e-32 0 0)
(1.89507e-32 0 0)
(2.13647e-32 0 0)
(2.03142e-32 0 0)
(2.06294e-32 0 0)
(2.06612e-32 0 0)
(2.06663e-32 0 0)
(2.06597e-32 0 0)
(2.06611e-32 0 0)
(2.06606e-32 0 0)
(2.06608e-32 0 0)
(2.06608e-32 0 0)
(2.06608e-32 0 0)
(2.06608e-32 0 0)
(2.06608e-32 0 0)
(2.06608e-32 0 0)
(2.06608e-32 0 0)
(2.06608e-32 0 0)
(2.06608e-32 0 0)
(2.06608e-32 0 0)
(2.06608e-32 0 0)
(2.06608e-32 0 0)
(2.06608e-32 0 0)
(2.06608e-32 0 0)
(2.06608e-32 0 0)
(2.06608e-32 0 0)
(2.06608e-32 0 0)
(2.06608e-32 0 0)
(2.06608e-32 0 0)
(2.06608e-32 0 0)
(2.06608e-32 0 0)
(2.06608e-32 0 0)
(2.06608e-32 0 0)
(2.06608e-32 0 0)
(2.06608e-32 0 0)
(2.06608e-32 0 0)
(2.06608e-32 0 0)
(2.06608e-32 0 0)
(2.06608e-32 0 0)
(2.06608e-32 0 0)
(2.06608e-32 0 0)
(2.06608e-32 0 0)
(2.06608e-32 0 0)
(2.06608e-32 0 0)
(2.06608e-32 0 0)
(2.06608e-32 0 0)
(2.06608e-32 0 0)
(2.06608e-32 0 0)
(2.06608e-32 0 0)
(2.06608e-32 0 0)
(2.06608e-32 0 0)
(2.06608e-32 0 0)
(2.06608e-32 0 0)
(2.06608e-32 0 0)
(2.06608e-32 0 0)
(2.06608e-32 0 0)
(2.06608e-32 0 0)
(2.06608e-32 0 0)
(2.06608e-32 0 0)
(2.06608e-32 0 0)
(2.06608e-32 0 0)
(2.06608e-32 0 0)
(2.06608e-32 0 0)
(2.06608e-32 0 0)
(2.06608e-32 0 0)
(2.06608e-32 0 0)
(2.06608e-32 0 0)
(2.06608e-32 0 0)
(2.06608e-32 0 0)
(2.06608e-32 0 0)
(2.06608e-32 0 0)
(2.06608e-32 0 0)
(2.06608e-32 0 0)
(2.06608e-32 0 0)
(2.06608e-32 0 0)
(2.06608e-32 0 0)
(2.06608e-32 0 0)
(2.06608e-32 0 0)
(2.06608e-32 0 0)
(2.06608e-32 0 0)
(2.06608e-32 0 0)
(2.06608e-32 0 0)
(2.06608e-32 0 0)
(2.06608e-32 0 0)
(2.06608e-32 0 0)
(2.06608e-32 0 0)
(2.06608e-32 0 0)
(2.06608e-32 0 0)
(2.06608e-32 0 0)
(2.06608e-32 0 0)
(2.06608e-32 0 0)
(2.06608e-32 0 0)
(2.06608e-32 0 0)
(2.06608e-32 0 0)
(2.06608e-32 0 0)
(2.06608e-32 0 0)
(2.06608e-32 0 0)
(2.06608e-32 0 0)
(2.06608e-32 0 0)
(2.06608e-32 0 0)
(2.06608e-32 0 0)
(2.06608e-32 0 0)
(2.06608e-32 0 0)
(2.06608e-32 0 0)
(2.06608e-32 0 0)
(2.06608e-32 0 0)
(2.06608e-32 0 0)
(2.06608e-32 0 0)
(2.06608e-32 0 0)
(2.06608e-32 0 0)
(2.06608e-32 0 0)
(2.06608e-32 0 0)
(2.06608e-32 0 0)
(2.06608e-32 0 0)
(2.06608e-32 0 0)
(2.06608e-32 0 0)
(2.06608e-32 0 0)
(2.06608e-32 0 0)
(2.06608e-32 0 0)
(2.06608e-32 0 0)
(2.06608e-32 0 0)
(2.06608e-32 0 0)
(2.06608e-32 0 0)
(2.06608e-32 0 0)
(2.06608e-32 0 0)
(2.06608e-32 0 0)
(2.06608e-32 0 0)
(2.06608e-32 0 0)
(2.06608e-32 0 0)
(2.06608e-32 0 0)
(2.06608e-32 0 0)
(2.06608e-32 0 0)
(2.06608e-32 0 0)
(2.06608e-32 0 0)
(2.06608e-32 0 0)
(2.06608e-32 0 0)
(2.06608e-32 0 0)
(2.06608e-32 0 0)
(2.06608e-32 0 0)
(2.06608e-32 0 0)
(2.06608e-32 0 0)
(2.06608e-32 0 0)
(2.06608e-32 0 0)
(2.06608e-32 0 0)
(2.06608e-32 0 0)
(2.06608e-32 0 0)
(2.06608e-32 0 0)
(2.06608e-32 0 0)
(2.06608e-32 0 0)
(2.06608e-32 0 0)
(2.06608e-32 0 0)
(2.06608e-32 0 0)
(2.06608e-32 0 0)
(2.06608e-32 0 0)
(2.06608e-32 0 0)
(2.06608e-32 0 0)
(2.06608e-32 0 0)
(2.06608e-32 0 0)
(2.06608e-32 0 0)
(2.06608e-32 0 0)
(2.06608e-32 0 0)
(2.06608e-32 0 0)
(2.06608e-32 0 0)
(2.06608e-32 0 0)
(2.06608e-32 0 0)
(2.06608e-32 0 0)
(2.06608e-32 0 0)
(2.06608e-32 0 0)
(2.06608e-32 0 0)
(2.06608e-32 0 0)
(2.06608e-32 0 0)
(2.06608e-32 0 0)
(2.06608e-32 0 0)
(2.06608e-32 0 0)
(2.06608e-32 0 0)
(2.06608e-32 0 0)
(2.06608e-32 0 0)
(2.06608e-32 0 0)
(2.06608e-32 0 0)
(2.06608e-32 0 0)
(2.06608e-32 0 0)
(2.06608e-32 0 0)
(2.06608e-32 0 0)
(2.06608e-32 0 0)
(2.06608e-32 0 0)
(2.06608e-32 0 0)
(2.06608e-32 0 0)
(2.06608e-32 0 0)
(2.06608e-32 0 0)
(2.06608e-32 0 0)
(2.06608e-32 0 0)
(2.06608e-32 0 0)
(2.06608e-32 0 0)
(2.06608e-32 0 0)
(2.06608e-32 0 0)
(2.06608e-32 0 0)
(2.06608e-32 0 0)
(2.06608e-32 0 0)
(2.06608e-32 0 0)
(2.06608e-32 0 0)
(2.06608e-32 0 0)
(2.06608e-32 0 0)
(2.06608e-32 0 0)
(2.06608e-32 0 0)
(2.06608e-32 0 0)
(2.06608e-32 0 0)
(2.06608e-32 0 0)
(2.06608e-32 0 0)
(2.06608e-32 0 0)
(2.06608e-32 0 0)
(2.06608e-32 0 0)
(2.06608e-32 0 0)
(2.06608e-32 0 0)
(2.06608e-32 0 0)
(2.06608e-32 0 0)
(2.06608e-32 0 0)
(2.06608e-32 0 0)
(2.06608e-32 0 0)
(2.06608e-32 0 0)
(2.06608e-32 0 0)
(2.06608e-32 0 0)
(2.06608e-32 0 0)
(2.06608e-32 0 0)
(2.06608e-32 0 0)
(2.06608e-32 0 0)
(2.06608e-32 0 0)
(2.06608e-32 0 0)
(2.06608e-32 0 0)
(2.06608e-32 0 0)
(2.06608e-32 0 0)
(2.06608e-32 0 0)
(2.06608e-32 0 0)
(2.06608e-32 0 0)
(2.06608e-32 0 0)
(2.06608e-32 0 0)
(2.06608e-32 0 0)
(2.06608e-32 0 0)
(2.06608e-32 0 0)
(2.06608e-32 0 0)
(2.06608e-32 0 0)
(2.06608e-32 0 0)
(2.06608e-32 0 0)
(2.06608e-32 0 0)
(2.06608e-32 0 0)
(2.06608e-32 0 0)
(2.06608e-32 0 0)
(2.06608e-32 0 0)
(2.06608e-32 0 0)
(2.06608e-32 0 0)
(2.06608e-32 0 0)
(2.06608e-32 0 0)
(2.06608e-32 0 0)
(2.06608e-32 0 0)
(2.06608e-32 0 0)
(2.06608e-32 0 0)
(2.06608e-32 0 0)
(2.06608e-32 0 0)
(2.06608e-32 0 0)
(2.06608e-32 0 0)
(2.06608e-32 0 0)
(2.06608e-32 0 0)
(2.06608e-32 0 0)
(2.06608e-32 0 0)
(2.06608e-32 0 0)
(2.06608e-32 0 0)
(2.06608e-32 0 0)
(2.06608e-32 0 0)
(2.06608e-32 0 0)
(2.06608e-32 0 0)
(2.06608e-32 0 0)
(2.06608e-32 0 0)
(2.06608e-32 0 0)
(2.06608e-32 0 0)
(2.06608e-32 0 0)
(2.06609e-32 0 0)
(2.06608e-32 0 0)
(2.06605e-32 0 0)
(2.06605e-32 0 0)
(2.0663e-32 0 0)
(2.06679e-32 0 0)
(2.06532e-32 0 0)
(2.05791e-32 0 0)
(2.05862e-32 0 0)
(2.13067e-32 0 0)
(2.25446e-32 0 0)
(1.79063e-32 0 0)
(-2.30939e-33 0 0)
(5.413e-33 0 0)
(2.12538e-31 0 0)
(5.13862e-31 0 0)
(-9.18861e-31 0 0)
(-6.39048e-30 0 0)
(-2.60967e-30 0 0)
(5.65044e-29 0 0)
(1.27421e-28 0 0)
(-3.08837e-28 0 0)
(-1.77603e-27 0 0)
(-2.65037e-28 0 0)
(1.64856e-26 0 0)
(3.23793e-26 0 0)
(-9.88502e-26 0 0)
(-4.88254e-25 0 0)
(6.0273e-26 0 0)
(4.77301e-24 0 0)
(8.06563e-24 0 0)
(-3.09902e-23 0 0)
(-1.33151e-22 0 0)
(5.49684e-23 0 0)
(1.37141e-21 0 0)
(1.95701e-21 0 0)
(-9.56228e-21 0 0)
(-3.59882e-20 0 0)
(2.7042e-20 0 0)
(3.93745e-19 0 0)
(3.83862e-19 0 0)
(-3.39236e-18 0 0)
(-7.09628e-18 0 0)
(3.36021e-17 0 0)
(-2.7127e-17 0 0)
(-7.73052e-18 0 0)
(3.22112e-18 0 0)
(3.52483e-17 0 0)
(-5.50714e-17 0 0)
(3.03778e-17 0 0)
(1.26056e-17 0 0)
(-1.55996e-17 0 0)
(-1.17706e-17 0 0)
(1.54181e-17 0 0)
(-7.13867e-18 0 0)
(1.13091e-17 0 0)
(1.8431e-18 0 0)
(-1.8169e-17 0 0)
(5.6053e-18 0 0)
(-2.35127e-18 0 0)
(1.33961e-17 0 0)
(4.77856e-18 0 0)
(-2.62837e-17 0 0)
(1.11591e-18 0 0)
(3.16764e-17 0 0)
(-1.7226e-17 0 0)
(-1.51274e-17 0 0)
(9.67516e-18 0 0)
(5.84552e-19 0 0)
(2.84285e-17 0 0)
(-2.50182e-17 0 0)
(-1.98331e-17 0 0)
(2.38582e-17 0 0)
(-3.1276e-18 0 0)
(2.36317e-19 0 0)
(-4.58827e-18 0 0)
(8.71379e-19 0 0)
(5.36868e-18 0 0)
(7.65023e-18 0 0)
(-2.62923e-17 0 0)
(1.04047e-17 0 0)
(9.27456e-18 0 0)
(1.0811e-17 0 0)
(-5.70462e-18 0 0)
(-3.00677e-17 0 0)
(1.1375e-17 0 0)
(3.25638e-17 0 0)
(-2.58191e-17 0 0)
(-9.16601e-18 0 0)
(1.06574e-17 0 0)
(7.60368e-18 0 0)
(-6.54969e-18 0 0)
(5.70642e-18 0 0)
(-1.3292e-17 0 0)
(1.04347e-17 0 0)
(1.44541e-18 0 0)
(-1.05618e-17 0 0)
(2.04968e-17 0 0)
(-3.54387e-17 0 0)
(3.71348e-17 0 0)
(-2.46074e-17 0 0)
(4.29799e-18 0 0)
(1.66853e-17 0 0)
(1.12609e-18 0 0)
(-3.1838e-17 0 0)
(2.50353e-17 0 0)
(-2.09924e-17 0 0)
(2.32925e-17 0 0)
(-8.60952e-18 0 0)
(1.35526e-17 0 0)
(-2.33675e-17 0 0)
(-4.53637e-18 0 0)
(2.66454e-17 0 0)
(-8.74533e-18 0 0)
(-5.36173e-18 0 0)
(4.42803e-18 0 0)
(-4.82417e-18 0 0)
(1.38039e-17 0 0)
(-2.69799e-17 0 0)
(1.86309e-17 0 0)
(-1.09327e-17 0 0)
(1.44068e-17 0 0)
(-7.64565e-18 0 0)
(-1.29952e-18 0 0)
(1.16386e-17 0 0)
(-1.40876e-17 0 0)
(7.03667e-18 0 0)
(5.52626e-18 0 0)
(-2.18574e-17 0 0)
(5.9007e-18 0 0)
(2.76996e-17 0 0)
(-1.52924e-17 0 0)
(-1.31113e-17 0 0)
(-6.05251e-18 0 0)
(2.73272e-17 0 0)
(-1.12396e-17 0 0)
(-1.7284e-18 0 0)
(6.68982e-19 0 0)
(3.74019e-18 0 0)
(-5.01577e-18 0 0)
(-1.11768e-17 0 0)
(1.72332e-17 0 0)
(1.05031e-17 0 0)
(-2.85515e-17 0 0)
(1.05142e-17 0 0)
(5.78245e-18 0 0)
(3.82472e-18 0 0)
(-9.74838e-18 0 0)
(-1.01876e-17 0 0)
(1.60337e-17 0 0)
(1.2131e-17 0 0)
(-2.42498e-17 0 0)
(6.22944e-18 0 0)
(1.32972e-17 0 0)
(-1.79284e-17 0 0)
(1.4188e-18 0 0)
(3.96852e-18 0 0)
(1.94914e-18 0 0)
(1.23487e-17 0 0)
(-1.68178e-17 0 0)
(-6.18141e-19 0 0)
(1.26743e-17 0 0)
(-4.39966e-18 0 0)
(-1.52446e-17 0 0)
(1.10219e-17 0 0)
(1.05108e-17 0 0)
(-1.41047e-17 0 0)
(9.04632e-18 0 0)
(-1.24073e-17 0 0)
(2.49667e-17 0 0)
(-2.7311e-17 0 0)
(7.67068e-19 0 0)
(1.08062e-17 0 0)
(1.26689e-17 0 0)
(-1.4429e-17 0 0)
(-1.42357e-17 0 0)
(1.75954e-17 0 0)
(1.93793e-17 0 0)
(-4.9586e-17 0 0)
(3.39516e-17 0 0)
(-8.7235e-18 0 0)
(1.22472e-17 0 0)
(-1.26508e-17 0 0)
(1.04893e-17 0 0)
(-3.04477e-17 0 0)
(3.15476e-17 0 0)
(-5.50155e-18 0 0)
(1.81101e-18 0 0)
(-1.22277e-17 0 0)
(2.94513e-20 0 0)
(1.19715e-17 0 0)
(-2.42023e-18 0 0)
(8.2795e-18 0 0)
(-2.1775e-17 0 0)
(6.55688e-18 0 0)
(-5.6058e-18 0 0)
(2.8296e-17 0 0)
(-1.76015e-17 0 0)
(-1.40432e-17 0 0)
(1.79083e-17 0 0)
(-1.57594e-18 0 0)
(2.44868e-19 0 0)
(-2.05688e-17 0 0)
(2.74404e-17 0 0)
(-8.13001e-18 0 0)
(-2.95659e-18 0 0)
(5.04139e-19 0 0)
(3.66263e-19 0 0)
(1.07327e-20 0 0)
(-3.61851e-20 0 0)
(-7.89902e-21 0 0)
(2.2917e-21 0 0)
(1.26068e-21 0 0)
(-1.03672e-24 0 0)
(-1.32173e-22 0 0)
(-2.49417e-23 0 0)
(9.10971e-24 0 0)
(4.33769e-24 0 0)
(-1.31548e-25 0 0)
(-4.79041e-25 0 0)
(-7.7022e-26 0 0)
(3.55522e-26 0 0)
(1.48016e-26 0 0)
(-9.16578e-28 0 0)
(-1.72331e-27 0 0)
(-2.3067e-28 0 0)
(1.36686e-28 0 0)
(5.00475e-29 0 0)
(-4.83135e-30 0 0)
(-6.16249e-30 0 0)
(-6.69537e-31 0 0)
(5.10855e-31 0 0)
(1.59542e-31 0 0)
(-3.06178e-32 0 0)
(-2.98811e-32 0 0)
(-9.84598e-33 0 0)
(-6.1067e-33 0 0)
(-7.53002e-33 0 0)
(-8.13694e-33 0 0)
(-8.16127e-33 0 0)
(-8.0678e-33 0 0)
(-8.07812e-33 0 0)
(-8.06488e-33 0 0)
(-8.06667e-33 0 0)
(-8.07235e-33 0 0)
(-8.05942e-33 0 0)
(-8.0823e-33 0 0)
(-8.03049e-33 0 0)
(-8.09803e-33 0 0)
(-8.04882e-33 0 0)
(-8.08155e-33 0 0)
(-8.05502e-33 0 0)
(-8.06943e-33 0 0)
(-8.06692e-33 0 0)
(-8.05959e-33 0 0)
(-8.05726e-33 0 0)
(-8.07761e-33 0 0)
(-8.05665e-33 0 0)
(-8.0766e-33 0 0)
(-8.06277e-33 0 0)
(-8.08802e-33 0 0)
(-8.06279e-33 0 0)
(-8.06481e-33 0 0)
(-8.06432e-33 0 0)
(-8.07809e-33 0 0)
(-8.05975e-33 0 0)
(-8.07224e-33 0 0)
(-8.06054e-33 0 0)
(-8.08619e-33 0 0)
(-8.04347e-33 0 0)
(-8.08941e-33 0 0)
(-8.0388e-33 0 0)
(-8.0804e-33 0 0)
(-8.07012e-33 0 0)
(-8.05572e-33 0 0)
(-8.07999e-33 0 0)
(-8.06073e-33 0 0)
(-8.07325e-33 0 0)
(-8.06792e-33 0 0)
(-8.05832e-33 0 0)
(-8.07062e-33 0 0)
(-8.0759e-33 0 0)
(-8.06965e-33 0 0)
(-8.03879e-33 0 0)
(-8.09551e-33 0 0)
(-8.06492e-33 0 0)
(-8.05066e-33 0 0)
(-8.08861e-33 0 0)
(-8.03301e-33 0 0)
(-8.08971e-33 0 0)
(-8.05473e-33 0 0)
(-8.07491e-33 0 0)
(-8.04958e-33 0 0)
(-8.10908e-33 0 0)
(-8.04666e-33 0 0)
(-8.07012e-33 0 0)
(-8.0744e-33 0 0)
(-8.06031e-33 0 0)
(-8.04372e-33 0 0)
(-8.08567e-33 0 0)
(-8.06515e-33 0 0)
(-8.07727e-33 0 0)
(-8.07093e-33 0 0)
(-8.04605e-33 0 0)
(-8.07562e-33 0 0)
(-8.05084e-33 0 0)
(-8.10174e-33 0 0)
(-8.05604e-33 0 0)
(-8.06479e-33 0 0)
(-8.06092e-33 0 0)
(-8.07301e-33 0 0)
(-8.04926e-33 0 0)
(-8.06884e-33 0 0)
(-8.09813e-33 0 0)
(-8.06032e-33 0 0)
(-8.05497e-33 0 0)
(-8.07834e-33 0 0)
(-8.06717e-33 0 0)
(-8.05837e-33 0 0)
(-8.089e-33 0 0)
(-8.03429e-33 0 0)
(-8.08647e-33 0 0)
(-8.06228e-33 0 0)
(-8.07215e-33 0 0)
(-8.05784e-33 0 0)
(-8.07005e-33 0 0)
(-8.06944e-33 0 0)
(-8.05116e-33 0 0)
(-8.07329e-33 0 0)
(-8.08525e-33 0 0)
(-8.04821e-33 0 0)
(-8.08267e-33 0 0)
(-8.03716e-33 0 0)
(-8.10912e-33 0 0)
(-8.05185e-33 0 0)
(-8.06474e-33 0 0)
(-8.06226e-33 0 0)
(-8.08206e-33 0 0)
(-8.04229e-33 0 0)
(-8.06733e-33 0 0)
(-8.07221e-33 0 0)
(-8.08132e-33 0 0)
(-8.0641e-33 0 0)
(-8.05667e-33 0 0)
(-8.07026e-33 0 0)
(-8.06678e-33 0 0)
(-8.07261e-33 0 0)
(-8.04538e-33 0 0)
(-8.07845e-33 0 0)
(-8.07486e-33 0 0)
(-8.076e-33 0 0)
(-8.05596e-33 0 0)
(-8.06282e-33 0 0)
(-8.06255e-33 0 0)
(-8.09417e-33 0 0)
(-8.0606e-33 0 0)
(-8.07767e-33 0 0)
(-8.03964e-33 0 0)
(-8.08845e-33 0 0)
(-8.04743e-33 0 0)
(-8.07633e-33 0 0)
(-8.05235e-33 0 0)
(-8.07804e-33 0 0)
(-8.06532e-33 0 0)
(-8.05862e-33 0 0)
(-8.07333e-33 0 0)
(-8.07426e-33 0 0)
(-8.06145e-33 0 0)
(-8.07759e-33 0 0)
(-8.06461e-33 0 0)
(-8.05936e-33 0 0)
(-8.07751e-33 0 0)
(-8.079e-33 0 0)
(-8.05302e-33 0 0)
(-8.07624e-33 0 0)
(-8.05132e-33 0 0)
(-8.07271e-33 0 0)
(-8.06255e-33 0 0)
(-8.06862e-33 0 0)
(-8.05547e-33 0 0)
(-8.07873e-33 0 0)
(-8.0747e-33 0 0)
(-8.04662e-33 0 0)
(-8.0782e-33 0 0)
(-8.08181e-33 0 0)
(-8.03667e-33 0 0)
(-8.07353e-33 0 0)
(-8.07638e-33 0 0)
(-8.05904e-33 0 0)
(-8.07234e-33 0 0)
(-8.06273e-33 0 0)
(-8.08371e-33 0 0)
(-8.05884e-33 0 0)
(-8.05589e-33 0 0)
(-8.08617e-33 0 0)
(-8.07056e-33 0 0)
(-8.0726e-33 0 0)
(-8.04651e-33 0 0)
(-8.07206e-33 0 0)
(-8.05046e-33 0 0)
(-8.09757e-33 0 0)
(-8.05908e-33 0 0)
(-8.05198e-33 0 0)
(-8.06779e-33 0 0)
(-8.07995e-33 0 0)
(-8.05235e-33 0 0)
(-8.07541e-33 0 0)
(-8.10044e-33 0 0)
(-8.04052e-33 0 0)
(-8.06089e-33 0 0)
(-8.08398e-33 0 0)
(-8.04478e-33 0 0)
(-8.08006e-33 0 0)
(-8.08016e-33 0 0)
(-8.13138e-33 0 0)
(-8.21376e-33 0 0)
(-8.3732e-33 0 0)
(-8.78219e-33 0 0)
(-8.80695e-33 0 0)
(-8.91975e-33 0 0)
(-1.52669e-33 0 0)
(1.31879e-32 0 0)
(8.73135e-32 0 0)
(2.29824e-31 0 0)
(8.34822e-31 0 0)
(1.95952e-30 0 0)
(6.81159e-30 0 0)
(1.32209e-29 0 0)
(3.29181e-29 0 0)
(2.99069e-29 0 0)
(3.92761e-29 0 0)
(-2.04333e-28 0 0)
(5.51053e-30 0 0)
(-1.7954e-27 0 0)
(-4.08417e-27 0 0)
(-3.30982e-26 0 0)
(-1.05166e-25 0 0)
(-3.54637e-25 0 0)
(-4.1113e-25 0 0)
(-7.91878e-25 0 0)
(1.0731e-24 0 0)
(-3.7905e-24 0 0)
(-2.45162e-23 0 0)
(-1.13443e-22 0 0)
(-7.24963e-23 0 0)
(1.98192e-22 0 0)
(2.94353e-21 0 0)
(5.04038e-21 0 0)
(-2.97268e-21 0 0)
(-6.69612e-20 0 0)
(-1.85764e-19 0 0)
(-4.48762e-19 0 0)
(4.4595e-19 0 0)
(3.96677e-18 0 0)
(4.03904e-18 0 0)
(-2.03115e-17 0 0)
(3.10721e-18 0 0)
(1.88645e-17 0 0)
(-7.74168e-18 0 0)
(-2.28221e-18 0 0)
(3.1191e-19 0 0)
(2.27355e-19 0 0)
(-2.72194e-20 0 0)
(-4.83184e-21 0 0)
(5.01234e-22 0 0)
(1.67467e-22 0 0)
(-1.86526e-22 0 0)
(-4.86514e-23 0 0)
(-1.29249e-23 0 0)
(-5.35795e-24 0 0)
(-2.48087e-24 0 0)
(-8.37651e-25 0 0)
(-2.94467e-25 0 0)
(-1.09211e-25 0 0)
(-4.04838e-26 0 0)
(-1.44016e-26 0 0)
(-5.16425e-27 0 0)
(-1.86099e-27 0 0)
(-6.67769e-28 0 0)
(-2.3773e-28 0 0)
(-8.45157e-29 0 0)
(-2.99574e-29 0 0)
(-1.05665e-29 0 0)
(-3.70572e-30 0 0)
(-1.29243e-30 0 0)
(-4.47774e-31 0 0)
(-1.53875e-31 0 0)
(-5.24017e-32 0 0)
(-1.76579e-32 0 0)
(-5.89371e-33 0 0)
(-1.90912e-33 0 0)
(-6.37933e-34 0 0)
(-2.11724e-34 0 0)
(-5.60328e-35 0 0)
(-3.15288e-35 0 0)
(-1.98073e-35 0 0)
(5.20423e-36 0 0)
(-4.19858e-35 0 0)
(-9.12142e-36 0 0)
(-2.44734e-35 0 0)
(-9.31385e-36 0 0)
(-5.03046e-36 0 0)
(-3.6259e-35 0 0)
(6.54937e-36 0 0)
(-2.6226e-35 0 0)
(-2.64234e-35 0 0)
(-4.93478e-37 0 0)
(9.61288e-36 0 0)
(-3.1063e-35 0 0)
(-2.06448e-35 0 0)
(-2.03649e-35 0 0)
(-2.03984e-35 0 0)
(-2.77566e-35 0 0)
(4.38827e-36 0 0)
(-3.23803e-35 0 0)
(8.80773e-36 0 0)
(-3.61987e-35 0 0)
(-4.65989e-36 0 0)
(-6.07306e-36 0 0)
(-2.48956e-35 0 0)
(-3.16846e-36 0 0)
(-4.36204e-36 0 0)
(-2.88366e-35 0 0)
(-2.50582e-36 0 0)
)
;

boundaryField
{
    left
    {
        type            noSlip;
    }
    right
    {
        type            noSlip;
    }
    empty
    {
        type            empty;
    }
}


// ************************************************************************* //
