/*--------------------------------*- C++ -*----------------------------------*\
| =========                 |                                                 |
| \\      /  F ield         | OpenFOAM: The Open Source CFD Toolbox           |
|  \\    /   O peration     | Version:  2106                                  |
|   \\  /    A nd           | Website:  www.openfoam.com                      |
|    \\/     M anipulation  |                                                 |
\*---------------------------------------------------------------------------*/
FoamFile
{
    version     2.0;
    format      ascii;
    arch        "LSB;label=32;scalar=64";
    class       surfaceScalarField;
    location    "0.29";
    object      phi;
}
// * * * * * * * * * * * * * * * * * * * * * * * * * * * * * * * * * * * * * //

dimensions      [0 3 -1 0 0 0 0];

oriented        oriented;

internalField   nonuniform List<scalar> 
18840
(
3.37543030587e-05
1.62456969398e-05
2.25359638373e-05
1.12183425306e-05
1.63023780989e-05
6.2335837472e-06
1.28098249429e-05
3.49255262713e-06
1.08065797684e-05
2.00324536738e-06
9.60476927286e-06
1.20181098882e-06
8.85167855872e-06
7.53090444085e-07
8.36503052276e-06
4.86647848978e-07
8.04518604407e-06
3.19844632501e-07
7.83374185544e-06
2.11444134193e-07
7.69428180604e-06
1.39459918468e-07
7.60308005666e-06
9.12017014739e-08
7.54426517759e-06
5.88149540197e-08
7.50707692911e-06
3.71882835655e-08
7.48418896201e-06
2.28879322923e-08
7.47062345448e-06
1.3565534726e-08
7.46302094846e-06
7.60252934579e-09
7.45913814119e-06
3.88273317629e-09
7.45749835166e-06
1.63973692827e-09
7.45714524318e-06
3.53127213636e-10
7.4574826124e-06
-3.37338193641e-10
7.45813365952e-06
-6.51131843476e-10
7.45888560698e-06
-7.52081651463e-10
7.45961929544e-06
-7.33737898538e-10
7.46027576583e-06
-6.56481654988e-10
7.46083219906e-06
-5.56488261844e-10
7.46128632719e-06
-4.54194376803e-10
7.46164653535e-06
-3.60205309942e-10
7.4619257461e-06
-2.79166907486e-10
7.46213794532e-06
-2.12190245009e-10
7.46229646815e-06
-1.58523270604e-10
7.46241309407e-06
-1.16607309875e-10
7.46249768159e-06
-8.45701322394e-11
7.46255817615e-06
-6.05026922421e-11
7.46260082931e-06
-4.26856995046e-11
7.46263049991e-06
-2.96922509243e-11
7.46265085708e-06
-2.03605320183e-11
7.46266460204e-06
-1.37669980141e-11
7.46267371753e-06
-9.17782622894e-12
7.46267965675e-06
-6.02658299386e-12
7.46268350113e-06
-3.87222142077e-12
7.46268603134e-06
-2.49046695329e-12
7.46268766985e-06
-1.61448833269e-12
7.46268861093e-06
-9.79962922502e-13
7.46268918045e-06
-5.8759963859e-13
7.46268958502e-06
-3.70691463332e-13
7.46268994066e-06
-2.89878376899e-13
7.46269026545e-06
-2.71646360504e-13
7.4626905913e-06
-2.36953253828e-13
7.46269096487e-06
-2.23283457125e-13
7.46269136696e-06
-2.52605409552e-13
7.46269176261e-06
-3.12306155827e-13
7.46269217515e-06
-3.74263642508e-13
7.46269267171e-06
-4.43067117927e-13
7.4626932653e-06
-5.09737480672e-13
7.4626939102e-06
-5.31023430281e-13
7.46269460397e-06
-4.98152100436e-13
7.46269534629e-06
-4.88423299342e-13
7.46269607328e-06
-5.4869348888e-13
7.46269674959e-06
-6.39329209342e-13
7.46269742679e-06
-6.84777200192e-13
7.46269818467e-06
-6.78522623416e-13
7.46269903276e-06
-6.72374074731e-13
7.46269990781e-06
-6.99305116973e-13
7.46270076642e-06
-7.5181040572e-13
7.46270162571e-06
-7.94476091532e-13
7.46270252935e-06
-8.10804939963e-13
7.46270348581e-06
-8.38948227287e-13
7.46270446903e-06
-9.10749992185e-13
7.46270547665e-06
-9.84082367452e-13
7.46270653531e-06
-1.00852366583e-12
7.46270766022e-06
-9.97004389522e-13
7.46270881971e-06
-9.98293860491e-13
7.46270996452e-06
-1.0185711715e-12
7.46271108523e-06
-1.04511847834e-12
7.46271219469e-06
-1.09469570664e-12
7.46271330871e-06
-1.18024688349e-12
7.46271447452e-06
-1.27464803985e-12
7.4627157516e-06
-1.34403628664e-12
7.46271712861e-06
-1.39097942579e-12
7.46271851762e-06
-1.42020431868e-12
7.46271989602e-06
-1.42018626728e-12
7.46272136158e-06
-1.41817477172e-12
7.4627229635e-06
-1.46819415978e-12
7.46272459615e-06
-1.56193697214e-12
7.4627261524e-06
-1.6252252382e-12
7.46272769455e-06
-1.63587071825e-12
7.46272933801e-06
-1.66430049961e-12
7.46273108091e-06
-1.75118625516e-12
7.46273287058e-06
-1.84665836566e-12
7.46273471953e-06
-1.90008887349e-12
7.46273666733e-06
-1.93980843045e-12
7.4627386918e-06
-2.02038790194e-12
7.46274078075e-06
-2.14988572385e-12
7.46274300126e-06
-2.29630250105e-12
7.46274539815e-06
-2.38692225447e-12
7.46274793643e-06
-2.38330732763e-12
7.46275058433e-06
-2.41089737769e-12
7.46275332661e-06
-2.62082012241e-12
7.46275618357e-06
-2.97154449729e-12
7.46275922584e-06
-3.23892606242e-12
7.46276258186e-06
-3.38411774673e-12
7.46276642048e-06
-3.67540145722e-12
7.46277081325e-06
-4.23596768366e-12
7.46277574335e-06
-4.89778836301e-12
7.46278125875e-06
-5.55789669835e-12
7.46278758359e-06
-6.28423183412e-12
7.4627949486e-06
-7.22696571674e-12
7.46280357368e-06
-8.49372998348e-12
7.46281384455e-06
-1.01417244721e-11
7.46282613314e-06
-1.21621210783e-11
7.46284080716e-06
-1.46117653689e-11
7.46285848188e-06
-1.7577415445e-11
7.46288000092e-06
-2.12992285954e-11
7.46290618825e-06
-2.60911418064e-11
7.46293806184e-06
-3.20352456105e-11
7.46297721922e-06
-3.91195287804e-11
7.46302553e-06
-4.79666502587e-11
7.46308492701e-06
-5.93401481945e-11
7.46315783455e-06
-7.32919563417e-11
7.46324762101e-06
-9.00815725284e-11
7.46335870419e-06
-1.10739801354e-10
7.46349619928e-06
-1.37088272255e-10
7.46366715592e-06
-1.70773634336e-10
7.4638816843e-06
-2.14466600712e-10
7.46414326886e-06
-2.61681310448e-10
7.46446613568e-06
-3.23187053962e-10
7.46486567037e-06
-3.99649067189e-10
7.46536043631e-06
-4.94664110502e-10
7.46597331686e-06
-6.12606928797e-10
7.4667322891e-06
-7.58852038707e-10
7.46767213915e-06
-9.39828029896e-10
7.46883620554e-06
-1.16414166373e-09
7.47027841658e-06
-1.44235077594e-09
7.47206536362e-06
-1.78710439195e-09
7.47427970493e-06
-2.21436675077e-09
7.47702470966e-06
-2.74470864442e-09
7.48042818445e-06
-3.40345123389e-09
7.48464916742e-06
-4.22143326202e-09
7.48988658459e-06
-5.23781293183e-09
7.49638853683e-06
-6.50229983968e-09
7.50446580983e-06
-8.07752777407e-09
7.5145079896e-06
-1.00424615784e-08
7.52700615859e-06
-1.24981533297e-08
7.54258126754e-06
-1.55749456587e-08
7.56202140033e-06
-1.94405280025e-08
7.58633550291e-06
-2.43143314924e-08
7.616823754e-06
-3.04880086645e-08
7.65517823796e-06
-3.83541019818e-08
7.70362873628e-06
-4.84506077372e-08
7.76516608573e-06
-6.1537693472e-08
7.84390834737e-06
-7.87422802634e-08
7.94577835994e-06
-1.01869998772e-07
8.07999043073e-06
-1.34212175285e-07
8.26287092076e-06
-1.82880962566e-07
8.5286730238e-06
-2.65802286326e-07
8.96165894468e-06
-4.32985672315e-07
9.79805069885e-06
-8.36392243754e-07
1.17640663529e-05
-1.96601593559e-06
-5.32482886111e-06
1.70888951725e-05
5.0138879807e-05
1.61068136994e-05
4.41591300919e-05
1.71980953617e-05
3.77598740736e-05
1.26328400672e-05
3.26495146395e-05
8.60291183217e-06
2.89465817595e-05
5.70617750846e-06
2.63676030991e-05
3.78079000054e-06
2.45938852243e-05
2.52680839051e-06
2.33783980573e-05
1.70213467756e-06
2.25473235676e-05
1.15091907755e-06
2.19811566026e-05
7.77611128465e-07
2.15978041925e-05
5.22812272155e-07
2.13405411618e-05
3.48464609038e-07
2.11699436952e-05
2.29412391039e-07
2.10585360679e-05
1.48596019677e-07
2.09871850371e-05
9.4239039703e-08
2.09426215208e-05
5.81290958443e-08
2.09157070269e-05
3.45170888546e-08
2.09002072023e-05
1.93824990978e-08
2.08919196539e-05
9.92709087078e-09
2.08880544169e-05
4.21811073309e-09
2.0886784714e-05
9.32236437772e-10
2.08869497183e-05
-8.16150511853e-10
2.0887828014e-05
-1.63040249264e-09
2.08889865025e-05
-1.89225267045e-09
2.08901798926e-05
-1.84990168394e-09
2.0891280408e-05
-1.65706018137e-09
2.08922318221e-05
-1.40568328886e-09
2.08930194682e-05
-1.1478605973e-09
2.08936510905e-05
-9.10683854276e-10
2.08941449839e-05
-7.06008084382e-10
2.08945231878e-05
-5.36783948818e-10
2.08948076731e-05
-4.0119850928e-10
2.08950183008e-05
-2.95237507061e-10
2.08951719533e-05
-2.1415308371e-10
2.08952824481e-05
-1.5321443889e-10
2.08953608393e-05
-1.08120002326e-10
2.089541571e-05
-7.52457625771e-11
2.08954535675e-05
-5.16454333559e-11
2.08954792831e-05
-3.49625895346e-11
2.08954964626e-05
-2.33077102973e-11
2.08955077196e-05
-1.52226348392e-11
2.08955149026e-05
-9.67947847202e-12
2.08955194019e-05
-6.0073651988e-12
2.08955221643e-05
-3.65907632894e-12
2.08955237529e-05
-2.18168352186e-12
2.08955246118e-05
-1.20605336902e-12
2.08955251022e-05
-6.33746057838e-13
2.08955254696e-05
-4.16476262625e-13
2.089552575e-05
-3.26311602327e-13
2.0895526006e-05
-2.98426896283e-13
2.0895526268e-05
-3.4576812746e-13
2.08955265214e-05
-4.52052302696e-13
2.08955267907e-05
-5.56167352911e-13
2.08955271369e-05
-6.10668079611e-13
2.08955276018e-05
-6.67769944501e-13
2.08955281418e-05
-7.35593314174e-13
2.08955287059e-05
-7.7451189223e-13
2.08955292777e-05
-8.03214734956e-13
2.08955298328e-05
-8.89861460006e-13
2.08955303743e-05
-1.0212397138e-12
2.08955309309e-05
-1.11624121125e-12
2.08955315425e-05
-1.13106124744e-12
2.08955322122e-05
-1.10963810025e-12
2.08955329095e-05
-1.13584590041e-12
2.08955336187e-05
-1.22569284028e-12
2.08955343444e-05
-1.33643616042e-12
2.08955350804e-05
-1.41761578263e-12
2.08955358339e-05
-1.49330420679e-12
2.08955366217e-05
-1.5891853172e-12
2.08955374532e-05
-1.67500991889e-12
2.08955383244e-05
-1.70137140873e-12
2.08955392382e-05
-1.68492038063e-12
2.08955401918e-05
-1.70165006149e-12
2.08955411344e-05
-1.79685889667e-12
2.08955420139e-05
-1.94711607803e-12
2.08955428424e-05
-2.1113464125e-12
2.08955436942e-05
-2.25338141204e-12
2.08955446472e-05
-2.33179279199e-12
2.08955457151e-05
-2.34880763555e-12
2.08955468442e-05
-2.38916488851e-12
2.08955479665e-05
-2.51563013497e-12
2.08955490871e-05
-2.64948240678e-12
2.08955502971e-05
-2.68430516302e-12
2.08955516332e-05
-2.67843730258e-12
2.08955530102e-05
-2.77982336576e-12
2.08955543469e-05
-2.98261078536e-12
2.08955556929e-05
-3.14820588832e-12
2.0895557137e-05
-3.24812908993e-12
2.08955586796e-05
-3.37527143413e-12
2.08955603012e-05
-3.55460455432e-12
2.08955620469e-05
-3.71619737072e-12
2.08955639668e-05
-3.85473968608e-12
2.08955660291e-05
-4.05787363915e-12
2.08955682228e-05
-4.34904402027e-12
2.08955706706e-05
-4.66080549031e-12
2.08955734724e-05
-4.96867532175e-12
2.08955765633e-05
-5.31668690568e-12
2.08955799165e-05
-5.74804682647e-12
2.0895583666e-05
-6.33891698473e-12
2.08955879755e-05
-7.13067449311e-12
2.0895592877e-05
-8.13616357239e-12
2.08955984512e-05
-9.26904680678e-12
2.08956050414e-05
-1.05060226245e-11
2.08956129646e-05
-1.19663763321e-11
2.08956223672e-05
-1.38760832364e-11
2.08956334831e-05
-1.63333224741e-11
2.0895646789e-05
-1.93847531651e-11
2.08956627704e-05
-2.31146617833e-11
2.08956818746e-05
-2.75616291905e-11
2.08957045822e-05
-3.26343969941e-11
2.08957323333e-05
-3.95335629131e-11
2.0895767116e-05
-4.91288713502e-11
2.08958099518e-05
-6.03594696073e-11
2.08958626806e-05
-7.40351237475e-11
2.08959276935e-05
-9.11088788723e-11
2.08960079178e-05
-1.12286071931e-10
2.08961069397e-05
-1.38243443802e-10
2.08962292834e-05
-1.7025706538e-10
2.08963806742e-05
-2.10091144646e-10
2.08965678231e-05
-2.5984759018e-10
2.08967989339e-05
-3.21315242437e-10
2.0897084592e-05
-3.97061893515e-10
2.08974378553e-05
-4.90596370194e-10
2.08978737037e-05
-6.06534647063e-10
2.08984097893e-05
-7.50612972379e-10
2.08990785127e-05
-9.30283825109e-10
2.08999089899e-05
-1.15322839708e-09
2.09009388843e-05
-1.42934513339e-09
2.0902215389e-05
-1.77104842964e-09
2.09037973619e-05
-2.19421759301e-09
2.09057574454e-05
-2.71851563946e-09
2.09081856489e-05
-3.36813419874e-09
2.09111940781e-05
-4.17296109879e-09
2.09149218389e-05
-5.17031526063e-09
2.09195410771e-05
-6.40673584503e-09
2.0925265368e-05
-7.93968644761e-09
2.0932360938e-05
-9.84098684719e-09
2.09411584304e-05
-1.22008805246e-08
2.09520688592e-05
-1.51317295403e-08
2.0965605335e-05
-1.87741854343e-08
2.09824084033e-05
-2.3305416976e-08
2.10032800187e-05
-2.89490217803e-08
2.1029225615e-05
-3.59883157415e-08
2.10615112953e-05
-4.47844616715e-08
2.11017386647e-05
-5.58020963843e-08
2.1151941477e-05
-6.96431060594e-08
2.12147221075e-05
-8.70954042201e-08
2.12934389992e-05
-1.09205863814e-07
2.13924756557e-05
-1.37391023921e-07
2.15176388321e-05
-1.73613635772e-07
2.16767831053e-05
-2.20681948852e-07
2.18808479741e-05
-2.82806323621e-07
2.21456951403e-05
-3.66716655125e-07
2.24955964965e-05
-4.8411352419e-07
2.29701832926e-05
-6.57467795656e-07
2.36385897408e-05
-9.34209122044e-07
2.46263370587e-05
-1.42073332058e-06
2.61525999084e-05
-2.36265517294e-06
2.8518612051e-05
-4.33202762095e-06
-8.48423752894e-06
3.16780198085e-05
5.35844253379e-05
1.25223863763e-05
5.29166009851e-05
1.78659206398e-05
4.96393015523e-05
1.59101397583e-05
4.58382173949e-05
1.24039964365e-05
4.24428743851e-05
9.10151982421e-06
3.97331591516e-05
6.49050524361e-06
3.76912453532e-05
4.56872240309e-06
3.62011668517e-05
3.19221295175e-06
3.5135593372e-05
2.21649241225e-06
3.43848443016e-05
1.5283602075e-06
3.38626587497e-05
1.04499787024e-06
3.35040063425e-05
7.07116983654e-07
3.3260962279e-05
4.72456385705e-07
3.30987202947e-05
3.10838022859e-07
3.29922903219e-05
2.00669000054e-07
3.29239191138e-05
1.26500221889e-07
3.28811291886e-05
7.73069753783e-08
3.28552505746e-05
4.52611110036e-08
3.28403340579e-05
2.48435994431e-08
3.28323540668e-05
1.21979889599e-08
3.28286281275e-05
4.65807161032e-09
3.28274042155e-05
4.07775227416e-10
3.28275636553e-05
-1.78982936327e-09
3.28284096833e-05
-2.73833519541e-09
3.28295257429e-05
-2.96603364161e-09
3.28306753806e-05
-2.80672575935e-09
3.28317354928e-05
-2.46581661365e-09
3.2832651932e-05
-2.06435112788e-09
3.2833410589e-05
-1.6693624573e-09
3.28340188833e-05
-1.31430397511e-09
3.28344944879e-05
-1.01242132286e-09
3.2834858702e-05
-7.65464394566e-10
3.28351326731e-05
-5.69245855827e-10
3.28353354844e-05
-4.1697216576e-10
3.28354833896e-05
-3.01110478677e-10
3.28355897225e-05
-2.14453586639e-10
3.28356650957e-05
-1.50648266533e-10
3.28357177527e-05
-1.04370460965e-10
3.28357540153e-05
-7.12684154973e-11
3.28357786231e-05
-4.79128739833e-11
3.28357950434e-05
-3.16536927132e-11
3.28358058044e-05
-2.04861733822e-11
3.28358127452e-05
-1.29447439584e-11
3.28358171139e-05
-7.98068244763e-12
3.28358197902e-05
-4.7937067718e-12
3.28358214106e-05
-2.78194214635e-12
3.28358224175e-05
-1.53778604182e-12
3.28358229955e-05
-8.18898570433e-13
3.28358232912e-05
-4.38893626937e-13
3.28358234684e-05
-3.35379277758e-13
3.28358236027e-05
-3.8191846747e-13
3.28358237427e-05
-4.9698586476e-13
3.28358239118e-05
-6.07962249054e-13
3.28358241277e-05
-6.6150735076e-13
3.2835824453e-05
-7.29138627567e-13
3.28358248673e-05
-8.27466282266e-13
3.28358252966e-05
-9.40079648539e-13
3.28358257097e-05
-1.04566463328e-12
3.28358261136e-05
-1.14282255701e-12
3.28358265364e-05
-1.2397886273e-12
3.28358269846e-05
-1.3275773213e-12
3.2835827454e-05
-1.39056585357e-12
3.28358279408e-05
-1.44282135763e-12
3.2835828438e-05
-1.50408936644e-12
3.28358289521e-05
-1.57980382765e-12
3.28358294948e-05
-1.7139420851e-12
3.28358300331e-05
-1.86005263509e-12
3.2835830569e-05
-1.97444364164e-12
3.28358311494e-05
-2.04879154279e-12
3.28358317953e-05
-2.09741859779e-12
3.28358324656e-05
-2.1358507013e-12
3.28358331229e-05
-2.17781555268e-12
3.28358337786e-05
-2.256574353e-12
3.28358344263e-05
-2.40183310397e-12
3.28358350341e-05
-2.59574859626e-12
3.28358356131e-05
-2.78987820506e-12
3.2835836226e-05
-2.94583641341e-12
3.28358369151e-05
-3.04394115091e-12
3.28358376574e-05
-3.08497202021e-12
3.28358384267e-05
-3.11961845937e-12
3.28358392324e-05
-3.22986935646e-12
3.28358400822e-05
-3.41632709933e-12
3.28358409753e-05
-3.58115862174e-12
3.28358419164e-05
-3.68011980531e-12
3.28358429135e-05
-3.79604552706e-12
3.28358439416e-05
-4.00084023824e-12
3.28358449749e-05
-4.24319886344e-12
3.28358460555e-05
-4.46218360525e-12
3.28358472528e-05
-4.6819337798e-12
3.28358486028e-05
-4.94186972008e-12
3.28358500937e-05
-5.23307605161e-12
3.28358517186e-05
-5.54281721978e-12
3.28358535037e-05
-5.90929977365e-12
3.28358555123e-05
-6.35399672117e-12
3.28358578612e-05
-6.85856863018e-12
3.28358606204e-05
-7.46934655282e-12
3.28358637271e-05
-8.2669587241e-12
3.28358671506e-05
-9.24339123551e-12
3.28358709993e-05
-1.03025283368e-11
3.28358755174e-05
-1.15785368236e-11
3.2835881052e-05
-1.35342612444e-11
3.2835887644e-05
-1.58280676915e-11
3.28358956459e-05
-1.84994332439e-11
3.28359054454e-05
-2.17021390639e-11
3.2835917359e-05
-2.56793918557e-11
3.28359317808e-05
-3.06501077738e-11
3.28359493799e-05
-3.68627270639e-11
3.28359710495e-05
-4.46320503257e-11
3.28359978442e-05
-5.420728258e-11
3.28360312737e-05
-6.5959418826e-11
3.28360724489e-05
-8.05606202685e-11
3.28361224188e-05
-9.8802643755e-11
3.28361836594e-05
-1.21429675766e-10
3.28362588932e-05
-1.49413005303e-10
3.28363518265e-05
-1.840326127e-10
3.28364667925e-05
-2.26965216366e-10
3.2836608648e-05
-2.80128785153e-10
3.28367837025e-05
-3.45635018507e-10
3.28370001653e-05
-4.2664049172e-10
3.28372680348e-05
-5.27157837513e-10
3.28375991365e-05
-6.52000477817e-10
3.28380085117e-05
-8.06428612811e-10
3.28385153282e-05
-9.9738308206e-10
3.28391427479e-05
-1.23398858194e-09
3.28399193185e-05
-1.5274302896e-09
3.28408801087e-05
-1.89108299714e-09
3.28420693146e-05
-2.34227734011e-09
3.28435417453e-05
-2.90161959199e-09
3.28453649838e-05
-3.59441320488e-09
3.28476230693e-05
-4.45230862274e-09
3.28504197888e-05
-5.51517592455e-09
3.28538836289e-05
-6.83210662667e-09
3.28581741674e-05
-8.46369536745e-09
3.28634894099e-05
-1.04855598153e-08
3.28700749205e-05
-1.29919682218e-08
3.28782349466e-05
-1.60998535609e-08
3.2888347973e-05
-1.99545244343e-08
3.29008846959e-05
-2.47378608689e-08
3.29164299676e-05
-3.06772858131e-08
3.29357127585e-05
-3.80573311187e-08
3.29596425173e-05
-4.72355326294e-08
3.29893564453e-05
-5.86628178806e-08
3.30262785229e-05
-7.29102808868e-08
3.30721980456e-05
-9.07045657426e-08
3.3129373586e-05
-1.12977697467e-07
3.32006661732e-05
-1.40935309519e-07
3.32897236454e-05
-1.76152563831e-07
3.34012331215e-05
-2.20715549269e-07
3.35412781989e-05
-2.77436330888e-07
3.37178581145e-05
-3.50193302797e-07
3.39416702224e-05
-4.4449400403e-07
3.42273402137e-05
-5.68476129116e-07
3.45954026836e-05
-7.3477910964e-07
3.50755296303e-05
-9.64240488222e-07
3.5711569401e-05
-1.29350718542e-06
3.65682466218e-05
-1.79088675118e-06
3.77353918273e-05
-2.5878790057e-06
3.93080722159e-05
-3.93533604734e-06
4.12629423274e-05
-6.28689828587e-06
-1.02943362987e-05
4.30730414551e-05
5.3570519425e-05
8.95186649381e-06
5.55863056939e-05
1.58501344602e-05
5.52410585976e-05
1.62553865175e-05
5.35976161461e-05
1.40474396186e-05
5.15429058313e-05
1.1156229655e-05
4.95819402178e-05
8.45147059577e-06
4.79262511694e-05
6.22441163183e-06
4.66200397683e-05
4.49842427862e-06
4.56322337567e-05
3.20429825329e-06
4.49066875652e-05
2.25390635169e-06
4.4385442232e-05
1.56624322952e-06
4.40178328829e-05
1.07472632437e-06
4.3762912327e-05
7.27376885531e-07
4.35890448446e-05
4.84705519708e-07
4.34725016272e-05
3.1721220462e-07
4.3395868539e-05
2.03133178873e-07
4.33465904423e-05
1.26584931654e-07
4.33157562684e-05
7.60952161453e-08
4.32971348203e-05
4.34650871892e-08
4.32864332085e-05
2.28996310542e-08
4.32807398575e-05
1.03514238937e-08
4.32781171245e-05
3.03055295153e-09
4.32772904472e-05
-9.63133674755e-10
4.32774549196e-05
-2.90286382005e-09
4.32781062693e-05
-3.61747034876e-09
4.32789442506e-05
-3.64475158204e-09
4.32797992158e-05
-3.32080145042e-09
4.32805835143e-05
-2.84872584938e-09
4.32812592787e-05
-2.34523277246e-09
4.32818173622e-05
-1.8724673726e-09
4.32822640123e-05
-1.45911227743e-09
4.32826127228e-05
-1.11419628691e-09
4.32828794231e-05
-8.35963402945e-10
4.32830798143e-05
-6.17341028661e-10
4.32832279803e-05
-4.49227442807e-10
4.32833358908e-05
-3.22332934597e-10
4.32834133418e-05
-2.28138392768e-10
4.32834681502e-05
-1.59268101407e-10
4.32835064038e-05
-1.09603322133e-10
4.32835327476e-05
-7.42638052245e-11
4.32835506147e-05
-4.94861508366e-11
4.32835625106e-05
-3.23690754075e-11
4.32835702784e-05
-2.07163244914e-11
4.32835752421e-05
-1.29121880327e-11
4.32835783315e-05
-7.80403966164e-12
4.32835801705e-05
-4.54516090321e-12
4.32835812291e-05
-2.52054881748e-12
4.32835818709e-05
-1.33562605949e-12
4.32835822937e-05
-7.25164486937e-13
4.3283582532e-05
-4.79309313689e-13
4.32835826677e-05
-4.4619337896e-13
4.32835827851e-05
-4.93649273806e-13
4.32835829114e-05
-5.71000879326e-13
4.3283583042e-05
-6.2414196638e-13
4.32835832029e-05
-6.66889296756e-13
4.32835834371e-05
-7.58066248602e-13
4.3283583697e-05
-9.10970653832e-13
4.3283583921e-05
-1.07479360644e-12
4.32835841075e-05
-1.18391730746e-12
4.32835843105e-05
-1.25651435268e-12
4.32835845437e-05
-1.32792351767e-12
4.32835847706e-05
-1.41239986315e-12
4.32835849705e-05
-1.50644452892e-12
4.32835851732e-05
-1.60503016094e-12
4.32835854189e-05
-1.70651325996e-12
4.32835856804e-05
-1.84959998555e-12
4.32835859269e-05
-2.01070035623e-12
4.32835861681e-05
-2.11565357675e-12
4.3283586448e-05
-2.14308172967e-12
4.32835867741e-05
-2.15058582236e-12
4.32835870906e-05
-2.20625433581e-12
4.32835873513e-05
-2.32259554307e-12
4.32835875773e-05
-2.47565436026e-12
4.32835877904e-05
-2.65225033551e-12
4.32835879743e-05
-2.82956287596e-12
4.3283588135e-05
-2.97447605653e-12
4.32835883289e-05
-3.09148358607e-12
4.32835885874e-05
-3.21692278446e-12
4.32835888557e-05
-3.34516531193e-12
4.32835890966e-05
-3.43238257736e-12
4.32835893723e-05
-3.51123615004e-12
4.32835897366e-05
-3.68023505858e-12
4.32835901478e-05
-3.93595566563e-12
4.32835905474e-05
-4.15539483974e-12
4.32835909629e-05
-4.2976143976e-12
4.3283591435e-05
-4.48833329684e-12
4.32835919319e-05
-4.80178311022e-12
4.32835924513e-05
-5.14947945784e-12
4.32835930801e-05
-5.44355777271e-12
4.32835938967e-05
-5.7409513172e-12
4.32835948851e-05
-6.15268247335e-12
4.3283596009e-05
-6.6892602608e-12
4.32835973134e-05
-7.28667153197e-12
4.32835989033e-05
-7.93067873042e-12
4.32836008793e-05
-8.69040623398e-12
4.32836033024e-05
-9.67189376015e-12
4.32836061893e-05
-1.09928374945e-11
4.32836096079e-05
-1.2641647356e-11
4.32836137705e-05
-1.45548959886e-11
4.32836188978e-05
-1.68015680424e-11
4.32836250073e-05
-1.96204302531e-11
4.3283632424e-05
-2.30820351353e-11
4.32836414281e-05
-2.7306408534e-11
4.32836524174e-05
-3.25472954061e-11
4.32836658766e-05
-3.90738790611e-11
4.32836823132e-05
-4.71299369195e-11
4.3283702456e-05
-5.70415630319e-11
4.32837273173e-05
-6.93035581907e-11
4.3283757958e-05
-8.45563994166e-11
4.32837955894e-05
-1.03481550941e-10
4.32838419912e-05
-1.26929913859e-10
4.32838994172e-05
-1.56025436804e-10
4.32839702574e-05
-1.92180378087e-10
4.32840575567e-05
-2.36931795256e-10
4.32841655274e-05
-2.92093162841e-10
4.32842992744e-05
-3.60359002002e-10
4.32844646472e-05
-4.44990983598e-10
4.32846687942e-05
-5.4979693212e-10
4.32849211396e-05
-6.79302787836e-10
4.3285233426e-05
-8.39599121913e-10
4.3285619902e-05
-1.0383019885e-09
4.32860980026e-05
-1.28443419419e-09
4.32866898062e-05
-1.58907493442e-09
4.32874224305e-05
-1.96649925238e-09
4.32883292813e-05
-2.43417974084e-09
4.3289451721e-05
-3.01363454042e-09
4.32908411599e-05
-3.73174501588e-09
4.32925613962e-05
-4.62166459596e-09
4.32946911069e-05
-5.72404471482e-09
4.32973279187e-05
-7.08933297549e-09
4.33005930425e-05
-8.78052131018e-09
4.33046364656e-05
-1.08756694479e-08
4.3309643931e-05
-1.34714578422e-08
4.33158458885e-05
-1.6687915507e-08
4.33235284605e-05
-2.06744760862e-08
4.33330460725e-05
-2.56171700696e-08
4.33448386518e-05
-3.17470751473e-08
4.33594531764e-05
-3.93523726827e-08
4.33775690847e-05
-4.87933328222e-08
4.34000318812e-05
-6.05204159628e-08
4.34278947312e-05
-7.50987114242e-08
4.34624719682e-05
-9.32399371845e-08
4.35054058726e-05
-1.15843823218e-07
4.35587531501e-05
-1.44052215146e-07
4.36250995003e-05
-1.79324437378e-07
4.37077048227e-05
-2.23540737874e-07
4.38106989032e-05
-2.79146153723e-07
4.39393430839e-05
-3.49359262576e-07
4.41003885873e-05
-4.38481982905e-07
4.43025758879e-05
-5.52379915216e-07
4.45573334289e-05
-6.99250778858e-07
4.48797708644e-05
-8.90913331852e-07
4.52900508441e-05
-1.1450589228e-06
4.58151119094e-05
-1.48930140578e-06
4.64901827869e-05
-1.96857794841e-06
4.73577541179e-05
-2.65845832476e-06
4.84569294982e-05
-3.68705441315e-06
4.97848923126e-05
-5.26329899437e-06
5.11899224181e-05
-7.69192868085e-06
-1.12788460388e-05
5.21744314282e-05
5.27606081967e-05
6.19125843069e-06
5.57402408803e-05
1.28705020632e-05
5.73124115049e-05
1.46832149558e-05
5.76111980656e-05
1.37486537703e-05
5.71338685862e-05
1.16335589866e-05
5.63199838828e-05
9.26535495811e-06
5.5449644864e-05
7.0947506996e-06
5.46637028696e-05
5.28436634365e-06
5.40144129485e-05
3.85358806961e-06
5.35068423413e-05
2.76147685386e-06
5.31248778818e-05
1.94820767865e-06
5.28455238985e-05
1.35408030729e-06
5.26458876667e-05
9.27013025053e-07
5.25060749972e-05
6.24518125369e-07
5.24099973424e-05
4.13289848532e-07
5.23452157533e-05
2.67914699938e-07
5.23024107287e-05
1.69389852734e-07
5.22747657801e-05
1.03740081542e-07
5.2257393601e-05
6.08373040348e-08
5.22468515674e-05
3.3441758206e-08
5.22407553054e-05
1.64477266096e-08
5.22374823098e-05
6.30357249337e-09
5.22359410802e-05
5.7809804633e-10
5.22354257601e-05
-2.38758708749e-09
5.22354776518e-05
-3.66944607317e-09
5.2235812476e-05
-3.9796574139e-09
5.22362597531e-05
-3.76813237816e-09
5.22367225791e-05
-3.31163153563e-09
5.22371503791e-05
-2.77314398204e-09
5.22375207724e-05
-2.24294752104e-09
5.22378277163e-05
-1.76609490705e-09
5.22380740085e-05
-1.36050328126e-09
5.22382667015e-05
-1.02864445422e-09
5.22384143505e-05
-7.64946815333e-10
5.22385254435e-05
-5.60280968149e-10
5.22386076553e-05
-4.04556560301e-10
5.22386675723e-05
-2.88115197297e-10
5.22387106319e-05
-2.02390784399e-10
5.22387411591e-05
-1.40179048929e-10
5.22387625088e-05
-9.56379491533e-11
5.22387772394e-05
-6.4190538368e-11
5.22387872415e-05
-4.23259868535e-11
5.22387939253e-05
-2.73497001948e-11
5.2238798306e-05
-1.72523673847e-11
5.2238801132e-05
-1.05738956304e-11
5.2238802928e-05
-6.27140821568e-12
5.22388040475e-05
-3.56976863151e-12
5.22388047336e-05
-1.93655436725e-12
5.22388051042e-05
-1.03044220297e-12
5.22388052665e-05
-5.96377665863e-13
5.22388053257e-05
-4.13861385049e-13
5.22388053721e-05
-3.62367441919e-13
5.22388054245e-05
-3.96575584684e-13
5.22388054819e-05
-4.7216043081e-13
5.22388055663e-05
-5.56064743671e-13
5.2238805707e-05
-6.49819390659e-13
5.22388058788e-05
-7.87746391503e-13
5.22388060302e-05
-9.56158788479e-13
5.22388061518e-05
-1.10175545876e-12
5.22388062751e-05
-1.19517175561e-12
5.22388064052e-05
-1.26579578328e-12
5.22388065101e-05
-1.35590171158e-12
5.22388065959e-05
-1.46870714295e-12
5.22388066747e-05
-1.5820007256e-12
5.22388067527e-05
-1.68525175701e-12
5.22388068256e-05
-1.80597171972e-12
5.22388069041e-05
-1.93953454722e-12
5.22388070096e-05
-2.03466344918e-12
5.22388071388e-05
-2.06490265654e-12
5.22388072641e-05
-2.07813278324e-12
5.22388073544e-05
-2.15096649483e-12
5.22388073943e-05
-2.29691417722e-12
5.22388074031e-05
-2.46841764161e-12
5.22388073932e-05
-2.63146148084e-12
5.22388073512e-05
-2.78128614288e-12
5.22388072874e-05
-2.90683484432e-12
5.22388072501e-05
-3.00437780848e-12
5.22388072653e-05
-3.11810961501e-12
5.22388072743e-05
-3.28604674885e-12
5.22388072276e-05
-3.45972900138e-12
5.22388071887e-05
-3.58708724123e-12
5.22388072256e-05
-3.72040808275e-12
5.22388073015e-05
-3.9362058326e-12
5.22388073491e-05
-4.20058481927e-12
5.22388073936e-05
-4.43411948916e-12
5.22388074923e-05
-4.67107666515e-12
5.22388076233e-05
-4.99759064493e-12
5.22388077667e-05
-5.39357877611e-12
5.22388079891e-05
-5.77460570397e-12
5.2238808362e-05
-6.15135329188e-12
5.22388088769e-05
-6.63972492304e-12
5.22388095074e-05
-7.30514557486e-12
5.22388103199e-05
-8.0980899076e-12
5.22388114197e-05
-8.97795909337e-12
5.22388128572e-05
-1.00175341891e-11
5.22388146705e-05
-1.13707022157e-11
5.22388169351e-05
-1.31496827082e-11
5.22388197493e-05
-1.53487367247e-11
5.2238823155e-05
-1.79578247399e-11
5.22388273851e-05
-2.10991166784e-11
5.22388328056e-05
-2.50007358683e-11
5.2238839664e-05
-2.98145496986e-11
5.22388481541e-05
-3.57232969837e-11
5.22388586776e-05
-4.30116231122e-11
5.22388718029e-05
-5.20837636519e-11
5.22388880983e-05
-6.33676335944e-11
5.22389082732e-05
-7.72530461229e-11
5.22389333421e-05
-9.43081538447e-11
5.22389644977e-05
-1.15478287991e-10
5.22390030753e-05
-1.4185894427e-10
5.22390507546e-05
-1.74512780116e-10
5.223910967e-05
-2.14900401113e-10
5.22391825102e-05
-2.65021477362e-10
5.22392725713e-05
-3.27090198312e-10
5.22393840054e-05
-4.03705373138e-10
5.22395221033e-05
-4.98297753295e-10
5.2239693082e-05
-6.15526322887e-10
5.223990449e-05
-7.60838714921e-10
5.22401658446e-05
-9.40657979366e-10
5.22404892771e-05
-1.16326826747e-09
5.22408898018e-05
-1.43889136603e-09
5.22413856343e-05
-1.78026210066e-09
5.22419994214e-05
-2.20291267295e-09
5.22427594229e-05
-2.72628968566e-09
5.22437002608e-05
-3.37483499626e-09
5.22448647995e-05
-4.17832051516e-09
5.22463062768e-05
-5.17356992511e-09
5.22480910289e-05
-6.40634508376e-09
5.22503006227e-05
-7.93347981843e-09
5.22530360361e-05
-9.82498624334e-09
5.22564229366e-05
-1.21676713037e-08
5.22606168323e-05
-1.50695715743e-08
5.22658101048e-05
-1.86646994913e-08
5.22722411395e-05
-2.31191595693e-08
5.22802058112e-05
-2.8639334426e-08
5.22900708288e-05
-3.54821014385e-08
5.23022905392e-05
-4.3966777095e-08
5.23174290132e-05
-5.44909404249e-08
5.23361864827e-05
-6.75508699739e-08
5.23594326325e-05
-8.37665529407e-08
5.23882480408e-05
-1.03914368282e-07
5.24239776126e-05
-1.28969738082e-07
5.24682967311e-05
-1.60162546116e-07
5.25232937252e-05
-1.99049021982e-07
5.25915787832e-05
-2.47609479632e-07
5.26764193595e-05
-3.08381354689e-07
5.27819157547e-05
-3.84642304959e-07
5.29132274518e-05
-4.80670446166e-07
5.30768641666e-05
-6.02118957084e-07
5.32810637046e-05
-7.56579050062e-07
5.35362578438e-05
-9.54444093772e-07
5.38556189326e-05
-1.21027443845e-06
5.42555760637e-05
-1.54501596611e-06