/*--------------------------------*- C++ -*----------------------------------*\
| =========                 |                                                 |
| \\      /  F ield         | OpenFOAM: The Open Source CFD Toolbox           |
|  \\    /   O peration     | Version:  2106                                  |
|   \\  /    A nd           | Website:  www.openfoam.com                      |
|    \\/     M anipulation  |                                                 |
\*---------------------------------------------------------------------------*/
FoamFile
{
    version     2.0;
    format      ascii;
    arch        "LSB;label=32;scalar=64";
    class       surfaceScalarField;
    location    "0.09";
    object      phi;
}
// * * * * * * * * * * * * * * * * * * * * * * * * * * * * * * * * * * * * * //

dimensions      [0 3 -1 0 0 0 0];

oriented        oriented;

internalField   nonuniform List<scalar> 
18840
(
3.37543041344e-05
1.62456958647e-05
2.25359597169e-05
1.12183433094e-05
1.63023719197e-05
6.23358776525e-06
1.28098156438e-05
3.49255703086e-06
1.08065669534e-05
2.00324878489e-06
9.60475342707e-06
1.20181313047e-06
8.8516643707e-06
7.53089316818e-07
8.36502528797e-06
4.86639411672e-07
8.04520043222e-06
3.19824640183e-07
7.8337923762e-06
2.11407883544e-07
7.69439042663e-06
1.39401891549e-07
7.60327367289e-06
9.11165750929e-08
7.54457508151e-06
5.86984221663e-08
7.50753764886e-06
3.70374426693e-08
7.48483613404e-06
2.27016038507e-08
7.47149144412e-06
1.33448039213e-08
7.4641406921e-06
7.35089281214e-09
7.46053512482e-06
3.60570238478e-09
7.45919117506e-06
1.34402759365e-09
7.45913896665e-06
5.22731564041e-11
7.45977891382e-06
-6.3989445809e-10
7.46072394187e-06
-9.44949839143e-10
7.46175229171e-06
-1.02822900044e-09
7.4627381612e-06
-9.857218207e-10
7.46361791668e-06
-8.79593622884e-10
7.46436611259e-06
-7.48096054042e-10
7.46497975815e-06
-6.13644929927e-10
7.4654682216e-06
-4.8854873488e-10
7.46584684621e-06
-3.78777818298e-10
7.46613310181e-06
-2.8641324134e-10
7.46634421162e-06
-2.11250398559e-10
7.46649594795e-06
-1.51841394915e-10
7.46660205515e-06
-1.06168398143e-10
7.46667399904e-06
-7.19883836756e-11
7.46672110608e-06
-4.70999734471e-11
7.46675067091e-06
-2.9503422714e-11
7.46676822772e-06
-1.74411585189e-11
7.46677786513e-06
-9.46800069267e-12
7.46678250121e-06
-4.46183159842e-12
7.46678434833e-06
-1.68031788867e-12
7.46678426942e-06
2.11478479785e-13
7.46678329555e-06
1.04971947984e-12
7.4667820431e-06
1.26283431782e-12
7.4667807909e-06
1.1817032388e-12
7.46677969387e-06
9.73219546701e-13
7.46677881593e-06
7.20795804756e-13
7.46677816343e-06
4.76511737692e-13
7.46677773275e-06
2.59710326301e-13
7.46677751051e-06
6.30442501972e-14
7.4667774663e-06
-9.87912902327e-14
7.46677757251e-06
-2.27160303767e-13
7.46677780926e-06
-3.10198838275e-13
7.46677814702e-06
-3.49408409081e-13
7.46677853492e-06
-3.70566275421e-13
7.46677893378e-06
-3.94072425245e-13
7.46677933358e-06
-4.29469376233e-13
7.46677974327e-06
-4.7315785435e-13
7.46678018001e-06
-5.11996598622e-13
7.46678065583e-06
-5.30959196651e-13
7.46678117441e-06
-5.31086752641e-13
7.46678172427e-06
-5.29448674194e-13
7.46678228882e-06
-5.40475503534e-13
7.46678285757e-06
-5.69313936255e-13
7.46678342551e-06
-6.14901610244e-13
7.46678400966e-06
-6.73193516637e-13
7.46678464907e-06
-7.38739537301e-13
7.46678537434e-06
-8.0279027318e-13
7.46678618737e-06
-8.54525504454e-13
7.46678707443e-06
-8.93815567046e-13
7.46678802301e-06
-9.35266789858e-13
7.46678902124e-06
-9.84853313273e-13
7.46679006732e-06
-1.03285578163e-12
7.46679117499e-06
-1.07852181357e-12
7.46679235593e-06
-1.12957226179e-12
7.46679360718e-06
-1.1736458876e-12
7.46679491586e-06
-1.19270667808e-12
7.46679626036e-06
-1.20181661035e-12
7.46679762204e-06
-1.22972972848e-12
7.46679900941e-06
-1.27149914132e-12
7.46680044976e-06
-1.30257486677e-12
7.46680193864e-06
-1.32648380502e-12
7.46680342589e-06
-1.36727580168e-12
7.46680488872e-06
-1.43010372846e-12
7.46680637392e-06
-1.49928707643e-12
7.46680792669e-06
-1.55656192889e-12
7.46680954173e-06
-1.59499558586e-12
7.46681120591e-06
-1.62975314333e-12
7.46681292983e-06
-1.68115073649e-12
7.46681473717e-06
-1.74507011837e-12
7.46681664377e-06
-1.79736854306e-12
7.46681865221e-06
-1.82541199119e-12
7.46682075486e-06
-1.846832011e-12
7.46682290736e-06
-1.89093289161e-12
7.46682505314e-06
-1.98324467202e-12
7.46682720529e-06
-2.1462941508e-12
7.46682945103e-06
-2.3567949665e-12
7.46683188622e-06
-2.53278373589e-12
7.46683454196e-06
-2.63800836814e-12
7.46683737974e-06
-2.75498884706e-12
7.46684039238e-06
-2.98948749776e-12
7.46684362332e-06
-3.30805252139e-12
7.46684716479e-06
-3.65683596564e-12
7.46685111672e-06
-4.05277353128e-12
7.46685555733e-06
-4.54858125308e-12
7.46686059265e-06
-5.16432624617e-12
7.46686640935e-06
-5.91771695014e-12
7.46687320557e-06
-6.83911986537e-12
7.46688116855e-06
-7.959515119e-12
7.46689056051e-06
-9.36284352704e-12
7.46690174598e-06
-1.11811143089e-11
7.46691512309e-06
-1.34466229485e-11
7.46693123894e-06
-1.6230851407e-11
7.46695081583e-06
-1.96633721156e-11
7.46697469631e-06
-2.39611802088e-11
7.4670038708e-06
-2.92880562652e-11
7.46703961415e-06
-3.58233665978e-11
7.46708353296e-06
-4.39262727133e-11
7.46713755152e-06
-5.40512887198e-11
7.46720407753e-06
-6.66019761813e-11
7.46728612193e-06
-8.20540271061e-11
7.46738737559e-06
-1.01169403514e-10
7.46751247232e-06
-1.25007825605e-10
7.46766763284e-06
-1.5514867513e-10
7.4678628229e-06
-1.95219126445e-10
7.46810258949e-06
-2.39824516468e-10
7.46839730661e-06
-2.9469267367e-10
7.46876180283e-06
-3.64472729825e-10
7.46921310413e-06
-4.51503251967e-10
7.46977214063e-06
-5.59341520465e-10
7.47046490808e-06
-6.92861118067e-10
7.47132331016e-06
-8.58372519057e-10
7.47238688928e-06
-1.06354919511e-09
7.47370478948e-06
-1.31787221606e-09
7.4753380501e-06
-1.63324628735e-09
7.47736261543e-06
-2.02448407638e-09
7.47987262489e-06
-2.50990553412e-09
7.48298513527e-06
-3.11244859036e-09
7.48684598523e-06
-3.86094132912e-09
7.49163663406e-06
-4.79110004804e-09
7.497583758e-06
-5.94761438815e-09
7.50497084692e-06
-7.38722856002e-09
7.51415263536e-06
-9.18172013205e-09
7.52557481417e-06
-1.14219409577e-08
7.53979928681e-06
-1.42239571167e-08
7.55753725633e-06
-1.77372522327e-08
7.57969347619e-06
-2.21556097184e-08
7.60742614974e-06
-2.77325903364e-08
7.64223025401e-06
-3.48043729503e-08
7.68605420373e-06
-4.38241979879e-08
7.74146820275e-06
-5.54145488553e-08
7.81192066736e-06
-7.04530248463e-08
7.90215352102e-06
-9.02329908632e-08
8.01895745522e-06
-1.1680434582e-07
8.17279534415e-06
-1.53837988858e-07
8.38192641545e-06
-2.09130761794e-07
8.68409460035e-06
-3.02168482337e-07
9.17141875025e-06
-4.87323742343e-07
1.01021191509e-05
-9.30700318107e-07
1.22790232491e-05
-2.17690487833e-06
-5.96046867082e-06
1.82394927256e-05
5.01388806048e-05
1.61068162476e-05
4.41591241438e-05
1.71980997991e-05
3.77598625911e-05
1.26328483807e-05
3.26494981601e-05
8.60292164327e-06
2.89465637467e-05
5.70618408339e-06
2.63675890859e-05
3.78078769349e-06
2.4593888729e-05
2.52678938082e-06
2.33784415555e-05
1.70208681951e-06
2.25474387831e-05
1.15082728866e-06
2.19813875279e-05
7.77458730136e-07
2.15982076858e-05
5.22581529514e-07
2.13411857392e-05
3.48138449406e-07
2.11709074004e-05
2.28976701657e-07
2.10599033038e-05
1.48041623722e-07
2.09890420253e-05
9.35631144331e-08
2.09450507498e-05
5.73363202371e-08
2.09187817951e-05
3.36200605106e-08
2.09039865588e-05
1.84011238463e-08
2.08964435512e-05
8.8871680357e-09
2.08933466406e-05
3.14929014806e-09
2.08928337958e-05
-1.26919332548e-10
2.08937371087e-05
-1.84806775597e-09
2.08953089832e-05
-2.5998474796e-09
2.08971015177e-05
-2.7780208681e-09
2.08988579278e-05
-2.63584550497e-09
2.09004439333e-05
-2.33409517686e-09
2.09018015047e-05
-1.97138821892e-09
2.09029183068e-05
-1.60561841638e-09
2.09038077034e-05
-1.26845542927e-09
2.09044960721e-05
-9.74986254275e-10
2.09050147939e-05
-7.30106577914e-10
2.09053955193e-05
-5.32673557176e-10
2.09056675467e-05
-3.78244771106e-10
2.09058564063e-05
-2.60852499882e-10
2.0905983463e-05
-1.74077446662e-10
2.09060659062e-05
-1.11757510728e-10
2.09061170924e-05
-6.83584794122e-11
2.09061470854e-05
-3.91394579719e-11
2.09061631197e-05
-2.0207658227e-11
2.09061701143e-05
-8.4615579772e-12
2.0906171719e-05
-1.28941701204e-12
2.09061708571e-05
1.88171084207e-12
2.09061688769e-05
3.11260895584e-12
2.09061665098e-05
3.33334614232e-12
2.0906164231e-05
2.98617588785e-12
2.09061622684e-05
2.39842629852e-12
2.09061606716e-05
1.77082097515e-12
2.09061594091e-05
1.22387250725e-12
2.09061584907e-05
7.17980456797e-13
2.09061579673e-05
2.38762489795e-13
2.09061577597e-05
-1.18027539685e-13
2.09061577778e-05
-3.67569953512e-13
2.09061579421e-05
-5.18509954616e-13
2.09061581741e-05
-6.13522763214e-13
2.09061584139e-05
-6.89306327865e-13
2.09061586529e-05
-7.64732140035e-13
2.09061589124e-05
-8.34169054828e-13
2.09061592159e-05
-8.87317364629e-13
2.09061595701e-05
-9.18071352025e-13
2.09061599711e-05
-9.33624985986e-13
2.09061604026e-05
-9.51810514597e-13
2.09061608381e-05
-9.88658084674e-13
2.09061612589e-05
-1.05470551718e-12
2.09061616617e-05
-1.15130204699e-12
2.09061620684e-05
-1.25938859583e-12
2.09061625273e-05
-1.35482867451e-12
2.09061630763e-05
-1.43081878798e-12
2.0906163714e-05
-1.49670395468e-12
2.09061644176e-05
-1.56257313059e-12
2.09061651769e-05
-1.63969524074e-12
2.09061659781e-05
-1.73058814983e-12
2.09061667996e-05
-1.81981071631e-12
2.09061676564e-05
-1.885801135e-12
2.09061685933e-05
-1.92686249789e-12
2.09061696202e-05
-1.95809317767e-12
2.09061706988e-05
-1.99398540723e-12
2.09061717958e-05
-2.04809089333e-12
2.09061729167e-05
-2.12674305026e-12
2.09061740766e-05
-2.21231385837e-12
2.09061752711e-05
-2.28376415926e-12
2.09061764817e-05
-2.35918789196e-12
2.09061776888e-05
-2.47247453045e-12
2.09061788957e-05
-2.61161454149e-12
2.09061801463e-05
-2.7339773827e-12
2.09061814746e-05
-2.82616133543e-12
2.09061828666e-05
-2.90411165377e-12
2.09061843138e-05
-2.9796437164e-12
2.09061858495e-05
-3.06086047291e-12
2.09061875196e-05
-3.16542411589e-12
2.09061893481e-05
-3.30683298711e-12
2.09061913374e-05
-3.47317399952e-12
2.09061934794e-05
-3.6577499288e-12
2.09061957187e-05
-3.89868307881e-12
2.09061979988e-05
-4.23865991004e-12
2.09062004068e-05
-4.67219796121e-12
2.09062031254e-05
-5.15023346893e-12
2.09062062603e-05
-5.63422240613e-12
2.09062098317e-05
-6.16122511068e-12
2.09062138617e-05
-6.81471355596e-12
2.09062184312e-05
-7.65499143147e-12
2.09062236683e-05
-8.67590443453e-12
2.0906229729e-05
-9.88831289726e-12
2.09062368373e-05
-1.1348774927e-11
2.09062452528e-05
-1.31540350844e-11
2.09062552801e-05
-1.53833304879e-11
2.09062673566e-05
-1.80993789741e-11
2.09062819596e-05
-2.14139376785e-11
2.09062995021e-05
-2.54593659764e-11
2.09063203689e-05
-3.02795214188e-11
2.09063451429e-05
-3.60964767485e-11
2.0906376511e-05
-4.50163083629e-11
2.09064152824e-05
-5.52442685427e-11
2.09064631163e-05
-6.76940929582e-11
2.09065222036e-05
-8.30963882306e-11
2.09065951353e-05
-1.02214806532e-10
2.09066850925e-05
-1.25878668297e-10
2.0906796186e-05
-1.55174330529e-10
2.09069335691e-05
-1.91502250719e-10
2.09071035639e-05
-2.36531875293e-10
2.0907313885e-05
-2.92275275974e-10
2.09075740169e-05
-3.6123975073e-10
2.09078956113e-05
-4.46617014942e-10
2.09082927476e-05
-5.52409009763e-10
2.09087812511e-05
-6.83761727249e-10
2.09093890208e-05
-8.47427506637e-10
2.0910145083e-05
-1.05069093179e-09
2.09110833482e-05
-1.30286788646e-09
2.09122469276e-05
-1.61533916364e-09
2.09136894796e-05
-2.00219840603e-09
2.09154777942e-05
-2.48131005925e-09
2.09176945479e-05
-3.07506568173e-09
2.09204421527e-05
-3.81107728842e-09
2.09238477757e-05
-4.72356548967e-09
2.09280692899e-05
-5.85502566739e-09
2.09333029065e-05
-7.25831974392e-09
2.09397921465e-05
-8.99933762605e-09
2.09478397597e-05
-1.11602062413e-08
2.09578228491e-05
-1.38436887994e-08
2.09702107599e-05
-1.7178456699e-08
2.09855890979e-05
-2.13256691302e-08
2.10046903043e-05
-2.64882495995e-08
2.10284314285e-05
-3.2922786894e-08
2.10579639003e-05
-4.09548778704e-08
2.10947390444e-05
-5.10000621699e-08
2.11405938641e-05
-6.3592813032e-08
2.11978652193e-05
-7.94269980325e-08
2.1269545645e-05
-9.941254945e-08
2.13595005646e-05
-1.24758788669e-07
2.14727792211e-05
-1.57102289951e-07
2.16160744209e-05
-1.98708596174e-07
2.1798435399e-05
-2.52812824345e-07
2.20324446958e-05
-3.24241795165e-07
2.23362897408e-05
-4.20649140723e-07
2.27376603771e-05
-5.55208402438e-07
2.32814940361e-05
-7.5296437459e-07
2.40457797558e-05
-1.06645428143e-06
2.51720250208e-05
-1.61356849979e-06
2.69093683411e-05
-2.66804254621e-06
2.96094523848e-05
-4.87698888024e-06
-9.60118590001e-06
3.32501698453e-05
5.35844250088e-05
1.25223912233e-05
5.29165958818e-05
1.78659297913e-05
4.96392915379e-05
1.59101522549e-05
4.58382037571e-05
1.24040089855e-05
4.24428642478e-05
9.10152425345e-06
3.97331630392e-05
6.49048916805e-06
3.76912826735e-05
4.56866939145e-06
3.62012692283e-05
3.19210027437e-06
3.51358048962e-05
2.21629158845e-06
3.43852238762e-05
1.52803941883e-06
3.38632811513e-05
1.04452400318e-06
3.3504960974e-05
7.06458570743e-07
3.3262350264e-05
4.71587425412e-07
3.31006502403e-05
3.09741718897e-07
3.29948728241e-05
1.99340725293e-07
3.29272598859e-05
1.24949450449e-07
3.28853220867e-05
7.5558026136e-08
3.28603712162e-05
4.3352125812e-08
3.28464345089e-05
2.28239858639e-08
3.28394589098e-05
1.01249868219e-08
3.28367375065e-05
2.59460000672e-09
3.28364817608e-05
-1.59215770636e-09
3.28375563033e-05
-3.67418262211e-09
3.28392412672e-05
-4.46280386613e-09
3.28411048297e-05
-4.49930084497e-09
3.28429017695e-05
-4.13103955574e-09
3.28445062492e-05
-3.57599433465e-09
3.2845866717e-05
-2.96627479152e-09
3.28469758897e-05
-2.37783045049e-09
3.28478511791e-05
-1.85044791039e-09
3.28485220868e-05
-1.40114281418e-09
3.28490223655e-05
-1.03305900358e-09
3.28493853856e-05
-7.41330706913e-10
3.28496414878e-05
-5.16973380666e-10
3.2849816789e-05
-3.49325934623e-10
3.28499327882e-05
-2.27618834007e-10
3.285000652e-05
-1.41884429048e-10
3.28500510549e-05
-8.34143562261e-11
3.28500760911e-05
-4.49886862172e-11
3.28500886711e-05
-2.08507502781e-11
3.28500939673e-05
-6.50214181044e-12
3.28500944395e-05
1.36235351596e-12
3.28500928464e-05
4.56557620243e-12
3.28500903702e-05
5.61063489384e-12
3.28500877536e-05
5.37186972654e-12
3.28500853904e-05
4.52375460558e-12
3.28500834469e-05
3.46882101344e-12
3.285008199e-05
2.43256614163e-12
3.28500809563e-05
1.52798871074e-12
3.28500802039e-05
8.34819158654e-13
3.285007972e-05
3.00917267193e-13
3.28500795001e-05
-1.51533311668e-13
3.2850079443e-05
-4.50508809224e-13
3.28500794805e-05
-6.63405847732e-13
3.2850079571e-05
-8.35011113189e-13
3.28500796998e-05
-9.8187211407e-13
3.28500798567e-05
-1.07273452288e-12
3.28500800516e-05
-1.12735414587e-12
3.28500802784e-05
-1.15781757373e-12
3.28500805237e-05
-1.1794977951e-12
3.28500807755e-05
-1.21671533267e-12
3.28500810231e-05
-1.28788114055e-12
3.28500812647e-05
-1.39344407499e-12
3.28500815081e-05
-1.52255879291e-12
3.2850081767e-05
-1.6536862102e-12
3.28500820634e-05
-1.76402046597e-12
3.28500824208e-05
-1.85475896143e-12
3.28500828401e-05
-1.94312532282e-12
3.28500833075e-05
-2.03580131593e-12
3.28500838306e-05
-2.14010495144e-12
3.28500844061e-05
-2.24165663703e-12
3.28500850114e-05
-2.33759300565e-12
3.28500856385e-05
-2.41136338501e-12
3.28500863133e-05
-2.45683605353e-12
3.28500870463e-05
-2.49595830641e-12
3.28500878108e-05
-2.55443182454e-12
3.28500885918e-05
-2.63792729123e-12
3.28500894092e-05
-2.73811525269e-12
3.28500902722e-05
-2.84969035142e-12
3.28500911546e-05
-2.97651773604e-12
3.28500920363e-05
-3.12588576761e-12
3.28500929206e-05
-3.2963234721e-12
3.28500938164e-05
-3.46799908384e-12
3.28500947488e-05
-3.62096109841e-12
3.2850095748e-05
-3.75817476969e-12
3.2850096816e-05
-3.89016788035e-12
3.28500979481e-05
-4.01465481067e-12
3.28500991619e-05
-4.14354496285e-12
3.28501004967e-05
-4.32133377178e-12
3.28501019993e-05
-4.58710257085e-12
3.28501036885e-05
-4.92592490629e-12
3.28501055491e-05
-5.31676593171e-12
3.28501075501e-05
-5.80018663349e-12
3.28501096829e-05
-6.41311960969e-12
3.28501120413e-05
-7.12460107211e-12
3.28501147813e-05
-7.89940376278e-12
3.28501179833e-05
-8.76443489037e-12
3.28501216313e-05
-9.76379706393e-12
3.28501257559e-05
-1.0959634268e-11
3.28501308e-05
-1.27364124148e-11
3.28501368664e-05
-1.47758104598e-11
3.28501441323e-05
-1.72313730796e-11
3.28501528786e-05
-2.02127839108e-11
3.28501635088e-05
-2.38877336846e-11
3.28501764793e-05
-2.84386458499e-11
3.28501923623e-05
-3.4044345755e-11
3.28502119026e-05
-4.09844759609e-11
3.28502360151e-05
-4.96361705542e-11
3.28502659769e-05
-6.04042933846e-11
3.28503034567e-05
-7.37619835978e-11
3.28503486317e-05
-9.03111956564e-11
3.28504040619e-05
-1.10777865777e-10
3.28504723051e-05
-1.36087522114e-10
3.28505565558e-05
-1.67432945525e-10
3.28506606669e-05
-2.0630904132e-10
3.28507892592e-05
-2.54497677846e-10
3.28509481573e-05
-3.14172216726e-10
3.28511446665e-05
-3.88057805384e-10
3.28513877748e-05
-4.79578487386e-10
3.28516885319e-05
-5.92946680982e-10
3.28520606362e-05
-7.3336398042e-10
3.28525212117e-05
-9.07339166487e-10
3.28530915833e-05
-1.12296688491e-09
3.28537980954e-05
-1.39041826086e-09
3.28546727298e-05
-1.72212135402e-09
3.28557555633e-05
-2.13370841652e-09
3.28570966872e-05
-2.6441706893e-09
3.28587582372e-05
-3.2768250451e-09
3.28608168685e-05
-4.06074830573e-09
3.28633677234e-05
-5.03214402339e-09
3.28665287346e-05
-6.23602424909e-09
3.28704460187e-05
-7.72829685045e-09
3.28753009022e-05
-9.57841330966e-09
3.28813183563e-05
-1.18725848331e-08
3.28887778837e-05
-1.47180219067e-08
3.28980265069e-05
-1.82482441031e-08
3.29094953446e-05
-2.26295388391e-08
3.29237211159e-05
-2.80697489728e-08
3.29413718798e-05
-3.48292277543e-08
3.29632802725e-05
-4.32341108925e-08
3.29904864587e-05
-5.36942815441e-08
3.30242917019e-05
-6.67274492361e-08
3.30663276183e-05
-8.29901022559e-08
3.31186466399e-05
-1.03318728877e-07
3.31838404179e-05
-1.28786812566e-07
3.32651971016e-05
-1.60784013097e-07
3.33669130546e-05
-2.01128449358e-07
3.3494384231e-05
-2.52230248741e-07
3.36546192809e-05
-3.17337888991e-07
3.38568375685e-05
-4.00926946861e-07
3.41133664474e-05
-5.09342108068e-07
3.44410462933e-05
-6.51921677736e-07
3.4863485822e-05
-8.4308797651e-07
3.54147361318e-05
-1.10645887878e-06
3.61450689039e-05
-1.4832968786e-06
3.71288231979e-05
-2.05020813352e-06
3.84700627349e-05
-2.95480829312e-06
4.02827323119e-05
-4.48071214181e-06
4.25551328754e-05
-7.14939018054e-06
-1.17459220737e-05
4.46998687418e-05
5.35705186312e-05
8.95187194794e-06
5.5586302431e-05
1.58501468141e-05
5.52410533851e-05
1.62554015018e-05
5.35976101544e-05
1.40474515807e-05
5.15429075264e-05
1.11562271254e-05
4.95819623079e-05
8.45143485007e-06
4.7926313872e-05
6.22431756011e-06
4.66201750852e-05
4.49823890171e-06
4.56324860156e-05
3.20398063266e-06
4.49071146929e-05
2.25341051548e-06
4.43861168006e-05
1.56552164289e-06
4.40188412302e-05
1.07373406995e-06
4.37643518376e-05
7.26076859736e-07
4.35910199057e-05
4.83073749392e-07
4.34751185654e-05
3.15242240255e-07
4.33992293443e-05
2.00838867128e-07
4.33507860962e-05
1.24001411681e-07
4.3320860689e-05
7.32776333476e-08
4.33031996958e-05
4.04850614688e-08
4.32934847609e-05
1.9840009479e-08
4.32887809776e-05
7.29850335577e-09
4.32871072307e-05
8.17413381578e-11
4.32871899775e-05
-3.75675516176e-09
4.3288188245e-05
-5.46091821369e-09
4.32895858784e-05
-5.89685905208e-09
4.32910734507e-05
-5.61862878045e-09
4.32924779984e-05
-4.98062648291e-09
4.32937137373e-05
-4.20213761745e-09
4.3294748836e-05
-3.41307395398e-09
4.32955833313e-05
-2.68509018413e-09
4.32962346181e-05
-2.05257138061e-09
4.32967281782e-05
-1.52674842352e-09
4.32970918305e-05
-1.1050790286e-09
4.32973523239e-05
-7.77506567738e-10
4.32975335215e-05
-5.30488426951e-10
4.32976555968e-05
-3.49569738017e-10
4.32977348942e-05
-2.20972114919e-10
4.32977841717e-05
-1.32437238402e-10
4.32978130509e-05
-7.36307348163e-11
4.32978285567e-05
-3.61983186103e-11
4.32978357084e-05
-1.36119398851e-11
4.32978382804e-05
-1.28347647953e-12
4.32978377327e-05
4.96249419845e-12
4.32978359074e-05
7.24907199417e-12
4.32978336779e-05
7.39203884127e-12
4.3297831494e-05
6.47933176642e-12
4.32978295691e-05
5.15789757313e-12
4.32978279842e-05
3.79358635213e-12
4.32978267547e-05
2.57003507991e-12
4.32978259207e-05
1.5505476439e-12
4.32978254721e-05
7.13880365911e-13
4.32978252762e-05
6.09244673532e-14
4.3297825199e-05
-3.52741577917e-13
4.32978251398e-05
-6.17326352546e-13
4.32978250638e-05
-8.15324854978e-13
4.32978249714e-05
-9.69686820589e-13
4.32978249e-05
-1.07024018177e-12
4.32978248694e-05
-1.13205945905e-12
4.32978248778e-05
-1.17877517988e-12
4.32978249139e-05
-1.23045413612e-12
4.32978249588e-05
-1.30107680182e-12
4.329782498e-05
-1.39590573438e-12
4.32978249614e-05
-1.50814732685e-12
4.32978249196e-05
-1.62784845067e-12
4.3297824884e-05
-1.74504497326e-12
4.32978248783e-05
-1.85260298679e-12
4.32978249195e-05
-1.95493727939e-12
4.32978250159e-05
-2.06576941867e-12
4.32978251617e-05
-2.18535742974e-12
4.32978253419e-05
-2.29694217056e-12
4.32978255572e-05
-2.3816132894e-12
4.32978257951e-05
-2.44416924909e-12
4.32978260443e-05
-2.49985832975e-12
4.3297826318e-05
-2.55927609761e-12
4.32978266297e-05
-2.62964911614e-12
4.32978269645e-05
-2.71260838104e-12
4.32978273043e-05
-2.8051481986e-12
4.32978276571e-05
-2.904663689e-12
4.32978280324e-05
-3.02386522598e-12
4.32978284103e-05
-3.18664631472e-12
4.3297828776e-05
-3.38898199398e-12
4.32978291465e-05
-3.59462078732e-12
4.32978295365e-05
-3.77840406492e-12
4.32978299556e-05
-3.95077405804e-12
4.32978304266e-05
-4.13018076197e-12
4.32978309672e-05
-4.32120385846e-12
4.32978315757e-05
-4.51756849886e-12
4.32978322528e-05
-4.73932176041e-12
4.32978330395e-05
-5.03921631048e-12
4.32978340148e-05
-5.45991689704e-12
4.32978352046e-05
-5.97715244092e-12
4.32978365649e-05
-6.56445384955e-12
4.32978380792e-05
-7.2778752654e-12
4.32978397928e-05
-8.16015521082e-12
4.32978418217e-05
-9.18907918072e-12
4.32978443243e-05
-1.0369676512e-11
4.32978474267e-05
-1.17845935295e-11
4.3297851256e-05
-1.35235972847e-11
4.32978559735e-05
-1.56419864106e-11
4.32978614869e-05
-1.82289080608e-11
4.3297868136e-05
-2.14043894557e-11
4.32978761963e-05
-2.53094799238e-11
4.32978860048e-05
-3.00919941319e-11
4.32978980322e-05
-3.5977131358e-11
4.32979128134e-05
-4.32665192474e-11
4.32979309692e-05
-5.22864982872e-11
4.32979533054e-05
-6.34496098442e-11
4.32979808049e-05
-7.73065112161e-11
4.32980146763e-05
-9.44849247012e-11
4.32980564779e-05
-1.15732506318e-10
4.32981082282e-05
-1.42111719061e-10
4.32981722126e-05
-1.74766958851e-10
4.32982512437e-05
-2.1520782813e-10
4.32983489547e-05
-2.65258542194e-10
4.32984698472e-05
-3.27229796839e-10
4.32986193693e-05
-4.04018255535e-10
4.3298804317e-05
-4.99144330209e-10
4.32990331649e-05
-6.16943187954e-10
4.3299316405e-05
-7.62838250469e-10
4.32996669696e-05
-9.43572217696e-10
4.33001008687e-05
-1.16746285231e-09
4.33006381245e-05
-1.44484783071e-09
4.33013035052e-05
-1.78856407312e-09
4.33021276152e-05
-2.21464117817e-09
4.33031484006e-05
-2.74293042921e-09
4.33044126183e-05
-3.39800023216e-09
4.33059783826e-05
-4.20997707459e-09
4.3307917954e-05
-5.21627633601e-09
4.33103207012e-05
-6.46339692064e-09
4.33132974731e-05
-8.0089087769e-09
4.33169856743e-05
-9.9242977712e-09
4.33215556032e-05
-1.22984122182e-08
4.33272186087e-05
-1.52416218574e-08
4.3334236783e-05
-1.88909780445e-08
4.3342935602e-05
-2.34168708314e-08
4.33537191463e-05
-2.90314914147e-08
4.33670888886e-05
-3.59991366482e-08
4.338366853e-05
-4.46495524047e-08
4.34042341962e-05
-5.53951163041e-08
4.34297520362e-05
-6.87522237642e-08
4.34614266085e-05
-8.53692351298e-08
4.35007621081e-05
-1.06063314045e-07
4.35496403806e-05
-1.31868399558e-07
4.36104210584e-05
-1.64099132101e-07
4.36860717573e-05
-2.04437169885e-07
4.37803385206e-05
-2.55050268536e-07
4.3897971139e-05
-3.18760543625e-07
4.40450261e-05
-3.99285042189e-07
4.42292810706e-05
-5.01592684856e-07
4.44608091342e-05
-6.32454641716e-07
4.47527870824e-05
-8.01319880964e-07
4.51226402329e-05
-1.02177432142e-06
4.55936282847e-05
-1.31407566744e-06
4.61968683657e-05
-1.70969916611e-06
4.6973219047e-05
-2.25964760062e-06
4.79725088687e-05
-3.04949810806e-06
4.92423203136e-05
-4.224619718e-06
5.07857665677e-05
-6.02415844742e-06
5.24406699343e-05
-8.80429431853e-06
-1.29488663138e-05
5.3643614406e-05
5.27606078336e-05
6.19126344114e-06
5.57402394974e-05
1.28705153428e-05
5.73124114707e-05
1.46832302484e-05
5.76111999181e-05
1.37486626875e-05
5.71338792974e-05
1.16335475709e-05
5.63200144799e-05
9.26530013446e-06
5.54497109037e-05
7.09462102069e-06
5.46638280131e-05
5.28412151783e-06
5.40146298145e-05
3.85317873979e-06
5.35071927444e-05
2.76084743405e-06
5.31254134628e-05
1.94730070899e-06
5.28463058336e-05
1.35284163781e-06
5.26469849178e-05
9.25397835229e-07
5.25075615206e-05
6.22497267862e-07
5.24119486883e-05
4.10855234945e-07
5.23477049292e-05
2.65082826263e-07
5.23055035335e-05
1.66202967863e-07
5.22785165023e-05
1.0026476598e-07
5.22618412544e-05
5.7160369788e-08
5.22520173207e-05
2.96640074222e-08
5.22466395166e-05
1.2676408045e-08
5.22440737592e-05
2.64764812659e-09
5.22432001889e-05
-2.88302359819e-09
5.22433040415e-05
-5.56464353318e-09
5.22439140105e-05
-6.506770922e-09
5.22447382339e-05
-6.44287109737e-09
5.22456030155e-05
-5.8454702627e-09
5.22464119774e-05
-5.01118802623e-09
5.22471182189e-05
-4.11941866295e-09
5.22477054398e-05
-3.27241515046e-09
5.22481752647e-05
-2.52251952233e-09
5.22485389911e-05
-1.89060403954e-09
5.22488122413e-05
-1.3784533736e-09
5.22490116872e-05
-9.77026847343e-10
5.22491531222e-05
-6.71905755439e-10
5.22492504246e-05
-4.46758251368e-10
5.22493151882e-05
-2.85524983711e-10
5.22493566618e-05
-1.73658380957e-10
5.22493819589e-05
-9.87153174695e-11
5.22493964042e-05
-5.05253871957e-11
5.22494038875e-05
-2.1093905637e-11
5.22494069051e-05
-4.39455506301e-12
5.22494075312e-05
4.18320476712e-12
5.22494068484e-05
7.75026253848e-12
5.22494056033e-05
8.43905676076e-12
5.22494042177e-05
7.6434750908e-12
5.22494029265e-05
6.21839736843e-12
5.22494018566e-05
4.66091970133e-12
5.22494010497e-05
3.23111832852e-12
5.22494004819e-05
2.04189790801e-12
5.22494000582e-05
1.12091382636e-12
5.22493996752e-05
4.57211549764e-13
5.2249399327e-05
3.01240128753e-15
5.22493991333e-05
-4.39561879788e-13
5.22493990199e-05
-7.45085363768e-13
5.22493989257e-05
-9.31579362432e-13
5.22493988362e-05
-1.02904501566e-12
5.22493987455e-05
-1.07262040361e-12
5.2249398641e-05
-1.10687012055e-12
5.2249398515e-05
-1.1618670078e-12
5.22493983747e-05
-1.24900782593e-12
5.22493982231e-05
-1.36509863332e-12
5.2249398057e-05
-1.49129711665e-12
5.22493978834e-05
-1.60648823962e-12
5.22493977172e-05
-1.70782252295e-12
5.2249397566e-05
-1.8050798711e-12
5.22493974367e-05
-1.90847307731e-12
5.22493973542e-05
-2.02300245291e-12
5.22493973366e-05
-2.14252716612e-12
5.22493973671e-05
-2.24416580643e-12
5.22493974207e-05
-2.30774845191e-12
5.22493974851e-05
-2.34708994187e-12
5.22493975555e-05
-2.39056927267e-12
5.22493976288e-05
-2.44795762506e-12
5.22493976974e-05
-2.51405658786e-12
5.22493977521e-05
-2.58911671583e-12
5.22493977921e-05
-2.68105489006e-12
5.2249397835e-05
-2.79695500417e-12
5.22493979039e-05
-2.94763504214e-12
5.22493979878e-05
-3.13888042317e-12
5.22493980608e-05
-3.35047584753e-12
5.22493981348e-05
-3.55806736538e-12
5.22493982355e-05
-3.76060298916e-12
5.22493983646e-05
-3.96347987909e-12
5.224939852e-05
-4.16694648056e-12
5.22493987017e-05
-4.38257997751e-12
5.22493989055e-05
-4.63828575664e-12
5.22493991372e-05
-4.96603417487e-12
5.22493994419e-05
-5.38683860562e-12
5.22493998919e-05
-5.91440051319e-12
5.22494005224e-05
-6.55782186085e-12
5.22494013252e-05
-7.33293643414e-12
5.2249402318e-05
-8.27286748882e-12
5.22494035578e-05
-9.39712710564e-12
5.22494051099e-05
-1.07107208611e-11
5.22494070606e-05
-1.22623218213e-11
5.22494095185e-05
-1.41595768186e-11
5.22494126087e-05
-1.65132359468e-11
5.22494164852e-05
-1.94233594158e-11
5.22494213422e-05
-2.30103655529e-11
5.22494274103e-05
-2.73971484993e-11
5.22494349537e-05
-3.27989820107e-11
5.22494443008e-05
-3.94626633616e-11
5.22494559397e-05
-4.76837156178e-11
5.22494704604e-05
-5.78572439971e-11
5.22494885035e-05
-7.045671773e-11
5.2249510886e-05
-8.60452222443e-11
5.22495386959e-05
-1.0534129005e-10
5.22495732854e-05
-1.2920046285e-10
5.22496161934e-05
-1.58678608589e-10
5.22496692532e-05
-1.95186283535e-10
5.22497349074e-05
-2.40449805256e-10
5.22498161776e-05
-2.96562604458e-10
5.22499168146e-05
-3.66013176637e-10
5.22500414742e-05
-4.51955741606e-10
5.22501958457e-05
-5.5839681503e-10
5.22503869773e-05
-6.90278773483e-10
5.22506236183e-05
-8.53652254539e-10
5.22509166538e-05
-1.05600551258e-09
5.22512795616e-05
-1.30667188233e-09
5.22517289584e-05
-1.61717812737e-09
5.22522856201e-05
-2.00181185176e-09
5.22529751929e-05
-2.47836997002e-09
5.2253829332e-05
-3.06896817596e-09
5.22548874556e-05
-3.8010375939e-09
5.22561981498e-05
-4.70852768313e-09
5.22578215308e-05
-5.83327670654e-09
5.22598324247e-05
-7.22714519116e-09
5.22623235497e-05
-8.95449038925e-09
5.22654097678e-05
-1.109508357e-08
5.22692333768e-05
-1.37479513812e-08
5.22739707606e-05
-1.70360316631e-08
5.22798408012e-05
-2.11119544855e-08
5.22871147669e-05
-2.61652529117e-08
5.22961292692e-05
-3.24315009509e-08
5.2307302072e-05
-4.02040048791e-08
5.23211511124e-05
-4.98479452966e-08
5.23383196626e-05
-6.18182170777e-08
5.23596073788e-05
-7.66828466775e-08
5.23860080336e-05
-9.51526212347e-08
5.24187575647e-05
-1.18118633813e-07
5.24593950778e-05
-1.4670102027e-07
5.2509839417e-05
-1.82313068607e-07
5.2572486023e-05
-2.26745921944e-07
5.26503303821e-05
-2.82281316007e-07
5.27471254275e-05
-3.51845166209e-07
5.28675850222e-05
-4.39220202182e-07
5.30176457617e-05
-5.49345513341e-07
5.32048043775e-05
-6.88751121323e-07
5.3438553349e-05
-8.66203528959e-07
5.37309257762e-05
-1.09369203181e-06
5.40971364472e-05
-1.38798505091e-06
5.45562050352e-05
-1.77314445499e-06
5.51311553633e-05
-2.28464959245e-06
5.58476291855e-05