/*--------------------------------*- C++ -*----------------------------------*\
| =========                 |                                                 |
| \\      /  F ield         | OpenFOAM: The Open Source CFD Toolbox           |
|  \\    /   O peration     | Version:  2106                                  |
|   \\  /    A nd           | Website:  www.openfoam.com                      |
|    \\/     M anipulation  |                                                 |
\*---------------------------------------------------------------------------*/
FoamFile
{
    version     2.0;
    format      ascii;
    arch        "LSB;label=32;scalar=64";
    class       volScalarField;
    location    "0.465";
    object      p;
}
// * * * * * * * * * * * * * * * * * * * * * * * * * * * * * * * * * * * * * //

dimensions      [0 2 -2 0 0 0 0];

internalField   nonuniform List<scalar> 
11200
(
150.104252239
147.175650233
146.061798618
145.534466351
145.167135413
144.872355756
144.610710776
144.36217133
144.117652197
143.872583681
143.624268498
143.370951755
143.111401223
142.844681106
142.570024453
142.286757902
141.994255831
141.691912512
141.379129329
141.055318227
140.719855381
140.372091562
140.011368072
139.637016707
139.248351901
138.844672379
138.425262133
137.989391033
137.536315501
137.065279051
136.575512788
136.066235942
135.536655788
134.98596855
134.41335947
133.818004303
133.199068912
132.555709949
131.887074951
131.192302747
130.470523708
129.720859936
128.942425403
128.134326188
127.295660363
126.425517593
125.522979232
124.587117517
123.616994165
122.611659111
121.570148218
120.491480451
119.374654136
118.218641616
117.022383417
115.784780294
114.504683518
113.180882327
111.812088127
110.396914761
108.933853258
107.421240568
105.857219595
104.239689698
102.566241071
100.834069297
99.039864457
97.1796659585
95.2486699774
93.240961559
91.1491510211
88.9638782275
86.6729440813
84.2601621128
81.7034464486
78.9711368817
76.0156334108
72.7643585624
69.0635806875
64.3002816588
148.31121054
146.953036156
146.162063921
145.662048528
145.271059008
144.947175112
144.662652674
144.398049278
144.142560461
143.890037775
143.636653751
143.379894568
143.118022942
142.849762202
142.574111848
142.290237138
141.997400889
141.694920549
141.382137851
141.058390986
140.723029672
140.375378191
140.014792389
139.640603909
139.252116698
138.848623819
138.429406463
137.993732702
137.54085766
137.070023822
136.580461253
136.071387653
135.542008359
134.991523249
134.41911973
133.823973145
133.205249422
132.562105103
131.893687779
131.199136354
130.477581256
129.728144869
128.949941453
128.142077559
127.303651923
126.433754827
125.531468614
124.59586658
123.626012019
122.620956843
121.579739326
120.501381396
119.384885012
118.229227152
117.033354034
115.796173481
114.516545509
113.193270194
111.825072439
110.410583037
108.948314543
107.436631281
105.873709784
104.257487374
102.585596329
100.85529735
99.0633745759
97.2059907445
95.2785065894
93.275237115
91.1891128844
89.0111770514
86.7298818147
84.3300912105
81.791410201
79.0853306348
76.1710546955
72.9907490531
69.4416252441
65.3288358751
147.316020601
146.661819908
146.109463401
145.671844538
145.300219409
144.978116283
144.689015108
144.418780086
144.158316245
143.90183466
143.645450166
143.386480839
143.123014389
142.853623684
142.577187613
142.292777638
141.999584335
141.696869376
141.383934619
141.060103213
140.724712932
140.377123873
140.016591764
139.642462723
139.254044642
138.850628057
138.431491903
137.995903182
137.543116686
137.072375062
136.582909247
136.073938791
135.544672962
134.99430412
134.422014939
133.826982729
133.208374704
132.565348129
131.897051378
131.202624082
130.481197536
129.73189518
128.953832354
128.146116936
127.307849414
126.438121674
125.536018515
124.600615963
123.630980836
122.626169358
121.585225134
120.5071766
119.39103346
118.235782447
117.040381566
115.803753061
114.524774743
113.202268515
111.834986237
110.421591856
108.960638048
107.450537521
105.88952621
104.275637199
102.606632632
100.879917818
99.0924523957
97.2406380142
95.3201605341
93.3257812103
91.2510499547
89.0879035853
86.8262471062
84.453164809
81.9519362027
79.3007018988
76.4714894697
73.4326853266
70.1483137956
66.5953578501
146.766259822
146.402878219
146.002979354
145.633987644
145.296369303
144.988264999
144.702899759
144.432193993
144.169820365
143.911151844
143.652770205
143.392143701
143.127372282
142.856988557
142.579816445
142.294873521
142.001303648
141.698330844
141.385228084
141.061295438
140.725841693
140.378176468
140.017658329
139.643563948
139.255182671
138.851806954
138.432715511
137.997174114
137.544436376
137.073743818
136.584326192
136.075401361
135.546176605
134.9958504
134.423611709
133.828635764
133.210090129
132.567132944
131.898911669
131.20456608
130.483228549
129.734023541
128.95606788
128.148471293
127.310336509
126.440758569
125.538825646
124.603618131
123.634208267
122.629658631
121.589020799
120.511332711
119.395615473
118.240870213
117.046072652
115.810166973
114.532058256
113.210601731
111.84459013
110.432737653
108.973662806
107.465866628
105.907689355
104.297271659
102.63251215
100.911012532
99.1299980133
97.2862168398
95.375815866
93.394185012
91.3357668933
89.1938318292
86.9601481544
84.6246742393
82.1753216714
79.597993099
76.8779442381
74.0054693876
70.984168153
67.851221569
146.432212382
146.200416651
145.899003346
145.588024893
145.283183557
144.991158099
144.712180423
144.443052349
144.180090302
143.920004082
143.6600331
143.397939744
143.131931339
142.860558731
142.582625251
142.297114041
142.003132609
141.699871888
141.386576605
141.06252405
140.72700913
140.379335277
140.018805968
139.644710571
139.256352034
138.853014248
138.433970722
137.99848476
137.545808569
137.075183106
136.58583805
136.076992108
135.547852863
134.997616926
134.425470059
133.830588856
133.212139025
132.569278219
131.901157715
131.206917328
130.485692348
129.736609332
128.958787543
128.151340054
127.313371856
126.443982933
125.542265624
124.60730594
123.638183152
122.633967658
121.593721575
120.516495312
119.401325393
118.247231635
117.053212501
115.818239388
114.541250395
113.221141706
111.856754991
110.446870756
108.990185454
107.485288281
105.93064144
104.324550396
102.665121907
100.950214265
99.1773802604
97.3437982012
95.4461884998
93.4807167689
91.4428859999
89.3274314763
87.1282448255
84.8384075393
82.4504993254
79.9575115528
77.3552483176
74.6481522032
71.8575836257
69.0342384067
146.228820412
146.052918124
145.811722461
145.544395325
145.267206586
144.990566298
144.718874549
144.452370852
144.1896037
143.928592933
143.667303512
143.403868232
143.136661528
142.864292536
142.585568423
142.29945159
142.005020097
141.701434598
141.387912347
141.063707358
140.728096036
140.3803663
140.019808626
139.645713319
139.257369993
138.854058158
138.435048662
137.999602701
137.546970915
137.076393007
136.587097583
136.078302437
135.549214767
134.999031086
134.42693812
133.832113319
133.213725338
132.570933933
131.902889953
131.208738321
130.487615384
129.738647795
128.960956767
128.15365832
127.315861023
126.446668999
125.545180401
124.610488239
123.641679877
122.637837002
121.598032954
120.521332553
119.406790489
118.253448474
117.060332091
115.826447605
114.550777602
113.23226883
111.869830833
110.462311853
109.008497413
107.50709504
105.956721074
104.355859127
102.702842769
100.995822357
99.2327272455
97.4112238733
95.5286722202
93.58208635
91.568110021
89.4830315251
87.3228846752
85.0837283257
82.7622778493
80.3571819304
77.871508228
75.3174110312
72.7218381915
70.1318853722
146.105704093
145.95009626
145.743793602
145.507230292
145.251753651
144.988472676
144.72385806
144.46034813
144.198213708
143.936626873
143.674253488
143.409616956
143.141287467
142.867956488
142.588451917
142.301726275
142.006834686
141.702911281
141.389147954
141.064776571
140.729055099
140.381256947
140.020663243
139.646556556
139.258218272
138.854922982
138.435938594
138.000524109
137.547928611
137.077390868
136.588139098
136.079391031
135.550354153
135.000225746
134.428193766
133.833436476
133.215122789
132.572413296
131.904460061
131.210407645
130.489391848
129.740542963
128.962987596
128.15584412
127.318227031
126.44924564
125.548004743
124.613605335
123.645144305
122.641713973
121.602401875
120.526290504
119.412455757
118.259965112
117.06787552
115.835229907
114.561051667
113.244349599
111.884093722
110.47922613
109.028645014
107.531189998
105.985631834
104.390657734
102.744856572
101.046699348
99.2945218781
97.4865104323
95.6206952005
93.6949616269
91.7070954579
89.6548906292
87.5363678575
85.3501946044
83.096439684
80.7778609038
78.4020067795
75.9844755028
73.5521422368
71.1443614448
146.031624781
145.881614489
145.694858131
145.478751764
145.239044555
144.986222206
144.727584132
144.466845085
144.20547763
143.94355533
143.680337255
143.414699933
143.145402867
142.871224889
142.591022549
142.30374606
142.008433928
141.704198713
141.390210689
141.065682445
140.729855806
140.381991305
140.021360041
139.647236654
139.258897597
138.8556126
138.436646774
138.001256968
137.54869089
137.078186487
136.588971551
136.080263756
135.551270748
135.001190146
134.42920999
133.83450897
133.216256968
132.573615019
131.90573632
131.211768406
130.490852005
129.742120908
128.96470212
128.157717725
127.32028673
126.451524343
125.550542663
124.616451071
123.648356697
122.645364734
121.606578653
120.531099617
119.418026203
118.266453593
117.075472758
115.844168864
114.571620459
113.256891132
111.899036236
110.497085338
109.050047374
107.556902545
106.016596104
104.428030965
102.790063122
101.101497517
99.3610887561
97.5675510358
95.7195827314
93.8159188355
91.8554270224
89.8372774803
87.7612244857
85.6280803321
83.4404583078
81.2038918391
78.9284168808
76.6306375494
74.3352331425
72.0742095255
145.989348642
145.839900824
145.663484654
145.459745728
145.230212284
144.984503253
144.730142679
144.471503838
144.21079661
143.948701944
143.684903927
143.418544718
143.148532848
142.873719786
142.592988859
142.305291889
142.009656778
141.705180813
141.391018409
141.066367748
140.730458482
140.382541317
140.021879717
139.64774326
139.259401193
138.856122998
138.437170743
138.001799486
137.549255898
137.078777389
136.58959147
136.080915854
135.551958308
135.001916927
134.429980308
133.835327966
133.217130942
132.574552022
131.906746624
131.212864606
130.492045582
129.743426635
128.966139361
128.159311042
127.322065616
126.453524544
125.552807576
124.619033303
123.651319995
122.648786485
121.610552457
120.535739093
119.423469437
118.272868536
117.083063411
115.853182948
114.582356059
113.269716851
111.914394899
110.515520882
109.072223855
107.58363018
106.048863158
104.467045944
102.837305508
101.158781825
99.4306443819
97.6521221565
95.8225518894
93.9414608127
92.008694126
90.024618696
87.9904296084
85.9086182438
83.783630842
81.6227624933
79.4372630577
77.2435432265
75.0636465506
72.9237501354
145.970072277
145.8201943
145.648230859
145.450294828
145.225732833
144.983613397
144.731477821
144.473968468
144.213640839
143.951479045
143.687387845
143.420651572
143.15026076
142.875108076
142.594092932
142.3061691
142.010359407
141.705753237
141.391496614
141.066780018
140.730826563
140.382881674
140.022204637
139.648061786
139.259720905
138.856448843
138.437506654
138.002148671
137.549621058
137.079161128
136.589996411
136.081344758
135.552414392
135.002403947
134.430502778
133.835891416
133.217742096
132.575218929
131.907479261
131.213672127
130.492942965
129.744431301
128.96727169
128.160595875
127.32353325
126.455211835
125.554759253
124.621303668
123.653974901
122.651905793
121.614233159
120.540098911
119.428651229
118.279045783
117.09044686
115.86202879
114.592976816
113.282490566
111.929781356
110.534079913
109.094634379
107.610719115
106.081636491
104.506728469
102.885389015
101.217084087
99.5013809696
97.737993418
95.9268465205
94.068178005
92.1626801458
90.2117222732
88.2176441888
86.1841993081
84.1170952268
82.0246765427
79.9186663624
77.8148178568
75.7328203843
73.694596333
145.970074786
145.8202103
145.648257901
145.450331246
145.225778047
144.983666091
144.731537246
144.474033689
144.213711055
143.951553591
143.687466229
143.420733463
143.150345971
142.875196533
142.594184634
142.306264091
142.010457707
141.70585488
141.391601654
141.066888563
140.730938823
140.382997987
140.022325417
139.648187655
139.259852595
138.856587093
138.437652381
138.002302946
137.549785279
137.07933668
136.590185212
136.081549262
135.552637565
135.002649393
134.430774915
133.836195635
133.218084875
132.575608077
131.907924114
131.214184989
130.493537529
129.745124303
128.968083891
128.161552569
127.324665175
126.456556282
125.556361503
124.623218681
123.656269403
122.654660688
121.617546626
120.544090116
119.433464779
118.284857175
117.097469085
115.870520513
114.603252262
113.294926147
111.944838755
110.552321023
109.116737844
107.637507864
106.114109725
104.54609702
102.933119435
101.274949955
99.5715215817
97.8229838482
96.0297824515
94.1927672319
92.3133656066
90.3938809003
88.4374276568
86.4486265881
84.4339929029
82.4024277016
80.3657167986
78.3388767817
76.3398094859
74.3876067868
145.989356247
145.839949227
145.663566374
145.459855612
145.230348081
144.98466211
144.730321616
144.471700037
144.211007692
143.948925947
143.685139371
143.418790613
143.148788646
142.873985269
142.593264043
142.305576873
142.009951655
141.705485693
141.39133346
141.0666933
140.730795144
140.382890062
140.022241836
139.648120574
139.259795786
138.85653713
138.437607074
138.002261176
137.549746813
137.079302105
136.590155757
136.08152684
135.552624774
135.002649575
134.430792288
133.836235421
133.218153375
132.575713232
131.908075126
131.214393204
130.493816714
129.745491119
128.968558856
128.16216065
127.325436715
126.457528085
125.557578214
124.624734495
123.658150103
122.656986066
121.620413494
120.54761594
119.437792042
118.290158713
117.103954514
115.878444083
114.612921409
113.306714568
111.959199109
110.569796831
109.137994368
107.663344349
106.145491449
104.584187148
102.979316423
101.330934865
99.6393277808
97.9050810801
96.1290845073
94.3127127594
92.4579439454
90.5674600091
88.6452367199
86.6965337475
84.7283424671
82.7498152608
80.7726250282
78.8111752924
76.8821821006
75.0030843465
146.031637716
145.881696449
145.694996178
145.478937028
145.239272966
144.98648892
144.727884012
144.467173528
144.205830648
143.943929649
143.680730419
143.415110314
143.145829565
142.871667551
142.591481209
142.304220895
142.008925128
141.704706485
141.390735323
141.066224499
140.730416308
140.382571846
140.0219627
139.647864401
139.259553644
138.856300779
138.437371475
138.002023432
137.549505372
137.07905661
136.589906791
136.081275828
135.55237395
135.002402004
134.430551906
133.836007144
133.217943172
132.575528384
131.907924538
131.214287728
130.493769624
129.745518486
128.96868037
128.162400285
127.325823614
126.458097666
125.558373443
124.625807514
123.659564211
122.658818028
121.622756485
120.550582929
119.441520046
118.294813784
117.10973778
115.885598681
114.621742134
113.317559576
111.972497331
110.586070262
109.157867812
107.687576824
106.17499748
104.620069251
103.022905829
101.383822474
99.7033742133
97.9824185464
96.2222756744
94.4247609753
92.5923295168
90.728242893
88.836809448
86.9236309692
84.9959259242
83.0628655754
81.1358903467
79.2289454353
77.358162105
75.540453195
146.105722852
145.950214061
145.743991177
145.507494369
145.252078103
144.98885043
144.724281773
144.460811316
144.19871077
143.937153276
143.674805839
143.410193001
143.141885955
142.868576957
142.589094421
142.302391069
142.007522062
141.703621548
141.389881502
141.065534153
140.729838087
140.382067526
140.021504381
139.647432105
139.259132636
138.855881421
138.436947181
138.001589983
137.549060361
137.078599008
136.589436661
136.080794164
135.551882619
135.001903706
134.430050182
133.835506414
133.217448942
132.57504733
131.907464906
131.213859651
130.493385505
129.745193344
128.968432598
128.16225228
127.325802621
126.458236807
125.558712927
124.626396151
123.660461271
122.660095386
121.624501395
120.552901081
119.44453963
118.298690107
117.114658788
115.891791397
114.629481875
113.327179404
111.984399973
110.600738062
109.175885248
107.7096456
106.201957759
104.652921545
103.062828744
101.432217577
99.7619233905
98.053129806
96.3074484066
94.5270211525
92.7146460834
90.8739230098
89.0094332709
87.1269506674
85.2337043521
83.338677356
81.4529487287
79.590086934
77.7661014768
75.9984002873
146.228845758
146.053075568
145.811984856
145.544744054
145.267632964
144.991060712
144.719427339
144.452973609
144.190249297
143.929275629
143.668019017
143.404613707
143.13743541
142.865094257
142.586398045
142.300309458
142.005906584
141.702350028
141.388857055
141.064681983
140.729101655
140.381404896
140.020885062
139.646833929
139.25853981
138.855283182
138.436336192
138.00096144
137.548411381
137.077928167
136.588743656
136.080079612
135.551148023
135.001151421
134.429283397
133.834729104
133.216665948
132.574264558
131.906689609
131.213100756
130.492654058
129.744502966
128.967799955
128.161697743
127.32535096
126.457918084
125.558563644
124.626460664
123.660793412
122.660760384
121.625578313
120.554485802
119.4467483
118.301663298
117.118566467
115.896838948
114.63591701
113.335302349
111.994571249
110.613393922
109.191548284
107.72894068
106.225632184
104.68186961
103.098119502
101.475110572
99.8138860932
98.1158675334
96.3829298194
94.6174862062
92.8225916962
91.0020634641
89.1606249878
87.3040665324
85.4394492619
83.575366285
81.7223316806
79.8934255462
78.1046781043
76.3747622431
146.432245095
146.200618712
145.899337129
145.588465326
145.283718698
144.991775369
144.712867708
144.443799349
144.180888461
143.920846559
143.660914836
143.398857408
143.132883138
142.86154409
142.583644404
142.298167629
142.004221356
141.700996372
141.387737223
141.063721345
140.728244327
140.380609538
140.020121697
139.646081624
139.257782846
138.854510872
138.435541318
138.000139233
137.547558884
137.077043775
136.587826812
136.0791306
135.550167927
135.000142099
134.428247464
133.833670035
133.215588155
132.573173502
131.905591923
131.212004486
130.491568617
129.743440151
128.966773929
128.160725876
127.324454509
126.45712303
125.557901711
124.625970547
123.660522073
122.660764831
121.625927438
120.55526361
119.448056572
118.303625222
117.121331078
115.900586456
114.640863647
113.341707918
112.002749954
110.623721851
109.204477165
107.745012105
106.245492806
104.706286975
103.12800121
101.511524907
99.8580817347
98.1692882631
96.4472234099
94.6945051628
92.9143751749
91.110791017
89.2885268661
87.4532793094
85.6117998286
83.7720824763
81.9437488411
80.1389533517
78.3732115272
76.6663784113
146.76629998
146.403128645
146.003387103
145.634520194
145.297010744
144.988999306
144.703712269
144.433072616
144.170755245
143.912135191
143.653796325
143.393208871
143.128474592
142.858127574
142.580992842
142.296088754
142.002559727
141.69963019
141.386573218
141.06268962
140.727293666
140.379701828
140.019230189
139.645186126
139.256869505
138.853570116
138.434566664
137.999126488
137.54650544
137.075948088
136.586688182
136.077949028
135.548943948
134.998876699
134.426942029
133.832326504
133.214209317
132.571763172
131.904154964
131.210547582
130.490100398
129.741970874
128.96531604
128.159294383
127.323067519
126.45580247
125.55667423
124.624868514
123.659584766
122.660039645
121.625472014
120.555147287
119.448363192
118.304456256
117.122809047
115.902859247
114.64411116
113.34614658
112.008640502
110.631377248
109.214271942
107.757393595
106.260993441
104.725537471
103.151745079
101.540632877
99.8935658906
98.2123142862
96.4991158631
94.7567430303
92.9885715425
91.1986476793
89.3917476965
87.5734227994
85.7500374227
83.9288087869
82.1180399177
80.3281126998
78.572243054
76.8690846348
147.316073047
146.66213288
146.109955139
145.6724745
145.300967969
144.978964091
144.689945241
144.41977894
144.159372868
143.902940425
143.646598683
143.387667773
143.124237216
142.854881275
142.578479794
142.2941049
142.000947912
141.698272012
141.385381007
141.06159931
140.726258765
140.378689144
140.018211549
139.644145852
139.255796623
138.852456871
138.433407856
137.997918761
137.545246962
137.074638058
136.585326557
136.076536444
135.547481612
134.997366378
134.425385988
133.830727098
133.212567859
132.570082327
131.902438273
131.208798886
130.488324753
129.740175146
128.963509072
128.157487092
127.321273376
126.454038081
125.554959966
124.623228952
123.658049609
122.658645847
121.624264003
120.554178899
119.447699718
118.304176673
117.123009096
115.903654277
114.645638528
113.34857181
112.012162534
110.636234806
109.220750538
107.765834138
106.27180171
104.739194587
103.168818415
101.561787031
99.9195722488
98.244058125
96.5375980361
94.8030779252
93.0439711851
91.2643874595
89.4690996693
87.6635365567
85.8537155046
84.0460247138
82.247125478
80.4645780661
78.7054976064
76.9785813152
148.311310661
146.95349494
146.162748565
145.662906451
145.272067102
144.948312205
144.663900977
144.399394663
144.143991602
143.891545721
143.638231732
143.381537726
143.119727898
142.851526467
142.57593308
142.292112403
141.999325876
141.696888656
141.384143268
141.060440918
140.725122062
140.377537252
140.017034582
139.642930713
139.254533983
138.851140752
138.432033917
137.996481631
137.54374302
137.073065203
136.583683337
136.074821767
135.545694626
134.995506476
134.423452941
133.828721626
133.21049393
132.56794206
131.900234335
131.206534819
130.486005135
129.737805171
128.961094947
128.155036374
127.318795335
126.451544081
125.552463949
124.6207478
123.655604494
122.656262082
121.621972159
120.55201575
119.445709588
118.302413175
117.121537029
115.902552355
114.645002897
113.348517186
112.012826087
110.637781207
109.223376636
107.76977454
106.277334505
104.746647778
103.178576477
101.574297906
99.9353538935
98.2637025985
96.5617705682
94.8325322905
93.079535583
91.3069483304
89.5195753186
87.7228338661
85.9226211212
84.1248040058
82.3349124676
80.5577100537
78.7880007595
76.9962832241
150.104419247
147.176321718
146.06279417
145.535723948
145.168624774
144.874051836
144.6125942
144.364227518
144.119870189
143.874955592
143.626789259
143.373618919
143.114214823
142.847643546
142.573140291
142.290033582
141.99769934
141.695532635
141.382930712
141.059285968
140.723993032
140.376412046
140.015874143
139.641714097
139.253249793
138.849782001
138.430596836
137.994969403
137.542157319
137.071406297
136.581951521
136.073017473
135.543818343
134.993558718
134.421434242
133.826632239
133.208332785
132.565709538
131.897931021
131.204161948
130.483564144
129.735298153
128.958524703
128.152406465
127.316110231
126.448809332
125.549686464
124.61793655
123.652770012
122.653417188
121.619132482
120.549200219
119.442941019
118.299719187
117.118950935
115.900114144
114.642760079
113.346527374
112.0111585
110.636518806
109.222618519
107.76963894
106.277962187
104.748205978
103.181263182
101.57834625
99.9410368283
98.2713425228
96.5717604746
94.8452960762
93.0955544929
91.3267724369
89.5438388786
87.7522724913
85.9581193163
84.1678762885
82.3879642818
80.6231666465
78.8530245328
76.9530901724
56.9062364786
53.3541136515
50.9626859394
49.00527699
47.3332425678
45.8764090125
44.590790176
43.4466787659
42.4224014262
41.5012122793
40.6697064746
39.9168806985
39.2335347764
38.6118712144
38.0452118181
37.5277892124
37.0545881368
36.6212213304
36.2238319728
35.8590152688
35.5237549629
35.2153690754
34.9314644547
34.6698989731
34.4287507574
34.206291985
34.0009656626
33.8113649734
33.6362153425
33.4743595656
33.3247453268
33.1864142257
33.0584912504
32.9401753302
32.8307323341
32.7294891987
32.6358268297
32.5491735256
32.469000403
32.3948189128
32.3261779358
32.2626597527
32.2038736545
32.1494526088
32.0990492575
32.0523349043
32.0090465708
31.9691321575
31.9323345479
31.898339987
31.8668976915
31.8377675557
31.8107537658
31.7856936891
31.7624396945
31.7408674714
31.7208433092
31.702228131
31.6849235745
31.6688115756
31.6538192824
31.639828893
31.6267530022
31.6145120135
31.6030316902
31.5922456326
31.5820928197
31.5725164261
31.5634654456
31.5548915263
31.5467503142
31.53900246
31.5316108962
31.5245411356
31.5177626276
31.5112463403
31.5049665832
31.4988979417
31.4930184057
31.4873075368
31.4817498575
31.4763364306
31.4710516209
31.4658785526
31.4608079628
31.4558200402
31.4509190813
31.446076383
31.4412998383
31.4365944268
31.4319336916
31.4273084612
31.4227112529
31.4181357684
31.4135769863
31.4090298841
31.4044891913
31.3999487638
31.3954039369
31.3908522105
31.3862914661
31.3817187739
31.3771304045
31.3725224889
31.3678920476
31.3632369491
31.3585551227
31.3538438864
31.3491002161
31.344321244
31.33950397
31.3346451722
31.3297422173
31.3247933164
31.3197976176
31.3147546942
31.3096638816
31.3045240164
31.2993341193
31.2940937168
31.2888026596
31.2834606264
31.2780664929
31.2726136143
31.2670785586
31.2614134118
31.2558334303
31.250748186
31.2456194019
31.240431407
31.2352938052
31.2302875361
31.2254668871
31.2208879081
31.2166102629
31.212692042
31.2091833667
31.2061247333
31.2035192516
31.2013559719
31.1997593694
31.1984322453
31.1972629684
31.1956473733
31.1919287057
31.1818924419
31.1554527931
31.0909380588
30.9470736576
30.6533111549
30.104431274
29.1676547589
27.7104055716
25.6400203307
22.9305268418
19.6380358284
15.8810533814
11.6277114018
6.60278349787
1.57026368281
60.0875934872
56.034781088
53.3228059903
51.1704545871
49.3685088866
47.8185576585
46.4623864973
45.2627597824
44.193502798
43.2349828673
42.3718628683
41.5918002936
40.8846430201
40.2419017813
39.6563877235
39.1219503021
38.6332830266
38.1857738742
37.7753903161
37.3985885639
37.0522402557
36.7335720909
36.4401149924
36.169663058
35.9202403242
35.6900720253
35.4775601311
35.2812612646
35.0998679157
34.9321930932
34.7771575636
34.6337780771
34.5011566672
34.3784709451
34.2649670054
34.1599534231
34.0627941973
33.9729021177
33.889734392
33.8127906367
33.7416105384
33.675769504
33.6148750302
33.5585638277
33.5065030021
33.4583849624
33.4139086577
33.3727140441
33.3345730905
33.2992696067
33.2665941704
33.2363499
33.2083540609
33.1824294459
33.1584071339
33.136127397
33.1154514985
33.0962486113
33.078397844
33.0618010531
33.0463351517
33.0319036022
33.0184240508
33.0058166725
32.9940044119
32.9829189546
32.9724968258
32.962678666
32.9534112205
32.9446435545
32.9363298572
32.9284276911
32.9208992613
32.9137078525
32.9068211434
32.9002103277
32.8938469551
32.8877051465
32.8817630852
32.8760000348
32.8703956794
32.8649272356
32.8595820469
32.8543477305
32.849212518
32.8441656281
32.8391955552
32.834294095
32.8294446402
32.8246357679
32.8198663444
32.8151332652
32.8104302388
32.8057514575
32.8010918979
32.7964466595
32.791810233
32.7871766049
32.7825408071
32.7779001309
32.7732524591
32.768594906
32.7639236132
32.7592347387
32.7545252648
32.7497931923
32.7450362274
32.7402515578
32.7354362091
32.7305872061
32.7257014675
32.7207755845
32.7158067622
32.7107930782
32.7057337609
32.7006283232
32.6954761157
32.6902762937
32.6850286078
32.6797336564
32.6743931239
32.6690096427
32.6635875587
32.6581342706
32.6526635524
32.6472003928
32.6417814203
32.6363518356
32.6308359181
32.6256492071
32.6205412871
32.6155928095
32.6108872491
32.6064865839
32.6024603906
32.5988806452
32.5958152
32.5933217733
32.5913960822
32.5901474162
32.5894907723
32.5893094448
32.5893074771
32.5886713123
32.5852195152
32.5737560178
32.5422060533
32.4656369702
32.2978071444
31.9618416797
31.3464064201
30.3157297164
28.7403435403
26.5374070705
23.6928302993
20.2672226832
16.3770869525
12.0058210074
6.89196922265
1.70383572103
62.2950207467
58.3615864456
55.4944431471
53.2105163345
51.3085488454
49.6820619741
48.2660224891
47.0184146069
45.909815774
44.9183657702
44.0271699529
43.2227773827
42.4942338688
41.8324624936
41.2298379734
40.679881966
40.1770386708
39.716504645
39.2940985583
38.9061591577
38.5494636277
38.2211615835
37.9187206171
37.6398818354
37.382624326
37.1451342965
36.925778954
36.723083801
36.5357135306
36.3624559665
36.2022086085
36.0539663824
35.9168109976
35.789901253
35.6724654145
35.5637950908
35.4632381073
35.3701920584
35.2841006532
35.204450343
35.1307669215
35.0626121637
34.9995787178
34.9412880205
34.887386541
34.8375465644
34.79148084
34.7489024915
34.7094019821
34.6728114242
34.638978394
34.6076883265
34.578733045
34.5519245768
34.5270914656
34.5040736533
34.4827312628
34.4629212832
34.4445275752
34.4274318197
34.4115194825
34.3966851469
34.3828380049
34.3698964085
34.3577801864
34.346417955
34.3357437852
34.3256958775
34.3162166367
34.3072542645
34.2987619368
34.2906964915
34.28301828
34.2756894836
34.2686764444
34.2619492787
34.2554782494
34.2492367394
34.2431978769
34.2373348549
34.231638288
34.2260932993
34.2206856023
34.2153976581
34.2102172591
34.2051265365
34.2001192527
34.1951819748
34.1903048161
34.185479758
34.1806980161
34.1759525492
34.1712366088
34.1665445128
34.1618711909
34.1572113612
34.1525593419
34.1479091536
34.1432554936
34.1385952158
34.1339258631
34.129244244
34.1245465772
34.119829383
34.1150896604
34.1103250233
34.1055330627
34.1007111843
34.0958564839
34.0909661158
34.0860371952
34.0810663959
34.0760510755
34.0709896785
34.0658812162
34.0607248334
34.0555200101
34.0502663064
34.0449640221
34.0396145858
34.0342206842
34.0287862957
34.0233175892
34.0178246027
34.0123236583
34.0068322785
34.0013533154
33.9959272196
33.9906477611
33.9853425211
33.9801853357
33.9752226237
33.9705869019
33.9663293608
33.962518929
33.9592418112
33.9565807408
33.9546167762
33.953340959
33.952788617
33.9530008131
33.9537802579
33.9547265727
33.954769208
33.9511502812
33.9376297669
33.9001194113
33.8104204661
33.6175290514
33.2387300172
32.5574134652
31.4357701928
29.7478909392
27.4200433479
24.4482551778
20.8958194884
16.8759236519
12.3864729032
7.18076751091
1.83519790087
64.0991951649
60.3744878873
57.4705064748
55.1153282169
53.1452314932
51.4608757769
49.9970972109
48.7100146415
47.5683799884
46.5488686952
45.6334690281
44.8078935713
44.0605642685
43.381938735
42.7640425068