/*--------------------------------*- C++ -*----------------------------------*\
| =========                 |                                                 |
| \\      /  F ield         | OpenFOAM: The Open Source CFD Toolbox           |
|  \\    /   O peration     | Version:  2106                                  |
|   \\  /    A nd           | Website:  www.openfoam.com                      |
|    \\/     M anipulation  |                                                 |
\*---------------------------------------------------------------------------*/
FoamFile
{
    version     2.0;
    format      ascii;
    arch        "LSB;label=32;scalar=64";
    class       volScalarField;
    location    "0.11";
    object      p;
}
// * * * * * * * * * * * * * * * * * * * * * * * * * * * * * * * * * * * * * //

dimensions      [1 -1 -2 0 0 0 0];

internalField   nonuniform List<scalar> 
800
(
1
1
1
1
1
1
1
1
1
1
1
1
1
1
1
1
1
1
1
1
1
1
1
1
1
1
1
1
1
1
1
1
1
1
1
1
1
1
1
1
1
1
1
1
1
1
1
1
1
1
1
1
1
1
1
1
1
1
1
1
1
1
1
1
1
1
1
1
1
1
1
1
1
1
1
1
1
1
1
1
1
1
1
1
1
1
1
1
1
1
1
1
1
1
1
1
1
1
1
1
1
1
1
1
1
1
1
1
1
1
1
1
1
1
1
1
1
1
1
1
1
1
1
1
1
1
1
1
1
1
1
1
1
1
1
1
1
1
1
1
1
1
1
1
1
1
1
1
1
1
1
1
1
1
1
1
1
1
1
1
1
1
1
1
1
1
1
1
1
1
1
1
1
1
1
1
1
1
1
1
1
1
1
1
1
1
1
1
1
1
1
1
1
1
1
1
1
1
1
1
1
1
1
1
1
1
1
1
1
1
1
1
1
1
1
1
1
1
1
1
1
1
1
1
1
1
1
1
1
1
1
1
1
1
1
1
1
1
1
1
1
1
1
1
1
1
1
1
1
1
1
1
1
1
1
1
1
1
1
1
1
1
1
1
1
1
1
1
1
1
0.999994
0.999613
0.995431
0.983206
0.967418
0.953216
0.941376
0.931167
0.921901
0.913156
0.904704
0.896433
0.888286
0.880238
0.872276
0.864392
0.856581
0.84884
0.841167
0.833559
0.826015
0.818534
0.811113
0.803753
0.796453
0.789211
0.782027
0.774901
0.767831
0.760817
0.753859
0.746956
0.740108
0.733314
0.726574
0.719887
0.713253
0.706672
0.700143
0.693665
0.687239
0.680864
0.674539
0.668265
0.662041
0.655866
0.64974
0.643663
0.637634
0.631653
0.62572
0.619835
0.613997
0.608205
0.60246
0.59676
0.591107
0.585499
0.579936
0.574418
0.568944
0.563514
0.558128
0.552786
0.547486
0.54223
0.537016
0.531845
0.526715
0.521627
0.516581
0.511576
0.506611
0.501687
0.496803
0.491959
0.487155
0.482391
0.477665
0.472979
0.468331
0.463721
0.45915
0.454616
0.450121
0.445662
0.441241
0.436857
0.432509
0.428198
0.423923
0.419684
0.415481
0.411313
0.407181
0.403084
0.399023
0.394995
0.391003
0.387045
0.383121
0.379231
0.375376
0.371553
0.367765
0.364009
0.360287
0.356598
0.352941
0.349317
0.345726
0.342166
0.338638
0.335142
0.331677
0.328243
0.32484
0.321467
0.318125
0.314821
0.311575
0.308445
0.30557
0.303209
0.301676
0.301049
0.300963
0.301247
0.301475
0.301469
0.301243
0.30112
0.3011
0.301116
0.301159
0.301191
0.301225
0.30127
0.301313
0.301343
0.301371
0.301416
0.301476
0.30153
0.301564
0.301584
0.301595
0.3016
0.301604
0.301617
0.301654
0.301695
0.301724
0.301744
0.301758
0.301767
0.301773
0.301784
0.301803
0.301821
0.301826
0.301825
0.301811
0.301783
0.301745
0.301708
0.301687
0.301677
0.30167
0.30166
0.301652
0.301647
0.30164
0.301626
0.301616
0.301616
0.301625
0.301632
0.301634
0.301642
0.301651
0.301653
0.30165
0.301653
0.301672
0.30169
0.301696
0.301701
0.301711
0.301716
0.301714
0.301713
0.30173
0.301755
0.301762
0.301762
0.301762
0.301759
0.301741
0.301714
0.301703
0.301701
0.3017
0.301688
0.301681
0.301682
0.301676
0.301657
0.301644
0.301655
0.301663
0.301655
0.301647
0.301654
0.301657
0.301647
0.301636
0.301651
0.301671
0.301668
0.301668
0.301678
0.301691
0.301689
0.301674
0.301685
0.301715
0.301719
0.301726
0.30177
0.30189
0.302088
0.302165
0.302744
0.302572
0.300217
0.301052
0.301543
0.302144
0.302618
0.302611
0.302298
0.3018
0.301365
0.301037
0.300843
0.300839
0.301195
0.301942
0.302474
0.302516
0.302468
0.302224
0.301649
0.301037
0.300824
0.300895
0.301034
0.301393
0.302035
0.302405
0.302427
0.302376
0.302099
0.301469
0.301001
0.300911
0.300908
0.301092
0.301634
0.302259
0.302417
0.302431
0.302347
0.301987
0.301345
0.300979
0.300969
0.30104
0.301286
0.30183
0.302314
0.302418
0.302379
0.302243
0.301837
0.301252
0.301038
0.301032
0.301098
0.301395
0.301954
0.302268
0.302309
0.30229
0.302093
0.301589
0.301126
0.301052
0.30106
0.301164
0.301507
0.302024
0.302239
0.302233
0.302168
0.301942
0.301462
0.301135
0.301099
0.301126
0.301254
0.301629
0.302075
0.302197
0.302197
0.302116
0.301823
0.301437
0.30128
0.301167
0.300352
0.289899
0.219231
0.117285
0.10016
0.1
0.1
0.1
0.1
0.1
0.1
0.1
0.1
0.1
0.1
0.1
0.1
0.1
0.1
0.1
0.1
0.1
0.1
0.1
0.1
0.1
0.1
0.1
0.1
0.1
0.1
0.1
0.1
0.1
0.1
0.1
0.1
0.1
0.1
0.1
0.1
0.1
0.1
0.1
0.1
0.1
0.1
0.1
0.1
0.1
0.1
0.1
0.1
0.1
0.1
0.1
0.1
0.1
0.1
0.1
0.1
0.1
0.1
0.1
0.1
0.1
0.1
0.1
0.1
0.1
0.1
0.1
0.1
0.1
0.1
0.1
0.1
0.1
0.1
0.1
0.1
0.1
0.1
0.1
0.1
0.1
0.1
0.1
0.1
0.1
0.1
0.1
0.1
0.1
0.1
0.1
0.1
0.1
0.1
0.1
0.1
0.1
0.1
0.1
0.1
0.1
0.1
0.1
0.1
0.1
0.1
0.1
0.1
0.1
0.1
0.1
0.1
0.1
0.1
0.1
0.1
0.1
0.1
0.1
0.1
0.1
0.1
0.1
0.1
0.1
0.1
0.1
0.1
0.1
0.1
0.1
0.1
0.1
0.1
0.1
0.1
0.1
0.1
0.1
0.1
0.1
0.1
0.1
0.1
0.1
0.1
0.1
0.1
0.1
0.1
0.1
0.1
0.1
0.1
0.1
0.1
0.1
0.1
0.1
0.1
0.1
0.1
0.1
0.1
0.1
0.1
0.1
0.1
0.1
0.1
0.1
0.1
0.1
0.1
0.1
0.1
0.1
0.1
0.1
0.1
0.1
0.1
0.1
0.1
0.1
0.1
0.1
0.1
0.1
0.1
0.1
0.1
0.1
0.1
0.1
0.1
0.1
0.1
0.1
0.1
0.1
0.1
0.1
0.1
)
;

boundaryField
{
    left
    {
        type            zeroGradient;
    }
    right
    {
        type            zeroGradient;
    }
    empty
    {
        type            empty;
    }
}


// ************************************************************************* //
