/*--------------------------------*- C++ -*----------------------------------*\
| =========                 |                                                 |
| \\      /  F ield         | OpenFOAM: The Open Source CFD Toolbox           |
|  \\    /   O peration     | Version:  2106                                  |
|   \\  /    A nd           | Website:  www.openfoam.com                      |
|    \\/     M anipulation  |                                                 |
\*---------------------------------------------------------------------------*/
FoamFile
{
    version     2.0;
    format      ascii;
    arch        "LSB;label=32;scalar=64";
    class       volScalarField;
    location    "0.11";
    object      rho;
}
// * * * * * * * * * * * * * * * * * * * * * * * * * * * * * * * * * * * * * //

dimensions      [1 -3 0 0 0 0 0];

internalField   nonuniform List<scalar> 
800
(
1.00435
1.00435
1.00435
1.00435
1.00435
1.00435
1.00435
1.00435
1.00435
1.00435
1.00435
1.00435
1.00435
1.00435
1.00435
1.00435
1.00435
1.00435
1.00435
1.00435
1.00435
1.00435
1.00435
1.00435
1.00435
1.00435
1.00435
1.00435
1.00435
1.00435
1.00435
1.00435
1.00435
1.00435
1.00435
1.00435
1.00435
1.00435
1.00435
1.00435
1.00435
1.00435
1.00435
1.00435
1.00435
1.00435
1.00435
1.00435
1.00435
1.00435
1.00435
1.00435
1.00435
1.00435
1.00435
1.00435
1.00435
1.00435
1.00435
1.00435
1.00435
1.00435
1.00435
1.00435
1.00435
1.00435
1.00435
1.00435
1.00435
1.00435
1.00435
1.00435
1.00435
1.00435
1.00435
1.00435
1.00435
1.00435
1.00435
1.00435
1.00435
1.00435
1.00435
1.00435
1.00435
1.00435
1.00435
1.00435
1.00435
1.00435
1.00435
1.00435
1.00435
1.00435
1.00435
1.00435
1.00435
1.00435
1.00435
1.00435
1.00435
1.00435
1.00435
1.00435
1.00435
1.00435
1.00435
1.00435
1.00435
1.00435
1.00435
1.00435
1.00435
1.00435
1.00435
1.00435
1.00435
1.00435
1.00435
1.00435
1.00435
1.00435
1.00435
1.00435
1.00435
1.00435
1.00435
1.00435
1.00435
1.00435
1.00435
1.00435
1.00435
1.00435
1.00435
1.00435
1.00435
1.00435
1.00435
1.00435
1.00435
1.00435
1.00435
1.00435
1.00435
1.00435
1.00435
1.00435
1.00435
1.00435
1.00435
1.00435
1.00435
1.00435
1.00435
1.00435
1.00435
1.00435
1.00435
1.00435
1.00435
1.00435
1.00435
1.00435
1.00435
1.00435
1.00435
1.00435
1.00435
1.00435
1.00435
1.00435
1.00435
1.00435
1.00435
1.00435
1.00435
1.00435
1.00435
1.00435
1.00435
1.00435
1.00435
1.00435
1.00435
1.00435
1.00435
1.00435
1.00435
1.00435
1.00435
1.00435
1.00435
1.00435
1.00435
1.00435
1.00435
1.00435
1.00435
1.00435
1.00435
1.00435
1.00435
1.00435
1.00435
1.00435
1.00435
1.00435
1.00435
1.00435
1.00435
1.00435
1.00435
1.00435
1.00435
1.00435
1.00435
1.00435
1.00435
1.00435
1.00435
1.00435
1.00435
1.00435
1.00435
1.00435
1.00435
1.00435
1.00435
1.00435
1.00435
1.00435
1.00435
1.00435
1.00435
1.00435
1.00435
1.00435
1.00435
1.00435
1.00435
1.00435
1.00435
1.00435
1.00435
1.00435
1.00435
1.00435
1.00435
1.00435
1.00435
1.00435
1.00435
1.00435
1.00435
1.00435
1.00435
1.00435
1.00435
1.00435
1.00435
1.00435
1.00435
1.00435
1.00435
1.00435
1.00435
1.00435
1.00435
1.00435
1.00435
1.00407
1.00107
0.992271
0.980869
0.970568
0.961945
0.954485
0.947695
0.941267
0.935039
0.928927
0.922891
0.916914
0.910984
0.905097
0.89925
0.89344
0.887666
0.881926
0.87622
0.870546
0.864904
0.859293
0.853713
0.848163
0.842643
0.837153
0.831692
0.826261
0.820858
0.815484
0.810139
0.804822
0.799533
0.794272
0.789039
0.783833
0.778655
0.773505
0.768381
0.763285
0.758216
0.753173
0.748157
0.743168
0.738205
0.733268
0.728358
0.723473
0.718614
0.713782
0.708974
0.704193
0.699436
0.694705
0.69
0.685319
0.680663
0.676032
0.671426
0.666844
0.662287
0.657754
0.653245
0.648761
0.6443
0.639864
0.635451
0.631062
0.626696
0.622355
0.618036
0.613741
0.609469
0.60522
0.600993
0.59679
0.59261
0.588452
0.584318
0.580205
0.576115
0.572048
0.568002
0.563979
0.559978
0.556
0.552043
0.548108
0.544195
0.540304
0.536435
0.532587
0.528761
0.524957
0.521174
0.517412
0.513673
0.509954
0.506257
0.502582
0.498928
0.495295
0.491683
0.488093
0.484524
0.480976
0.477449
0.473943
0.470458
0.466994
0.463551
0.460129
0.456727
0.453345
0.449984
0.446642
0.443322
0.44003
0.436785
0.433648
0.430757
0.428378
0.426832
0.426196
0.426111
0.4264
0.426629
0.426622
0.426396
0.426274
0.426256
0.426271
0.426315
0.426348
0.426382
0.426429
0.426473
0.426506
0.426535
0.426581
0.426643
0.426696
0.426731
0.426751
0.426763
0.42677
0.426776
0.426792
0.42683
0.426872
0.426902
0.426922
0.426938
0.426948
0.426956
0.426968
0.426989
0.427008
0.427015
0.427014
0.427001
0.426974
0.426936
0.4269
0.426881
0.426872
0.426866
0.426858
0.426851
0.426848
0.426844
0.426832
0.426824
0.426825
0.426835
0.426843
0.426848
0.426858
0.426871
0.426875
0.426875
0.426878
0.426898
0.426915
0.426923
0.426931
0.426944
0.426953
0.426954
0.42696
0.426981
0.427009
0.427021
0.427024
0.427028
0.427028
0.427013
0.42699
0.426983
0.426986
0.426989
0.42698
0.426978
0.426983
0.42698
0.426964
0.426961
0.426975
0.426989
0.426985
0.426982
0.426992
0.427
0.426996
0.426999
0.42704
0.427102
0.427134
0.42714
0.427143
0.427117
0.426986
0.426635
0.425874
0.424262
0.420998
0.414894
0.404254
0.387164
0.362471
0.331454
0.300008
0.27526
0.261481
0.258913
0.258827
0.259233
0.259671
0.259916
0.260131
0.26033
0.260589
0.260826
0.260987
0.261132
0.26145
0.26199
0.262342
0.262374
0.262339
0.262145
0.261711
0.261236
0.261012
0.26094
0.26092
0.261061
0.261423
0.261646
0.261667
0.261671
0.261576
0.261279
0.261079
0.261094
0.261149
0.261309
0.261675
0.262044
0.262103
0.262065
0.261947
0.261646
0.261179
0.260906
0.26087
0.260887
0.26104
0.261405
0.261745
0.261848
0.26188
0.261859
0.261657
0.261324
0.26121
0.26121
0.261247
0.261401
0.261695
0.261833
0.261814
0.261763
0.261603
0.26127
0.260984
0.260947
0.260966
0.261058
0.26131
0.261666
0.261832
0.261858
0.261854
0.261736
0.261442
0.26123
0.261194
0.26118
0.261209
0.261395
0.26164
0.261696
0.261686
0.261628
0.261448
0.261223
0.261144
0.261097
0.260631
0.254187
0.208228
0.136467
0.123565
0.123438
0.123438
0.123438
0.123438
0.123438
0.123438
0.123438
0.123438
0.123438
0.123438
0.123438
0.123438
0.123438
0.123438
0.123438
0.123438
0.123438
0.123438
0.123438
0.123438
0.123438
0.123438
0.123438
0.123438
0.123438
0.123438
0.123438
0.123438
0.123438
0.123438
0.123438
0.123438
0.123438
0.123438
0.123438
0.123438
0.123438
0.123438
0.123438
0.123438
0.123438
0.123438
0.123438
0.123438
0.123438
0.123438
0.123438
0.123438
0.123438
0.123438
0.123438
0.123438
0.123438
0.123438
0.123438
0.123438
0.123438
0.123438
0.123438
0.123438
0.123438
0.123438
0.123438
0.123438
0.123438
0.123438
0.123438
0.123438
0.123438
0.123438
0.123438
0.123438
0.123438
0.123438
0.123438
0.123438
0.123438
0.123438
0.123438
0.123438
0.123438
0.123438
0.123438
0.123438
0.123438
0.123438
0.123438
0.123438
0.123438
0.123438
0.123438
0.123438
0.123438
0.123438
0.123438
0.123438
0.123438
0.123438
0.123438
0.123438
0.123438
0.123438
0.123438
0.123438
0.123438
0.123438
0.123438
0.123438
0.123438
0.123438
0.123438
0.123438
0.123438
0.123438
0.123438
0.123438
0.123438
0.123438
0.123438
0.123438
0.123438
0.123438
0.123438
0.123438
0.123438
0.123438
0.123438
0.123438
0.123438
0.123438
0.123438
0.123438
0.123438
0.123438
0.123438
0.123438
0.123438
0.123438
0.123438
0.123438
0.123438
0.123438
0.123438
0.123438
0.123438
0.123438
0.123438
0.123438
0.123438
0.123438
0.123438
0.123438
0.123438
0.123438
0.123438
0.123438
0.123438
0.123438
0.123438
0.123438
0.123438
0.123438
0.123438
0.123438
0.123438
0.123438
0.123438
0.123438
0.123438
0.123438
0.123438
0.123438
0.123438
0.123438
0.123438
0.123438
0.123438
0.123438
0.123438
0.123438
0.123438
0.123438
0.123438
0.123438
0.123438
0.123438
0.123438
0.123438
0.123438
0.123438
0.123438
0.123438
0.123438
0.123438
0.123438
0.123438
0.123438
0.123438
0.123438
0.123438
0.123438
0.123438
0.123438
0.123438
)
;

boundaryField
{
    left
    {
        type            calculated;
        value           uniform 0.123438;
    }
    right
    {
        type            calculated;
        value           uniform 1.00435;
    }
    empty
    {
        type            empty;
    }
}


// ************************************************************************* //
