/*--------------------------------*- C++ -*----------------------------------*\
| =========                 |                                                 |
| \\      /  F ield         | OpenFOAM: The Open Source CFD Toolbox           |
|  \\    /   O peration     | Version:  2106                                  |
|   \\  /    A nd           | Website:  www.openfoam.com                      |
|    \\/     M anipulation  |                                                 |
\*---------------------------------------------------------------------------*/
FoamFile
{
    version     2.0;
    format      ascii;
    arch        "LSB;label=32;scalar=64";
    class       volScalarField;
    location    "0.11";
    object      T;
}
// * * * * * * * * * * * * * * * * * * * * * * * * * * * * * * * * * * * * * //

dimensions      [0 0 0 1 0 0 0];

internalField   nonuniform List<scalar> 
800
(
0.003468
0.003468
0.003468
0.003468
0.003468
0.003468
0.003468
0.003468
0.003468
0.003468
0.003468
0.003468
0.003468
0.003468
0.003468
0.003468
0.003468
0.003468
0.003468
0.003468
0.003468
0.003468
0.003468
0.003468
0.003468
0.003468
0.003468
0.003468
0.003468
0.003468
0.003468
0.003468
0.003468
0.003468
0.003468
0.003468
0.003468
0.003468
0.003468
0.003468
0.003468
0.003468
0.003468
0.003468
0.003468
0.003468
0.003468
0.003468
0.003468
0.003468
0.003468
0.003468
0.003468
0.003468
0.003468
0.003468
0.003468
0.003468
0.003468
0.003468
0.003468
0.003468
0.003468
0.003468
0.003468
0.003468
0.003468
0.003468
0.003468
0.003468
0.003468
0.003468
0.003468
0.003468
0.003468
0.003468
0.003468
0.003468
0.003468
0.003468
0.003468
0.003468
0.003468
0.003468
0.003468
0.003468
0.003468
0.003468
0.003468
0.003468
0.003468
0.003468
0.003468
0.003468
0.003468
0.003468
0.003468
0.003468
0.003468
0.003468
0.003468
0.003468
0.003468
0.003468
0.003468
0.003468
0.003468
0.003468
0.003468
0.003468
0.003468
0.003468
0.003468
0.003468
0.003468
0.003468
0.003468
0.003468
0.003468
0.003468
0.003468
0.003468
0.003468
0.003468
0.003468
0.003468
0.003468
0.003468
0.003468
0.003468
0.003468
0.003468
0.003468
0.003468
0.003468
0.003468
0.003468
0.003468
0.003468
0.003468
0.003468
0.003468
0.003468
0.003468
0.003468
0.003468
0.003468
0.003468
0.003468
0.003468
0.003468
0.003468
0.003468
0.003468
0.003468
0.003468
0.003468
0.003468
0.003468
0.003468
0.003468
0.003468
0.003468
0.003468
0.003468
0.003468
0.003468
0.003468
0.003468
0.003468
0.003468
0.003468
0.003468
0.003468
0.003468
0.003468
0.003468
0.003468
0.003468
0.003468
0.003468
0.003468
0.003468
0.003468
0.003468
0.003468
0.003468
0.003468
0.003468
0.003468
0.003468
0.003468
0.003468
0.003468
0.003468
0.003468
0.003468
0.003468
0.003468
0.003468
0.003468
0.003468
0.003468
0.003468
0.003468
0.003468
0.003468
0.003468
0.003468
0.003468
0.003468
0.003468
0.003468
0.003468
0.003468
0.003468
0.003468
0.003468
0.003468
0.003468
0.003468
0.003468
0.003468
0.003468
0.003468
0.003468
0.003468
0.003468
0.003468
0.003468
0.003468
0.003468
0.003468
0.003468
0.003468
0.003468
0.003468
0.003468
0.003468
0.003468
0.003468
0.003468
0.003468
0.003468
0.003468
0.003468
0.003468
0.003468
0.003468
0.003468
0.003468
0.003468
0.003468
0.003468
0.003468
0.003468
0.003468
0.003468
0.003468
0.003468
0.003468
0.003468
0.003468
0.003468
0.003468
0.003468
0.003468
0.003468
0.003468
0.003468
0.00346799
0.00346762
0.00346347
0.00345126
0.00343532
0.00342082
0.0034086
0.00339799
0.00338828
0.00337906
0.00337009
0.00336124
0.00335248
0.00334376
0.00333509
0.00332644
0.00331781
0.00330921
0.00330063
0.00329206
0.00328351
0.00327498
0.00326646
0.00325796
0.00324947
0.00324099
0.00323253
0.00322408
0.00321564
0.00320721
0.00319879
0.00319039
0.003182
0.00317362
0.00316525
0.00315689
0.00314854
0.00314021
0.00313188
0.00312357
0.00311527
0.00310697
0.00309869
0.00309042
0.00308216
0.00307392
0.00306568
0.00305745
0.00304923
0.00304103
0.00303283
0.00302465
0.00301647
0.00300831
0.00300016
0.00299201
0.00298388
0.00297576
0.00296764
0.00295954
0.00295145
0.00294337
0.00293529
0.00292723
0.00291918
0.00291114
0.00290311
0.00289508
0.00288707
0.00287907
0.00287108
0.0028631
0.00285512
0.00284716
0.00283921
0.00283126
0.00282333
0.00281541
0.00280749
0.00279959
0.00279169
0.00278381
0.00277593
0.00276807
0.00276021
0.00275237
0.00274453
0.00273671
0.00272889
0.00272109
0.00271329
0.0027055
0.00269773
0.00268996
0.00268221
0.00267446
0.00266673
0.00265901
0.00265129
0.00264359
0.0026359
0.00262822
0.00262055
0.00261289
0.00260525
0.00259761
0.00258999
0.00258238
0.00257478
0.00256719
0.00255961
0.00255205
0.0025445
0.00253696
0.00252943
0.00252192
0.00251441
0.00250692
0.00249944
0.00249199
0.00248461
0.00247745
0.00247082
0.00246535
0.00246178
0.00246032
0.0024601
0.00246076
0.0024613
0.00246129
0.00246075
0.00246045
0.0024604
0.00246043
0.00246053
0.00246061
0.00246068
0.00246079
0.00246088
0.00246094
0.00246099
0.00246109
0.00246123
0.00246136
0.00246144
0.00246149
0.00246151
0.00246151
0.00246151
0.00246153
0.0024616
0.0024617
0.00246176
0.00246181
0.00246183
0.00246185
0.00246185
0.00246187
0.0024619
0.00246194
0.00246194
0.00246194
0.0024619
0.00246183
0.00246173
0.00246164
0.00246158
0.00246155
0.00246153
0.00246149
0.00246147
0.00246144
0.00246141
0.00246136
0.00246133
0.00246132
0.00246134
0.00246135
0.00246134
0.00246135
0.00246135
0.00246133
0.00246131
0.00246132
0.00246136
0.0024614
0.00246141
0.00246141
0.00246142
0.0024614
0.00246138
0.00246134
0.00246136
0.0024614
0.00246139
0.00246137
0.00246134
0.00246132
0.00246125
0.00246117
0.00246112
0.00246109
0.00246107
0.00246101
0.00246097
0.00246095
0.00246092
0.00246085
0.00246077
0.00246078
0.00246076
0.00246072
0.00246067
0.00246067
0.00246065
0.00246059
0.00246048
0.00246037
0.00246018
0.00245997
0.00245993
0.00246
0.00246025
0.00246099
0.00246289
0.00246738
0.002477
0.00249624
0.00253303
0.00260007
0.00271592
0.00290284
0.0031753
0.00351484
0.00382869
0.00399907
0.00404997
0.00405793
0.00405965
0.00405915
0.00405524
0.00404769
0.00403793
0.00402812
0.00402005
0.004015
0.00401272
0.00401257
0.00401425
0.00401592
0.00401597
0.00401588
0.0040156
0.00401461
0.00401375
0.00401435
0.00401641
0.00401857
0.00402119
0.00402419
0.00402568
0.00402564
0.00402492
0.00402268
0.00401885
0.00401568
0.00401426
0.00401338
0.00401336
0.00401497
0.00401762
0.00401881
0.00401958
0.00402027
0.00402012
0.00401874
0.00401806
0.00401849
0.00401917
0.00402008
0.00402173
0.00402295
0.00402275
0.00402173
0.00402024
0.00401795
0.00401528
0.00401418
0.00401409
0.0040144
0.00401599
0.00401892
0.00402098
0.00402182
0.00402234
0.00402217
0.00402059
0.00401881
0.0040184
0.00401822
0.00401818
0.00401889
0.0040203
0.00402061
0.00402012
0.00401933
0.00401812
0.00401626
0.00401515
0.00401522
0.00401581
0.00401706
0.0040192
0.00402138
0.00402215
0.00402229
0.00402211
0.00402096
0.00401928
0.00401841
0.00401762
0.00401392
0.00397244
0.00366713
0.0029935
0.00282335
0.00282173
0.00282173
0.00282173
0.00282173
0.00282173
0.00282173
0.00282173
0.00282173
0.00282173
0.00282173
0.00282173
0.00282173
0.00282173
0.00282173
0.00282173
0.00282173
0.00282173
0.00282173
0.00282173
0.00282173
0.00282173
0.00282173
0.00282173
0.00282173
0.00282173
0.00282173
0.00282173
0.00282173
0.00282173
0.00282173
0.00282173
0.00282173
0.00282173
0.00282173
0.00282173
0.00282173
0.00282173
0.00282173
0.00282173
0.00282173
0.00282173
0.00282173
0.00282173
0.00282173
0.00282173
0.00282173
0.00282173
0.00282173
0.00282173
0.00282173
0.00282173
0.00282173
0.00282173
0.00282173
0.00282173
0.00282173
0.00282173
0.00282173
0.00282173
0.00282173
0.00282173
0.00282173
0.00282173
0.00282173
0.00282173
0.00282173
0.00282173
0.00282173
0.00282173
0.00282173
0.00282173
0.00282173
0.00282173
0.00282173
0.00282173
0.00282173
0.00282173
0.00282173
0.00282173
0.00282173
0.00282173
0.00282173
0.00282173
0.00282173
0.00282173
0.00282173
0.00282173
0.00282173
0.00282173
0.00282173
0.00282173
0.00282173
0.00282173
0.00282173
0.00282173
0.00282173
0.00282173
0.00282173
0.00282173
0.00282173
0.00282173
0.00282173
0.00282173
0.00282173
0.00282173
0.00282173
0.00282173
0.00282173
0.00282173
0.00282173
0.00282173
0.00282173
0.00282173
0.00282173
0.00282173
0.00282173
0.00282173
0.00282173
0.00282173
0.00282173
0.00282173
0.00282173
0.00282173
0.00282173
0.00282173
0.00282173
0.00282173
0.00282173
0.00282173
0.00282173
0.00282173
0.00282173
0.00282173
0.00282173
0.00282173
0.00282173
0.00282173
0.00282173
0.00282173
0.00282173
0.00282173
0.00282173
0.00282173
0.00282173
0.00282173
0.00282173
0.00282173
0.00282173
0.00282173
0.00282173
0.00282173
0.00282173
0.00282173
0.00282173
0.00282173
0.00282173
0.00282173
0.00282173
0.00282173
0.00282173
0.00282173
0.00282173
0.00282173
0.00282173
0.00282173
0.00282173
0.00282173
0.00282173
0.00282173
0.00282173
0.00282173
0.00282173
0.00282173
0.00282173
0.00282173
0.00282173
0.00282173
0.00282173
0.00282173
0.00282173
0.00282173
0.00282173
0.00282173
0.00282173
0.00282173
0.00282173
0.00282173
0.00282173
0.00282173
0.00282173
0.00282173
0.00282173
0.00282173
0.00282173
0.00282173
0.00282173
0.00282173
0.00282173
0.00282173
0.00282173
0.00282173
0.00282173
0.00282173
0.00282173
)
;

boundaryField
{
    left
    {
        type            zeroGradient;
    }
    right
    {
        type            zeroGradient;
    }
    empty
    {
        type            empty;
    }
}


// ************************************************************************* //
