/*--------------------------------*- C++ -*----------------------------------*\
| =========                 |                                                 |
| \\      /  F ield         | OpenFOAM: The Open Source CFD Toolbox           |
|  \\    /   O peration     | Version:  2106                                  |
|   \\  /    A nd           | Website:  www.openfoam.com                      |
|    \\/     M anipulation  |                                                 |
\*---------------------------------------------------------------------------*/
FoamFile
{
    version     2.0;
    format      ascii;
    arch        "LSB;label=32;scalar=64";
    class       volVectorField;
    location    "0.11";
    object      U;
}
// * * * * * * * * * * * * * * * * * * * * * * * * * * * * * * * * * * * * * //

dimensions      [0 1 -1 0 0 0 0];

internalField   nonuniform List<vector> 
800
(
(5.08051e-11 0 0)
(1.50883e-10 0 0)
(1.4526e-10 0 0)
(7.47438e-11 0 0)
(5.16365e-11 0 0)
(4.76302e-11 0 0)
(4.17156e-11 0 0)
(1.29901e-10 0 0)
(1.76375e-10 0 0)
(2.21072e-10 0 0)
(2.26797e-10 0 0)
(7.73331e-11 0 0)
(-3.3919e-11 0 0)
(-8.20484e-11 0 0)
(-1.61508e-10 0 0)
(-2.3027e-10 0 0)
(-2.49399e-10 0 0)
(-3.05626e-10 0 0)
(-3.42576e-10 0 0)
(-3.43142e-10 0 0)
(-2.74391e-10 0 0)
(-1.94675e-10 0 0)
(-1.38863e-10 0 0)
(-6.28269e-11 0 0)
(-3.09707e-13 0 0)
(4.07517e-11 0 0)
(1.25737e-10 0 0)
(1.96827e-10 0 0)
(2.92276e-10 0 0)
(3.75591e-10 0 0)
(3.75057e-10 0 0)
(2.62736e-10 0 0)
(1.35298e-10 0 0)
(4.01882e-11 0 0)
(1.3248e-11 0 0)
(1.20238e-11 0 0)
(-3.58048e-11 0 0)
(-8.67305e-11 0 0)
(-8.41114e-11 0 0)
(-1.53867e-10 0 0)
(-1.08398e-10 0 0)
(-3.94116e-11 0 0)
(-3.54282e-11 0 0)
(-5.88199e-11 0 0)
(-1.05095e-10 0 0)
(-1.1866e-10 0 0)
(-1.05646e-10 0 0)
(-8.53981e-11 0 0)
(-3.39856e-11 0 0)
(-3.75461e-11 0 0)
(-7.23186e-11 0 0)
(-3.42882e-11 0 0)
(3.54626e-11 0 0)
(1.89309e-11 0 0)
(-6.73861e-11 0 0)
(-6.06761e-11 0 0)
(-1.4412e-11 0 0)
(-3.07676e-11 0 0)
(-5.06661e-11 0 0)
(-2.98136e-11 0 0)
(-2.43184e-11 0 0)
(1.30642e-12 0 0)
(-2.78196e-11 0 0)
(-7.32474e-11 0 0)
(-7.6655e-11 0 0)
(-9.32497e-11 0 0)
(-1.00775e-10 0 0)
(-6.77324e-11 0 0)
(2.16255e-11 0 0)
(8.3646e-11 0 0)
(1.80964e-10 0 0)
(1.54954e-10 0 0)
(9.11063e-11 0 0)
(5.95773e-12 0 0)
(-6.97605e-11 0 0)
(-1.13213e-10 0 0)
(-7.05185e-11 0 0)
(6.44903e-12 0 0)
(-7.09914e-12 0 0)
(-1.22886e-10 0 0)
(-2.57521e-10 0 0)
(-3.42349e-10 0 0)
(-3.06001e-10 0 0)
(-2.58285e-10 0 0)
(-2.60884e-10 0 0)
(-2.53093e-10 0 0)
(-1.51597e-10 0 0)
(-8.72436e-11 0 0)
(-1.20669e-10 0 0)
(-6.08691e-11 0 0)
(-1.95745e-11 0 0)
(1.76007e-11 0 0)
(-1.23887e-11 0 0)
(-4.03287e-11 0 0)
(-1.5886e-11 0 0)
(7.06762e-12 0 0)
(-1.39898e-11 0 0)
(-8.48918e-11 0 0)
(-1.61547e-10 0 0)
(-1.90275e-10 0 0)
(-1.06075e-10 0 0)
(-3.45824e-11 0 0)
(8.35835e-12 0 0)
(7.37257e-11 0 0)
(1.32484e-10 0 0)
(1.30619e-10 0 0)
(2.40738e-11 0 0)
(-7.92441e-11 0 0)
(-1.68269e-10 0 0)
(-2.5332e-10 0 0)
(-3.62741e-10 0 0)
(-3.84919e-10 0 0)
(-3.67667e-10 0 0)
(-3.20328e-10 0 0)
(-2.93873e-10 0 0)
(-2.47711e-10 0 0)
(-2.20776e-10 0 0)
(-1.54537e-10 0 0)
(-1.72148e-10 0 0)
(-2.35731e-10 0 0)
(-2.42273e-10 0 0)
(-2.36742e-10 0 0)
(-2.28067e-10 0 0)
(-1.82018e-10 0 0)
(-1.04072e-10 0 0)
(-8.50636e-11 0 0)
(-1.29327e-10 0 0)
(-1.54322e-10 0 0)
(-1.36087e-10 0 0)
(-4.8057e-11 0 0)
(-3.58769e-12 0 0)
(-3.96932e-11 0 0)
(-2.85828e-11 0 0)
(-5.50276e-11 0 0)
(2.7209e-11 0 0)
(3.00912e-11 0 0)
(-5.61719e-11 0 0)
(-1.60071e-10 0 0)
(-2.76703e-10 0 0)
(-2.41153e-10 0 0)
(-1.94952e-10 0 0)
(-1.98879e-10 0 0)
(-1.97688e-10 0 0)
(-2.06543e-10 0 0)
(-2.03775e-10 0 0)
(-1.67207e-10 0 0)
(-1.29407e-10 0 0)
(-9.17797e-11 0 0)
(1.89682e-11 0 0)
(1.26997e-10 0 0)
(1.54432e-10 0 0)
(1.91538e-10 0 0)
(2.55083e-10 0 0)
(2.93495e-10 0 0)
(2.90506e-10 0 0)
(2.60351e-10 0 0)
(2.4079e-10 0 0)
(1.78764e-10 0 0)
(5.80405e-11 0 0)
(2.25088e-12 0 0)
(-4.00532e-11 0 0)
(-9.27195e-11 0 0)
(-1.23784e-10 0 0)
(-1.74242e-10 0 0)
(-1.84311e-10 0 0)
(-1.17899e-10 0 0)
(-2.73869e-11 0 0)
(-7.27551e-11 0 0)
(-3.06578e-11 0 0)
(2.27771e-11 0 0)
(7.40462e-11 0 0)
(1.39568e-10 0 0)
(1.46349e-10 0 0)
(1.9065e-10 0 0)
(1.61113e-10 0 0)
(1.13701e-10 0 0)
(7.86836e-11 0 0)
(6.64744e-11 0 0)
(1.53444e-10 0 0)
(1.60083e-10 0 0)
(1.06197e-10 0 0)
(9.06836e-11 0 0)
(8.80736e-11 0 0)
(4.18972e-11 0 0)
(-2.1815e-11 0 0)
(-6.12941e-11 0 0)
(-1.18521e-10 0 0)
(-1.5921e-10 0 0)
(-1.90733e-10 0 0)
(-1.87951e-10 0 0)
(-1.46483e-10 0 0)
(-1.13815e-10 0 0)
(-6.69605e-11 0 0)
(1.39778e-12 0 0)
(7.46871e-11 0 0)
(6.28515e-11 0 0)
(7.13681e-11 0 0)
(6.90889e-11 0 0)
(6.04399e-11 0 0)
(4.68613e-11 0 0)
(9.56217e-11 0 0)
(1.43137e-10 0 0)
(1.67328e-10 0 0)
(2.08038e-10 0 0)
(2.40236e-10 0 0)
(2.22199e-10 0 0)
(2.0289e-10 0 0)
(1.88455e-10 0 0)
(1.47972e-10 0 0)
(1.60689e-10 0 0)
(1.33564e-10 0 0)
(6.63907e-11 0 0)
(-3.75938e-14 0 0)
(-6.2894e-11 0 0)
(-8.07453e-11 0 0)
(-8.42257e-11 0 0)
(-1.04185e-10 0 0)
(-5.85821e-11 0 0)
(-9.74874e-11 0 0)
(-1.21741e-10 0 0)
(-1.03411e-10 0 0)
(-7.15569e-11 0 0)
(-3.85248e-11 0 0)
(8.81069e-12 0 0)
(4.62181e-11 0 0)
(9.40862e-11 0 0)
(1.91385e-10 0 0)
(2.44747e-10 0 0)
(2.58463e-10 0 0)
(2.41185e-10 0 0)
(2.30521e-10 0 0)
(2.62262e-10 0 0)
(2.41288e-10 0 0)
(2.12429e-10 0 0)
(1.33752e-10 0 0)
(5.68277e-11 0 0)
(5.02308e-11 0 0)
(4.80535e-11 0 0)
(7.26131e-11 0 0)
(9.03098e-11 0 0)
(4.39348e-11 0 0)
(-2.49448e-11 0 0)
(-1.08522e-11 0 0)
(7.18152e-11 0 0)
(1.1811e-10 0 0)
(1.1409e-10 0 0)
(1.79308e-10 0 0)
(2.59439e-10 0 0)
(2.79361e-10 0 0)
(3.2067e-10 0 0)
(2.56045e-10 0 0)
(1.61364e-10 0 0)
(9.41244e-11 0 0)
(7.2458e-12 0 0)
(-1.83595e-11 0 0)
(1.72571e-11 0 0)
(5.73415e-11 0 0)
(6.23461e-11 0 0)
(-3.11751e-12 0 0)
(-5.70904e-11 0 0)
(-1.61775e-10 0 0)
(-3.12552e-10 0 0)
(-4.30605e-10 0 0)
(-5.7105e-10 0 0)
(-7.37432e-10 0 0)
(-8.3385e-10 0 0)
(-9.6947e-10 0 0)
(-1.05075e-09 0 0)
(-1.01346e-09 0 0)
(4.97221e-09 0 0)
(4.65062e-06 0 0)
(0.000326759 0 0)
(0.00385906 0 0)
(0.0142572 0 0)
(0.0278552 0 0)
(0.0402561 0 0)
(0.0507186 0 0)
(0.05983 0 0)
(0.0681731 0 0)
(0.076113 0 0)
(0.0838484 0 0)
(0.0914792 0 0)
(0.0990538 0 0)
(0.106595 0 0)
(0.114115 0 0)
(0.121619 0 0)
(0.129111 0 0)
(0.136594 0 0)
(0.14407 0 0)
(0.151539 0 0)
(0.159004 0 0)
(0.166465 0 0)
(0.173923 0 0)
(0.181379 0 0)
(0.188832 0 0)
(0.196283 0 0)
(0.203733 0 0)
(0.211182 0 0)
(0.218629 0 0)
(0.226076 0 0)
(0.233522 0 0)
(0.240967 0 0)
(0.248412 0 0)
(0.255856 0 0)
(0.2633 0 0)
(0.270744 0 0)
(0.278188 0 0)
(0.285632 0 0)
(0.293075 0 0)
(0.300519 0 0)
(0.307963 0 0)
(0.315407 0 0)
(0.322851 0 0)
(0.330295 0 0)
(0.33774 0 0)
(0.345185 0 0)
(0.35263 0 0)
(0.360076 0 0)
(0.367522 0 0)
(0.374968 0 0)
(0.382415 0 0)
(0.389863 0 0)
(0.397311 0 0)
(0.40476 0 0)
(0.412209 0 0)
(0.419659 0 0)
(0.42711 0 0)
(0.434561 0 0)
(0.442014 0 0)
(0.449467 0 0)
(0.456921 0 0)
(0.464376 0 0)
(0.471832 0 0)
(0.479288 0 0)
(0.486746 0 0)
(0.494205 0 0)
(0.501665 0 0)
(0.509125 0 0)
(0.516587 0 0)
(0.524051 0 0)
(0.531515 0 0)
(0.53898 0 0)
(0.546447 0 0)
(0.553915 0 0)
(0.561384 0 0)
(0.568855 0 0)
(0.576326 0 0)
(0.583799 0 0)
(0.591274 0 0)
(0.598749 0 0)
(0.606226 0 0)
(0.613704 0 0)
(0.621184 0 0)
(0.628665 0 0)
(0.636147 0 0)
(0.64363 0 0)
(0.651115 0 0)
(0.658601 0 0)
(0.666088 0 0)
(0.673576 0 0)
(0.681066 0 0)
(0.688556 0 0)
(0.696047 0 0)
(0.70354 0 0)
(0.711033 0 0)
(0.718527 0 0)
(0.726022 0 0)
(0.733517 0 0)
(0.741013 0 0)
(0.748509 0 0)
(0.756005 0 0)
(0.763502 0 0)
(0.770998 0 0)
(0.778495 0 0)
(0.785991 0 0)
(0.793487 0 0)
(0.800983 0 0)
(0.808478 0 0)
(0.815972 0 0)
(0.823466 0 0)
(0.830959 0 0)
(0.838451 0 0)
(0.845943 0 0)
(0.853433 0 0)
(0.860923 0 0)
(0.868412 0 0)
(0.875901 0 0)
(0.88339 0 0)
(0.890876 0 0)
(0.898345 0 0)
(0.905748 0 0)
(0.912949 0 0)
(0.919621 0 0)
(0.925141 0 0)
(0.928745 0 0)
(0.930227 0 0)
(0.930429 0 0)
(0.929757 0 0)
(0.929221 0 0)
(0.929237 0 0)
(0.929771 0 0)
(0.93006 0 0)
(0.930102 0 0)
(0.930066 0 0)
(0.929964 0 0)
(0.929888 0 0)
(0.929808 0 0)
(0.929698 0 0)
(0.929598 0 0)
(0.92953 0 0)
(0.929465 0 0)
(0.929362 0 0)
(0.929221 0 0)
(0.929096 0 0)
(0.929011 0 0)
(0.928958 0 0)
(0.928932 0 0)
(0.92892 0 0)
(0.928914 0 0)
(0.928885 0 0)
(0.928799 0 0)
(0.928701 0 0)
(0.92863 0 0)
(0.928582 0 0)
(0.928548 0 0)
(0.928527 0 0)
(0.928514 0 0)
(0.928492 0 0)
(0.928445 0 0)
(0.928405 0 0)
(0.92839 0 0)
(0.928393 0 0)
(0.928425 0 0)
(0.92849 0 0)
(0.928581 0 0)
(0.928668 0 0)
(0.928718 0 0)
(0.92874 0 0)
(0.928757 0 0)
(0.928777 0 0)
(0.928795 0 0)
(0.928805 0 0)
(0.928821 0 0)
(0.928855 0 0)
(0.928882 0 0)
(0.928887 0 0)
(0.928866 0 0)
(0.928851 0 0)
(0.928842 0 0)
(0.928822 0 0)
(0.928796 0 0)
(0.92879 0 0)
(0.928794 0 0)
(0.928791 0 0)
(0.928747 0 0)
(0.92871 0 0)
(0.928696 0 0)
(0.928682 0 0)
(0.928657 0 0)
(0.928643 0 0)
(0.928647 0 0)
(0.928645 0 0)
(0.928606 0 0)
(0.92855 0 0)
(0.928531 0 0)
(0.928532 0 0)
(0.928533 0 0)
(0.928538 0 0)
(0.928582 0 0)
(0.928645 0 0)
(0.928671 0 0)
(0.928675 0 0)
(0.928677 0 0)
(0.928708 0 0)
(0.928723 0 0)
(0.928722 0 0)
(0.928737 0 0)
(0.928783 0 0)
(0.928801 0 0)
(0.928776 0 0)
(0.928756 0 0)
(0.928776 0 0)
(0.928796 0 0)
(0.928787 0 0)
(0.928784 0 0)
(0.928809 0 0)
(0.928829 0 0)
(0.928788 0 0)
(0.928728 0 0)
(0.928722 0 0)
(0.928742 0 0)
(0.928721 0 0)
(0.928696 0 0)
(0.928707 0 0)
(0.928745 0 0)
(0.928718 0 0)
(0.928648 0 0)
(0.928648 0 0)
(0.928679 0 0)
(0.928733 0 0)
(0.928908 0 0)
(0.929257 0 0)
(0.929471 0 0)
(0.931353 0 0)
(0.931006 0 0)
(0.923976 0 0)
(0.926463 0 0)
(0.928196 0 0)
(0.929962 0 0)
(0.931432 0 0)
(0.931503 0 0)
(0.930565 0 0)
(0.929073 0 0)
(0.927761 0 0)
(0.926781 0 0)
(0.926187 0 0)
(0.92622 0 0)
(0.927327 0 0)
(0.929582 0 0)
(0.931188 0 0)
(0.931324 0 0)
(0.931188 0 0)
(0.930463 0 0)
(0.928741 0 0)
(0.926932 0 0)
(0.926279 0 0)
(0.92647 0 0)
(0.92692 0 0)
(0.927988 0 0)
(0.929914 0 0)
(0.931013 0 0)
(0.931075 0 0)
(0.930906 0 0)
(0.930059 0 0)
(0.928143 0 0)
(0.926741 0 0)
(0.926425 0 0)
(0.926405 0 0)
(0.926949 0 0)
(0.928562 0 0)
(0.93042 0 0)
(0.930883 0 0)
(0.930928 0 0)
(0.930653 0 0)
(0.929558 0 0)
(0.927613 0 0)
(0.926495 0 0)
(0.92644 0 0)
(0.926631 0 0)
(0.927348 0 0)
(0.928971 0 0)
(0.930396 0 0)
(0.930722 0 0)
(0.930602 0 0)
(0.9302 0 0)
(0.929003 0 0)
(0.927268 0 0)
(0.92665 0 0)
(0.926664 0 0)
(0.92689 0 0)
(0.927811 0 0)
(0.92952 0 0)
(0.930468 0 0)
(0.930629 0 0)
(0.930576 0 0)
(0.929992 0 0)
(0.928487 0 0)
(0.927103 0 0)
(0.926889 0 0)
(0.926918 0 0)
(0.92724 0 0)
(0.92828 0 0)
(0.929839 0 0)
(0.930489 0 0)
(0.930483 0 0)
(0.930288 0 0)
(0.929611 0 0)
(0.928168 0 0)
(0.92719 0 0)
(0.927066 0 0)
(0.927145 0 0)
(0.927524 0 0)
(0.92864 0 0)
(0.929969 0 0)
(0.930328 0 0)
(0.930309 0 0)
(0.930052 0 0)
(0.929157 0 0)
(0.927982 0 0)
(0.927497 0 0)
(0.927142 0 0)
(0.924688 0 0)
(0.893787 0 0)
(0.651515 0 0)
(0.124716 0 0)
(0.00121906 0 0)
(2.71107e-07 0 0)
(5.92998e-11 0 0)
(5.77292e-11 0 0)
(5.33481e-11 0 0)
(4.9768e-11 0 0)
(1.98689e-11 0 0)
(-9.80934e-12 0 0)
(-1.97784e-11 0 0)
(-1.15029e-10 0 0)
(-1.97617e-10 0 0)
(-2.42205e-10 0 0)
(-2.24064e-10 0 0)
(-1.99832e-10 0 0)
(-2.24877e-10 0 0)
(-1.73535e-10 0 0)
(-1.59466e-10 0 0)
(-2.12565e-10 0 0)
(-2.98068e-10 0 0)
(-3.62424e-10 0 0)
(-3.89038e-10 0 0)
(-3.94953e-10 0 0)
(-2.8808e-10 0 0)
(-1.97594e-10 0 0)
(-1.90162e-10 0 0)
(-1.46842e-10 0 0)
(-1.00355e-10 0 0)
(-5.59542e-11 0 0)
(-7.84074e-11 0 0)
(-1.54468e-10 0 0)
(-1.92428e-10 0 0)
(-2.33604e-10 0 0)
(-2.49899e-10 0 0)
(-1.92909e-10 0 0)
(-1.57768e-10 0 0)
(-1.21917e-10 0 0)
(-9.19936e-11 0 0)
(-1.20985e-10 0 0)
(-1.88163e-10 0 0)
(-1.80866e-10 0 0)
(-1.3837e-10 0 0)
(-1.52119e-10 0 0)
(-1.53341e-10 0 0)
(-1.96684e-10 0 0)
(-2.45845e-10 0 0)
(-2.37725e-10 0 0)
(-1.99103e-10 0 0)
(-2.27361e-10 0 0)
(-2.20878e-10 0 0)
(-2.53134e-10 0 0)
(-2.61531e-10 0 0)
(-1.77028e-10 0 0)
(-1.22431e-10 0 0)
(-2.3924e-11 0 0)
(2.77558e-11 0 0)
(3.48322e-11 0 0)
(6.29343e-11 0 0)
(1.15194e-10 0 0)
(1.42832e-10 0 0)
(2.00016e-10 0 0)
(2.3726e-10 0 0)
(2.36691e-10 0 0)
(1.86957e-10 0 0)
(2.29333e-10 0 0)
(2.71931e-10 0 0)
(1.47802e-10 0 0)
(1.83853e-11 0 0)
(-7.7775e-11 0 0)
(-1.13763e-10 0 0)
(-1.30943e-10 0 0)
(-6.86321e-11 0 0)
(4.21029e-12 0 0)
(3.95907e-11 0 0)
(1.02762e-10 0 0)
(1.45748e-10 0 0)
(1.37755e-10 0 0)
(3.14986e-11 0 0)
(-8.73711e-11 0 0)
(-1.24318e-10 0 0)
(-1.3253e-10 0 0)
(-1.24034e-10 0 0)
(-8.35429e-11 0 0)
(-3.59534e-11 0 0)
(2.45914e-11 0 0)
(7.12366e-11 0 0)
(5.23461e-11 0 0)
(8.68209e-11 0 0)
(1.22941e-10 0 0)
(1.77058e-10 0 0)
(1.79953e-10 0 0)
(2.85798e-10 0 0)
(3.79954e-10 0 0)
(3.50124e-10 0 0)
(2.49671e-10 0 0)
(1.70777e-10 0 0)
(8.2451e-11 0 0)
(1.18642e-11 0 0)
(-4.77346e-11 0 0)
(-1.29618e-10 0 0)
(-2.0475e-10 0 0)
(-2.736e-10 0 0)
(-2.5724e-10 0 0)
(-2.53633e-10 0 0)
(-1.74328e-10 0 0)
(-7.08088e-11 0 0)
(-3.54342e-11 0 0)
(2.41824e-11 0 0)
(4.10037e-11 0 0)
(1.16367e-11 0 0)
(-8.10378e-12 0 0)
(-1.21411e-10 0 0)
(-2.04249e-10 0 0)
(-1.60323e-10 0 0)
(-4.47047e-11 0 0)
(1.48036e-11 0 0)
(3.78998e-11 0 0)
(1.22866e-11 0 0)
(7.39035e-11 0 0)
(1.42769e-10 0 0)
(8.29358e-11 0 0)
(5.58424e-11 0 0)
(-3.64681e-11 0 0)
(-1.15818e-10 0 0)
(-7.82615e-11 0 0)
(-2.84557e-12 0 0)
(7.6618e-11 0 0)
(1.1481e-10 0 0)
(1.58461e-10 0 0)
(1.44989e-10 0 0)
(1.12983e-10 0 0)
(1.2141e-10 0 0)
(1.0257e-10 0 0)
(1.37199e-10 0 0)
(1.73119e-10 0 0)
(1.63696e-10 0 0)
(5.19811e-11 0 0)
(2.74829e-11 0 0)
(4.67628e-11 0 0)
(4.04805e-11 0 0)
(4.45693e-12 0 0)
(-8.57699e-11 0 0)
(-1.45678e-10 0 0)
(-4.804e-11 0 0)
(4.32477e-11 0 0)
(6.42196e-11 0 0)
(1.20693e-10 0 0)
(1.55423e-10 0 0)
(8.10196e-11 0 0)
(6.07037e-11 0 0)
(8.87967e-11 0 0)
(5.5559e-11 0 0)
(-5.73594e-11 0 0)
(-1.41265e-10 0 0)
(-1.48568e-10 0 0)
(-1.39744e-10 0 0)
(-1.38102e-10 0 0)
(-9.0041e-11 0 0)
(-2.05068e-11 0 0)
(8.55088e-11 0 0)
(1.72668e-10 0 0)
(1.42503e-10 0 0)
(6.23229e-11 0 0)
(9.48641e-11 0 0)
(1.13162e-10 0 0)
(3.86761e-11 0 0)
(1.52965e-11 0 0)
(1.30765e-11 0 0)
(-2.27521e-11 0 0)
(-8.32149e-11 0 0)
(-1.47926e-10 0 0)
(-4.38082e-11 0 0)
(-1.52057e-11 0 0)
(-1.01115e-10 0 0)
(-3.69607e-11 0 0)
(1.51918e-11 0 0)
(9.1048e-11 0 0)
(1.68899e-10 0 0)
(1.4931e-10 0 0)
(1.98814e-10 0 0)
(2.83164e-10 0 0)
(3.86944e-10 0 0)
(4.47462e-10 0 0)
(4.1507e-10 0 0)
(3.18234e-10 0 0)
(2.29133e-10 0 0)
(1.55859e-10 0 0)
(9.48763e-11 0 0)
(-4.32319e-11 0 0)
(-9.31402e-11 0 0)
(-5.02824e-11 0 0)
(1.17898e-11 0 0)
(4.75531e-11 0 0)
(9.22296e-11 0 0)
(1.31041e-10 0 0)
(1.35352e-10 0 0)
(6.71155e-11 0 0)
(-1.27854e-11 0 0)
(-3.15574e-11 0 0)
(-1.385e-11 0 0)
(-4.00146e-11 0 0)
(-1.0034e-11 0 0)
(2.41468e-11 0 0)
(1.51725e-11 0 0)
(1.24246e-11 0 0)
(2.69743e-11 0 0)
)
;

boundaryField
{
    left
    {
        type            noSlip;
    }
    right
    {
        type            noSlip;
    }
    empty
    {
        type            empty;
    }
}


// ************************************************************************* //
