/*--------------------------------*- C++ -*----------------------------------*\
| =========                 |                                                 |
| \\      /  F ield         | OpenFOAM: The Open Source CFD Toolbox           |
|  \\    /   O peration     | Version:  2106                                  |
|   \\  /    A nd           | Website:  www.openfoam.com                      |
|    \\/     M anipulation  |                                                 |
\*---------------------------------------------------------------------------*/
FoamFile
{
    version     2.0;
    format      ascii;
    arch        "LSB;label=32;scalar=64";
    class       surfaceScalarField;
    location    "0.44";
    object      phi;
}
// * * * * * * * * * * * * * * * * * * * * * * * * * * * * * * * * * * * * * //

dimensions      [0 3 -1 0 0 0 0];

oriented        oriented;

internalField   nonuniform List<scalar> 
18840
(
3.37543039522e-05
1.62456960483e-05
2.25359628863e-05
1.12183420952e-05
1.63023781366e-05
6.23358414768e-06
1.28098249878e-05
3.49255275646e-06
1.08065800057e-05
2.00324518841e-06
9.60476941149e-06
1.20181082142e-06
8.85167878387e-06
7.53090475196e-07
8.36503099976e-06
4.86647878381e-07
8.04518654964e-06
3.19844578369e-07
7.83374230404e-06
2.11444170736e-07
7.69428235561e-06
1.39459978818e-07
7.60308065575e-06
9.12016736179e-08
7.54426566256e-06
5.88149457734e-08
7.50707750436e-06
3.71882503158e-08
7.48418947759e-06
2.28878801033e-08
7.47062401027e-06
1.35654898635e-08
7.46302151364e-06
7.60253428437e-09
7.45913883584e-06
3.88275599292e-09
7.4574991926e-06
1.63966048763e-09
7.45714602994e-06
3.53059675904e-10
7.45748347201e-06
-3.37344360307e-10
7.45813453635e-06
-6.51087714853e-10
7.45888653119e-06
-7.52027593313e-10
7.4596202267e-06
-7.33715360834e-10
7.46027668391e-06
-6.56454681991e-10
7.46083326708e-06
-5.56520020409e-10
7.46128741645e-06
-4.5423480896e-10
7.46164768585e-06
-3.60206541621e-10
7.46192690668e-06
-2.79147037895e-10
7.46213910989e-06
-2.12180204565e-10
7.46229768477e-06
-1.58585144176e-10
7.46241425749e-06
-1.16645957227e-10
7.46249892371e-06
-8.45959244345e-11
7.46255940218e-06
-6.05360493199e-11
7.46260204286e-06
-4.26823726996e-11
7.46263174572e-06
-2.9684645943e-11
7.46265207066e-06
-2.03475669652e-11
7.46266588063e-06
-1.37937173455e-11
7.46267496445e-06
-9.1743829654e-12
7.4626809659e-06
-5.95474712166e-12
7.46268486811e-06
-3.85426364068e-12
7.46268734358e-06
-2.50838767573e-12
7.4626889183e-06
-1.57047836457e-12
7.46268976921e-06
-9.00785679965e-13
7.4626903569e-06
-5.61915987453e-13
7.46269068439e-06
-3.89679439561e-13
7.46269088692e-06
-2.36237032692e-13
7.46269112691e-06
-1.91537760543e-13
7.46269128963e-06
-1.90727461907e-13
7.46269152406e-06
-2.24454265053e-13
7.46269172991e-06
-2.33679889938e-13
7.46269201686e-06
-2.37556254369e-13
7.46269236345e-06
-3.04806511279e-13
7.46269266624e-06
-3.36042743423e-13
7.46269306239e-06
-3.67317077172e-13
7.4626934439e-06
-3.98906747825e-13
7.4626938862e-06
-4.48222950005e-13
7.46269432334e-06
-5.00454348679e-13
7.46269477432e-06
-5.11040341799e-13
7.46269533269e-06
-5.64655743367e-13
7.4626958668e-06
-6.16002290302e-13
7.46269646771e-06
-6.42540300788e-13
7.46269709394e-06
-6.55228523169e-13
7.46269776703e-06
-6.65657547334e-13
7.46269849258e-06
-7.05393779294e-13
7.46269919563e-06
-7.15985737891e-13
7.46269998257e-06
-7.41285135295e-13
7.46270078823e-06
-7.9854594819e-13
7.46270162631e-06
-8.45328260392e-13
7.46270252119e-06
-8.81538269284e-13
7.46270345111e-06
-9.05008339603e-13
7.46270444864e-06
-9.5904289183e-13
7.46270543103e-06
-1.01342265466e-12
7.46270644417e-06
-1.05180183964e-12
7.46270750166e-06
-1.10653614499e-12
7.46270858408e-06
-1.16166655612e-12
7.46270972165e-06
-1.20609667585e-12
7.46271090428e-06
-1.23587603423e-12
7.46271216751e-06
-1.28332204685e-12
7.46271346954e-06
-1.33859248357e-12
7.46271480982e-06
-1.35871993684e-12
7.46271622198e-06
-1.37384849238e-12
7.46271767317e-06
-1.41934337177e-12
7.46271915252e-06
-1.48745919317e-12
7.46272065824e-06
-1.5421769401e-12
7.46272224436e-06
-1.59166657733e-12
7.46272390051e-06
-1.65361187048e-12
7.46272558124e-06
-1.70028733599e-12
7.46272730434e-06
-1.73399404593e-12
7.46272908671e-06
-1.78937386511e-12
7.46273094464e-06
-1.88252145221e-12
7.46273283576e-06
-1.96206709126e-12
7.46273479808e-06
-2.0166475868e-12
7.46273687701e-06
-2.10703046106e-12
7.46273905321e-06
-2.22866326591e-12
7.46274136051e-06
-2.34196100801e-12
7.46274380258e-06
-2.42077714165e-12
7.46274643148e-06
-2.52683375044e-12
7.46274918851e-06
-2.68609883321e-12
7.46275206493e-06
-2.84483450416e-12
7.46275522944e-06
-3.07940690834e-12
7.462758701e-06
-3.40157503955e-12
7.46276253826e-06
-3.7903290289e-12
7.46276677015e-06
-4.19973163077e-12
7.4627715356e-06
-4.66382554273e-12
7.4627770266e-06
-5.34051119784e-12
7.46278323805e-06
-6.18079428411e-12
7.46279046275e-06
-7.15943806149e-12
7.46279895783e-06
-8.3706153472e-12
7.46280904147e-06
-9.92193800918e-12
7.46282104162e-06
-1.1870495785e-11
7.46283534371e-06
-1.4184717381e-11
7.4628526764e-06
-1.70835668302e-11
7.46287361133e-06
-2.07355775304e-11
7.46289900079e-06
-2.52416971505e-11
7.46292997258e-06
-3.08522672182e-11
7.46296784859e-06
-3.78459326061e-11
7.46301436764e-06
-4.65345842409e-11
7.46307148487e-06
-5.71756672105e-11
7.46314192463e-06
-7.03149190551e-11
7.4632288377e-06
-8.6713407605e-11
7.46333596547e-06
-1.0701654018e-10
7.46346829285e-06
-1.32167536226e-10
7.46363244838e-06
-1.63899136816e-10
7.4638393126e-06
-2.06506574171e-10
7.4640917388e-06
-2.52228735633e-10
7.4644023672e-06
-3.10593822795e-10
7.46478674998e-06
-3.84339534128e-10
7.46526273771e-06
-4.75920810678e-10
7.46585227193e-06
-5.89444498829e-10
7.46658228372e-06
-7.30030810266e-10
7.46748645695e-06
-9.04206938446e-10
7.46860646836e-06
-1.12011297244e-09
7.46999388281e-06
-1.38759413415e-09
7.47171301521e-06
-1.71918461516e-09
7.47384335503e-06
-2.13045770459e-09
7.47648391227e-06
-2.64071399654e-09
7.47975761891e-06
-3.27389017652e-09
7.48381784343e-06
-4.06016771031e-09
7.48885576296e-06
-5.03772441814e-09
7.49510952013e-06
-6.25391140434e-09
7.50287803786e-06
-7.76858939721e-09
7.51253602074e-06
-9.65792062177e-09
7.52455539731e-06
-1.20191266178e-08
7.5395327182e-06
-1.49771192408e-08
7.55822551725e-06
-1.86930012754e-08
7.58160351942e-06
-2.33779660213e-08
7.61091546871e-06
-2.93119190212e-08
7.64778678325e-06
-3.6871272575e-08
7.69436024091e-06
-4.65732708515e-08
7.75350944709e-06
-5.91492839391e-08
7.82919383448e-06
-7.56845720986e-08
7.92711764179e-06
-9.79241937072e-08
8.05618248935e-06
-1.29065024554e-07
8.23223317466e-06
-1.76050895914e-07
8.48866837465e-06
-2.56435876942e-07
8.90789789087e-06
-4.19230266176e-07
9.72116286932e-06
-8.13265283321e-07
1.16380147233e-05
-1.91685188293e-06
-5.1855517558e-06
1.68235662666e-05
5.01388811953e-05
1.61068136748e-05
4.41591294617e-05
1.71980946055e-05
3.7759873982e-05
1.26328399891e-05
3.26495145102e-05
8.60291194821e-06
2.89465820151e-05
5.70617753068e-06
2.63676033656e-05
3.78078990194e-06
2.45938854519e-05
2.52680841944e-06
2.33783984854e-05
1.70213479337e-06
2.25473241226e-05
1.1509191031e-06
2.19811570549e-05
7.7761114761e-07
2.15978046791e-05
5.22812337867e-07
2.13405417633e-05
3.4846458769e-07
2.11699441595e-05
2.29412326094e-07
2.1058536631e-05
1.48595940255e-07
2.09871855615e-05
9.42388996838e-08
2.0942622123e-05
5.81289436879e-08
2.09157076323e-05
3.45170000353e-08
2.0900207863e-05
1.93825585829e-08
2.08919205165e-05
9.92717365773e-09
2.0888055247e-05
4.21816790265e-09
2.08867856073e-05
9.32305837253e-10
2.08869506002e-05
-8.16080001438e-10
2.08878289072e-05
-1.63035515813e-09
2.0888987421e-05
-1.89226810494e-09
2.08901807635e-05
-1.84988516293e-09
2.0891281463e-05
-1.65702308696e-09
2.08922329263e-05
-1.40568637571e-09
2.08930206202e-05
-1.14789404302e-09
2.08936522374e-05
-9.10745953656e-10
2.08941461008e-05
-7.06045417928e-10
2.08945244101e-05
-5.36831854184e-10
2.08948088299e-05
-4.01228619153e-10
2.08950195205e-05
-2.95237242916e-10
2.0895173182e-05
-2.14176865344e-10
2.0895283645e-05
-1.53219568777e-10
2.0895362068e-05
-1.08120627696e-10
2.08954168807e-05
-7.52304150804e-11
2.08954548453e-05
-5.16398048394e-11
2.08954805627e-05
-3.49437184606e-11
2.08954977873e-05
-2.32070917427e-11
2.08955091318e-05
-1.51396552486e-11
2.08955162411e-05
-9.67118755452e-12
2.08955207059e-05
-6.0383368791e-12
2.08955233309e-05
-3.65688388976e-12
2.08955249272e-05
-2.13212581932e-12
2.08955257656e-05
-1.2286085632e-12
2.08955260761e-05
-6.56719870588e-13
2.08955263352e-05
-4.34132049531e-13
2.08955264457e-05
-3.31867480271e-13
2.08955266021e-05
-3.17704014007e-13
2.08955266947e-05
-3.58025494517e-13
2.08955268166e-05
-3.70087631655e-13
2.08955270435e-05
-4.38739961449e-13
2.08955272108e-05
-5.24298796637e-13
2.08955274684e-05
-5.99406476695e-13
2.08955276981e-05
-6.71683111088e-13
2.08955279911e-05
-7.5030127241e-13
2.08955283019e-05
-8.68857767012e-13
2.08955285766e-05
-9.47494276939e-13
2.08955289786e-05
-1.01415875026e-12
2.08955293701e-05
-1.08802234471e-12
2.08955298293e-05
-1.13729458855e-12
2.08955303161e-05
-1.16975274484e-12
2.08955308283e-05
-1.1820367605e-12
2.08955314132e-05
-1.23122252823e-12
2.08955319423e-05
-1.28614471711e-12
2.08955325371e-05
-1.32712786657e-12
2.08955331654e-05
-1.39363089516e-12
2.08955338164e-05
-1.4674531743e-12
2.08955345164e-05
-1.54717883255e-12
2.08955352217e-05
-1.6140487659e-12
2.08955360005e-05
-1.70139228991e-12
2.08955367622e-05
-1.82403640073e-12
2.08955375282e-05
-1.9307393733e-12
2.08955383482e-05
-2.02640817741e-12
2.08955391994e-05
-2.1142478338e-12
2.08955401047e-05
-2.19341164242e-12
2.08955410335e-05
-2.25107763883e-12
2.08955420438e-05
-2.30099482774e-12
2.0895543116e-05
-2.38058375363e-12
2.089554421e-05
-2.46354352424e-12
2.08955453555e-05
-2.53789386415e-12
2.08955465405e-05
-2.62534117462e-12
2.08955477736e-05
-2.73990675764e-12
2.08955490375e-05
-2.85678628407e-12
2.08955503791e-05
-2.95132845499e-12
2.08955518156e-05
-3.06333714196e-12
2.08955532942e-05
-3.2106937452e-12
2.08955548273e-05
-3.36398989997e-12
2.08955564473e-05
-3.5026654838e-12
2.08955582118e-05
-3.66358184817e-12
2.08955600745e-05
-3.86829945993e-12
2.08955620454e-05
-4.0805881638e-12
2.08955642134e-05
-4.31334174704e-12
2.08955666074e-05
-4.59595978253e-12
2.0895569288e-05
-4.92966241944e-12
2.08955722342e-05
-5.28975318808e-12
2.08955755518e-05
-5.71825090272e-12
2.08955793037e-05
-6.30733601925e-12
2.08955835059e-05
-7.01852192396e-12
2.08955883549e-05
-7.84574460111e-12
2.08955939753e-05
-8.85789125087e-12
2.08956005594e-05
-1.01449224839e-11
2.08956082351e-05
-1.17324966805e-11
2.0895617247e-05
-1.36166416456e-11
2.08956280867e-05
-1.59650197172e-11
2.08956409922e-05
-1.89221281085e-11
2.08956564788e-05
-2.25120008634e-11
2.08956750812e-05
-2.68104456126e-11
2.08956973124e-05
-3.18615301722e-11
2.08957240058e-05
-3.81741929723e-11
2.08957575418e-05
-4.74954969147e-11
2.08957989866e-05
-5.82692343666e-11
2.08958499829e-05
-7.14968589049e-11
2.08959127203e-05
-8.78415423788e-11
2.08959900449e-05
-1.08062977867e-10
2.08960854337e-05
-1.33105911607e-10
2.0896203328e-05
-1.64188386555e-10
2.08963488825e-05
-2.02669704011e-10
2.08965288716e-05
-2.50192260454e-10
2.08967515415e-05
-3.0903267548e-10
2.08970267777e-05
-3.81893767901e-10
2.0897366917e-05
-4.72006076138e-10
2.08977866026e-05
-5.83455250877e-10
2.08983022025e-05
-7.21883848938e-10
2.0898944679e-05
-8.94454535587e-10
2.089974296e-05
-1.10878585481e-09
2.09007330199e-05
-1.37436649964e-09
2.09019602222e-05
-1.70312288811e-09
2.09034810862e-05
-2.11020005921e-09
2.09053654102e-05
-2.61436618917e-09
2.09077000393e-05
-3.23889146581e-09
2.09105926415e-05
-4.0127620177e-09
2.09141765178e-05
-4.9717191615e-09
2.09186175729e-05
-6.1603201614e-09
2.09241213014e-05
-7.63418054719e-09
2.09309432214e-05
-9.4625510247e-09
2.09394007633e-05
-1.17316876095e-08
2.09498893806e-05
-1.45492579055e-08
2.09629025481e-05
-1.80508246555e-08
2.09790553165e-05
-2.24067380567e-08
2.09991180759e-05
-2.78315959496e-08
2.10240571754e-05
-3.45975730774e-08
2.10550892308e-05
-4.30517808224e-08
2.10937525009e-05
-5.36404729366e-08
2.11420005915e-05
-6.6941469437e-08
2.12023340445e-05
-8.37116726196e-08
2.12779790136e-05
-1.04957183008e-07
2.13731462478e-05
-1.32039017505e-07
2.1493416951e-05
-1.6684398644e-07
2.16463438756e-05
-2.12076034852e-07
2.18424557654e-05
-2.71796018327e-07
2.20970426847e-05
-3.52510939977e-07
2.24335505177e-05
-4.65572528661e-07
2.28903554258e-05
-6.32854749392e-07
2.35345529341e-05
-9.00632081963e-07
2.44881001351e-05
-1.37277665573e-06
2.59637259237e-05
-2.28889053899e-06
2.82522191826e-05
-4.20534437259e-06
-8.23650451383e-06
3.13031725939e-05
5.35844263532e-05
1.25223867144e-05
5.29166007e-05
1.78659202177e-05
4.96393016166e-05
1.59101394576e-05
4.58382172219e-05
1.24039963765e-05
4.24428745568e-05
9.10151988148e-06
3.97331595015e-05
6.49050522398e-06
3.76912456393e-05
4.568722409e-06
3.62011672157e-05
3.19221307481e-06
3.51355939132e-05
2.2164924764e-06
3.43848447762e-05
1.52836019748e-06
3.38626591739e-05
1.04499789133e-06
3.35040069104e-05
7.07116946404e-07
3.32609627318e-05
4.72456278495e-07
3.30987208197e-05
3.10837927852e-07
3.29922908445e-05
2.00668899144e-07
3.29239197707e-05
1.26500115246e-07
3.28811299083e-05
7.73068643827e-08
3.28552512702e-05
4.52611194785e-08
3.28403349181e-05
2.48436859746e-08
3.28323549101e-05
1.21980872926e-08
3.28286290187e-05
4.65817381952e-09
3.28274050753e-05
4.07848565747e-10
3.28275645007e-05
-1.78977324329e-09
3.28284106136e-05
-2.73833657376e-09
3.2829526617e-05
-2.96601843261e-09
3.28306764004e-05
-2.80667253789e-09
3.2831736569e-05
-2.46579927578e-09
3.28326530596e-05
-2.06437560122e-09
3.28334117484e-05
-1.66943644371e-09
3.28340199905e-05
-1.31435357811e-09
3.28344957162e-05
-1.01246387703e-09
3.28348598682e-05
-7.65510627228e-10
3.28351338636e-05
-5.69250674335e-10
3.28353367074e-05
-4.16982628704e-10
3.28354845693e-05
-3.01123728956e-10
3.28355909416e-05
-2.14480453512e-10
3.28356662448e-05
-1.50651455892e-10
3.28357190294e-05
-1.04334492854e-10
3.28357553415e-05
-7.12447168169e-11
3.28357799322e-05
-4.78495087e-11
3.28357964063e-05
-3.15754271218e-11
3.28358071209e-05
-2.04336681092e-11
3.28358140769e-05
-1.29469378607e-11
3.283581832e-05
-7.99453866746e-12
3.28358209382e-05
-4.75999309971e-12
3.283582254e-05
-2.78468170206e-12
3.28358233911e-05
-1.59340634687e-12
3.2835823857e-05
-8.99663020094e-13
3.28358239794e-05
-5.07041781611e-13
3.28358240628e-05
-3.3645151682e-13
3.28358240899e-05
-3.69246021244e-13
3.28358240721e-05
-3.98547018707e-13
3.28358241738e-05
-4.76564444826e-13
3.28358242199e-05
-5.92997258141e-13
3.28358243489e-05
-7.15147876061e-13
3.28358244411e-05
-8.32684341077e-13
3.283582457e-05
-9.303576691e-13
3.28358247561e-05
-1.07117962315e-12
3.28358248981e-05
-1.21298509204e-12
3.28358251593e-05
-1.30308681677e-12
3.28358254215e-05
-1.38095223541e-12
3.28358257356e-05
-1.44009163964e-12
3.28358260695e-05
-1.49303019696e-12
3.283582639e-05
-1.52527907639e-12
3.28358267939e-05
-1.58131292307e-12
3.28358271431e-05
-1.66617102999e-12
3.28358275271e-05
-1.73787328016e-12
3.28358279437e-05
-1.81027941677e-12
3.28358283744e-05
-1.89067655259e-12
3.28358288566e-05
-2.00452056754e-12
3.28358293153e-05
-2.11601784289e-12
3.28358298328e-05
-2.23213557105e-12
3.28358303514e-05
-2.38743489897e-12
3.28358308622e-05
-2.53666692726e-12
3.28358314153e-05
-2.65996179424e-12
3.28358319928e-05
-2.76016024462e-12
3.28358326226e-05
-2.85419668939e-12
3.28358332557e-05
-2.94009024895e-12
3.28358339437e-05
-3.00665588098e-12
3.28358347034e-05
-3.09988500842e-12
3.28358354816e-05
-3.22681055477e-12
3.28358362874e-05
-3.36132799605e-12
3.28358371208e-05
-3.49682886142e-12
3.283583802e-05
-3.65044176325e-12
3.28358389615e-05
-3.82557591641e-12
3.28358399574e-05
-3.98840803443e-12
3.28358410398e-05
-4.15747185398e-12
3.28358421822e-05
-4.3742884331e-12
3.28358433984e-05
-4.6316834249e-12
3.28358446982e-05
-4.89030351825e-12
3.28358461567e-05
-5.16659544815e-12
3.283584776e-05
-5.51215935192e-12
3.28358494955e-05
-5.906939042e-12
3.28358514632e-05
-6.33821782076e-12
3.28358537174e-05
-6.83861302086e-12
3.28358563462e-05
-7.45619223574e-12
3.28358593133e-05
-8.19079532099e-12
3.28358627e-05
-9.03573129538e-12
3.28358666074e-05
-1.00750411111e-11
3.28358709679e-05
-1.1300559543e-11
3.28358763502e-05
-1.31576712098e-11
3.28358828292e-05
-1.52542146501e-11
3.28358906877e-05
-1.78242902445e-11
3.28359001782e-05
-2.10408411983e-11
3.28359115685e-05
-2.49718663128e-11
3.28359255307e-05
-2.97984112554e-11
3.28359425822e-05
-3.58170088273e-11
3.28359635034e-05
-4.32678078968e-11
3.28359892988e-05
-5.24489438124e-11
3.28360214107e-05
-6.37727063855e-11
3.28360614884e-05
-7.78828944772e-11
3.28361096925e-05
-9.5451511319e-11
3.28361688092e-05
-1.17155302625e-10
3.28362415811e-05
-1.44027920602e-10
3.28363312056e-05
-1.7731952958e-10
3.28364417655e-05
-2.1853307651e-10
3.28365781811e-05
-2.69497050662e-10
3.2836746824e-05
-3.32617107168e-10
3.28369551766e-05
-4.10826173953e-10
3.28372126831e-05
-5.07566872557e-10
3.28375312292e-05
-6.27288930904e-10
3.28379252494e-05
-7.75539411449e-10
3.283841279e-05
-9.59125419733e-10
3.283901605e-05
-1.18652490801e-09
3.28397627835e-05
-1.4684680811e-09
3.28406866292e-05
-1.81811880293e-09
3.28418298347e-05
-2.25191425572e-09
3.28432451493e-05
-2.78963602715e-09
3.28449976293e-05
-3.4556770365e-09
3.28471680294e-05
-4.2806056506e-09
3.28498560102e-05
-5.3024504332e-09
3.28531852154e-05
-6.56828846488e-09
3.28573091514e-05
-8.13673776233e-09
3.28624176848e-05
-1.00804359427e-08
3.28687468566e-05
-1.24896443871e-08
3.28765893217e-05
-1.54767726216e-08
3.28863088195e-05
-1.91819025138e-08
3.28983571517e-05
-2.37798428892e-08
3.29132962101e-05
-2.94885730428e-08
3.2931826874e-05
-3.65814791618e-08
3.29548225579e-05
-4.54023233868e-08
3.29833753661e-05
-5.63841959007e-08
3.30188533618e-05
-7.00755245923e-08
3.30629755644e-05
-8.71743595367e-08
3.31179111105e-05
-1.0857599714e-07
3.31864077053e-05
-1.35438137409e-07
3.32719696562e-05
-1.69273621767e-07
3.33790997357e-05
-2.12087204269e-07
3.35136423797e-05
-2.66581965047e-07
3.3683285638e-05
-3.36487483671e-07
3.3898316429e-05
-4.27107220624e-07
3.41728104646e-05
-5.46290150398e-07
3.45265511103e-05
-7.06251954518e-07
3.49881606142e-05
-9.27182891113e-07
3.55999840351e-05
-1.24467878653e-06
3.64245559418e-05
-1.72520417491e-06
3.75485558901e-05
-2.49677665547e-06
3.90630146818e-05
-3.80334968372e-06
4.09422783542e-05
-6.0846081943e-06
-9.96598887314e-06
4.26717645156e-05
5.35705199977e-05
8.95186670282e-06
5.55863054583e-05
1.58501344052e-05
5.52410588328e-05
1.62553863259e-05
5.35976160637e-05
1.40474395144e-05
5.15429059456e-05
1.11562297351e-05
4.95819405782e-05
8.45147067352e-06
4.79262515293e-05
6.22441165783e-06
4.6620040089e-05
4.49842439054e-06
4.56322342411e-05
3.20429834964e-06
4.49066880534e-05
2.25390633418e-06
4.43854426147e-05
1.56624321565e-06
4.40178334008e-05
1.0747262851e-06
4.37629127833e-05
7.27376758063e-07
4.35890453614e-05
4.8470538779e-07
4.34725021449e-05
3.17212113797e-07
4.33958691992e-05
2.03133154182e-07
4.33465912496e-05
1.26584893017e-07
4.33157570268e-05
7.60952277324e-08
4.32971356987e-05
4.34651545147e-08
4.32864340597e-05
2.28996989432e-08
4.32807407306e-05
1.03514826481e-08
4.32781179656e-05
3.03058432189e-09
4.32772912461e-05
-9.63082807491e-10
4.32774558504e-05
-2.90283768256e-09
4.32781071569e-05
-3.61744858258e-09
4.32789452365e-05
-3.64469820212e-09
4.32798002544e-05
-3.3207664766e-09
4.32805846012e-05
-2.84870542946e-09
4.32812604476e-05
-2.34525562783e-09
4.32818184702e-05
-1.87247904029e-09
4.32822652358e-05
-1.45912591558e-09
4.32826139136e-05
-1.11425225491e-09
4.32828806075e-05
-8.35990983585e-10
4.32830810302e-05
-6.17367642136e-10
4.32832291418e-05
-4.49263631821e-10
4.32833371124e-05
-3.22394610525e-10
4.32834145032e-05
-2.28167279166e-10
4.32834694087e-05
-1.59211662153e-10
4.32835077484e-05
-1.09547450616e-10
4.32835340632e-05
-7.42188462452e-11
4.32835519634e-05
-4.94443024766e-11
4.32835637975e-05
-3.23165315802e-11
4.32835716111e-05
-2.06741831077e-11
4.3283576492e-05
-1.29177886252e-11
4.32835794742e-05
-7.80180166871e-12
4.32835812913e-05
-4.56950295461e-12
4.32835822143e-05
-2.59646201661e-12
4.32835827534e-05
-1.443026327e-12
4.32835829702e-05
-8.03579998025e-13
4.32835831201e-05
-4.65673486322e-13
4.32835831961e-05
-4.01216713952e-13
4.32835831369e-05
-3.83883525353e-13
4.32835831541e-05
-4.37532263566e-13
4.32835830955e-05
-5.51866665195e-13
4.32835830934e-05
-6.98088589955e-13
4.32835830423e-05
-8.42847940578e-13
4.32835829765e-05
-9.52123587007e-13
4.32835830083e-05
-1.11015547941e-12
4.32835829545e-05
-1.26282201394e-12
4.32835829682e-05
-1.35488578199e-12
4.32835829847e-05
-1.42706496573e-12
4.32835830375e-05
-1.47806894639e-12
4.32835831326e-05
-1.54712430639e-12
4.32835831789e-05
-1.59593970968e-12
4.32835832996e-05
-1.64783698087e-12
4.32835833839e-05
-1.74173964604e-12
4.32835834621e-05
-1.83002582705e-12
4.32835835587e-05
-1.91926871222e-12
4.32835836536e-05
-2.00908725027e-12
4.32835837945e-05
-2.13689923426e-12
4.32835838908e-05
-2.27875340205e-12
4.32835840087e-05
-2.40313620605e-12
4.3283584139e-05
-2.55519227355e-12
4.32835842508e-05
-2.70674966933e-12
4.32835843857e-05
-2.8380776315e-12
4.32835845242e-05
-2.94177016615e-12
4.32835847086e-05
-3.04154186572e-12
4.32835848958e-05
-3.16096176315e-12
4.32835851009e-05
-3.2536710468e-12
4.32835853661e-05
-3.35792131914e-12
4.32835856532e-05
-3.50939380551e-12
4.3283585956e-05
-3.68221139442e-12
4.32835862611e-05
-3.84833866236e-12
4.32835866137e-05
-4.01317477365e-12
4.32835870176e-05
-4.23573747516e-12
4.32835874557e-05
-4.47931975487e-12
4.32835879527e-05
-4.71306373108e-12
4.32835885234e-05
-4.99295710418e-12
4.32835892063e-05
-5.34805229597e-12
4.3283589981e-05
-5.73712447364e-12
4.32835909021e-05
-6.14275889899e-12
4.32835920032e-05
-6.63640963932e-12
4.32835932822e-05
-7.23095367096e-12
4.32835948219e-05
-7.89087666437e-12
4.32835966718e-05
-8.65504103927e-12
4.32835989659e-05
-9.6294710219e-12
4.32836017047e-05
-1.08495173927e-11
4.32836049748e-05
-1.22837145251e-11
4.32836090596e-05
-1.40536827525e-11
4.32836141503e-05
-1.62799948381e-11
4.32836201316e-05
-1.90297699954e-11
4.32836272967e-05
-2.23671416001e-11
4.32836360292e-05
-2.64561286524e-11
4.32836467276e-05
-3.15632960941e-11
4.32836596668e-05
-3.78695301458e-11
4.32836755483e-05
-4.56081327431e-11
4.32836950514e-05
-5.51943163654e-11
4.32837190427e-05
-6.70846316819e-11
4.32837485444e-05
-8.17871752509e-11
4.3283784802e-05
-9.99073516576e-11
4.32838296488e-05
-1.22425186092e-10
4.32838849808e-05
-1.50510874713e-10
4.3283953279e-05
-1.85215576155e-10
4.32840376067e-05
-2.28117332905e-10
4.32841416951e-05
-2.81209896336e-10
4.32842703068e-05
-3.46947462609e-10
4.32844291143e-05
-4.28262333763e-10
4.32846255547e-05
-5.28873807952e-10
4.32848684837e-05
-6.53507775542e-10
4.328516883e-05
-8.07784790354e-10
4.32855404395e-05
-9.98717065144e-10
4.32860002366e-05
-1.23508386754e-09
4.32865693842e-05
-1.52785612446e-09
4.32872736456e-05
-1.89057484378e-09
4.32881452065e-05
-2.34000259944e-09
4.32892240934e-05
-2.89693954249e-09
4.3290559483e-05
-3.58725965879e-09
4.32922126082e-05
-4.44266150706e-09
4.3294259094e-05
-5.50221330075e-09
4.32967930022e-05
-6.81451944705e-09
4.32999305787e-05
-8.44005928107e-09
4.33038157912e-05
-1.04536749127e-08
4.33086275213e-05
-1.29484393331e-08
4.33145869408e-05
-1.60398926907e-08
4.33219687417e-05
-1.98714894349e-08
4.33311134412e-05
-2.46216696289e-08
4.33424439803e-05
-3.05125503838e-08
4.33564857147e-05
-3.78213638923e-08
4.33738909083e-05
-4.68939228795e-08
4.33954720392e-05
-5.81628325701e-08
4.34222406177e-05
-7.21711856134e-08
4.34554587363e-05
-8.96024696448e-08
4.34967037653e-05
-1.11320574938e-07
4.35479513058e-05
-1.38422332989e-07
4.36116846685e-05
-1.72309556487e-07
4.36910343689e-05
-2.14788071064e-07
4.37899669602e-05
-2.68206368124e-07
4.3913536745e-05
-3.35656843463e-07
4.40682298575e-05
-4.21275022504e-07
4.42624450214e-05
-5.3070245577e-07
4.45071691282e-05
-6.71831365519e-07
4.48169358186e-05
-8.56056428911e-07
4.52111471411e-05
-1.10046264504e-06
4.57157337716e-05
-1.43176928766e-06
4.63645943771e-05
-1.89353929666e-06
4.71985208654e-05
-2.5591304724e-06
4.82546857118e-05
-3.55294091889e-06
4.95288977378e-05
-5.07756154052e-06
5.08714774081e-05
-7.42718875032e-06
-1.08923451843e-05
5.17978345089e-05
5.2760608612e-05
6.19125835903e-06
5.57402405294e-05
1.28705020677e-05
5.73124117954e-05
1.46832148868e-05
5.76111981171e-05
1.37486536519e-05
5.71338686953e-05
1.1633559032e-05
5.63199841999e-05
9.26535505299e-06
5.54496452718e-05
7.09475072227e-06
5.46637031738e-05
5.28436639812e-06
5.40144133495e-05
3.85358816301e-06
5.35068428225e-05
2.76147685723e-06
5.31248782416e-05
1.94820765155e-06
5.28455243515e-05
1.3540802793e-06
5.26458881124e-05
9.27012936292e-07
5.25060755339e-05
6.24518017452e-07
5.24099978987e-05
4.13289756137e-07
5.2345216408e-05
2.67914694554e-07
5.23024115768e-05
1.69389865501e-07
5.22747665834e-05
1.03740095614e-07
5.22573944851e-05
6.08373268413e-08
5.22468524125e-05
3.34417697822e-08
5.22407561577e-05
1.64477424533e-08
5.22374831567e-05
6.30357601447e-09
5.22359418531e-05
5.78155331695e-10
5.22354266771e-05
-2.38751705412e-09
5.22354785478e-05
-3.66939899604e-09
5.22358134389e-05
-3.97959317131e-09
5.2236260772e-05
-3.76807799687e-09
5.22367236289e-05
-3.3115758398e-09
5.22371515478e-05
-2.77313067917e-09
5.22375218751e-05
-2.24294901544e-09
5.22378289136e-05
-1.76609798389e-09
5.22380752221e-05
-1.36055963073e-09
5.22382678921e-05
-1.02870637815e-09
5.2238415564e-05
-7.65014028682e-10
5.22385265886e-05
-5.60338240611e-10
5.22386088939e-05
-4.04610979227e-10
5.22386687821e-05
-2.88145367028e-10
5.22387118837e-05
-2.02336519722e-10
5.22387424902e-05
-1.40108395249e-10
5.22387638171e-05
-9.55873289847e-11
5.22387785922e-05
-6.41702312051e-11
5.22387885231e-05
-4.22955143399e-11
5.22387952337e-05
-2.73002039451e-11
5.2238799568e-05
-1.72495512037e-11
5.2238802264e-05
-1.05959975114e-11
5.22388040144e-05
-6.32412611987e-12
5.22388049978e-05
-3.66106221262e-12
5.22388056165e-05
-2.04529259e-12
5.22388058474e-05
-1.101268187e-12
5.22388059222e-05
-5.59542682849e-13
5.22388059091e-05
-3.384711882e-13
5.22388057546e-05
-2.71793428599e-13
5.22388056769e-05
-3.13042982562e-13
5.22388055362e-05
-4.26275000836e-13
5.22388054277e-05
-5.73834858566e-13
5.2238805305e-05
-7.45839311111e-13
5.22388051548e-05
-8.82935761386e-13
5.2238805106e-05
-1.0296154063e-12
5.2238804998e-05
-1.18328293893e-12
5.22388049392e-05
-1.29233679187e-12
5.2238804874e-05
-1.37162544037e-12
5.2238804814e-05
-1.42283181114e-12
5.22388047889e-05
-1.4945384295e-12
5.22388046836e-05
-1.56109547392e-12
5.22388046308e-05
-1.61675285618e-12
5.22388045586e-05
-1.69999109868e-12
5.22388044776e-05
-1.78726710647e-12
5.22388044051e-05
-1.87638233649e-12
5.22388043118e-05
-1.96130663395e-12
5.22388042661e-05
-2.07878042959e-12
5.22388041697e-05
-2.22781677408e-12
5.22388040725e-05
-2.36505962391e-12
5.22388039905e-05
-2.50591712518e-12
5.22388038986e-05
-2.6437240935e-12
5.22388038263e-05
-2.76653064971e-12
5.22388037347e-05
-2.86265529026e-12
5.2238803677e-05
-2.95708970716e-12
5.2238803605e-05
-3.08237684289e-12
5.22388035162e-05
-3.20362961355e-12
5.22388034674e-05
-3.32708450833e-12
5.22388034337e-05
-3.48462057173e-12
5.22388034146e-05
-3.67889378184e-12
5.22388033785e-05
-3.87880166836e-12
5.22388033883e-05
-4.07689986305e-12
5.22388034476e-05
-4.32365619345e-12
5.2238803514e-05
-4.60986697402e-12
5.22388036329e-05
-4.90592110116e-12
5.22388038245e-05
-5.23467301414e-12
5.22388041156e-05
-5.64140655201e-12
5.22388044598e-05
-6.12334279171e-12
5.2238804904e-05
-6.65391085979e-12
5.22388055213e-05
-7.28077349741e-12
5.22388063057e-05
-8.03698657915e-12
5.22388073373e-05
-8.91969936583e-12
5.22388086508e-05
-9.95885191416e-12
5.22388103678e-05
-1.12527685212e-11
5.22388125231e-05
-1.29018639711e-11
5.22388151644e-05
-1.49066450202e-11
5.22388185195e-05
-1.73406759759e-11
5.22388226997e-05
-2.03654198826e-11
5.22388279765e-05
-2.41691043978e-11
5.22388345238e-05
-2.88430869401e-11
5.22388426751e-05
-3.45513559269e-11
5.22388529083e-05
-4.16305396068e-11
5.22388655261e-05
-5.04052739303e-11
5.22388811966e-05
-6.12004226335e-11
5.22389006503e-05
-7.45296321734e-11
5.22389248247e-05
-9.10506989797e-11
5.22389548351e-05
-1.11553233499e-10
5.22389919068e-05
-1.36876019214e-10
5.22390379073e-05
-1.68198304422e-10
5.22390947522e-05
-2.070756095e-10
5.22391649866e-05
-2.55194231113e-10
5.22392518295e-05
-3.14724054331e-10
5.22393591689e-05
-3.88362045142e-10
5.22394920019e-05
-4.79521610011e-10
5.22396561879e-05
-5.92330113799e-10
5.22398593692e-05
-7.31880658369e-10
5.22401108563e-05
-9.0468238827e-10
5.22404219911e-05
-1.11869442083e-09
5.2240807092e-05
-1.38364345259e-09
5.2241283691e-05
-1.71158923354e-09
5.224187381e-05
-2.11766382998e-09
5.22426042417e-05
-2.62072950953e-09
5.22435082121e-05
-3.24394288712e-09
5.22446272407e-05
-4.01600467214e-09
5.22460123852e-05
-4.97249490375e-09
5.22477271835e-05
-6.15739658882e-09
5.22498499524e-05
-7.62503251202e-09
5.22524780662e-05
-9.44269623735e-09
5.22557320925e-05
-1.16940760704e-08
5.22597610548e-05
-1.44827967193e-08
5.22647501672e-05
-1.79375452087e-08
5.22709283983e-05
-2.22181031048e-08
5.22785798517e-05
-2.75228213547e-08
5.22880565181e-05
-3.4098316644e-08
5.22997949519e-05
-4.22511505695e-08
5.23143372719e-05
-5.23635080764e-08
5.23323555076e-05
-6.49121021581e-08
5.23546849787e-05
-8.04923186928e-08
5.23823636553e-05
-9.9850036659e-08
5.24166829437e-05
-1.23922020619e-07
5.24592515788e-05
-1.53889214051e-07
5.25120753414e-05
-1.91246331584e-07
5.25776611156e-05
-2.37895458471e-07
5.26591465461e-05
-2.96273778798e-07
5.27604695724e-05
-3.69529765574e-07
5.28865859141e-05
-4.61773301866e-07
5.30437492286e-05
-5.78438514438e-07
5.32398730715e-05
-7.26826283684e-07
5.34849804129e-05
-9.1693914418e-07
5.37917298289e-05
-1.16280620287e-06
5.41759036472e-05
-1.48463637602e-06
5.46564918974e-05