/*--------------------------------*- C++ -*----------------------------------*\
| =========                 |                                                 |
| \\      /  F ield         | OpenFOAM: The Open Source CFD Toolbox           |
|  \\    /   O peration     | Version:  2106                                  |
|   \\  /    A nd           | Website:  www.openfoam.com                      |
|    \\/     M anipulation  |                                                 |
\*---------------------------------------------------------------------------*/
FoamFile
{
    version     2.0;
    format      ascii;
    arch        "LSB;label=32;scalar=64";
    class       surfaceScalarField;
    location    "0.265";
    object      phi;
}
// * * * * * * * * * * * * * * * * * * * * * * * * * * * * * * * * * * * * * //

dimensions      [0 3 -1 0 0 0 0];

oriented        oriented;

internalField   nonuniform List<scalar> 
22100
(
3.38461205398e-05
1.61538794592e-05
2.24572104894e-05
1.13889102548e-05
1.62585539742e-05
6.19865668583e-06
1.27977773432e-05
3.460776791e-06
1.08046438133e-05
1.99313369125e-06
9.60459113233e-06
1.20005284561e-06
8.85132371873e-06
7.53267580783e-07
8.36435524663e-06
4.86968636309e-07
8.04433771098e-06
3.2001770438e-07
7.83284326069e-06
2.1149462111e-07
7.69340043878e-06
1.39442994951e-07
7.60224388754e-06
9.11567263821e-08
7.54348143265e-06
5.8762633089e-08
7.50634483359e-06
3.71367803461e-08
7.48350562777e-06
2.28393894403e-08
7.46998509585e-06
1.35207177553e-08
7.46242075326e-06
7.56453126572e-09
7.45855298725e-06
3.86795508788e-09
7.45683423533e-06
1.71894073587e-09
7.45642785659e-06
4.06567863958e-10
7.45677792036e-06
-3.49873796233e-10
7.45746433671e-06
-6.86226512731e-10
7.45822291694e-06
-7.58391688963e-10
7.45894846186e-06
-7.25357062975e-10
7.45959301954e-06
-6.44370087577e-10
7.46013721012e-06
-5.4400345394e-10
7.46057959043e-06
-4.4219380646e-10
7.46092861735e-06
-3.48839973485e-10
7.46119719927e-06
-2.68393883518e-10
7.46139942195e-06
-2.02034829643e-10
7.46154866428e-06
-1.4905301799e-10
7.46165662923e-06
-1.07771567286e-10
7.46173304495e-06
-7.62234783738e-11
7.46178604211e-06
-5.28044798018e-11
7.461819574e-06
-3.33357846568e-11
7.46183863012e-06
-1.88592696154e-11
7.46184797721e-06
-9.14913873089e-12
7.46185105484e-06
-2.87594158661e-12
7.46184980736e-06
1.45248237924e-12
7.46184537432e-06
4.64260904731e-12
7.46183868987e-06
6.89813460212e-12
7.46183035872e-06
8.54811332703e-12
7.46182074685e-06
9.82988873373e-12
7.46181002571e-06
1.09399834921e-11
7.46179819993e-06
1.20458850426e-11
7.4617851453e-06
1.32730291949e-11
7.4617706322e-06
1.47250246704e-11
7.46175433908e-06
1.64986702965e-11
7.46173583699e-06
1.86982115131e-11
7.46171458622e-06
2.14342995242e-11
7.46168997422e-06
2.47751170841e-11
7.46166130091e-06
2.88110527242e-11
7.46162777774e-06
3.36318669482e-11
7.46158854975e-06
3.93060884776e-11
7.46154274408e-06
4.58528934876e-11
7.46148953804e-06
5.32222636296e-11
7.46142823639e-06
6.12926095755e-11
7.46135871188e-06
6.95008276997e-11
7.46128166681e-06
7.70132108808e-11
7.4611995269e-06
8.21134648531e-11
7.46111850661e-06
8.1011361908e-11
7.46105084782e-06
6.7677950796e-11
7.46100431892e-06
4.65826414992e-11
7.46099800962e-06
6.40517459515e-12
7.46106780483e-06
-6.96489099653e-11
7.46127192253e-06
-2.03899999514e-10
7.4617048085e-06
-4.32592062124e-10
7.4625164971e-06
-8.1133277474e-10
7.46394226322e-06
-1.42537289457e-09
7.46633772447e-06
-2.39504224619e-09
7.47015275974e-06
-3.81457984542e-09
7.4765978154e-06
-6.44456448835e-09
7.48736666857e-06
-1.07683544149e-08
7.50554266796e-06
-1.81755424481e-08
7.53873604976e-06
-3.31929697076e-08
7.60797528466e-06
-6.92388080345e-08
7.77470595403e-06
-1.66730184702e-07
8.22981689043e-06
-4.55110494546e-07
9.69812677748e-06
-1.4683095674e-06
-5.45434417136e-06
1.51524713241e-05
5.02175950533e-05
1.59362846063e-05
4.42441121786e-05
1.73623934644e-05
3.77795023731e-05
1.26632667927e-05
3.26461451977e-05
8.5941342666e-06
2.89380933778e-05
5.70118580993e-06
2.63596232702e-05
3.77852325105e-06
2.45875191579e-05
2.52537199805e-06
2.3373477402e-05
1.70101069696e-06
2.25435286685e-05
1.14996674794e-06
2.19782203121e-05
7.76803290737e-07
2.15955181273e-05
5.22145497657e-07
2.13387419188e-05
3.4793325783e-07
2.1168500763e-05
2.29004116965e-07
2.10573435284e-05
1.48294347493e-07
2.09861559971e-05
9.40272571751e-08
2.09416840077e-05
5.79930463024e-08
2.09148025852e-05
3.44462925973e-08
2.08993038811e-05
1.93670011545e-08
2.08910805208e-05
9.94264390121e-09
2.08872806178e-05
4.20680935679e-09
2.08862119817e-05
7.19100772794e-10
2.08864580319e-05
-9.31939452176e-10
2.08873297881e-05
-1.62981100006e-09
2.08884695966e-05
-1.86483029126e-09
2.08896432268e-05
-1.81766564277e-09
2.08907265148e-05
-1.62695703219e-09
2.08916644049e-05
-1.37974999924e-09
2.08924422265e-05
-1.12632716819e-09
2.08930677474e-05
-8.93577720159e-10
2.08935601846e-05
-6.94133139487e-10
2.08939443184e-05
-5.32846594684e-10
2.08942461415e-05
-4.09251279891e-10
2.08944574011e-05
-2.87133268699e-10
2.08946047448e-05
-1.99799606368e-10
2.08947053997e-05
-1.33635392022e-10
2.0894771062e-05
-8.4159170522e-11
2.08948119027e-05
-4.96205873873e-11
2.08948360926e-05
-2.66899210005e-11
2.08948484461e-05
-1.05182630763e-11
2.08948518998e-05
1.5778292755e-12
2.08948488692e-05
1.03225804093e-11
2.08948410182e-05
1.67971694564e-11
2.08948294842e-05
2.17629838519e-11
2.08948149768e-05
2.58419403347e-11
2.08947978634e-05
2.95478765918e-11
2.0894778279e-05
3.32403317051e-11
2.08947561962e-05
3.71775005016e-11
2.08947314827e-05
4.15618744402e-11
2.08947039217e-05
4.6580488533e-11
2.08946732337e-05
5.24076885652e-11
2.08946391908e-05
5.90603604902e-11
2.08946016368e-05
6.65550589075e-11
2.08945605722e-05
7.48286219192e-11
2.0894516298e-05
8.36570744193e-11
2.08944696636e-05
9.25187398921e-11
2.08944224604e-05
1.0042031957e-10
2.08943779206e-05
1.05797975755e-10
2.08943419745e-05
1.05404557432e-10
2.08943240848e-05
9.48737395211e-11
2.08943394317e-05
6.67721765011e-11
2.08944146659e-05
5.83225116777e-12
2.08945988177e-05
-1.16356870722e-10
2.08949601062e-05
-3.14505470894e-10
2.08956168194e-05
-6.50002802631e-10
2.089667829e-05
-1.13070838908e-09
2.08983198533e-05
-1.84494515883e-09
2.09008994696e-05
-3.01158248636e-09
2.09049651433e-05
-4.87628242128e-09
2.09113862698e-05
-7.84570574452e-09
2.09215870275e-05
-1.25949801604e-08
2.09380585317e-05
-2.02852571618e-08
2.09649493418e-05
-3.33345227034e-08
2.10092022128e-05
-5.50203642801e-08
2.10839980229e-05
-9.29705721617e-08
2.12152784421e-05
-1.64472749531e-07
2.14559838828e-05
-3.09943729422e-07
2.19140429689e-05
-6.24788872827e-07
2.28015358921e-05
-1.34260314659e-06
2.44466122824e-05
-3.11338567619e-06
-7.04277757134e-06
2.60350467292e-05
5.35171055155e-05
1.24191792602e-05
5.2934968828e-05
1.7944530444e-05
4.96538409141e-05
1.59443949679e-05
4.58401825107e-05
1.2407792932e-05
4.24400937579e-05
9.1012748249e-06
3.97291740421e-05
6.4894432272e-06
3.76873078157e-05
4.56723849091e-06
3.61976652411e-05
3.19065353822e-06
3.51326148676e-05
2.21501739302e-06
3.43823700831e-05
1.52704834975e-06
3.38606293768e-05
1.04388648277e-06
3.35023494212e-05
7.06213496662e-07
3.32596048144e-05
4.7174901073e-07
3.30975948134e-05
3.10304639282e-07
3.2991339051e-05
2.0028331561e-07
3.29230974886e-05
1.26234907718e-07
3.28804098497e-05
7.71342311075e-08
3.28546250179e-05
4.515213374e-08
3.28397982213e-05
2.47697422792e-08
3.28318720036e-05
1.21333281329e-08
3.28280028085e-05
4.58859555977e-09
3.28270044495e-05
6.67187201771e-11
3.28271854899e-05
-1.81055297217e-09
3.28280341607e-05
-2.71320377542e-09
3.28291501776e-05
-2.93338614396e-09
3.28302976569e-05
-2.77413979464e-09
3.28313538504e-05
-2.4356463393e-09
3.28322644521e-05
-2.036631814e-09
3.2833014615e-05
-1.64344211131e-09
3.28336104267e-05
-1.28964283638e-09
3.28340668246e-05
-9.88944021185e-10
3.2834401923e-05
-7.44047126638e-10
3.28346684019e-05
-5.533054014e-10
3.28348848475e-05
-4.15936541701e-10
3.28350321486e-05
-2.80626028858e-10
3.28351314696e-05
-1.83163876645e-10
3.28351974294e-05
-1.1525953887e-10
3.28352394555e-05
-6.83887657458e-11
3.28352644241e-05
-3.51538772662e-11
3.28352763001e-05
-9.96016957555e-12
3.28352786412e-05
8.32309699463e-12
3.28352739418e-05
2.18416126708e-11
3.28352640227e-05
3.20298077995e-11
3.28352501048e-05
4.01061924522e-11
3.28352329376e-05
4.70575317658e-11
3.28352129819e-05
5.35325458752e-11
3.28351905262e-05
5.99591357714e-11
3.28351657597e-05
6.66378391994e-11
3.28351387631e-05
7.38625537853e-11
3.28351095384e-05
8.18832579616e-11
3.28350783844e-05
9.04254249621e-11
3.28350458798e-05
9.92270715811e-11
3.28350130321e-05
1.07795796188e-10
3.28349815904e-05
1.15169095677e-10
3.28349545378e-05
1.19598129335e-10
3.28349366112e-05
1.18339361249e-10
3.28349346468e-05
1.07727318495e-10
3.28349600548e-05
7.99536321596e-11
3.28350301335e-05
2.4768485242e-11
3.28351744705e-05
-7.75641496581e-11
3.28354443924e-05
-2.6404683277e-10
3.28359284517e-05
-6.00320897229e-10
3.28366426064e-05
-1.02849849932e-09
3.28376803573e-05
-1.68749451684e-09
3.28392988628e-05
-2.74884507677e-09
3.28418751672e-05
-4.42078880775e-09
3.28459130216e-05
-7.0489027888e-09
3.28522267985e-05
-1.11894596932e-08
3.28621296743e-05
-1.77479168059e-08
3.28777866106e-05
-2.82512001498e-08
3.29028593629e-05
-4.53572657699e-08
3.29427015271e-05
-7.31759376915e-08
3.30071471213e-05
-1.19465209711e-07
3.31131878254e-05
-1.99010527121e-07
3.32898543297e-05
-3.41138502002e-07
3.35853842761e-05
-6.05473006161e-07
3.40709194468e-05
-1.11032353968e-06
3.48126991575e-05
-2.08438223693e-06
3.56746351157e-05
-3.97532156929e-06
-7.11233569867e-06
3.57441910722e-05
5.35105666381e-05
8.90861278406e-06
5.5574222727e-05
1.58808746374e-05
5.52424832936e-05
1.62761346556e-05
5.35977870254e-05
1.4052489454e-05
5.15418490442e-05
1.11572130615e-05
4.95802815487e-05
8.45101097655e-06
4.79243528021e-05
6.22316749631e-06
4.66181412036e-05
4.49686539581e-06
4.56304686842e-05
3.20269017617e-06
4.49051200251e-05
2.25239727558e-06
4.4384093133e-05
1.56491364517e-06
4.40166972877e-05
1.07360961666e-06
4.37619711048e-05
7.26475471362e-07
4.35882728147e-05
4.84003211019e-07
4.34718737773e-05
3.16682638266e-07
4.33953640336e-05
2.02744939878e-07
4.33461940873e-05
1.26304467424e-07
4.33154568102e-05
7.58897005214e-08
4.32969207834e-05
4.33060604706e-08
4.32862950532e-05
2.27593487408e-08
4.32806925462e-05
1.01913917906e-08
4.32778852102e-05
2.8743427676e-09
4.32770577502e-05
-9.82805444533e-10
4.32772759752e-05
-2.9311418853e-09
4.32779638436e-05
-3.62096920818e-09
4.32788272259e-05
-3.63723695373e-09
4.32797003515e-05
-3.30848565282e-09
4.32804981029e-05
-2.83409697673e-09
4.32811841299e-05
-2.32918177896e-09
4.32817502173e-05
-1.85544065436e-09
4.32822031979e-05
-1.44163290667e-09
4.32825557745e-05
-1.0963317573e-09
4.32828177019e-05
-8.14935879751e-10
4.32829932594e-05
-5.91194514506e-10
4.32831264856e-05
-4.13549164298e-10
4.32832120698e-05
-2.68439627872e-10
4.32832663046e-05
-1.69180823717e-10
4.32833063664e-05
-1.08131527154e-10
4.32833310522e-05
-5.9514990594e-11
4.32833433626e-05
-2.19404725993e-11
4.32833467131e-05
5.30638780141e-12
4.32833430613e-05
2.58309246449e-11
4.32833341097e-05
4.13211088246e-11
4.3283321014e-05
5.35391274854e-11
4.32833044212e-05
6.39843014998e-11
4.32832847618e-05
7.35214206084e-11
4.32832623631e-05
8.26757762334e-11
4.3283237507e-05
9.17952595371e-11
4.32832105417e-05
1.0110653144e-10
4.32831820304e-05
1.10638362414e-10
4.32831525939e-05
1.20065050511e-10
4.32831231876e-05
1.28790797447e-10
4.3283095273e-05
1.35820509398e-10
4.32830709573e-05
1.39548179933e-10
4.32830531721e-05
1.3740493016e-10
4.32830462656e-05
1.25236318981e-10
4.32830581399e-05
9.58230700685e-11
4.32831007568e-05
3.72989405903e-11
4.32831933192e-05
-6.78135927536e-11
4.32833534535e-05
-2.37694870952e-10
4.32835893341e-05
-4.99878092974e-10
4.32840291729e-05
-1.04006067829e-09
4.32847947701e-05
-1.79393086231e-09
4.32860421957e-05
-2.93467234481e-09
4.32879785312e-05
-4.68483269349e-09
4.32909532335e-05
-7.39504502595e-09
4.32955257041e-05
-1.16208540355e-08
4.33025744936e-05
-1.82376777226e-08
4.3313481852e-05
-2.86546518697e-08
4.33304062055e-05
-4.51748652026e-08
4.33566578787e-05
-7.16081953e-08
4.3397809394e-05
-1.14326710171e-07
4.34627159279e-05
-1.84371050461e-07
4.35651087083e-05
-3.01402619811e-07
4.37249542133e-05
-5.00983242422e-07
4.39668671705e-05
-8.47385231676e-07
4.43075372706e-05
-1.45099320938e-06
4.47082802758e-05
-2.48512487879e-06
4.49281413202e-05
-4.19518163436e-06
-6.58362029494e-06
4.43994251847e-05
5.27351381669e-05
6.17347477691e-06
5.57309349062e-05
1.28850781829e-05
5.73114750034e-05
1.4695594812e-05
5.76109927728e-05
1.37529719374e-05
5.71335238955e-05
1.16346821938e-05
5.6319469696e-05
9.26506542949e-06
5.54489898837e-05
7.09364756753e-06
5.46629797025e-05
5.28287583649e-06
5.40136845365e-05
3.85198560563e-06
5.35061536145e-05
2.75992846471e-06
5.31242581248e-05
1.94680940565e-06
5.28449890311e-05
1.35287898546e-06
5.26454432576e-05
9.26021523827e-07
5.25057195051e-05
6.2372724656e-07
5.24097252433e-05
4.12677185845e-07
5.23450197522e-05
2.67450719401e-07
5.23022824542e-05
1.69042055288e-07
5.22746958134e-05
1.03476632017e-07
5.22573717783e-05
6.06303876948e-08
5.22468635736e-05
3.32678451809e-08
5.22407643052e-05
1.62909506625e-08
5.22374558003e-05
6.1831365731e-09
5.22359574227e-05
5.15860411939e-10
5.22354496948e-05
-2.42312621033e-09
5.22355148072e-05
-3.685794835e-09
5.22358603832e-05
-3.9825266213e-09
5.22363147107e-05
-3.76252698765e-09
5.22367811565e-05
-3.30025550118e-09
5.22372086225e-05
-2.75635960367e-09
5.22375743877e-05
-2.22091631768e-09
5.22378717545e-05
-1.73870826295e-09
5.22381035156e-05
-1.32780084762e-09
5.22382799573e-05
-9.91083549149e-10
5.22384129905e-05
-7.23928977958e-10
5.2238513511e-05
-5.13768212176e-10
5.2238598309e-05
-3.52930291907e-10
5.22386640304e-05
-2.34589220086e-10
5.22387065589e-05
-1.50341507643e-10
5.22387395455e-05
-9.21764837877e-11
5.2238755212e-05
-3.72763662906e-11
5.22387607115e-05
1.41680126604e-13
5.2238758616e-05
2.82645528039e-11
5.2238750873e-05
4.94059655776e-11
5.2238738809e-05
6.59415951116e-11
5.22387232874e-05
7.98408568221e-11
5.22387048792e-05
9.22581382166e-11
5.2238684084e-05
1.03789437058e-10
5.22386616684e-05
1.14510732823e-10
5.2238638169e-05
1.24880918726e-10
5.22386120352e-05
1.37015216234e-10
5.22385848798e-05
1.47423917815e-10
5.22385577843e-05
1.56044559253e-10
5.22385322931e-05
1.61422846913e-10
5.2238510888e-05
1.61017241928e-10
5.22384984181e-05
1.49894873134e-10
5.2238506319e-05
1.17322595228e-10
5.22385356025e-05
6.65137894682e-11
5.22386087411e-05
-3.58735974559e-11
5.22387266377e-05
-1.8572447392e-10
5.22389163913e-05
-4.27434088517e-10
5.22392513356e-05
-8.34767492953e-10
5.22397632834e-05
-1.55189514242e-09
5.22405295746e-05
-2.56004150222e-09
5.22416823107e-05
-4.08715537365e-09
5.22434245017e-05
-6.42668750028e-09
5.22460572951e-05
-1.00274102351e-08
5.22500323443e-05
-1.55953986699e-08
5.22560405263e-05
-2.42453011006e-08
5.22651405429e-05
-3.77540587978e-08
5.22789500467e-05
-5.89836819137e-08
5.22999278423e-05
-9.25852229391e-08
5.23317913242e-05
-1.46189415814e-07
5.23798874066e-05
-2.32466437306e-07
5.2451148713e-05
-3.72663320298e-07
5.25524493276e-05
-6.0228329323e-07
5.26843488668e-05
-9.79284220729e-07
5.28246365075e-05
-1.59128019006e-06
5.28918245628e-05
-2.55231259446e-06
5.26733885992e-05
-3.97674476068e-06
-5.77460798298e-06
5.18643760318e-05
5.19834866276e-05
4.18998830396e-06
5.50586644249e-05
9.80990067189e-06
5.76386139135e-05
1.21156455761e-05
5.93259041097e-05
1.20656819921e-05
6.02280163959e-05
1.07325701608e-05
6.05929278282e-05
8.90015424984e-06
6.06482849977e-05
7.03829065569e-06
6.0553190785e-05
5.3779703079e-06
6.0402956456e-05
4.00222019668e-06
6.02479161974e-05
2.91496898945e-06
6.0110790919e-05
2.0839349538e-06
5.99990316512e-05
1.46463852665e-06
5.99125167357e-05
1.01253671689e-06
5.9847925106e-05
6.88319157232e-07
5.98010218018e-05
4.59580774316e-07
5.97677374127e-05
3.00735395604e-07
5.97445963176e-05
1.92183439998e-07
5.97288180295e-05
1.19255209801e-07
5.97182701363e-05
7.1178571061e-08
5.97113641991e-05
4.01740723849e-08
5.97069451046e-05
2.07103345923e-08
5.97042114623e-05
8.91706692254e-09
5.97026026798e-05
2.12492952699e-09
5.97016983926e-05
-1.51855301536e-09
5.97012403367e-05
-3.2274535139e-09
5.97010510487e-05
-3.79295328976e-09
5.97010149953e-05
-3.72618774335e-09
5.97010595177e-05
-3.34449167262e-09
5.97011408951e-05
-2.83744935196e-09
5.97012334579e-05
-2.31319153059e-09
5.97013233309e-05
-1.82829100506e-09
5.9701403899e-05
-1.40807777626e-09
5.97014737392e-05
-1.06063029803e-09
5.97015334552e-05
-7.83346496468e-10
5.97015838523e-05
-5.63863076346e-10
5.97016238229e-05
-3.92593487143e-10
5.97016517993e-05
-2.62252733039e-10
5.9701667299e-05
-1.65522368439e-10
5.97016658896e-05
-9.04420860466e-11
5.97016581235e-05
-2.91794598306e-11
5.97016518187e-05
6.78067026852e-12
5.97016428599e-05
3.75582182464e-11
5.97016327715e-05
5.98326893667e-11
5.97016214769e-05
7.75778383268e-11
5.97016079123e-05
9.37434673187e-11
5.97015919112e-05
1.0858966209e-10
5.97015735042e-05
1.22514445515e-10
5.97015525852e-05
1.35726385781e-10
5.97015295236e-05
1.48213598982e-10
5.97015070957e-05
1.5967934996e-10
5.97014853137e-05
1.69399829365e-10
5.97014654277e-05
1.76079190288e-10
5.97014491393e-05
1.7781618209e-10
5.9701438144e-05
1.72074453981e-10
5.97014321542e-05
1.55905956882e-10
5.97014224614e-05
1.27001992189e-10
5.97014253826e-05
6.35675507712e-11
5.97014365767e-05
-4.7098019139e-11
5.97015136243e-05
-2.62777165844e-10
5.97016978883e-05
-6.11678697063e-10
5.97019937335e-05
-1.13055016414e-09
5.97023754017e-05
-1.93344594389e-09
5.97029468207e-05
-3.13127442904e-09
5.97037905862e-05
-4.9306618685e-09
5.97050202935e-05
-7.65606081823e-09
5.97068005289e-05
-1.18072275703e-08
5.97093688579e-05
-1.81632309637e-08
5.97130685878e-05
-2.79444808776e-08
5.97183885882e-05
-4.30734590953e-08
5.97260088261e-05
-6.66032374512e-08
5.97368303089e-05
-1.03405928598e-07
5.97519143248e-05
-1.61272605733e-07
5.97720973517e-05
-2.52648640411e-07
5.97967869274e-05
-3.9735208861e-07
5.98208249071e-05
-6.26320536932e-07
5.98273313887e-05
-9.85790128939e-07
5.97742506481e-05
-1.53819876357e-06
5.9573617832e-05
-2.35167938413e-06
5.90675035233e-05
-3.47062966678e-06
-4.80256908738e-06
5.80954648158e-05
5.14373055264e-05
2.75268293132e-06
5.42658210201e-05
6.98138546455e-06
5.72496439275e-05
9.13182292229e-06
5.97900285123e-05
9.52529765879e-06
6.17201292304e-05
8.80246969629e-06
6.30883043993e-05
7.53197933505e-06
6.40167181828e-05
6.10987713005e-06
6.46292382058e-05
4.76545054409e-06
6.50258053936e-05
3.60565327178e-06
6.52790802039e-05
2.66169444597e-06
6.54389754931e-05
1.92403993524e-06
6.55386925713e-05
1.36492172296e-06
6.55999313673e-05
9.51298199553e-07
6.56367464527e-05
6.51504353843e-07
6.56581978342e-05
4.38129677928e-07
6.56701063499e-05
2.88827168314e-07
6.56761958923e-05
1.86094188856e-07
6.56788325131e-05
1.1661888093e-07
6.5679503274e-05
7.05081016625e-08
6.56791273979e-05
4.05502394474e-08
6.56782603364e-05
2.15776866574e-08
6.56772297557e-05
9.94793728462e-09
6.56762208401e-05
3.1341331754e-09
6.567531189e-05
-6.09315862983e-10
6.56745435256e-05
-2.45880305885e-09
6.5673915496e-05
-3.1646370695e-09
6.56734169252e-05
-3.22732996357e-09
6.56730303489e-05
-2.95762692429e-09
6.56727367783e-05
-2.54359047602e-09
6.56725180483e-05
-2.0941735412e-09
6.56723580488e-05
-1.66800188675e-09
6.56722431085e-05
-1.29284521584e-09
6.56721610909e-05
-9.78319260841e-10
6.56721013805e-05
-7.23338510831e-10
6.56720582031e-05
-5.20383704124e-10
6.56720273275e-05
-3.61410414757e-10
6.5672002624e-05
-2.37235081446e-10
6.56719814217e-05
-1.43999782734e-10
6.5671966841e-05
-7.55356937346e-11
6.56719654704e-05
-2.74774652038e-11
6.56719642959e-05
8.29366858446e-12
6.56719572754e-05
4.49159116629e-11
6.56719475093e-05
6.99389027961e-11
6.5671935308e-05
9.01189324836e-11
6.56719215362e-05
1.07852798997e-10
6.56719062042e-05
1.24252780968e-10
6.56718891512e-05
1.39885221244e-10
6.56718702993e-05
1.54878708166e-10
6.56718502397e-05
1.68546833518e-10
6.56718309132e-05
1.79244382064e-10
6.56718111808e-05
1.89327657501e-10
6.56717915891e-05
1.9581985449e-10
6.56717732472e-05
1.96262180723e-10
6.56717579936e-05
1.87387511508e-10
6.56717493988e-05
1.64523490076e-10
6.56717548334e-05
1.21558444975e-10
6.56717624472e-05
5.59313824208e-11
6.56717894731e-05
-7.41362122062e-11
6.56718564662e-05
-3.29761766168e-10
6.56719511894e-05
-7.06362577837e-10
6.56720974054e-05
-1.27669359738e-09
6.56723016832e-05
-2.13760508442e-09
6.56725802328e-05
-3.40963800002e-09
6.56729494066e-05
-5.2995729934e-09
6.56734197836e-05
-8.12610193379e-09
6.56739884974e-05
-1.2375529447e-08
6.56746249174e-05
-1.87991644455e-08
6.56752425723e-05
-2.85615870687e-08
6.56756392317e-05
-4.34695137299e-08
6.56753859912e-05
-6.63493262692e-08
6.56736127518e-05
-1.01631952002e-07
6.56685822609e-05
-1.56241332743e-07
6.56567559698e-05
-2.40821526783e-07
6.56309995738e-05
-3.71594831755e-07
6.55771527325e-05
-5.72472900963e-07
6.54679662636e-05
-8.7660296922e-07
6.52542428614e-05
-1.32447472251e-06
6.48558792304e-05
-1.95331537068e-06
6.41603016737e-05
-2.77505161286e-06
-3.71939551555e-06
6.30771284094e-05
5.10850425164e-05
1.66764057083e-06
5.36118450047e-05
4.454583262e-06
5.66873171751e-05
6.05635100633e-06
5.96894474296e-05
6.52316765707e-06
6.22997282816e-05
6.19218909909e-06
6.44136900879e-05
5.41801778458e-06
6.604718648e-05
4.47638099645e-06
6.72686182845e-05
3.54401899951e-06
6.81598975952e-05
2.71437422526e-06
6.87977644891e-05
2.02382782014e-06
6.92467491861e-05
1.47505551001e-06
6.95579683676e-05
1.05370281713e-06
6.97704354209e-05
7.38831426366e-07
6.99131788967e-05
5.08761162328e-07
7.00073904603e-05
3.43918401472e-07
7.00683005237e-05
2.27917394011e-07
7.01067030915e-05
1.4769191252e-07
7.01301459585e-05
9.31763068136e-08
7.01438356589e-05
5.6818694506e-08
7.01513123378e-05
3.30738528289e-08
7.01549453889e-05
1.79449268677e-08
7.01562937354e-05
8.59988127699e-09
7.01563661782e-05
3.06197952939e-09
7.01557746819e-05
-1.75314083395e-11
7.01549143423e-05
-1.59817519254e-09
7.01539912591e-05
-2.241265521e-09
7.01531231406e-05
-2.35892436456e-09
7.01523636476e-05
-2.19784495727e-09
7.01517299858e-05
-1.90963949882e-09
7.01512192992e-05
-1.58319888816e-09
7.0150818661e-05
-1.26707401341e-09
7.01505111191e-05
-9.85011287693e-10
7.01502790362e-05
-7.45942250607e-10
7.0150106249e-05
-5.50252797604e-10
7.01499797627e-05
-3.93594917351e-10
7.01498889293e-05
-2.70269642678e-10
7.0149826652e-05
-1.74643861314e-10
7.01497854735e-05
-1.02500711623e-10
7.01497573127e-05
-4.7049192425e-11
7.01497277002e-05
2.4669046255e-12
7.01497047204e-05
3.16130602348e-11
7.01496921177e-05
5.78635535781e-11
7.01496820055e-05
8.03965002487e-11
7.01496724771e-05
9.99904436763e-11
7.01496627782e-05
1.1789059855e-10
7.01496525261e-05
1.3483616466e-10
7.01496415756e-05
1.51150876144e-10
7.01496299534e-05
1.66796576692e-10
7.01496173739e-05
1.81394636347e-10
7.01496025177e-05
1.94334198314e-10
7.01495873337e-05
2.04703878508e-10
7.01495725854e-05
2.10716130973e-10
7.01495590299e-05
2.09921786959e-10
7.01495472892e-05
1.99185463908e-10
7.01495370606e-05
1.74770759813e-10
7.01495259169e-05
1.32696965449e-10
7.01495148111e-05
6.7019256819e-11
7.01495065449e-05
-6.58863437717e-11
7.01495126622e-05
-3.35868571976e-10
7.01495320076e-05
-7.2566263714e-10
7.01495514854e-05
-1.29608908575e-09
7.01495488258e-05
-2.13481915765e-09
7.01494968093e-05
-3.35743657929e-09
7.01493418728e-05
-5.14437451516e-09
7.01489846233e-05
-7.76851219832e-09
7.01482491881e-05
-1.16396840417e-08
7.01468334597e-05
-1.7382965628e-08
7.01442246025e-05
-2.59521961224e-08
7.01395462559e-05
-3.87905620961e-08
7.01313149272e-05
-5.81173296678e-08
7.01170401351e-05
-8.73564559439e-08
7.00925603459e-05
-1.31760827895e-07
7.00507775015e-05
-1.9903791027e-07
6.9979706646e-05
-3.00523148081e-07
6.98593641649e-05
-4.52129710823e-07
6.96572768447e-05
-6.74514980638e-07
6.93234839545e-05
-9.90681244022e-07
6.8788358269e-05
-1.41818924929e-06
6.79691871141e-05
-1.95588016444e-06
-2.55790581371e-06
6.68076976325e-05
5.08804133505e-05
7.87227377075e-07
5.31704666312e-05
2.16453026624e-06
5.62177504408e-05
3.00906745059e-06
5.94382706892e-05
3.30264766159e-06
6.24449707459e-05
3.1854892963e-06
6.50382543985e-05
2.82473438711e-06
6.71548682013e-05
2.35976745111e-06
6.88135669273e-05
1.88532053277e-06
7.00731731609e-05
1.45476825456e-06
7.10056703589e-05
1.09133088897e-06
7.16812668905e-05
7.99459249388e-07
7.21614264936e-05
5.7354348886e-07
7.24966076764e-05
4.03650522209e-07
7.27264844951e-05
2.78884626418e-07
7.28812836675e-05
1.89119515462e-07
7.29834737057e-05
1.25727644005e-07
7.30494177814e-05
8.17481267875e-08
7.30908201914e-05
5.17741884165e-08
7.31159144449e-05
3.1724733347e-08
7.31303992744e-05
1.85893148015e-08
7.31381543048e-05
1.01901868867e-08
7.31417750529e-05
4.97942280766e-09
7.31429630681e-05
1.87425268405e-09
7.31428169882e-05
1.28836494784e-10
7.31419940655e-05
-7.74965176741e-10
7.31409114669e-05
-1.15837883076e-09
7.31397969045e-05
-1.24407552543e-09
7.31387697861e-05
-1.17044021277e-09
7.31378825676e-05
-1.02213285793e-09
7.31371491587e-05
-8.49502986955e-10
7.31365621804e-05
-6.79807794342e-10
7.31361042454e-05
-5.26786509203e-10
7.31357544859e-05
-3.95890029972e-10
7.31354922754e-05
-2.87744386159e-10
7.31352992721e-05
-2.00288645759e-10
7.3135159847e-05
-1.30536954396e-10
7.31350607453e-05
-7.52288512962e-11
7.31349894294e-05
-3.08652851337e-11
7.31349366352e-05
6.07260575265e-12
7.31349072155e-05
3.22192053109e-11
7.31348844224e-05
5.47444002524e-11
7.31348679541e-05
7.46755148016e-11
7.31348559214e-05
9.27757676714e-11
7.31348465178e-05
1.09739572533e-10
7.31348384701e-05
1.26278016734e-10
7.3134830892e-05
1.42747382955e-10
7.31348231568e-05
1.59202791051e-10
7.31348148274e-05
1.75421573423e-10
7.31348056318e-05
1.90857806835e-10
7.31347955192e-05
2.04677690077e-10
7.3134784536e-05
2.15875122592e-10
7.31347727364e-05
2.22658481932e-10
7.31347602244e-05
2.22535666224e-10
7.31347471903e-05
2.12276913524e-10
7.31347340916e-05
1.8788307979e-10
7.31347218439e-05
1.44944456169e-10
7.31347076963e-05
8.11535872282e-11
7.31346828758e-05
-4.10758588285e-11
7.31346398248e-05
-2.92809736554e-10
7.31345716477e-05
-6.5743877765e-10
7.31344550142e-05
-1.17936096156e-09
7.31342464355e-05
-1.92609930763e-09
7.31338775349e-05
-2.98834408506e-09
7.31332330516e-05
-4.49962681743e-09
7.3132119539e-05
-6.65464666605e-09
7.3130214241e-05
-9.73396151487e-09
7.31269896673e-05
-1.41579232578e-08
7.31215890228e-05
-2.05510323826e-08
7.311259637e-05
-2.97973033669e-08
7.30977041402e-05
-4.32244005327e-08
7.30732034503e-05
-6.2855024389e-08
7.30331858815e-05
-9.17425289601e-08
7.29681240714e-05
-1.33975312189e-07
7.28629809403e-05
-1.95379149267e-07
7.26945584647e-05
-2.83706481267e-07
7.24283056234e-05
-4.08261420088e-07
7.20157804927e-05
-5.78155532033e-07
7.13956613791e-05
-7.98069617898e-07
7.05022112755e-05
-1.06242977233e-06
-1.34623929082e-06
6.92905449042e-05
5.07871727587e-05
5.47741810565e-11
5.29516503107e-05
5.2998870017e-11
5.59606891785e-05
2.8835684466e-11
5.92633228762e-05
1.42167496913e-11
6.24488096535e-05
2.77168379703e-12
6.52735503804e-05
-6.08574200958e-12
6.76333300736e-05
-1.19858282336e-11
6.9518665793e-05
-1.49275456663e-11
7.09734496649e-05
-1.53549190034e-11
7.20647946857e-05
-1.38662089099e-11
7.2864265299e-05
-1.10942957076e-11
7.3437816756e-05
-7.69444768887e-12
7.38414718816e-05
-4.32620477821e-12
7.41203584222e-05
-1.63402596137e-12
7.43094784242e-05
-2.02242865171e-13
7.44352067942e-05
-4.3882415824e-13
7.45169577998e-05
-2.58945555214e-12
7.45687386897e-05
-6.41118058806e-12
7.46004749792e-05
-1.12655440016e-11
7.46190807551e-05
-1.61709917775e-11
7.46292912292e-05
-1.99980863627e-11
7.46342925924e-05
-2.16519632656e-11
7.46361878015e-05
-2.0668174519e-11
7.46363352496e-05
-1.83249350274e-11
7.46355763619e-05
-1.57926123997e-11
7.46344309083e-05
-1.26378593066e-11
7.46331961517e-05
-9.03243387963e-12
7.46320310433e-05
-5.04704560821e-12
7.46310093826e-05
-1.86048026986e-13
7.46301562576e-05
3.90804660663e-12
7.46294681549e-05
8.58212933787e-12
7.46289280838e-05
1.35740932518e-11
7.46285136454e-05
1.8840471394e-11
7.46282017524e-05
2.44446858289e-11
7.46279711959e-05
3.05686392266e-11
7.46278036304e-05
3.73350294399e-11
7.46276838892e-05
4.48241854976e-11
7.46276003218e-05
5.30197255235e-11
7.46275447752e-05
6.19458359316e-11
7.46275060764e-05
7.12517220995e-11
7.46274802631e-05
8.08959163725e-11
7.46274634828e-05
9.17975017803e-11
7.46274527433e-05
1.03859499198e-10
7.46274458103e-05
1.17015832761e-10
7.46274411404e-05
1.31283058478e-10
7.46274376623e-05
1.46552471322e-10
7.46274346171e-05
1.62561089937e-10
7.46274314565e-05
1.78874084664e-10
7.46274277453e-05
1.94832698613e-10
7.46274231267e-05
2.09524878971e-10
7.46274174136e-05
2.21775058843e-10
7.46274103778e-05
2.29832436752e-10
7.46274016514e-05
2.31358503076e-10
7.46273905807e-05
2.23405533644e-10
7.46273760155e-05
2.02461523982e-10
7.4627356242e-05
1.64704155573e-10
7.46273302907e-05
1.07091348861e-10
7.46272857871e-05
3.4242116767e-12
7.46271967669e-05
-2.03775161115e-10
7.46270601291e-05
-5.2074783139e-10
7.46268365149e-05
-9.55643117268e-10
7.4626464882e-05
-1.55431387385e-09
7.46258485905e-05
-2.37184817306e-09
7.46248306167e-05
-3.48138230243e-09
7.46231555515e-05
-4.97922707558e-09
7.46204055768e-05
-6.98356359091e-09
7.46159150629e-05
-9.66694981111e-09
7.46086241844e-05
-1.3259656107e-08
7.45967919763e-05
-1.79645005764e-08
7.45776147628e-05
-2.40464577014e-08
7.45466800455e-05
-3.19195187166e-08
7.44972415457e-05
-4.2303269249e-08
7.44185487593e-05
-5.5281732031e-08
7.42941856212e-05
-7.10151208656e-08
7.4099742467e-05
-8.92625427842e-08
7.38003523102e-05
-1.08870495012e-07
7.33492740148e-05
-1.27076622465e-07
7.26899121411e-05
-1.38707215534e-07
7.17640548778e-05
-1.3657215586e-07
-1.12165909474e-07
7.0529981665e-05
5.07871717233e-05
-7.87116794271e-07