/*--------------------------------*- C++ -*----------------------------------*\
| =========                 |                                                 |
| \\      /  F ield         | OpenFOAM: The Open Source CFD Toolbox           |
|  \\    /   O peration     | Version:  2106                                  |
|   \\  /    A nd           | Website:  www.openfoam.com                      |
|    \\/     M anipulation  |                                                 |
\*---------------------------------------------------------------------------*/
FoamFile
{
    version     2.0;
    format      ascii;
    arch        "LSB;label=32;scalar=64";
    class       volVectorField;
    location    "0.265";
    object      U;
}
// * * * * * * * * * * * * * * * * * * * * * * * * * * * * * * * * * * * * * //

dimensions      [0 1 -1 0 0 0 0];

internalField   nonuniform List<vector> 
11200
(
(0.662462406481 0.15056944168 0)
(0.558948684143 0.103243387786 0)
(0.383850758556 0.0513512237215 0)
(0.283747627019 0.0248708547173 0)
(0.232075312691 0.0124170446112 0)
(0.201908640412 0.00662281614588 0)
(0.18319799774 0.00380291366116 0)
(0.171276564205 0.00231586926034 0)
(0.163510392305 0.00146450572492 0)
(0.158388865527 0.000944891575288 0)
(0.155006736256 0.000615176046407 0)
(0.152786790159 0.000402232954544 0)
(0.151346648475 0.000264231366522 0)
(0.150428419508 0.000175249299859 0)
(0.149856822987 0.000118359820586 0)
(0.149512629133 8.21591163126e-05 0)
(0.149315075791 5.88649891914e-05 0)
(0.149209720638 4.33146457599e-05 0)
(0.149159867194 3.29333327412e-05 0)
(0.149142632243 2.81851896439e-05 0)
(0.149144791728 2.76832709641e-05 0)
(0.14915706964 2.98890194243e-05 0)
(0.149172692353 3.30494562287e-05 0)
(0.149188240116 3.5965108369e-05 0)
(0.149202448539 3.86006676837e-05 0)
(0.149214717724 4.10397814545e-05 0)
(0.14922487999 4.33170944705e-05 0)
(0.149233042186 4.54637555646e-05 0)
(0.149239440967 4.75190280028e-05 0)
(0.149244358291 4.95299668534e-05 0)
(0.149248079204 5.15586090337e-05 0)
(0.149250871122 5.36959544541e-05 0)
(0.149252931074 5.60245855253e-05 0)
(0.149254429246 5.84060205325e-05 0)
(0.149255498238 6.07671016473e-05 0)
(0.149256224579 6.30882334105e-05 0)
(0.149256705149 6.53796953065e-05 0)
(0.149257023621 6.76544089089e-05 0)
(0.149257233694 6.99239672468e-05 0)
(0.149257364602 7.21944969578e-05 0)
(0.149257437334 7.44670805638e-05 0)
(0.149257469175 7.6742685434e-05 0)
(0.149257472281 7.90210225689e-05 0)
(0.149257455397 8.13009809967e-05 0)
(0.149257424739 8.35808151016e-05 0)
(0.149257384886 8.58581605601e-05 0)
(0.149257339735 8.81302628823e-05 0)
(0.14925729323 9.03940910601e-05 0)
(0.149257249723 9.26465098244e-05 0)
(0.149257214212 9.48844725203e-05 0)
(0.14925719346 9.71048380126e-05 0)
(0.149257197079 9.93047082799e-05 0)
(0.149257238279 0.0001014811106 0)
(0.149257335337 0.000103630657695 0)
(0.149257513964 0.00010574905623 0)
(0.149257810599 0.00010783069226 0)
(0.149258276036 0.000109868745035 0)
(0.149258984856 0.000111853308479 0)
(0.149260046576 0.000113771724322 0)
(0.149261619246 0.000115599502399 0)
(0.149263947588 0.000117281351265 0)
(0.14926743965 0.000118732005482 0)
(0.14927256701 0.00011999062406 0)
(0.149279974952 0.000121248320511 0)
(0.14929069458 0.000122965361162 0)
(0.149306246041 0.000125334808058 0)
(0.149329013902 0.000128116048548 0)
(0.149362693335 0.000131080612865 0)
(0.149412877428 0.000134012072477 0)
(0.149487798329 0.000136795896452 0)
(0.149599398269 0.000140706366389 0)
(0.149770510952 0.000151564210228 0)
(0.150038918601 0.000172303935476 0)
(0.150467807346 0.000202577861333 0)
(0.151193017222 0.000232527845913 0)
(0.152492299807 0.000191714980262 0)
(0.155022027612 -0.000216934044785 0)
(0.162377151459 -0.00211129965547 0)
(0.187713384838 -0.010794437525 0)
(0.204401147675 -0.0496908323529 0)
(0.965408257191 0.289214705111 0)
(0.961962869315 0.252656038806 0)
(0.823574409214 0.159021440547 0)
(0.698139393086 0.095995730094 0)
(0.610225494702 0.0582481129789 0)
(0.548971528884 0.0362148519835 0)
(0.50658893184 0.0231612838729 0)
(0.477567317157 0.0151375140368 0)
(0.457745544732 0.0100177538848 0)
(0.444228518283 0.00665813993649 0)
(0.435053360647 0.00441555505563 0)
(0.428873184718 0.0029068646222 0)
(0.424754272869 0.00189105714435 0)
(0.422046727336 0.00121004398035 0)
(0.420297894696 0.000757161944691 0)
(0.419193290194 0.000459254265657 0)
(0.418515689719 0.000265853036311 0)
(0.41811654757 0.000142397683557 0)
(0.417895949128 6.61074103397e-05 0)
(0.417786903247 2.30902396526e-05 0)
(0.417745493596 1.4055206792e-06 0)
(0.417742221421 -1.0165162096e-05 0)
(0.417756824666 -1.37165730215e-05 0)
(0.417778789038 -1.32699751191e-05 0)
(0.41780308926 -1.08376958853e-05 0)
(0.417826466026 -7.49458542168e-06 0)
(0.417847225996 -3.87818399747e-06 0)
(0.417864770471 -3.58560707219e-07 0)
(0.417879103332 2.86281735665e-06 0)
(0.417890539969 5.68206252177e-06 0)
(0.417899552199 8.03488338217e-06 0)
(0.417906633318 9.83674830717e-06 0)
(0.417911985237 1.10056135901e-05 0)
(0.417915841953 1.18581751934e-05 0)
(0.41791858122 1.26802503907e-05 0)
(0.417920478049 1.34372291818e-05 0)
(0.417921774801 1.41112614625e-05 0)
(0.417922662822 1.47265779047e-05 0)
(0.417923268348 1.53121347314e-05 0)
(0.417923663018 1.58815062257e-05 0)
(0.41792389958 1.64350878868e-05 0)
(0.41792402144 1.69779770569e-05 0)
(0.417924059293 1.75138594575e-05 0)
(0.417924035581 1.80461131498e-05 0)
(0.417923966429 1.85778717899e-05 0)
(0.417923863864 1.91114794273e-05 0)
(0.417923738171 1.96489187313e-05 0)
(0.417923599632 2.01921568637e-05 0)
(0.41792345971 2.07433066498e-05 0)
(0.41792333167 2.13042079131e-05 0)
(0.417923233248 2.18748810472e-05 0)
(0.417923189163 2.24554508873e-05 0)
(0.417923232938 2.30459050252e-05 0)
(0.417923410678 2.3645811293e-05 0)
(0.417923787202 2.42542515694e-05 0)
(0.417924455292 2.48701880142e-05 0)
(0.417925545499 2.54923923442e-05 0)
(0.417927249694 2.61086297424e-05 0)
(0.417929845369 2.67010790247e-05 0)
(0.417933721437 2.72394858409e-05 0)
(0.417939474646 2.76767388782e-05 0)
(0.417948201707 2.79576469599e-05 0)
(0.417961395064 2.82423492392e-05 0)
(0.417981188103 2.78023092978e-05 0)
(0.418010352827 2.52233049832e-05 0)
(0.418052494667 1.9415650651e-05 0)
(0.418113788928 9.57450006005e-06 0)
(0.418204353557 -5.83071072054e-06 0)
(0.418339792461 -2.93241042846e-05 0)
(0.418545005217 -6.45886811378e-05 0)
(0.418861900419 -0.000115822601674 0)
(0.419360110835 -0.000188005877625 0)
(0.420153161977 -0.000307835542151 0)
(0.421444813615 -0.000532924003082 0)
(0.423626932359 -0.00100017564703 0)
(0.427418670173 -0.00209150589689 0)
(0.434243160542 -0.00485911803244 0)
(0.448277583132 -0.012261439073 0)
(0.474674873961 -0.0342629837542 0)
(0.478234020803 -0.0988368463791 0)
(1.02222096823 0.238416185799 0)
(1.08213753971 0.295926651515 0)
(1.03447724439 0.23950306528 0)
(0.95461543457 0.17429016323 0)
(0.879992088262 0.121345467109 0)
(0.818614475276 0.0830993828005 0)
(0.771410897229 0.0567316658146 0)
(0.736634444358 0.0387409672497 0)
(0.711624493432 0.0264327857493 0)
(0.693916688976 0.0179731034448 0)
(0.681541486711 0.0121424466795 0)
(0.673000201732 0.00812490690152 0)
(0.667180744009 0.00536631971401 0)
(0.663271781177 0.00348444339196 0)
(0.660688616845 0.00221256011312 0)
(0.659014299117 0.00136338037323 0)
(0.657954624458 0.000805242298858 0)
(0.657304337462 0.000445915088435 0)
(0.656921924582 0.000221066936446 0)
(0.656710364445 8.55793670301e-05 0)
(0.656603505182 8.35595102639e-06 0)
(0.656561960989 -3.37216935976e-05 0)
(0.656558064963 -5.685615294e-05 0)
(0.656571544705 -6.6875212089e-05 0)
(0.656593078181 -6.84825899342e-05 0)
(0.656616901855 -6.55611253062e-05 0)
(0.656639708463 -6.05501256681e-05 0)
(0.656659891177 -5.48602432744e-05 0)
(0.656676864777 -4.92759501071e-05 0)
(0.656690607141 -4.42042310896e-05 0)
(0.65670136463 -3.98399609028e-05 0)
(0.656709521503 -3.63017061552e-05 0)
(0.656715773771 -3.36953013985e-05 0)
(0.656720811711 -3.18563672161e-05 0)
(0.656724678605 -3.08097585497e-05 0)
(0.656727389584 -3.03026249682e-05 0)
(0.65672925663 -3.02471017055e-05 0)
(0.656730559212 -3.0557934351e-05 0)
(0.656731464691 -3.10853816036e-05 0)
(0.656732062981 -3.17470875042e-05 0)
(0.656732428416 -3.25135056525e-05 0)
(0.656732626293 -3.3349533299e-05 0)
(0.656732701778 -3.42306479281e-05 0)
(0.656732688828 -3.5137568361e-05 0)
(0.656732611966 -3.60548803817e-05 0)
(0.656732489544 -3.69718228525e-05 0)
(0.656732337488 -3.78808467426e-05 0)
(0.656732171582 -3.87764166435e-05 0)
(0.656732008557 -3.96537262307e-05 0)
(0.6567318662 -4.05074804914e-05 0)
(0.656731768765 -4.13340588751e-05 0)
(0.656731751643 -4.21294541801e-05 0)
(0.656731863352 -4.28918991389e-05 0)
(0.656732171469 -4.36242288216e-05 0)
(0.656732772159 -4.43392002435e-05 0)
(0.656733803103 -4.50676694202e-05 0)
(0.656735451073 -4.58625219812e-05 0)
(0.656737990077 -4.6819369199e-05 0)
(0.656741828495 -4.80644319109e-05 0)
(0.65674756443 -4.98123365201e-05 0)
(0.656756120153 -5.2564178196e-05 0)
(0.656769142255 -5.73545610026e-05 0)
(0.656787971769 -6.49613587868e-05 0)
(0.656814044133 -7.62646899768e-05 0)
(0.656851169736 -9.29478990505e-05 0)
(0.656906056051 -0.000117418601867 0)
(0.656988095495 -0.000152877115704 0)
(0.657111079128 -0.000204610998502 0)
(0.65729682456 -0.000281145208103 0)
(0.657580735574 -0.000396364915337 0)
(0.658020966735 -0.000574638004654 0)
(0.658706766448 -0.000863261747281 0)
(0.659785283398 -0.0013523770256 0)
(0.661514237772 -0.00221522459051 0)
(0.664336144802 -0.00381459854527 0)
(0.668947414212 -0.00694985467084 0)
(0.676375125558 -0.0133609530412 0)
(0.688629210595 -0.0268621360092 0)
(0.705272062017 -0.0563617813145 0)
(0.700552599194 -0.113181399743 0)
(1.02251475732 0.170807151478 0)
(1.10138976703 0.276496477589 0)
(1.11752427871 0.266664798207 0)
(1.09214663024 0.219901697852 0)
(1.05187818751 0.168168846384 0)
(1.01020826204 0.123567395331 0)
(0.973494734035 0.0888375201387 0)
(0.943864604486 0.0630063701119 0)
(0.921142853129 0.0442232026617 0)
(0.90428413134 0.0307423913288 0)
(0.892074932674 0.0211562927284 0)
(0.883404580056 0.0143954671685 0)
(0.877352745855 0.00966794688314 0)
(0.873197788965 0.00639383589662 0)
(0.870393018303 0.0041511635176 0)
(0.868534135551 0.00263448951242 0)
(0.867327744503 0.00162401581017 0)
(0.866564346939 0.000962674208183 0)
(0.866096594878 0.000539120398777 0)
(0.865822357802 0.000275151388375 0)
(0.86567151907 0.000117066116527 0)
(0.865595273499 2.87902698306e-05 0)
(0.865564220503 -1.93267626951e-05 0)
(0.865561417441 -4.12630198112e-05 0)
(0.865572766413 -4.7667023321e-05 0)
(0.865589777956 -4.55262867234e-05 0)
(0.865608093118 -3.91566339795e-05 0)
(0.865625437965 -3.11455634918e-05 0)
(0.86564072867 -2.29641874621e-05 0)
(0.865653598208 -1.53801459769e-05 0)
(0.865664078102 -8.72217718668e-06 0)
(0.865672371811 -3.04292371228e-06 0)
(0.865678731687 1.73596073681e-06 0)
(0.865683365336 5.46739336562e-06 0)
(0.865686690748 8.03448508348e-06 0)
(0.865689095074 9.79156224563e-06 0)
(0.865690733099 1.11453294335e-05 0)
(0.865691901218 1.22903005259e-05 0)
(0.865692774994 1.32592829568e-05 0)
(0.865693372948 1.41458252459e-05 0)
(0.865693743273 1.49411204078e-05 0)
(0.865693950381 1.56678405964e-05 0)
(0.865694033114 1.63415703414e-05 0)
(0.865694022881 1.69788253026e-05 0)
(0.865693941778 1.75942821552e-05 0)
(0.865693805863 1.81982300251e-05 0)
(0.865693630056 1.87984002876e-05 0)
(0.865693430822 1.94016123549e-05 0)
(0.865693228334 2.00167156888e-05 0)
(0.865693045223 2.06502168044e-05 0)
(0.865692911614 2.12883639453e-05 0)
(0.86569286882 2.19188812699e-05 0)
(0.865692970085 2.25253250479e-05 0)
(0.86569328532 2.3081640649e-05 0)
(0.865693907251 2.35498854665e-05 0)
(0.865694968899 2.3889743011e-05 0)
(0.865696652172 2.40743909534e-05 0)
(0.8656992428 2.39818285476e-05 0)
(0.865703148719 2.34590204128e-05 0)
(0.865708793694 2.21026230369e-05 0)
(0.8657166064 1.93330452468e-05 0)
(0.865728220044 1.44875129684e-05 0)
(0.865746241657 5.72340602061e-06 0)
(0.865773620721 -8.58151547365e-06 0)
(0.865814237331 -3.04225199811e-05 0)
(0.865874002431 -6.37412883373e-05 0)
(0.865962246747 -0.000115415172162 0)
(0.866093477236 -0.000196211372375 0)
(0.866290241931 -0.000323399239785 0)
(0.866587365351 -0.000525471720194 0)
(0.867038470345 -0.00085140845671 0)
(0.867728664183 -0.00138820278988 0)
(0.868794377066 -0.00228473826315 0)
(0.870449019333 -0.00381581426464 0)
(0.873011767599 -0.00650609755782 0)
(0.876882018628 -0.0113658442887 0)
(0.882383074624 -0.0202658740178 0)
(0.889699242574 -0.0364804352867 0)
(0.896386499038 -0.0655484653186 0)
(0.886572676625 -0.110155461839 0)
(1.01287875345 0.118961022831 0)
(1.08820671655 0.231806936403 0)
(1.13741368683 0.253106764197 0)
(1.15409088926 0.228992753168 0)
(1.14994213673 0.188368358516 0)
(1.1353846881 0.146579843646 0)
(1.11758898684 0.110150965275 0)
(1.10059504623 0.0808162215754 0)
(1.08612462088 0.0582265757518 0)
(1.07459097977 0.0413189842418 0)
(1.06579152769 0.0289160193901 0)
(1.05928805579 0.0199600990985 0)
(1.05459983657 0.0135815592007 0)
(1.05129084439 0.00909744225173 0)
(1.04899993254 0.00598615304277 0)
(1.04744349528 0.00385696550506 0)
(1.04640662764 0.00242159701126 0)
(1.04573071796 0.00147014917927 0)
(1.04530116792 0.000851700960477 0)
(1.04503667586 0.000459015348535 0)
(1.04488031822 0.000216755891689 0)
(1.04479270685 7.30168923359e-05 0)
(1.0447488467 -5.50479476618e-06 0)
(1.04473195244 -4.40089089384e-05 0)
(1.04472970698 -5.93859027009e-05 0)
(1.04473519631 -6.17193803612e-05 0)
(1.04474414969 -5.7245600694e-05 0)
(1.0447540392 -4.98035007827e-05 0)
(1.04476348523 -4.16441589727e-05 0)
(1.04477181762 -3.39885446667e-05 0)
(1.04477878592 -2.74230075327e-05 0)
(1.04478437748 -2.21509883207e-05 0)
(1.04478873837 -1.81275053043e-05 0)
(1.04479207962 -1.51386653239e-05 0)
(1.04479465605 -1.28071032191e-05 0)
(1.04479676124 -1.10105208717e-05 0)
(1.04479850636 -9.52120636974e-06 0)
(1.04479983681 -8.23133810209e-06 0)
(1.04480082273 -7.21233446374e-06 0)
(1.04480151507 -6.54359369448e-06 0)
(1.04480193559 -6.1640890892e-06 0)
(1.04480217112 -5.95538959221e-06 0)
(1.04480226726 -5.86703172444e-06 0)
(1.0448022624 -5.84911043066e-06 0)
(1.04480218121 -5.86139068716e-06 0)
(1.0448020414 -5.88415033927e-06 0)
(1.04480186077 -5.9078942782e-06 0)
(1.04480166088 -5.92910971149e-06 0)
(1.04480146376 -5.95304222244e-06 0)
(1.04480127539 -5.98776571519e-06 0)
(1.04480111375 -6.01760703007e-06 0)
(1.04480102332 -6.04117031243e-06 0)
(1.04480105754 -6.06491574483e-06 0)
(1.04480128925 -6.10330637255e-06 0)
(1.04480183528 -6.19155214543e-06 0)
(1.04480288932 -6.43280997603e-06 0)
(1.04480463744 -7.09586005902e-06 0)
(1.04480735112 -8.45818807827e-06 0)
(1.04481135184 -1.10049762033e-05 0)
(1.04481710438 -1.48216468522e-05 0)
(1.04482563519 -1.97725763451e-05 0)
(1.04483809262 -2.59675822592e-05 0)
(1.04485573264 -3.57167683908e-05 0)
(1.04488086734 -5.19963358007e-05 0)
(1.04491696499 -7.90311492834e-05 0)
(1.04496916991 -0.00012307170131 0)
(1.04504507966 -0.000193893267041 0)
(1.04515603518 -0.000307080676932 0)
(1.0453191752 -0.000487811536172 0)
(1.04556035895 -0.000777135634686 0)
(1.04591827354 -0.00124242097795 0)
(1.04645079402 -0.00199538852712 0)
(1.04724207633 -0.00322673565457 0)
(1.04840515683 -0.00526753296728 0)
(1.05006751769 -0.00869515853303 0)
(1.05228609646 -0.014504346195 0)
(1.05481727573 -0.0243039751311 0)
(1.05687180302 -0.0404073494897 0)
(1.05574360576 -0.0656596524725 0)
(1.04213238423 -0.0995730053396 0)
(1.00447483687 0.0814039972689 0)
(1.0691723813 0.181288538809 0)
(1.13080570164 0.216950418629 0)
(1.17375002502 0.210789155369 0)
(1.19865267946 0.183690076615 0)
(1.21019991402 0.149751682962 0)
(1.21350259777 0.116779143587 0)
(1.21251728691 0.088220677166 0)
(1.20973103545 0.0650481500004 0)
(1.20651125466 0.0470209077782 0)
(1.20351919757 0.0334068072707 0)
(1.20101152253 0.0233557311972 0)
(1.19903452807 0.0160720124722 0)
(1.19753886245 0.0108795123794 0)
(1.19644140359 0.00723418679044 0)
(1.19565568039 0.00471351731243 0)
(1.19510499004 0.00299762804806 0)
(1.1947265824 0.00184915996469 0)
(1.1944716066 0.00109495968916 0)
(1.19430330132 0.000610610787693 0)
(1.19419466686 0.00030798615599 0)
(1.19412638686 0.000125768296206 0)
(1.19408534154 2.22231423912e-05 0)
(1.19406208701 -3.245175505e-05 0)
(1.19404979081 -5.72702190172e-05 0)
(1.19404429609 -6.45957445769e-05 0)
(1.19404280214 -6.23736704761e-05 0)
(1.19404349053 -5.55188922243e-05 0)
(1.19404524566 -4.69417600049e-05 0)
(1.19404740931 -3.82557217465e-05 0)
(1.19404960907 -3.02618411703e-05 0)
(1.19405165288 -2.32650745679e-05 0)
(1.19405347165 -1.72889623113e-05 0)
(1.19405505976 -1.2259963096e-05 0)
(1.19405643344 -8.07161205408e-06 0)
(1.19405761188 -4.66992621213e-06 0)
(1.19405856743 -2.05883269023e-06 0)
(1.19405924667 -1.6943337761e-07 0)
(1.19405960921 1.14788560645e-06 0)
(1.19405973105 2.00411281903e-06 0)
(1.19405979324 2.68291604633e-06 0)
(1.19405983185 3.28630877265e-06 0)
(1.1940598211 3.81411768682e-06 0)
(1.1940597777 4.27519612868e-06 0)
(1.19405969665 4.68154774582e-06 0)
(1.19405956867 5.05001461001e-06 0)
(1.19405939604 5.3924812634e-06 0)
(1.1940591847 5.71140354365e-06 0)
(1.19405894753 5.99663579094e-06 0)
(1.19405872666 6.23747997115e-06 0)
(1.19405856465 6.45668830415e-06 0)
(1.19405849135 6.64656593417e-06 0)
(1.19405855611 6.78063129779e-06 0)
(1.19405881877 6.81836632117e-06 0)
(1.19405932007 6.70165948455e-06 0)
(1.19406003236 6.34397643632e-06 0)
(1.1940610325 5.58132523991e-06 0)
(1.19406248169 4.06026671375e-06 0)
(1.1940650151 1.33066994633e-06 0)
(1.1940696735 -2.87544082069e-06 0)
(1.19407704262 -9.33041358909e-06 0)
(1.19408703743 -1.94354895588e-05 0)
(1.19410039276 -3.51916355756e-05 0)
(1.19411909746 -5.95122477448e-05 0)
(1.19414527885 -9.69797762108e-05 0)
(1.19418175109 -0.000154910411003 0)
(1.19423249685 -0.000244954999069 0)
(1.19430313987 -0.000385600151294 0)
(1.19440155142 -0.000606320178754 0)
(1.19453849402 -0.000954483980965 0)
(1.19472800716 -0.00150667088151 0)
(1.19498685618 -0.00238725718829 0)
(1.19532984008 -0.00379966366036 0)
(1.19575421287 -0.00607717178489 0)
(1.1961996475 -0.00975923621855 0)
(1.19644638879 -0.0156907376213 0)
(1.19590747077 -0.0250844133758 0)
(1.19342784797 -0.0393989754953 0)
(1.18667089724 -0.0598821627872 0)
(1.17011420669 -0.085230397877 0)
(0.998962327761 0.0544316253562 0)
(1.05310957619 0.133401607859 0)
(1.11628269655 0.170777558427 0)
(1.17301274015 0.175143872151 0)
(1.21791248951 0.159583606366 0)
(1.25049861233 0.134951020048 0)
(1.27288495103 0.108411656707 0)
(1.28776726698 0.0838849716113 0)
(1.29745273167 0.0630565720555 0)
(1.30366080821 0.0462999210228 0)
(1.30759240751 0.033320514431 0)
(1.31005377173 0.0235495236338 0)
(1.31157370222 0.0163599073875 0)
(1.31249501159 0.0111713147656 0)
(1.31303871132 0.0074915062893 0)
(1.31334680968 0.00492448539533 0)
(1.31351023036 0.00316295454166 0)
(1.31358686703 0.00197475093229 0)
(1.31361325009 0.00118819569723 0)
(1.31361210732 0.000678627875201 0)
(1.31359727647 0.000357006926758 0)
(1.31357696216 0.000160752620836 0)
(1.31355597468 4.64679631022e-05 0)
(1.31353668615 -1.58703101762e-05 0)
(1.31352003519 -4.60585246078e-05 0)
(1.31350635357 -5.70682451841e-05 0)
(1.31349545637 -5.73226608865e-05 0)
(1.31348700649 -5.20838892344e-05 0)
(1.31348061576 -4.45212710374e-05 0)
(1.31347589898 -3.64592276571e-05 0)
(1.31347250509 -2.88708234285e-05 0)
(1.31347013103 -2.22095345933e-05 0)
(1.31346851725 -1.66267976265e-05 0)
(1.31346743548 -1.21300948423e-05 0)
(1.31346672028 -8.65366136818e-06 0)
(1.31346627424 -6.09596422587e-06 0)
(1.31346599613 -4.31982590593e-06 0)
(1.31346579657 -3.11768380598e-06 0)
(1.31346567321 -2.25991114201e-06 0)
(1.31346571174 -1.54234207522e-06 0)
(1.3134658741 -9.66173199494e-07 0)
(1.31346598209 -5.5257984709e-07 0)
(1.31346598472 -1.91858663566e-07 0)
(1.31346591413 1.45113027209e-07 0)
(1.31346579184 4.56547359206e-07 0)
(1.31346563003 7.51219148326e-07 0)
(1.31346543184 1.04123793614e-06 0)
(1.31346519952 1.33769081835e-06 0)
(1.31346494433 1.65226059962e-06 0)
(1.31346469973 1.98356606496e-06 0)
(1.31346448662 2.28256458371e-06 0)
(1.3134643124 2.51210897236e-06 0)
(1.3134642076 2.6282367457e-06 0)
(1.31346422443 2.56707159376e-06 0)
(1.31346444932 2.24135301728e-06 0)
(1.31346500116 1.55862924358e-06 0)
(1.31346586852 4.71790678951e-07 0)
(1.31346710767 -1.21470097137e-06 0)
(1.31346914575 -3.689610453e-06 0)
(1.3134722268 -7.68041951188e-06 0)
(1.31347653208 -1.44834713191e-05 0)
(1.31348229537 -2.56847411388e-05 0)
(1.31348978516 -4.28694831507e-05 0)
(1.31349948476 -6.92041173449e-05 0)
(1.31351170896 -0.000109716239876 0)
(1.31352653213 -0.000172150986008 0)
(1.31354356514 -0.00026859522568 0)
(1.3135614871 -0.000418006174543 0)
(1.31357708831 -0.000650209177708 0)
(1.31358343492 -0.00101245558458 0)
(1.313566458 -0.00157981179323 0)
(1.31349868792 -0.00247138231703 0)
(1.31332582258 -0.0038745763252 0)
(1.31294020045 -0.00608205088626 0)
(1.31213168946 -0.00953878972148 0)
(1.31049469046 -0.0148871702423 0)
(1.30727538548 -0.0229568465582 0)
(1.30126324592 -0.0345904038391 0)
(1.29058868755 -0.0502284898701 0)
(1.27177611385 -0.0686487486126 0)
(0.995736076286 0.0346338601408 0)
(1.04179515229 0.0905689215438 0)
(1.10222840359 0.121549565356 0)
(1.16491414057 0.129605834444 0)
(1.22202569508 0.122009268788 0)
(1.26951895953 0.106019938728 0)
(1.30680228438 0.0870975563642 0)
(1.33499540749 0.0686366814616 0)
(1.35574483605 0.0523698394064 0)
(1.3706962367 0.0389256182744 0)
(1.38128283196 0.0282980736175 0)
(1.3886627611 0.0201712772885 0)
(1.39373042453 0.0141175104245 0)
(1.39715670556 0.00970533594711 0)
(1.39943445395 0.00655059511531 0)
(1.40091978257 0.00433445440368 0)
(1.40186633556 0.00280414454006 0)
(1.40245236278 0.0017657426072 0)
(1.40280146711 0.00107419451687 0)
(1.4029981707 0.000623234351404 0)
(1.40309939875 0.000336408539577 0)
(1.40314285896 0.000159622538016 0)
(1.40315312647 5.51637807967e-05 0)
(1.40314564461 -2.9982406657e-06 0)
(1.40312989241 -3.21223470864e-05 0)
(1.40311149774 -4.38895380371e-05 0)
(1.40309346767 -4.57594361339e-05 0)
(1.40307732677 -4.24171691282e-05 0)
(1.40306367662 -3.67262127102e-05 0)
(1.40305259089 -3.03633328453e-05 0)
(1.40304386783 -2.42431739216e-05 0)
(1.40303718205 -1.8812838667e-05 0)
(1.40303217229 -1.42407722017e-05 0)
(1.4030284886 -1.05290816778e-05 0)
(1.40302583306 -7.57711243265e-06 0)
(1.40302397344 -5.26002927088e-06 0)
(1.40302273322 -3.45500245293e-06 0)
(1.40302196176 -2.01834983063e-06 0)
(1.40302149346 -8.45486800791e-07 0)
(1.40302113317 8.69220070993e-08 0)
(1.40302081357 7.96658907369e-07 0)
(1.40302061712 1.28666324427e-06 0)
(1.40302053047 1.65916588411e-06 0)
(1.40302046116 1.9798516665e-06 0)
(1.40302037474 2.28612532394e-06 0)
(1.40302026417 2.59610104971e-06 0)
(1.40302012787 2.91918750628e-06 0)
(1.40301996776 3.26016424146e-06 0)
(1.40301978452 3.62009934747e-06 0)
(1.40301957081 3.98806719096e-06 0)
(1.40301933885 4.32303933306e-06 0)
(1.40301912222 4.59406145378e-06 0)
(1.40301894878 4.76306520781e-06 0)
(1.40301884412 4.77280109248e-06 0)
(1.40301882714 4.53550034732e-06 0)
(1.40301890226 3.90856264784e-06 0)
(1.40301906052 2.68759709971e-06 0)
(1.40301933913 7.52239185936e-07 0)
(1.4030199403 -2.26911597696e-06 0)
(1.40302100529 -7.19523993063e-06 0)
(1.40302243819 -1.48124657498e-05 0)
(1.40302390471 -2.64368331487e-05 0)
(1.40302491571 -4.39135584217e-05 0)
(1.40302472158 -7.02210875226e-05 0)
(1.40302182755 -0.000109945023548 0)
(1.40301348291 -0.000170110142234 0)
(1.40299487223 -0.000261595867015 0)
(1.40295779889 -0.000401266252075 0)
(1.40288829091 -0.000615179108447 0)
(1.40276257901 -0.000943970112219 0)
(1.40254060949 -0.0014510374364 0)
(1.40215596007 -0.00223481456552 0)
(1.40149690445 -0.0034444959991 0)
(1.40037487632 -0.00530407360431 0)
(1.39847624964 -0.00813678378026 0)
(1.39528729679 -0.0123781363074 0)
(1.38999397555 -0.0185402274942 0)
(1.38144655421 -0.0270625220872 0)
(1.36814635395 -0.03802921314 0)
(1.34769698754 -0.0505510565984 0)
(0.994011533484 0.0192358066324 0)
(1.03484764427 0.0523338406048 0)
(1.09199264287 0.0723631276535 0)
(1.15662422299 0.0791292322039 0)
(1.220321194 0.076104546574 0)
(1.27701949092 0.0673339717681 0)
(1.32424423493 0.0561509039191 0)
(1.36181578962 0.0447990115303 0)
(1.39068536923 0.0345303782509 0)
(1.4122608188 0.0258814332136 0)
(1.42801829747 0.0189465247884 0)
(1.43929892336 0.0135849828608 0)
(1.44722816324 0.00955653497574 0)
(1.45270422562 0.00660011599732 0)
(1.45641905746 0.00447419071121 0)
(1.45889155028 0.00297351382433 0)
(1.46050242243 0.00193276897847 0)
(1.46152582683 0.00122369407269 0)
(1.46215585021 0.000749550855936 0)
(1.46252768257 0.000439018117637 0)
(1.46273396721 0.000240521612879 0)
(1.46283711742 0.000117412551327 0)
(1.4628784273 4.40502271387e-05 0)
(1.46288467357 2.69193405904e-06 0)
(1.46287255625 -1.84430628728e-05 0)
(1.46285221201 -2.74367315819e-05 0)
(1.46282966786 -2.94364207142e-05 0)
(1.46280813668 -2.76862500178e-05 0)
(1.46278914631 -2.41840964068e-05 0)
(1.46277324113 -2.01111604569e-05 0)
(1.46276041235 -1.6116108888e-05 0)
(1.46275036566 -1.25217104725e-05 0)
(1.46274269039 -9.45457864672e-06 0)
(1.46273695433 -6.92556877312e-06 0)
(1.46273275879 -4.88092986373e-06 0)
(1.46272976146 -3.25131176001e-06 0)
(1.46272767398 -1.97366132321e-06 0)
(1.46272623933 -1.00689742813e-06 0)
(1.46272524613 -3.05884631729e-07 0)
(1.46272462957 2.17002625953e-07 0)
(1.46272427597 6.99947919954e-07 0)
(1.46272403625 1.17765398352e-06 0)
(1.46272387801 1.60395988041e-06 0)
(1.4627237617 1.98599435259e-06 0)
(1.46272365779 2.34504564021e-06 0)
(1.46272354714 2.69457599054e-06 0)
(1.46272341616 3.0400928346e-06 0)
(1.46272325621 3.37972381718e-06 0)
(1.46272306277 3.70412284185e-06 0)
(1.46272283324 4.00145158205e-06 0)
(1.46272257072 4.26408373817e-06 0)
(1.46272228282 4.46049988977e-06 0)
(1.46272197631 4.54001543837e-06 0)
(1.46272166039 4.43297580714e-06 0)
(1.46272134921 4.04854524907e-06 0)
(1.46272106336 3.27531350297e-06 0)
(1.46272079726 1.99238686111e-06 0)
(1.46272044857 1.03874433088e-07 0)
(1.46271984802 -2.67576513757e-06 0)
(1.46271887091 -7.16475858668e-06 0)
(1.46271726048 -1.41578288197e-05 0)
(1.46271433737 -2.47500228171e-05 0)
(1.46270897408 -4.04800058594e-05 0)
(1.4626993566 -6.37232766908e-05 0)
(1.46268241763 -9.80752723413e-05 0)
(1.46265300044 -0.000148917153948 0)
(1.4626025885 -0.000224442014627 0)
(1.46251741579 -0.000337093504696 0)
(1.46237496814 -0.000505460245098 0)
(1.46213831287 -0.00075798366189 0)
(1.4617474795 -0.00113852859266 0)
(1.4611077696 -0.00171459305073 0)
(1.46006778245 -0.00258203153631 0)
(1.4583862138 -0.00388058701171 0)
(1.45568864259 -0.00580291020283 0)
(1.45140885121 -0.00859255349891 0)
(1.44472515977 -0.0125103599997 0)
(1.43456648228 -0.0177378000853 0)
(1.41967024098 -0.0242245275162 0)
(1.39818579708 -0.0314262484074 0)
(0.993269669455 0.00617015082123 0)
(1.03158100828 0.0171020462299 0)
(1.08672183393 0.0239906488644 0)
(1.15174556752 0.0265606661729 0)
(1.21823539318 0.0258180593856 0)
(1.27925777911 0.023048886858 0)
(1.33140140476 0.0193656323726 0)
(1.37377603993 0.0155468590404 0)
(1.40691059415 0.0120449314363 0)
(1.43203320192 0.00906640105388 0)
(1.45060222373 0.00666059612556 0)
(1.46402993933 0.00479009287438 0)
(1.47355024857 0.00337842976756 0)
(1.48017572866 0.00233873967607 0)
(1.48470238983 0.00158891561939 0)
(1.48773631426 0.00105829071925 0)
(1.48972746026 0.000689464654939 0)
(1.49100289881 0.000437640353775 0)
(1.49179598752 0.000268887758339 0)
(1.49227036686 0.000158113208897 0)
(1.49253886756 8.71268851171e-05 0)
(1.49267795278 4.29772791013e-05 0)
(1.49273849493 1.6587487381e-05 0)
(1.49275367735 1.66706768057e-06 0)
(1.49274444871 -6.06547728176e-06 0)
(1.49272366868 -9.41048670602e-06 0)
(1.49269903243 -1.02164028966e-05 0)
(1.49267476795 -9.65285451029e-06 0)
(1.49265297273 -8.43864781528e-06 0)
(1.49263448822 -6.99175918753e-06 0)
(1.49261943712 -5.55234850833e-06 0)
(1.49260755726 -4.24048692996e-06 0)
(1.49259841906 -3.10361899964e-06 0)
(1.49259154698 -2.14792066434e-06 0)
(1.49258648703 -1.35722875238e-06 0)
(1.49258283902 -7.09747473912e-07 0)
(1.49258026724 -1.84040656404e-07 0)
(1.49257850184 2.41894853446e-07 0)
(1.49257733667 6.14432148699e-07 0)
(1.49257659419 9.84539945682e-07 0)
(1.49257612095 1.29088109672e-06 0)
(1.49257582484 1.57709387851e-06 0)
(1.49257564826 1.86044602984e-06 0)
(1.49257553854 2.15129221314e-06 0)
(1.4925754564 2.45691960675e-06 0)
(1.49257537542 2.78019947385e-06 0)
(1.49257527703 3.12056940587e-06 0)
(1.49257514782 3.47411986655e-06 0)
(1.49257497771 3.83245258842e-06 0)
(1.49257475812 4.18164992073e-06 0)
(1.49257448332 4.50204431886e-06 0)
(1.49257414938 4.76173570846e-06 0)
(1.49257374983 4.91621870173e-06 0)
(1.49257327331 4.90486222379e-06 0)
(1.49257269912 4.64476420789e-06 0)
(1.49257199896 4.02124134891e-06 0)
(1.49257116104 2.88402865821e-06 0)
(1.49257005651 1.1121200309e-06 0)
(1.49256825737 -1.5027022721e-06 0)
(1.49256545109 -5.52903292987e-06 0)
(1.49256125816 -1.15530205096e-05 0)
(1.49255466264 -2.03357260536e-05 0)
(1.49254404124 -3.29554298697e-05 0)
(1.49252684329 -5.09587703203e-05 0)
(1.49249895364 -7.65353565939e-05 0)
(1.4924536471 -0.000112684749839 0)
(1.49238005051 -0.000163806863073 0)
(1.49226110786 -0.000236332732883 0)
(1.49206937781 -0.000338720894319 0)
(1.49176007973 -0.000483602305022 0)
(1.49126104297 -0.000691475120199 0)
(1.49046345743 -0.000995397784946 0)
(1.48919744007 -0.00142786318227 0)
(1.48719676065 -0.00203656458775 0)
(1.4840624228 -0.00288292916417 0)
(1.47921364158 -0.00403452397419 0)
(1.4718420553 -0.00554578658178 0)
(1.46093182802 -0.00741849758758 0)
(1.44533223828 -0.00955903202947 0)
(1.42342850719 -0.0117193592769 0)
(0.993270467248 -0.00616840133875 0)
(1.03158099086 -0.0171003758815 0)
(1.08672176758 -0.0239897616667 0)
(1.15174560512 -0.0265602468324 0)
(1.21823547095 -0.0258179928761 0)
(1.27925788101 -0.0230491096811 0)