/*--------------------------------*- C++ -*----------------------------------*\
| =========                 |                                                 |
| \\      /  F ield         | OpenFOAM: The Open Source CFD Toolbox           |
|  \\    /   O peration     | Version:  2106                                  |
|   \\  /    A nd           | Website:  www.openfoam.com                      |
|    \\/     M anipulation  |                                                 |
\*---------------------------------------------------------------------------*/
FoamFile
{
    version     2.0;
    format      ascii;
    arch        "LSB;label=32;scalar=64";
    class       surfaceScalarField;
    location    "0.255";
    object      phi;
}
// * * * * * * * * * * * * * * * * * * * * * * * * * * * * * * * * * * * * * //

dimensions      [0 3 -1 0 0 0 0];

oriented        oriented;

internalField   nonuniform List<scalar> 
22100
(
3.38461203644e-05
1.61538796294e-05
2.2457209946e-05
1.13889104164e-05
1.62585531086e-05
6.19865684574e-06
1.27977761588e-05
3.46077694994e-06
1.08046423146e-05
1.99313384629e-06
9.60458931801e-06
1.20005299648e-06
8.85132159263e-06
7.53267729551e-07
8.36435281037e-06
4.86968782132e-07
8.04433496103e-06
3.20017847892e-07
7.83284019666e-06
2.1149476288e-07
7.69339705691e-06
1.39443134595e-07
7.60224018366e-06
9.11568643921e-08
7.54347740319e-06
5.87627699874e-08
7.50634047513e-06
3.71369160463e-08
7.48350093672e-06
2.28395238828e-08
7.46998006917e-06
1.35208508042e-08
7.46241538982e-06
7.5646620366e-09
7.45854729334e-06
3.86807946386e-09
7.45682824131e-06
1.71903563503e-09
7.45642153188e-06
4.06694382513e-10
7.45677127105e-06
-3.4975383283e-10
7.45745737381e-06
-6.86116640429e-10
7.4582156474e-06
-7.58285958701e-10
7.4589408913e-06
-7.25254902933e-10
7.45958515347e-06
-6.44271378002e-10
7.46012905475e-06
-5.43908183082e-10
7.46057115333e-06
-4.42102729476e-10
7.46091990659e-06
-3.48753948171e-10
7.46118822293e-06
-2.68313187804e-10
7.46139018921e-06
-2.01959558411e-10
7.46153917979e-06
-1.48981604985e-10
7.46164689516e-06
-1.07705343559e-10
7.46172306508e-06
-7.61611005282e-11
7.46177581945e-06
-5.2748070359e-11
7.46180911113e-06
-3.32878505532e-11
7.46182793072e-06
-1.88177849049e-11
7.46183704421e-06
-9.11300340019e-12
7.46183988824e-06
-2.84481616991e-12
7.46183840659e-06
1.4793532132e-12
7.46183373788e-06
4.66522653485e-12
7.46182681685e-06
6.91666620583e-12
7.46181824894e-06
8.56351085889e-12
7.46180840181e-06
9.84322191291e-12
7.46179744673e-06
1.09511891053e-11
7.46178538629e-06
1.20559172026e-11
7.46177209691e-06
1.32840156202e-11
7.46175735215e-06
1.47383215247e-11
7.46174082816e-06
1.65149459968e-11
7.46172209491e-06
1.87198252342e-11
7.46170061077e-06
2.14631616239e-11
7.46167576158e-06
2.48157295123e-11
7.46164684229e-06
2.88671330071e-11
7.46161305831e-06
3.37078797496e-11
7.46157354793e-06
3.94068607942e-11
7.46152743363e-06
4.59822573636e-11
7.4614738949e-06
5.33800524693e-11
7.46141222868e-06
6.14852513712e-11
7.46134229912e-06
6.97325360058e-11
7.46126481022e-06
7.72830357791e-11
7.461182178e-06
8.24246476156e-11
7.46110059147e-06
8.13853795478e-11
7.46103233531e-06
6.80706983859e-11
7.46098521965e-06
4.69563131894e-11
7.46097829124e-06
6.80707180585e-12
7.46104743794e-06
-6.92168603862e-11
7.461250875e-06
-2.0344221563e-10
7.46168305682e-06
-4.32112983465e-10
7.46249403791e-06
-8.10838409409e-10
7.46391913669e-06
-1.42489060851e-09
7.46631403808e-06
-2.3946382123e-09
7.47012870468e-06
-3.81435523605e-09
7.47657373749e-06
-6.4446757341e-09
7.48734326695e-06
-1.0769131859e-08
7.50552112962e-06
-1.81774555633e-08
7.53871857109e-06
-3.31970625097e-08
7.60796665804e-06
-6.92477206704e-08
7.77471873063e-06
-1.66751687203e-07
8.22988891542e-06
-4.55169830005e-07
9.69840100717e-06
-1.46851179606e-06
-5.4552352205e-06
1.5153636463e-05
5.02175949279e-05
1.59362847153e-05
4.42441117896e-05
1.73623935456e-05
3.77795017697e-05
1.26632668713e-05
3.26461443749e-05
8.59413434723e-06
2.89380923366e-05
5.70118589086e-06
2.63596220029e-05
3.7785233284e-06
2.45875176592e-05
2.52537207372e-06
2.33734756679e-05
1.70101077152e-06
2.25435266891e-05
1.14996681996e-06
2.19782180807e-05
7.76803360204e-07
2.1595515635e-05
5.22145564824e-07
2.13387391564e-05
3.47933322982e-07
2.11684977224e-05
2.29004180076e-07
2.10573402017e-05
1.48294409079e-07
2.09861523774e-05
9.402731761e-08
2.09416800912e-05
5.79931056205e-08
2.09147983722e-05
3.44463498617e-08
2.08992993695e-05
1.93670518175e-08
2.08910756959e-05
9.94268100515e-09
2.08872755084e-05
4.20685470051e-09
2.08862065825e-05
7.19146816995e-10
2.08864523456e-05
-9.31902193672e-10
2.08873238172e-05
-1.62977752907e-09
2.08884633473e-05
-1.86480104207e-09
2.08896367054e-05
-1.81764069858e-09
2.08907197275e-05
-1.62693621468e-09
2.08916573578e-05
-1.37973316958e-09
2.08924349252e-05
-1.12631525892e-09
2.08930601952e-05
-8.93571690538e-10
2.08935523837e-05
-6.94132735557e-10
2.08939362648e-05
-5.32846419868e-10
2.08942378482e-05
-4.09274463808e-10
2.08944488625e-05
-2.87165037161e-10
2.08945959596e-05
-1.99839102694e-10
2.08946963622e-05
-1.33687797125e-10
2.08947617691e-05
-8.42244126166e-11
2.08948023484e-05
-4.969391341e-11
2.08948262701e-05
-2.67705059206e-11
2.08948383484e-05
-1.06054660178e-11
2.08948415196e-05
1.4859524984e-12
2.08948381999e-05
1.02283810641e-11
2.08948300522e-05
1.67039198967e-11
2.08948182142e-05
2.16740037054e-11
2.08948033981e-05
2.57592920996e-11
2.0894785971e-05
2.94733734776e-11
2.0894766066e-05
3.31758542551e-11
2.08947436599e-05
3.7125219027e-11
2.08947186219e-05
4.15238235487e-11
2.08946907358e-05
4.6561241871e-11
2.08946597225e-05
5.24080197445e-11
2.08946253501e-05
5.90859830198e-11
2.08945874584e-05
6.66140393781e-11
2.08945460445e-05
7.49292812912e-11
2.08945014016e-05
8.38084298637e-11
2.08944543667e-05
9.27304922678e-11
2.08944067265e-05
1.00695585036e-10
2.08943616952e-05
1.06164492529e-10
2.08943251816e-05
1.05880178815e-10
2.08943066398e-05
9.54586193724e-11
2.08943212208e-05
6.74909787535e-11
2.0894395504e-05
6.78164053857e-12
2.08945786124e-05
-1.15306059514e-10
2.08949387286e-05
-3.1335639653e-10
2.08955940677e-05
-6.48631897766e-10
2.08966543243e-05
-1.12945996434e-09
2.0898294466e-05
-1.84344757942e-09
2.09008725242e-05
-3.00991195483e-09
2.09049365837e-05
-4.87452325266e-09
2.09113561831e-05
-7.84400763673e-09
2.09215557605e-05
-1.25936407613e-08
2.0938026881e-05
-2.02848309841e-08
2.0964918856e-05
-3.33359632634e-08
2.10091757483e-05
-5.50253372977e-08
2.10839810555e-05
-9.29821219527e-08
2.1215281527e-05
-1.64496930131e-07
2.14560280983e-05
-3.09993695105e-07
2.19141728437e-05
-6.24895909497e-07
2.28018498927e-05
-1.34284650162e-06
2.44473164191e-05
-3.11397785297e-06
-7.04431054932e-06
2.60363934055e-05
5.35171053826e-05
1.24191793388e-05
5.29349684273e-05
1.79445304962e-05
4.96538402885e-05
1.59443950172e-05
4.58401816542e-05
1.24077929823e-05
4.24400926706e-05
9.10127487793e-06
3.97291727197e-05
6.48944328082e-06
3.76873062512e-05
4.56723854422e-06
3.61976634289e-05
3.19065359121e-06
3.5132612798e-05
2.2150174449e-06
3.43823677493e-05
1.52704840044e-06
3.38606267695e-05
1.043886532e-06
3.3502346531e-05
7.06213544712e-07
3.32596016332e-05
4.71749057747e-07
3.30975913336e-05
3.10304685359e-07
3.29913352656e-05
2.00283360432e-07
3.29230933937e-05
1.26234951402e-07
3.28804054445e-05
7.71342725247e-08
3.2854620301e-05
4.51521701586e-08
3.28397931852e-05
2.47697724748e-08
3.28318666589e-05
1.21333581778e-08
3.28279971573e-05
4.58862779025e-09
3.28269984903e-05
6.67459960196e-11
3.28271792303e-05
-1.81053377933e-09
3.28280276041e-05
-2.71318774679e-09
3.28291433281e-05
-2.93337377661e-09
3.28302905184e-05
-2.77413085686e-09
3.28313464267e-05
-2.43564077054e-09
3.28322567479e-05
-2.03663050313e-09
3.28330066328e-05
-1.64344658466e-09
3.2833602167e-05
-1.28965385103e-09
3.28340582941e-05
-9.88960175736e-10
3.28343931048e-05
-7.44074288221e-10
3.28346592912e-05
-5.53343902235e-10
3.28348754331e-05
-4.15976382014e-10
3.28350224426e-05
-2.806947281e-10
3.28351214613e-05
-1.83241632718e-10
3.28351871128e-05
-1.15345778694e-10
3.28352288213e-05
-6.84821632061e-11
3.28352534637e-05
-3.52529140667e-11
3.28352650055e-05
-1.00616224497e-11
3.28352670054e-05
8.22294101121e-12
3.28352619578e-05
2.1746750285e-11
3.28352516834e-05
3.19439809519e-11
3.28352374048e-05
4.00330349447e-11
3.28352198714e-05
4.69998537234e-11
3.28351995443e-05
5.34926079262e-11
3.28351767151e-05
5.99388720173e-11
3.28351515742e-05
6.66405990592e-11
3.2835124198e-05
7.3899467995e-11
3.28350945942e-05
8.19527077609e-11
3.28350630571e-05
9.05336645913e-11
3.28350301597e-05
9.93844916133e-11
3.2834996902e-05
1.08017764048e-10
3.28349650223e-05
1.15475792613e-10
3.28349374925e-05
1.20007927903e-10
3.28349190552e-05
1.18846425696e-10
3.28349165026e-05
1.08405661599e-10
3.28349412126e-05
8.08449471568e-11
3.28350104711e-05
2.58743391074e-11
3.28351538192e-05
-7.61687652862e-11
3.28354225643e-05
-2.62246248476e-10
3.28359051365e-05
-5.98116235974e-10
3.28366181365e-05
-1.02653046135e-09
3.28376544155e-05
-1.68500026033e-09
3.28392708824e-05
-2.74591359354e-09
3.28418450069e-05
-4.41745032357e-09
3.28458805407e-05
-7.04522271381e-09
3.28521919299e-05
-1.11855987954e-08
3.28620925294e-05
-1.77442113864e-08
3.28777476695e-05
-2.8248305164e-08
3.29028197934e-05
-4.53563983227e-08
3.29426636868e-05
-7.3179242422e-08
3.3007115525e-05
-1.19476557884e-07
3.31131709921e-05
-1.99036991318e-07
3.32898681568e-05
-3.41193486993e-07
3.35854582285e-05
-6.05583168809e-07
3.40711071571e-05
-1.11054433007e-06
3.4813092969e-05
-2.08483182622e-06
3.56753677961e-05
-3.97625296763e-06
-7.11427812496e-06
3.57453329424e-05
5.35105665001e-05
8.90861284667e-06
5.5574222316e-05
1.58808746763e-05
5.52424826474e-05
1.62761346905e-05
5.35977861413e-05
1.4052489491e-05
5.15418479208e-05
1.11572131017e-05
4.95802801828e-05
8.45101101942e-06
4.79243511877e-05
6.22316754096e-06
4.66181393348e-05
4.49686544148e-06
4.5630466552e-05
3.20269022185e-06
4.49051176228e-05
2.25239732115e-06
4.43840904521e-05
1.56491369022e-06
4.40166943191e-05
1.07360966139e-06
4.37619678411e-05
7.26475516162e-07
4.35882692485e-05
4.84003255538e-07
4.34718699027e-05
3.1668268194e-07
4.3395359846e-05
2.02744982215e-07
4.33461895851e-05
1.26304507963e-07
4.33154519924e-05
7.58897378549e-08
4.3296915647e-05
4.33060940595e-08
4.32862896024e-05
2.27593808251e-08
4.32806867874e-05
1.01914226889e-08
4.32778791461e-05
2.87436960639e-09
4.32770513795e-05
-9.82781653692e-10
4.32772693033e-05
-2.93112275867e-09
4.32779568742e-05
-3.62095217786e-09
4.3278819962e-05
-3.6372218992e-09
4.32796927951e-05
-3.30847269911e-09
4.32804902564e-05
-2.83408614138e-09
4.32811759934e-05
-2.3291743586e-09
4.32817417883e-05
-1.85543780934e-09
4.32821944746e-05
-1.44163565872e-09
4.3282546755e-05
-1.09634595418e-09
4.328280838e-05
-8.14963208302e-10
4.32829836389e-05
-5.9123150102e-10
4.32831165462e-05
-4.13599446157e-10
4.32832018175e-05
-2.68511210633e-10
4.32832557156e-05
-1.69243829772e-10
4.32832954351e-05
-1.08203846785e-10
4.32833197725e-05
-5.95943928639e-11
4.32833317261e-05
-2.2020134946e-11
4.32833347136e-05
5.23156295594e-12
4.32833306926e-05
2.57654016534e-11
4.32833213667e-05
4.12682388494e-11
4.32833078914e-05
5.35054640197e-11
4.3283290913e-05
6.39726040119e-11
4.32832708615e-05
7.35340353064e-11
4.32832480671e-05
8.27174754391e-11
4.3283222812e-05
9.18719235137e-11
4.32831954521e-05
1.01221776253e-10
4.32831665425e-05
1.10802907725e-10
4.32831367006e-05
1.20286612633e-10
4.32831068785e-05
1.29081070184e-10
4.32830785332e-05
1.36196597034e-10
4.32830537703e-05
1.40030509096e-10
4.32830355182e-05
1.38012455555e-10
4.32830280868e-05
1.25996904454e-10
4.32830393506e-05
9.68361661316e-11
4.32830812501e-05
3.86269742147e-11
4.32831729596e-05
-6.61504865557e-11
4.3283332374e-05
-2.35881629573e-10
4.32835664166e-05
-4.96557077809e-10
4.32840049433e-05
-1.03686484419e-09
4.32847685708e-05
-1.79031738166e-09
4.32860139855e-05
-2.93049433552e-09
4.32879481046e-05
-4.6800169785e-09
4.32909202961e-05
-7.38952549057e-09
4.32954899797e-05
-1.16146947784e-08
4.33025357913e-05
-1.8231113807e-08
4.33134401527e-05
-2.86482034931e-08
4.33303618482e-05
-4.51695557933e-08
4.33566119065e-05
-7.16059278265e-08
4.33977640967e-05
-1.14330846833e-07
4.34626758235e-05
-1.84387687006e-07
4.35650822536e-05
-3.01442800105e-07
4.37249565812e-05
-5.01067134792e-07
4.39669244992e-05
-8.47550406047e-07
4.43076917949e-05
-1.45131103039e-06
4.47085917935e-05
-2.48573116181e-06
4.4928668844e-05
-4.1963290763e-06
-6.58575647408e-06
4.44001463229e-05
5.27351380295e-05
6.17347482321e-06
5.57309344954e-05
1.28850782096e-05
5.73114743556e-05
1.4695594834e-05
5.7610991887e-05
1.37529719616e-05
5.71335227704e-05
1.16346822216e-05
5.63194683285e-05
9.26506546097e-06
5.54489882687e-05
7.09364760156e-06
5.46629778345e-05
5.2828758725e-06
5.40136824075e-05
3.8519856424e-06
5.35061512182e-05
2.75992850176e-06
5.31242554534e-05
1.94680944267e-06
5.2844986076e-05
1.35287902247e-06
5.26454400114e-05
9.2602156115e-07
5.25057159609e-05
6.23727283781e-07
5.24097213954e-05
4.12677222774e-07
5.23450155963e-05
2.67450755563e-07
5.23022779882e-05
1.6904209008e-07
5.22746910368e-05
1.03476664283e-07
5.22573666904e-05
6.06304168113e-08
5.22468581774e-05
3.32678717683e-08
5.22407586051e-05
1.62909750245e-08
5.22374497994e-05
6.18315853753e-09
5.22359511247e-05
5.1587977393e-10
5.22354431014e-05
-2.42310917523e-09
5.22355079219e-05
-3.68577904343e-09
5.22358532086e-05
-3.98251136542e-09
5.22363072489e-05
-3.76251207477e-09
5.22367734089e-05
-3.30024139041e-09
5.223720059e-05
-2.75634760225e-09
5.22375660695e-05
-2.22090866003e-09
5.2237863148e-05
-1.73870642501e-09
5.22380946157e-05
-1.32780752769e-09
5.22382707555e-05
-9.91098957782e-10
5.22384034792e-05
-7.23952322022e-10
5.22385036845e-05
-5.13802182537e-10
5.22385881494e-05
-3.52974133628e-10
5.22386535442e-05
-2.34638147158e-10
5.2238695729e-05
-1.50390184839e-10
5.22387283691e-05
-9.22370836853e-11
5.2238743679e-05
-3.73325348495e-11
5.22387488164e-05
9.3140147251e-14
5.22387463531e-05
2.82289305806e-11
5.22387382349e-05
4.93865265274e-11
5.22387257902e-05
6.5948421087e-11
5.22387098841e-05
7.98740485992e-11
5.223869109e-05
9.23190405645e-11
5.22386699153e-05
1.03877469896e-10
5.22386471468e-05
1.14616926125e-10
5.22386232238e-05
1.25106393881e-10
5.22385966908e-05
1.37274557446e-10
5.22385691339e-05
1.47751432908e-10
5.2238541626e-05
1.56460360953e-10
5.22385156984e-05
1.61955233014e-10
5.22384938017e-05
1.61716953854e-10
5.2238480654e-05
1.50910625027e-10
5.22384880968e-05
1.18271241698e-10
5.22385167353e-05
6.78913990799e-11
5.22385889028e-05
-3.38556896666e-11
5.22387060672e-05
-1.83624354995e-10
5.22388944659e-05
-4.24571265327e-10
5.22392285576e-05
-8.3090653314e-10
5.22397389269e-05
-1.54744463614e-09
5.22405034305e-05
-2.55496778591e-09
5.22416540629e-05
-4.08119381728e-09
5.22433937843e-05
-6.41971840621e-09
5.22460237285e-05
-1.00193605818e-08
5.22499955461e-05
-1.55863154005e-08
5.22560001395e-05
-2.42354283887e-08
5.22650962921e-05
-3.77440004253e-08
5.22789018709e-05
-5.89746920501e-08
5.22998761554e-05
-9.2579686443e-08
5.23317373465e-05
-1.46191474675e-07
5.23798338749e-05
-2.32483656997e-07
5.24511009542e-05
-3.72709318665e-07
5.25524166884e-05
-6.02382315466e-07
5.26843461849e-05
-9.79479429102e-07
5.28246840491e-05
-1.59164833256e-06
5.28919419611e-05
-2.55298854958e-06
5.26735711074e-05
-3.97795726932e-06
-5.77672097282e-06
5.18645353287e-05
5.1983486492e-05
4.18998833411e-06
5.50586640163e-05
9.80990068693e-06
5.76386132681e-05
1.21156455865e-05
5.93259032273e-05
1.20656820046e-05
6.02280152756e-05
1.07325701769e-05
6.05929264668e-05
8.90015426989e-06
6.06482833914e-05
7.03829067828e-06
6.05531889284e-05
5.37797033261e-06
6.04029543424e-05
4.00222022241e-06
6.02479138206e-05
2.91496901548e-06
6.01107882719e-05
2.08393497989e-06
5.99990287257e-05
1.46463855291e-06
5.99125135244e-05
1.01253674351e-06
5.98479216023e-05
6.88319183956e-07
5.98010180002e-05
4.59580800609e-07
5.97677333089e-05
3.0073542111e-07
5.97445919086e-05
1.92183464294e-07
5.97288133152e-05
1.19255232247e-07
5.97182651173e-05
7.11785905352e-08
5.9711358878e-05
4.01740889172e-08
5.97069394849e-05
2.07103487374e-08
5.97042055481e-05
8.91707931761e-09
5.9702596475e-05
2.12494051367e-09
5.97016918994e-05
-1.51854256984e-09
5.97012335583e-05
-3.22744375698e-09
5.97010439872e-05
-3.7929432069e-09
5.97010076524e-05
-3.72617715301e-09
5.97010518948e-05
-3.34448059796e-09
5.97011329927e-05
-2.83743957861e-09
5.97012252753e-05
-2.31318482262e-09
5.97013148633e-05
-1.82828923081e-09
5.9701395141e-05
-1.40808165317e-09
5.97014646855e-05
-1.06064000426e-09
5.97015240993e-05
-7.83362453699e-10
5.97015741884e-05
-5.63887444652e-10
5.97016138441e-05
-3.92626706229e-10
5.97016414953e-05
-2.62288442765e-10
5.97016566622e-05
-1.65557979197e-10
5.9701654903e-05
-9.04792086258e-11
5.97016467811e-05
-2.92107596854e-11
5.97016401143e-05
6.76173685789e-12
5.97016307851e-05
3.75608359475e-11
5.97016203307e-05
5.98417386379e-11
5.9701608657e-05
7.76198786426e-11
5.97015947086e-05
9.38164809346e-11
5.97015783186e-05
1.08699430722e-10
5.97015595134e-05
1.2266840652e-10
5.97015381695e-05
1.35937324232e-10
5.97015147495e-05
1.48487066746e-10
5.97014919292e-05
1.60032018814e-10
5.97014697405e-05
1.69846371625e-10
5.97014494332e-05
1.76637552707e-10
5.97014327111e-05
1.7850675764e-10
5.97014213026e-05
1.72912639917e-10
5.9701415071e-05
1.56888411903e-10
5.97014049542e-05
1.28100497892e-10
5.9701407202e-05
6.53354019244e-11
5.97014180173e-05
-4.49856261927e-11
5.97014933006e-05
-2.5921454354e-10
5.97016763108e-05
-6.07865981542e-10
5.97019710495e-05
-1.1258958337e-09
5.97023513398e-05
-1.92793682925e-09
5.9702921009e-05
-3.12477162953e-09
5.97037626983e-05
-4.9229385228e-09
5.97049899371e-05
-7.64693092357e-09
5.97067672354e-05
-1.17965492521e-08
5.97093320958e-05
-1.81509851822e-08
5.97130277574e-05
-2.7930822264e-08
5.97183430215e-05
-4.30589078649e-08
5.97259578254e-05
-6.65890314692e-08
5.97367732703e-05
-1.03394574082e-07
5.97518506575e-05
-1.61268257229e-07
5.97720267162e-05
-2.52659084392e-07
5.9796709443e-05
-3.97391361484e-07
5.98207410384e-05
-6.26413205877e-07
5.98272408602e-05
-9.85978658701e-07
5.97741485561e-05
-1.53855545539e-06
5.95734847643e-05
-2.35232432257e-06
5.90672823775e-05
-3.47175408508e-06
-4.80445630515e-06
5.80950178462e-05
5.14373053917e-05
2.75268294461e-06
5.42658206135e-05
6.98138546833e-06
5.7249643284e-05
9.13182292102e-06
5.97900276321e-05
9.52529765885e-06
6.1720128113e-05
8.80246969946e-06
6.30883030414e-05
7.53197934166e-06
6.40167165818e-05
6.10987713874e-06
6.46292363566e-05
4.76545055433e-06
6.50258032903e-05
3.60565328274e-06
6.52790778409e-05
2.66169445712e-06
6.54389728635e-05
1.9240399461e-06
6.55386896675e-05
1.36492173349e-06
6.55999281816e-05
9.51298209872e-07
6.56367429788e-05
6.51504364038e-07
6.56581940666e-05
4.38129687496e-07
6.56701022842e-05
2.88827176792e-07
6.56761915255e-05
1.86094195853e-07
6.56788278445e-05
1.16618886306e-07
6.56794983048e-05
7.05081049979e-08
6.56791221309e-05
4.055024037e-08
6.56782547752e-05
2.15776853999e-08
6.56772239044e-05
9.94793468409e-09
6.56762147031e-05
3.13413009468e-09
6.56753054686e-05
-6.09316711063e-10
6.56745368238e-05
-2.45880488348e-09
6.56739085152e-05
-3.16463779141e-09
6.56734096673e-05
-3.22732977549e-09
6.56730228147e-05
-2.95762602058e-09
6.56727289685e-05
-2.54358992757e-09
6.56725099626e-05
-2.09417528823e-09
6.56723496833e-05
-1.66800694893e-09
6.56722344585e-05
-1.29285432427e-09
6.56721521536e-05
-9.78332062868e-10
6.56720921503e-05
-7.23355189845e-10
6.56720486722e-05
-5.20404859942e-10
6.56720174852e-05
-3.61436068399e-10
6.567199246e-05
-2.3726180914e-10
6.56719709246e-05
-1.44022603001e-10
6.56719560053e-05
-7.55597524603e-11
6.56719542927e-05
-2.74961837032e-11
6.5671952766e-05
8.29210034021e-12
6.56719453883e-05
4.49419932739e-11
6.56719352481e-05
6.99827105682e-11
6.56719226745e-05
9.01905843384e-11
6.56719085278e-05
1.07957108523e-10
6.56718928201e-05
1.24398360144e-10
6.56718753926e-05
1.40081786665e-10
6.56718561674e-05
1.55138105657e-10
6.56718357494e-05
1.68863216666e-10
6.56718160589e-05
1.79655761654e-10
6.56717959507e-05
1.89856667906e-10
6.56717759742e-05
1.96479418173e-10
6.56717572282e-05
1.97077109408e-10
6.56717415349e-05
1.88388071689e-10
6.56717324211e-05
1.657434578e-10
6.56717372363e-05
1.22994857588e-10
6.56717448377e-05
5.7425024148e-11
6.56717702834e-05
-7.07429913412e-11
6.56718368868e-05
-3.26117042979e-10
6.56719306022e-05
-7.01857232688e-10
6.56720756716e-05
-1.27120658566e-09
6.56722785926e-05
-2.13104883037e-09
6.56725554988e-05
-3.40180323083e-09
6.56729226903e-05
-5.29017877533e-09
6.56733906694e-05
-8.11487612556e-09
6.56739564557e-05
-1.23622203247e-08
6.56745893036e-05
-1.87836455574e-08
6.56752025497e-05
-2.85438117085e-08
6.56755936912e-05
-4.3449700315e-08
6.56753335013e-05
-6.63283817819e-08
6.56735516005e-05
-1.01612124912e-07
6.56685097204e-05
-1.56225779559e-07
6.56566680908e-05
-2.40816811898e-07
6.5630890528e-05
-3.71613105166e-07
6.55770132921e-05
-5.72535301566e-07
6.54677806858e-05
-8.7674540883e-07
6.52539826238e-05
-1.32475680845e-06
6.48554914172e-05
-1.95383266655e-06
6.41596882891e-05
-2.7759502785e-06
-3.72088268611e-06
6.30761149879e-05
5.10850423819e-05
1.66764056581e-06
5.36118445994e-05
4.45458325403e-06
5.66873165325e-05
6.05635099238e-06
5.968944655e-05
6.5231676433e-06
6.22997271649e-05
6.19218908723e-06
6.44136887305e-05
5.41801777465e-06
6.60471848804e-05
4.47638098798e-06
6.7268616438e-05
3.5440189918e-06
6.81598954963e-05
2.71437421753e-06
6.87977621325e-05
2.02382781197e-06
6.92467465652e-05
1.47505550108e-06
6.9557965475e-05
1.05370280728e-06
6.97704322494e-05
7.38831415625e-07
6.99131754395e-05
5.08761150872e-07
7.00073867117e-05
3.43918389501e-07
7.00682964797e-05
2.279173815e-07
7.0106698749e-05
1.47691898872e-07
7.01301413165e-05
9.31762918526e-08
7.01438307185e-05
5.68186781579e-08
7.01513071022e-05
3.30738350018e-08
7.01549398621e-05
1.79449077465e-08
7.01562879217e-05
8.5998613926e-09
7.01563600831e-05
3.06195858106e-09
7.01557683023e-05
-1.75432274723e-11
7.01549076859e-05
-1.59819368591e-09
7.01539843256e-05
-2.24128058649e-09
7.01531159325e-05
-2.35893793449e-09
7.01523561655e-05
-2.197858557e-09
7.01517222304e-05
-1.90965350814e-09
7.01512112709e-05
-1.58321467452e-09
7.01508103569e-05
-1.26709196408e-09
7.01505025359e-05
-9.85031362345e-10
7.01502701709e-05
-7.45963572549e-10
7.01500970953e-05
-5.50274765427e-10
7.01499703128e-05
-3.93617179695e-10
7.01498791726e-05
-2.7029227116e-10
7.01498165776e-05
-1.74665040652e-10
7.0149775075e-05
-1.02518603055e-10
7.01497465746e-05
-4.7056787748e-11
7.01497166139e-05
2.46878081634e-12
7.01496932846e-05
3.16260066964e-11
7.01496803305e-05
5.78990726147e-11
7.01496698555e-05
8.04579406842e-11
7.0149659962e-05
1.00082053275e-10
7.01496498987e-05
1.18017567118e-10
7.01496392846e-05
1.35008257943e-10
7.01496279776e-05
1.51379213308e-10
7.01496160023e-05
1.67092879825e-10
7.01496030528e-05
1.81773846766e-10
7.01495878296e-05
1.94814717658e-10
7.01495722826e-05
2.05307703196e-10
7.01495571616e-05
2.11466328469e-10
7.01495432185e-05
2.10843651322e-10
7.01495310858e-05
2.0030004393e-10
7.01495204859e-05
1.7608233245e-10
7.01495090186e-05
1.34169479062e-10
7.0149496889e-05
6.92442407434e-11
7.0149488883e-05
-6.30477159391e-11
7.01494938026e-05
-3.31333753576e-10
7.01495121873e-05
-7.20512852772e-10
7.01495306822e-05
-1.28993283438e-09
7.01495268733e-05
-2.12741871493e-09
7.01494734579e-05
-3.34850295984e-09
7.0149316794e-05
-5.13355728229e-09
7.01489573915e-05
-7.75543351152e-09
7.01482192277e-05
-1.16239331907e-08
7.01468000652e-05
-1.73642916862e-08
7.0144186753e-05
-2.59302428378e-08
7.01395024179e-05
-3.87650217176e-08
7.01312629679e-05
-5.80884904338e-08
7.01169774913e-05
-8.73261389911e-08
7.00924822687e-05
-1.31730015935e-07
7.00506766643e-05
-1.99010609659e-07
6.99795717889e-05
-3.00507556391e-07
6.98591774694e-05
-4.52140340939e-07
6.96570093188e-05
-6.74576602445e-07
6.93230878155e-05
-9.90834714978e-07
6.87877546462e-05
-1.41849905396e-06
6.79682478893e-05
-1.95644298805e-06
-2.55885590207e-06
6.6806221381e-05
5.0880413216e-05
7.87227353705e-07
5.31704662262e-05
2.16453024683e-06
5.62177497985e-05
3.00906742454e-06
5.94382698092e-05
3.30264763441e-06
6.24449696286e-05
3.18548927042e-06
6.50382530405e-05
2.82473436089e-06
6.71548666014e-05
2.35976742584e-06
6.88135650811e-05
1.88532050772e-06
7.00731710633e-05
1.45476822869e-06
7.10056680046e-05
1.0913308618e-06
7.16812642729e-05
7.9945922071e-07
7.21614236057e-05
5.73543458645e-07
7.24966045111e-05
4.03650490555e-07
7.27264810458e-05
2.78884593388e-07
7.28812799285e-05
1.89119481204e-07
7.29834696723e-05
1.2572761036e-07
7.30494134509e-05
8.17480927774e-08
7.30908155628e-05
5.17741534799e-08
7.31159095193e-05
3.17246975195e-08
7.3130394055e-05
1.85892783912e-08
7.31381487959e-05
1.01901501572e-08
7.31417692583e-05
4.97938643354e-09
7.31429569901e-05
1.87421797546e-09
7.31428106357e-05
1.28804778928e-10
7.31419874338e-05
-7.74996982511e-10
7.31409045581e-05
-1.15840876018e-09
7.31397897217e-05
-1.24410414013e-09
7.31387623308e-05
-1.17046894633e-09
7.31378748402e-05
-1.02216304723e-09
7.31371411605e-05
-8.49534879146e-10
7.31365539092e-05
-6.79840622362e-10
7.31360956986e-05
-5.26819086946e-10
7.31357456605e-05
-3.95921341016e-10
7.31354831652e-05
-2.87773723118e-10
7.31352898685e-05
-2.00315259604e-10
7.31351501403e-05
-1.30560276083e-10
7.31350507254e-05
-7.52472843169e-11
7.31349790827e-05
-3.08731200916e-11
7.31349259629e-05
6.06668305882e-12
7.31348962057e-05
3.22298536877e-11
7.3134873062e-05
5.47721957853e-11
7.31348562379e-05
7.47228930927e-11
7.3134843846e-05
9.28472892251e-11
7.31348340838e-05
1.09841342498e-10
7.31348256817e-05
1.26417128235e-10
7.31348177526e-05
1.42934021279e-10
7.31348096729e-05
1.59449883988e-10
7.31348010037e-05
1.75741386845e-10
7.31347914728e-05
1.91265083123e-10
7.31347810284e-05
2.05193426223e-10
7.31347697139e-05
2.16523387455e-10
7.31347575788e-05
2.23463417588e-10
7.31347447135e-05
2.23527264184e-10
7.31347312974e-05
2.13490286452e-10
7.31347177638e-05
1.89350334161e-10
7.31347049596e-05
1.46677857216e-10
7.31346908322e-05
8.30605736912e-11
7.3134665383e-05
-3.79097570396e-11
7.31346217933e-05
-2.88042101593e-10
7.31345529006e-05
-6.51888340044e-10
7.31344354637e-05
-1.17272002725e-09
7.31342259697e-05
-1.91809241749e-09
7.31338559691e-05
-2.9786058918e-09
7.31332101095e-05
-4.4877310697e-09
7.31320948242e-05
-6.64010134e-09
7.31301871516e-05
-9.71613425486e-09
7.31269595534e-05
-1.41365000197e-08
7.31215548158e-05
-2.05252431639e-08
7.31125562504e-05
-2.97661048832e-08
7.30976555514e-05
-4.31873428769e-08
7.30731433106e-05
-6.28133845822e-08
7.30331079758e-05
-9.16941232012e-08
7.29680186463e-05
-1.33920647352e-07
7.28628328129e-05
-1.9532102306e-07
7.26943436402e-05
-2.83650522308e-07
7.242798577e-05
-4.08218058205e-07
7.20152945949e-05
-5.78142895396e-07
7.13949131025e-05
-7.98117085321e-07
7.05010524176e-05
-1.0625818264e-06
-1.3465582829e-06
6.92887550724e-05
5.07871726244e-05
5.47331135262e-11
5.29516499055e-05
5.29681717797e-11
5.59606885365e-05
2.87981831848e-11
5.92633219963e-05
1.41763232512e-11
6.24488085346e-05
2.73422473409e-12
6.52735490219e-05
-6.12811545599e-12
6.76333284733e-05
-1.20267742438e-11
6.95186639464e-05
-1.49691609018e-11
7.09734475672e-05
-1.53981566584e-11
7.20647923318e-05
-1.39112978403e-11
7.28642626823e-05
-1.11414888356e-11
7.34378138695e-05
-7.74360597301e-12
7.38414687182e-05
-4.37690034563e-12
7.41203549755e-05
-1.68604801496e-12
7.43094746896e-05
-2.57569626189e-13
7.44352027651e-05
-4.91624914999e-13
7.45169534739e-05
-2.64271906931e-12
7.45687340665e-05
-6.46474596032e-12
7.46004700598e-05
-1.1319250786e-11
7.46190755428e-05
-1.62244578233e-11
7.46292857284e-05
-2.0051109155e-11
7.46342868072e-05
-2.17039611051e-11
7.46361817348e-05
-2.07180961148e-11
7.46363289047e-05
-1.83717480954e-11
7.46355697402e-05
-1.58382799297e-11
7.46344240098e-05
-1.26830699752e-11
7.46331889791e-05
-9.0770773275e-12
7.46320235983e-05
-5.09091562212e-12
7.46310016663e-05
-2.32499268165e-13
7.46301482723e-05
3.85854404317e-12
7.4629459899e-05
8.5339831188e-12
7.46289195545e-05
1.35287122664e-11
7.46285048397e-05
1.87990553985e-11
7.46281926642e-05
2.44080394268e-11
7.46279618165e-05
3.05376613112e-11
7.46277939498e-05
3.73107030876e-11
7.46276738981e-05
4.48082585982e-11
7.46275900158e-05
5.30131574512e-11
7.46275341359e-05
6.19504911949e-11
7.46274950992e-05
7.12692271695e-11
7.46274689409e-05
8.09309128168e-11
7.462745181e-05
9.18520546548e-11
7.46274407171e-05
1.0393795033e-10
7.4627433432e-05
1.17125469024e-10
7.46274284177e-05
1.31432338084e-10
7.46274246014e-05
1.46750735874e-10
7.46274212259e-05
1.62820346102e-10
7.46274177427e-05
1.79206915665e-10
7.46274137157e-05
1.9525438316e-10
7.46274087865e-05
2.10056866919e-10
7.46274027655e-05
2.22442937211e-10
7.4627395425e-05
2.30660824721e-10
7.46273863883e-05
2.32375846647e-10
7.46273750003e-05
2.24644844875e-10
7.46273601265e-05
2.03950069631e-10
7.4627340045e-05
1.66456956086e-10
7.46273137314e-05
1.09058020582e-10
7.4627269079e-05
6.42948506046e-12
7.46271795011e-05
-1.98758994329e-10
7.46270423779e-05
-5.15027758621e-10
7.46268182561e-05
-9.48812520154e-10
7.46264460484e-05
-1.54604018165e-09
7.46258290552e-05
-2.36170468048e-09
7.46248101692e-05
-3.46886799591e-09
7.46231338583e-05
-4.96373820623e-09
7.4620382041e-05
-6.96419760249e-09
7.46158892257e-05
-9.64350558339e-09
7.46085950475e-05
-1.32308109085e-08
7.45967574959e-05
-1.79281920638e-08
7.45775720824e-05
-2.40014505156e-08
7.45466272434e-05
-3.18679875608e-08
7.44971711717e-05
-4.223745759e-08
7.44184499343e-05
-5.51987517073e-08
7.4294041402e-05
-7.0911744152e-08
7.40995260129e-05
-8.91344185675e-08
7.38000208713e-05
-1.08712211161e-07
7.33487602928e-05
-1.26881613742e-07
7.26891115966e-05
-1.38467831807e-07
7.17628099069e-05
-1.3627962966e-07
-1.11808647141e-07
7.05280606239e-05
5.07871715892e-05
-7.87116852556e-07
5.29516490507e-05