/*--------------------------------*- C++ -*----------------------------------*\
| =========                 |                                                 |
| \\      /  F ield         | OpenFOAM: The Open Source CFD Toolbox           |
|  \\    /   O peration     | Version:  2106                                  |
|   \\  /    A nd           | Website:  www.openfoam.com                      |
|    \\/     M anipulation  |                                                 |
\*---------------------------------------------------------------------------*/
FoamFile
{
    version     2.0;
    format      ascii;
    arch        "LSB;label=32;scalar=64";
    class       volVectorField;
    location    "0.255";
    object      U;
}
// * * * * * * * * * * * * * * * * * * * * * * * * * * * * * * * * * * * * * //

dimensions      [0 1 -1 0 0 0 0];

internalField   nonuniform List<vector> 
11200
(
(0.662462404241 0.150569442685 0)
(0.558948676349 0.103243388818 0)
(0.383850744618 0.0513512247162 0)
(0.283747606645 0.0248708556781 0)
(0.23207528593 0.0124170455329 0)
(0.201908607343 0.00662281703982 0)
(0.183197958392 0.0038029145479 0)
(0.171276518634 0.00231587013275 0)
(0.163510340491 0.00146450659023 0)
(0.158388807433 0.00094489243542 0)
(0.155006671841 0.000615176894101 0)
(0.152786719341 0.000402233788485 0)
(0.151346571175 0.000264232187884 0)
(0.150428335657 0.000175250108625 0)
(0.149856732513 0.000118360618906 0)
(0.149512531971 8.21599155034e-05 0)
(0.149314971901 5.88658319235e-05 0)
(0.149209610069 4.33156259763e-05 0)
(0.149159750321 3.29345036084e-05 0)
(0.149142509059 2.81860326993e-05 0)
(0.149144661995 2.76840420665e-05 0)
(0.149156933531 2.98897397957e-05 0)
(0.149172550025 3.30501910018e-05 0)
(0.149188091705 3.59658366722e-05 0)
(0.149202294163 3.86013872162e-05 0)
(0.149214557505 4.10405017303e-05 0)
(0.149224714072 4.33178188667e-05 0)
(0.149232870726 4.54644801367e-05 0)
(0.149239264125 4.75197471e-05 0)
(0.149244176233 4.95306572631e-05 0)
(0.149247892051 5.15592154931e-05 0)
(0.149250678957 5.36964310193e-05 0)
(0.149252733974 5.60249783976e-05 0)
(0.149254227267 5.84063726411e-05 0)
(0.149255291434 6.07674351778e-05 0)
(0.149256013012 6.3088562275e-05 0)
(0.149256488876 6.53800210282e-05 0)
(0.149256802669 6.7654719121e-05 0)
(0.149257008061 6.99242599012e-05 0)
(0.149257134268 7.21947670859e-05 0)
(0.149257202277 7.44673319628e-05 0)
(0.149257229386 7.67429367888e-05 0)
(0.149257227777 7.90212817039e-05 0)
(0.149257206202 8.13012265765e-05 0)
(0.149257170854 8.35810387627e-05 0)
(0.1492571263 8.58583889273e-05 0)
(0.149257076476 8.81305081112e-05 0)
(0.149257025334 9.03943406761e-05 0)
(0.149256977192 9.26467647726e-05 0)
(0.149256937017 9.48847514163e-05 0)
(0.149256911538 9.71051929663e-05 0)
(0.149256910302 9.93051752363e-05 0)
(0.149256946413 0.000101481719792 0)
(0.149257038032 0.000103631462627 0)
(0.149257210759 0.000105750131466 0)
(0.149257501019 0.000107832072913 0)
(0.149257959535 0.000109870477902 0)
(0.14925866069 0.000111855447587 0)
(0.149259713973 0.000113774315808 0)
(0.149261277407 0.000115602636481 0)
(0.149263595204 0.000117285221233 0)
(0.149267075603 0.00011873632848 0)
(0.149272191197 0.000119994975795 0)
(0.149279587023 0.000121251939229 0)
(0.149290294004 0.000122966922296 0)
(0.149305832291 0.000125335352781 0)
(0.149328586225 0.000128116497776 0)
(0.149362251368 0.000131081459912 0)
(0.149412421438 0.00013401349982 0)
(0.149487329554 0.000136797883537 0)
(0.149598919321 0.00014070908998 0)
(0.149770026585 0.000151568660837 0)
(0.150038438035 0.000172312060315 0)
(0.150467346928 0.000202590910304 0)
(0.151192605495 0.000232546189198 0)
(0.152491993833 0.000191730196298 0)
(0.15502194106 -0.000216976109636 0)
(0.162377562498 -0.00211163184147 0)
(0.187716046666 -0.0107961405841 0)
(0.204412883017 -0.0497002170893 0)
(0.965408255378 0.289214707028 0)
(0.961962863564 0.25265604054 0)
(0.823574399364 0.159021442228 0)
(0.698139378955 0.0959957317515 0)
(0.610225476171 0.0582481145858 0)
(0.548971505902 0.0362148535182 0)
(0.506588904272 0.0231612853751 0)
(0.477567284913 0.0151375155036 0)
(0.457745507674 0.0100177553135 0)
(0.444228476247 0.00665814132972 0)
(0.435053313477 0.00441555640845 0)
(0.428873132233 0.00290686593844 0)
(0.424754214894 0.00189105842894 0)
(0.422046663707 0.00121004524181 0)
(0.420297825265 0.000757163191223 0)
(0.419193214855 0.000459255513452 0)
(0.418515608441 0.000265854330869 0)
(0.418116460344 0.000142399118068 0)
(0.417895855771 6.61090328453e-05 0)
(0.41778680393 2.30916696681e-05 0)
(0.417745388537 1.40683515547e-06 0)
(0.417742110578 -1.01638911956e-05 0)
(0.417756708115 -1.37153968941e-05 0)
(0.417778666838 -1.32688736813e-05 0)
(0.417802961551 -1.08366670338e-05 0)
(0.417826332948 -7.49362437012e-06 0)
(0.417847087679 -3.87729907644e-06 0)
(0.417864627034 -3.57772711139e-07 0)
(0.417878954855 2.86350354898e-06 0)
(0.417890386489 5.68265407969e-06 0)
(0.417899393717 8.03538199876e-06 0)
(0.417906469921 9.83725146126e-06 0)
(0.41791181699 1.10060817079e-05 0)
(0.417915668793 1.18585186107e-05 0)
(0.417918403079 1.2680361971e-05 0)
(0.417920294851 1.34371350967e-05 0)
(0.417921586422 1.41110216916e-05 0)
(0.417922469129 1.47262087814e-05 0)
(0.417923069212 1.53116625362e-05 0)
(0.4179234583 1.58809549504e-05 0)
(0.417923689144 1.6434487173e-05 0)
(0.417923805147 1.69773687398e-05 0)
(0.417923837 1.75132763207e-05 0)
(0.417923807164 1.80455623476e-05 0)
(0.41792373178 1.85773728843e-05 0)
(0.417923622857 1.91110836997e-05 0)
(0.41792349071 1.96486767501e-05 0)
(0.417923345682 2.01920963513e-05 0)
(0.417923199238 2.0743486077e-05 0)
(0.417923064656 2.13046606066e-05 0)
(0.417922959645 2.18757032357e-05 0)
(0.417922908847 2.24567414709e-05 0)
(0.417922945723 2.30477496168e-05 0)
(0.417923116282 2.36482746134e-05 0)
(0.417923485132 2.42573552662e-05 0)
(0.417924144941 2.48738580163e-05 0)
(0.417925226004 2.54967658985e-05 0)
(0.417926919688 2.61137464824e-05 0)
(0.417929503273 2.67067534474e-05 0)
(0.417933365498 2.72455894208e-05 0)
(0.417939101653 2.76837258776e-05 0)
(0.417947808407 2.79645322451e-05 0)
(0.417960979706 2.82481979113e-05 0)
(0.417980747933 2.78103830556e-05 0)
(0.418009886828 2.52360242481e-05 0)
(0.418052001955 1.94309519426e-05 0)
(0.418113266321 9.59088647283e-06 0)
(0.418203798794 -5.81417362356e-06 0)
(0.418339205435 -2.93086258005e-05 0)
(0.418544389576 -6.45764743594e-05 0)
(0.418861266331 -0.000115817232013 0)
(0.419359479558 -0.000188012474131 0)
(0.420152573463 -0.000307863233825 0)
(0.421444342994 -0.000532992000225 0)
(0.423626723074 -0.00100032552027 0)
(0.427419003985 -0.00209184113811 0)
(0.434244609881 -0.0048599288287 0)
(0.448281368486 -0.0122635645171 0)
(0.474683912041 -0.0342690077207 0)
(0.47825378308 -0.0988560764966 0)
(1.02222096652 0.238416187265 0)
(1.08213753391 0.295926652529 0)
(1.03447723417 0.239503066249 0)
(0.954615419866 0.174290164231 0)
(0.879992068935 0.121345468136 0)
(0.818614451283 0.0830993838038 0)
(0.771410868455 0.0567316668019 0)
(0.73663441068 0.0387409682274 0)
(0.711624454697 0.0264327867007 0)
(0.693916645019 0.0179731043702 0)
(0.681541437372 0.0121424475785 0)
(0.673000146821 0.00812490777791 0)
(0.667180683349 0.00536632056862 0)
(0.663271714612 0.00348444423019 0)
(0.660688544226 0.00221256093729 0)
(0.659014220336 0.00136338119025 0)
(0.657954539473 0.000805243107168 0)
(0.657304246251 0.000445915862952 0)
(0.656921827074 0.00022106765913 0)
(0.656710260658 8.55802060349e-05 0)
(0.656603395258 8.3567103196e-06 0)
(0.656561844914 -3.37210082263e-05 0)
(0.656557942785 -5.68555528648e-05 0)
(0.656571416554 -6.68747079196e-05 0)
(0.656592944129 -6.84821779453e-05 0)
(0.656616761995 -6.55608094632e-05 0)
(0.65663956288 -6.05499178951e-05 0)
(0.656659739957 -5.48601699786e-05 0)
(0.656676707985 -4.92760392044e-05 0)
(0.656690444805 -4.42045025185e-05 0)
(0.656701196788 -3.98404326685e-05 0)
(0.656709348086 -3.63023230015e-05 0)
(0.656715594571 -3.36961182889e-05 0)
(0.656720626567 -3.18574191823e-05 0)
(0.65672448751 -3.08109654142e-05 0)
(0.656727192543 -3.03039933926e-05 0)
(0.656729053487 -3.02485654056e-05 0)
(0.656730349778 -3.0559481195e-05 0)
(0.65673124881 -3.10870220174e-05 0)
(0.656731840494 -3.17487774837e-05 0)
(0.656732199173 -3.25152055464e-05 0)
(0.656732390158 -3.33512005098e-05 0)
(0.656732458614 -3.42322345041e-05 0)
(0.656732438505 -3.51390140754e-05 0)
(0.656732354365 -3.60561397919e-05 0)
(0.656732224554 -3.69728756576e-05 0)
(0.656732065033 -3.78816862758e-05 0)
(0.656731891638 -3.87770469778e-05 0)
(0.656731721049 -3.96541039823e-05 0)
(0.656731571066 -4.05075777248e-05 0)
(0.656731465966 -4.13337851561e-05 0)
(0.656731441035 -4.21286856129e-05 0)
(0.656731544683 -4.28904627952e-05 0)
(0.656731844339 -4.36218699883e-05 0)
(0.656732435905 -4.4335526219e-05 0)
(0.656733457107 -4.50623095641e-05 0)
(0.65673509429 -4.58546365765e-05 0)
(0.656737620474 -4.68083909122e-05 0)
(0.656741443775 -4.80500392522e-05 0)
(0.656747162505 -4.97932710993e-05 0)
(0.656755696345 -5.25370948924e-05 0)
(0.656768691528 -5.73235939474e-05 0)
(0.656787495127 -6.49247425456e-05 0)
(0.656813540967 -7.62243457964e-05 0)
(0.656850631966 -9.29031520655e-05 0)
(0.656905476212 -0.000117371173072 0)
(0.656987470187 -0.00015282858397 0)
(0.657110406108 -0.000204563302605 0)
(0.657296103718 -0.000281101866418 0)
(0.657579971723 -0.000396332824571 0)
(0.658020174498 -0.000574630127371 0)
(0.658705977755 -0.000863301037902 0)
(0.659784560858 -0.00135250500689 0)
(0.661513700612 -0.002215517729 0)
(0.664336016805 -0.00381520622186 0)
(0.668948112793 -0.00695108889021 0)
(0.67637741883 -0.0133635098571 0)
(0.688634472678 -0.0268676349957 0)
(0.705282654178 -0.0563740819253 0)
(0.700571355042 -0.11320973328 0)
(1.02251475564 0.170807152653 0)
(1.10138976115 0.276496478326 0)
(1.11752426818 0.266664798886 0)
(1.09214661504 0.219901698559 0)
(1.05187816754 0.168168847141 0)
(1.01020823725 0.123567396116 0)
(0.973494704328 0.0888375209383 0)
(0.943864569746 0.0630063709214 0)
(0.921142813203 0.0442232034667 0)
(0.904284086073 0.0307423921269 0)
(0.892074881913 0.0211562935133 0)
(0.883404523623 0.0143954679435 0)
(0.877352683585 0.00966794765292 0)
(0.873197720707 0.00639383666011 0)
(0.870392943924 0.00415116426889 0)
(0.868534054949 0.00263449024882 0)
(0.867327657616 0.0016240165197 0)
(0.866564253746 0.00096267485666 0)
(0.866096495354 0.000539120965033 0)
(0.865822251963 0.000275151915535 0)
(0.865671406998 0.000117066587018 0)
(0.865595155288 2.87906391262e-05 0)
(0.865564096177 -1.93264171556e-05 0)
(0.865561287031 -4.1262705528e-05 0)
(0.865572630018 -4.76667512519e-05 0)
(0.865589635651 -4.55260614293e-05 0)
(0.865607944962 -3.91564593528e-05 0)
(0.865625284001 -3.11454485475e-05 0)
(0.865640568914 -2.29641629778e-05 0)
(0.865653432624 -1.5380249807e-05 0)
(0.865663906664 -8.72244755382e-06 0)
(0.865672194482 -3.04344336848e-06 0)
(0.865678548378 1.73521434204e-06 0)
(0.865683176008 5.46648728198e-06 0)
(0.865686495275 8.03353832139e-06 0)
(0.865688893269 9.79051718096e-06 0)
(0.865690524764 1.11440693437e-05 0)
(0.865691686098 1.22888872553e-05 0)
(0.865692552943 1.32577598973e-05 0)
(0.865693143845 1.414427323e-05 0)
(0.865693506974 1.49396162197e-05 0)
(0.865693706763 1.56664729771e-05 0)
(0.865693782064 1.63404173781e-05 0)
(0.86569376429 1.6977958618e-05 0)
(0.865693675527 1.7593743707e-05 0)
(0.865693531816 1.81980584104e-05 0)
(0.865693348106 1.87986717426e-05 0)
(0.865693140958 1.9402528667e-05 0)
(0.865692930518 2.00186953069e-05 0)
(0.865692739401 2.06531284416e-05 0)
(0.865692597715 2.12922750631e-05 0)
(0.865692546668 2.19240286327e-05 0)
(0.865692639478 2.25320516323e-05 0)
(0.865692946018 2.30903015928e-05 0)
(0.865693558657 2.35604409548e-05 0)
(0.865694610526 2.39010832744e-05 0)
(0.86569628289 2.40879954485e-05 0)
(0.865698860159 2.39983020045e-05 0)
(0.865702750767 2.34776476034e-05 0)
(0.865708379986 2.21245915757e-05 0)
(0.865716167558 1.93568197265e-05 0)
(0.865727749926 1.45204010043e-05 0)
(0.865745738439 5.7688023015e-06 0)
(0.86577307856 -8.52700375753e-06 0)
(0.865813652865 -3.03612938098e-05 0)
(0.865873370507 -6.36725784145e-05 0)
(0.86596156168 -0.000115339598125 0)
(0.866092734048 -0.000196132002501 0)
(0.866289437881 -0.000323322893598 0)
(0.866586502456 -0.000525411774446 0)
(0.867037560533 -0.000851389822482 0)
(0.86772773739 -0.00138826990803 0)
(0.868793495311 -0.00228497157824 0)
(0.87044830231 -0.00381636051544 0)
(0.873011435372 -0.00650723032608 0)
(0.876882460844 -0.0113680904367 0)
(0.88238494978 -0.0202702797533 0)
(0.889703577297 -0.0364891027294 0)
(0.896394666719 -0.0655655615425 0)
(0.886585524429 -0.110188865855 0)
(1.0128787518 0.118961023713 0)
(1.0882067107 0.231806936923 0)
(1.13741367629 0.253106764647 0)
(1.15409087403 0.228992753656 0)
(1.14994211672 0.188368359064 0)
(1.13538466327 0.146579844249 0)
(1.11758895711 0.110150965918 0)
(1.1005950115 0.0808162222475 0)
(1.086124581 0.058226576435 0)
(1.0745909346 0.0413189849301 0)
(1.06579147709 0.0289160200766 0)
(1.05928799959 0.0199600997848 0)
(1.05459977461 0.0135815598928 0)
(1.05129077653 0.0090974429436 0)
(1.04899985865 0.00598615372795 0)
(1.04744341525 0.00385696617405 0)
(1.04640654143 0.00242159765169 0)
(1.04573062553 0.00147014976976 0)
(1.04530106929 0.000851701487995 0)
(1.04503657104 0.00045901583412 0)
(1.04488020729 0.000216756338725 0)
(1.04479258987 7.3017293339e-05 0)
(1.04474872373 -5.50446567092e-06 0)
(1.04473182355 -4.40086033667e-05 0)
(1.04472957221 -5.93856171214e-05 0)
(1.04473505574 -6.17191100382e-05 0)
(1.04474400337 -5.72453435403e-05 0)
(1.04475388718 -4.98032570484e-05 0)
(1.04476332751 -4.16439416686e-05 0)
(1.04477165419 -3.39883639033e-05 0)
(1.04477861676 -2.74228476075e-05 0)
(1.04478420251 -2.21508843274e-05 0)
(1.04478855745 -1.81274950198e-05 0)
(1.04479189263 -1.51387937401e-05 0)
(1.04479446279 -1.28074810002e-05 0)
(1.04479656149 -1.10111389229e-05 0)
(1.04479829999 -9.52210298493e-06 0)
(1.04479962371 -8.23239672933e-06 0)
(1.04480060274 -7.21340367962e-06 0)
(1.04480128804 -6.54465307246e-06 0)
(1.04480170137 -6.16508061704e-06 0)
(1.0448019296 -5.95625051632e-06 0)
(1.04480201831 -5.86772169101e-06 0)
(1.04480200589 -5.84950404615e-06 0)
(1.04480191704 -5.86145886206e-06 0)
(1.04480176952 -5.88387812097e-06 0)
(1.04480158125 -5.90726384247e-06 0)
(1.04480137397 -5.92822286427e-06 0)
(1.04480116908 -5.95225015374e-06 0)
(1.04480097251 -5.98665998964e-06 0)
(1.04480080278 -6.01598652365e-06 0)
(1.04480070415 -6.0389170596e-06 0)
(1.04480072984 -6.06186670663e-06 0)
(1.04480095214 -6.09916497569e-06 0)
(1.04480148666 -6.18529383663e-06 0)
(1.04480252963 -6.42115421511e-06 0)
(1.04480426672 -7.07714894403e-06 0)
(1.04480696521 -8.43080733224e-06 0)
(1.04481094844 -1.09660265642e-05 0)
(1.04481668001 -1.47802587589e-05 0)
(1.04482518889 -1.97348742081e-05 0)
(1.04483762249 -2.59236750342e-05 0)
(1.04485522968 -3.56634818344e-05 0)
(1.04488032519 -5.19295200114e-05 0)
(1.04491637738 -7.89488119409e-05 0)
(1.04496852934 -0.000122973344096 0)
(1.04504437832 -0.000193780354534 0)
(1.04515526549 -0.000306957546483 0)
(1.04531833042 -0.000487687711778 0)
(1.04555943475 -0.000777029977974 0)
(1.04591727218 -0.00124236870431 0)
(1.04644972959 -0.0019954516321 0)
(1.04724098427 -0.00322702680585 0)
(1.04840411177 -0.00526825549774 0)
(1.05006665836 -0.00869667906756 0)
(1.05228565758 -0.0145073317506 0)
(1.05481761481 -0.0243096484475 0)
(1.05687337131 -0.0404179377707 0)
(1.05574673038 -0.0656790829158 0)
(1.04213641611 -0.0996077571995 0)
(1.00447483524 0.0814039978822 0)
(1.0691723755 0.181288539137 0)
(1.13080569114 0.216950418883 0)
(1.17375000984 0.21078915566 0)
(1.19865265953 0.183690076969 0)
(1.2101998893 0.149751683381 0)
(1.21350256819 0.116779144051 0)
(1.21251725238 0.0882206776662 0)
(1.20973099583 0.0650481505181 0)
(1.20651120983 0.0470209083037 0)
(1.2035191474 0.0334068078 0)
(1.20101146686 0.0233557317306 0)
(1.19903446675 0.0160720130142 0)
(1.19753879534 0.0108795129234 0)
(1.19644133056 0.00723418732885 0)
(1.19565560135 0.00471351783626 0)
(1.19510490492 0.00299762854676 0)
(1.19472649117 0.00184916042151 0)
(1.19447150928 0.0010949600903 0)
(1.19430319793 0.000610611141068 0)
(1.19419455747 0.000307986470067 0)
(1.19412627155 0.000125768573596 0)
(1.19408522038 2.22233916471e-05 0)
(1.19406196005 -3.24515249975e-05 0)
(1.19404965812 -5.72700044138e-05 0)
(1.19404415773 -6.45955282138e-05 0)
(1.19404265815 -6.23734486683e-05 0)
(1.19404334094 -5.55186686343e-05 0)
(1.19404509049 -4.69415598067e-05 0)
(1.19404724854 -3.82555798153e-05 0)
(1.19404944265 -3.02617914484e-05 0)
(1.19405148072 -2.32651717902e-05 0)
(1.19405329365 -1.72892599997e-05 0)
(1.19405487579 -1.22604632829e-05 0)
(1.19405624337 -8.0723036284e-06 0)
(1.19405741555 -4.67073852401e-06 0)
(1.19405836467 -2.05966206599e-06 0)
(1.19405903733 -1.7026746352e-07 0)
(1.19405939304 1.14708900747e-06 0)
(1.19405950782 2.00341817947e-06 0)
(1.19405956284 2.68245528908e-06 0)
(1.19405959412 3.2861958831e-06 0)
(1.19405957601 3.81448118175e-06 0)
(1.19405952515 4.27603027496e-06 0)
(1.19405943647 4.68290723685e-06 0)
(1.19405930075 5.05195307901e-06 0)
(1.19405912021 5.39503807263e-06 0)
(1.19405890068 5.71450555605e-06 0)
(1.19405865564 5.99995096185e-06 0)
(1.1940584272 6.24162962669e-06 0)
(1.19405825719 6.46211858924e-06 0)
(1.19405817553 6.65359809168e-06 0)
(1.1940582317 6.78967004467e-06 0)
(1.19405848602 6.82993726419e-06 0)
(1.19405898057 6.71669668903e-06 0)
(1.19405968606 6.36454680688e-06 0)
(1.19406067678 5.60674004769e-06 0)
(1.19406211503 4.09634843603e-06 0)
(1.19406462672 1.37325101777e-06 0)
(1.19406925539 -2.82371711e-06 0)
(1.19407660031 -9.26587266705e-06 0)
(1.19408657143 -1.93597060618e-05 0)
(1.19409989593 -3.51025125666e-05 0)
(1.19411856255 -5.94069143619e-05 0)
(1.19414469881 -9.6855999466e-05 0)
(1.19418111731 -0.000154766429561 0)
(1.19423179936 -0.000244790873141 0)
(1.19430236746 -0.00038541909288 0)
(1.19440069136 -0.00060613149217 0)
(1.19453753204 -0.000954308249627 0)
(1.19472693016 -0.00150654835942 0)
(1.194985652 -0.00238725711819 0)
(1.19532849817 -0.00379991351151 0)
(1.19575273024 -0.00607790065127 0)
(1.19619803115 -0.00976084803101 0)
(1.19644464844 -0.0156939396445 0)
(1.19590558164 -0.0250904324192 0)
(1.19342563832 -0.0394098969274 0)
(1.18666775227 -0.0599013884328 0)
(1.17010834146 -0.0852630809955 0)
(0.998962326148 0.0544316257051 0)
(1.05310957042 0.133401608007 0)
(1.11628268609 0.170777558498 0)
(1.17301272501 0.175143872249 0)
(1.21791246962 0.159583606521 0)
(1.25049858767 0.134951020264 0)
(1.27288492153 0.108411656962 0)
(1.28776723257 0.0838849718981 0)
(1.29745269224 0.0630565723588 0)
(1.30366076362 0.0462999213333 0)
(1.30759235765 0.033320514744 0)
(1.31005371646 0.02354952395 0)
(1.31157364137 0.0163599077075 0)
(1.31249494503 0.0111713150864 0)
(1.31303863893 0.0074915065998 0)
(1.31334673136 0.00492448568616 0)
(1.31351014603 0.00316295480491 0)
(1.31358677667 0.0019747511614 0)
(1.31361315371 0.00118819588099 0)
(1.31361200496 0.000678628013341 0)
(1.31359716821 0.00035700702885 0)
(1.31357684806 0.000160752700035 0)
(1.31355585483 4.64680313901e-05 0)
(1.31353656059 -1.58702256409e-05 0)
(1.31351990399 -4.60584502536e-05 0)
(1.31350621678 -5.70681573438e-05 0)
(1.31349531404 -5.73225591657e-05 0)
(1.31348685864 -5.20837761237e-05 0)
(1.3134804624 -4.45211716585e-05 0)
(1.31347574011 -3.64591722488e-05 0)
(1.31347234066 -2.88708370698e-05 0)
(1.31346996098 -2.22096293303e-05 0)
(1.31346834149 -1.66269784118e-05 0)
(1.31346725392 -1.2130344223e-05 0)
(1.31346653277 -8.65395871628e-06 0)
(1.3134660806 -6.09629677964e-06 0)
(1.31346579614 -4.32017571635e-06 0)
(1.31346559004 -3.11807039562e-06 0)
(1.31346545996 -2.26030003839e-06 0)
(1.31346549166 -1.54265594918e-06 0)
(1.31346564707 -9.66338666877e-07 0)
(1.31346574798 -5.5246581333e-07 0)
(1.3134657433 -1.91231130529e-07 0)
(1.31346566524 1.46293752767e-07 0)
(1.31346553547 4.5840074737e-07 0)
(1.31346536615 7.53913602675e-07 0)
(1.31346516045 1.04501212915e-06 0)
(1.31346492062 1.34298342072e-06 0)
(1.31346465809 1.65973521719e-06 0)
(1.31346440626 1.99307673121e-06 0)
(1.3134641857 2.29422789668e-06 0)
(1.3134640038 2.52636943366e-06 0)
(1.31346389104 2.64569745949e-06 0)
(1.31346389931 2.58835560017e-06 0)
(1.31346411469 2.26670523389e-06 0)
(1.31346465601 1.58700684587e-06 0)
(1.313465516 5.03115167604e-07 0)
(1.3134667409 -1.18373255403e-06 0)
(1.31346875981 -3.652065542e-06 0)
(1.31347182458 -7.62941195104e-06 0)
(1.31347610942 -1.44153193336e-05 0)
(1.31348184858 -2.55992529439e-05 0)
(1.31348930872 -4.27646311253e-05 0)
(1.31349897234 -6.90762774636e-05 0)
(1.31351115322 -0.000109562016413 0)
(1.31352592368 -0.000171967475032 0)
(1.31354289237 -0.000268381362888 0)
(1.31356073571 -0.00041776314998 0)
(1.31357623925 -0.000649943549389 0)
(1.31358246235 -0.00101218538874 0)
(1.3135653319 -0.00157957585776 0)
(1.31349736635 -0.00247124273513 0)
(1.31332424052 -0.00387465271401 0)
(1.31293826434 -0.00608256048985 0)
(1.31212925783 -0.00954011084906 0)
(1.31049153328 -0.0148899493348 0)
(1.30727109879 -0.0229621663507 0)
(1.30125709247 -0.0346000216385 0)
(1.29057928209 -0.0502451280658 0)
(1.27176082371 -0.0686763122961 0)
(0.995736074677 0.0346338602093 0)
(1.04179514653 0.090568921512 0)
(1.10222839315 0.121549565234 0)
(1.16491412544 0.129605834334 0)
(1.2220256752 0.122009268718 0)
(1.26951893488 0.106019938701 0)
(1.3068022549 0.0870975563659 0)
(1.33499537312 0.0686366814834 0)
(1.35574479669 0.0523698394369 0)
(1.37069619223 0.0389256183072 0)
(1.38128278225 0.0282980736463 0)
(1.38866270603 0.0201712773113 0)
(1.39373036394 0.0141175104403 0)
(1.39715663931 0.00970533595465 0)
(1.39943438192 0.00655059510906 0)
(1.40091970465 0.00433445437945 0)
(1.4018662517 0.00280414448904 0)
(1.40245227293 0.00176574252765 0)
(1.40280137128 0.00107419440685 0)
(1.40299806895 0.000623234210363 0)
(1.40309929114 0.000336408373601 0)
(1.40314274558 0.000159622359034 0)
(1.40315300741 5.51635934716e-05 0)
(1.40314551989 -2.99845105314e-06 0)
(1.40312976208 -3.21225002118e-05 0)
(1.40311136188 -4.38896508666e-05 0)
(1.40309332631 -4.57595282375e-05 0)
(1.40307717994 -4.24172561282e-05 0)
(1.40306352432 -3.67263067928e-05 0)
(1.40305243314 -3.03634590605e-05 0)
(1.4030437046 -2.4243339186e-05 0)
(1.40303701328 -1.88130475417e-05 0)
(1.40303199792 -1.42410151716e-05 0)
(1.40302830852 -1.05293561514e-05 0)
(1.40302564713 -7.57742014554e-06 0)
(1.40302378146 -5.26037062874e-06 0)
(1.403022535 -3.45535293043e-06 0)
(1.4030217571 -2.01868088376e-06 0)
(1.40302128214 -8.45762456667e-07 0)
(1.40302091498 8.68169820428e-08 0)
(1.40302058841 7.96794842146e-07 0)
(1.40302038495 1.28705470441e-06 0)
(1.40302029116 1.659837629e-06 0)
(1.40302021456 1.98096332448e-06 0)
(1.40302012082 2.28780534546e-06 0)
(1.40302000298 2.59853123642e-06 0)
(1.4030198595 2.92257275815e-06 0)
(1.40301969227 3.26477154958e-06 0)
(1.40301950179 3.62627460975e-06 0)
(1.40301928068 3.99590121046e-06 0)
(1.40301904134 4.33274529332e-06 0)
(1.40301881729 4.60605440989e-06 0)
(1.40301863625 4.77787149887e-06 0)
(1.40301852386 4.79102290986e-06 0)
(1.40301849941 4.55786011366e-06 0)
(1.40301856673 3.93577668824e-06 0)
(1.40301871299 2.71996107514e-06 0)
(1.40301898388 7.90193870861e-07 0)
(1.40301957514 -2.21616945688e-06 0)
(1.40302061971 -7.1275571917e-06 0)
(1.40302203252 -1.47285919056e-05 0)
(1.40302347817 -2.63343707463e-05 0)
(1.40302446421 -4.37886648513e-05 0)
(1.40302423926 -7.00688104944e-05 0)
(1.40302130709 -0.000109760134824 0)
(1.40301291429 -0.000169887387921 0)
(1.40299424288 -0.000261332075497 0)
(1.40295709257 -0.000400958495434 0)
(1.40288748312 -0.000614827262769 0)
(1.40276163217 -0.000943583620749 0)
(1.40253947978 -0.00145064681383 0)
(1.40215457988 -0.00223445835197 0)
(1.40149515687 -0.00344426358353 0)
(1.40037258381 -0.00530413377049 0)
(1.39847313663 -0.00813743141892 0)
(1.39528292308 -0.0123798714797 0)
(1.38998761845 -0.01854387355 0)
(1.38143702435 -0.0270693811301 0)
(1.36813168622 -0.0380412421084 0)
(1.34767393658 -0.0505709781329 0)
(0.994011531877 0.0192358064081 0)
(1.03484763852 0.0523338403889 0)
(1.09199263243 0.0723631273345 0)
(1.15662420784 0.0791292318753 0)
(1.22032117411 0.0761045462682 0)
(1.27701946626 0.0673339714756 0)
(1.32424420545 0.056150903646 0)
(1.36181575526 0.0447990112679 0)
(1.39068532989 0.0345303779859 0)
(1.41226077436 0.0258814329388 0)
(1.42801824782 0.0189465244993 0)
(1.43929886836 0.0135849825535 0)
(1.44722810275 0.00955653464908 0)
(1.45270415951 0.00660011565045 0)
(1.4564189856 0.00447419034573 0)
(1.45889147257 0.00297351345269 0)
(1.46050233878 0.00193276859083 0)
(1.46152573723 0.00122369366479 0)
(1.46215575467 0.000749550430275 0)
(1.46252758113 0.000439017678654 0)
(1.46273385995 0.000240521165525 0)
(1.46283700441 0.000117412105137 0)
(1.4628783086 4.40497889102e-05 0)
(1.46288454929 2.69148516075e-06 0)
(1.46287242645 -1.84434559685e-05 0)
(1.46285207666 -2.74370798895e-05 0)
(1.46282952701 -2.94367465111e-05 0)
(1.46280799037 -2.7686578427e-05 0)
(1.46278899456 -2.41844383399e-05 0)
(1.46277308396 -2.01115265698e-05 0)
(1.46276024976 -1.61164964021e-05 0)
(1.46275019758 -1.25221115993e-05 0)
(1.46274251677 -9.45498247237e-06 0)
(1.46273677507 -6.92596662891e-06 0)
(1.46273257375 -4.88131218072e-06 0)
(1.46272957045 -3.25167726742e-06 0)
(1.46272747679 -1.97399491781e-06 0)
(1.46272603573 -1.00715467155e-06 0)
(1.46272503599 -3.05984149191e-07 0)
(1.4627244128 2.17146944829e-07 0)
(1.46272405232 7.00452321738e-07 0)
(1.46272380554 1.17860017577e-06 0)
(1.46272364015 1.60535009361e-06 0)
(1.46272351665 1.98791772333e-06 0)
(1.46272340559 2.34761231484e-06 0)
(1.46272328787 2.69796086028e-06 0)
(1.46272314993 3.04450233465e-06 0)
(1.46272298314 3.38536439274e-06 0)
(1.46272278293 3.71126388801e-06 0)
(1.46272254665 4.01056779306e-06 0)
(1.46272227744 4.27570999295e-06 0)
(1.46272198282 4.47518003691e-06 0)
(1.46272166941 4.55843776126e-06 0)
(1.46272134614 4.45593419553e-06 0)
(1.4627210268 4.07676107294e-06 0)
(1.46272073146 3.30922022984e-06 0)
(1.46272045908 2.03263691367e-06 0)
(1.4627201051 1.555445907e-07 0)
(1.46271949417 -2.61689428177e-06 0)
(1.46271850347 -7.09219594166e-06 0)
(1.46271687782 -1.40675665332e-05 0)
(1.46271393803 -2.46383037206e-05 0)
(1.46270855506 -4.0341926153e-05 0)
(1.46269891326 -6.35528477545e-05 0)
(1.46268194363 -9.78657289456e-05 0)
(1.46265248562 -0.000148660538201 0)
(1.46260202048 -0.000224133037323 0)
(1.46251677937 -0.000336723474358 0)
(1.46237423646 -0.000505019017482 0)
(1.46213743795 -0.000757469283358 0)
(1.4617464113 -0.00113796773599 0)
(1.46110642555 -0.00171397467929 0)
(1.46006600513 -0.00258139437068 0)
(1.45838376507 -0.00388002319971 0)
(1.45568515071 -0.00580258682657 0)
(1.45140372567 -0.00859276101693 0)
(1.44471745561 -0.0125115820078 0)
(1.43455470193 -0.0177408001677 0)
(1.4196520325 -0.0242304432538 0)
(1.39815750202 -0.0314366494691 0)
(0.99326966785 0.00617015030809 0)
(1.03158100254 0.0171020458309 0)
(1.08672182349 0.0239906483535 0)
(1.15174555237 0.0265606656215 0)
(1.21823537326 0.0258180588236 0)
(1.27925775443 0.0230488863278 0)
(1.33140137527 0.0193656318508 0)
(1.37377600557 0.0155468585136 0)
(1.4069105548 0.0120449308924 0)
(1.43203315749 0.00906640048662 0)
(1.45060217409 0.00666059552963 0)
(1.46402988436 0.00479009224959 0)
(1.47355018811 0.00337842911747 0)
(1.48017566259 0.00233873900719 0)
(1.48470231803 0.00158891494108 0)
(1.48773623662 0.00105829001924 0)
(1.48972737671 0.000689463944575 0)
(1.49100280931 0.00043763963492 0)
(1.49179589209 0.00026888703508 0)
(1.49227026555 0.00015811248784 0)
(1.49253876045 8.7126169566e-05 0)
(1.49267783995 4.2976577613e-05 0)
(1.49273837644 1.65868173386e-05 0)
(1.49275355327 1.6664527757e-06 0)
(1.49274431908 -6.06609136096e-06 0)
(1.49272353353 -9.41108734406e-06 0)
(1.49269889177 -1.02169981128e-05 0)
(1.49267462185 -9.65346509234e-06 0)
(1.4926528212 -8.43925912309e-06 0)
(1.4926343313 -6.99235364337e-06 0)
(1.49261927481 -5.55293802224e-06 0)
(1.4926073895 -4.24106038092e-06 0)
(1.4925982458 -3.10415528265e-06 0)
(1.49259136814 -2.14840362649e-06 0)
(1.49258630245 -1.35764370642e-06 0)
(1.49258264852 -7.1008618173e-07 0)
(1.4925800706 -1.84285145041e-07 0)
(1.49257829892 2.41776804232e-07 0)
(1.49257712727 6.14532284906e-07 0)
(1.49257637809 9.84862576527e-07 0)
(1.49257589801 1.29144872602e-06 0)
(1.49257559494 1.57799692228e-06 0)
(1.49257541132 1.86178037528e-06 0)
(1.49257529453 2.15316933336e-06 0)
(1.4925752054 2.45947319074e-06 0)
(1.49257511758 2.78360105096e-06 0)
(1.4925750125 3.12504859291e-06 0)
(1.49257487676 3.47990967786e-06 0)
(1.49257470023 3.83983299003e-06 0)
(1.49257447431 4.19100115641e-06 0)
(1.49257419326 4.51381889827e-06 0)
(1.49257385314 4.77641917717e-06 0)
(1.49257344744 4.93444670076e-06 0)
(1.49257296472 4.92749352834e-06 0)
(1.49257238435 4.67291111534e-06 0)
(1.49257167777 4.0565741118e-06 0)
(1.49257083328 2.92865803951e-06 0)
(1.49256972322 1.16121751059e-06 0)
(1.49256791801 -1.44949246488e-06 0)
(1.49256510213 -5.45670811466e-06 0)
(1.49256089819 -1.14605694965e-05 0)
(1.4925542921 -2.02201220946e-05 0)
(1.49254365842 -3.28113399635e-05 0)
(1.49252644466 -5.07795670112e-05 0)
(1.49249853451 -7.6312665749e-05 0)
(1.49245319754 -0.000112405575173 0)
(1.4923795599 -0.000163462724845 0)
(1.49226056586 -0.00023590518241 0)
(1.49206875721 -0.000338186931291 0)
(1.49175931624 -0.000482959381521 0)
(1.49126010259 -0.000690783120407 0)
(1.49046226863 -0.000994548010252 0)
(1.48919581239 -0.00142682058467 0)
(1.48719442702 -0.00203532686343 0)
(1.48405896967 -0.0028815100146 0)
(1.47920840849 -0.00403296603919 0)
(1.4718339919 -0.00554418391099 0)
(1.46091929068 -0.00741702372519 0)
(1.44531269029 -0.00955796760817 0)
(1.42339808094 -0.011719103038 0)
(0.993270465645 -0.00616840213227 0)
(1.03158098511 -0.0171003764637 0)
(1.08672175712 -0.023989762358 0)
(1.15174558995 -0.0265602475886 0)
(1.21823545105 -0.0258179936583 0)
(1.27925785635 -0.0230491104484 0)