/*--------------------------------*- C++ -*----------------------------------*\
| =========                 |                                                 |
| \\      /  F ield         | OpenFOAM: The Open Source CFD Toolbox           |
|  \\    /   O peration     | Version:  2106                                  |
|   \\  /    A nd           | Website:  www.openfoam.com                      |
|    \\/     M anipulation  |                                                 |
\*---------------------------------------------------------------------------*/
FoamFile
{
    version     2.0;
    format      ascii;
    arch        "LSB;label=32;scalar=64";
    class       volVectorField;
    location    "0.25";
    object      U;
}
// * * * * * * * * * * * * * * * * * * * * * * * * * * * * * * * * * * * * * //

dimensions      [0 1 -1 0 0 0 0];

internalField   nonuniform List<vector> 
11200
(
(0.662462403201 0.150569444041 0)
(0.558948669671 0.103243389484 0)
(0.383850729426 0.0513512252029 0)
(0.283747584528 0.0248708561141 0)
(0.23207525713 0.0124170459354 0)
(0.201908571748 0.00662281743743 0)
(0.183197916063 0.00380291493841 0)
(0.171276469544 0.0023158705131 0)
(0.163510284657 0.00146450695365 0)
(0.158388744902 0.000944892789262 0)
(0.155006602702 0.000615177243958 0)
(0.1527866437 0.00040223412982 0)
(0.151346489127 0.000264232513564 0)
(0.150428247305 0.000175250409331 0)
(0.149856637976 0.000118360891848 0)
(0.149512431358 8.21601601764e-05 0)
(0.149314865269 5.88660189199e-05 0)
(0.149209497483 4.33157315603e-05 0)
(0.149159631408 3.29343536205e-05 0)
(0.149142383895 2.81863398611e-05 0)
(0.14914453102 2.76844464519e-05 0)
(0.149156796629 2.98902679267e-05 0)
(0.149172407162 3.30507428471e-05 0)
(0.149187942914 3.59664116147e-05 0)
(0.149202139505 3.86019768909e-05 0)
(0.149214397059 4.10410917304e-05 0)
(0.149224547942 4.33184025336e-05 0)
(0.149232699032 4.5465048362e-05 0)
(0.149239086982 4.75202912093e-05 0)
(0.14924399377 4.95311752313e-05 0)
(0.149247704408 5.15597275675e-05 0)
(0.149250486319 5.36969330162e-05 0)
(0.149252536585 5.60254723524e-05 0)
(0.149254025365 5.84068319363e-05 0)
(0.149255085224 6.07678559194e-05 0)
(0.149255802688 6.30889578974e-05 0)
(0.149256274641 6.53803919285e-05 0)
(0.149256584714 6.76550605762e-05 0)
(0.149256786568 6.99245738951e-05 0)
(0.149256909423 7.21950592872e-05 0)
(0.149256974275 7.44675966181e-05 0)
(0.149256998438 7.67431534965e-05 0)
(0.149256994113 7.90214356444e-05 0)
(0.149256970071 8.13013219665e-05 0)
(0.149256932522 8.35810762516e-05 0)
(0.149256886031 8.58583546578e-05 0)
(0.149256834551 8.81303784258e-05 0)
(0.149256782087 9.03940881065e-05 0)
(0.149256733012 9.2646364488e-05 0)
(0.149256692396 9.48841854805e-05 0)
(0.149256667118 9.71044563827e-05 0)
(0.149256666851 9.93042776525e-05 0)
(0.14925670478 0.000101480683457 0)
(0.149256799084 0.000103630312332 0)
(0.149256975325 0.000105748904353 0)
(0.149257269865 0.000107830830298 0)
(0.149257733236 0.000109869335114 0)
(0.149258439476 0.000111854524168 0)
(0.14925949773 0.000113773742029 0)
(0.149261065658 0.000115602614576 0)
(0.149263386825 0.000117286019714 0)
(0.14926686903 0.000118737945684 0)
(0.149271984843 0.000119997263556 0)
(0.149279378579 0.000121254492249 0)
(0.149290080622 0.00012296893645 0)
(0.149305610726 0.000125337440729 0)
(0.149328352802 0.000128119068073 0)
(0.149362002701 0.000131084634335 0)
(0.149412154651 0.000134017252119 0)
(0.149487042626 0.000136802081235 0)
(0.149598611603 0.00014071345768 0)
(0.149769698878 0.000151573143987 0)
(0.150038094373 0.0001723184325 0)
(0.150466995986 0.00020259999073 0)
(0.151192263069 0.000232558425598 0)
(0.152491692422 0.000191741152378 0)
(0.15502174556 -0.000216997811376 0)
(0.162377629538 -0.00211182244584 0)
(0.187717393517 -0.0107971269731 0)
(0.204419487954 -0.0497056659662 0)
(0.965408253375 0.289214708451 0)
(0.961962853648 0.252656041026 0)
(0.8235743785 0.159021442327 0)
(0.69813934833 0.095995731721 0)
(0.610225436071 0.0582481144943 0)
(0.54897145627 0.0362148534328 0)
(0.506588845197 0.0231612852892 0)
(0.47756721641 0.01513751542 0)
(0.457745429815 0.0100177552308 0)
(0.444228389129 0.00665814125507 0)
(0.435053217219 0.00441555634426 0)
(0.428873026971 0.00290686587396 0)
(0.424754100755 0.00189105835523 0)
(0.422046540831 0.00121004515031 0)
(0.420297693821 0.000757163092354 0)
(0.419193075002 0.000459255402711 0)
(0.418515460304 0.000265854169293 0)
(0.41811630399 0.000142398896242 0)
(0.417895691538 6.61086173564e-05 0)
(0.41778663182 2.30916129403e-05 0)
(0.417745208515 1.40696804141e-06 0)
(0.417741922861 -1.01637241659e-05 0)
(0.417756512754 -1.37151208103e-05 0)
(0.417778464024 -1.32685186229e-05 0)
(0.417802751393 -1.08362630654e-05 0)
(0.417826115549 -7.49319190011e-06 0)
(0.417846863151 -3.87684991279e-06 0)
(0.417864395486 -3.57328353831e-07 0)
(0.417878716382 2.86391579617e-06 0)
(0.417890141195 5.68299785704e-06 0)
(0.417899141691 8.03562238622e-06 0)
(0.417906211268 9.83741135845e-06 0)
(0.417911551888 1.10061723548e-05 0)
(0.417915397466 1.18585954108e-05 0)
(0.417918125769 1.26804536317e-05 0)
(0.417920011791 1.3437272152e-05 0)
(0.417921297873 1.41111841026e-05 0)
(0.417922175358 1.47263896916e-05 0)
(0.417922770475 1.53118560315e-05 0)
(0.417923154822 1.58811594115e-05 0)
(0.41792338112 1.64347042534e-05 0)
(0.417923492772 1.69775906105e-05 0)
(0.417923520493 1.75134869283e-05 0)
(0.417923486752 1.80457620943e-05 0)
(0.417923407693 1.85775576272e-05 0)
(0.417923295338 1.91112346222e-05 0)
(0.417923160036 1.96487688185e-05 0)
(0.417923012208 2.01921061372e-05 0)
(0.417922863402 2.07434009347e-05 0)
(0.417922727041 2.13044384909e-05 0)
(0.417922621038 2.18753498595e-05 0)
(0.417922570191 2.2456284042e-05 0)
(0.41792260803 2.30472246192e-05 0)
(0.417922780529 2.36477218455e-05 0)
(0.417923152177 2.42568223269e-05 0)
(0.417923815508 2.48734007544e-05 0)
(0.417924900506 2.54966045631e-05 0)
(0.417926598056 2.61140719775e-05 0)
(0.417929185073 2.67076595777e-05 0)
(0.41793304987 2.72472391152e-05 0)
(0.41793878653 2.76865621433e-05 0)
(0.41794749109 2.79681249173e-05 0)
(0.417960657638 2.82521268903e-05 0)
(0.417980417323 2.7816541196e-05 0)
(0.418009544481 2.52459741375e-05 0)
(0.41805164415 1.94432031414e-05 0)
(0.418112887433 9.60422273024e-06 0)
(0.418203393791 -5.80060889534e-06 0)
(0.418338770735 -2.92957505769e-05 0)
(0.418543923966 -6.45655783405e-05 0)
(0.41886077284 -0.000115810498509 0)
(0.419358968597 -0.000188013547359 0)
(0.420152066889 -0.000307877091496 0)
(0.421443883246 -0.000533029605914 0)
(0.423626392923 -0.00100041013199 0)
(0.427418966702 -0.00209203118317 0)
(0.434245197413 -0.00486039132651 0)
(0.448283292544 -0.0122647891761 0)
(0.474688896923 -0.034272508827 0)
(0.478265066355 -0.0988672931301 0)
(1.02222096413 0.238416187031 0)
(1.08213752337 0.295926652086 0)
(1.03447721288 0.23950306553 0)
(0.954615388703 0.174290163371 0)
(0.879992028104 0.121345467209 0)
(0.8186144007 0.0830993828707 0)
(0.771410808206 0.0567316658674 0)
(0.736634340802 0.0387409673084 0)
(0.711624375265 0.0264327858131 0)
(0.69391655613 0.017973103514 0)
(0.681541339146 0.0121424467588 0)
(0.673000039398 0.00812490699029 0)
(0.667180566866 0.00536631979893 0)
(0.663271589226 0.00348444347386 0)
(0.660688410116 0.00221256020967 0)
(0.659014077653 0.00136338047197 0)
(0.657954388373 0.000805242419525 0)
(0.657304086866 0.000445915203829 0)
(0.656921659631 0.000221067113597 0)
(0.656710085314 8.55795477396e-05 0)
(0.656603211982 8.35615612149e-06 0)
(0.656561653956 -3.37215475466e-05 0)
(0.65655774436 -5.6856009282e-05 0)
(0.656571210726 -6.68750802003e-05 0)
(0.656592731048 -6.84824854691e-05 0)
(0.656616541798 -6.55610538417e-05 0)
(0.656639335695 -6.05500963028e-05 0)
(0.656659505893 -5.4860284316e-05 0)
(0.656676467128 -4.92760966322e-05 0)
(0.656690197234 -4.42045099683e-05 0)
(0.65670094264 -3.98404004257e-05 0)
(0.656709087513 -3.63022230501e-05 0)
(0.656715327797 -3.36959646593e-05 0)
(0.65672035384 -3.18572252809e-05 0)
(0.656724209012 -3.08107685224e-05 0)
(0.656726908456 -3.03038038431e-05 0)
(0.656728764048 -3.02483870728e-05 0)
(0.656730055262 -3.0559306072e-05 0)
(0.656730949468 -3.10868020608e-05 0)
(0.656731536569 -3.17485044771e-05 0)
(0.656731890882 -3.25148615796e-05 0)
(0.656732077684 -3.33507739876e-05 0)
(0.656732142154 -3.42317378319e-05 0)
(0.656732118278 -3.51384505816e-05 0)
(0.656732030599 -3.60555109003e-05 0)
(0.656731897488 -3.69722051467e-05 0)
(0.656731734935 -3.78810162962e-05 0)
(0.656731558846 -3.87764343818e-05 0)
(0.656731385941 -3.96535345242e-05 0)
(0.656731234181 -4.05070983583e-05 0)
(0.656731128076 -4.133334079e-05 0)
(0.656731103028 -4.21281996168e-05 0)
(0.656731207488 -4.28898451562e-05 0)
(0.656731508816 -4.36209801257e-05 0)
(0.656732102754 -4.43341391615e-05 0)
(0.656733126976 -4.50601869352e-05 0)
(0.656734767467 -4.58512056523e-05 0)
(0.656737296521 -4.68031590386e-05 0)
(0.656741121852 -4.80426673813e-05 0)
(0.656746841576 -4.97829478628e-05 0)
(0.656755373554 -5.25219652832e-05 0)
(0.656768363299 -5.73057509289e-05 0)
(0.656787160651 -6.49031899958e-05 0)
(0.656813198046 -7.62002119197e-05 0)
(0.656850273401 -9.28760878495e-05 0)
(0.656905094486 -0.000117342609567 0)
(0.656987060032 -0.000152799751339 0)
(0.657109962896 -0.000204535557116 0)
(0.657295624247 -0.000281077474705 0)
(0.657579455965 -0.000396315841358 0)
(0.658019628375 -0.000574627866572 0)
(0.658705417784 -0.000863326782186 0)
(0.659784022335 -0.00135258316738 0)
(0.661513252725 -0.00221569259815 0)
(0.664335790544 -0.00381556381904 0)
(0.668948352354 -0.00695180859175 0)
(0.676378570814 -0.0133649923503 0)
(0.688637331732 -0.0268708200042 0)
(0.705288606699 -0.0563812307461 0)
(0.700582122076 -0.113226287159 0)
(1.02251475313 0.170807151859 0)
(1.10138975048 0.276496477669 0)
(1.11752424696 0.266664798114 0)
(1.0921465841 0.219901697677 0)
(1.05187812703 0.168168846191 0)
(1.01020818709 0.12356739514 0)
(0.973494644588 0.0888375199584 0)
(0.943864500481 0.0630063699514 0)
(0.921142734492 0.0442232025222 0)
(0.904283998023 0.0307423912144 0)
(0.892074784653 0.0211562926453 0)
(0.883404417288 0.0143954671189 0)
(0.877352568314 0.00966794685947 0)
(0.873197596672 0.00639383590302 0)
(0.870392811287 0.00415116353683 0)
(0.868533913881 0.00263448953359 0)
(0.867327508265 0.00162401584052 0)
(0.866564096246 0.000962674224299 0)
(0.866096329891 0.000539120420965 0)
(0.865822078672 0.000275151369971 0)
(0.865671225965 0.000117066067706 0)
(0.865594966645 2.87902480665e-05 0)
(0.8655639001 -1.93267755444e-05 0)
(0.865561083686 -4.12630257992e-05 0)
(0.865572419548 -4.76670261023e-05 0)
(0.865589418211 -4.55262869229e-05 0)
(0.865607720692 -3.91566310203e-05 0)
(0.86562505303 -3.11455583766e-05 0)
(0.865640331361 -2.29642069831e-05 0)
(0.865653188625 -1.53802238513e-05 0)
(0.865663656368 -8.72233298405e-06 0)
(0.865671938022 -3.04325227038e-06 0)
(0.865678285911 1.73546819656e-06 0)
(0.865682907742 5.46674417508e-06 0)
(0.865686221429 8.03376370048e-06 0)
(0.865688614078 9.79074548298e-06 0)
(0.865690240483 1.11443645316e-05 0)
(0.865691397017 1.22892422185e-05 0)
(0.865692259309 1.32582041988e-05 0)
(0.865692845856 1.41448231016e-05 0)
(0.865693204828 1.49403011944e-05 0)
(0.865693400634 1.56673022429e-05 0)
(0.865693472157 1.63413812985e-05 0)
(0.865693450832 1.69790765364e-05 0)
(0.865693358731 1.75950123081e-05 0)
(0.865693211892 1.81994493941e-05 0)
(0.865693025296 1.88001649031e-05 0)
(0.865692815625 1.94041670515e-05 0)
(0.865692603024 2.00206863636e-05 0)
(0.865692410253 2.0655307229e-05 0)
(0.865692267658 2.12946305581e-05 0)
(0.865692216514 2.19266625771e-05 0)
(0.865692310101 2.2535129237e-05 0)
(0.865692618291 2.30940166392e-05 0)
(0.865693233255 2.35648527888e-05 0)
(0.865694288162 2.39057962714e-05 0)
(0.865695963809 2.40939827562e-05 0)
(0.865698543647 2.40060528998e-05 0)
(0.865702436122 2.34869465415e-05 0)
(0.865708066994 2.21361357186e-05 0)
(0.865715850938 1.93698701204e-05 0)
(0.865727425589 1.4538859922e-05 0)
(0.865745403836 5.79453675657e-06 0)
(0.865772728444 -8.49593100921e-06 0)
(0.865813282822 -3.03265417916e-05 0)
(0.865872974785 -6.36339082861e-05 0)
(0.865961134067 -0.000115297572126 0)
(0.86609226862 -0.000196088626733 0)
(0.866288930211 -0.000323282409195 0)
(0.866585951368 -0.000525382240229 0)
(0.867036970975 -0.000851385988936 0)
(0.867727125212 -0.00138831782198 0)
(0.868792895881 -0.00228511812057 0)
(0.870447785608 -0.00381669097235 0)
(0.873011131373 -0.00650790373874 0)
(0.87688260049 -0.011369412368 0)
(0.88238592005 -0.0202728549763 0)
(0.889705973609 -0.0364941483388 0)
(0.896399280449 -0.0655754969159 0)
(0.886592903951 -0.110208314309 0)
(1.01287874926 0.118961022763 0)
(1.08820669996 0.231806936192 0)
(1.13741365507 0.253106763895 0)
(1.15409084319 0.228992752834 0)
(1.1499420764 0.188368358182 0)
(1.13538461338 0.146579843331 0)
(1.11758889772 0.110150964992 0)
(1.10059494266 0.0808162213238 0)
(1.0861245028 0.058226575527 0)
(1.07459084714 0.0413189840527 0)
(1.06579138051 0.0289160192377 0)
(1.05928789403 0.019960098976 0)
(1.05459966022 0.0135815591158 0)
(1.05129065348 0.00909744220602 0)
(1.04899972709 0.00598615300001 0)
(1.04744327535 0.00385696546116 0)
(1.04640639333 0.00242159693998 0)
(1.04573046937 0.00147014908397 0)
(1.04530090519 0.000851700828906 0)
(1.04503639913 0.000459015171382 0)
(1.04488002768 0.000216755684434 0)
(1.04479240269 7.30166719624e-05 0)
(1.04474852913 -5.50503931001e-06 0)
(1.04473162168 -4.40091459826e-05 0)
(1.04472936323 -5.93861261357e-05 0)
(1.0447348398 -6.17195879232e-05 0)
(1.04474378063 -5.72457906369e-05 0)
(1.04475365777 -4.98036681004e-05 0)
(1.04476309157 -4.16443167642e-05 0)
(1.04477141185 -3.39887086766e-05 0)
(1.04477836819 -2.74231779369e-05 0)
(1.04478394789 -2.21511963309e-05 0)
(1.044788297 -1.81277534992e-05 0)
(1.04479162659 -1.5138961577e-05 0)
(1.04479419143 -1.28075409461e-05 0)
(1.04479628503 -1.101107382e-05 0)
(1.0447980186 -9.52188834815e-06 0)
(1.04479933759 -8.23204983957e-06 0)
(1.04480031213 -7.21299442649e-06 0)
(1.04480099316 -6.54416159998e-06 0)
(1.04480140242 -6.16446964734e-06 0)
(1.04480162674 -5.95551637728e-06 0)
(1.04480171173 -5.86690067448e-06 0)
(1.04480169584 -5.84853402783e-06 0)
(1.04480160374 -5.86031301628e-06 0)
(1.0448014532 -5.88257895856e-06 0)
(1.04480126227 -5.90588475255e-06 0)
(1.04480105284 -5.92692624937e-06 0)
(1.04480084594 -5.95138620752e-06 0)
(1.04480064763 -5.98591829808e-06 0)
(1.04480047699 -6.01520744128e-06 0)
(1.0448003783 -6.03800578266e-06 0)
(1.04480040474 -6.06071426838e-06 0)
(1.04480062834 -6.09758117394e-06 0)
(1.04480116412 -6.18268804623e-06 0)
(1.0448022095 -6.41588842377e-06 0)
(1.0448039497 -7.06810606999e-06 0)
(1.04480664961 -8.4169314245e-06 0)
(1.04481063326 -1.09456775434e-05 0)
(1.04481636336 -1.47580856532e-05 0)
(1.04482486988 -1.97140732338e-05 0)
(1.04483729923 -2.58992402308e-05 0)
(1.04485489605 -3.56338493645e-05 0)
(1.04487997571 -5.18924914178e-05 0)
(1.04491600605 -7.89034760329e-05 0)
(1.04496812915 -0.000122919679984 0)
(1.04504394202 -0.00019371954225 0)
(1.04515478583 -0.000306892419036 0)
(1.04531780085 -0.000487624048031 0)
(1.04555885057 -0.000776979072062 0)
(1.04591663298 -0.00124235159971 0)
(1.04644904252 -0.00199550497137 0)
(1.04724026968 -0.00322721637798 0)
(1.04840341361 -0.00526869967057 0)
(1.05006605971 -0.00869759132117 0)
(1.05228530071 -0.0145090998195 0)
(1.05481771377 -0.0243129826729 0)
(1.05687419303 -0.0404241311224 0)
(1.05574845283 -0.0656904087544 0)
(1.04213869592 -0.0996279887303 0)
(1.00447483269 0.081403996872 0)
(1.0691723647 0.181288538318 0)
(1.13080566989 0.216950418092 0)
(1.17374997902 0.210789154827 0)
(1.19865261929 0.183690076085 0)
(1.21019983956 0.149751682455 0)
(1.21350250901 0.116779143103 0)
(1.2125171838 0.0882206767127 0)
(1.20973091795 0.0650481495776 0)
(1.20651112275 0.047020907394 0)
(1.20351905124 0.0334068069242 0)
(1.20101136178 0.0233557308794 0)
(1.1990343529 0.0160720121937 0)
(1.19753867287 0.010879512121 0)
(1.19644119964 0.00723418654922 0)
(1.19565546214 0.0047135170694 0)
(1.19510475756 0.0029976277769 0)
(1.19472633578 0.00184915964353 0)
(1.19447134597 0.00109495931479 0)
(1.19430302683 0.000610610372414 0)
(1.19419437868 0.000307985718031 0)
(1.19412608518 0.000125767851175 0)
(1.19408502658 2.22226931534e-05 0)
(1.19406175895 -3.24522033589e-05 0)
(1.19404944989 -5.72706572552e-05 0)
(1.19404394252 -6.45961519904e-05 0)
(1.19404243613 -6.23740377832e-05 0)
(1.19404311227 -5.5519208424e-05 0)
(1.1940448553 -4.69420421631e-05 0)
(1.194047007 -3.82559784942e-05 0)
(1.19404919495 -3.02620768267e-05 0)
(1.19405122708 -2.32653126411e-05 0)
(1.19405303427 -1.72892209589e-05 0)
(1.19405461089 -1.22602695876e-05 0)
(1.19405597315 -8.0720155727e-06 0)
(1.19405714023 -4.67042092334e-06 0)
(1.19405808444 -2.05933932527e-06 0)
(1.19405875237 -1.69918744511e-07 0)
(1.19405910359 1.14748119826e-06 0)
(1.19405921414 2.00393616443e-06 0)
(1.19405926509 2.6831692732e-06 0)
(1.19405929242 3.28718052617e-06 0)
(1.19405927061 3.81583036009e-06 0)
(1.19405921635 4.27769642593e-06 0)
(1.19405912445 4.68486633551e-06 0)
(1.19405898567 5.0541704619e-06 0)
(1.19405880224 5.39743278988e-06 0)
(1.19405857996 5.71693004193e-06 0)
(1.19405833286 6.00206420491e-06 0)
(1.19405810324 6.24389219719e-06 0)
(1.19405793253 6.46485882518e-06 0)
(1.19405785081 6.65702111071e-06 0)
(1.19405790772 6.79399193832e-06 0)
(1.19405816388 6.83545401125e-06 0)
(1.19405866191 6.72393719079e-06 0)
(1.19405937189 6.37473177112e-06 0)
(1.19406036669 5.61952902293e-06 0)
(1.1940618086 4.11516689391e-06 0)
(1.19406431848 1.39593401557e-06 0)
(1.19406894105 -2.79568881514e-06 0)
(1.19407628216 -9.23047302544e-06 0)
(1.19408624873 -1.93178420937e-05 0)
(1.19409956349 -3.50532664972e-05 0)
(1.19411821438 -5.93489695706e-05 0)
(1.19414432846 -9.6788423842e-05 0)
(1.19418071723 -0.000154688589649 0)
(1.19423136107 -0.000244703307952 0)
(1.19430188176 -0.000385324176738 0)
(1.19440014829 -0.000606035019377 0)
(1.19453692107 -0.000954222673569 0)
(1.19472624199 -0.00150649782073 0)
(1.19498487877 -0.00238728274988 0)
(1.19532763383 -0.00380008996241 0)
(1.19575177382 -0.00607836165036 0)
(1.19619698942 -0.0097618288941 0)
(1.19644353253 -0.0156958508014 0)
(1.19590438434 -0.0250939878511 0)
(1.19342426944 -0.0394163094747 0)
(1.18666584684 -0.0599126283901 0)
(1.17010488241 -0.0852821316579 0)
(0.998962323572 0.0544316246527 0)
(1.05310955958 0.133401607073 0)
(1.11628266479 0.17077755761 0)
(1.17301269417 0.175143871337 0)
(1.21791242941 0.159583605574 0)
(1.25049853799 0.134951019277 0)
(1.27288486246 0.108411655938 0)
(1.28776716414 0.0838849708563 0)
(1.29745261453 0.0630565713221 0)
(1.30366067674 0.0462999203187 0)
(1.30759226172 0.0333205137566 0)
(1.31005361161 0.023549522996 0)
(1.31157352778 0.0163599067887 0)
(1.31249482287 0.0111713141804 0)
(1.31303850835 0.00749150571292 0)
(1.31334659252 0.00492448480988 0)
(1.31350999905 0.00316295392543 0)
(1.31358662168 0.00197475027651 0)
(1.31361299083 0.00118819499903 0)
(1.31361183429 0.000678627139151 0)
(1.31359698985 0.000357006167211 0)
(1.31357666212 0.000160751856207 0)
(1.31355566142 4.646720059e-05 0)
(1.31353635988 -1.58710566989e-05 0)
(1.31351969613 -4.60592576834e-05 0)
(1.31350600193 -5.70689373918e-05 0)
(1.31349509236 -5.73233101098e-05 0)
(1.3134866303 -5.20844751884e-05 0)
(1.31348022754 -4.45218038993e-05 0)
(1.31347549892 -3.64597262601e-05 0)
(1.31347209334 -2.88712850643e-05 0)
(1.31346970773 -2.22099591191e-05 0)
(1.31346808249 -1.66271969797e-05 0)
(1.31346698937 -1.2130489347e-05 0)
(1.3134662629 -8.65406893654e-06 0)
(1.31346580565 -6.09638488966e-06 0)
(1.31346551632 -4.32022063327e-06 0)
(1.31346530557 -3.11800651098e-06 0)
(1.3134651711 -2.26007003545e-06 0)
(1.31346519866 -1.54221753051e-06 0)
(1.3134653501 -9.65738170838e-07 0)
(1.3134654472 -5.51641928179e-07 0)
(1.31346543882 -1.89987683911e-07 0)
(1.31346535723 1.47963180022e-07 0)
(1.31346522418 4.6048765203e-07 0)
(1.31346505184 7.56433558836e-07 0)
(1.31346484339 1.04801363053e-06 0)
(1.31346460111 1.34665353552e-06 0)
(1.31346433678 1.6644252284e-06 0)
(1.31346408392 1.99860591242e-06 0)
(1.31346386292 2.30062309216e-06 0)
(1.31346368128 2.53386171779e-06 0)
(1.31346356958 2.65461010175e-06 0)
(1.31346357964 2.59905874172e-06 0)
(1.31346379742 2.27941582469e-06 0)
(1.31346434146 1.60147594235e-06 0)
(1.31346520663 5.19264407127e-07 0)
(1.31346643351 -1.16732160533e-06 0)
(1.31346845176 -3.6314946848e-06 0)
(1.31347151738 -7.6012367942e-06 0)
(1.31347580035 -1.43775305579e-05 0)
(1.31348153456 -2.55517966883e-05 0)
(1.31348898524 -4.27066775593e-05 0)
(1.31349863386 -6.90061843853e-05 0)
(1.31351079315 -0.000109478200962 0)
(1.3135255339 -0.00017186867322 0)
(1.31354246337 -0.000268267532539 0)
(1.31356025648 -0.000417635644874 0)
(1.31357569616 -0.000649806835637 0)
(1.31358183804 -0.00101205068964 0)
(1.3135646071 -0.00157946661859 0)
(1.3134965159 -0.00247119628927 0)
(1.3133232267 -0.00387473946628 0)
(1.31293703373 -0.00608290773587 0)
(1.31212773183 -0.00954093945327 0)
(1.31048958306 -0.014891634628 0)
(1.30726849644 -0.0229653382341 0)
(1.30125342141 -0.0346057027725 0)
(1.29057373734 -0.0502548976098 0)
(1.27175189137 -0.0686924232179 0)
(0.995736072076 0.0346338591155 0)
(1.04179513565 0.0905689204605 0)
(1.10222837181 0.121549564227 0)
(1.16491409457 0.129605833311 0)
(1.22202563498 0.122009267674 0)
(1.26951888521 0.106019937635 0)
(1.30680219586 0.0870975552683 0)
(1.33499530476 0.0686366803639 0)
(1.35574471907 0.052369838312 0)
(1.37069610544 0.0389256171893 0)
(1.38128268643 0.0282980725471 0)
(1.38866260131 0.0201712762543 0)
(1.39373025048 0.0141175094209 0)
(1.39715651728 0.00970533496461 0)
(1.39943425148 0.0065505941254 0)
(1.40091956597 0.00433445339179 0)
(1.40186610489 0.0028041435026 0)
(1.40245211813 0.00176574154125 0)
(1.40280120859 0.00107419342097 0)
(1.40299789846 0.000623233225233 0)
(1.40309911297 0.00033640739314 0)
(1.40314255983 0.000159621386082 0)
(1.40315281418 5.51626309621e-05 0)
(1.40314531935 -2.99939132672e-06 0)
(1.40312955439 -3.21234512323e-05 0)
(1.40311114718 -4.38905848603e-05 0)
(1.40309310477 -4.57604381258e-05 0)
(1.40307695174 -4.24181265014e-05 0)
(1.40306328961 -3.67270995371e-05 0)
(1.40305219209 -3.03641601886e-05 0)
(1.40304345742 -2.42439465411e-05 0)
(1.40303676018 -1.88135476495e-05 0)
(1.40303173907 -1.42414128691e-05 0)
(1.40302804412 -1.05296551759e-05 0)
(1.40302537741 -7.57762076522e-06 0)
(1.40302350668 -5.26048176317e-06 0)
(1.40302225539 -3.45537307106e-06 0)
(1.40302147288 -2.01858285278e-06 0)
(1.40302099351 -8.45531482351e-07 0)
(1.4030206221 8.72145492163e-08 0)
(1.40302029145 7.97348289245e-07 0)
(1.4030200842 1.28775780623e-06 0)
(1.40301998684 1.66074014285e-06 0)
(1.40301990683 1.98218048333e-06 0)
(1.40301980988 2.28938693531e-06 0)
(1.40301968909 2.60051586978e-06 0)
(1.40301954297 2.92501198359e-06 0)
(1.40301937351 3.26775347509e-06 0)
(1.40301918122 3.62999202173e-06 0)
(1.40301895891 4.00032816228e-06 0)
(1.40301871917 4.3379808031e-06 0)
(1.40301849559 4.61234307274e-06 0)
(1.40301831591 4.78554739945e-06 0)
(1.40301820584 4.80048121863e-06 0)
(1.40301818483 4.56958739295e-06 0)
(1.40301825632 3.95014235047e-06 0)
(1.4030184055 2.7370810492e-06 0)
(1.40301868212 8.10836668061e-07 0)
(1.40301927773 -2.18698746718e-06 0)
(1.40302032089 -7.09008439502e-06 0)
(1.40302173193 -1.46819151458e-05 0)
(1.40302317413 -2.62773749384e-05 0)
(1.40302415283 -4.37196008317e-05 0)
(1.40302391529 -6.99853665899e-05 0)
(1.40302096397 -0.000109659796213 0)
(1.40301254348 -0.000169767620313 0)
(1.40299383414 -0.000261191584252 0)
(1.40295663363 -0.000400796273477 0)
(1.40288695706 -0.000614644175617 0)
(1.40276101478 -0.000943386227334 0)
(1.40253874358 -0.0014504537789 0)
(1.40215368464 -0.00223429375645 0)
(1.40149403458 -0.00344418071783 0)
(1.40037113219 -0.00530423228224 0)
(1.39847119955 -0.0081378841945 0)
(1.39528024931 -0.0123809700465 0)
(1.38998379447 -0.0185460970108 0)
(1.38143137157 -0.0270734878212 0)
(1.36812306966 -0.0380483690985 0)
(1.34766048759 -0.0505826934785 0)
(0.994011529255 0.0192358052901 0)
(1.0348476276 0.0523338392502 0)
(1.09199261104 0.0723631262229 0)
(1.15662417694 0.0791292307517 0)
(1.22032113387 0.0761045451235 0)
(1.27701941659 0.0673339703287 0)
(1.32424414642 0.0561509024756 0)
(1.36181568692 0.0447990100773 0)
(1.3906852523 0.0345303767839 0)
(1.41226068761 0.0258814317334 0)
(1.42801815204 0.0189465233093 0)
(1.4392987637 0.0135849813946 0)
(1.44722798935 0.00955653351374 0)
(1.45270403754 0.00660011454384 0)
(1.45641885523 0.00447418925996 0)
(1.45889133394 0.00297351236937 0)
(1.46050219205 0.00193276750442 0)
(1.46152558249 0.00122369256804 0)
(1.46215559204 0.00074954932322 0)
(1.46252741072 0.000439016565122 0)
(1.46273368185 0.000240520048759 0)
(1.46283681873 0.000117410987607 0)
(1.46287811547 4.40486762869e-05 0)
(1.46288434882 2.69038860519e-06 0)
(1.4628722188 -1.84445621422e-05 0)
(1.46285186201 -2.74381627404e-05 0)
(1.46282930553 -2.94377869032e-05 0)
(1.46280776225 -2.76875767515e-05 0)
(1.46278875994 -2.41853578265e-05 0)
(1.462772843 -2.01123330624e-05 0)
(1.46276000267 -1.61171965525e-05 0)
(1.46274994457 -1.25227083614e-05 0)
(1.46274225802 -9.45548636778e-06 0)
(1.46273651077 -6.92637592232e-06 0)
(1.46273230413 -4.88162023836e-06 0)
(1.46272929575 -3.25189363193e-06 0)
(1.46272719725 -1.97413029248e-06 0)
(1.46272575158 -1.00720235043e-06 0)
(1.46272474749 -3.0590239416e-07 0)
(1.46272412015 2.17378906835e-07 0)
(1.46272375567 7.00956887464e-07 0)
(1.46272350509 1.17943350342e-06 0)
(1.46272333612 1.60652156651e-06 0)
(1.46272320921 1.98947359738e-06 0)
(1.46272309497 2.3495807883e-06 0)
(1.46272297434 2.70036320479e-06 0)
(1.46272283384 3.04738816767e-06 0)
(1.46272266492 3.38879760117e-06 0)
(1.46272246315 3.71537909446e-06 0)
(1.46272222603 4.01562417811e-06 0)
(1.4627219568 4.28198677523e-06 0)
(1.46272166307 4.48298513619e-06 0)
(1.46272135147 4.56817526484e-06 0)
(1.46272103085 4.46808948135e-06 0)
(1.46272071474 4.09184688255e-06 0)
(1.46272042266 3.32759720596e-06 0)
(1.46272015647 2.05477081437e-06 0)
(1.46271980967 1.84030468223e-07 0)
(1.46271920262 -2.58432077538e-06 0)
(1.46271821417 -7.05213357197e-06 0)
(1.46271658933 -1.40172826465e-05 0)
(1.4627136481 -2.45760751372e-05 0)
(1.46270826035 -4.02655530257e-05 0)
(1.46269860914 -6.34594559828e-05 0)
(1.46268162406 -9.7752021452e-05 0)
(1.46265214195 -0.000148522551558 0)
(1.46260164252 -0.000223968215682 0)
(1.46251635512 -0.00033652743077 0)
(1.46237374733 -0.000504786933356 0)
(1.46213685372 -0.000757201225102 0)
(1.46174570065 -0.00113767965536 0)
(1.46110553922 -0.0017136633196 0)
(1.46006485141 -0.00258108417005 0)
(1.45838220619 -0.00387976945477 0)
(1.45568297456 -0.00580248874851 0)
(1.45140059384 -0.00859298979569 0)
(1.44471282473 -0.0125124200658 0)
(1.43454771403 -0.0177426935391 0)
(1.41964133319 -0.024234055782 0)
(1.3981409861 -0.0314428850104 0)
(0.993269665217 0.00617014920092 0)
(1.03158099158 0.0171020446438 0)
(1.08672180207 0.023990647169 0)
(1.15174552143 0.0265606644371 0)
(1.218235333 0.0258180576203 0)
(1.27925770475 0.0230488851059 0)
(1.33140131624 0.0193656306011 0)
(1.37377593723 0.0155468572469 0)
(1.40691047722 0.0120449296126 0)
(1.43203307076 0.00906639919472 0)
(1.45060207834 0.00666059424889 0)
(1.46402977972 0.00479009099351 0)
(1.47355007474 0.00337842788258 0)
(1.48017554066 0.00233873779217 0)
(1.4847021877 0.00158891374852 0)
(1.48773609802 0.00105828883617 0)
(1.48972722998 0.000689462752611 0)
(1.49100265459 0.000437638422388 0)
(1.49179572948 0.000268885803766 0)
(1.49227009514 0.000158111243756 0)
(1.49253858236 8.71249153763e-05 0)
(1.49267765428 4.29753154366e-05 0)
(1.49273818331 1.6585551744e-05 0)
(1.49275335281 1.66518571091e-06 0)
(1.49274411147 -6.06732665101e-06 0)
(1.49272331893 -9.41228548148e-06 0)
(1.49269867035 -1.02181264619e-05 0)
(1.49267439379 -9.6545192549e-06 0)
(1.49265258667 -8.44024835473e-06 0)
(1.49263409044 -6.99326214654e-06 0)
(1.49261902781 -5.55374041995e-06 0)
(1.49260713657 -4.24176138519e-06 0)
(1.49259798712 -3.10477903493e-06 0)
(1.49259110391 -2.14896156208e-06 0)
(1.4925860329 -1.35812799328e-06 0)
(1.4925823739 -7.1048978615e-07 0)
(1.49257979117 -1.8460162201e-07 0)
(1.49257801491 2.41567379294e-07 0)
(1.4925768389 6.14467591141e-07 0)
(1.49257608557 9.84936290427e-07 0)
(1.49257560155 1.2917165626e-06 0)
(1.49257529473 1.57853939922e-06 0)
(1.49257510758 1.86264619334e-06 0)
(1.49257498745 2.15440758681e-06 0)
(1.4925748952 2.46113916163e-06 0)
(1.49257480454 2.78573910583e-06 0)
(1.492574697 3.12772890615e-06 0)
(1.49257455926 3.48323350447e-06 0)
(1.49257438137 3.84395648541e-06 0)
(1.49257415482 4.19612251991e-06 0)
(1.49257387403 4.5201740406e-06 0)
(1.49257353514 4.78432762386e-06 0)
(1.49257313171 4.94432212705e-06 0)
(1.49257265232 4.93985688525e-06 0)
(1.49257207633 4.68845627739e-06 0)
(1.49257137488 4.0763200809e-06 0)
(1.49257053623 2.9542186694e-06 0)
(1.49256943297 1.18924226283e-06 0)
(1.49256763405 -1.41881331995e-06 0)
(1.49256482293 -5.41543162527e-06 0)
(1.4925606223 -1.1407890492e-05 0)
(1.49255401766 -2.01551690881e-05 0)
(1.49254338282 -3.27314825814e-05 0)
(1.49252616391 -5.06813234722e-05 0)
(1.49249824346 -7.6191747097e-05 0)
(1.49245288769 -0.000112255239907 0)
(1.49237922208 -0.000163278662339 0)
(1.49226019059 -0.000235677485333 0)
(1.49206832539 -0.000337903442334 0)
(1.49175878858 -0.000482619225455 0)
(1.49125945586 -0.000690419146525 0)
(1.49046145902 -0.000994103837854 0)
(1.48919472985 -0.00142627878772 0)
(1.48719291669 -0.00203468790907 0)
(1.48405679414 -0.00288078438157 0)
(1.47920518868 -0.0040321823528 0)
(1.47182912296 -0.00554340004495 0)
(1.46091182843 -0.00741634401576 0)
(1.44530117565 -0.00955756147853 0)
(1.42338029002 -0.0117192027206 0)
(0.993270463012 -0.00616840320176 0)
(1.03158097414 -0.0171003776826 0)
(1.08672173568 -0.0239897636089 0)
(1.15174555899 -0.0265602488376 0)
(1.21823541075 -0.025817994923 0)
(1.27925780665 -0.0230491117344 0)