/*--------------------------------*- C++ -*----------------------------------*\
| =========                 |                                                 |
| \\      /  F ield         | OpenFOAM: The Open Source CFD Toolbox           |
|  \\    /   O peration     | Version:  2106                                  |
|   \\  /    A nd           | Website:  www.openfoam.com                      |
|    \\/     M anipulation  |                                                 |
\*---------------------------------------------------------------------------*/
FoamFile
{
    version     2.0;
    format      ascii;
    arch        "LSB;label=32;scalar=64";
    class       surfaceScalarField;
    location    "0.013";
    object      phi;
}
// * * * * * * * * * * * * * * * * * * * * * * * * * * * * * * * * * * * * * //

dimensions      [0 3 -1 0 0 0 0];

oriented        oriented;

internalField   nonuniform List<scalar> 
799
(
2.08301e-32
5.16482e-32
6.78183e-32
5.99333e-32
3.76305e-32
-2.62859e-32
-8.29685e-32
-1.26182e-31
-1.336e-31
-9.32511e-32
-3.49126e-32
2.98518e-32
7.07584e-32
8.28716e-32
6.35915e-32
2.6601e-32
-2.21241e-32
-7.23819e-32
-1.10332e-31
-1.36002e-31
-1.25604e-31
-8.73091e-32
-2.40109e-32
4.88178e-32
9.13944e-32
1.02403e-31
6.2569e-32
-6.30291e-33
-7.09267e-32
-1.21925e-31
-1.2326e-31
-9.4521e-32
-4.68219e-32
9.51906e-33
3.56258e-32
4.78527e-32
3.17341e-32
-5.15111e-33
-3.40814e-32
-6.98896e-32
-7.80294e-32
-6.47756e-32
-4.05912e-32
6.79342e-33
3.26607e-32
4.35441e-32
2.8178e-32
-2.02796e-32
-5.97715e-32
-9.56375e-32
-9.71815e-32
-6.29852e-32
-1.94838e-32
3.51126e-32
5.9793e-32
5.38771e-32
2.09911e-32
-3.79085e-32
-8.31445e-32
-1.08148e-31
-9.48611e-32
-4.16106e-32
2.05725e-32
7.55634e-32
8.84182e-32
4.76954e-32
-2.60948e-32
-1.09622e-31
-1.55073e-31
-1.37593e-31
-6.62591e-32
3.54333e-32
1.1181e-31
1.28276e-31
8.11268e-32
-1.27237e-32
-9.93058e-32
-1.44011e-31
-1.32583e-31
-7.3411e-32
-7.24753e-33
4.1677e-32
5.69577e-32
4.18641e-32
1.76521e-32
-8.38532e-33
-2.80584e-32
-4.62998e-32
-6.67079e-32
-7.9085e-32
-7.7238e-32
-4.62389e-32
6.19128e-33
5.94616e-32
9.19782e-32
7.29341e-32
1.41836e-32
-6.77561e-32
-1.37283e-31
-1.50812e-31
-1.157e-31
-3.00927e-32
6.05716e-32
1.1364e-31
1.22509e-31
6.43962e-32
-1.50365e-32
-8.89829e-32
-1.33068e-31
-1.16221e-31
-7.25353e-32
-9.9254e-33
3.65686e-32
4.50006e-32
3.3413e-32
2.64364e-33
-1.43422e-32
-1.19836e-32
6.1878e-34
1.43783e-32
4.33076e-33
-2.62839e-32
-6.79315e-32
-9.88589e-32
-9.75393e-32
-6.29614e-32
-3.6856e-33
5.5688e-32
9.34219e-32
9.87077e-32
6.86932e-32
1.62545e-32
-4.47666e-32
-1.00148e-31
-1.32069e-31
-1.34859e-31
-1.01194e-31
-3.71005e-32
3.66e-32
1.01341e-31
1.26594e-31
1.03999e-31
4.07622e-32
-4.34617e-32
-1.08331e-31
-1.34856e-31
-1.11397e-31
-5.11846e-32
1.15095e-32
5.47792e-32
5.55197e-32
2.09039e-32
-2.61484e-32
-6.32969e-32
-6.38799e-32
-3.10406e-32
1.96971e-32
6.13514e-32
6.40959e-32
2.39823e-32
-4.72086e-32
-1.14131e-31
-1.41159e-31
-1.10348e-31
-3.02544e-32
5.89984e-32
1.16975e-31
1.08941e-31
4.23043e-32
-4.77947e-32
-1.18709e-31
-1.25758e-31
-7.95311e-32
-2.23248e-33
6.02726e-32
6.65033e-32
3.03436e-32
-3.87323e-32
-8.85465e-32
-9.0931e-32
-5.49183e-32
1.58082e-32
6.50122e-32
7.81859e-32
4.88344e-32
-1.88215e-32
-7.50812e-32
-1.11841e-31
-1.04476e-31
-5.77388e-32
-2.74144e-33
5.28214e-32
7.54573e-32
6.6498e-32
3.4505e-32
-1.45084e-32
-5.261e-32
-7.7366e-32
-8.17085e-32
-6.4697e-32
-3.88812e-32
-4.13172e-33
2.88131e-32
5.04594e-32
5.67818e-32
3.73064e-32
-2.69028e-33
-4.937e-32
-8.62756e-32
-8.96972e-32
-5.59844e-32
1.81684e-33
5.87273e-32
7.94657e-32
5.06807e-32
-1.74282e-32
-9.30006e-32
-1.30542e-31
-1.04826e-31
-2.25093e-32
8.01488e-32
1.46649e-31
1.36548e-31
4.98338e-32
-7.94401e-32
-1.84345e-31
-2.09469e-31
-1.42635e-31
-6.5933e-33
1.27199e-31
1.95426e-31
1.70158e-31
5.64488e-32
-8.03193e-32
-1.80569e-31
-2.02355e-31
-1.33174e-31
-2.12409e-32
8.75787e-32
1.44735e-31
1.25969e-31
5.58745e-32
-3.651e-32
-1.06088e-31
-1.24168e-31
-9.35365e-32
-3.12362e-32
2.84105e-32
5.63681e-32
4.32085e-32
3.15672e-33
-3.96411e-32
-5.46857e-32
-3.12723e-32
1.17692e-32
5.24146e-32
5.4558e-32
1.07032e-32
-5.45821e-32
-1.13582e-31
-1.22744e-31
-7.43484e-32
5.73566e-33
8.49031e-32
1.16293e-31
8.75335e-32
2.10631e-32
-5.5548e-32
-1.00275e-31
-9.87912e-32
-6.87903e-32
-2.28915e-32
8.13884e-33
1.74221e-32
1.89216e-32
9.87697e-33
8.43949e-33
7.59539e-33
-2.39989e-33
-1.14039e-32
-2.72888e-32
-3.36857e-32
-2.8913e-32
-2.43914e-32
-2.11326e-32
-3.24956e-32
-4.76068e-32
-5.0133e-32
-2.83345e-32
1.94425e-32
6.94454e-32
9.04465e-32
5.7978e-32
-2.04384e-32
-1.13024e-31
-1.68188e-31
-1.51052e-31
-6.81538e-32
4.68971e-32
1.27834e-31
1.36293e-31
6.96765e-32
-3.98607e-32
-1.2496e-31
-1.51253e-31
-1.07069e-31
-2.31593e-32
4.47026e-32
7.03228e-32
3.97484e-32
-1.62064e-32
-5.84324e-32
-6.90988e-32
-3.94201e-32
-1.43768e-33
1.95055e-32
1.11079e-32
-2.72369e-32
-6.17938e-32
-7.50556e-32
-5.59154e-32
-1.05975e-32
2.58135e-32
3.92534e-32
1.50642e-32
-3.51781e-32
-7.65331e-32
-9.45519e-32
-6.7092e-32
-1.02052e-32
4.38646e-32
7.53229e-32
5.16315e-32
-9.33192e-33
-8.2956e-32
-1.38659e-31
-1.34377e-31
-8.21138e-32
4.90661e-33
8.32592e-32
1.00084e-31
4.08621e-32
-9.176e-32
-2.94214e-31
-3.47925e-31
-3.03174e-31
5.57617e-31
2.47161e-30
5.56811e-30
1.19163e-29
1.40621e-29
1.63037e-29
-1.32147e-30
-4.46325e-29
-9.65713e-29
-2.02731e-28
-1.93941e-28
-1.33718e-28
1.53731e-28
7.97393e-28
1.16219e-27
1.80411e-27
1.04195e-27
-7.76469e-28
-3.05231e-27
-7.55924e-27
-7.23016e-27
-5.94835e-27
1.7305e-27
1.6858e-26
2.26491e-26
3.30294e-26
1.66285e-26
-1.36314e-26
-4.10281e-26
-9.05168e-26
-7.13441e-26
-4.22169e-26
3.15477e-26
1.54602e-25
1.62712e-25
1.91974e-25
5.42874e-26
-1.45624e-25
-2.41587e-25
-4.15736e-25
-2.36549e-25
-3.16684e-26
2.19129e-25
5.8917e-25
4.55131e-25
3.83009e-25
-3.71099e-26
-5.44028e-25
-5.80075e-25
-7.54278e-25
-2.54604e-25
2.23602e-25
5.06822e-25
9.15266e-25
5.06832e-25
2.23618e-25
-2.5459e-25
-7.54273e-25
-5.80081e-25
-5.4404e-25
-3.71237e-26
3.83e-25
4.55129e-25
5.89175e-25
2.19137e-25
-3.16623e-26
-2.36546e-25
-4.15737e-25
-2.41591e-25
-1.45629e-25
5.42842e-26
1.91973e-25
1.62713e-25
1.54602e-25
3.15486e-26
-4.22166e-26
-7.13442e-26
-9.0517e-26
-4.10285e-26
-1.36316e-26
1.66281e-26
3.3029e-26
2.26488e-26
1.68577e-26
1.73031e-27
-5.94845e-27
-7.23018e-27
-7.55921e-27
-3.05231e-27
-7.76494e-28
1.04187e-27
1.80399e-27
1.16205e-27
7.97251e-28
1.53651e-28
-1.33729e-28
-1.93862e-28
-2.02597e-28
-9.64482e-29
-4.45659e-29
-1.37277e-30
1.61576e-29
1.38712e-29
1.17542e-29
5.52151e-30
2.54918e-30
7.4296e-31
-8.24945e-32
-1.80022e-31
-2.22942e-31
-1.43068e-31
-9.82887e-32
-6.64325e-32
-5.61032e-32
-4.80038e-32
-3.27739e-32
3.46968e-33
5.329e-32
9.31488e-32
1.02297e-31
6.63725e-32
-5.29631e-33
-7.71726e-32
-1.21995e-31
-1.1303e-31
-5.68385e-32
1.72361e-32
8.36448e-32
1.0659e-31
8.84528e-32
3.70241e-32
-2.70403e-32
-7.20388e-32
-9.17901e-32
-7.24451e-32
-2.51695e-32
3.03872e-32
7.73321e-32
8.88094e-32
6.02899e-32
1.87929e-33
-6.37092e-32
-1.02041e-31
-9.04886e-32
-3.51422e-32
4.55354e-32
1.08496e-31
1.18878e-31
7.78407e-32
-7.76691e-33
-8.65946e-32
-1.22303e-31
-1.04267e-31
-2.76982e-32
5.56203e-32
1.15001e-31
1.23193e-31
6.72621e-32
-1.31625e-32
-9.24078e-32
-1.28779e-31
-1.00503e-31
-2.56608e-32
7.17289e-32
1.42421e-31
1.49646e-31
8.81474e-32
-2.18668e-32
-1.30081e-31
-1.81377e-31
-1.5099e-31
-4.69822e-32
8.36828e-32
1.75919e-31
1.90541e-31
1.18221e-31
-2.47174e-33
-1.13816e-31
-1.67857e-31
-1.43659e-31
-6.39349e-32
3.38603e-32
1.01677e-31
1.1974e-31
8.88373e-32
2.73023e-32
-2.86617e-32
-6.75614e-32
-6.99143e-32
-4.59212e-32
-1.04053e-32
2.82929e-32
4.10659e-32
3.84118e-32
1.37704e-32
-1.61731e-32
-2.56401e-32
-2.42923e-32
5.57918e-33
3.20989e-32
3.91686e-32
2.82231e-32
-1.6487e-32
-5.14731e-32
-6.76631e-32
-5.31459e-32
-1.02315e-33
4.47292e-32
7.69498e-32
7.3496e-32
3.55394e-32
-3.32072e-33
-3.84569e-32
-4.88097e-32
-4.24276e-32
-3.94011e-32
-3.53401e-32
-3.69764e-32
-2.35094e-32
1.84199e-32
7.21306e-32
1.23068e-31
1.26792e-31
6.47203e-32
-4.20184e-32
-1.61284e-31
-2.19178e-31
-1.82374e-31
-5.95314e-32
1.11331e-31
2.33758e-31
2.57395e-31
1.62384e-31
-2.04912e-32
-1.89968e-31
-2.83148e-31
-2.45519e-31
-9.18292e-32
9.19131e-32
2.38235e-31
2.64226e-31
1.66584e-31
1.82211e-33
-1.66315e-31
-2.42127e-31
-2.08268e-31
-8.71186e-32
6.84096e-32
1.69253e-31
1.92012e-31
1.29365e-31
1.85551e-32
-7.57568e-32
-1.33713e-31
-1.29913e-31
-8.54406e-32
-2.9803e-32
2.77755e-32
6.03132e-32
7.78971e-32
7.71154e-32
5.65355e-32
2.8904e-32
-1.22522e-32
-4.80088e-32
-7.38068e-32
-8.28665e-32
-6.90773e-32
-4.27346e-32
-3.31847e-33
3.41491e-32
6.66255e-32
8.20228e-32
7.41423e-32
4.65774e-32
-3.74578e-33
-4.97146e-32
-8.66939e-32
-9.63808e-32
-7.25098e-32
-3.68838e-32
1.44452e-32
4.98575e-32
6.74151e-32
6.96073e-32
4.3857e-32
1.6232e-32
-2.14741e-32
-5.49671e-32
-6.95622e-32
-7.28889e-32
-4.71779e-32
-1.0303e-32
2.87325e-32
6.01477e-32
6.32126e-32
4.7238e-32
1.18369e-32
-2.70999e-32
-5.38627e-32
-6.51837e-32
-5.34977e-32
-2.76687e-32
4.59632e-33
3.21811e-32
4.5303e-32
3.93208e-32
1.88862e-32
-6.10881e-33
-2.53335e-32
-2.57217e-32
-1.73287e-32
-3.72247e-33
5.08002e-34
-1.26615e-32
-2.38981e-32
-3.09488e-32
-1.09838e-32
2.82339e-32
6.14146e-32
7.53821e-32
4.06236e-32
-2.09293e-32
-8.33386e-32
-1.13622e-31
-8.1609e-32
-1.09056e-32
7.3724e-32
1.21991e-31
1.07631e-31
4.32447e-32
-4.63863e-32
-1.05158e-31
-1.10691e-31
-6.04727e-32
1.96084e-32
7.91151e-32
9.68397e-32
5.92954e-32
-6.93786e-33
-6.19397e-32
-8.26645e-32
-5.07242e-32
8.40052e-33
6.37182e-32
8.82244e-32
6.08496e-32
2.67486e-33
-6.16679e-32
-1.01243e-31
-9.03397e-32
-4.10552e-32
3.01905e-32
9.26222e-32
1.14901e-31
9.70097e-32
4.08124e-32
-3.10067e-32
-8.73214e-32
-1.18554e-31
-1.07647e-31
-6.18743e-32
5.69409e-34
6.96261e-32
1.14666e-31
1.26631e-31
9.91342e-32
3.18629e-32
-4.65127e-32
-1.17158e-31
-1.48428e-31
-1.23244e-31
-5.21415e-32
4.62434e-32
1.26835e-31
1.56587e-31
1.22077e-31
3.31784e-32
-6.70284e-32
-1.35877e-31
-1.42143e-31
-8.22829e-32
1.15469e-32
9.56521e-32
1.31136e-31
1.00243e-31
2.39966e-32
-6.10625e-32
-1.14164e-31
-1.05751e-31
-4.89781e-32
3.29913e-32
9.78223e-32
1.09489e-31
7.48284e-32
3.82177e-34
-6.85572e-32
-9.7528e-32
-8.53322e-32
-2.34783e-32
4.10718e-32
8.35252e-32
9.16517e-32
4.88261e-32
-2.73693e-33
-5.1432e-32
-7.41949e-32
-5.49733e-32
-2.22091e-32
2.25514e-32
5.29856e-32
5.82759e-32
4.98861e-32
2.52517e-32
3.04086e-33
-1.02119e-32
-1.75892e-32
-1.56619e-32
-1.32912e-32
-1.51298e-32
-1.39468e-32
-1.37787e-32
-3.87114e-33
1.91096e-32
4.32364e-32
7.26587e-32
8.1544e-32
6.79509e-32
3.32629e-32
-2.43096e-32
-6.74075e-32
-9.26075e-32
-7.70747e-32
-2.28381e-32
4.21158e-32
1.06285e-31
1.30769e-31
1.16564e-31
6.57976e-32
3.24925e-33
-4.46093e-32
-6.39243e-32
-4.13834e-32
-9.37386e-33
4.07605e-32
6.25581e-32
6.46375e-32
5.9099e-32
1.57839e-32
7.91136e-33
-2.30216e-32
-2.76755e-32
-6.19387e-33
)
;

boundaryField
{
    left
    {
        type            calculated;
        value           uniform 0;
    }
    right
    {
        type            calculated;
        value           uniform 0;
    }
    empty
    {
        type            empty;
        value           nonuniform List<scalar> 0();
    }
}


// ************************************************************************* //
