/*--------------------------------*- C++ -*----------------------------------*\
| =========                 |                                                 |
| \\      /  F ield         | OpenFOAM: The Open Source CFD Toolbox           |
|  \\    /   O peration     | Version:  2106                                  |
|   \\  /    A nd           | Website:  www.openfoam.com                      |
|    \\/     M anipulation  |                                                 |
\*---------------------------------------------------------------------------*/
FoamFile
{
    version     2.0;
    format      ascii;
    arch        "LSB;label=32;scalar=64";
    class       surfaceScalarField;
    location    "0.31";
    object      phi;
}
// * * * * * * * * * * * * * * * * * * * * * * * * * * * * * * * * * * * * * //

dimensions      [0 3 -1 0 0 0 0];

oriented        oriented;

internalField   nonuniform List<scalar> 
18840
(
3.37543051499e-05
1.62456948486e-05
2.25359617745e-05
1.12183414441e-05
1.63023778243e-05
6.2335849076e-06
1.28098253807e-05
3.49255294435e-06
1.08065799907e-05
2.00324495359e-06
9.60476903229e-06
1.20181087792e-06
8.85167861806e-06
7.5309059419e-07
8.36503081051e-06
4.86647811553e-07
8.04518615308e-06
3.19844561718e-07
7.83374198058e-06
2.11444189246e-07
7.694282031e-06
1.39459955963e-07
7.60308029024e-06
9.12016625834e-08
7.54426536731e-06
5.88149028391e-08
7.50707712343e-06
3.71882726528e-08
7.48418920707e-06
2.28879227448e-08
7.47062369379e-06
1.35655158612e-08
7.46302118662e-06
7.60254142607e-09
7.45913842961e-06
3.88275336148e-09
7.45749864781e-06
1.63973067512e-09
7.45714552465e-06
3.53081132116e-10
7.45748283997e-06
-3.37376270487e-10
7.45813387762e-06
-6.51109730484e-10
7.45888589375e-06
-7.52045418606e-10
7.45961964417e-06
-7.33735779727e-10
7.46027616463e-06
-6.56491010974e-10
7.46083266745e-06
-5.56473790148e-10
7.46128685445e-06
-4.54171975707e-10
7.46164703265e-06
-3.60196290255e-10
7.46192613388e-06
-2.79154163815e-10
7.46213825886e-06
-2.12190191844e-10
7.46229677942e-06
-1.58577370717e-10
7.46241343687e-06
-1.166912534e-10
7.46249806317e-06
-8.46188255717e-11
7.46255860984e-06
-6.04974755055e-11
7.46260133286e-06
-4.26551486623e-11
7.46263105405e-06
-2.96594596663e-11
7.46265142349e-06
-2.0333155467e-11
7.46266515703e-06
-1.37338995064e-11
7.46267425955e-06
-9.13098300968e-12
7.46268019009e-06
-5.98125347333e-12
7.46268398564e-06
-3.87415070101e-12
7.46268641569e-06
-2.5248921462e-12
7.4626879386e-06
-1.61235119193e-12
7.46268883137e-06
-9.56750204563e-13
7.46268938256e-06
-5.82310208946e-13
7.46268973279e-06
-3.61866192829e-13
7.46268997188e-06
-2.4035909837e-13
7.46269015338e-06
-1.78775671781e-13
7.46269032006e-06
-1.69440913992e-13
7.46269050947e-06
-2.0188557682e-13
7.46269074591e-06
-2.46563637253e-13
7.46269104145e-06
-2.85019128383e-13
7.46269138098e-06
-3.09402870691e-13
7.46269174707e-06
-3.25685121602e-13
7.46269212793e-06
-3.52193436521e-13
7.46269251945e-06
-3.94683016344e-13
7.46269293301e-06
-4.38703129287e-13
7.46269338372e-06
-4.77555975356e-13
7.4626938688e-06
-5.11271345441e-13
7.46269438445e-06
-5.42068203748e-13
7.46269493216e-06
-5.74593891789e-13
7.46269550519e-06
-6.10821391128e-13
7.46269609773e-06
-6.50215347774e-13
7.4626967137e-06
-6.96232941938e-13
7.46269736624e-06
-7.45578158944e-13
7.46269807393e-06
-7.83764443714e-13
7.46269885899e-06
-8.07485002028e-13
7.46269972927e-06
-8.28346170802e-13
7.46270067123e-06
-8.54225010041e-13
7.46270166287e-06
-8.8275779032e-13
7.46270268852e-06
-9.1555944422e-13
7.46270374311e-06
-9.64015606221e-13
7.46270483306e-06
-1.03059143549e-12
7.46270597212e-06
-1.09801995028e-12
7.46270717558e-06
-1.15015003094e-12
7.46270845362e-06
-1.19571935261e-12
7.46270980584e-06
-1.25331932446e-12
7.46271122537e-06
-1.31939249557e-12
7.46271270642e-06
-1.37047476083e-12
7.46271424329e-06
-1.39880563847e-12
7.46271582561e-06
-1.42808179697e-12
7.46271744242e-06
-1.48087930683e-12
7.46271909445e-06
-1.54539355129e-12
7.46272079609e-06
-1.59593476644e-12
7.46272255798e-06
-1.63238286062e-12
7.46272437283e-06
-1.67365482312e-12
7.4627262304e-06
-1.72697786827e-12
7.46272813492e-06
-1.78296447682e-12
7.46273009655e-06
-1.83136650371e-12
7.46273212301e-06
-1.87925671505e-12
7.46273422364e-06
-1.95038416076e-12
7.46273640438e-06
-2.04696866536e-12
7.46273866844e-06
-2.13406678422e-12
7.46274100249e-06
-2.17902708498e-12
7.46274337326e-06
-2.19684253215e-12
7.46274576664e-06
-2.25242932589e-12
7.46274820654e-06
-2.38984140688e-12
7.46275074858e-06
-2.57550893018e-12
7.46275345397e-06
-2.74119674066e-12
7.46275639997e-06
-2.9002498292e-12
7.46275960449e-06
-3.10999826215e-12
7.46276308442e-06
-3.38348258794e-12
7.462766892e-06
-3.73616556495e-12
7.46277108408e-06
-4.15011410834e-12
7.4627758099e-06
-4.6627962737e-12
7.46278121142e-06
-5.35729815918e-12
7.46278742754e-06
-6.2598664022e-12
7.46279461651e-06
-7.30864045791e-12
7.46280307677e-06
-8.51990833048e-12
7.4628131557e-06
-1.00402582715e-11
7.46282522829e-06
-1.20195058016e-11
7.46283975284e-06
-1.45399042363e-11
7.46285726894e-06
-1.76178828659e-11
7.46287854521e-06
-2.13406235427e-11
7.46290452983e-06
-2.59701009878e-11
7.46293630592e-06
-3.17772934852e-11
7.4629752082e-06
-3.89521045302e-11
7.46302297031e-06
-4.77651816419e-11
7.46308179462e-06
-5.87195865021e-11
7.4631543325e-06
-7.24184606535e-11
7.46324377811e-06
-8.94356523178e-11
7.46335413416e-06
-1.10421083509e-10
7.46349057175e-06
-1.36412548771e-10
7.46366025264e-06
-1.69492732571e-10
7.46387385658e-06
-2.13361174516e-10
7.46413385644e-06
-2.59862728158e-10
7.46445448185e-06
-3.20654867356e-10
7.46485120007e-06
-3.96758683922e-10
7.46534253184e-06
-4.91296207294e-10
7.46595107093e-06
-6.08536775387e-10
7.46670469935e-06
-7.53746453407e-10
7.46763801204e-06
-9.33500081278e-10
7.46879403027e-06
-1.15612941178e-09
7.47022624028e-06
-1.43215827873e-09
7.47200084528e-06
-1.77458944178e-09
7.47419992183e-06
-2.19926653081e-09
7.47692564239e-06
-2.72594371387e-09
7.48030517334e-06
-3.37955277734e-09
7.48449679462e-06
-4.19142101185e-09
7.48969764618e-06
-5.20068476935e-09
7.49615396471e-06
-6.45632050212e-09
7.50417425779e-06
-8.02026814409e-09
7.51414571905e-06
-9.97135679844e-09
7.52655570452e-06
-1.24100040771e-08
7.54202026288e-06
-1.54648029744e-08
7.56132241631e-06
-1.93024501335e-08
7.58546359784e-06
-2.41414035808e-08
7.6157345361e-06
-3.0270991149e-08
7.65381500121e-06
-3.80803431389e-08
7.70191875088e-06
-4.81036824239e-08
7.76301489073e-06
-6.10962348231e-08
7.84119144098e-06
-7.81768844728e-08
7.94233102533e-06
-1.01139976655e-07
8.07559003037e-06
-1.33259080563e-07
8.25720543122e-06
-1.8161507232e-07
8.52127094525e-06
-2.6406510137e-07
8.95170246109e-06
-4.30431336166e-07
9.78378790792e-06
-8.32085701574e-07
1.17406051385e-05
-1.95681698455e-06
-5.29859312436e-06
1.70391981334e-05
5.0138882866e-05
1.61068138966e-05
4.41591291098e-05
1.71980936372e-05
3.77598733371e-05
1.26328401329e-05
3.2649514614e-05
8.60291232125e-06
2.89465821744e-05
5.7061774323e-06
2.63676030282e-05
3.7807897847e-06
2.4593885156e-05
2.52680848693e-06
2.33783983154e-05
1.70213474712e-06
2.2547323745e-05
1.15091902509e-06
2.19811567055e-05
7.7761115274e-07
2.15978043604e-05
5.22812345626e-07
2.13405413848e-05
3.48464622773e-07
2.11699439127e-05
2.29412333548e-07
2.10585362622e-05
1.48595941678e-07
2.098718527e-05
9.42389485926e-08
2.09426217725e-05
5.81289935976e-08
2.09157072688e-05
3.45170319862e-08
2.09002074731e-05
1.93825245812e-08
2.08919199212e-05
9.92717384155e-09
2.08880547018e-05
4.21818546184e-09
2.08867849861e-05
9.32265672432e-10
2.08869499569e-05
-8.16123729328e-10
2.08878282838e-05
-1.63037108701e-09
2.08889868391e-05
-1.8922458196e-09
2.08901802981e-05
-1.84989910178e-09
2.08912808683e-05
-1.65702456777e-09
2.08922323132e-05
-1.40564441999e-09
2.08930199244e-05
-1.14789002802e-09
2.08936514253e-05
-9.10779469617e-10
2.08941452266e-05
-7.06097750132e-10
2.0894523448e-05
-5.36830458058e-10
2.08948080098e-05
-4.01215266961e-10
2.08950187022e-05
-2.95237203084e-10
2.08951724074e-05
-2.14120156059e-10
2.08952829668e-05
-1.53142162935e-10
2.08953613993e-05
-1.08044247702e-10
2.0895416277e-05
-7.52004348435e-11
2.08954541256e-05
-5.16276067825e-11
2.08954798238e-05
-3.49360823682e-11
2.08954969764e-05
-2.32720650157e-11
2.08955081844e-05
-1.52265016063e-11
2.08955152824e-05
-9.75379239723e-12
2.08955196749e-05
-6.09773380901e-12
2.08955223751e-05
-3.70230752412e-12
2.08955239553e-05
-2.1611611287e-12
2.08955247846e-05
-1.17119819196e-12
2.08955251697e-05
-6.28472298461e-13
2.08955253685e-05
-4.08527711615e-13
2.08955254795e-05
-3.13920580472e-13
2.089552557e-05
-3.02355959896e-13
2.08955256837e-05
-3.33499779321e-13
2.08955258434e-05
-3.86562814887e-13
2.0895526035e-05
-4.53206518589e-13
2.08955262466e-05
-5.22877476435e-13
2.08955264769e-05
-5.93918317397e-13
2.08955267224e-05
-6.66338662675e-13
2.08955269901e-05
-7.39425121663e-13
2.08955272974e-05
-8.18036685332e-13
2.08955276445e-05
-9.03919986151e-13
2.08955280211e-05
-9.91520930971e-13
2.08955284203e-05
-1.0755380577e-12
2.08955288356e-05
-1.15552471357e-12
2.08955292635e-05
-1.22682554264e-12
2.0895529714e-05
-1.28571596605e-12
2.0895530206e-05
-1.33162974743e-12
2.08955307525e-05
-1.36132705882e-12
2.08955313671e-05
-1.38098456099e-12
2.08955320555e-05
-1.40391026378e-12
2.08955328056e-05
-1.44490847372e-12
2.08955335965e-05
-1.5101975936e-12
2.08955344122e-05
-1.59424742935e-12
2.08955352499e-05
-1.69139927789e-12
2.08955361208e-05
-1.79951906078e-12
2.08955370405e-05
-1.91100710892e-12
2.08955380202e-05
-2.01104617197e-12
2.0895539067e-05
-2.09331887572e-12
2.0895540185e-05
-2.17011454634e-12
2.08955413713e-05
-2.25701626937e-12
2.08955426136e-05
-2.35305645345e-12
2.08955438941e-05
-2.44583755172e-12
2.08955452054e-05
-2.53317313157e-12
2.08955465573e-05
-2.62498517609e-12
2.08955479636e-05
-2.72191380577e-12
2.0895549427e-05
-2.81236204099e-12
2.08955509412e-05
-2.8958914127e-12
2.08955525073e-05
-2.98787543061e-12
2.0895554142e-05
-3.10024097862e-12
2.08955558613e-05
-3.23365042159e-12
2.08955576578e-05
-3.38131041542e-12
2.08955595301e-05
-3.53555764586e-12
2.08955615226e-05
-3.70139241452e-12
2.08955636843e-05
-3.88986474324e-12
2.0895566018e-05
-4.10299556181e-12
2.08955684848e-05
-4.34574038065e-12
2.0895571055e-05
-4.62742095786e-12
2.08955737742e-05
-4.95758854902e-12
2.08955767424e-05
-5.35552160046e-12
2.08955800643e-05
-5.83579287365e-12
2.08955838202e-05
-6.39353546061e-12
2.08955881392e-05
-7.07327275262e-12
2.08955930844e-05
-7.90283729584e-12
2.08955987796e-05
-8.95067803682e-12
2.08956054057e-05
-1.02790271352e-11
2.08956131304e-05
-1.19156051622e-11
2.08956222615e-05
-1.38814961748e-11
2.08956331812e-05
-1.62903311815e-11
2.08956463156e-05
-1.93137675497e-11
2.08956620589e-05
-2.30514053864e-11
2.08956809255e-05
-2.75126840417e-11
2.08957033732e-05
-3.26373999357e-11
2.08957307297e-05
-3.94475971506e-11
2.0895765166e-05
-4.89284466993e-11
2.08958076668e-05
-6.00920345339e-11
2.08958600062e-05
-7.3719723389e-11
2.08959245562e-05
-9.051186288e-11
2.08960042296e-05
-1.1135319045e-10
2.08961025888e-05
-1.37239781844e-10
2.08962240489e-05
-1.69290888093e-10
2.08963741866e-05
-2.08913789153e-10
2.08965598881e-05
-2.57988484543e-10
2.08967895377e-05
-3.18831844158e-10
2.08970734873e-05
-3.94153240767e-10
2.08974243766e-05
-4.87259134817e-10
2.0897857315e-05
-6.02426009532e-10
2.08983895958e-05
-7.45488777622e-10
2.08990537176e-05
-9.2379584808e-10
2.08998783172e-05
-1.14523982744e-09
2.09009008548e-05
-1.41946099682e-09
2.0902168283e-05
-1.75887618698e-09
2.0903738946e-05
-2.17914645892e-09
2.09056850752e-05
-2.69974468251e-09
2.09080962156e-05
-3.34469005518e-09
2.09110834003e-05
-4.14369334802e-09
2.09147845587e-05
-5.13376788406e-09
2.09193709296e-05
-6.36110119638e-09
2.09250548787e-05
-7.88311120607e-09
2.09321002e-05
-9.77117510373e-09
2.09408350008e-05
-1.21143491148e-08
2.09516678629e-05
-1.50241837303e-08
2.09651080545e-05
-1.86406594198e-08
2.09817913638e-05
-2.31395895234e-08
2.10025135884e-05
-2.87427194717e-08
2.10282734444e-05
-3.57313811988e-08
2.10603281896e-05
-4.44645302292e-08
2.11002667811e-05
-5.54031666659e-08
2.11501085367e-05
-6.91444747145e-08
2.12124371781e-05
-8.64707364507e-08
2.12905868274e-05
-1.084213473e-07
2.1388908688e-05
-1.36402554227e-07
2.15131677199e-05
-1.72362626499e-07
2.16711628421e-05
-2.19090907575e-07
2.18737564501e-05
-2.80770149433e-07
2.21367044802e-05
-3.64088049994e-07
2.24841249478e-05
-4.80679903709e-07
2.2955414486e-05
-6.52904987373e-07
2.36193258744e-05
-9.27976558097e-07
2.46007111154e-05
-1.41181565197e-06
2.61175288724e-05
-2.34890249537e-06
2.84690351074e-05
-4.30832170673e-06
-8.43764547105e-06
3.16080876477e-05
5.35844273016e-05
1.25223875675e-05
5.29166010461e-05
1.78659197091e-05
4.96393011174e-05
1.59101392678e-05
4.583821702e-05
1.24039967001e-05
4.24428747083e-05
9.10151993713e-06
3.97331592808e-05
6.49050506905e-06
3.76912452645e-05
4.56872242834e-06
3.6201167022e-05
3.19221308413e-06
3.51355935886e-05
2.21649241438e-06
3.43848444294e-05
1.52836020015e-06
3.38626588764e-05
1.0449979051e-06
3.35040065213e-05
7.07116991418e-07
3.32609624873e-05
4.72456335551e-07
3.30987204849e-05
3.10837954629e-07
3.29922905525e-05
2.00668930171e-07
3.2923919401e-05
1.26500138118e-07
3.28811294908e-05
7.73069120866e-08
3.28552508899e-05
4.52610998592e-08
3.2840334325e-05
2.48436473108e-08
3.28323543248e-05
1.21980801205e-08
3.28286283966e-05
4.65813972846e-09
3.28274044573e-05
4.07800277873e-10
3.28275639122e-05
-1.7898152713e-09
3.28284100194e-05
-2.7383161792e-09
3.28295261665e-05
-2.96600704113e-09
3.28306758353e-05
-2.80668926578e-09
3.28317359312e-05
-2.46578502608e-09
3.28326523353e-05
-2.064376107e-09
3.28334109152e-05
-1.66946151365e-09
3.28340191419e-05
-1.31441182856e-09
3.28344947568e-05
-1.01247343382e-09
3.28348590405e-05
-7.65460753432e-10
3.28351330889e-05
-5.69208879011e-10
3.28353359592e-05
-4.16905726077e-10
3.28354839068e-05
-3.01026488395e-10
3.28355902608e-05
-2.14377253707e-10
3.28356656457e-05
-1.50601792786e-10
3.28357183184e-05
-1.04353418292e-10
3.28357545668e-05
-7.12791316054e-11
3.28357791159e-05
-4.7938961619e-11
3.28357954661e-05
-3.16939702498e-11
3.28358061697e-05
-2.05514977642e-11
3.28358130444e-05
-1.30287868145e-11
3.2835817353e-05
-8.03615637566e-12
3.28358199851e-05
-4.79451076502e-12
3.28358215804e-05
-2.75774922509e-12
3.2835822489e-05
-1.54487608355e-12
3.28358228956e-05
-8.48204418386e-13
3.2835823004e-05
-4.63001981877e-13
3.28358230307e-05
-3.49016353359e-13
3.28358230486e-05
-3.39166800331e-13
3.28358230937e-05
-3.89540179227e-13
3.28358231609e-05
-4.80742079463e-13
3.28358232353e-05
-5.89683389218e-13
3.28358233205e-05
-6.9955286258e-13
3.2835823431e-05
-8.10596865991e-13
3.28358235659e-05
-9.20333157138e-13
3.28358237363e-05
-1.03750032179e-12
3.28358239404e-05
-1.15315144776e-12
3.2835824172e-05
-1.27138501972e-12
3.28358244252e-05
-1.38632028075e-12
3.28358246907e-05
-1.49323763022e-12
3.28358249619e-05
-1.58535340686e-12
3.28358252515e-05
-1.65213307302e-12
3.28358255772e-05
-1.69172754721e-12
3.28358259407e-05
-1.71036707685e-12
3.28358263529e-05
-1.74134600563e-12
3.28358268236e-05
-1.79303626641e-12
3.28358273454e-05
-1.86297310906e-12
3.28358279011e-05
-1.96070205291e-12
3.2835828473e-05
-2.08039412051e-12
3.28358290604e-05
-2.20911293959e-12
3.2835829681e-05
-2.3386932578e-12
3.28358303505e-05
-2.46929981607e-12
3.2835831071e-05
-2.59908095061e-12
3.28358318425e-05
-2.71920096854e-12
3.28358326727e-05
-2.82656896938e-12
3.28358335664e-05
-2.93329465869e-12
3.28358345104e-05
-3.05527848431e-12
3.28358354827e-05
-3.19364749689e-12
3.28358364777e-05
-3.33422042021e-12
3.28358375109e-05
-3.46643110758e-12
3.2835838594e-05
-3.59364850719e-12
3.28358397219e-05
-3.72609600742e-12
3.28358408915e-05
-3.87151411583e-12
3.28358421143e-05
-4.02928033957e-12
3.28358434075e-05
-4.19750111562e-12
3.28358447851e-05
-4.39232087883e-12
3.28358462522e-05
-4.63751130816e-12
3.28358478183e-05
-4.92733560448e-12
3.28358495255e-05
-5.23322515057e-12
3.28358514225e-05
-5.54712256275e-12
3.28358535242e-05
-5.89936475978e-12
3.28358558081e-05
-6.34387358998e-12
3.28358582517e-05
-6.90889571774e-12
3.2835860903e-05
-7.57452965354e-12
3.28358638811e-05
-8.32616983408e-12
3.28358673107e-05
-9.18878745541e-12
3.28358712084e-05
-1.01789046515e-11
3.28358757356e-05
-1.14804154318e-11
3.28358812622e-05
-1.33153295425e-11
3.28358878858e-05
-1.54822330177e-11
3.28358958744e-05
-1.81663315925e-11
3.28359054951e-05
-2.150490321e-11
3.28359171281e-05
-2.55937715907e-11
3.28359313002e-05
-3.05833954643e-11
3.28359487082e-05
-3.67469547253e-11
3.28359701198e-05
-4.44259770536e-11
3.28359965646e-05
-5.39564159414e-11
3.28360295933e-05
-6.57392870559e-11
3.28360703572e-05
-8.03214118538e-11
3.28361198139e-05
-9.84020043641e-11
3.28361805992e-05
-1.20812283213e-10
3.28362554466e-05
-1.48547239381e-10
3.28363477463e-05
-1.82830677086e-10
3.28364617118e-05
-2.25275817888e-10
3.28366024931e-05
-2.77922393805e-10
3.28367764085e-05
-3.43181136902e-10
3.2836991337e-05
-4.23944419299e-10
3.28372570972e-05
-5.23866658485e-10
3.28375858502e-05
-6.47547647627e-10
3.28379926051e-05
-8.00704364072e-10
3.28384959364e-05
-9.90367602014e-10
3.28391189483e-05
-1.22530301856e-09
3.28398901207e-05
-1.51659309019e-09
3.28408442152e-05
-1.8777669339e-09
3.28420250108e-05
-2.32589990172e-09
3.28434868823e-05
-2.88133263939e-09
3.28452971215e-05
-3.56924689898e-09
3.28475390227e-05
-4.42117272534e-09
3.28503157062e-05
-5.47642349526e-09
3.28537549262e-05
-6.78379269736e-09
3.28580149129e-05
-8.40373809483e-09
3.28632920327e-05
-1.04112064202e-08
3.28698301355e-05
-1.28994740573e-08
3.28779317651e-05
-1.59847605631e-08
3.28879725469e-05
-1.98117881067e-08
3.29004192799e-05
-2.45609767554e-08
3.29158528841e-05
-3.04577826589e-08
3.29349971506e-05
-3.7784799639e-08
3.29587548631e-05
-4.68971565095e-08
3.2988254414e-05
-5.82424057752e-08
3.30249097834e-05
-7.23871138837e-08
3.30704979536e-05
-9.00529111546e-08
3.31272600103e-05
-1.12165261616e-07
3.31980362107e-05
-1.39920656943e-07
3.32864480733e-05
-1.74882585002e-07
3.33971487955e-05
-2.19122233301e-07
3.35361776031e-05
-2.75431634368e-07
3.37114755363e-05
-3.47660898041e-07
3.39336643274e-05
-4.41279930223e-07
3.42172672591e-05
-5.64373016624e-07
3.45826794842e-05
-7.29499938168e-07
3.50593773127e-05
-9.57377400851e-07
3.56909280205e-05
-1.28445553267e-06
3.65416466384e-05
-1.77869540409e-06
3.77007722836e-05
-2.57094092825e-06
3.92626109946e-05
-3.91074111709e-06
4.12033806399e-05
-6.24909064338e-06
-1.02327384704e-05
4.29984731699e-05
5.35705200877e-05
8.95186748758e-06
5.55863060425e-05
1.58501343596e-05
5.5241058658e-05
1.62553859815e-05
5.35976156876e-05
1.40474396379e-05
5.15429059687e-05
1.11562298711e-05
4.95819404732e-05
8.45147052329e-06
4.7926251145e-05
6.22441158206e-06
4.66200398461e-05
4.49842441744e-06
4.5632233958e-05
3.20429833227e-06
4.49066877158e-05
2.25390635242e-06
4.43854423421e-05
1.56624324101e-06
4.40178330295e-05
1.0747263334e-06
4.37629125302e-05
7.2737683487e-07
4.35890450385e-05
4.84705434901e-07
4.34725018525e-05
3.17212151781e-07
4.33958688431e-05
2.03133155478e-07
4.33465907817e-05
1.26584922045e-07
4.33157566243e-05
7.60952080862e-08
4.3297135117e-05
4.34650833714e-08
4.32864334532e-05
2.28996561121e-08
4.32807401005e-05
1.03514436937e-08
4.32781173567e-05
3.03054544937e-09
4.32772907048e-05
-9.63129389278e-10
4.32774552594e-05
-2.90282008801e-09
4.32781066974e-05
-3.61740887739e-09
4.3278944698e-05
-3.64470522768e-09
4.32797996136e-05
-3.32077398591e-09
4.32805838665e-05
-2.84872749318e-09
4.32812595953e-05
-2.34528186944e-09
4.32818176525e-05
-1.87253575027e-09
4.32822643137e-05
-1.45915360796e-09
4.32826130811e-05
-1.11419277904e-09
4.32828798587e-05
-8.35915885903e-10
4.32830803013e-05
-6.17270824517e-10
4.32832284898e-05
-4.49163275596e-10
4.32833364053e-05
-3.22291673269e-10
4.32834138694e-05
-2.28109650026e-10
4.32834686967e-05
-1.59248345159e-10
4.32835069455e-05
-1.09613986583e-10
4.32835332349e-05
-7.43236608562e-11
4.32835510267e-05
-4.95697065061e-11
4.32835628688e-05
-3.24450520247e-11
4.32835705985e-05
-2.07716772088e-11
4.32835755205e-05
-1.29514667218e-11
4.32835785462e-05
-7.82147553074e-12
4.32835803183e-05
-4.54395940043e-12
4.32835812795e-05
-2.53663154217e-12
4.32835817654e-05
-1.38169814118e-12
4.32835820252e-05
-7.70718624522e-13
4.32835821311e-05
-4.82215873326e-13
4.32835821599e-05
-3.72552996859e-13
4.32835821637e-05
-3.73224831539e-13
4.32835821494e-05
-4.35325920806e-13
4.32835821096e-05
-5.33611495469e-13
4.32835820562e-05
-6.49186578722e-13
4.32835820017e-05
-7.72813212286e-13
4.32835819551e-05
-9.09083776067e-13
4.32835819206e-05
-1.05040491132e-12
4.32835819114e-05
-1.18989090909e-12
4.32835819237e-05
-1.32786656086e-12
4.32835819465e-05
-1.45931556153e-12
4.32835819721e-05
-1.57999945363e-12
4.32835819967e-05
-1.6821164586e-12
4.32835820263e-05
-1.75163428372e-12
4.32835820759e-05
-1.7871451309e-12
4.32835821634e-05
-1.80871313109e-12
4.32835822814e-05
-1.84184124649e-12
4.32835824262e-05
-1.89602646566e-12
4.32835826024e-05
-1.97348092628e-12
4.32835827994e-05
-2.078030207e-12
4.32835830045e-05
-2.20694200198e-12
4.32835832178e-05
-2.34861707027e-12
4.32835834546e-05
-2.48889797737e-12
4.32835837298e-05
-2.62365632759e-12
4.32835840453e-05
-2.75799406545e-12
4.32835843956e-05
-2.89424789284e-12
4.32835847796e-05
-3.02928144402e-12
4.32835852017e-05
-3.16279642783e-12
4.32835856605e-05
-3.30341400727e-12
4.32835861457e-05
-3.46016775768e-12
4.32835866502e-05
-3.62651768709e-12
4.32835871778e-05
-3.78760315713e-12
4.3283587735e-05
-3.94388437082e-12
4.32835883237e-05
-4.1142898651e-12
4.32835889525e-05
-4.31591975846e-12
4.32835896348e-05
-4.54354228673e-12
4.32835903772e-05
-4.78170473443e-12
4.32835911892e-05
-5.04181820862e-12
4.32835920965e-05
-5.36096276873e-12
4.32835931312e-05
-5.75253797249e-12
4.32835943335e-05
-6.19355103087e-12
4.32835957363e-05
-6.67300013443e-12
4.32835973499e-05
-7.22411892296e-12
4.32835991797e-05
-7.91119073363e-12
4.32836012447e-05
-8.78221576581e-12
4.32836036088e-05
-9.83103809674e-12
4.32836064e-05
-1.10486518385e-11
4.3283609803e-05
-1.24995228462e-11
4.32836140138e-05
-1.42989684802e-11
4.32836191699e-05
-1.65650454494e-11
4.32836252561e-05
-1.93606143783e-11
4.32836325668e-05
-2.28021895258e-11
4.32836414598e-05
-2.70364605666e-11
4.32836523167e-05
-3.23034293371e-11
4.328366557e-05
-3.88333535502e-11
4.32836817652e-05
-4.6865669509e-11
4.32837016759e-05
-5.6751708229e-11
4.32837261999e-05
-6.89885943432e-11
4.32837564184e-05
-8.41662138826e-11
4.3283793669e-05
-1.02976440757e-10
4.32838396367e-05
-1.26315210068e-10
4.32838964949e-05
-1.55243319292e-10
4.32839668109e-05
-1.91017884868e-10
4.32840536727e-05
-2.35311180865e-10
4.32841609541e-05
-2.90118337793e-10
4.32842935235e-05
-3.57925456908e-10
4.32844574446e-05
-4.41876555646e-10
4.32846601611e-05
-5.45867496642e-10
4.32849108348e-05
-6.74648603238e-10
4.3285220889e-05
-8.34036342053e-10
4.32856045241e-05
-1.03128559616e-09
4.32860793457e-05
-1.27546361365e-09
4.32866670861e-05
-1.57787277764e-09
4.32873945595e-05
-1.95254630091e-09
4.32882949042e-05
-2.41686246008e-09
4.32894094005e-05
-2.99221140065e-09
4.32907889782e-05
-3.70535406935e-09
4.32924968143e-05
-4.58900223776e-09
4.32946111935e-05
-5.68356369167e-09
4.32972291265e-05
-7.03919583484e-09
4.33004708015e-05
-8.7182350234e-09
4.33044851616e-05
-1.07981816675e-08
4.33094566916e-05
-1.33752335067e-08
4.33156140787e-05
-1.65686679103e-08
4.33232411214e-05
-2.05266692739e-08
4.33326899409e-05
-2.54336512416e-08
4.33443975499e-05
-3.15192867624e-08
4.335890658e-05
-3.90698680681e-08
4.337689153e-05
-4.84427337902e-08
4.33991917947e-05
-6.00851017697e-08
4.34268529646e-05
-7.45582992831e-08
4.34611794198e-05
-9.25687867418e-08
4.3503801413e-05
-1.15009134506e-07
4.35567613496e-05
-1.43013054401e-07
4.3622625351e-05
-1.7802960614e-07
4.37046295044e-05
-2.21925078872e-07
4.38068734602e-05
-2.77126573429e-07
4.39345804415e-05
-3.46829114114e-07
4.40944530437e-05
-4.35304068089e-07
4.42951673135e-05
-5.48375191302e-07
4.45480703479e-05
-6.94183161569e-07
4.48681652879e-05
-8.84468087431e-07
4.52754733427e-05
-1.13680790832e-06
4.57967455334e-05
-1.47864942908e-06
4.64669627516e-05
-1.95467248467e-06
4.73282989211e-05
-2.64003132989e-06
4.84194969169e-05
-3.66213841004e-06
4.97374849421e-05
-5.22872865862e-06
5.11309358704e-05
-7.6425406925e-06
-1.12065463305e-05
5.21047438016e-05
5.27606081549e-05
6.19125878821e-06
5.57402409389e-05
1.28705024145e-05
5.73124119254e-05
1.46832146449e-05
5.76111977483e-05
1.3748653605e-05
5.71338685392e-05
1.16335592e-05
5.63199841503e-05
9.26535501096e-06
5.54496449557e-05
7.09475063439e-06
5.46637029018e-05
5.28436643189e-06
5.40144130924e-05
3.85358817316e-06
5.35068424966e-05
2.76147689176e-06
5.31248779925e-05
1.94820769469e-06
5.28455240115e-05
1.35408032654e-06
5.2645887854e-05
9.27013007339e-07
5.25060752153e-05
6.24518062688e-07
5.24099975877e-05
4.13289795093e-07
5.23452160677e-05
2.67914680218e-07
5.23024110709e-05
1.69389858546e-07
5.22747661394e-05
1.03740075865e-07
5.22573939144e-05
6.08372542212e-08
5.22468518058e-05
3.34417004792e-08
5.22407555295e-05
1.64476799093e-08
5.22374825481e-05
6.30353643782e-09
5.22359413593e-05
5.78104724288e-10
5.22354261077e-05
-2.38751521074e-09
5.22354780682e-05
-3.66934124098e-09
5.22358129094e-05
-3.97957562063e-09
5.22362601307e-05
-3.76808660804e-09
5.22367229006e-05
-3.31161014252e-09
5.2237150683e-05
-2.77315213925e-09
5.22375210802e-05
-2.24298019282e-09
5.22378280491e-05
-1.76612378678e-09
5.22380743998e-05
-1.36050078844e-09
5.22382671569e-05
-1.02861044396e-09
5.22384148375e-05
-7.64898387757e-10
5.22385259387e-05
-5.602415363e-10
5.22386081591e-05
-4.04535542158e-10
5.22386680916e-05
-2.88102982074e-10
5.22387111574e-05
-2.02387441271e-10
5.22387416685e-05
-1.4019981089e-10
5.22387629812e-05
-9.57039489972e-11
5.22387776574e-05
-6.42925982862e-11
5.22387876147e-05
-4.2417017534e-11
5.22387942591e-05
-2.74003720894e-11
5.22387986024e-05
-1.72707051018e-11
5.2238801364e-05
-1.05871456383e-11
5.22388030714e-05
-6.28751089845e-12
5.22388040833e-05
-3.60454587007e-12
5.22388046266e-05
-1.98755864632e-12
5.22388048566e-05
-1.05108270078e-12
5.22388049021e-05
-5.52322442462e-13
5.22388048495e-05
-3.25827798777e-13
5.2238804753e-05
-2.69677168067e-13
5.22388046446e-05
-3.18491710923e-13
5.22388045246e-05
-4.2466560358e-13
5.22388043924e-05
-5.54638059788e-13
5.22388042645e-05
-6.95217766889e-13
5.22388041444e-05
-8.43272497872e-13
5.22388040306e-05
-9.8891207119e-13
5.223880393e-05
-1.12597024168e-12
5.22388038432e-05
-1.25791499261e-12
5.22388037649e-05
-1.38413321857e-12
5.22388036899e-05
-1.50022367106e-12
5.22388036132e-05
-1.5997200619e-12
5.2238803533e-05
-1.67395717593e-12
5.22388034546e-05
-1.72181846169e-12
5.22388033859e-05
-1.7576430442e-12
5.22388033269e-05
-1.80005853278e-12
5.22388032813e-05
-1.85915073649e-12
5.2238803254e-05
-1.93890374548e-12
5.22388032421e-05
-2.04083580714e-12
5.22388032405e-05
-2.16243215326e-12
5.223880325e-05
-2.29648467743e-12
5.22388032793e-05
-2.43224547094e-12
5.22388033379e-05
-2.56184782177e-12
5.22388034273e-05
-2.68737161813e-12
5.22388035426e-05
-2.81916063054e-12
5.22388036811e-05
-2.96416275341e-12
5.22388038446e-05
-3.1172644012e-12
5.22388040335e-05
-3.27085659437e-12
5.22388042401e-05
-3.42805260702e-12
5.22388044539e-05
-3.59616546103e-12
5.22388046722e-05
-3.77704407109e-12
5.2238804902e-05
-3.97050622663e-12
5.22388051511e-05
-4.17991020839e-12
5.22388054282e-05
-4.41502646807e-12
5.22388057447e-05
-4.68692369045e-12
5.22388061041e-05
-4.99488999686e-12
5.22388065115e-05
-5.33296647534e-12
5.22388069934e-05
-5.71272225481e-12
5.22388075888e-05
-6.15750407314e-12
5.2238808335e-05
-6.68224881577e-12
5.22388092538e-05
-7.30524863318e-12
5.22388103495e-05
-8.05756108986e-12
5.22388116408e-05
-8.97747654873e-12
5.22388131712e-05
-1.01091024426e-11
5.22388150025e-05
-1.14827148533e-11
5.2238817223e-05
-1.3131627355e-11
5.22388199793e-05
-1.51397675893e-11
5.22388234144e-05
-1.76367881282e-11
5.22388276942e-05
-2.07729232816e-11
5.22388330807e-05
-2.46981991727e-11
5.22388397881e-05
-2.95265503952e-11
5.22388481388e-05
-3.54291113718e-11
5.22388585485e-05
-4.27123425734e-11
5.22388714905e-05
-5.17516718141e-11
5.22388875226e-05
-6.2942559264e-11
5.22389074298e-05
-7.67531397304e-11
5.22389321655e-05
-9.38144988116e-11
5.22389628971e-05
-1.14929886308e-10
5.22390010522e-05
-1.41084740879e-10
5.22390482947e-05
-1.73493036736e-10
5.22391067235e-05
-2.13607226066e-10
5.2239179038e-05
-2.63235494395e-10
5.22392685349e-05
-3.24693025785e-10
5.22393792407e-05
-4.00794853901e-10
5.22395161785e-05
-4.94971644969e-10
5.22396856402e-05
-6.11484318928e-10
5.22398953912e-05
-7.55692591058e-10
5.22401549784e-05
-9.34234032114e-10
5.22404762453e-05
-1.15531340442e-09
5.22408739022e-05
-1.42899968e-09
5.22413662078e-05
-1.76777315264e-09
5.22419757435e-05
-2.18725230862e-09
5.22427303521e-05
-2.70689986518e-09
5.22436643645e-05
-3.35073642471e-09
5.22448205359e-05
-4.14837837011e-09
5.22462517648e-05
-5.13657338117e-09
5.22480235864e-05
-6.36071691287e-09
5.22502171559e-05
-7.87697531332e-09
5.22529329838e-05
-9.75491176312e-09
5.22562955353e-05
-1.20808135438e-08
5.22604590892e-05
-1.49618020793e-08
5.22656147905e-05
-1.85308998028e-08
5.22719993835e-05
-2.29532027302e-08
5.22799063806e-05
-2.8433668581e-08
5.22896997229e-05
-3.52270438146e-08
5.23018307855e-05
-4.36503310759e-08
5.23168595068e-05
-5.40984520095e-08
5.2335480782e-05
-6.70639479569e-08
5.23585577682e-05
-8.31622616202e-08
5.23871635071e-05
-1.03164289297e-07
5.24226330404e-05
-1.28038337798e-07
5.24666289547e-05
-1.59004911389e-07
5.25212248921e-05
-1.9760896073e-07
5.25890116431e-05
-2.45816577911e-07
5.26732327003e-05
-3.06146566359e-07
5.27779584888e-05
-3.81852688885e-07
5.29083107052e-05
-4.77181366146e-07
5.30707524996e-05
-5.9774560596e-07
5.32734605662e-05
-7.51082991912e-07
5.35267911866e-05
-9.47513628724e-07
5.38438223402e-05
-1.20149914629e-06
5.42408629018e-05
-1.53384821815e-06