/*--------------------------------*- C++ -*----------------------------------*\
| =========                 |                                                 |
| \\      /  F ield         | OpenFOAM: The Open Source CFD Toolbox           |
|  \\    /   O peration     | Version:  2106                                  |
|   \\  /    A nd           | Website:  www.openfoam.com                      |
|    \\/     M anipulation  |                                                 |
\*---------------------------------------------------------------------------*/
FoamFile
{
    version     2.0;
    format      ascii;
    arch        "LSB;label=32;scalar=64";
    class       volScalarField;
    location    "0.25";
    object      p;
}
// * * * * * * * * * * * * * * * * * * * * * * * * * * * * * * * * * * * * * //

dimensions      [0 2 -2 0 0 0 0];

internalField   nonuniform List<scalar> 
9600
(
2.2400561895
-0.657954786634
-1.56218558999
-1.94779581935
-2.16712705065
-2.30707033482
-2.41097530269
-2.49852440044
-2.5780236447
-2.65341379568
-2.72678740071
-2.79929583577
-2.87156897097
-2.9439374501
-3.01655777426
-3.08948584037
-3.16272156859
-3.23623661754
-3.30999081772
-3.38394123056
-3.4580471746
-3.53227423293
-3.60659180204
-3.6809758299
-3.75540703831
-3.8298701239
-3.90435355265
-3.97884842545
-4.05334777677
-4.12784640508
-4.20234031394
-4.27682631352
-4.35130175143
-4.42576436961
-4.50021211324
-4.57464281881
-4.64905447527
-4.7234453323
-4.79781333683
-4.87215619479
-4.9464716532
-5.02075722242
-5.0950103003
-5.16922834995
-5.24340840657
-5.31754714919
-5.39164100502
-5.46568613882
-5.53967855807
-5.6136139375
-5.68748761026
-5.76129456944
-5.83502925547
-5.90868568281
-5.98225756127
-6.05573816207
-6.12912037514
-6.20239667242
-6.27555896325
-6.34859856057
-6.42150623507
-6.49427210438
-6.5668855594
-6.63933533605
-6.71160959405
-6.78369573529
-6.85558025239
-6.92724877654
-6.99868608465
-7.06987609712
-7.14080186125
-7.21144552927
-7.28178828889
-7.3518102224
-7.42149023858
-7.49080602975
-7.55973407947
-7.62824964737
-7.69632666078
-7.76393769987
-7.83105409287
-7.89764584462
-7.96368134213
-8.02912731668
-8.09394912528
-8.15811068327
-8.221574166
-8.28430007593
-8.34624736564
-8.40737323611
-8.46763291655
-8.52697964935
-8.58536485756
-8.64273829106
-8.69904777469
-8.75423898713
-8.80825559535
-8.86103942448
-8.91253067365
-8.96266754595
-9.01138560677
-9.0586183889
-9.10429800034
-9.1483546135
-9.19071608698
-9.23130830011
-9.27005549758
-9.30687984402
-9.34170128598
-9.3744381553
-9.40500720201
-9.43332346555
-9.45930088465
-9.48285172075
-9.50388508501
-9.52230875904
-9.53803106542
-9.55095882663
-9.56099622127
-9.56804689499
-9.57201424003
-9.57280011507
-9.57030561796
-9.56443134833
-9.55507717336
-9.54214236057
-9.52552585369
-9.50512626321
-9.4808411907
-9.45256809521
-9.42020537465
-9.38365085604
-9.3428007893
-9.29755124513
-9.24779697131
-9.19343153993
-9.13434904728
-9.0704404065
-9.00159167262
-8.92768586861
-8.84860165622
-8.76420970632
-8.67437036187
-8.57893299866
-8.4777311027
-8.37057659309
-8.25725373139
-8.1375097672
-8.01104133523
-7.87747603743
-7.73635056441
-7.58705979434
-7.42878289944
-7.26036645475
-7.08010388371
-6.8854219678
-6.67239500308
-6.43519812589
-6.17448741428
-5.95308193231
0.328515651559
-0.853839626184
-1.46251379623
-1.81653802252
-2.05915393285
-2.22971737768
-2.35778928935
-2.46229146148
-2.55336674043
-2.63664526904
-2.71541806818
-2.79163486019
-2.86645539161
-2.94056776869
-3.01437379877
-3.08810016572
-3.16186662319
-3.23572891213
-3.30970575772
-3.38379531064
-3.45798602724
-3.53226154842
-3.60660501634
-3.68100112356
-3.75543638375
-3.82989909978
-3.90437989007
-3.97887127142
-4.05336707
-4.1278624555
-4.20235363385
-4.27683750331
-4.35131135638
-4.4257727773
-4.5002196794
-4.57464991645
-4.649061364
-4.72345225253
-4.79782057346
-4.8721638979
-4.94647986583
-5.02076605962
-5.09501990646
-5.16923880487
-5.24341977297
-5.31755945193
-5.39165428087
-5.46570046423
-5.53969406706
-5.61363079328
-5.68750586991
-5.7613142848
-5.83505053894
-5.90870863854
-5.98228227913
-6.05576478263
-6.12914905071
-6.20242757381
-6.27559226428
-6.34863440812
-6.42154469274
-6.4943133008
-6.56692976803
-6.63938282807
-6.7116605094
-6.7837502206
-6.85563854942
-6.92731114172
-6.99875273098
-7.069947224
-7.14087773849
-7.21152651951
-7.28187473501
-7.35190233432
-7.42158819977
-7.49091018874
-7.55984487318
-7.62836739002
-7.69645157722
-7.76407013485
-7.83119453997
-7.89779478667
-7.96383912204
-8.0292941608
-8.0941253783
-8.15829696229
-8.2217710826
-8.2845079708
-8.34646653731
-8.40760420191
-8.46787629187
-8.52723591208
-8.58563430356
-8.64302130308
-8.69934505107
-8.75455124787
-8.80858325752
-8.86138279178
-8.91289029524
-8.96304423713
-9.01177997371
-9.05903072242
-9.10472862119
-9.14880417845
-9.19118541609
-9.23179799416
-9.27056580142
-9.30741108302
-9.34225407581
-9.3750130985
-9.40560478255
-9.43394397044
-9.45994423333
-9.48351811417
-9.50457545621
-9.52302357835
-9.53877006996
-9.5517224235
-9.56178548065
-9.56886228676
-9.57285575889
-9.57366808429
-9.57120087175
-9.5653545052
-9.55602814267
-9.54312069387
-9.52653140456
-9.50615973057
-9.48190480864
-9.45366437525
-9.42133662559
-9.38482024981
-9.34401273237
-9.29881154153
-9.24911303362
-9.19481190624
-9.13580434873
-9.0719849569
-9.00324325222
-8.92946571137
-8.85053640574
-8.76633387246
-8.67672714299
-8.58157577882
-8.48072741722
-8.37401327629
-8.26124260147
-8.14219535073
-8.01661428026
-7.88419069415
-7.7445555583
-7.59725369982
-7.44170902891
-7.27720049343
-7.10283012336
-6.91758069307
-6.72053673008
-6.51070024893
-6.28821174336
-6.07490559086
-0.647326839196
-1.12869488817
-1.51995367701
-1.81157013836
-2.03314309086
-2.20107872322
-2.3331807139
-2.44296914487
-2.5388273809
-2.62597197048
-2.70771412694
-2.78614840194
-2.8625954638
-2.93788498535
-3.01253292255
-3.08685455347
-3.16103703213
-3.23518652775
-3.30935903532
-3.38357992346
-3.45785701399
-3.53218840609
-3.60656711504
-3.68098464264
-3.75543240955
-3.8299020684
-3.90438628509
-3.97887897636
-4.05337493705
-4.12786990351
-4.20236041979
-4.2768436071
-4.35131687812
-4.42577776073
-4.50022414503
-4.57465406536
-4.64906539436
-4.72345619013
-4.79782447142
-4.87216782455
-4.94648389277
-5.02077030024
-5.09502446274
-5.16924368171
-5.24342496572
-5.31756497707
-5.3916601885
-5.46570687788
-5.53970106708
-5.61363847933
-5.68751427229
-5.76132335748
-5.83506028134
-5.90871908089
-5.98229347398
-6.05577683217
-6.12916206385
-6.20244159988
-6.27560735521
-6.34865063922
-6.42156209925
-6.49433190105
-6.56694967765
-6.6394042099
-6.71168346374
-6.78377478866
-6.8556647994
-6.92733920227
-6.99878274319
-7.06997929462
-7.1409119603
-7.21156303695
-7.28191372814
-7.35194394804
-7.42163251725
-7.49095727589
-7.55989482012
-7.62842032791
-7.69650769212
-7.76412965552
-7.83125766886
-7.89786165518
-7.96390987969
-8.02936902309
-8.09420452345
-8.15838053613
-8.22185933215
-8.28460121482
-8.34656498746
-8.40770792137
-8.46798537058
-8.52735060035
-8.58575487057
-8.6431479041
-8.69947783123
-8.75469043132
-8.80872920622
-8.86153589865
-8.91305061016
-8.96321161408
-9.01195460264
-9.05921303757
-9.10491875045
-9.14900205955
-9.19139126314
-9.23201217062
-9.27078845645
-9.30764233578
-9.34249413215
-9.37526213996
-9.40586353277
-9.4342135213
-9.46022469267
-9.48380897502
-9.50487726522
-9.52333742305
-9.53909613421
-9.55206065494
-9.56213673044
-9.56922757336
-9.57323572137
-9.57406340801
-9.57161197772
-9.56578244069
-9.55647494695
-9.54358944285
-9.52702438645
-9.50667877916
-9.4824526935
-9.45424475102
-9.42195299169
-9.3854766215
-9.34471416535
-9.29956404462
-9.24992491128
-9.19569350108
-9.13676690271
-9.07304240733
-9.00441411765
-8.93077276607
-8.85200685233
-8.76800188163
-8.67863613976
-8.5837798824
-8.48329469455
-8.37703028767
-8.26481935555
-8.14647293108
-8.02177897436
-7.89048986859
-7.7523194292
-7.60693853049
-7.45396320348
-7.29296956341
-7.12352486617
-6.94530549457
-6.75838608395
-6.56336517996
-6.36142541668
-6.1610799632
-1.19878773094
-1.38513349786
-1.6275803751
-1.85004899556
-2.03723931605
-2.19126657576
-2.31970405214
-2.42999476816
-2.52778903352
-2.61714885925
-2.70091991585
-2.78104650415
-2.85883626046
-2.93515838069
-3.01058308731
-3.08547893364
-3.16007963253
-3.2345295997
-3.30891519409
-3.38328527863
-3.45766517793
-3.53206630791
-3.60649209942
-3.68094035805
-3.75540785804
-3.82988995191
-3.90438171145
-3.97887873126
-4.05337705121
-4.12787320372
-4.20236418441
-4.2768473904
-4.35132048595
-4.42578111615
-4.50022717343
-4.5746568291
-4.64906803795
-4.72345874806
-4.79782695655
-4.87217032746
-4.94648649363
-5.02077312687
-5.09502755485
-5.16924696864
-5.24342839375
-5.31756859206
-5.39166407583
-5.46571107914
-5.53970558401
-5.61364329092
-5.68751944578
-5.76132890636
-5.8350661909
-5.90872540036
-5.982300267
-6.05578417304
-6.1291700266
-6.20245020525
-6.27561661308
-6.34866057211
-6.42157279486
-6.49434341217
-6.56696200623
-6.63941740007
-6.71169757198
-6.7837898378
-6.85568082097
-6.9273562888
-6.99880102615
-7.06999887013
-7.14093289982
-7.21158538102
-7.28193753016
-7.35196931385
-7.42165953643
-7.49098594749
-7.55992512759
-7.62845237286
-7.69654168089
-7.76416576084
-7.83129592773
-7.8979020134
-7.96395242396
-8.0294140676
-8.09425229267
-8.15843100024
-8.22191252626
-8.28465742299
-8.34662447701
-8.40777068824
-8.46805127255
-8.52741973275
-8.58582762912
-8.64322458523
-8.69955842233
-8.75477489192
-8.80881782598
-8.8616291853
-8.91314870591
-8.96331425927
-9.01206202838
-9.0593258112
-9.10503725201
-9.14912629378
-9.19152121164
-9.23214815488
-9.27093099691
-9.30779178756
-9.34265060995
-9.37542553051
-9.40603375025
-9.43439106212
-9.46041007092
-9.48400187076
-9.50507744375
-9.52354564909
-9.53931302963
-9.55228624128
-9.56237131584
-9.5694718361
-9.57349046852
-9.57432924855
-9.57188943882
-9.56607208519
-9.55677807663
-9.54390756802
-9.52735955425
-9.50703309009
-9.48282871822
-9.45464614022
-9.42238406382
-9.38594260287
-9.34522122935
-9.3001190128
-9.25053691527
-9.19637471052
-9.13753105502
-9.07390554437
-9.00539683456
-8.93190092024
-8.85331149356
-8.76952083752
-8.68041667558
-8.58588101713
-8.48579050419
-8.3800138633
-8.26840783252
-8.15081484943
-8.02706632879
-7.89697382075
-7.76032863123
-7.61691024357
-7.46648830304
-7.30884904984
-7.14383614935
-6.97144045012
-6.79196569995
-6.60608586157
-6.41470676205
-6.22096837419
-1.53613307922
-1.58789626344
-1.73179018937
-1.89608389957
-2.05041678481
-2.18847405694
-2.31062760865
-2.41941622376
-2.51786017578
-2.60869003941
-2.69409760852
-2.77573559744
-2.85480561934
-2.93215954518
-3.00838897953
-3.0838975114
-3.15895584451
-3.23374211327
-3.30837124023
-3.38291530041
-3.45741776202
-3.53190405539
-3.60638811823
-3.68087555626
-3.7553689897
-3.82986795869
-3.90437041936
-3.978873991
-4.05337620994
-4.12787461234
-4.20236677677
-4.27685044064
-4.3513235929
-4.42578414482
-4.50023003747
-4.57465949264
-4.64907058853
-4.72346122309
-4.79782938498
-4.87217280983
-4.94648910623
-5.0207759117
-5.09503055155
-5.16925015589
-5.24343177507
-5.31757223309
-5.39166809234
-5.46571557141
-5.5397105583
-5.61364872855
-5.68752535789
-5.76133525511
-5.83507296854
-5.9087326908
-5.98230815508
-6.05579270392
-6.12917920723
-6.202460028
-6.27562705922
-6.348671684
-6.42158471218
-6.49435627048
-6.56697583849
-6.6394322037
-6.71171338893
-6.78380675884
-6.85569893956
-6.92737565337
-6.99882168709
-7.0700209669
-7.14095658325
-7.21161071443
-7.28196452109
-7.35199802289
-7.42169007341
-7.49101840934
-7.55995959572
-7.62848895219
-7.69658050824
-7.76420696693
-7.83133959149
-7.89794814615
-7.96400109045
-8.02946551051
-8.09430676591
-8.15848859198
-8.22197331439
-8.28472161172
-8.34669228632
-8.40784219739
-8.4681263919
-8.5274984508
-8.58591025241
-8.64331145838
-8.69964960999
-8.75487034952
-8.80891765492
-8.8617336408
-8.91325796931
-8.96342825532
-9.01218060581
-9.05944910266
-9.1051655552
-9.14925971755
-9.19165961799
-9.23229164053
-9.27107993981
-9.30794635233
-9.34281087587
-9.3755917445
-9.40620601937
-9.43456966605
-9.46059571065
-9.48419469308
-9.50527702027
-9.52375226975
-9.53952767565
-9.55250950249
-9.56260331868
-9.56971296319
-9.57374118499
-9.57459031148
-9.57216200102
-9.56635742865
-9.55707724167
-9.54422215176
-9.52769227182
-9.5073867227
-9.48320567487
-9.45504978778
-9.42281910945
-9.38641472481
-9.34573729483
-9.30068678728
-9.25116580494
-9.19707723484
-9.13832239178
-9.07480328767
-9.00642251776
-8.93308171958
-8.85468074439
-8.77111871173
-8.68229270067
-8.58809697147
-8.48842314137
-8.38315829279
-8.2721832056
-8.15537063804
-8.03259078595
-7.90370779522
-7.76857917061
-7.62706986992
-7.47906097876
-7.32447355618
-7.16330200743
-6.99566333802
-6.8218595303
-6.64233187641
-6.45740778057
-6.26769952506
-1.74020692052
-1.73522912243
-1.81920307396
-1.93999232808
-2.06663552707
-2.18931507703
-2.30421164088
-2.41040801677
-2.50869108259
-2.60048001768
-2.68724083008
-2.77025603407
-2.85056020895
-2.92894701931
-3.0060043606
-3.08215665667
-3.15770414715
-3.23285509317
-3.30775158638
-3.38248880966
-3.45712888348
-3.53171173934
-3.60626237915
-3.6807958664
-3.75531988601
-3.82983896248
-3.90435441351
-3.97886615995
-4.0533733676
-4.12787470116
-4.20236849795
-4.27685293797
-4.35132633377
-4.4257869174
-4.50023273483
-4.574662042
-4.64907302284
-4.72346357267
-4.79783165857
-4.87217511563
-4.94649150347
-5.02077837729
-5.09503309488
-5.16925283434
-5.24343465369
-5.31757535069
-5.39167147258
-5.46571925915
-5.53971453908
-5.61365294713
-5.68752977473
-5.76133986279
-5.83507781279
-5.90873786081
-5.98231380462
-6.05579890541
-6.12918597619
-6.20246737836
-6.27563496712
-6.3486801412
-6.42159379841
-6.49436609445
-6.56698641665
-6.63944348393
-6.71172536584
-6.78381950833
-6.85571256753
-6.927390225
-6.99883725496
-7.07003764279
-7.14097448877
-7.21162986534
-7.28198484253
-7.35201948895
-7.42171277815
-7.49104251452
-7.55998522933
-7.62851616104
-7.69660930868
-7.76423739623
-7.83137172871
-7.89798209632
-7.96403694265
-8.0295033843
-8.09434685714
-8.15853109118
-8.22201832935
-8.28476917248
-8.34674242504
-8.40789503443
-8.46818206813
-8.5275570579
-8.58597190673
-8.64337629077
-8.69971775578
-8.75494199505
-8.80899291
-8.86181261216
-8.91334089964
-8.96351535589
-9.0122718743
-9.05954461387
-9.10526560025
-9.1493645422
-9.19176929175
-9.2324063009
-9.27119974135
-9.30807120149
-9.34294093659
-9.37572769911
-9.40634819035
-9.43471786827
-9.46075025415
-9.48435597421
-9.50544483946
-9.52392669177
-9.53970966495
-9.55269982486
-9.56280228757
-9.56992091258
-9.57395852945
-9.57481776303
-9.57240089111
-9.56660927949
-9.55734335719
-9.54450403408
-9.52799264689
-9.50770884641
-9.48355237042
-9.45542470341
-9.42322709399
-9.3868612636
-9.34622951001
-9.30123343786
-9.25177675571
-9.19776485713
-9.13910221968
-9.07569355389
-9.00744490686
-8.93426330661
-8.85605499604
-8.77272571682
-8.68418155457
-8.59032866526
-8.49107228886
-8.38631602679
-8.27596253942
-8.15991130257
-8.03806478812
-7.91032996397
-7.77661601962
-7.63684860204
-7.49098030988
-7.33900763592
-7.1809925474
-7.01707989887
-6.84750451201
-6.67251145132
-6.49211511548
-6.30609351068
-1.86333533184
-1.83788021355
-1.88723852207
-1.97739778302
-2.08232270521
-2.19164509949
-2.29948172863
-2.40270542375
-2.50037931062
-2.59276959584
-2.68064088096
-2.7648849109
-2.84634031378
-2.92571833124
-3.00358607763
-3.08037779105
-3.15641659031
-3.23193715387
-3.30710667602
-3.38204238345
-3.45682469464
-3.53150798611
-3.60612859967
-3.6807101277
-3.75526640351
-3.82980686742
-3.90433623826
-3.9788568372
-4.05336947651
-4.12787398732
-4.2023695755
-4.27685493907
-4.35132869362
-4.42578937933
-4.50023520027
-4.57466440663
-4.64907525785
-4.72346569707
-4.79783367895
-4.87217709807
-4.94649351778
-5.02078041801
-5.09503519026
-5.16925506632
-5.24343710632
-5.31757805174
-5.39167440579
-5.4657224327
-5.53971799576
-5.61365666028
-5.68753371272
-5.76134406892
-5.8350823476
-5.90874277159
-5.98231905619
-6.05580451338
-6.12919198724
-6.20247384423
-6.27564193114
-6.34868762668
-6.42160183561
-6.49437474104
-6.56699570095
-6.63945339734
-6.71173591988
-6.78383075526
-6.85572460074
-6.92740314888
-6.99885113418
-7.07005248706
-7.14099030896
-7.21164668394
-7.28200266002
-7.352038347
-7.42173282686
-7.49106392908
-7.56000808828
-7.62854044842
-7.69663499088
-7.76426446887
-7.831400278
-7.89801229938
-7.96406891425
-8.02953715138
-8.09438253513
-8.15856889639
-8.22205840308
-8.28481149983
-8.34678693516
-8.40794180533
-8.46823134796
-8.52760899118
-8.58602639744
-8.64343322396
-8.69977727828
-8.75500444361
-8.80905841888
-8.86188103448
-8.91341224192
-8.96358981935
-9.01234961969
-9.05962569028
-9.10535004573
-9.14945254479
-9.19186110884
-9.23250200058
-9.27129924771
-9.30817450761
-9.34304835005
-9.37583990377
-9.40646562093
-9.43484029894
-9.46087760856
-9.48448875401
-9.50558335387
-9.52407116074
-9.53986058098
-9.55285769394
-9.56296758478
-9.57009422969
-9.57414051651
-9.57500913798
-9.57260268693
-9.56682309484
-9.55757098749
-9.54474706943
-9.52825315454
-9.5079898917
-9.48385745817
-9.4557579479
-9.42359340822
-9.38726601555
-9.34667962623
-9.30173790873
-9.2523457193
-9.19841035174
-9.13983929131
-9.07654036525
-9.00842310225
-8.93539919507
-8.85738078625
-8.7742802083
-8.68601205314
-8.59249292245
-8.49363981301
-8.38937074541
-8.27960733965
-8.16427226179
-8.04329335692
-7.91660961542
-7.78416923939
-7.64593902916
-7.50191533848
-7.35213387944
-7.19668169207
-7.03569985952
-6.86936755923
-6.69783887856
-6.52107953949
-6.33883714597
-1.93737698217
-1.90632847722
-1.93625855534
-2.00603041476
-2.09519849695
-2.19407551169
-2.29595459859
-2.39642673472
-2.49335332832
-2.58609954348
-2.67483659202
-2.76010306761
-2.84254825344
-2.92279601336
-3.0013848142
-3.07875114922
-3.15523471583
-3.23109178531
-3.30651103333
-3.38162895082
-3.45654226389
-3.53131832511
-3.60600368012
-3.68062989857
-3.75521609038
-3.82977649894
-3.90431886617
-3.97884773634
-4.05336546491
-4.12787295947
-4.2023702332
-4.27685650801
-4.35133064985
-4.425791466
-4.50023735683
-4.57466651118
-4.64907721048
-4.72346750857
-4.79783537215
-4.8721787012
-4.94649507754
-5.02078199032
-5.09503686728
-5.169256924
-5.24343918127
-5.31758034377
-5.39167687453
-5.46572505539
-5.5397207744
-5.61365955346
-5.6875366773
-5.76134714769
-5.83508565157
-5.90874638997
-5.98232305308
-6.05580887719
-6.12919672147
-6.20247896689
-6.27564746187
-6.34869358056
-6.4216082185
-6.49438156684
-6.56700297651
-6.63946113308
-6.71174416395
-6.78383956979
-6.85573405423
-6.92741333119
-6.99886210517
-7.07006419848
-7.14100266224
-7.21165966062
-7.28201633933
-7.35205287245
-7.42174836609
-7.4910805721
-7.56002581176
-7.62855921855
-7.69665482141
-7.7642853567
-7.83142223309
-7.89803544553
-7.96409339244
-8.02956301813
-8.09440987564
-8.15859786114
-8.22208909605
-8.28484394182
-8.34682111252
-8.40797778781
-8.46826933074
-8.52764909136
-8.58606853649
-8.64347732394
-8.69982346965
-8.7550529849
-8.80910943536
-8.86193439667
-8.91346788094
-8.9636479582
-9.01241053843
-9.05968939916
-9.10541642072
-9.14952172094
-9.19193331705
-9.23257717887
-9.27137738035
-9.30825592123
-9.34313328937
-9.37592861257
-9.40655843484
-9.43493718263
-9.46097835776
-9.48459373512
-9.50569326626
-9.52418639319
-9.53998128461
-9.55298418233
-9.56310030072
-9.57023383614
-9.57428777615
-9.57516490516
-9.57276800946
-9.56699940238
-9.55776033026
-9.54495133137
-9.52847399792
-9.50823009051
-9.48412072961
-9.45604839188
-9.42391594763
-9.38762624026
-9.34708423741
-9.30219562979
-9.2528667626
-9.19900643912
-9.14052462459
-9.07733247832
-9.00934337987
-8.93647305116
-8.85863867923
-8.77575892705
-8.68775601359
-8.59455557626
-8.49608513662
-8.39227483259
-8.28306174536
-8.16838887973
-8.04820452845
-7.92247084736
-7.79116520618
-7.65428287556
-7.51184876308
-7.36392253791
-7.21060430604
-7.05203475141
-6.88837727546
-6.71978579606
-6.54631770138
-6.36794915194
-1.97960998682
-1.94804685703
-1.96769180482
-2.02513734633
-2.1041502546
-2.19592903506
-2.29354668611
-2.39193398201
-2.48821543262
-2.58114928955
-2.67048174587
-2.75648582157
-2.83966183232
-2.92056096491
-2.99969500094
-3.07749884354
-3.15432273836
-3.23043827447
-3.30604989253
-3.3813084235
-3.45632297688
-3.53117087642
-3.6059062683
-3.68056615649
-3.75517671288
-3.82975280027
-3.90430524079
-3.97884050592
-4.05336219425
-4.12787202323
-4.20237060739
-4.27685763121
-4.35133214003
-4.42579307864
-4.50023902485
-4.57466816019
-4.64907872875
-4.72346889141
-4.79783665129
-4.87217989379
-4.94649622866
-5.02078316995
-5.09503816487
-5.16925838551
-5.24344079214
-5.31758209995
-5.3916787637
-5.46572704935
-5.5397228551
-5.61366170166
-5.6875389195
-5.76134955632
-5.83508825402
-5.90874919419
-5.98232608052
-6.05581218165
-6.12920032469
-6.20248285487
-6.27565162642
-6.34869804718
-6.42161302973
-6.49438673898
-6.56700848798
-6.63946697154
-6.71175037978
-6.7838462452
-6.85574122641
-6.92742100457
-6.99887029656
-7.07007289373
-7.14101178511
-7.21166920181
-7.28202645031
-7.35206374895
-7.42176008802
-7.49109309458
-7.56003906698
-7.62857318853
-7.69666954558
-7.76430086843
-7.83143851475
-7.89805252747
-7.96411142187
-8.02958215689
-8.09443020275
-8.15861937844
-8.22211180054
-8.28486789801
-8.34684641339
-8.40800447739
-8.46829740113
-8.52767853169
-8.58609943222
-8.64350982311
-8.69985757116
-8.75508863397
-8.80914667372
-8.86197327848
-8.91350842542
-8.96369029671
-9.01245485949
-9.05973573212
-9.10546468126
-9.14957197182
-9.19198569113
-9.2326316461
-9.27143407887
-9.30831523759
-9.34319536318
-9.37599339689
-9.40662620897
-9.43500810678
-9.46105228214
-9.48467092454
-9.50577436537
-9.52427171861
-9.54007109621
-9.55307888745
-9.56320024119
-9.57033947965
-9.57440005027
-9.57528501476
-9.57289698965
-9.56713834588
-9.55791103582
-9.54511588423
-9.5286543063
-9.50842884538
-9.48434152437
-9.45629515846
-9.42419356561
-9.387940488
-9.34744162233
-9.30260440455
-9.25333699614
-9.19954973689
-9.14115464356
-9.07806593742
-9.01020098357
-8.93747935876
-8.85982275136
-8.77715531629
-8.68940554674
-8.59650734595
-8.49839853553
-8.3950201142
-8.28632094338
-8.17226058321
-8.05280541264
-7.92793554158
-7.7976509706
-7.66196910824
-7.52093656945
-7.37463404728
-7.22317866224
-7.06672627236
-6.90546113103
-6.73958961141
-6.56930893312
-6.39484956634
-1.9988587178
-1.96776266003
-1.98298656873
-2.03465430461
-2.10871132526
-2.19691249808
-2.29231665025
-2.38958502614
-2.48549685141
-2.57850767364
-2.66814301894
-2.75453373057
-2.83809833355
-2.91934685066
-2.99877503586
-3.07681590355
-3.15382476005
-3.23008111294
-3.30579773601
-3.38113305136
-3.45620287894
-3.53109008125
-3.6058530582
-3.68053222847
-3.75515532213
-3.82973985012
-3.90429776486
-3.97883650226
-4.05336037492
-4.12787151012
-4.20237080311
-4.27685826328
-4.35133306141
-4.42579411004
-4.50024006503
-4.57466916913
-4.64907966211
-4.72346974369
-4.79783742379
-4.87218060768
-4.94649696757
-5.02078401286
-5.09503914672
-5.16925947213
-5.24344191978
-5.31758327144
-5.39168000938
-5.46572835389
-5.5397241914
-5.61366308008
-5.68754039048
-5.76135117757
-5.83509001161
-5.90875105942
-5.98232810385
-6.05581442262
-6.12920277933
-6.20248546083
-6.27565436561
-6.34870097846
-6.42161621715
-6.49439019823
-6.56701219946
-6.63947092792
-6.71175462266
-6.78385082873
-6.85574614248
-6.92742618482
-6.99887569421
-7.0700785086
-7.14101761385
-7.2116752943
-7.28203298151
-7.35207087352
-7.42176777739
-7.49110124576
-7.56004766669
-7.62858225372
-7.69667906053
-7.76431083425
-7.83144893192
-7.89806341628
-7.96412290958
-8.02959439559
-8.09444322185
-8.15863312066
-8.22212625881
-8.28488315829
-8.34686256056
-8.40802152068
-8.46831529535
-8.52769726812
-8.58611912284
-8.64353060843
-8.69987934894
-8.75511119476
-8.80917006888
-8.86199774023
-8.91353404484
-8.96371701493
-9.01248267173
-9.05976471051
-9.10549482931
-9.14960326859
-9.19201826647
-9.23266567294
-9.27146965606
-9.30835248042
-9.34323435634
-9.37603409357
-9.40666875848
-9.43505277399
-9.46109916311
-9.48472029942
-9.50582662188
-9.52432704198
-9.54012980005
-9.55314144857
-9.56326687738
-9.5704106598
-9.57447699071
-9.57536908303
-9.57298920224
-9.56723956106
-9.55802273262
-9.5452402576
-9.52879349371
-9.50858534517
-9.48451878337
-9.4564971474
-9.42442511039
-9.38820743015
-9.3477504577
-9.30296307078
-9.25375522825
-9.20003894511
-9.14172847987
-9.07874087636
-9.01099677651
-8.93841920265
-8.86093439665
-8.77847192619
-8.69096591116
-8.5983573888
-8.50059332467
-8.39762551769
-8.28941322121
-8.17592909067
-8.05715586752
-7.93308907916
-7.80374838225
-7.66917230665
-7.52942690633
-7.3846150366
-7.23487841279
-7.08040374549
-6.92141881767
-6.75820315458
-6.59108945881
-6.42050903017
-1.99885892802
-1.96776254091
-1.98298622298
-2.03465429729
-2.10871152036
-2.19691233843
-2.29231651313
-2.38958501523
-2.48549683469
-2.578507716
-2.66814315438
-2.75453383924
-2.83809834222
-2.91934677291
-2.99877492525
-3.07681585155
-3.15382477132
-3.23008115761
-3.30579783242
-3.38113314147
-3.45620291894
-3.53109015105
-3.60585320616
-3.68053241867
-3.755155504
-3.8297399798
-3.90429783127
-3.97883651864
-4.05336039739
-4.12787158578
-4.20237089709
-4.27685839479
-4.35133330654
-4.42579442791
-4.50024038187
-4.57466947051
-4.64907995097
-4.7234700304
-4.79783769912
-4.87218086258
-4.94649727075
-5.02078443078
-5.09503968143
-5.1692600647
-5.24344250543
-5.31758386054
-5.39168064718
-5.46572901524
-5.53972484333
-5.61366375372
-5.68754113457
-5.76135200413
-5.8350909077
-5.90875201546
-5.9823291462
-6.05581559137
-6.1292040385
-6.20248675148
-6.27565571266
-6.34870247144
-6.42161788708
-6.49439200328
-6.56701411604
-6.63947296902
-6.71175681715
-6.78385318599
-6.85574863867
-6.92742876057
-6.99887828616
-7.07008110972
-7.14102027824
-7.21167810759
-7.28203603513
-7.35207420522
-7.42177133558
-7.49110497207
-7.56005158428
-7.62858638041
-7.69668332636
-7.76431518795
-7.8314534248
-7.89806815761
-7.96412798464
-8.02959979974
-8.09444890785
-8.15863909418
-8.22213255017
-8.28488976451
-8.34686945808
-8.40802873253
-8.46832293321
-8.52770539373
-8.58612770277
-8.64353956096
-8.69988858381
-8.75512060162
-8.80917968716
-8.86200775541
-8.91354456239
-8.96372794125
-9.01249388914
-9.05977631019
-9.10550691
-9.14961577093
-9.19203126692
-9.23267937939
-9.2714840072
-9.30836748222
-9.34325015291
-9.37605065432
-9.4066860786
-9.43507116766
-9.46111895661
-9.48474171865
-9.50584989866
-9.52435231892
-9.54015728284
-9.55317157688
-9.56330017673
-9.5704477378
-9.57451881525
-9.57541683512
-9.57304397744
-9.56730234528
-9.5580949268
-9.54532400541
-9.5288910372
-9.50869911943
-9.48465218918
-9.45665424028
-9.42461053012
-9.38842685183
-9.34801047504
-9.30327165787
-9.25412195005
-9.20047501771
-9.14224776951
-9.07936007179
-9.01173510557
-8.93929873167
-8.8619816856
-8.7797195661
-8.69245242523
-8.60012753645
-8.50269939774
-8.40013027966
-8.29238996432
-8.17946262319
-8.06134682142
-7.93805312607
-7.80961807974
-7.67610203837
-7.5375935055
-7.39422041735
-7.24615328623
-7.09361656172
-6.93689137587
-6.77633001465
-6.6123717592
-6.44558099659
-1.97961040514
-1.94804649398
-1.96769101872
-2.02513727484
-2.10415073272
-2.19592863025
-2.29354633755
-2.39193398367
-2.48821543862
-2.58114942148
-2.67048208267
-2.75648608512
-2.83966188232
-2.92056079474
-2.9996947176
-3.0774987137
-3.15432279726
-3.23043844116
-3.30605018439
-3.38130867211
-3.45632309683
-3.5311710995
-3.60590669527
-3.68056667941
-3.75517721066
-3.82975318004
-3.90430548344
-3.97884062638
-4.05336230901
-4.12787224481
-4.20237087498
-4.2768580305
-4.35133285512
-4.42579399443
-4.50023997112
-4.5746690966
-4.64907961321
-4.72346973127
-4.79783745726
-4.87218069444
-4.94649720825
-5.02078446488
-5.09503973888
-5.16926009739
-5.24344249954
-5.31758383757
-5.39168065037
-5.46572904335
-5.53972488258
-5.61366382009
-5.68754121568
-5.76135206178
-5.83509093115
-5.90875204149
-5.98232919449
-6.05581563148
-6.12920402218
-6.20248667672
-6.2756556654
-6.34870253607
-6.42161803753
-6.49439215652
-6.56701425571
-6.63947312643
-6.71175698145
-6.78385331147
-6.85574868534
-6.92742868068
-6.99887801659
-7.07008065286
-7.14101974403
-7.21167760649
-7.28203556795
-7.35207371102
-7.42177079266
-7.49110438398
-7.56005092934
-7.6285855943
-7.69668232183
-7.76431396359
-7.8314521028
-7.89806683361
-7.96412659628
-8.02959821007
-8.09444711554
-8.15863723014
-8.22213063211
-8.28488767602
-8.34686716484
-8.40802631107
-8.46832049393
-8.52770294227
-8.58612504156
-8.64353651829
-8.6998851937
-8.75511692619
-8.80917566537
-8.86200335464
-8.913539879
-8.96372299693
-9.01248851425
-9.05977046431
-9.10550078629
-9.14960945822
-9.19202477064
-9.23267271491
-9.27147706136
-9.30836018638
-9.34324263553
-9.37604290491
-9.40667808271
-9.43506333221
-9.46111165663
-9.48473501594
-9.50584399819
-9.52434746404
-9.54015343384
-9.55316908239
-9.56330002738
-9.57045079758
-9.57452556126
-9.57542800706
-9.57306097997
-9.56732658527
-9.55812755803
-9.54536681505
-9.52894642984
-9.50876970747
-9.48474137381
-9.45676614552
-9.42474974198
-9.38859894585
-9.34822209532
-9.30353087001
-9.25443855266
-9.20086043397
-9.14271573973
-9.07992693773
-9.0124201461
-8.94012448954
-8.86297480019
-8.78091247925
-8.69388350497
-8.6018414805
-8.50474836895
-8.40257640008
-8.29530644309
-8.18293355662
-8.06547162315
-7.94294732884
-7.81541472299
-7.68295458014
-7.54568000967
-7.40374682895
-7.25735740264
-7.1067743302
-6.95232794541
-6.79443078908
-6.63359427617
-6.4704558976
-1.93737713459
-1.90632783257
-1.93625788115
-2.00603019257
-2.09519905566
-2.19407514903
-2.29595422168
-2.39642672287
-2.49335341465
-2.58609980552
-2.67483704005
-2.76010341651
-2.84254838268
-2.92279584878
-3.00138447863
-3.07875101943
-3.15523483871
-3.23109204668
-3.3065114393
-3.38162930378
-3.4565425198
-3.53131877905
-3.60600438048
-3.6806306795
-3.75521681505
-3.82977708131
-3.90431931078
-3.97884805772
-4.05336576538
-4.12787336541
-4.20237071018
-4.2768572107
-4.3513317841
-4.42579288176