/*--------------------------------*- C++ -*----------------------------------*\
| =========                 |                                                 |
| \\      /  F ield         | OpenFOAM: The Open Source CFD Toolbox           |
|  \\    /   O peration     | Version:  2106                                  |
|   \\  /    A nd           | Website:  www.openfoam.com                      |
|    \\/     M anipulation  |                                                 |
\*---------------------------------------------------------------------------*/
FoamFile
{
    version     2.0;
    format      ascii;
    arch        "LSB;label=32;scalar=64";
    class       volVectorField;
    location    "0.25";
    object      U;
}
// * * * * * * * * * * * * * * * * * * * * * * * * * * * * * * * * * * * * * //

dimensions      [0 1 -1 0 0 0 0];

internalField   nonuniform List<vector> 
9600
(
(0.675396187101 0.157677432473 0)
(0.563826159211 0.102430801091 0)
(0.381538920893 0.05106469524 0)
(0.283853183952 0.0244589903993 0)
(0.232281027287 0.0119348213944 0)
(0.201907705717 0.00623035690326 0)
(0.183178401108 0.00352192707812 0)
(0.171271981721 0.00212007572861 0)
(0.163512237182 0.00132523564979 0)
(0.158392655106 0.000841456756705 0)
(0.155010692069 0.000534136114093 0)
(0.152789973535 0.000335039724331 0)
(0.151348684903 0.000205521347813 0)
(0.150429236331 0.000121792531296 0)
(0.149856447992 6.84342836129e-05 0)
(0.149511110433 3.51733488405e-05 0)
(0.149312500033 1.50866042346e-05 0)
(0.149206449623 3.50371222634e-06 0)
(0.14915706875 -2.70688947521e-06 0)
(0.149140958681 -5.61152888945e-06 0)
(0.149143241786 -6.52740110334e-06 0)
(0.149154637842 -6.41797223946e-06 0)
(0.149169576816 -5.78181730656e-06 0)
(0.149184948729 -4.92828678487e-06 0)
(0.149199118586 -4.04293932127e-06 0)
(0.149211365493 -3.22402596505e-06 0)
(0.149221502428 -2.51532792707e-06 0)
(0.149229629405 -1.9285492226e-06 0)
(0.149235983552 -1.45844039146e-06 0)
(0.149240849602 -1.09162799626e-06 0)
(0.149244509784 -8.11630768826e-07 0)
(0.149247219182 -6.01908132559e-07 0)
(0.14924919527 -4.47485355875e-07 0)
(0.14925061617 -3.35715489043e-07 0)
(0.149251623264 -2.55961242733e-07 0)
(0.14925232659 -1.99534578521e-07 0)
(0.149252811036 -1.59838384272e-07 0)
(0.149253139969 -1.31658755921e-07 0)
(0.149253359208 -1.10909445317e-07 0)
(0.149253502518 -9.51341780329e-08 0)
(0.149253594416 -8.32285450542e-08 0)
(0.149253652352 -7.47330372897e-08 0)
(0.149253688478 -7.09102592813e-08 0)
(0.149253710148 -7.15682126848e-08 0)
(0.149253722246 -7.46425345292e-08 0)
(0.149253728601 -7.91960291732e-08 0)
(0.149253731719 -8.52626530666e-08 0)
(0.149253733427 -9.28048471959e-08 0)
(0.149253734657 -1.01041908523e-07 0)
(0.149253735515 -1.09714531312e-07 0)
(0.149253736051 -1.19097999682e-07 0)
(0.149253736019 -1.29053906301e-07 0)
(0.149253735345 -1.39390517368e-07 0)
(0.149253734487 -1.50270227736e-07 0)
(0.149253733652 -1.61914972669e-07 0)
(0.149253732856 -1.74288076056e-07 0)
(0.149253732245 -1.8744042059e-07 0)
(0.14925373179 -2.01323014294e-07 0)
(0.149253731265 -2.16185451269e-07 0)
(0.149253730481 -2.32221804177e-07 0)
(0.149253729363 -2.49564847285e-07 0)
(0.149253727916 -2.67985874196e-07 0)
(0.149253726151 -2.87346760843e-07 0)
(0.149253724121 -3.07775717736e-07 0)
(0.149253721855 -3.29643141325e-07 0)
(0.149253719074 -3.53037214343e-07 0)
(0.149253715447 -3.77864537836e-07 0)
(0.149253710943 -4.04125229905e-07 0)
(0.149253705839 -4.31947458159e-07 0)
(0.149253700515 -4.61482732441e-07 0)
(0.149253695263 -4.92623881371e-07 0)
(0.149253690137 -5.251953067e-07 0)
(0.149253684921 -5.59414768886e-07 0)
(0.149253679456 -5.95794016795e-07 0)
(0.149253673785 -6.34466570586e-07 0)
(0.149253667863 -6.75118763135e-07 0)
(0.149253661556 -7.17586642228e-07 0)
(0.149253654824 -7.62189126233e-07 0)
(0.149253647699 -8.09335858487e-07 0)
(0.149253640359 -8.58953055879e-07 0)
(0.149253633169 -9.10688401009e-07 0)
(0.149253626226 -9.64668544825e-07 0)
(0.149253619174 -1.0215237211e-06 0)
(0.149253611925 -1.08150342658e-06 0)
(0.149253604912 -1.14411977564e-06 0)
(0.149253598444 -1.20885246064e-06 0)
(0.149253592776 -1.27586137198e-06 0)
(0.149253588424 -1.34578194659e-06 0)
(0.149253585253 -1.41889864146e-06 0)
(0.149253582126 -1.49488624196e-06 0)
(0.149253578323 -1.57346284085e-06 0)
(0.149253574415 -1.65500087634e-06 0)
(0.149253571484 -1.73999528202e-06 0)
(0.149253569961 -1.8280341013e-06 0)
(0.149253569543 -1.91837075917e-06 0)
(0.149253570054 -2.01130043019e-06 0)
(0.149253571844 -2.10750073297e-06 0)
(0.149253575986 -2.20681549141e-06 0)
(0.149253583428 -2.3083792369e-06 0)
(0.149253593673 -2.41117309291e-06 0)
(0.149253606888 -2.5154970421e-06 0)
(0.149253625783 -2.62255562833e-06 0)
(0.149253652751 -2.73234517413e-06 0)
(0.149253688429 -2.84359259101e-06 0)
(0.149253734122 -2.95613528465e-06 0)
(0.14925379249 -3.07099330647e-06 0)
(0.149253866278 -3.18872854084e-06 0)
(0.149253958834 -3.30941500177e-06 0)
(0.149254075208 -3.43372715485e-06 0)
(0.149254221072 -3.5646655253e-06 0)
(0.149254403894 -3.70891201934e-06 0)
(0.149254635053 -3.86866299614e-06 0)
(0.149254926104 -4.04068118822e-06 0)
(0.149255286039 -4.22283325986e-06 0)
(0.149255728366 -4.41396239895e-06 0)
(0.149256277951 -4.61562612117e-06 0)
(0.149256964657 -4.83037197112e-06 0)
(0.149257817374 -5.05808227004e-06 0)
(0.149258871845 -5.29905467089e-06 0)
(0.149260177831 -5.55664832723e-06 0)
(0.149261796237 -5.8346074149e-06 0)
(0.149263800458 -6.13577300336e-06 0)
(0.149266284823 -6.46617664601e-06 0)
(0.149269376803 -6.85100166666e-06 0)
(0.149273237584 -7.36141943526e-06 0)
(0.14927800594 -8.0900274831e-06 0)
(0.149283871693 -8.97352962817e-06 0)
(0.149291123847 -9.98011359291e-06 0)
(0.149300102673 -1.11084976445e-05 0)
(0.149311223657 -1.23734463172e-05 0)
(0.149324999342 -1.37970565239e-05 0)
(0.149342060489 -1.5405017799e-05 0)
(0.149363190259 -1.72300080203e-05 0)
(0.14938936174 -1.93131611262e-05 0)
(0.149421781548 -2.17058356128e-05 0)
(0.149461951486 -2.4474411306e-05 0)
(0.149511734054 -2.7701746902e-05 0)
(0.149573438834 -3.14915061787e-05 0)
(0.149649944837 -3.59771911727e-05 0)
(0.149744841538 -4.13278820127e-05 0)
(0.149862603932 -4.77554415012e-05 0)
(0.150008824643 -5.55296133497e-05 0)
(0.150190514092 -6.49991072152e-05 0)
(0.150416480578 -7.66095113713e-05 0)
(0.150697829356 -9.09308338231e-05 0)
(0.151048626607 -0.000108701945717 0)
(0.151486781985 -0.000130887112346 0)
(0.15203525315 -0.000158752290726 0)
(0.152723710726 -0.000193964737875 0)
(0.153590908515 -0.000238747502032 0)
(0.154688119541 -0.000296100003582 0)
(0.156084427093 -0.000370214085187 0)
(0.157875740425 -0.000467684985064 0)
(0.160202858219 -0.00060189818851 0)
(0.1632945321 -0.000809966091424 0)
(0.1675759146 -0.00121519266294 0)
(0.174004471989 -0.00225507983541 0)
(0.18543894274 -0.00555985006823 0)
(0.210557406813 -0.0173214843661 0)
(0.265958269598 -0.0605114361433 0)
(0.977201176614 0.296997120096 0)
(0.962687467918 0.250387261297 0)
(0.820646025845 0.158581011902 0)
(0.697824888017 0.0957993490394 0)
(0.610491663115 0.05791327471 0)
(0.549133312461 0.0359038493189 0)
(0.506705980933 0.0229309367468 0)
(0.477662015897 0.0149788801154 0)
(0.457815296959 0.00990973223102 0)
(0.444277672404 0.00658331015889 0)
(0.435087222037 0.0043619882779 0)
(0.428895550614 0.00286682779325 0)
(0.424768031532 0.00185972149871 0)
(0.42205422058 0.00118457334953 0)
(0.420301037149 0.000736111309885 0)
(0.41919366296 0.000442159197809 0)
(0.418514593126 0.00025285950609 0)
(0.418114817164 0.000133738612295 0)
(0.417893358795 6.10520140785e-05 0)
(0.417782715526 1.85774423573e-05 0)
(0.417738457452 -4.63476105823e-06 0)
(0.41773191938 -1.6010363102e-05 0)
(0.417745134306 -2.03064174972e-05 0)
(0.417767156896 -2.06097636249e-05 0)
(0.417791604949 -1.88569596508e-05 0)
(0.417815017348 -1.62222272203e-05 0)
(0.417835735377 -1.33844145843e-05 0)
(0.417853166509 -1.07064867843e-05 0)
(0.417867314578 -8.35779660185e-06 0)
(0.417878486002 -6.39394210203e-06 0)
(0.417887112033 -4.80724556051e-06 0)
(0.417893647442 -3.5587260385e-06 0)
(0.417898516459 -2.59727990495e-06 0)
(0.417902088701 -1.87066277329e-06 0)
(0.417904671703 -1.33042741315e-06 0)
(0.41790651295 -9.34056243581e-07 0)
(0.417907807727 -6.46913184922e-07 0)
(0.417908706045 -4.41656025825e-07 0)
(0.41790931952 -2.96414212196e-07 0)
(0.417909730803 -1.94990298251e-07 0)
(0.417910000984 -1.25534050056e-07 0)
(0.417910173722 -7.93395273862e-08 0)
(0.417910280608 -5.07180123423e-08 0)
(0.417910344831 -3.49719417641e-08 0)
(0.417910381553 -2.71314080207e-08 0)
(0.417910400164 -2.37900161242e-08 0)
(0.41791040728 -2.2290153288e-08 0)
(0.417910408594 -2.07173203989e-08 0)
(0.417910407224 -1.94502899459e-08 0)
(0.417910403747 -1.90760783117e-08 0)
(0.417910398949 -1.98725250328e-08 0)
(0.41791039338 -2.15303686925e-08 0)
(0.41791038694 -2.34748180182e-08 0)
(0.417910379889 -2.56443208093e-08 0)
(0.417910372654 -2.80968568809e-08 0)
(0.417910365434 -3.06794685804e-08 0)
(0.417910358414 -3.33468365332e-08 0)
(0.417910351392 -3.61440056782e-08 0)
(0.417910343918 -3.9148273789e-08 0)
(0.417910335843 -4.24208626436e-08 0)
(0.417910327369 -4.59767274635e-08 0)
(0.417910318671 -4.9521825597e-08 0)
(0.417910309437 -5.27426038418e-08 0)
(0.417910299306 -5.57648270294e-08 0)
(0.417910288357 -5.91040476796e-08 0)
(0.41791027667 -6.29150758491e-08 0)
(0.41791026391 -6.68806935274e-08 0)
(0.417910249802 -7.07298571916e-08 0)
(0.417910234492 -7.46200775544e-08 0)
(0.417910218567 -7.88935303243e-08 0)
(0.417910202583 -8.35068432206e-08 0)
(0.417910186329 -8.81346091898e-08 0)
(0.417910169036 -9.27568055865e-08 0)
(0.417910150624 -9.7765300914e-08 0)
(0.417910131817 -1.03440163142e-07 0)
(0.417910112783 -1.0954094152e-07 0)
(0.417910092843 -1.15681636157e-07 0)
(0.41791007153 -1.21966242935e-07 0)
(0.417910049313 -1.28822557118e-07 0)
(0.417910027105 -1.36188659009e-07 0)
(0.417910005099 -1.43542891787e-07 0)
(0.41790998251 -1.50856515918e-07 0)
(0.417909958852 -1.58741218418e-07 0)
(0.417909935007 -1.6759419929e-07 0)
(0.417909912121 -1.77069462439e-07 0)
(0.417909890005 -1.86360311468e-07 0)
(0.417909868039 -1.95141139183e-07 0)
(0.417909846815 -2.04214998948e-07 0)
(0.417909827116 -2.14563932428e-07 0)
(0.41790980832 -2.26032805492e-07 0)
(0.417909789267 -2.3785262331e-07 0)
(0.417909770174 -2.50108932814e-07 0)
(0.417909753121 -2.63670975674e-07 0)
(0.417909739906 -2.78567839341e-07 0)
(0.417909730036 -2.94045738161e-07 0)
(0.417909722629 -3.1037732806e-07 0)
(0.417909718962 -3.28380377212e-07 0)
(0.417909722096 -3.48478880234e-07 0)
(0.417909734508 -3.71548652252e-07 0)
(0.417909755867 -3.98606483215e-07 0)
(0.417909786144 -4.2922742168e-07 0)
(0.417909830063 -4.63918969323e-07 0)
(0.41790989392 -5.03681369722e-07 0)
(0.417909980935 -5.47968637982e-07 0)
(0.417910093794 -5.96694864705e-07 0)
(0.417910238528 -6.51544823824e-07 0)
(0.417910423565 -7.14030627345e-07 0)
(0.417910658389 -7.84273526444e-07 0)
(0.417910953212 -8.62070217145e-07 0)
(0.417911317471 -9.45280579054e-07 0)
(0.417911770669 -1.02595700199e-06 0)
(0.41791234703 -1.10557232706e-06 0)
(0.417913079197 -1.19726022024e-06 0)
(0.417913995879 -1.30791440446e-06 0)
(0.41791513426 -1.438631341e-06 0)
(0.417916549324 -1.59470941918e-06 0)
(0.417918313207 -1.78722667388e-06 0)
(0.417920507209 -2.02535867617e-06 0)
(0.417923226929 -2.317802284e-06 0)
(0.417926596812 -2.67991201547e-06 0)
(0.41793077421 -3.13207400881e-06 0)
(0.41793595117 -3.69601569497e-06 0)
(0.417942357519 -4.40209762645e-06 0)
(0.417950266199 -5.29748461137e-06 0)
(0.417960022957 -6.47304498946e-06 0)
(0.417972126103 -8.05024632395e-06 0)
(0.417987186281 -1.00570789492e-05 0)
(0.418005883458 -1.25576135611e-05 0)
(0.418029064182 -1.56530039757e-05 0)
(0.418057790657 -1.94802235619e-05 0)
(0.41809338694 -2.42135334117e-05 0)
(0.418137490548 -3.00655648872e-05 0)
(0.418192131026 -3.72987665774e-05 0)
(0.418259827195 -4.62388009375e-05 0)
(0.418343701669 -5.7287454847e-05 0)
(0.418447635147 -7.09475901344e-05 0)
(0.418576446 -8.78462208967e-05 0)
(0.418736114432 -0.00010876097809 0)
(0.418934085822 -0.00013466637946 0)
(0.419179641548 -0.000166787125696 0)
(0.419484355869 -0.000206661592135 0)
(0.419862687238 -0.000256232136948 0)
(0.420332753213 -0.000317970264342 0)
(0.420917322357 -0.000395032309365 0)
(0.421645099958 -0.00049147418585 0)
(0.422552443857 -0.000612560710582 0)
(0.423685672826 -0.000765199921209 0)
(0.425104237247 -0.000958576878055 0)
(0.426885161661 -0.00120509942842 0)
(0.429129512086 -0.00152193804055 0)
(0.431972171686 -0.00193364191316 0)
(0.435597401381 -0.00247702282064 0)
(0.44026535597 -0.00321158495454 0)
(0.446360897993 -0.00424460730766 0)
(0.454489995931 -0.00579777966056 0)
(0.465664411201 -0.00839116918574 0)
(0.481649470891 -0.0133533183346 0)
(0.50585065011 -0.0242926840659 0)
(0.544901095791 -0.0512847854951 0)
(0.603088550832 -0.118716874524 0)
(1.03387038671 0.239240965813 0)
(1.08314081994 0.293634373709 0)
(1.03294437429 0.239131929463 0)
(0.954408201442 0.174539018857 0)
(0.880112577972 0.121551463635 0)
(0.818677612022 0.08323359168 0)
(0.771466787561 0.0568258118859 0)
(0.736691565962 0.0388125743239 0)
(0.711672094049 0.0264913188344 0)
(0.693953121328 0.0180235772317 0)
(0.681568193083 0.012187621341 0)
(0.673018590839 0.00816650477972 0)
(0.667192220797 0.00540556698473 0)
(0.663277736161 0.00352226361871 0)
(0.660690296214 0.00224961241308 0)
(0.659012720251 0.00140002798136 0)
(0.657950511771 0.000841455896605 0)
(0.657298058003 0.000481123164934 0)
(0.656913514062 0.000254194645463 0)
(0.6567003227 0.000115711882043 0)
(0.656593714339 3.47975018441e-05 0)
(0.656551000158 -9.46444910445e-06 0)
(0.656544655796 -3.10089848513e-05 0)
(0.656557352286 -3.90734229472e-05 0)
(0.656578534411 -3.95464119635e-05 0)
(0.656602056248 -3.61186535875e-05 0)
(0.656624584583 -3.10288356816e-05 0)
(0.65664452104 -2.55671424115e-05 0)
(0.65666129477 -2.04221561143e-05 0)
(0.656674909508 -1.59140380943e-05 0)
(0.656685659882 -1.21462344745e-05 0)
(0.656693960727 -9.10280080947e-06 0)
(0.656700249087 -6.70858362128e-06 0)
(0.65670493316 -4.86563438803e-06 0)
(0.656708368999 -3.4734513702e-06 0)
(0.65671085249 -2.43865095474e-06 0)
(0.65671262219 -1.68105482947e-06 0)
(0.656713865865 -1.13536295713e-06 0)
(0.656714726684 -7.48832263431e-07 0)
(0.656715312569 -4.79549890895e-07 0)
(0.656715704572 -2.95281484232e-07 0)
(0.656715962045 -1.71579541327e-07 0)
(0.656716127545 -9.01030891242e-08 0)
(0.656716231 -3.79603322935e-08 0)
(0.656716293254 -6.06462505032e-09 0)
(0.656716329102 1.26189430859e-08 0)
(0.65671634876 2.35657526681e-08 0)
(0.656716357688 3.0438238244e-08 0)
(0.656716358706 3.46462020576e-08 0)
(0.656716354563 3.78922094243e-08 0)
(0.656716347701 4.07970901226e-08 0)
(0.656716339565 4.34546545802e-08 0)
(0.656716330446 4.61507855291e-08 0)
(0.656716320642 4.92252904245e-08 0)
(0.656716310641 5.27517137894e-08 0)
(0.65671630067 5.66956046853e-08 0)
(0.656716290788 6.09522369177e-08 0)
(0.656716280857 6.53071703186e-08 0)
(0.656716270581 6.98192124404e-08 0)
(0.656716259754 7.4627804153e-08 0)
(0.656716248518 8.00028566293e-08 0)
(0.65671623709 8.58978924947e-08 0)
(0.656716225109 9.23177710698e-08 0)
(0.656716211961 9.93354133525e-08 0)
(0.656716197643 1.06794915546e-07 0)
(0.656716182469 1.14492837365e-07 0)
(0.656716166313 1.22580830129e-07 0)
(0.656716148674 1.31379375665e-07 0)
(0.656716129329 1.41046315126e-07 0)
(0.656716108854 1.51494551769e-07 0)
(0.656716088111 1.62466096984e-07 0)
(0.656716067137 1.73778168838e-07 0)
(0.656716045118 1.85702890195e-07 0)
(0.656716021675 1.98655353947e-07 0)
(0.656715997378 2.1251420986e-07 0)
(0.656715972651 2.2690712757e-07 0)
(0.656715947036 2.41863957246e-07 0)
(0.656715919933 2.57738434633e-07 0)
(0.656715891681 2.74638927412e-07 0)
(0.656715863336 2.92263305412e-07 0)
(0.65671583519 3.10280816981e-07 0)
(0.656715806314 3.28773138298e-07 0)
(0.656715776035 3.48368869915e-07 0)
(0.656715745178 3.69460020619e-07 0)
(0.656715715235 3.91577347328e-07 0)
(0.656715686548 4.14510545164e-07 0)
(0.656715658255 4.39039160946e-07 0)
(0.656715630149 4.65502729999e-07 0)
(0.656715603108 4.93031418732e-07 0)
(0.656715577532 5.20806311436e-07 0)
(0.656715552722 5.49110783953e-07 0)
(0.656715528323 5.78978164721e-07 0)
(0.656715506038 6.10667531653e-07 0)
(0.656715488292 6.43125166512e-07 0)
(0.65671547529 6.75483170132e-07 0)
(0.656715466357 7.07970083307e-07 0)
(0.656715462695 7.41572130315e-07 0)
(0.656715466618 7.76734808474e-07 0)
(0.656715480092 8.12124373007e-07 0)
(0.656715505596 8.47624286547e-07 0)
(0.656715546306 8.8471340396e-07 0)
(0.656715606894 9.23122162708e-07 0)
(0.65671569417 9.60016570323e-07 0)
(0.656715814022 9.92664508311e-07 0)
(0.656715971566 1.02008264684e-06 0)
(0.656716175114 1.04100359711e-06 0)
(0.65671643719 1.05299938835e-06 0)
(0.656716773089 1.05339677344e-06 0)
(0.656717202624 1.03858629143e-06 0)
(0.656717753294 1.00586407837e-06 0)
(0.656718450057 9.59475258128e-07 0)
(0.656719313155 8.9632928288e-07 0)
(0.656720380333 7.98767636179e-07 0)
(0.656721707557 6.4994264259e-07 0)
(0.656723356193 4.38451393119e-07 0)
(0.656725401143 1.50885539426e-07 0)
(0.65672794098 -2.36680067856e-07 0)
(0.656731094988 -7.54500455856e-07 0)
(0.656735003401 -1.43434851065e-06 0)
(0.656739842486 -2.31667201974e-06 0)
(0.656745836651 -3.4533345136e-06 0)
(0.656753262006 -4.90966263609e-06 0)
(0.656762459642 -6.76766420663e-06 0)
(0.656773850201 -9.12359506335e-06 0)
(0.656787950221 -1.20861059263e-05 0)
(0.656805403752 -1.57895742446e-05 0)
(0.656827012165 -2.04545651734e-05 0)
(0.656853768026 -2.63387632019e-05 0)
(0.65688690072 -3.37463576039e-05 0)
(0.656927931412 -4.305065545e-05 0)
(0.656978748266 -5.47195389251e-05 0)
(0.657041688273 -6.93328154284e-05 0)
(0.657119646157 -8.7608294009e-05 0)
(0.657216214114 -0.000110437794161 0)
(0.657335844236 -0.000138923853029 0)
(0.65748406292 -0.000174439546467 0)
(0.657667735095 -0.000218700012453 0)
(0.657895383051 -0.000273837343197 0)
(0.658177604279 -0.000342511503754 0)
(0.658527597807 -0.000428059245563 0)
(0.658961815609 -0.00053467642909 0)
(0.659500790737 -0.000667652095632 0)
(0.66017021552 -0.000833688672764 0)
(0.661002326974 -0.00104133525768 0)
(0.66203769229 -0.00130157087839 0)
(0.663327570986 -0.00162862407959 0)
(0.664937076601 -0.00204114361907 0)
(0.666949486891 -0.00256392039163 0)
(0.669472207551 -0.00323050323683 0)
(0.672645311084 -0.00408740605815 0)
(0.676654179524 -0.00520125656317 0)
(0.681748834495 -0.00667170843888 0)
(0.688274645988 -0.00865667415823 0)
(0.696722572404 -0.0114249564978 0)
(0.707812360216 -0.0154720838647 0)
(0.722615495741 -0.0217807345129 0)
(0.74267894103 -0.032385169294 0)
(0.770101503556 -0.0515213282913 0)
(0.807065709899 -0.0877907250844 0)
(0.849806752484 -0.155675740599 0)
(1.0338412796 0.171306949009 0)
(1.1023158477 0.27555674354 0)
(1.11663620784 0.266312367667 0)
(1.0920792439 0.219892600862 0)
(1.05195419255 0.1682103171 0)
(1.01022221038 0.12361533562 0)
(0.973507714371 0.08888505927 0)
(0.943885941046 0.0630494633647 0)
(0.921162793538 0.0442607998016 0)
(0.904299817301 0.0307744361742 0)
(0.892086129623 0.0211830172902 0)
(0.883411227828 0.0144173011322 0)
(0.877355056226 0.00968544439817 0)
(0.873196208455 0.00640758910625 0)
(0.870388055292 0.00416172482382 0)
(0.868526249026 0.00264232223072 0)
(0.867317291499 0.00162947731319 0)
(0.86655157863 0.0009660247283 0)
(0.86608165226 0.000540572223899 0)
(0.865805294872 0.000274926352589 0)
(0.865652719842 0.000114790657756 0)
(0.865577086768 2.29543058983e-05 0)
(0.865547472814 -2.57278028702e-05 0)
(0.865543934078 -4.8048497272e-05 0)
(0.865553981033 -5.4928732573e-05 0)
(0.865569983119 -5.33297615119e-05 0)
(0.86558751908 -4.75761138343e-05 0)
(0.865604207729 -4.02483289584e-05 0)
(0.865618919802 -3.28005189565e-05 0)
(0.865631265489 -2.59815942846e-05 0)
(0.865641266224 -2.01136549019e-05 0)
(0.86564915023 -1.5272339339e-05 0)
(0.865655229088 -1.14007442613e-05 0)
(0.865659827936 -8.38008891669e-06 0)
(0.865663249452 -6.07168110295e-06 0)
(0.865665756008 -4.33895928122e-06 0)
(0.865667565172 -3.05894345777e-06 0)
(0.865668852501 -2.12789444378e-06 0)
(0.865669755331 -1.46078659354e-06 0)
(0.86567037882 -9.89203375415e-07 0)
(0.865670802691 -6.6036454299e-07 0)
(0.865671085734 -4.34463635525e-07 0)
(0.865671270525 -2.82343343416e-07 0)
(0.865671387932 -1.82513475886e-07 0)
(0.865671459952 -1.18827348251e-07 0)
(0.865671502022 -7.91873034841e-08 0)
(0.865671524635 -5.53755422678e-08 0)
(0.865671534958 -4.22579745886e-08 0)
(0.86567153794 -3.58360830357e-08 0)
(0.865671535889 -3.30852062137e-08 0)
(0.865671529896 -3.25994883029e-08 0)
(0.865671521319 -3.42680771679e-08 0)
(0.865671510968 -3.76423893446e-08 0)
(0.8656714994 -4.19113233706e-08 0)
(0.86567148706 -4.68689925437e-08 0)
(0.865671474196 -5.22873989458e-08 0)
(0.865671460941 -5.81900160755e-08 0)
(0.865671447209 -6.46292244894e-08 0)
(0.865671432785 -7.13324726948e-08 0)
(0.865671417714 -7.78494716473e-08 0)
(0.865671402105 -8.38698644676e-08 0)
(0.865671385938 -8.97473862775e-08 0)
(0.865671368984 -9.60546878635e-08 0)
(0.865671350719 -1.02867888924e-07 0)
(0.865671330966 -1.10000872589e-07 0)
(0.865671309988 -1.17331187952e-07 0)
(0.865671287797 -1.2491935333e-07 0)
(0.865671264067 -1.32850754962e-07 0)
(0.865671238617 -1.40934220444e-07 0)
(0.86567121175 -1.48921332584e-07 0)
(0.865671183991 -1.57088418837e-07 0)
(0.865671155547 -1.66061254784e-07 0)
(0.865671126054 -1.75931247646e-07 0)
(0.865671095086 -1.86185467812e-07 0)
(0.865671062782 -1.96551425353e-07 0)
(0.865671029457 -2.07345469097e-07 0)
(0.865670994959 -2.19006347633e-07 0)
(0.865670958874 -2.31441817062e-07 0)
(0.865670921236 -2.44199837227e-07 0)
(0.865670882659 -2.57425123628e-07 0)
(0.865670843601 -2.71876652481e-07 0)
(0.865670803995 -2.87737008807e-07 0)
(0.865670763643 -3.04092554467e-07 0)
(0.865670722645 -3.20165985846e-07 0)
(0.865670681743 -3.36607868368e-07 0)
(0.865670641843 -3.54614995576e-07 0)
(0.865670602913 -3.74216119492e-07 0)
(0.86567056444 -3.94603413894e-07 0)
(0.865670526494 -4.15845235744e-07 0)
(0.865670489522 -4.3929608266e-07 0)
(0.865670453998 -4.65962478044e-07 0)
(0.865670420343 -4.95040857691e-07 0)
(0.865670389307 -5.25550169116e-07 0)
(0.865670362301 -5.58744537261e-07 0)
(0.865670340446 -5.96616486911e-07 0)
(0.865670324855 -6.39554258963e-07 0)
(0.865670317511 -6.86742149926e-07 0)
(0.865670320474 -7.37586025518e-07 0)
(0.865670337041 -7.93439358059e-07 0)
(0.865670370665 -8.55731752291e-07 0)
(0.865670422872 -9.24340286115e-07 0)
(0.865670497151 -9.99136149382e-07 0)
(0.865670600615 -1.08271338527e-06 0)
(0.86567074124 -1.17952376108e-06 0)
(0.865670926899 -1.29282348066e-06 0)
(0.865671167484 -1.42483308877e-06 0)
(0.865671476482 -1.57900181201e-06 0)
(0.8656718701 -1.76125532166e-06 0)
(0.865672368062 -1.98005146063e-06 0)
(0.865672997715 -2.24789262811e-06 0)
(0.8656737922 -2.58232013674e-06 0)
(0.865674786262 -2.99570778165e-06 0)
(0.865676024333 -3.49955027853e-06 0)
(0.865677567532 -4.11715910279e-06 0)
(0.865679489596 -4.87576399782e-06 0)
(0.865681877497 -5.80382652747e-06 0)
(0.865684841833 -6.94056947092e-06 0)
(0.865688521749 -8.33939360526e-06 0)
(0.865693083937 -1.00643619142e-05 0)
(0.865698735351 -1.21911048448e-05 0)
(0.865705736348 -1.4813989162e-05 0)
(0.865714408364 -1.80524468043e-05 0)
(0.865725149746 -2.20554108558e-05 0)
(0.86573845444 -2.70110960679e-05 0)
(0.865754930728 -3.31523308804e-05 0)
(0.865775329671 -4.07623512689e-05 0)
(0.865800582924 -5.01883879937e-05 0)
(0.865831848036 -6.18595375613e-05 0)
(0.865870559622 -7.63083659791e-05 0)
(0.865918490521 -9.41951385646e-05 0)
(0.865977840038 -0.000116344817268 0)
(0.866051332844 -0.000143784022841 0)
(0.866142343066 -0.000177786817686 0)
(0.866255058411 -0.000219937956805 0)
(0.866394667912 -0.000272203614252 0)
(0.866567604217 -0.000337028674111 0)
(0.866781855825 -0.000417465503683 0)
(0.867047340572 -0.000517318812142 0)
(0.867376377597 -0.000641335607308 0)
(0.867784287475 -0.000795463013244 0)
(0.86829014476 -0.000987174993707 0)
(0.86891772183 -0.00122588657213 0)
(0.869696697543 -0.001523507886 0)
(0.870664208567 -0.00189519596512 0)
(0.871866832464 -0.00236036663116 0)
(0.873363171108 -0.00294409884231 0)
(0.875227256732 -0.00367912229281 0)
(0.877553104614 -0.00460872081191 0)
(0.880460841559 -0.00579109915744 0)
(0.884105142564 -0.0073062163665 0)
(0.888687095285 -0.00926703365715 0)
(0.894470967673 -0.0118388686496 0)
(0.901807880226 -0.015274475101 0)
(0.911167993846 -0.0199802012944 0)
(0.923179262487 -0.0266438213405 0)
(0.93865123508 -0.0364807473566 0)
(0.958497971 -0.0516746294016 0)
(0.983391794952 -0.0760317931404 0)
(1.01270210578 -0.115606641074 0)
(1.04049410659 -0.177514824102 0)
(1.02388345706 0.11932198279 0)
(1.08875436087 0.231514422939 0)
(1.13660483074 0.252868937076 0)
(1.15406272718 0.228905044376 0)
(1.15000112096 0.188337386265 0)
(1.13537623325 0.146577292792 0)
(1.11757777313 0.110164820831 0)
(1.10059199134 0.0808376077107 0)
(1.08612240498 0.0582502027466 0)
(1.07458761086 0.0413417878505 0)
(1.06578678827 0.0289362851041 0)
(1.05928155724 0.0199770222303 0)
(1.0545913169 0.0135949316535 0)
(1.05128025724 0.00910742809103 0)
(1.04898734921 0.00599313314725 0)
(1.04742903891 0.00386144095009 0)
(1.04639044559 0.00242413624867 0)
(1.04571297791 0.00147134787986 0)
(1.0452820471 0.000852135473519 0)
(1.04501636497 0.000459262470837 0)
(1.04485924145 0.00021748845248 0)
(1.04477181142 7.47160063976e-05 0)
(1.04472782993 -4.64854203851e-06 0)
(1.04470996358 -4.4448109146e-05 0)
(1.04470703719 -6.05380136426e-05 0)
(1.04471195915 -6.30949300718e-05 0)
(1.04472039818 -5.85450010132e-05 0)
(1.0447298385 -5.08117605172e-05 0)
(1.04473891225 -4.21798047175e-05 0)
(1.04474695874 -3.38914716455e-05 0)
(1.04475373772 -2.65456338099e-05 0)
(1.04475924514 -2.03591121851e-05 0)
(1.04476359667 -1.53343480121e-05 0)
(1.04476695763 -1.1364449515e-05 0)
(1.04476950408 -8.29790804048e-06 0)
(1.0447714009 -5.97436635126e-06 0)
(1.04477279149 -4.24304721727e-06 0)
(1.04477379587 -2.97267821992e-06 0)
(1.04477451102 -2.05381843391e-06 0)
(1.04477501267 -1.39799408406e-06 0)
(1.04477535914 -9.3621664632e-07 0)
(1.04477559432 -6.15877310825e-07 0)
(1.04477575065 -3.97057676401e-07 0)
(1.04477585227 -2.49877925869e-07 0)
(1.04477591685 -1.52118006505e-07 0)
(1.04477595682 -8.78277175562e-08 0)
(1.04477598024 -4.58193872121e-08 0)
(1.04477599197 -1.87432173122e-08 0)
(1.04477599534 -2.3627605691e-09 0)
(1.04477599261 6.3584019308e-09 0)
(1.04477598511 1.05086657839e-08 0)
(1.04477597443 1.20127712256e-08 0)
(1.0447759621 1.24626798421e-08 0)
(1.04477594874 1.25966347376e-08 0)
(1.04477593466 1.25899551073e-08 0)
(1.04477592011 1.22407321301e-08 0)
(1.04477590503 1.14111805505e-08 0)
(1.04477588953 1.01942149536e-08 0)
(1.04477587367 9.00418923457e-09 0)
(1.04477585735 8.4305390966e-09 0)
(1.04477584019 8.83435298592e-09 0)
(1.04477582184 9.97065436693e-09 0)
(1.04477580217 1.11331813302e-08 0)
(1.04477578113 1.20182727494e-08 0)
(1.0447757588 1.30076929373e-08 0)
(1.04477573526 1.45387446705e-08 0)
(1.04477571017 1.66079619963e-08 0)
(1.04477568322 1.88846621817e-08 0)
(1.0447756545 2.12605326889e-08 0)
(1.04477562428 2.39868926346e-08 0)
(1.04477559275 2.70561002277e-08 0)
(1.04477556006 3.0040753229e-08 0)
(1.04477552618 3.270753451e-08 0)
(1.04477549092 3.55090851559e-08 0)
(1.04477545421 3.90611826518e-08 0)
(1.04477541607 4.33805812891e-08 0)
(1.04477537635 4.78264063917e-08 0)
(1.04477533508 5.19457145975e-08 0)
(1.04477529242 5.60060634767e-08 0)
(1.04477524848 6.02427727815e-08 0)
(1.04477520346 6.44185777431e-08 0)
(1.04477515775 6.841815981e-08 0)
(1.04477511149 7.26555121899e-08 0)
(1.04477506436 7.77792344578e-08 0)
(1.04477501637 8.38146687851e-08 0)
(1.04477496844 8.98881600442e-08 0)
(1.04477492135 9.54062332376e-08 0)
(1.04477487502 1.00705803499e-07 0)
(1.04477482879 1.06055929824e-07 0)
(1.04477478237 1.10888704194e-07 0)
(1.0447747369 1.14331039642e-07 0)
(1.04477469386 1.16276134859e-07 0)
(1.0447746535 1.17066879526e-07 0)
(1.04477461611 1.15963336123e-07 0)
(1.04477458295 1.11674925071e-07 0)
(1.044774556 1.03449619167e-07 0)
(1.04477453753 9.04565303958e-08 0)
(1.04477452858 7.18609639523e-08 0)
(1.04477453034 4.59858518093e-08 0)
(1.04477454742 8.65447955653e-09 0)
(1.04477458532 -4.27221631167e-08 0)
(1.04477464813 -1.08530556989e-07 0)
(1.04477474097 -1.91253890299e-07 0)
(1.04477487142 -2.96381449838e-07 0)
(1.04477504902 -4.29798609802e-07 0)
(1.04477528522 -5.96507098354e-07 0)
(1.0447755937 -8.03092637257e-07 0)
(1.04477599081 -1.05924919638e-06 0)
(1.0447764972 -1.37564492629e-06 0)
(1.04477714081 -1.76471751298e-06 0)
(1.044777956 -2.24452974475e-06 0)
(1.04477897948 -2.8361364826e-06 0)
(1.04478025507 -3.56366341383e-06 0)
(1.04478184427 -4.46123381457e-06 0)
(1.04478382682 -5.57155885454e-06 0)
(1.04478629568 -6.94180989889e-06 0)
(1.04478936344 -8.62897548088e-06 0)
(1.0447931717 -1.07099071911e-05 0)
(1.04479789509 -1.32805744283e-05 0)
(1.04480375052 -1.64549720115e-05 0)
(1.04481100851 -2.03752429214e-05 0)
(1.0448200028 -2.52169620091e-05 0)
(1.04483114607 -3.11988494438e-05 0)
(1.04484494969 -3.85959119695e-05 0)
(1.04486204592 -4.77513097903e-05 0)
(1.04488321538 -5.90858073528e-05 0)
(1.04490942234 -7.311680375e-05 0)
(1.04494186624 -9.04852884376e-05 0)
(1.04498203641 -0.000111987151905 0)
(1.04503177198 -0.000138605266517 0)
(1.0450933514 -0.000171559737423 0)
(1.04516959812 -0.00021236735336 0)
(1.04526400741 -0.000262908217883 0)
(1.04538091587 -0.000325519211368 0)
(1.04552569678 -0.000403103928516 0)
(1.04570500338 -0.00049926857224 0)
(1.04592708996 -0.000618506370255 0)
(1.04620219964 -0.000766419258785 0)
(1.04654303999 -0.000949995352147 0)
(1.04696538525 -0.00117797500833 0)
(1.04748883805 -0.00146132233316 0)
(1.04813777553 -0.00181382860001 0)
(1.04894253798 -0.00225290137316 0)
(1.04994094035 -0.0028006235585 0)
(1.05118018001 -0.00348517745164 0)
(1.05271927148 -0.00434279046074 0)
(1.05463216883 -0.00542044933399 0)