/*--------------------------------*- C++ -*----------------------------------*\
| =========                 |                                                 |
| \\      /  F ield         | OpenFOAM: The Open Source CFD Toolbox           |
|  \\    /   O peration     | Version:  2106                                  |
|   \\  /    A nd           | Website:  www.openfoam.com                      |
|    \\/     M anipulation  |                                                 |
\*---------------------------------------------------------------------------*/
FoamFile
{
    version     2.0;
    format      ascii;
    arch        "LSB;label=32;scalar=64";
    class       surfaceScalarField;
    location    "0.465";
    object      phi;
}
// * * * * * * * * * * * * * * * * * * * * * * * * * * * * * * * * * * * * * //

dimensions      [0 3 -1 0 0 0 0];

oriented        oriented;

internalField   nonuniform List<scalar> 
22100
(
3.38461205895e-05
1.61538793796e-05
2.24572107854e-05
1.13889101704e-05
1.62585544541e-05
6.19865659061e-06
1.27977779992e-05
3.4607767114e-06
1.08046446204e-05
1.9931336424e-06
9.60459202641e-06
1.20005283327e-06
8.85132463707e-06
7.53267610464e-07
8.36435613517e-06
4.86968698725e-07
8.04433853171e-06
3.20017782863e-07
7.83284402721e-06
2.11494697603e-07
7.6934012065e-06
1.3944305712e-07
7.60224474056e-06
9.1156780409e-08
7.54348246015e-06
5.87626981699e-08
7.50634608363e-06
3.71368715247e-08
7.48350708835e-06
2.28395133503e-08
7.46998669271e-06
1.35208657509e-08
7.46242237408e-06
7.56467838322e-09
7.4585545295e-06
3.86806651547e-09
7.45683565156e-06
1.71899593279e-09
7.456429182e-06
4.06554451396e-10
7.45677921462e-06
-3.49936028899e-10
7.45746576193e-06
-6.86327411186e-10
7.45822460041e-06
-7.58430674451e-10
7.45895040528e-06
-7.25349951237e-10
7.45959518392e-06
-6.44293040394e-10
7.46013949058e-06
-5.43869622079e-10
7.46058184104e-06
-4.42031160287e-10
7.46093067159e-06
-3.48698157198e-10
7.46119890525e-06
-2.68323999556e-10
7.46140068199e-06
-2.02060234403e-10
7.46154942019e-06
-1.49158722685e-10
7.46165693438e-06
-1.07990347949e-10
7.46173286078e-06
-7.6447605245e-11
7.46178536391e-06
-5.30490049676e-11
7.46181840554e-06
-3.37127524866e-11
7.46183708878e-06
-1.91424510608e-11
7.46184603946e-06
-9.38648255871e-12
7.46184867739e-06
-3.05023263188e-12
7.46184697794e-06
1.32158029674e-12
7.46184210358e-06
4.52813928455e-12
7.46183501622e-06
6.85172226627e-12
7.46182636612e-06
8.56810642568e-12
7.46181653339e-06
9.92397394403e-12
7.46180569057e-06
1.10807287092e-11
7.46179391512e-06
1.21678121846e-11
7.46178106943e-06
1.33643536421e-11
7.46176677419e-06
1.47305437413e-11
7.46175069701e-06
1.64703203998e-11
7.46173232571e-06
1.86677419632e-11
7.46171108792e-06
2.14156771826e-11
7.46168635715e-06
2.47711984205e-11
7.46165738729e-06
2.87909802054e-11
7.4616235165e-06
3.35910778238e-11
7.4615839688e-06
3.92488509279e-11
7.46153795948e-06
4.57632673097e-11
7.46148466174e-06
5.30706803548e-11
7.46142344991e-06
6.09526515725e-11
7.46135427521e-06
6.8872957604e-11
7.46127782378e-06
7.60672744501e-11
7.46119665417e-06
8.07324176005e-11
7.46111726845e-06
7.88714213737e-11
7.46105150316e-06
6.5141955845e-11
7.46100692473e-06
4.40358628845e-11
7.46100306782e-06
3.25971801803e-12
7.46107569621e-06
-7.35497175249e-11
7.46128339205e-06
-2.08981783186e-10
7.4617208812e-06
-4.38473040773e-10
7.46253808487e-06
-8.18173298837e-10
7.46397042831e-06
-1.43318985969e-09
7.46637345079e-06
-2.4035927177e-09
7.4701961964e-06
-3.82296742566e-09
7.47665122226e-06
-6.45508853709e-09
7.48742767992e-06
-1.07764239387e-08
7.5056078067e-06
-1.8180126342e-08
7.53879709685e-06
-3.31893012284e-08
7.60801146232e-06
-6.92144961313e-08
7.77466114349e-06
-1.66649964342e-07
8.22952555022e-06
-4.54864759385e-07
9.69699298696e-06
-1.4674675864e-06
-5.45078714848e-06
1.51477800182e-05
5.02175951974e-05
1.59362845178e-05
4.42441126656e-05
1.7362393289e-05
3.77795031645e-05
1.26632666138e-05
3.26461462568e-05
8.5941341244e-06
2.89380946627e-05
5.70118572152e-06
2.6359624708e-05
3.77852321904e-06
2.45875206814e-05
2.52537202144e-06
2.33734789708e-05
1.70101077115e-06
2.25435302658e-05
1.14996686432e-06
2.19782219771e-05
7.76803442655e-07
2.15955199351e-05
5.22145689689e-07
2.13387439625e-05
3.47933498322e-07
2.11685031189e-05
2.29004411684e-07
2.10573462167e-05
1.48294679455e-07
2.09861589739e-05
9.40275943457e-08
2.09416871721e-05
5.79933523645e-08
2.09148058129e-05
3.44465335796e-08
2.089930709e-05
1.9367150845e-08
2.08910836902e-05
9.9426860515e-09
2.0887283774e-05
4.20675530528e-09
2.08862152015e-05
7.19031386145e-10
2.08864615554e-05
-9.31991529602e-10
2.08873336587e-05
-1.62976001933e-09
2.08884738201e-05
-1.86471698996e-09
2.08896477426e-05
-1.81753050986e-09
2.0890731201e-05
-1.62685331538e-09
2.08916690936e-05
-1.37975609017e-09
2.089244674e-05
-1.12653344899e-09
2.08930719412e-05
-8.9405544702e-10
2.08935639562e-05
-6.94876462062e-10
2.08939476182e-05
-5.33847491661e-10
2.08942491147e-05
-4.10289687394e-10
2.08944599205e-05
-2.88266322308e-10
2.0894606716e-05
-2.008913259e-10
2.08947069571e-05
-1.34921290472e-10
2.08947722606e-05
-8.53165916667e-11
2.08948127172e-05
-5.05597498161e-11
2.08948364812e-05
-2.75045644129e-11
2.08948484099e-05
-1.12158088263e-11
2.08948515093e-05
1.05848845471e-12
2.08948481477e-05
1.00603273614e-11
2.08948400507e-05
1.67503433254e-11
2.08948283684e-05
2.19070536002e-11
2.08948138158e-05
2.61129091885e-11
2.0894796874e-05
2.97249660929e-11
2.08947775753e-05
3.33866400068e-11
2.08947558579e-05
3.72014663501e-11
2.08947315277e-05
4.14580076861e-11
2.089470429e-05
4.63393365095e-11
2.0894673841e-05
5.20323356402e-11
2.08946399203e-05
5.85454479486e-11
2.08946024017e-05
6.5827135877e-11
2.08945614211e-05
7.38819948819e-11
2.08945173946e-05
8.24537787202e-11
2.08944712756e-05
9.10187164918e-11
2.08944248516e-05
9.86163441516e-11
2.08943815292e-05
1.03362330265e-10
2.08943473978e-05
1.02077186205e-10
2.0894331961e-05
9.0524212317e-11
2.08943506415e-05
6.10208995339e-11
2.08944308281e-05
-2.27777702771e-12
2.08946208418e-05
-1.25859489002e-10
2.08949891755e-05
-3.25416329224e-10
2.08956551725e-05
-6.64213507714e-10
2.08967240502e-05
-1.14440984727e-09
2.0898376307e-05
-1.86250686903e-09
2.09009690412e-05
-3.03245860064e-09
2.09050503058e-05
-4.90055359519e-09
2.09114894817e-05
-7.87318098404e-09
2.09217104001e-05
-1.26249388392e-08
2.09382032546e-05
-2.03159523993e-08
2.09651114881e-05
-3.33632096655e-08
2.10093745649e-05
-5.50394123749e-08
2.10841621721e-05
-9.29677606765e-08
2.12153945188e-05
-1.64421817191e-07
2.1455967013e-05
-3.09787419627e-07
2.19137091514e-05
-6.24392717712e-07
2.28004780149e-05
-1.3416342457e-06
2.44439852408e-05
-3.11097564092e-06
-7.03658603799e-06
2.60297849491e-05
5.35171056464e-05
1.24191792007e-05
5.29349692625e-05
1.79445302618e-05
4.96538416023e-05
1.59443947897e-05
4.58401834025e-05
1.24077928076e-05
4.2440094796e-05
9.10127476852e-06
3.97291751492e-05
6.48944323787e-06
3.76873089259e-05
4.56723856251e-06
3.61976663203e-05
3.19065366987e-06
3.51326159134e-05
2.21501758567e-06
3.43823711528e-05
1.52704860718e-06
3.38606305562e-05
1.04388681675e-06
3.35023508063e-05
7.06213913451e-07
3.32596064659e-05
4.71749497329e-07
3.30975967374e-05
3.10305159568e-07
3.2991341196e-05
2.00283816995e-07
3.29230997472e-05
1.26235329991e-07
3.28804121069e-05
7.71345338743e-08
3.28546271991e-05
4.51523001546e-08
3.28398003071e-05
2.47697840396e-08
3.2831874045e-05
1.21332794151e-08
3.28280049775e-05
4.58858152808e-09
3.28270068128e-05
6.67672741939e-11
3.28271881659e-05
-1.81042034675e-09
3.28280371402e-05
-2.71298942249e-09
3.2829153384e-05
-2.93315766949e-09
3.28303009546e-05
-2.77398469678e-09
3.28313570703e-05
-2.43566728794e-09
3.283226743e-05
-2.03693162163e-09
3.28330172304e-05
-1.64408381503e-09
3.28336125948e-05
-1.29059046163e-09
3.28340686702e-05
-9.90134934845e-10
3.2834403311e-05
-7.45602807582e-10
3.28346693245e-05
-5.55050309058e-10
3.28348851132e-05
-4.17945953443e-10
3.2835032172e-05
-2.82296147454e-10
3.28351310958e-05
-1.84708847778e-10
3.28351966074e-05
-1.16586098464e-10
3.28352381556e-05
-6.95658727171e-11
3.2835262708e-05
-3.62060015992e-11
3.2835274238e-05
-1.066161634e-11
3.28352762201e-05
7.95697771727e-12
3.28352712702e-05
2.17393900708e-11
3.28352611915e-05
3.21222334576e-11
3.28352471544e-05
4.03823229669e-11
3.28352301893e-05
4.73735212539e-11
3.28352105454e-05
5.37638230945e-11
3.28351885443e-05
6.00350633209e-11
3.28351642539e-05
6.64619661434e-11
3.2835137714e-05
7.32968190641e-11
3.28351088886e-05
8.0929796473e-11
3.28350780438e-05
8.89694462387e-11
3.28350458918e-05
9.71511676931e-11
3.2835013546e-05
1.05185067945e-10
3.28349828872e-05
1.12039247959e-10
3.28349570082e-05
1.15925284342e-10
3.28349405075e-05
1.14249656948e-10
3.28349406389e-05
1.02444102025e-10
3.28349690919e-05
7.2883647692e-11
3.28350432074e-05
1.56840362951e-11
3.28351930406e-05
-8.94715252084e-11
3.28354702411e-05
-2.79901430553e-10
3.28359643136e-05
-6.2033767402e-10
3.28366850334e-05
-1.04735980892e-09
3.28377323533e-05
-1.7124629486e-09
3.28393668528e-05
-2.77908383226e-09
3.28419606769e-05
-4.45716751918e-09
3.28460190301e-05
-7.09179028864e-09
3.28523566327e-05
-1.12391215002e-08
3.28622866699e-05
-1.78039922995e-08
3.2877973394e-05
-2.83120332614e-08
3.29030763176e-05
-4.54188874891e-08
3.29429442354e-05
-7.32310037169e-08
3.3007403676e-05
-1.19498718328e-07
3.31134296055e-05
-1.98993608145e-07
3.32900220234e-05
-3.41014369076e-07
3.35853618947e-05
-6.05127668329e-07
3.40704900876e-05
-1.10952132512e-06
3.4811482754e-05
-2.08262736724e-06
3.56720753101e-05
-3.97157001042e-06
-7.10444804192e-06
3.57399327976e-05
5.35105667607e-05
8.90861275974e-06
5.55742231543e-05
1.58808744856e-05
5.52424839599e-05
1.62761345171e-05
5.35977878704e-05
1.40524893825e-05
5.15418499957e-05
1.11572130676e-05
4.95802825219e-05
8.45101105648e-06
4.79243537347e-05
6.22316764321e-06
4.66181420628e-05
4.49686561341e-06
4.56304694728e-05
3.20269047174e-06
4.49051208086e-05
2.25239766713e-06
4.43840939957e-05
1.56491414621e-06
4.40166983153e-05
1.07361023249e-06
4.37619723427e-05
7.26476173244e-07
4.35882742581e-05
4.84003946574e-07
4.34718753731e-05
3.1668333886e-07
4.33953656888e-05
2.02745527638e-07
4.33461956993e-05
1.26304895061e-07
4.33154583232e-05
7.58899622101e-08
4.32969221946e-05
4.33061780152e-08
4.32862964649e-05
2.27594138968e-08
4.32806940796e-05
1.01914697806e-08
4.32778869575e-05
2.87449253164e-09
4.3277059769e-05
-9.82546787301e-10
4.32772782354e-05
-2.93081669558e-09
4.32779662563e-05
-3.62064640789e-09
4.32788296435e-05
-3.63701716244e-09
4.32797026071e-05
-3.30847980899e-09
4.32805000634e-05
-2.83438075391e-09
4.32811857146e-05
-2.32978161792e-09
4.32817513884e-05
-1.85637095243e-09
4.32822039776e-05
-1.44281335411e-09
4.32825561243e-05
-1.09780474491e-09
4.32828174872e-05
-8.16587976813e-10
4.32829928721e-05
-5.92679062461e-10
4.32831256343e-05
-4.15112189141e-10
4.32832108958e-05
-2.69940269072e-10
4.32832646011e-05
-1.70731255783e-10
4.32833041508e-05
-1.09471917825e-10
4.32833284951e-05
-6.07599662112e-11
4.32833404638e-05
-2.27585800601e-11
4.32833434413e-05
4.7951573321e-12
4.32833395381e-05
2.55975404747e-11
4.32833304018e-05
4.13360445167e-11
4.32833172324e-05
5.35065664271e-11
4.32833008291e-05
6.43000160771e-11
4.32832814689e-05
7.37476382689e-11
4.32832595531e-05
8.27052604094e-11
4.32832352086e-05
9.14840166453e-11
4.32832088007e-05
1.00073445833e-10
4.32831807772e-05
1.08926435469e-10
4.32831518215e-05
1.17593960549e-10
4.32831230148e-05
1.25580268244e-10
4.32830958191e-05
1.31850181755e-10
4.32830724271e-05
1.34830672939e-10
4.32830558088e-05
1.31964295597e-10
4.32830504473e-05
1.19007684332e-10
4.32830645791e-05
8.76686043247e-11
4.3283110456e-05
2.63442098428e-11
4.3283207407e-05
-8.18614874595e-11
4.3283370919e-05
-2.53412809668e-10
4.32836196082e-05
-5.28482912021e-10
4.32840677606e-05
-1.06892365487e-09
4.32848478344e-05
-1.82772990491e-09
4.32861102565e-05
-2.9750395583e-09
4.32880638743e-05
-4.73314520627e-09
4.32910591509e-05
-7.45305604654e-09
4.32956562108e-05
-1.1689616101e-08
4.33027340913e-05
-1.83176983673e-08
4.33136751534e-05
-2.87455046573e-08
4.33306371854e-05
-4.52741669442e-08
4.3356928493e-05
-7.17101004971e-08
4.3398117273e-05
-1.14419636698e-07
4.34630506419e-05
-1.84431971583e-07
4.35654443097e-05
-3.0138727348e-07
4.37252372465e-05
-5.00807579867e-07
4.39669989302e-05
-8.46889830458e-07
4.43073522377e-05
-1.44987511593e-06
4.47075369778e-05
-2.48281219483e-06
4.49265860799e-05
-4.19061920821e-06
-6.57495672951e-06
4.43970921529e-05
5.27351382982e-05
6.1734748125e-06
5.57309353663e-05
1.28850780937e-05
5.73114757134e-05
1.4695594739e-05
5.76109936644e-05
1.37529719369e-05
5.71335248865e-05
1.16346822719e-05
5.63194706957e-05
9.26506558128e-06
5.54489908346e-05
7.09364778566e-06
5.46629805744e-05
5.28287613527e-06
5.40136853378e-05
3.85198599915e-06
5.35061544081e-05
2.75992898502e-06
5.31242589889e-05
1.94681006521e-06
5.28449900285e-05
1.35287977448e-06
5.2645444417e-05
9.2602240203e-07
5.2505720811e-05
6.23728150729e-07
5.24097266366e-05
4.12678033017e-07
5.23450211633e-05
2.67451432768e-07
5.23022838131e-05
1.69042583962e-07
5.2274697086e-05
1.0347698266e-07
5.22573730096e-05
6.06306029339e-08
5.22468648522e-05
3.32680072548e-08
5.22407657441e-05
1.62911450753e-08
5.22374574775e-05
6.18341148643e-09
5.22359593482e-05
5.16221356279e-10
5.22354518159e-05
-2.42271719851e-09
5.22355170153e-05
-3.68542463105e-09
5.22358625243e-05
-3.9823007687e-09
5.22363166409e-05
-3.76253964141e-09
5.22367827737e-05
-3.30055608065e-09
5.22372098746e-05
-2.75695706406e-09
5.2237575266e-05
-2.22180606801e-09
5.22378722384e-05
-1.73985619525e-09
5.22381036154e-05
-1.32912025162e-09
5.22382797132e-05
-9.92563122662e-10
5.22384125032e-05
-7.25449355795e-10
5.22385126625e-05
-5.15433633334e-10
5.22385969274e-05
-3.54768085537e-10
5.223866229e-05
-2.3637249845e-10
5.22387042578e-05
-1.52029868198e-10
5.22387371421e-05
-9.34626066931e-11
5.22387523803e-05
-3.80405115732e-11
5.22387574891e-05
-5.67519166093e-13
5.22387552113e-05
2.76456031956e-11
5.22387471914e-05
4.90800267152e-11
5.22387350243e-05
6.56450824359e-11
5.22387195619e-05
7.93749879341e-11
5.22387014668e-05
9.17688346449e-11
5.22386810835e-05
1.03232288038e-10
5.22386588706e-05
1.13816484959e-10
5.22386360362e-05
1.23310527764e-10
5.22386104479e-05
1.34462045193e-10
5.22385837855e-05
1.44021501384e-10
5.22385573788e-05
1.51726467263e-10
5.22385327831e-05
1.56086351804e-10
5.22385127974e-05
1.5441716426e-10
5.22385033863e-05
1.40963427591e-10
5.22385121218e-05
1.09570558212e-10
5.22385438669e-05
5.50033608811e-11
5.2238622413e-05
-5.29139740654e-11
5.22387439406e-05
-2.03922562618e-10
5.22389427031e-05
-4.52222549177e-10
5.22392823269e-05
-8.68931175263e-10
5.2239804984e-05
-1.59193165064e-09
5.22405840793e-05
-2.60692378938e-09
5.22417525081e-05
-4.14375243822e-09
5.22435139398e-05
-6.49499435713e-09
5.22461698741e-05
-1.01094514405e-08
5.22501726172e-05
-1.56928420167e-08
5.22562138773e-05
-2.43593126535e-08
5.22653529862e-05
-3.78847135834e-08
5.22792076108e-05
-5.91286647773e-08
5.23002354689e-05
-9.27378039335e-08
5.23321518395e-05
-1.46335919435e-07
5.2380299086e-05
-2.3257921702e-07
5.24516006314e-05
-3.72689019674e-07
5.25529152951e-05
-6.02122657261e-07
5.26847811543e-05
-9.78756243772e-07
5.28249650802e-05
-1.59005973856e-06
5.28919809147e-05
-2.54982858024e-06
5.26733930924e-05
-3.97203108922e-06
-5.76612760775e-06
5.18645624292e-05
5.19834867755e-05
4.18998842183e-06
5.50586649256e-05
9.80990066538e-06
5.76386146809e-05
1.21156455816e-05
5.93259050675e-05
1.20656820666e-05
6.02280174558e-05
1.07325703055e-05
6.05929288977e-05
8.90015446065e-06
6.06482860304e-05
7.03829092622e-06
6.05531917513e-05
5.37797066396e-06
6.04029573734e-05
4.00222066295e-06
6.02479171125e-05
2.91496959638e-06
6.01107918942e-05
2.08393572058e-06
5.99990327268e-05
1.46463943427e-06
5.99125179231e-05
1.01253771232e-06
5.98479263781e-05
6.88320162534e-07
5.98010231076e-05
4.59581709059e-07
5.97677387011e-05
3.00736187964e-07
5.97445975577e-05
1.92184048135e-07
5.97288192174e-05
1.19255646246e-07
5.97182713469e-05
7.11788959924e-08
5.97113655223e-05
4.01743581693e-08
5.97069466291e-05
2.07106536813e-08
5.97042132386e-05
8.91746309945e-09
5.97026046865e-05
2.12538905046e-09
5.9701700543e-05
-1.51809044363e-09
5.97012425101e-05
-3.22707563512e-09
5.97010530996e-05
-3.79276532969e-09
5.97010168123e-05
-3.72624492892e-09
5.97010610233e-05
-3.34482873621e-09
5.97011420432e-05
-2.83807467416e-09
5.97012342613e-05
-2.31406193446e-09
5.97013237883e-05
-1.82937104789e-09
5.9701404015e-05
-1.40931978717e-09
5.97014735929e-05
-1.06199823833e-09
5.9701533011e-05
-7.84843220413e-10
5.97015830283e-05
-5.65493272628e-10
5.97016225978e-05
-3.94288198676e-10
5.97016502139e-05
-2.63775432672e-10
5.97016656956e-05
-1.66594817477e-10
5.97016640298e-05
-9.13329904206e-11
5.97016555398e-05
-2.98486900573e-11
5.97016487911e-05
5.88595994839e-12
5.97016394977e-05
3.66240113596e-11
5.97016292447e-05
5.79364212935e-11
5.97016180324e-05
7.62288621552e-11
5.97016045694e-05
9.24278882067e-11
5.97015888819e-05
1.07326279563e-10
5.97015709147e-05
1.21110331121e-10
5.97015507462e-05
1.33822574569e-10
5.97015280092e-05
1.45301211837e-10
5.9701506003e-05
1.55911428376e-10
5.97014849712e-05
1.64797315592e-10
5.97014659788e-05
1.70496477824e-10
5.97014507208e-05
1.71097782264e-10
5.97014406489e-05
1.64139170847e-10
5.97014340349e-05
1.46704932136e-10
5.97014245614e-05
1.17514238517e-10
5.97014301951e-05
4.87315440114e-11
5.97014418691e-05
-6.54352386275e-11
5.97015313131e-05
-2.92916269469e-10
5.97017234939e-05
-6.44844653959e-10
5.97020258889e-05
-1.17178201653e-09
5.97024167127e-05
-1.98317367108e-09
5.9703000621e-05
-3.19114466496e-09
5.97038596184e-05
-5.00328721332e-09
5.97051080727e-05
-7.74401080006e-09
5.97069113511e-05
-1.19132179757e-08
5.97095078854e-05
-1.82897155378e-08
5.97132421881e-05
-2.80937260494e-08
5.97186044594e-05
-4.32468808196e-08
5.97262757208e-05
-6.67997722653e-08
5.97371575192e-05
-1.03619516938e-07
5.97523124662e-05
-1.61490884158e-07
5.9772578209e-05
-2.52845049634e-07
5.97973626408e-05
-3.97473725426e-07
5.98215087068e-05
-6.26269194613e-07
5.98281424339e-05
-9.85390548778e-07
5.97752290535e-05
-1.53714717793e-06
5.95748660765e-05
-2.34946647331e-06
5.90692761421e-05
-3.46644105548e-06
-4.79518843037e-06
5.80983359864e-05
5.14373056916e-05
2.75268314218e-06
5.42658215565e-05
6.98138555413e-06
5.72496447443e-05
9.13182301166e-06
5.97900295269e-05
9.52529780315e-06
6.17201303515e-05
8.8024698931e-06
6.30883055362e-05
7.5319795818e-06
6.40167193071e-05
6.10987743249e-06
6.46292392859e-05
4.76545092725e-06
6.50258064512e-05
3.6056537829e-06
6.52790812741e-05
2.66169511737e-06
6.54389766086e-05
1.92404077628e-06
6.55386937471e-05
1.3649227099e-06
6.55999325969e-05
9.51299277993e-07
6.56367477058e-05
6.5150543482e-07
6.56581990679e-05
4.3813067445e-07
6.56701075384e-05
2.88828022095e-07
6.5676197044e-05
1.86094874746e-07
6.56788336588e-05
1.16619412191e-07
6.56795045001e-05
7.050854483e-08
6.56791287942e-05
4.05506602401e-08
6.56782619719e-05
2.15781386975e-08
6.56772316431e-05
9.94843738714e-09
6.5676222926e-05
3.13464864107e-09
6.56753140664e-05
-6.08869283292e-10
6.56745456625e-05
-2.45846504163e-09
6.56739174798e-05
-3.16451465353e-09
6.56734186591e-05
-3.22748725783e-09
6.5673031777e-05
-2.95806463258e-09
6.56727378847e-05
-2.54428430636e-09
6.56725188481e-05
-2.09508592394e-09
6.56723585502e-05
-1.66909143048e-09
6.56722433019e-05
-1.29408280209e-09
6.56721610397e-05
-9.79662535226e-10
6.56721010423e-05
-7.24788764405e-10
6.56720575549e-05
-5.21882793201e-10
6.56720264127e-05
-3.62842439096e-10
6.56720015293e-05
-2.38535629752e-10
6.56719802211e-05
-1.45154588109e-10
6.56719650222e-05
-7.67548786911e-11
6.56719630199e-05
-2.87474289182e-11
6.56719616718e-05
7.30273027319e-12
6.5671954224e-05
4.37865858726e-11
6.56719441493e-05
6.91312073427e-11
6.56719320174e-05
8.94204642864e-11
6.56719183444e-05
1.07115968598e-10
6.56719032325e-05
1.23317552871e-10
6.56718864362e-05
1.38474440709e-10
6.5671867842e-05
1.52806144976e-10
6.56718479854e-05
1.65809970913e-10
6.56718289892e-05
1.75592759148e-10
6.56718097273e-05
1.84483530227e-10
6.5671790717e-05
1.89676439639e-10
6.56717731581e-05
1.88642531791e-10
6.5671758967e-05
1.78080215151e-10
6.56717519524e-05
1.53348459094e-10
6.56717606736e-05
1.08999225729e-10
6.56717640135e-05
4.31724218755e-11
6.56718014958e-05
-1.02957858008e-10
6.56718693952e-05
-3.61940337551e-10
6.56719698442e-05
-7.46109953164e-10
6.56721229544e-05
-1.32554567128e-09
6.56723359866e-05
-2.19673962308e-09
6.56726258543e-05
-3.4813832121e-09
6.56730090071e-05
-5.38697656877e-09
6.56734967567e-05
-8.23228602441e-09
6.56740871612e-05
-1.25040923935e-08
6.56747505851e-05
-1.89534836159e-08
6.56754022091e-05
-2.87454991967e-08
6.56758420408e-05
-4.3686692185e-08
6.56756435053e-05
-6.66012549485e-08
6.56739385461e-05
-1.01914635689e-07
6.56689954795e-05
-1.56547990655e-07
6.56572835576e-05
-2.41133439265e-07
6.5631679221e-05
-3.71869830225e-07
6.55780397771e-05
-5.72630381855e-07
6.54691475469e-05
-8.76498881477e-07
6.52558627668e-05
-1.3238631557e-06
6.48581892655e-05
-1.95179399446e-06
6.41637454494e-05
-2.77199750013e-06
-3.71391155553e-06
6.30824678959e-05
5.10850426989e-05
1.66764087326e-06
5.3611845569e-05
4.45458345461e-06
5.66873180281e-05
6.0563511829e-06
5.96894484839e-05
6.5231678608e-06
6.22997294474e-05
6.19218932637e-06
6.44136912838e-05
5.41801804541e-06
6.60471876929e-05
4.47638133374e-06
6.72686194911e-05
3.54401941068e-06
6.81598988023e-05
2.71437476277e-06
6.87977657149e-05
2.0238285261e-06
6.92467504396e-05
1.47505639443e-06
6.95579696391e-05
1.05370385091e-06
6.97704366809e-05
7.38832548142e-07
6.99131801171e-05
5.08762287662e-07
7.00073916175e-05
3.43919448327e-07
7.00683016194e-05
2.27918308523e-07
7.01067041644e-05
1.47692679308e-07
7.01301470751e-05
9.31769468228e-08
7.01438369058e-05
5.68192623335e-08
7.01513137968e-05
3.30744046528e-08
7.01549471041e-05
1.79454950065e-08
7.01562956849e-05
8.60045789475e-09
7.01563682773e-05
3.06251049344e-09
7.01557768494e-05
-1.70936659224e-11
7.0154916401e-05
-1.59795423662e-09
7.01539931276e-05
-2.24129240011e-09
7.01531247627e-05
-2.35923035656e-09
7.01523649871e-05
-2.19842846737e-09
7.01517310359e-05
-1.91045140417e-09
7.01512200774e-05
-1.58419597774e-09
7.01508191692e-05
-1.26823488989e-09
7.01505113468e-05
-9.86314427632e-10
7.01502790221e-05
-7.4731259434e-10
7.01501059949e-05
-5.51660029553e-10
7.01499792783e-05
-3.94995519115e-10
7.01498882221e-05
-2.71622812487e-10
7.01498257637e-05
-1.75958113e-10
7.01497843488e-05
-1.0383180489e-10
7.0149755561e-05
-4.83447569294e-11
7.01497256243e-05
1.35081934876e-12
7.01497021091e-05
3.05096213382e-11
7.01496890994e-05
5.65818377173e-11
7.01496789013e-05
7.94494468323e-11
7.01496693172e-05
9.92392119611e-11
7.01496596009e-05
1.1716011707e-10
7.01496493626e-05
1.33926951334e-10
7.01496384748e-05
1.49831739876e-10
7.01496269627e-05
1.6481816275e-10
7.01496146439e-05
1.78551882238e-10
7.01496001544e-05
1.90413942805e-10
7.01495853688e-05
1.99467335564e-10
7.01495711311e-05
2.03957464103e-10
7.01495582212e-05
2.01486647253e-10
7.01495471732e-05
1.88918422017e-10
7.01495374031e-05
1.62756280664e-10
7.01495253111e-05
1.19696542006e-10
7.0149520847e-05
4.83986358086e-11
7.0149507451e-05
-9.09684699122e-11
7.01495203479e-05
-3.76015572051e-10
7.01495447567e-05
-7.71366352802e-10
7.01495695573e-05
-1.35090423586e-09
7.01495736813e-05
-2.20132551208e-09
7.01495306071e-05
-3.43851001221e-09
7.01493870247e-05
-5.24362464469e-09
7.0149044181e-05
-7.88980518368e-09
7.01483273101e-05
-1.17876447825e-08
7.01469351594e-05
-1.75617137328e-08
7.01443569992e-05
-2.61675627105e-08
7.01397197257e-05
-3.90495537805e-08
7.0131543419e-05
-5.84251792938e-08
7.01173398873e-05
-8.77114378266e-08
7.00929577215e-05
-1.32166221908e-07
7.00513130779e-05
-1.99489258817e-07
6.99804407568e-05
-3.00998005883e-07
6.9860388882e-05
-4.52579156519e-07
6.96587362744e-05
-6.74846963458e-07
6.93256077145e-05
-9.9073527911e-07
6.87915146036e-05
-1.41770184586e-06
6.79739624939e-05
-1.95444589546e-06
-2.55494625626e-06
6.68149966304e-05
5.08804135509e-05
7.87227768413e-07
5.3170467213e-05
2.16453056314e-06
5.62177513103e-05
3.00906771164e-06
5.94382717575e-05
3.30264791967e-06
6.24449719473e-05
3.18548955554e-06
6.50382556617e-05
2.82473461989e-06
6.71548694844e-05
2.3597677379e-06
6.88135682453e-05
1.88532091746e-06
7.00731745103e-05
1.45476877994e-06
7.10056717315e-05
1.09133158897e-06
7.16812682671e-05
7.99460131359e-07
7.21614278423e-05
5.73544528583e-07
7.24966089528e-05
4.03651656921e-07
7.27264856752e-05
2.78885775168e-07
7.28812847484e-05
1.89120600468e-07
7.29834747166e-05
1.25728619664e-07
7.30494187877e-05
8.17489782829e-08
7.30908212831e-05
5.17749354512e-08
7.31159157104e-05
3.17254180028e-08
7.31304007799e-05
1.85899758739e-08
7.31381560667e-05
1.01908357397e-08
7.31417770171e-05
4.98003230514e-09
7.31429651628e-05
1.87476163047e-09
7.31428190493e-05
1.2913409329e-10
7.31419960133e-05
-7.74888770741e-10
7.31409132078e-05
-1.15858099124e-09
7.31397984048e-05
-1.24455926239e-09
7.31387710344e-05
-1.17119428828e-09
7.31378835622e-05
-1.0231139237e-09
7.31371498965e-05
-8.50638160543e-10
7.31365626643e-05
-6.81091754271e-10
7.31361045004e-05
-5.28143068551e-10
7.31357545226e-05
-3.97278135807e-10
7.3135492108e-05
-2.8912419373e-10
7.31352989037e-05
-2.01628194757e-10
7.31351592417e-05
-1.31843304021e-10
7.313505991e-05
-7.65396810154e-11
7.31349883341e-05
-3.22647754508e-11
7.31349348057e-05
4.17042526521e-12
7.31349051015e-05
3.05124360283e-11
7.31348819509e-05
5.32299554199e-11
7.31348651657e-05
7.32707196377e-11
7.31348529306e-05
9.15550728276e-11
7.31348433587e-05
1.08668291572e-10
7.31348351389e-05
1.25205366923e-10
7.31348273895e-05
1.41476414519e-10
7.31348195609e-05
1.57535755605e-10
7.31348112158e-05
1.73126133032e-10
7.31348020205e-05
1.87681900533e-10
7.31347919597e-05
2.00394602492e-10
7.31347810977e-05
2.10236053553e-10
7.31347695116e-05
2.15427669951e-10
7.31347573288e-05
2.13493413101e-10
7.3134744848e-05
2.01176647388e-10
7.31347327163e-05
1.74499581566e-10
7.31347227929e-05
1.29683708458e-10
7.31347045097e-05
6.46094485158e-11
7.31346818894e-05
-6.97248047009e-11
7.31346409415e-05
-3.36065536607e-10
7.31345756681e-05
-7.07008050322e-10
7.31344624653e-05
-1.23835014059e-09
7.31342583902e-05
-1.99766185922e-09
7.31338955278e-05
-3.07587781458e-09
7.31332590208e-05
-4.60717605632e-09
7.31321559281e-05
-6.78685463677e-09
7.31302648781e-05
-9.89684194175e-09
7.31270584429e-05
-1.43555615655e-08
7.31216823364e-05
-2.07916075335e-08
7.31127250339e-05
-3.00924273365e-08
7.3097882991e-05
-4.35833621496e-08
7.30734493347e-05
-6.32780889097e-08
7.30335295317e-05
-9.22468368165e-08
7.29686151526e-05
-1.34575393958e-07
7.28636951862e-05
-1.96078626731e-07
7.2695613217e-05
-2.84497852774e-07
7.24298843291e-05
-4.09118855209e-07
7.20181708339e-05
-5.79022486776e-07
7.13993103704e-05
-7.98842263487e-07
7.05078023207e-05
-1.06293842266e-06
-1.34623195214e-06
6.92990875153e-05
5.07871729746e-05
5.52441959396e-11
5.29516508969e-05
5.3389834423e-11
5.59606900479e-05
2.91598353398e-11
5.9263323937e-05
1.45053017083e-11
6.2448810828e-05
2.82261654092e-12
6.52735516835e-05
-5.83472830988e-12
6.76333314383e-05
-1.17095073526e-11
6.95186672222e-05
-1.45746517434e-11
7.09734511455e-05
-1.48689499083e-11
7.20647961925e-05
-1.32028808682e-11
7.28642667898e-05
-1.02440268242e-11
7.34378181727e-05
-6.68066521288e-12
7.38414731678e-05
-3.2034675191e-12
7.41203595586e-05
-4.81024602108e-13
7.43094794306e-05
9.18812818954e-13
7.44352077224e-05
5.95723737536e-13
7.45169587406e-05
-1.65221344032e-12
7.4568739748e-05
-5.55902234405e-12
7.46004762414e-05
-1.0471620583e-11
7.4619082269e-05
-1.54166985614e-11
7.46292929835e-05
-1.92973999941e-11
7.46342945124e-05
-2.10576902019e-11
7.46361897873e-05
-2.02277742037e-11
7.46363371876e-05
-1.81215728876e-11
7.46355781499e-05
-1.58613342741e-11
7.46344324832e-05
-1.29963351882e-11
7.46331974965e-05
-9.68169593789e-12
7.46320321671e-05
-5.93409877066e-12
7.46310103028e-05
-1.4207841777e-12
7.46301569294e-05
2.62145004056e-12
7.46294686233e-05
7.19324098497e-12
7.46289283465e-05
1.21342176225e-11
7.4628513711e-05
1.73905363331e-11
7.46282016261e-05
2.30217831394e-11
7.46279708537e-05
2.91826738453e-11
7.46278030247e-05
3.59429682396e-11
7.46276830426e-05
4.33514430945e-11
7.46275989094e-05
5.13903759638e-11
7.46275432022e-05
6.04303720513e-11
7.46275041276e-05
6.96039202582e-11
7.46274778988e-05
7.92522222376e-11
7.46274608321e-05
9.03258071489e-11
7.46274498183e-05
1.02535343032e-10
7.46274425918e-05
1.15746576069e-10
7.46274376032e-05
1.29925861932e-10
7.4627433794e-05
1.4495501954e-10
7.46274304541e-05
1.60543513388e-10
7.46274270691e-05
1.76235168023e-10
7.4627423172e-05
1.91334699433e-10
7.46274184053e-05
2.04949701578e-10
7.46274125817e-05
2.15899198289e-10
7.46274054827e-05
2.2239542278e-10
7.46273967246e-05
2.22086188503e-10
7.46273856568e-05
2.12023778848e-10
7.46273711211e-05
1.88687332054e-10
7.46273517057e-05
1.48146515993e-10
7.46273245823e-05
8.97287174943e-11
7.46272788794e-05
-2.48435669909e-11
7.46271907734e-05
-2.48665979444e-10
7.46270552894e-05
-5.72497609983e-10
7.46268326071e-05
-1.01698622523e-09
7.46264624949e-05
-1.62823624568e-09
7.46258485801e-05
-2.46244061419e-09
7.46248343436e-05
-3.59314091119e-09
7.46231647314e-05
-5.11735726541e-09
7.46204235796e-05
-7.15580035864e-09
7.4615943737e-05
-9.8758871079e-09
7.46086684078e-05
-1.35163289353e-08
7.45968629203e-05
-1.82871037346e-08
7.45777282098e-05
-2.44489509702e-08
7.45468454777e-05
-3.2395781115e-08
7.44974905485e-05
-4.28924414099e-08
7.44189349251e-05
-5.60204157577e-08
7.42947902706e-05
-7.19346711151e-08
7.41006928934e-05
-9.0401215906e-08
7.38018484905e-05
-1.1027532436e-07
7.33516291356e-05
-1.28803865249e-07
7.26936085873e-05
-1.4082254909e-07
7.17698190209e-05
-1.39149496317e-07
-1.15303688394e-07
7.05388902512e-05
5.0787171949e-05
-7.87116270978e-07