/*--------------------------------*- C++ -*----------------------------------*\
| =========                 |                                                 |
| \\      /  F ield         | OpenFOAM: The Open Source CFD Toolbox           |
|  \\    /   O peration     | Version:  2106                                  |
|   \\  /    A nd           | Website:  www.openfoam.com                      |
|    \\/     M anipulation  |                                                 |
\*---------------------------------------------------------------------------*/
FoamFile
{
    version     2.0;
    format      ascii;
    arch        "LSB;label=32;scalar=64";
    class       volVectorField;
    location    "0.465";
    object      U;
}
// * * * * * * * * * * * * * * * * * * * * * * * * * * * * * * * * * * * * * //

dimensions      [0 1 -1 0 0 0 0];

internalField   nonuniform List<vector> 
11200
(
(0.662462406135 0.150569440585 0)
(0.558948686762 0.103243386883 0)
(0.383850766505 0.0513512226363 0)
(0.283747638556 0.024870853667 0)
(0.232075327408 0.012417043729 0)
(0.201908657451 0.00662281550451 0)
(0.183198015835 0.00380291331913 0)
(0.17127658221 0.00231586916479 0)
(0.163510409328 0.00146450579637 0)
(0.158388881356 0.000944891707855 0)
(0.155006751602 0.000615176174772 0)
(0.152786806417 0.0004022331013 0)
(0.151346667371 0.00026423162194 0)
(0.150428442384 0.000175249699276 0)
(0.149856850178 0.000118360297294 0)
(0.149512659763 8.21594940156e-05 0)
(0.149315107974 5.8864975526e-05 0)
(0.149209752221 4.33140104144e-05 0)
(0.149159896728 3.29322201763e-05 0)
(0.149142659606 2.818398713e-05 0)
(0.149144817878 2.76820039431e-05 0)
(0.149157096837 2.98876708595e-05 0)
(0.149172723495 3.30489964768e-05 0)
(0.149188276458 3.5965390892e-05 0)
(0.149202489684 3.86016165805e-05 0)
(0.149214762216 4.10412124817e-05 0)
(0.149224925323 4.33187933435e-05 0)
(0.149233085248 4.54653378365e-05 0)
(0.149239478587 4.75200401723e-05 0)
(0.149244387967 4.95301263868e-05 0)
(0.149248099333 5.15576358139e-05 0)
(0.149250881778 5.36940138506e-05 0)
(0.149252932397 5.60226362579e-05 0)
(0.149254420705 5.84040998804e-05 0)
(0.149255479798 6.07642059102e-05 0)
(0.149256197497 6.30855462183e-05 0)
(0.149256670355 6.53773112193e-05 0)
(0.14925698043 6.76524355002e-05 0)
(0.14925718158 6.99223430176e-05 0)
(0.149257303562 7.21932340272e-05 0)
(0.149257367865 7.44666381525e-05 0)
(0.1492573925 7.67430591357e-05 0)
(0.149257390228 7.90221259371e-05 0)
(0.149257369936 8.13025857162e-05 0)
(0.149257338559 8.35826143075e-05 0)
(0.149257301297 8.58602792154e-05 0)
(0.149257260413 8.81321320373e-05 0)
(0.149257218261 9.03957501847e-05 0)
(0.149257178197 9.26481071477e-05 0)
(0.149257144086 9.48862921132e-05 0)
(0.149257122226 9.71070819699e-05 0)
(0.149257121601 9.93070183162e-05 0)
(0.149257156229 0.000101483362196 0)
(0.149257246481 0.00010363292562 0)
(0.149257419843 0.000105751367144 0)
(0.149257713358 0.000107832932956 0)
(0.149258178469 0.000109869881843 0)
(0.149258891521 0.000111852219907 0)
(0.149259962426 0.000113767509428 0)
(0.149261549983 0.000115590622581 0)
(0.149263904264 0.000117264756685 0)
(0.149267432041 0.000118708959707 0)
(0.14927259729 0.000119965439288 0)
(0.149280049893 0.000121227810719 0)
(0.149290821836 0.000122962912896 0)
(0.149306435343 0.000125336874934 0)
(0.149329284654 0.000128117030895 0)
(0.149363065497 0.00013107586677 0)
(0.149413371055 0.000133999122385 0)
(0.14948843386 0.000136774751886 0)
(0.149600190289 0.000140684884292 0)
(0.1497714859 0.000151559318652 0)
(0.150040079002 0.000172278963703 0)
(0.150469108295 0.000202516072498 0)
(0.151194364938 0.000232426775999 0)
(0.152493462615 0.000191619526851 0)
(0.155022483241 -0.000216770766424 0)
(0.1623755657 -0.00210987774007 0)
(0.187702468881 -0.0107874513271 0)
(0.204354648504 -0.0496543882535 0)
(0.965408257967 0.289214703227 0)
(0.961962875079 0.252656036416 0)
(0.823574422156 0.159021437927 0)
(0.698139411795 0.0959957277821 0)
(0.610225518266 0.0582481112416 0)
(0.548971556123 0.0362148509239 0)
(0.50658896134 0.0231612835538 0)
(0.477567347893 0.0151375143652 0)
(0.457745576202 0.0100177547219 0)
(0.444228550772 0.00665814113063 0)
(0.43505339535 0.00441555657626 0)
(0.428873223321 0.00290686655411 0)
(0.424754317039 0.00189105961983 0)
(0.422046777981 0.001210046908 0)
(0.420297951528 0.000757164997456 0)
(0.419193351714 0.000459256973044 0)
(0.418515753661 0.000265854856886 0)
(0.418116611883 0.00014239827481 0)
(0.417896012797 6.61069212422e-05 0)
(0.417786966367 2.30890916068e-05 0)
(0.41774555729 1.40390815171e-06 0)
(0.417742288791 -1.01658513029e-05 0)
(0.41775689867 -1.37163389093e-05 0)
(0.417778870098 -1.32689200452e-05 0)
(0.41780317677 -1.08361009636e-05 0)
(0.417826558124 -7.49305584326e-06 0)
(0.41784731979 -3.87751527984e-06 0)
(0.417864862534 -3.59731844254e-07 0)
(0.417879190437 2.85896569368e-06 0)
(0.417890619602 5.67520727806e-06 0)
(0.417899622971 8.0251205992e-06 0)
(0.417906696169 9.8264111522e-06 0)
(0.417912040323 1.099470792e-05 0)
(0.417915886945 1.18468667747e-05 0)
(0.417918616531 1.26670716771e-05 0)
(0.417920505639 1.34257028882e-05 0)
(0.417921794926 1.41018042774e-05 0)
(0.417922674766 1.47187432324e-05 0)
(0.417923271742 1.53056787899e-05 0)
(0.41792365862 1.58768697997e-05 0)
(0.417923888337 1.64331356725e-05 0)
(0.417924004477 1.69783825406e-05 0)
(0.417924038437 1.75162926944e-05 0)
(0.417924012842 1.80498080799e-05 0)
(0.417923944899 1.85809283549e-05 0)
(0.417923846876 1.91138205631e-05 0)
(0.417923727735 1.96494013942e-05 0)
(0.417923596627 2.01908474585e-05 0)
(0.417923463684 2.07401405069e-05 0)
(0.417923341191 2.12993931695e-05 0)
(0.417923246256 2.18684204957e-05 0)
(0.417923203529 2.2446493474e-05 0)
(0.417923248197 2.30347057007e-05 0)
(0.417923428966 2.36330061926e-05 0)
(0.417923813092 2.42404926992e-05 0)
(0.417924493655 2.48561609959e-05 0)
(0.417925602892 2.54754513235e-05 0)
(0.417927336984 2.60865981705e-05 0)
(0.417929974783 2.66738220505e-05 0)
(0.417933906397 2.72060377481e-05 0)
(0.41793974206 2.76315648388e-05 0)
(0.417948580932 2.79083501887e-05 0)
(0.41796190302 2.81972486199e-05 0)
(0.417981853051 2.77244634958e-05 0)
(0.418011183275 2.50828281854e-05 0)
(0.418053507638 1.92366411918e-05 0)
(0.4181150378 9.36771583317e-06 0)
(0.4182058892 -6.06194278087e-06 0)
(0.41834166607 -2.95759309801e-05 0)
(0.418547266145 -6.48530535893e-05 0)
(0.418864584448 -0.000116079968085 0)
(0.419363202126 -0.000188221555105 0)
(0.420156566272 -0.000308005774242 0)
(0.421448308802 -0.000532977596806 0)
(0.423630009912 -0.000999930451589 0)
(0.427420231458 -0.00209050169744 0)
(0.43424086414 -0.00485608545556 0)
(0.448266333457 -0.0122528191384 0)
(0.474642672261 -0.0342382286345 0)
(0.478159032211 -0.0987595150419 0)
(1.02222096923 0.238416184506 0)
(1.08213754514 0.295926648475 0)
(1.0344772558 0.239503062216 0)
(0.954615450586 0.174290160871 0)
(0.879992107693 0.121345465701 0)
(0.818614496722 0.0830993823614 0)
(0.771410919259 0.0567316663034 0)
(0.736634466027 0.0387409686353 0)
(0.711624514455 0.0264327879842 0)
(0.693916709986 0.0179731065164 0)
(0.681541509166 0.0121424507181 0)
(0.673000227464 0.00812491201763 0)
(0.667180774554 0.00536632583961 0)
(0.663271817142 0.0034844500925 0)
(0.660688657712 0.0022125667 0)
(0.659014343281 0.00136338608435 0)
(0.657954669611 0.000805246577711 0)
(0.657304381766 0.000445917685664 0)
(0.656921967166 0.000221067923102 0)
(0.656710405598 8.55790304476e-05 0)
(0.656603547167 8.35535159738e-06 0)
(0.656562006292 -3.37209682381e-05 0)
(0.656558115393 -5.68544928872e-05 0)
(0.656571601358 -6.68728603177e-05 0)
(0.65659314014 -6.84802914691e-05 0)
(0.65661696696 -6.55599874516e-05 0)
(0.656639773678 -6.05515341075e-05 0)
(0.656659953205 -5.48655637222e-05 0)
(0.656676920749 -4.92860226489e-05 0)
(0.656690655022 -4.42189476168e-05 0)
(0.656701404803 -3.98583837948e-05 0)
(0.656709553948 -3.6322069183e-05 0)
(0.656715797034 -3.37182131374e-05 0)
(0.656720823686 -3.18825134748e-05 0)
(0.656724681469 -3.08336751904e-05 0)
(0.656727386116 -3.03240436459e-05 0)
(0.656729244711 -3.02650760164e-05 0)
(0.656730537839 -3.05734054341e-05 0)
(0.656731434311 -3.10988332328e-05 0)
(0.656732025039 -3.17566252809e-05 0)
(0.656732383418 -3.2518585291e-05 0)
(0.656732575235 -3.335073035e-05 0)
(0.656732646653 -3.42284009232e-05 0)
(0.656732630944 -3.51329832915e-05 0)
(0.656732555015 -3.60497643385e-05 0)
(0.656732437534 -3.69672417146e-05 0)
(0.656732293142 -3.78782430233e-05 0)
(0.656732136471 -3.87763581437e-05 0)
(0.656731982668 -3.96573120806e-05 0)
(0.656731848793 -4.05146143716e-05 0)
(0.656731758238 -4.13453468828e-05 0)
(0.656731747502 -4.21456060442e-05 0)
(0.656731867372 -4.29122850592e-05 0)
(0.656732188 -4.36492752393e-05 0)
(0.656732808248 -4.437103051e-05 0)
(0.656733864385 -4.51086784378e-05 0)
(0.656735546168 -4.59217174449e-05 0)
(0.656738136384 -4.69046510183e-05 0)
(0.656742045523 -4.81812926351e-05 0)
(0.656747870039 -4.99743326111e-05 0)
(0.656756555952 -5.28019946582e-05 0)
(0.656769753698 -5.76372314782e-05 0)
(0.656788744821 -6.53121233638e-05 0)
(0.656814981018 -7.66709883268e-05 0)
(0.656852356239 -9.34246975552e-05 0)
(0.65690757411 -0.000117950175546 0)
(0.656989993974 -0.000153462098864 0)
(0.657113420542 -0.000205250197106 0)
(0.65729967745 -0.000281833669798 0)
(0.657584164176 -0.00039708495595 0)
(0.658025009755 -0.000575350771911 0)
(0.658711396508 -0.000863892312054 0)
(0.659790360663 -0.00135276486575 0)
(0.661519406391 -0.00221505153635 0)
(0.664340613602 -0.00381322347389 0)
(0.668949583591 -0.00694593419917 0)
(0.676371929409 -0.0133515210742 0)
(0.688615028016 -0.0268404088015 0)
(0.705237148813 -0.0563119227993 0)
(0.700485067456 -0.113066435208 0)
(1.02251475837 0.170807150817 0)
(1.10138977244 0.276496474859 0)
(1.11752428982 0.266664795611 0)
(1.09214664556 0.219901696211 0)
(1.05187820561 0.168168845894 0)
(1.01020828128 0.123567395957 0)
(0.973494752957 0.0888375217914 0)
(0.943864622209 0.0630063728283 0)
(0.921142869399 0.0442232065155 0)
(0.904284146946 0.0307423964909 0)
(0.892074949107 0.0211562993899 0)
(0.883404599039 0.0143954754148 0)
(0.877352768669 0.00966795637086 0)
(0.873197815947 0.00639384591373 0)
(0.870393048823 0.0041511731011 0)
(0.868534168152 0.00263449757258 0)
(0.867327777183 0.00162402165906 0)
(0.866564378123 0.000962677675093 0)
(0.86609662403 0.000539121722037 0)
(0.865822385964 0.000275151514397 0)
(0.865671548398 0.000117066496316 0)
(0.865595306263 2.87915768506e-05 0)
(0.865564258217 -1.93237016163e-05 0)
(0.86556146031 -4.12587786442e-05 0)
(0.865572813211 -4.76627077583e-05 0)
(0.8655898263 -4.5523366297e-05 0)
(0.865608139889 -3.91568033007e-05 0)
(0.865625480151 -3.11502058533e-05 0)
(0.865640764199 -2.2973955026e-05 0)
(0.865653625765 -1.53948606915e-05 0)
(0.865664097711 -8.74075930029e-06 0)
(0.865672383232 -3.06608200165e-06 0)
(0.865678733177 1.70917380591e-06 0)
(0.865683359332 5.43876752971e-06 0)
(0.865686678381 8.00937410701e-06 0)
(0.865689074934 9.76867888963e-06 0)
(0.865690704286 1.11230139161e-05 0)
(0.865691861838 1.22699438138e-05 0)
(0.865692727048 1.3240609264e-05 0)
(0.865693318222 1.41330866334e-05 0)
(0.865693681345 1.49332942136e-05 0)
(0.865693882224 1.56643309068e-05 0)
(0.865693960763 1.63426609746e-05 0)
(0.865693947856 1.6981916388e-05 0)
(0.865693867897 1.75988905536e-05 0)
(0.86569373696 1.82012761601e-05 0)
(0.865693568976 1.87984959158e-05 0)
(0.865693379279 1.93962716685e-05 0)
(0.865693187311 2.00010429158e-05 0)
(0.865693014819 2.06238368272e-05 0)
(0.865692890622 2.12498831747e-05 0)
(0.865692858301 2.18670362532e-05 0)
(0.86569297204 2.24597497145e-05 0)
(0.865693302848 2.3001969944e-05 0)
(0.865693947288 2.34589212817e-05 0)
(0.865695035167 2.37985274122e-05 0)
(0.865696752971 2.39670233158e-05 0)
(0.865699399552 2.38491613955e-05 0)
(0.865703379139 2.33041764205e-05 0)
(0.865709102587 2.19138656016e-05 0)
(0.865717074001 1.91224092633e-05 0)
(0.865728898158 1.41860099884e-05 0)
(0.865747149678 5.29188341029e-06 0)
(0.865774815608 -9.11517603465e-06 0)
(0.865815753947 -3.10429336429e-05 0)
(0.865875897244 -6.44752031291e-05 0)
(0.865964590566 -0.000116277901839 0)
(0.866096355977 -0.000197210032764 0)
(0.866293749159 -0.000324527394993 0)
(0.866591591977 -0.000526697204919 0)
(0.867043483634 -0.000852654682912 0)
(0.867734472247 -0.00138931615921 0)
(0.868800876024 -0.00228540790386 0)
(0.870455889785 -0.00381544490198 0)
(0.873018285245 -0.00650353931262 0)
(0.876886761548 -0.0113588529866 0)
(0.88238351174 -0.0202500078551 0)
(0.889691288128 -0.0364468676566 0)
(0.896364533625 -0.0654798988463 0)
(0.886532787188 -0.110019614681 0)
(1.01287875463 0.118961022938 0)
(1.08820672242 0.231806934474 0)
(1.13741369868 0.253106762503 0)
(1.15409090546 0.22899275258 0)
(1.14994215568 0.18836835917 0)
(1.13538470802 0.146579845473 0)
(1.11758900624 0.110150968173 0)
(1.10059506431 0.0808162256942 0)
(1.08612463746 0.0582265812655 0)
(1.07459099564 0.0413189915533 0)
(1.06579154426 0.0289160286989 0)
(1.05928807448 0.0199601103591 0)
(1.05459985826 0.0135815718538 0)
(1.05129086917 0.00909745536882 0)
(1.04899995964 0.00598616541598 0)
(1.04744352334 0.00385697589917 0)
(1.04640665532 0.00242160464258 0)
(1.04573074424 0.00147015405731 0)
(1.04530119288 0.000851703603159 0)
(1.04503670088 0.000459017143161 0)
(1.04488034534 0.00021675806477 0)
(1.04479273799 7.30203085829e-05 0)
(1.04474888276 -5.49981174608e-06 0)
(1.04473199297 -4.4002973855e-05 0)
(1.0447297503 -5.93802947927e-05 0)
(1.04473523982 -6.1715724194e-05 0)
(1.04474419044 -5.7245525028e-05 0)
(1.04475407473 -4.98079981639e-05 0)
(1.04476351395 -4.16535039491e-05 0)
(1.04477183904 -3.40027053662e-05 0)
(1.0447787996 -2.74412733641e-05 0)
(1.04478438347 -2.21730785807e-05 0)
(1.04478873693 -1.81525253235e-05 0)
(1.04479207235 -1.51631883694e-05 0)
(1.0447946428 -1.28327894873e-05 0)
(1.04479673903 -1.10368278492e-05 0)
(1.04479847506 -9.54917631441e-06 0)
(1.04479979611 -8.25873068223e-06 0)
(1.04480077554 -7.2326296408e-06 0)
(1.04480146256 -6.55596082204e-06 0)
(1.04480187494 -6.17351334314e-06 0)
(1.0448021046 -5.96298886228e-06 0)
(1.04480219603 -5.87407500689e-06 0)
(1.04480218799 -5.85579662724e-06 0)
(1.04480210582 -5.86632377268e-06 0)
(1.04480196977 -5.88937074096e-06 0)
(1.04480179625 -5.9145866871e-06 0)
(1.04480160252 -5.93880601067e-06 0)
(1.04480141416 -5.96405736051e-06 0)
(1.04480123754 -6.00453136237e-06 0)
(1.04480108608 -6.04321704111e-06 0)
(1.04480100717 -6.07469208374e-06 0)
(1.04480105698 -6.10535097844e-06 0)
(1.044801313 -6.14990170131e-06 0)
(1.04480190241 -6.2496563773e-06 0)
(1.04480299317 -6.52935605128e-06 0)
(1.04480477447 -7.25110934595e-06 0)
(1.04480755903 -8.68850982663e-06 0)
(1.04481165415 -1.13375748817e-05 0)
(1.0448175347 -1.51776686784e-05 0)
(1.04482620203 -2.01050143598e-05 0)
(1.04483880964 -2.63674037367e-05 0)
(1.0448566783 -3.6215573801e-05 0)
(1.04488209998 -5.26399378494e-05 0)
(1.04491854361 -7.9850934106e-05 0)
(1.04497116873 -0.000124093127266 0)
(1.04504758342 -0.00019513328661 0)
(1.04515914328 -0.000308549082087 0)
(1.04532300285 -0.000489501987383 0)
(1.04556503044 -0.000779006751968 0)
(1.04592390361 -0.0012443675713 0)
(1.04645746738 -0.00199719996971 0)
(1.04724981943 -0.00322799119932 0)
(1.04841386955 -0.00526742453412 0)
(1.05007686255 -0.00869217001999 0)
(1.05229536388 -0.0144956623931 0)
(1.0548252723 -0.0242844079275 0)
(1.05687693552 -0.0403674914737 0)
(1.05574472996 -0.0655830004697 0)
(1.04213200628 -0.0994324211052 0)
(1.00447483822 0.0814039984986 0)
(1.06917238773 0.181288538025 0)
(1.13080571443 0.216950418067 0)
(1.17375004243 0.210789155941 0)
(1.19865269974 0.183690078385 0)
(1.21019993534 0.149751685855 0)
(1.21350261872 0.116779147499 0)
(1.21251730679 0.0882206824261 0)
(1.2097310542 0.0650481569079 0)
(1.20651127294 0.0470209168323 0)
(1.20351921649 0.0334068187232 0)
(1.2010115431 0.0233557448064 0)
(1.19903455078 0.0160720274826 0)
(1.1975388871 0.0108795276633 0)
(1.19644142943 0.0072342010432 0)
(1.19565570633 0.00471352934523 0)
(1.19510501531 0.00299763712514 0)
(1.19472660665 0.00184916624478 0)
(1.19447163055 0.00109496400523 0)
(1.1943033266 0.000610614389257 0)
(1.19419469529 0.000307990302688 0)
(1.19412641987 0.000125773706364 0)
(1.1940853794 2.22297435743e-05 0)
(1.19406212858 -3.2444766235e-05 0)
(1.19404983403 -5.72642359944e-05 0)
(1.19404433833 -6.45924524439e-05 0)
(1.19404284085 -6.2374232481e-05 0)
(1.19404352388 -5.55239699999e-05 0)
(1.19404527224 -4.69514853366e-05 0)
(1.19404742894 -3.8269751137e-05 0)
(1.19404962183 -3.02796913754e-05 0)
(1.19405165856 -2.32858268923e-05 0)
(1.19405347141 -1.73121141313e-05 0)
(1.19405505393 -1.22846046514e-05 0)
(1.19405642093 -8.09874146012e-06 0)
(1.19405759135 -4.69900691515e-06 0)
(1.19405853916 -2.08671052462e-06 0)
(1.19405921465 -1.935655516e-07 0)
(1.19405957447 1.13291467331e-06 0)
(1.19405968652 1.99189162233e-06 0)
(1.19405973708 2.67062714938e-06 0)
(1.19405976795 3.2759309997e-06 0)
(1.19405975183 3.80208803496e-06 0)
(1.19405970762 4.2609843165e-06 0)
(1.19405962852 4.66674541247e-06 0)
(1.19405950482 5.03465744111e-06 0)
(1.19405933976 5.37461882903e-06 0)
(1.19405914005 5.68855543314e-06 0)
(1.19405891357 5.96849855823e-06 0)
(1.19405870013 6.19802837098e-06 0)
(1.19405854948 6.40240621572e-06 0)
(1.1940584923 6.57606879767e-06 0)
(1.1940585762 6.69172688663e-06 0)
(1.19405885725 6.70864307798e-06 0)
(1.19405936355 6.56460935127e-06 0)
(1.19406007365 6.16113096087e-06 0)
(1.19406109049 5.37091721432e-06 0)
(1.19406257401 3.75537153341e-06 0)
(1.19406523943 9.65416385773e-07 0)
(1.19407009833 -3.3243541497e-06 0)
(1.19407761787 -9.90054180325e-06 0)
(1.19408776054 -2.01200059978e-05 0)
(1.19410132889 -3.60153956562e-05 0)
(1.19412030932 -6.05096061363e-05 0)
(1.19414682767 -9.81851515655e-05 0)
(1.19418371406 -0.000156362150975 0)
(1.19423496786 -0.000246688036232 0)
(1.19430623256 -0.000387642958297 0)
(1.19440540603 -0.000608684063258 0)
(1.19454327763 -0.000957139814311 0)
(1.19473390035 -0.0015095123409 0)
(1.19499405514 -0.00239006410927 0)
(1.19533857132 -0.00380198196837 0)
(1.19576471925 -0.00607811727045 0)
(1.1962121762 -0.009757171082 0)
(1.1964612292 -0.0156827156028 0)
(1.19592511017 -0.0250652539095 0)
(1.19344941891 -0.0393598305885 0)
(1.18669938863 -0.0598085841172 0)
(1.17015728371 -0.0851003902906 0)
(0.99896232928 0.0544316279674 0)
(1.05310958312 0.133401608467 0)
(1.11628271014 0.170777559122 0)
(1.17301275859 0.175143873856 0)
(1.21791251096 0.159583609078 0)
(1.25049863494 0.134951023716 0)
(1.27288497362 0.108411661304 0)
(1.28776728895 0.0838849775521 0)
(1.29745275302 0.0630565799185 0)
(1.30366082949 0.0462999312952 0)
(1.30759242941 0.0333205273359 0)
(1.3100537947 0.0235495388266 0)
(1.31157372631 0.0163599240016 0)
(1.31249503643 0.0111713314605 0)
(1.31303873619 0.00749152173022 0)
(1.31334683388 0.00492449855016 0)
(1.31351025373 0.00316296487802 0)
(1.31358688999 0.00197475866439 0)
(1.3136132738 0.00118820185081 0)
(1.31361213353 0.000678633555551 0)
(1.31359730678 0.000357013134101 0)
(1.31357699738 0.000160759820945 0)
(1.31355601441 4.64757603911e-05 0)
(1.31353672875 -1.58630631742e-05 0)
(1.31352007827 -4.6052823382e-05 0)
(1.31350639477 -5.70657889893e-05 0)
(1.31349549359 -5.73244011105e-05 0)
(1.31348703824 -5.20901004661e-05 0)
(1.31348064122 -4.45318270533e-05 0)
(1.31347591815 -3.64734677468e-05 0)
(1.31347251824 -2.88881485753e-05 0)
(1.31347013796 -2.2229340781e-05 0)
(1.31346851871 -1.66485044399e-05 0)
(1.31346743168 -1.21536675513e-05 0)
(1.31346671044 -8.67856251915e-06 0)
(1.3134662586 -6.12041609486e-06 0)
(1.31346597583 -4.34148663109e-06 0)
(1.31346577349 -3.13456848212e-06 0)
(1.31346564318 -2.27471135776e-06 0)
(1.313465669 -1.56007717808e-06 0)
(1.31346582293 -9.81776085644e-07 0)
(1.31346592514 -5.66414079683e-07 0)
(1.31346592084 -2.05127738027e-07 0)
(1.31346584714 1.32669921051e-07 0)
(1.31346572682 4.43012214031e-07 0)
(1.31346556825 7.34648975037e-07 0)
(1.31346537459 1.0176678302e-06 0)
(1.31346514752 1.30196595974e-06 0)
(1.31346489732 1.59657270249e-06 0)
(1.31346465751 1.90636645422e-06 0)
(1.31346445193 2.18328423732e-06 0)
(1.31346428808 2.3869292124e-06 0)
(1.3134641972 2.47250027349e-06 0)
(1.31346423356 2.37613564339e-06 0)
(1.31346448469 2.01337476991e-06 0)
(1.31346507764 1.30258093803e-06 0)
(1.31346594431 1.85422797589e-07 0)
(1.31346723219 -1.49216083222e-06 0)
(1.31346937951 -4.01971039036e-06 0)
(1.31347254645 -8.13137390424e-06 0)
(1.31347697015 -1.50927892827e-05 0)
(1.31348288248 -2.64594220767e-05 0)
(1.31349057084 -4.38351283486e-05 0)
(1.31350052148 -7.0402634938e-05 0)
(1.31351305563 -0.000111191488021 0)
(1.31352826521 -0.000173951761968 0)
(1.31354577965 -0.000270768094686 0)
(1.31356430212 -0.000420598730862 0)
(1.31358066288 -0.000653259172187 0)
(1.31358797891 -0.00101596283171 0)
(1.31357221659 -0.00158369401694 0)
(1.3135059726 -0.00247547230951 0)
(1.31333508293 -0.00387848999573 0)
(1.31295206463 -0.00608499483028 0)
(1.31214704514 -0.00953927954814 0)
(1.31051487504 -0.0148825667665 0)
(1.30730254791 -0.0229426309753 0)
(1.30130101973 -0.0345591328551 0)
(1.29064352138 -0.0501685358186 0)
(1.27185969988 -0.0685432201015 0)
(0.995736077965 0.0346338642146 0)
(1.04179515965 0.0905689237328 0)
(1.10222841779 0.12154956741 0)
(1.16491415972 0.129605837158 0)
(1.22202571737 0.122009272077 0)
(1.26951898319 0.106019942756 0)
(1.30680230847 0.0870975615071 0)
(1.33499543169 0.0686366878513 0)
(1.3557448602 0.0523698478429 0)
(1.37069626106 0.0389256293443 0)
(1.3812828568 0.0282980874641 0)
(1.3886627864 0.0201712934827 0)
(1.39373044983 0.0141175280424 0)
(1.39715673033 0.00970535359371 0)
(1.39943447768 0.00655061144171 0)
(1.40091980505 0.00433446853048 0)
(1.40186635722 0.0028041561539 0)
(1.4024523847 0.0017657519846 0)
(1.40280149079 0.00107420262935 0)
(1.40299819778 0.000623242173092 0)
(1.40309943049 0.000336416745245 0)
(1.40314289559 0.000159631181974 0)
(1.40315316687 5.51721615887e-05 0)
(1.40314568723 -2.99102600807e-06 0)
(1.40312993461 -3.21178973628e-05 0)
(1.40311153698 -4.38887917225e-05 0)
(1.40309350266 -4.57631674269e-05 0)
(1.40307735648 -4.24253620377e-05 0)
(1.40306370068 -3.67382955289e-05 0)
(1.40305260933 -3.03785828394e-05 0)
(1.40304388078 -2.42611177454e-05 0)
(1.40303718946 -1.88331019997e-05 0)
(1.40303217437 -1.426244436e-05 0)
(1.40302848595 -1.0551923613e-05 0)
(1.40302582568 -7.60027579301e-06 0)
(1.40302396142 -5.28219719277e-06 0)
(1.40302271717 -3.47580416002e-06 0)
(1.40302194186 -2.03836420974e-06 0)
(1.40302146472 -8.66563322368e-07 0)
(1.40302109475 6.3730992759e-08 0)
(1.40302076682 7.75852850414e-07 0)
(1.40302056043 1.26650882409e-06 0)
(1.40302046898 1.64146688498e-06 0)
(1.40302039839 1.96587489585e-06 0)
(1.4030203113 2.27268658265e-06 0)
(1.4030202006 2.57979973911e-06 0)
(1.40302006514 2.89542800603e-06 0)
(1.4030199069 3.22480889414e-06 0)
(1.40301972722 3.56967710838e-06 0)
(1.40301951936 3.92048792727e-06 0)
(1.40301929488 4.23572539495e-06 0)
(1.40301908718 4.48352149288e-06 0)
(1.40301892511 4.62559880672e-06 0)
(1.40301883327 4.60360183825e-06 0)
(1.40301882661 4.32882311935e-06 0)
(1.40301890531 3.65996811882e-06 0)
(1.40301910769 2.39023213708e-06 0)
(1.40301940088 4.07810471522e-07 0)
(1.40302002425 -2.74408660771e-06 0)
(1.40302120052 -7.79792330884e-06 0)
(1.40302274264 -1.55614394978e-05 0)
(1.40302432648 -2.73611415245e-05 0)
(1.40302549136 -4.50540240481e-05 0)
(1.40302549758 -7.16300440392e-05 0)
(1.40302285681 -0.000111678990074 0)
(1.40301483779 -0.000172234953525 0)
(1.40299664315 -0.00026417333663 0)
(1.40296010022 -0.000404372769475 0)
(1.40289129173 -0.000618897149579 0)
(1.40276652854 -0.000948354880134 0)
(1.40254579769 -0.00145605889797 0)
(1.40216278193 -0.00224042871914 0)
(1.40150600706 -0.00345049172584 0)
(1.40038723411 -0.00530990671209 0)
(1.39849331516 -0.00814137763763 0)
(1.39531131147 -0.012379539279 0)
(1.39002847858 -0.0185350997878 0)
(1.38149718836 -0.0270454307945 0)
(1.36822221751 -0.0379918395841 0)
(1.3478127869 -0.0504815710723 0)
(0.994011535319 0.0192358121508 0)
(1.03484765197 0.0523338444639 0)
(1.09199265739 0.0723631311053 0)
(1.15662424238 0.0791292358602 0)
(1.22032121675 0.076104550499 0)
(1.27701951571 0.0673339756681 0)
(1.3242442604 0.0561509089028 0)
(1.36181581569 0.0447990179339 0)
(1.39068539598 0.0345303868026 0)
(1.41226084608 0.0258814445117 0)
(1.428018325 0.0189465389608 0)
(1.43929895062 0.013584999472 0)
(1.44722818943 0.00955655302943 0)
(1.45270425009 0.00660013418 0)
(1.45641907999 0.00447420774236 0)
(1.45889157115 0.0029735289212 0)
(1.4605024426 0.00193278191776 0)
(1.46152584786 0.00122370518221 0)
(1.46215587387 0.0007495609066 0)
(1.46252771034 0.000439027864929 0)
(1.4627339999 0.000240531395793 0)
(1.46283715463 0.000117422077226 0)
(1.46287846778 4.40585682791e-05 0)
(1.46288471499 2.69802036825e-06 0)
(1.46287259631 -1.84406819119e-05 0)
(1.46285224888 -2.74385772316e-05 0)
(1.46282970039 -2.94427488954e-05 0)
(1.46280816432 -2.76969634964e-05 0)
(1.46278916888 -2.41983941333e-05 0)
(1.46277325868 -2.0128231395e-05 0)
(1.46276042461 -1.61356451489e-05 0)
(1.46275037304 -1.25429769603e-05 0)
(1.46274269324 -9.47665321223e-06 0)
(1.46273695298 -6.94786464185e-06 0)
(1.46273275346 -4.9028353502e-06 0)
(1.4627297517 -3.27256081315e-06 0)
(1.46272765967 -1.994540423e-06 0)
(1.4627262203 -1.02818191157e-06 0)
(1.46272521667 -3.31652334366e-07 0)
(1.46272459005 1.92706070616e-07 0)
(1.46272423001 6.7669863685e-07 0)
(1.46272398356 1.15625488273e-06 0)
(1.46272382018 1.5860547522e-06 0)
(1.46272370019 1.96963341032e-06 0)
(1.46272359284 2.32763935426e-06 0)
(1.46272347874 2.67295435722e-06 0)
(1.46272334512 3.01064071464e-06 0)
(1.46272318414 3.3386338672e-06 0)
(1.46272299038 3.64769849025e-06 0)
(1.46272276129 3.92517236103e-06 0)
(1.46272250035 4.1626193385e-06 0)
(1.46272221557 4.32872828842e-06 0)
(1.46272191437 4.37268765595e-06 0)
(1.46272160747 4.22374723654e-06 0)
(1.46272131188 3.79124258947e-06 0)
(1.46272105557 2.96875884508e-06 0)
(1.4627207791 1.64837150255e-06 0)
(1.46272040435 -3.46827005394e-07 0)
(1.46271983687 -3.19739002566e-06 0)
(1.46271891952 -7.809013396e-06 0)
(1.46271737382 -1.496193587e-05 0)
(1.46271452656 -2.57528427298e-05 0)
(1.46270926507 -4.17285332652e-05 0)
(1.46269978559 -6.52768198064e-05 0)
(1.46268302579 -0.000100000297159 0)
(1.46265385217 -0.000151296096602 0)
(1.46260376065 -0.000227346948983 0)
(1.46251899886 -0.000340635120987 0)
(1.46237712175 -0.000509782758097 0)
(1.46214131735 -0.000763208977588 0)
(1.46175163267 -0.00114464080012 0)
(1.46111348658 -0.00172176323361 0)
(1.4600758462 -0.00259033784206 0)
(1.4583978379 -0.00388986295882 0)
(1.45570566523 -0.00581267973373 0)
(1.45143413506 -0.00860183634197 0)
(1.44476319726 -0.0125173669579 0)
(1.43462427972 -0.0177395288936 0)
(1.4197586825 -0.0242163197424 0)
(1.398321697 -0.0314014304202 0)
(0.993269671434 0.00617015769732 0)
(1.03158101616 0.017102051708 0)
(1.08672184846 0.023990653565 0)
(1.15174558691 0.0265606707569 0)
(1.21823541551 0.0258180636313 0)
(1.27925780392 0.0230488911885 0)
(1.33140143159 0.0193656369706 0)
(1.37377606799 0.0155468650256 0)
(1.40691062335 0.0120449396082 0)
(1.43203323187 0.00906641202133 0)
(1.45060225374 0.00666061002129 0)
(1.46402996839 0.00479010932687 0)
(1.4735502755 0.00337844784808 0)
(1.48017575275 0.00233875818419 0)
(1.48470241114 0.00158893333113 0)
(1.48773633356 0.00105830680862 0)
(1.48972747897 0.000689478956991 0)
(1.4910029189 0.00043765316118 0)
(1.49179601085 0.000268899616244 0)
(1.4922703947 0.00015812456771 0)
(1.49253890025 8.71377114295e-05 0)
(1.49267798942 4.29869308247e-05 0)
(1.49273853385 1.65950756695e-05 0)
(1.49275371647 1.67107599191e-06 0)
(1.49274448592 -6.06543705477e-06 0)
(1.49272370234 -9.41497091486e-06 0)
(1.49269906169 -1.0225425468e-05 0)
(1.49267479287 -9.66601901051e-06 0)
(1.49265299335 -8.45548179174e-06 0)
(1.49263450427 -7.01179986682e-06 0)
(1.49261944861 -5.57440238805e-06 0)
(1.4926075645 -4.26349218268e-06 0)
(1.49259842229 -3.12695188497e-06 0)
(1.49259154633 -2.17097479926e-06 0)
(1.49258648237 -1.37963038733e-06 0)
(1.49258282953 -7.31779950627e-07 0)
(1.49258025278 -2.06527169979e-07 0)
(1.49257847934 2.17689423172e-07 0)
(1.49257730692 5.86678578646e-07 0)
(1.49257655894 9.58365702432e-07 0)
(1.49257607772 1.26628036601e-06 0)
(1.49257577477 1.55458942212e-06 0)
(1.49257559256 1.84038936452e-06 0)
(1.49257547714 2.13226703499e-06 0)
(1.49257538882 2.43644184139e-06 0)
(1.49257530138 2.75536000675e-06 0)
(1.49257519681 3.0881348744e-06 0)
(1.4925750625 3.43017075443e-06 0)
(1.49257488814 3.77272278251e-06 0)
(1.49257466506 4.10215892015e-06 0)
(1.49257438753 4.39846441423e-06 0)
(1.49257405183 4.62922142348e-06 0)
(1.49257365107 4.7492639433e-06 0)
(1.49257317386 4.69638857524e-06 0)
(1.49257259997 4.38440160796e-06 0)
(1.49257190624 3.69238974691e-06 0)
(1.49257106014 2.4565141977e-06 0)
(1.49256992983 6.45068595589e-07 0)
(1.49256812383 -2.03027894245e-06 0)
(1.49256533787 -6.19799239023e-06 0)
(1.49256117006 -1.23867462872e-05 0)
(1.49255459778 -2.13744323568e-05 0)
(1.49254401267 -3.42512856215e-05 0)
(1.49252687492 -5.25739907384e-05 0)
(1.49249907094 -7.85464400218e-05 0)
(1.4924539062 -0.000115207497806 0)
(1.49238050576 -0.000166928500106 0)
(1.49226179964 -0.000240223365664 0)
(1.49207044333 -0.000343611880946 0)
(1.49176187026 -0.000489626505863 0)
(1.49126378141 -0.000698389699761 0)
(1.49046741863 -0.00100371329238 0)
(1.48920347724 -0.00143812716909 0)
(1.48720620337 -0.00204909932676 0)
(1.48407725002 -0.0028979775699 0)
(1.4792369635 -0.00405225096725 0)
(1.47187877326 -0.00556619380286 0)
(1.46098955687 -0.00744129901459 0)
(1.44542268603 -0.00958351103578 0)
(1.42356957065 -0.0117443287009 0)
(0.993270469322 -0.00616839339604 0)
(1.03158099869 -0.0171003691121 0)
(1.08672178188 -0.02398975613 0)
(1.15174562402 -0.0265602419356 0)
(1.2182354934 -0.0258179885524 0)
(1.27925790604 -0.0230491054977 0)
(1.33140155791 -0.019366042295 0)