/*--------------------------------*- C++ -*----------------------------------*\
| =========                 |                                                 |
| \\      /  F ield         | OpenFOAM: The Open Source CFD Toolbox           |
|  \\    /   O peration     | Version:  2106                                  |
|   \\  /    A nd           | Website:  www.openfoam.com                      |
|    \\/     M anipulation  |                                                 |
\*---------------------------------------------------------------------------*/
FoamFile
{
    version     2.0;
    format      ascii;
    arch        "LSB;label=32;scalar=64";
    class       volScalarField;
    location    "0.001";
    object      p;
}
// * * * * * * * * * * * * * * * * * * * * * * * * * * * * * * * * * * * * * //

dimensions      [0 2 -2 0 0 0 0];

internalField   nonuniform List<scalar> 
160000
(
37.541
0.000540147
54.5801
6.72329
36.2584
22.9888
27.2874
26.3298
26.4747
26.4736
26.4826
26.4926
26.5036
26.5151
26.5276
26.5404
26.5537
26.5679
26.5823
26.597
26.6123
26.6278
26.6434
26.6593
26.6752
26.6912
26.7068
26.7228
26.7385
26.7533
26.7687
26.7837
26.7978
26.8119
26.8253
26.8383
26.8508
26.8624
26.8732
26.8835
26.8932
26.9017
26.9093
26.9161
26.9219
26.9273
26.9312
26.934
26.9361
26.9371
26.9373
26.9366
26.935
26.9322
26.9282
26.9236
26.9182
26.9117
26.9045
26.8963
26.8872
26.877
26.8663
26.8549
26.8429
26.8303
26.8173
26.8039
26.7897
26.7752
26.7605
26.7453
26.7298
26.7141
26.6985
26.6829
26.6672
26.6516
26.6363
26.6213
26.6065
26.5919
26.5778
26.5643
26.5513
26.5387
26.5266
26.5152
26.5046
26.4947
26.4854
26.4768
26.4691
26.4624
26.4565
26.4517
26.4477
26.4449
26.4431
26.4422
26.4422
26.4431
26.4451
26.448
26.452
26.4567
26.4623
26.4687
26.4761
26.4845
26.4937
26.5036
26.5143
26.5256
26.5377
26.5504
26.5637
26.5774
26.5915
26.606
26.6208
26.636
26.6514
26.667
26.6827
26.6983
26.7139
26.7293
26.7447
26.7599
26.7748
26.7893
26.8035
26.8172
26.8304
26.843
26.8551
26.8665
26.8771
26.8871
26.8961
26.9043
26.9116
26.9181
26.9238
26.9286
26.9325
26.9354
26.9374
26.9383
26.938
26.9368
26.9346
26.9314
26.9273
26.9222
26.9163
26.9095
26.9018
26.8933
26.8838
26.8737
26.8626
26.851
26.8387
26.8258
26.8124
26.7984
26.784
26.7692
26.754
26.7385
26.7229
26.7071
26.6912
26.6753
26.6595
26.6437
26.6281
26.6126
26.5975
26.5826
26.5681
26.5541
26.5406
26.5277
26.5155
26.5038
26.4929
26.4826
26.4732
26.4645
26.4567
26.4498
26.4438
26.4388
26.4346
26.4314
26.4292
26.4279
26.4277
26.4285
26.4303
26.4331
26.4368
26.4415
26.447
26.4534
26.4607
26.4689
26.478
26.4878
26.4984
26.5096
26.5215
26.5339
26.5469
26.5605
26.5745
26.5889
26.6037
26.6187
26.634
26.6493
26.6648
26.6803
26.6958
26.7112
26.7264
26.7414
26.7561
26.7704
26.7844
26.798
26.811
26.8236
26.8355
26.8468
26.8574
26.8672
26.8764
26.8847
26.8921
26.8987
26.9042
26.9089
26.9126
26.9154
26.9172
26.918
26.9179
26.9168
26.9146
26.9115
26.9075
26.9025
26.8965
26.8896
26.8819
26.8733
26.864
26.8539
26.8431
26.8315
26.8193
26.8064
26.7929
26.779
26.7646
26.7499
26.7348
26.7195
26.704
26.6882
26.6724
26.6566
26.6408
26.6252
26.6096
26.5943
26.5793
26.5646
26.5503
26.5365
26.5232
26.5105
26.4983
26.4869
26.476
26.466
26.4567
26.4483
26.4408
26.4341
26.4284
26.4236
26.4198
26.417
26.415
26.414
26.4139
26.4148
26.4168
26.4197
26.4236
26.4285
26.4343
26.4412
26.4487
26.4573
26.4666
26.4767
26.4875
26.499
26.5111
26.5238
26.5371
26.551
26.5652
26.5799
26.5948
26.6101
26.6256
26.6411
26.6569
26.6727
26.6885
26.7041
26.7195
26.7349
26.75
26.7647
26.7789
26.7928
26.8064
26.8192
26.8313
26.8429
26.8537
26.8639
26.8732
26.8819
26.8897
26.8965
26.9025
26.9074
26.9115
26.9145
26.9168
26.918
26.918
26.9173
26.9154
26.9125
26.9087
26.9042
26.8985
26.8918
26.8844
26.8761
26.8668
26.8572
26.8466
26.8352
26.8235
26.811
26.798
26.7844
26.7703
26.756
26.7414
26.7263
26.711
26.696
26.6804
26.6648
26.6494
26.6338
26.6185
26.6032
26.5885
26.5741
26.5599
26.5467
26.5336
26.5211
26.5094
26.4981
26.4875
26.4779
26.4684
26.4715
26.3272
27.2847
22.9861
36.2574
6.72043
54.5803
0.000397122
37.5366
-0.00347122
-37.0618
17.1343
-30.3509
-0.959687
-14.136
-9.85512
-10.8008
-10.6558
-10.6568
-10.647
-10.6367
-10.6258
-10.614
-10.6017
-10.5888
-10.5754
-10.5614
-10.547
-10.5322
-10.517
-10.5015
-10.4857
-10.4699
-10.454
-10.438
-10.4221
-10.4064
-10.3909
-10.3755
-10.3603
-10.3458
-10.3314
-10.3172
-10.3038
-10.2908
-10.2786
-10.2668
-10.2556
-10.2456
-10.2362
-10.2276
-10.2198
-10.2129
-10.2071
-10.2022
-10.1982
-10.195
-10.1929
-10.1919
-10.1917
-10.1926
-10.1945
-10.1971
-10.2008
-10.2053
-10.211
-10.2175
-10.2249
-10.2333
-10.2422
-10.2521
-10.2626
-10.274
-10.2861
-10.2987
-10.3121
-10.3258
-10.3399
-10.3543
-10.3691
-10.3843
-10.3995
-10.4149
-10.4305
-10.4461
-10.4619
-10.4773
-10.4927
-10.5079
-10.5227
-10.5373
-10.5513
-10.565
-10.5781
-10.5906
-10.6026
-10.6139
-10.6247
-10.6348
-10.644
-10.6525
-10.6601
-10.6669
-10.6728
-10.6776
-10.6815
-10.6843
-10.6863
-10.6872
-10.6871
-10.6861
-10.684
-10.6812
-10.6774
-10.6728
-10.6671
-10.6605
-10.6531
-10.6448
-10.6357
-10.6257
-10.6149
-10.6035
-10.5914
-10.5788
-10.5656
-10.5519
-10.5379
-10.5232
-10.5083
-10.4931
-10.4778
-10.4623
-10.4467
-10.431
-10.4153
-10.3997
-10.3845
-10.3694
-10.3546
-10.3401
-10.3259
-10.3122
-10.2989
-10.2862
-10.2742
-10.2629
-10.2524
-10.2424
-10.2334
-10.2251
-10.2176
-10.211
-10.2052
-10.2006
-10.1967
-10.194
-10.1921
-10.1913
-10.1915
-10.1925
-10.1947
-10.1977
-10.2017
-10.2068
-10.2128
-10.2197
-10.2275
-10.2361
-10.2457
-10.2559
-10.2669
-10.2785
-10.2907
-10.3037
-10.317
-10.3309
-10.3453
-10.36
-10.3752
-10.3907
-10.4063
-10.4221
-10.438
-10.4539
-10.4698
-10.4855
-10.5012
-10.5166
-10.5318
-10.5466
-10.5611
-10.5751
-10.5886
-10.6015
-10.6138
-10.6255
-10.6365
-10.6467
-10.6562
-10.6649
-10.6727
-10.6795
-10.6855
-10.6905
-10.6947
-10.6978
-10.7
-10.7012
-10.7015
-10.7007
-10.6989
-10.6962
-10.6925
-10.6879
-10.6824
-10.676
-10.6687
-10.6605
-10.6514
-10.6416
-10.631
-10.6198
-10.6079
-10.5954
-10.5823
-10.5688
-10.5548
-10.5404
-10.5256
-10.5106
-10.4954
-10.48
-10.4645
-10.449
-10.4335
-10.4181
-10.4029
-10.3879
-10.3731
-10.3588
-10.3447
-10.3312
-10.3182
-10.3056
-10.2937
-10.2825
-10.2719
-10.2621
-10.2529
-10.2446
-10.2372
-10.2306
-10.225
-10.2203
-10.2166
-10.2138
-10.212
-10.2113
-10.2114
-10.2126
-10.2147
-10.2178
-10.2219
-10.2268
-10.2328
-10.2396
-10.2473
-10.2559
-10.2653
-10.2755
-10.2864
-10.298
-10.3102
-10.323
-10.3364
-10.3503
-10.3646
-10.3794
-10.3945
-10.4099
-10.4253
-10.441
-10.4568
-10.4725
-10.4884
-10.5041
-10.5196
-10.5349
-10.5499
-10.5646
-10.5788
-10.5927
-10.606
-10.6187
-10.6309
-10.6423
-10.6531
-10.6632
-10.6725
-10.681
-10.6885
-10.6951
-10.7008
-10.7056
-10.7095
-10.7124
-10.7143
-10.7153
-10.7153
-10.7144
-10.7125
-10.7096
-10.7056
-10.7008
-10.695
-10.6882
-10.6806
-10.6719
-10.6626
-10.6525
-10.6417
-10.6302
-10.618
-10.6053
-10.5921
-10.5784
-10.5642
-10.5494
-10.5345
-10.5192
-10.5037
-10.4881
-10.4722
-10.4565
-10.4408
-10.425
-10.4096
-10.3942
-10.3792
-10.3645
-10.3502
-10.3365
-10.3231
-10.3103
-10.298
-10.2864
-10.2755
-10.2652
-10.2559
-10.2474
-10.2397
-10.2329
-10.2269
-10.2219
-10.2177
-10.2146
-10.2125
-10.2113
-10.2112
-10.212
-10.2138
-10.2166
-10.2204
-10.2252
-10.2308
-10.2374
-10.2448
-10.2531
-10.2624
-10.2721
-10.2826
-10.2939
-10.3057
-10.3182
-10.3313
-10.3448
-10.3587
-10.3732
-10.388
-10.4026
-10.4181
-10.4334
-10.4487
-10.4645
-10.4799
-10.4955
-10.5108
-10.5259
-10.5408
-10.555
-10.5691
-10.5826
-10.5955
-10.6081
-10.6199
-10.6312
-10.6419
-10.6517
-10.6612
-10.6595
-10.8038
-9.85768
-14.1387
-0.960489
-30.3524
17.1327
-37.0578
-0.00551223
54.5777
17.1316
71.403
23.7889
53.1288
39.9452
44.205
43.257
43.3988
43.3969
43.4062
43.4165
43.4274
43.4391
43.4514
43.4643
43.4778
43.4918
43.5063
43.5211
43.5363
43.5517
43.5674
43.5833
43.5991
43.6151
43.6309
43.6467
43.6624
43.6776
43.6928
43.7077
43.7221
43.736
43.7494
43.7625
43.7748
43.7864
43.7974
43.8075
43.8171
43.8257
43.8334
43.8402
43.8461
43.8512
43.8551
43.8581
43.8602
43.8612
43.8615
43.8607
43.859
43.8562
43.8524
43.8478
43.8423
43.8358
43.8285
43.8202
43.8111
43.801
43.7904
43.779
43.767
43.7545
43.7413
43.7277
43.7136
43.6991
43.6843
43.6691
43.6537
43.6382
43.6226
43.607
43.5913
43.5758
43.5604
43.5453
43.5305
43.516
43.502
43.4883
43.4752
43.4626
43.4505
43.4392
43.4285
43.4185
43.4093
43.4007
43.3932
43.3864
43.3806
43.3757
43.3718
43.3689
43.367
43.3661
43.3661
43.3671
43.3691
43.3719
43.3759
43.3806
43.3862
43.3928
43.4002
43.4086
43.4177
43.4276
43.4383
43.4496
43.4617
43.4744
43.4876
43.5013
43.5154
43.53
43.5449
43.56
43.5755
43.591
43.6067
43.6223
43.6378
43.6533
43.6686
43.6838
43.6987
43.7132
43.7274
43.7411
43.7543
43.767
43.779
43.7904
43.8011
43.811
43.82
43.8283
43.8357
43.8422
43.8479
43.8527
43.8566
43.8594
43.8613
43.8622
43.8619
43.8608
43.8586
43.8554
43.8514
43.8463
43.8404
43.8335
43.8258
43.8172
43.8077
43.7976
43.7866
43.7749
43.7626
43.7497
43.7363
43.7224
43.7079
43.6932
43.678
43.6626
43.6469
43.6311
43.6152
43.5993
43.5835
43.5677
43.552
43.5366
43.5214
43.5066
43.4921
43.4781
43.4646
43.4517
43.4394
43.4278
43.4169
43.4066
43.3972
43.3885
43.3807
43.3738
43.3678
43.3627
43.3586
43.3554
43.3531
43.3519
43.3517
43.3525
43.3543
43.357
43.3607
43.3654
43.371
43.3774
43.3848
43.393
43.402
43.4118
43.4223
43.4335
43.4454
43.4578
43.4709
43.4844
43.4985
43.5129
43.5276
43.5427
43.5579
43.5733
43.5888
43.6043
43.6198
43.6351
43.6504
43.6653
43.6801
43.6944
43.7084
43.722
43.735
43.7477
43.7595
43.7708
43.7814
43.7912
43.8004
43.8086
43.816
43.8226
43.8282
43.8329
43.8366
43.8394
43.8413
43.842
43.842
43.8408
43.8386
43.8355
43.8314
43.8264
43.8204
43.8136
43.8059
43.7973
43.788
43.7778
43.767
43.7554
43.7431
43.7303
43.7168
43.7029
43.6885
43.6738
43.6587
43.6434
43.6279
43.6122
43.5964
43.5806
43.5648
43.5492
43.5337
43.5183
43.5033
43.4886
43.4743
43.4605
43.4472
43.4345
43.4223
43.4109
43.4001
43.39
43.3808
43.3724
43.3649
43.3582
43.3525
43.3477
43.3438
43.3409
43.3389
43.3379
43.3379
43.3389
43.3408
43.3437
43.3477
43.3526
43.3584
43.3652
43.3727
43.3813
43.3906
43.4007
43.4115
43.4229
43.4351
43.4478
43.4611
43.475
43.4892
43.5039
43.5188
43.5341
43.5496
43.5652
43.581
43.5967
43.6124
43.6281
43.6435
43.6589
43.6739
43.6886
43.703
43.7168
43.7302
43.743
43.7552
43.7668
43.7776
43.7879
43.7972
43.8058
43.8136
43.8205
43.8265
43.8314
43.8355
43.8386
43.8407
43.8418
43.842
43.8411
43.8393
43.8365
43.8328
43.828
43.8225
43.8158
43.8083
43.8001
43.7909
43.7811
43.7706
43.7593
43.7474
43.735
43.722
43.7084
43.6945
43.6801
43.6653
43.6504
43.6351
43.6198
43.6044
43.5887
43.5733
43.5578
43.5425
43.5274
43.5126
43.4982
43.4841
43.4706
43.4576
43.4451
43.4333
43.422
43.4115
43.4016
43.3927
43.3952
43.254
44.2022
39.9427
53.1269
23.7866
71.4017
17.1299
54.575
6.70927
-30.3618
23.7816
-23.6285
5.68447
-7.45118
-3.19015
-4.13145
-3.98797
-3.98938
-3.9796
-3.96927
-3.95831
-3.94654
-3.93424
-3.92133
-3.90777
-3.89391
-3.87935
-3.86469
-3.84938
-3.83393
-3.81823
-3.80239
-3.78653
-3.77045
-3.75463
-3.7389
-3.72323
-3.70795
-3.69279
-3.67804
-3.66367
-3.64962
-3.63618
-3.62322
-3.61092
-3.59922
-3.58817
-3.57806
-3.56854
-3.56001
-3.55229
-3.54537
-3.53957
-3.53452
-3.53058
-3.5275
-3.52534
-3.52431
-3.52412
-3.525
-3.52678
-3.52948
-3.53326
-3.53782
-3.5435
-3.54999
-3.55738
-3.56567
-3.57467
-3.58466
-3.59518
-3.6066
-3.61865
-3.6312
-3.6445
-3.65805
-3.67219
-3.68666
-3.70146
-3.71666
-3.73192
-3.74746
-3.76308
-3.77871
-3.79443
-3.80988
-3.82532
-3.84045
-3.85522
-3.8698
-3.88378
-3.89747
-3.91057
-3.9231
-3.93516
-3.94646
-3.95727
-3.96729
-3.97653
-3.98505
-3.99259
-3.99938
-4.0052
-4.00998
-4.01396
-4.01678
-4.01877
-4.01966
-4.01962
-4.01866
-4.0166
-4.01382
-4.00991
-4.00524
-3.99957
-3.99294
-3.98556
-3.97718
-3.96811
-3.95812
-3.94736
-3.93602
-3.92389
-3.91127
-3.8981
-3.88435
-3.87029
-3.85565
-3.84082
-3.82567
-3.81027
-3.79478
-3.7791
-3.76348
-3.74786
-3.73231
-3.71703
-3.70188
-3.68707
-3.67255
-3.65836
-3.6447
-3.63143
-3.61882
-3.60681
-3.59543
-3.58485
-3.57492
-3.56584
-3.55752
-3.55005
-3.5435
-3.53773
-3.53311
-3.52918
-3.52644
-3.52459
-3.52368
-3.5239
-3.52497
-3.52714
-3.53025
-3.53429
-3.53939
-3.54529
-3.55222
-3.55999
-3.56851
-3.57807
-3.58818
-3.59919
-3.61083
-3.62306
-3.63603
-3.64938
-3.66337
-3.67778
-3.69257
-3.70775
-3.72319
-3.73885
-3.75466
-3.77053
-3.78642
-3.80229
-3.81807
-3.83371
-3.84914
-3.8643
-3.87913
-3.89359
-3.90758
-3.92106
-3.93398
-3.94629
-3.95796
-3.96894
-3.97919
-3.98865
-3.9973
-4.00508
-4.01197
-4.01794
-4.023
-4.02712
-4.03029
-4.03248
-4.0337
-4.03391
-4.03314
-4.03139
-4.02866
-4.02499
-4.02037
-4.01484
-4.0084
-4.00108
-3.99289
-3.98387
-3.97406
-3.96349
-3.95223
-3.94034
-3.92786
-3.91481
-3.90125
-3.88723
-3.87283
-3.8581
-3.84309
-3.82787
-3.81249
-3.79702
-3.78151
-3.76602
-3.75063
-3.73538
-3.72038
-3.70564
-3.69126
-3.67727
-3.66371
-3.65068
-3.63811
-3.62622
-3.61496
-3.60429
-3.59452
-3.58532
-3.57709
-3.56967
-3.5631
-3.55753
-3.55279
-3.5491
-3.54635
-3.54453
-3.54378
-3.54388
-3.54511
-3.54722
-3.55026
-3.5544
-3.55932
-3.56531
-3.57214
-3.57986
-3.58847
-3.5978
-3.60803
-3.61885
-3.63048
-3.64271
-3.65552
-3.66896
-3.68281
-3.69717
-3.7119
-3.72692
-3.74232
-3.75778
-3.7735
-3.78926
-3.80502
-3.82088
-3.83648
-3.85207
-3.86737
-3.88231
-3.89708
-3.91125
-3.92511
-3.9384
-3.95112
-3.96332
-3.97476
-3.98559
-3.99564
-4.00487
-4.01334
-4.02081
-4.0275
-4.03324
-4.03801
-4.04195
-4.04478
-4.04679
-4.04775
-4.04777
-4.04684
-4.04486
-4.04201
-4.03801
-4.03318
-4.02736
-4.02055
-4.01298
-4.00438
-3.99512
-3.98502
-3.97416
-3.96272
-3.95053
-3.93785
-3.9246
-3.91079
-3.89662
-3.88192
-3.86697
-3.85171
-3.83617
-3.8206
-3.80479
-3.78908
-3.77334
-3.75758
-3.74219
-3.72678
-3.71182
-3.6971
-3.68276
-3.669
-3.65556
-3.64278
-3.63055
-3.61888
-3.60812
-3.59784
-3.58856
-3.57994
-3.57225
-3.56542
-3.55943
-3.55443
-3.55026
-3.54718
-3.54504
-3.54385
-3.54374
-3.54453
-3.54636
-3.54916
-3.55289
-3.55775
-3.56328
-3.56991
-3.57735
-3.58558
-3.59472
-3.60454
-3.61507
-3.6263
-3.63817
-3.65068
-3.66365
-3.67728
-3.69119
-3.70556
-3.72037
-3.73516
-3.75053
-3.76587
-3.78128
-3.79697
-3.81243
-3.82794
-3.84321
-3.85829
-3.87313
-3.88743
-3.90154
-3.91502
-3.92801
-3.94053
-3.95244
-3.96371
-3.97431
-3.98424
-3.99351
-3.99158
-4.13457
-3.1928
-7.4537
5.68337
-23.6305
23.7817
-30.3613
6.70931
36.2391
-0.976755
53.1147
5.67707
34.9455
21.8075
26.0589
25.116
25.2584
25.2566
25.2664
25.2767
25.2876
25.2994
25.3116
25.3246
25.3382
25.352
25.3666
25.3814
25.3967
25.4121
25.4277
25.4436
25.4595
25.4754
25.4913
25.5071
25.5227
25.538
25.5533
25.568
25.5824
25.5965
25.6098
25.6228
25.6351
25.6468
25.6578
25.6679
25.6774
25.686
25.6937
25.7006
25.7064
25.7115
25.7154
25.7185
25.7206
25.7217
25.7219
25.721
25.7193
25.7165
25.7128
25.7082
25.7026
25.6961
25.6887
25.6803
25.6713
25.6613
25.6508
25.6394
25.6273
25.6148
25.6015
25.5879
25.5737
25.5592
25.5444
25.5292
25.514
25.4985
25.4829
25.4673
25.4516
25.4362
25.4208
25.4056
25.3909
25.3763
25.3623
25.3486
25.3354
25.3229
25.3107
25.2995
25.2887
25.2787
25.2695
25.261
25.2534
25.2467
25.2409
25.2361
25.2321
25.2293
25.2272
25.2263
25.2264
25.2273
25.2294
25.2321
25.2361
25.2408
25.2464
25.2531
25.2605
25.2689
25.278
25.2879
25.2987
25.3099
25.3221
25.3347
25.3479
25.3616
25.3757
25.3903
25.4052
25.4203
25.4357
25.4512
25.4669
25.4825
25.4981
25.5136
25.5289
25.5441
25.5589
25.5735
25.5876
25.6013
25.6146
25.6272
25.6392
25.6506
25.6612
25.6712
25.6802
25.6885
25.696
25.7025
25.7083
25.7129
25.7169
25.7196
25.7215
25.7224
25.7221
25.7211
25.7188
25.7157
25.7117
25.7066
25.7007
25.6938
25.686
25.6775
25.6679
25.6578
25.6467
25.6351
25.6229
25.6099
25.5966
25.5826
25.5682
25.5534
25.5383
25.5229
25.5072
25.4914
25.4755
25.4596
25.4437
25.4279
25.4123
25.3968
25.3817
25.3668
25.3524
25.3384
25.3249
25.312
25.2997
25.288
25.2771
25.2668
25.2574
25.2487
25.241
25.2341
25.2281
25.223
25.2188
25.2156
25.2134
25.2122
25.212
25.2128
25.2145
25.2173
25.221
25.2256
25.2312
25.2376
25.245
25.2532
25.2622
25.272
25.2825
25.2937
25.3056
25.3181
25.3311
25.3447
25.3587
25.3731
25.3879
25.4029
25.4181
25.4335
25.449
25.4645
25.48
25.4954
25.5106
25.5256
25.5404
25.5547
25.5687
25.5823
25.5953
25.6079
25.6198
25.6311
25.6417
25.6515
25.6607
25.6689
25.6763
25.6829
25.6884
25.6932
25.6969
25.6997
25.7015
25.7023
25.7022
25.701
25.6988
25.6958
25.6916
25.6867
25.6806
25.6738
25.6661
25.6575
25.6482
25.638
25.6272
25.6155
25.6033
25.5905
25.577
25.5632
25.5488
25.5341
25.519
25.5036
25.4882
25.4725
25.4567
25.441
25.4251
25.4095
25.3939
25.3786
25.3637
25.3489
25.3347
25.3208
25.3076
25.2948
25.2826
25.2712
25.2604
25.2504
25.2412
25.2327
25.2253
25.2186
25.2128
25.208
25.2041
25.2012
25.1992
25.1982
25.1982
25.1992
25.2012
25.204
25.2081
25.2129
25.2187
25.2255
25.233
25.2416
25.2509
25.261
25.2718
25.2832
25.2954
25.3081
25.3214
25.3353
25.3494
25.3641
25.3791
25.3943
25.4099
25.4254
25.4413
25.457
25.4727
25.4884
25.5038
25.5192
25.5342
25.5489
25.5632
25.577
25.5905
25.6032
25.6154
25.6271
25.6379
25.6482
25.6575
25.6661
25.6738
25.6807
25.6867
25.6916
25.6958
25.6988
25.701
25.7021
25.7022
25.7014
25.6996
25.6968
25.6931
25.6883
25.6827
25.6761
25.6687
25.6604
25.6513
25.6415
25.6309
25.6197
25.6078
25.5953
25.5824
25.5687
25.5548
25.5405
25.5256
25.5108
25.4955
25.4801
25.4647
25.449
25.4336
25.4181
25.4028
25.3878
25.3729
25.3586
25.3445
25.331
25.3179
25.3054
25.2935
25.2822
25.2717
25.2618
25.2526
25.2548
25.1129
26.0562
21.8051
34.9437
5.67527
53.1137
-0.977735
36.2386
22.9588
-14.1639
39.9211
-7.46886
21.7975
8.67078
12.9228
11.9812
12.1238
12.1221
12.1319
12.1422
12.1531
12.165
12.1772
12.1902
12.2037
12.2177
12.2322
12.2469
12.2622
12.2776
12.2933
12.3092
12.325
12.341
12.3569
12.3726
12.3884
12.4036
12.4188
12.4336
12.448
12.462
12.4754
12.4884
12.5007
12.5123
12.5234
12.5334
12.543
12.5515
12.5592
12.5661
12.5719
12.577
12.581
12.584
12.5862
12.5872
12.5874
12.5866
12.5848
12.5821
12.5783
12.5737
12.568
12.5615
12.5541
12.5458
12.5368
12.5268
12.5163
12.5048
12.4928
12.4803
12.467
12.4535
12.4393
12.4248
12.41
12.3948
12.3796
12.364
12.3484
12.3328
12.317
12.3016
12.2862
12.2711
12.2563
12.2417
12.2277
12.214
12.2009
12.1884
12.1762
12.165
12.1542
12.1442
12.135
12.1265
12.1189
12.1122
12.1064
12.1016
12.0976
12.0948
12.0928
12.0919
12.0919
12.0928
12.0949
12.0977
12.1016
12.1063
12.112
12.1186
12.126
12.1344
12.1435
12.1535
12.1642
12.1755
12.1876
12.2002
12.2134
12.2272
12.2412
12.2559
12.2707
12.2859
12.3013
12.3167
12.3324
12.348
12.3636
12.3791
12.3944
12.4096
12.4245
12.439
12.4532
12.4668
12.4801
12.4927
12.5047
12.5161
12.5267
12.5366
12.5457
12.554
12.5615
12.568
12.5738
12.5784
12.5823
12.5851
12.5869
12.5879
12.5876
12.5866
12.5844
12.5812
12.5772
12.5721
12.5662
12.5593
12.5515
12.543
12.5335
12.5234
12.5124
12.5007
12.4885
12.4755
12.4622
12.4481
12.4337
12.4189
12.4037
12.3883
12.3727
12.3569
12.341
12.3251
12.3092
12.2934
12.2778
12.2623
12.2472
12.2323
12.2179
12.2039
12.1904
12.1775
12.1652
12.1536
12.1426
12.1324
12.1229
12.1143
12.1065
12.0996
12.0936
12.0885
12.0844
12.0812
12.079
12.0778
12.0776
12.0783
12.0801
12.0828
12.0865
12.0912
12.0967
12.1032
12.1105
12.1187
12.1277
12.1375
12.148
12.1593
12.1711
12.1836
12.1967
12.2103
12.2243
12.2387
12.2534
12.2684
12.2836
12.299
12.3145
12.33
12.3455
12.3609
12.3761
12.3911
12.4058
12.4202
12.4342
12.4478
12.4608
12.4734
12.4853
12.4966
12.5073
12.517
12.5262
12.5344
12.5418
12.5484
12.554
12.5587
12.5624
12.5651
12.567
12.5677
12.5677
12.5664
12.5643
12.5613
12.5571
12.5522
12.5461
12.5393
12.5316
12.523
12.5137
12.5035
12.4927
12.481
12.4688
12.456
12.4425
12.4287
12.4143
12.3996
12.3846
12.3692
12.3537
12.338
12.3222
12.3065
12.2907
12.2751
12.2595
12.2442
12.2292
12.2145
12.2003
12.1864
12.1732
12.1604
12.1482
12.1368
12.126
12.1159
12.1067
12.0983
12.0908
12.0841
12.0783
12.0736
12.0696
12.0668
12.0647
12.0638
12.0638
12.0647
12.0667
12.0696
12.0736
12.0784
12.0842
12.091
12.0985
12.1071
12.1164
12.1265
12.1373
12.1487
12.161
12.1736
12.1869
12.2007
12.2149
12.2296
12.2446
12.2598
12.2754
12.2909
12.3067
12.3224
12.3382
12.3539
12.3693
12.3847
12.3997
12.4144
12.4288
12.4425
12.456
12.4687
12.481
12.4926
12.5034
12.5137
12.523
12.5316
12.5393
12.5462
12.5522
12.5571
12.5613
12.5643
12.5665
12.5677
12.5678
12.567
12.5651
12.5624
12.5586
12.5538
12.5483
12.5417
12.5342
12.526
12.5169
12.5071
12.4965
12.4853
12.4734
12.4609
12.4479
12.4343
12.4203
12.4061
12.3912
12.3764
12.361
12.3456
12.3302
12.3145
12.2991
12.2836
12.2683
12.2533
12.2385
12.2241
12.21
12.1966
12.1835
12.171
12.1591
12.1477
12.1372
12.1273
12.118
12.1202
11.978
12.9201
8.66841
21.7959
-7.47067
39.9206
-14.1647
22.9587
27.2457
-9.89447
44.1694
-3.21954
26.0373
12.9112
17.1619
16.2202
16.3628
16.361
16.3709
16.3812
16.3922
16.4039
16.4162
16.4292
16.4428
16.4566
16.4712
16.4859
16.5012
16.5166
16.5323
16.5481
16.5639
16.58
16.5959
16.6116
16.6273
16.6426
16.6579
16.6726
16.687
16.701
16.7144
16.7274
16.7396
16.7513
16.7623
16.7724
16.782
16.7905
16.7982
16.8051
16.8109
16.816
16.8199
16.823
16.8251
16.8261
16.8264
16.8255
16.8238
16.8211
16.8172
16.8127
16.807
16.8005
16.7931
16.7847
16.7757
16.7657
16.7552
16.7438
16.7317
16.7192
16.706
16.6924
16.6782
16.6637
16.6489
16.6337
16.6185
16.6029
16.5873
16.5718
16.5561
16.5406
16.5252
16.5101
16.4953
16.4807
16.4667
16.453
16.4399
16.4273
16.4152
16.4039
16.3931
16.3831
16.3739
16.3654
16.3579
16.3512
16.3454
16.3406
16.3366
16.3338
16.3317
16.3308
16.3308
16.3318
16.3338
16.3366
16.3406
16.3453
16.3509
16.3576
16.365
16.3734
16.3825
16.3924
16.4032
16.4145
16.4266
16.4392
16.4524
16.4662
16.4802
16.4949
16.5097
16.5248
16.5402
16.5557
16.5714
16.587
16.6026
16.6181
16.6334
16.6486
16.6634
16.678
16.6921
16.7058
16.719
16.7317
16.7437
16.7551
16.7656
16.7756
16.7847
16.793
16.8004
16.807
16.8128
16.8174
16.8213
16.824
16.8259
16.8268
16.8265
16.8255
16.8233
16.8202
16.8162
16.8111
16.8052
16.7983
16.7905
16.782
16.7724
16.7623
16.7513
16.7396
16.7274
16.7144
16.7011
16.6871
16.6727
16.6579
16.6427
16.6273
16.6117
16.5959
16.58
16.5641
16.5482
16.5324
16.5167
16.5013
16.4861
16.4713
16.4569
16.4429
16.4294
16.4165
16.4042
16.3925
16.3815
16.3713
16.3619
16.3532
16.3454
16.3385
16.3325
16.3274
16.3233
16.3201
16.318
16.3167
16.3165
16.3173
16.3191
16.3218
16.3255
16.3301
16.3357
16.3421
16.3495
16.3577
16.3667
16.3764
16.387
16.3982
16.4101
16.4226
16.4356
16.4492
16.4632
16.4776
16.4924
16.5074
16.5226
16.538
16.5534
16.569
16.5844
16.5998
16.6151
16.6301
16.6448
16.6592
16.6732
16.6868
16.6998
16.7124
16.7243
16.7356
16.7462
16.756
16.7652
16.7734
16.7808
16.7873
16.7929
16.7977
16.8014
16.8041
16.806
16.8067
16.8066
16.8054
16.8033
16.8002
16.796
16.7911
16.7851
16.7783
16.7706
16.762
16.7527
16.7425
16.7316
16.72
16.7078
16.695
16.6815
16.6677
16.6533
16.6386
16.6236
16.6081
16.5927
16.577
16.5612
16.5455
16.5296
16.5141
16.4985
16.4832
16.4682
16.4534
16.4393
16.4254
16.4121
16.3994
16.3872
16.3758
16.365
16.3549
16.3458
16.3373
16.3298
16.3231
16.3173
16.3125
16.3086
16.3057
16.3037
16.3027
16.3027
16.3037
16.3057
16.3086
16.3126
16.3174
16.3232
16.33
16.3375
16.3461
16.3553
16.3654
16.3763
16.3877
16.3999
16.4126
16.4259
16.4397
16.4539
16.4686
16.4836
16.4988
16.5144
16.5299
16.5458
16.5614
16.5772
16.5929
16.6083
16.6237
16.6387
16.6534
16.6678
16.6815
16.695
16.7077
16.7199
16.7316
16.7424
16.7527
16.762
16.7706
16.7784
16.7852
16.7912
16.7961
16.8003
16.8033
16.8055
16.8067
16.8068
16.806
16.8042
16.8014
16.7977
16.7929
16.7873
16.7807
16.7733
16.765
16.7559
16.7461
16.7355
16.7243
16.7124
16.6999
16.6869
16.6734
16.6594
16.6451
16.6302
16.6153
16.6
16.5846
16.5692
16.5535
16.5381
16.5226
16.5073
16.4923
16.4775
16.4631
16.449
16.4355
16.4224
16.4099
16.3981
16.3867
16.3762
16.3664
16.357
16.3591
16.217
17.1592
12.9088
26.0356
-3.22115
44.1685
-9.8952
27.2455
26.2752
-10.8537
43.2079
-4.17442
25.0809
11.956
16.2067
15.2649
15.4075
15.4058
15.4157
15.4259
15.4369
15.4487
15.461
15.474
15.4875
15.5014
15.516
15.5307
15.5459
15.5613
15.577
15.5929
15.6087
15.6248
15.6406
15.6564
15.6721
15.6874
15.7026
15.7174
15.7318
15.7458
15.7591
15.7721
15.7844
15.796
15.8071
15.8171
15.8267
15.8352
15.8429
15.8498
15.8556
15.8607
15.8646
15.8677
15.8698
15.8709
15.8711
15.8703
15.8685
15.8658
15.8619
15.8574
15.8517
15.8452
15.8377
15.8294
15.8204
15.8104
15.7999
15.7885
15.7764
15.7639
15.7507
15.7371
15.7229
15.7084
15.6936
15.6784
15.6632
15.6476
15.632
15.6165
15.6007
15.5853
15.5699
15.5548
15.54
15.5254
15.5115
15.4977
15.4846
15.472
15.4599
15.4486
15.4378
15.4278
15.4186
15.4102
15.4027
15.3959
15.3901
15.3853
15.3813
15.3785
15.3765
15.3756
15.3756
15.3765
15.3786
15.3813
15.3853
15.39
15.3957
15.4024
15.4097
15.4182
15.4272
15.4372
15.448
15.4592
15.4714
15.4839
15.4971
15.5109
15.525
15.5396
15.5544
15.5696
15.585
15.6004
15.6161
15.6317
15.6473
15.6629
15.6782
15.6934
15.7082
15.7227
15.7369
15.7505
15.7638
15.7764
15.7884
15.7998
15.8104
15.8203
15.8294
15.8377
15.8452
15.8517
15.8575
15.8621
15.866
15.8687
15.8706
15.8715
15.8713
15.8702
15.868
15.8649
15.8609
15.8558
15.8499
15.843
15.8352
15.8267
15.8172
15.8071
15.796
15.7844
15.7722
15.7592
15.7459
15.7318
15.7174
15.7026
15.6874
15.672
15.6564
15.6406
15.6247
15.6088
15.5929
15.5771
15.5615
15.546
15.5309
15.516
15.5016
15.4876
15.4741
15.4612
15.4489
15.4372
15.4263
15.416
15.4066
15.398
15.3902
15.3833
15.3773
15.3722
15.368
15.3649
15.3627
15.3615
15.3613
15.362
15.3638
15.3665
15.3702
15.3749
15.3804
15.3869
15.3942
15.4024
15.4114
15.4212
15.4317
15.443
15.4548
15.4673
15.4804
15.494
15.508
15.5224
15.5371
15.5521
15.5673
15.5827
15.5982
15.6137
15.6292
15.6445
15.6598
15.6748
15.6895
15.7039
15.7179
15.7315
15.7445
15.7571
15.769
15.7803
15.791
15.8007
15.8099
15.8181
15.8255
15.8321
15.8376
15.8424
15.8461
15.8488
15.8507
15.8514
15.8514
15.8501
15.848
15.845
15.8407
15.8359
15.8298
15.823
15.8153
15.8067
15.7974
15.7872
15.7764
15.7647
15.7525
15.7397
15.7262
15.7124
15.698
15.6833
15.6683
15.6529
15.6375
15.6217
15.606
15.5903
15.5744
15.5588
15.5432
15.5279
15.513
15.4982
15.4841
15.4702
15.4569
15.4442
15.432
15.4205
15.4097
15.3997
15.3905
15.382
15.3746
15.3679
15.3621
15.3573
15.3533
15.3504
15.3484
15.3475
15.3475
15.3484
15.3505
15.3533
15.3573
15.3621
15.3679
15.3747
15.3822
15.3909
15.4001
15.4102
15.421
15.4324
15.4446
15.4573
15.4706
15.4845
15.4986
15.5134
15.5283
15.5436
15.5591
15.5746
15.5905
15.6062
15.6219
15.6376
15.653
15.6684
15.6834
15.6981
15.7125
15.7263
15.7397
15.7525
15.7647
15.7764
15.7871
15.7974
15.8067
15.8154
15.8231
15.83
15.836
15.8409
15.845
15.8481
15.8502
15.8514
15.8515
15.8508
15.8489
15.8461
15.8424
15.8376
15.8321
15.8255
15.818
15.8098
15.8007
15.7909
15.7803
15.7691
15.7572
15.7447
15.7317
15.7181
15.7041
15.6898
15.675
15.6601
15.6447
15.6293
15.6139
15.5982
15.5828
15.5673
15.5521
15.537
15.5223
15.5079
15.4938
15.4803
15.4672
15.4547
15.4428
15.4314
15.4209
15.4111
15.4016
15.4038
15.2617
16.2039
11.9536
25.0792
-4.17594
43.2072
-10.8544
26.2751
26.4048
-10.724
43.3346
-4.04625
25.208
12.0833
16.334
15.3922
15.5349
15.5331
15.543
15.5533
15.5642
15.5761
15.5884
15.6013
15.6149
15.6288
15.6433
15.658
15.6732
15.6887
15.7043
15.7202
15.736
15.7521
15.7679
15.7837
15.7994
15.8147
15.83
15.8447
15.8591
15.8731
15.8864
15.8995
15.9117
15.9233
15.9343
15.9444
15.954
15.9624
15.9701
15.9771
15.9828
15.9879
15.9919
15.9949
15.9971
15.9981
15.9984
15.9975
15.9957
15.9931
15.9892
15.9847
15.9789
15.9724
15.965
15.9566
15.9477
15.9376
15.9271
15.9157
15.9037
15.8912
15.8779
15.8644
15.8502
15.8357
15.8209
15.8057
15.7905
15.7749
15.7593
15.7438
15.728
15.7127
15.6972
15.6821
15.6673
15.6527
15.6388
15.625
15.6119
15.5993
15.5872
15.5759
15.5651
15.5551
15.5459
15.5374
15.53
15.5232
15.5174
15.5127
15.5086
15.5058
15.5038
15.5029
15.5029
15.5038
15.5059
15.5086
15.5126
15.5173
15.523
15.5297
15.537
15.5455
15.5546
15.5645
15.5753
15.5865
15.5987
15.6113
15.6245
15.6383
15.6523
15.6669
15.6818
15.6969
15.7123
15.7278
15.7434
15.759
15.7746
15.7902
15.8055
15.8207
15.8355
15.85
15.8642
15.8778
15.8911
15.9037
15.9157
15.9271
15.9377
15.9476
15.9567
15.965
15.9725
15.979
15.9848
15.9894
15.9933
15.9961
15.9979
15.9988
15.9985
15.9975
15.9953
15.9922
15.9882
15.9831
15.9772
15.9703
15.9625
15.954
15.9444
15.9344
15.9233
15.9117
15.8995
15.8865
15.8731
15.8591
15.8447
15.8299
15.8147
15.7993
15.7837
15.7679
15.752
15.7361
15.7202
15.7044
15.6888
15.6733
15.6582
15.6433
15.6289
15.6149
15.6014
15.5885
15.5762
15.5645
15.5536
15.5433
15.5339
15.5253
15.5175
15.5106
15.5046
15.4995
15.4953
15.4922
15.49
15.4888
15.4886
15.4893
15.4911
15.4938
15.4975
15.5022
15.5077
15.5142
15.5215
15.5297
15.5387
15.5485
15.559
15.5703
15.5821
15.5946
15.6077
15.6213
15.6353
15.6497
15.6644
15.6794
15.6946
15.71
15.7255
15.741
15.7564
15.7718
15.787
15.802
15.8168
15.8312
15.8452
15.8588
15.8718
15.8844
15.8963
15.9076
15.9182
15.928
15.9372
15.9454
15.9528
15.9594
15.9649
15.9696
15.9734
15.9761
15.978
15.9787
15.9787
15.9774
15.9753
15.9722
15.968
15.9632
15.9571
15.9503
15.9426
15.934
15.9247
15.9145
15.9037
15.892
15.8798
15.867
15.8536
15.8397
15.8254
15.8106
15.7956
15.7802
15.7648
15.7491
15.7333
15.7176
15.7017
15.6862
15.6706
15.6553
15.6403
15.6255
15.6114
15.5975
15.5842
15.5715
15.5593
15.5479
15.537
15.527
15.5179
15.5094
15.5019
15.4952
15.4894
15.4846
15.4806
15.4777
15.4757
15.4747
15.4748
15.4757
15.4778
15.4806
15.4846
15.4894
15.4952
15.502
15.5095
15.5181
15.5274
15.5374
15.5483
15.5597
15.5719
15.5846
15.5979
15.6117
15.6259
15.6407
15.6556
15.6709
15.6864
15.7019
15.7178
15.7335
15.7492
15.765
15.7803
15.7958
15.8107
15.8255
15.8398
15.8536
15.8671
15.8798
15.892
15.9037
15.9145
15.9248
15.9341
15.9427
15.9505
15.9573
15.9633
15.9683
15.9724
15.9754
15.9776
15.9788
15.9788
15.9781
15.9763
15.9735
15.9698
15.965
15.9594
15.9528
15.9454
15.9371
15.928
15.9182
15.9076
15.8964
15.8846
15.872
15.8591
15.8455
15.8315
15.8171
15.8023
15.7874
15.772
15.7566
15.7412
15.7255
15.7101
15.6946
15.6794
15.6643
15.6496
15.6352
15.6211
15.6076