/*--------------------------------*- C++ -*----------------------------------*\
| =========                 |                                                 |
| \\      /  F ield         | OpenFOAM: The Open Source CFD Toolbox           |
|  \\    /   O peration     | Version:  2106                                  |
|   \\  /    A nd           | Website:  www.openfoam.com                      |
|    \\/     M anipulation  |                                                 |
\*---------------------------------------------------------------------------*/
FoamFile
{
    version     2.0;
    format      ascii;
    arch        "LSB;label=32;scalar=64";
    class       volScalarField;
    location    "0.001";
    object      p;
}
// * * * * * * * * * * * * * * * * * * * * * * * * * * * * * * * * * * * * * //

dimensions      [0 2 -2 0 0 0 0];

internalField   nonuniform List<scalar> 
160000
(
1.0451e-14
-7.81044e-19
-3.40859e-15
-5.1159e-14
-5.687e-14
-5.98368e-14
-5.35338e-14
-5.54297e-14
-4.42035e-14
-4.64845e-14
-3.6344e-14
-3.68999e-14
-3.43304e-14
-3.43886e-14
-3.75917e-14
-4.24603e-14
-4.65341e-14
-5.38018e-14
-5.6521e-14
-6.00052e-14
-5.95606e-14
-5.93237e-14
-5.60144e-14
-5.13465e-14
-5.31518e-14
-3.42891e-14
-3.89616e-14
-4.76619e-14
-1.3109e-14
-4.43777e-14
-5.86732e-14
-1.88669e-14
-6.22244e-14
-8.07554e-14
-3.87015e-14
-5.65875e-14
-7.99414e-14
-4.6978e-14
-3.92217e-14
-5.51404e-14
-5.41006e-14
-3.63774e-14
-3.29069e-14
-6.08215e-14
-6.51332e-14
-4.23153e-14
-4.72437e-14
-8.21433e-14
-7.12859e-14
-3.71305e-14
-4.7951e-14
-6.80638e-14
-4.38892e-14
-1.8516e-14
-3.28794e-14
-5.6585e-14
-5.32364e-14
-4.60979e-14
-4.95706e-14
-6.87023e-14
-8.97783e-14
-7.88126e-14
-3.83668e-14
-4.15579e-14
-8.00949e-14
-7.62431e-14
-1.7974e-14
-1.3699e-14
-7.13857e-14
-8.99789e-14
-4.82492e-14
-2.20281e-14
-5.17513e-14
-8.56613e-14
-6.98608e-14
-2.25755e-14
-2.00645e-14
-3.57785e-14
-4.47473e-14
-4.64696e-14
-4.54312e-14
-4.40942e-14
-4.68867e-14
-6.89903e-14
-9.1678e-14
-8.75941e-14
-4.74226e-14
-2.75032e-14
-4.48765e-14
-7.29388e-14
-5.95965e-14
-1.12862e-14
-6.25062e-15
-4.77622e-14
-9.13673e-14
-8.20101e-14
-2.38343e-14
-7.06467e-15
-2.97964e-14
-6.38238e-14
-6.47698e-14
-3.99376e-14
-3.49246e-14
-4.91593e-14
-6.71029e-14
-6.63796e-14
-6.06278e-14
-5.41679e-14
-4.58436e-14
-2.19901e-14
-4.66882e-15
-9.37847e-15
-4.15203e-14
-6.99326e-14
-7.20448e-14
-4.05675e-14
-3.68054e-14
-6.02997e-14
-1.01524e-13
-1.00801e-13
-6.58375e-14
-1.80002e-14
-1.2112e-14
-4.13889e-14
-7.62445e-14
-7.70872e-14
-5.01008e-14
-2.32425e-14
-2.22737e-14
-3.63508e-14
-4.87941e-14
-4.83397e-14
-4.62832e-14
-4.9228e-14
-6.21642e-14
-6.48637e-14
-5.76601e-14
-4.29553e-14
-4.06673e-14
-4.59354e-14
-5.03412e-14
-4.36299e-14
-1.41695e-14
-3.47907e-15
-1.59103e-14
-5.89933e-14
-9.94523e-14
-1.02304e-13
-7.48171e-14
-2.69152e-14
-6.01975e-15
-1.06586e-14
-4.68669e-14
-6.49677e-14
-6.47411e-14
-4.51565e-14
-2.57479e-14
-2.55182e-14
-3.36822e-14
-5.32929e-14
-6.7523e-14
-7.53962e-14
-8.10218e-14
-8.36896e-14
-8.11452e-14
-6.31617e-14
-3.10451e-14
-5.84455e-15
-5.00018e-15
-2.74193e-14
-6.72612e-14
-1.00883e-13
-1.01837e-13
-7.39165e-14
-3.02162e-14
-2.02366e-15
-1.68587e-16
-2.38589e-14
-5.7819e-14
-7.2455e-14
-7.14359e-14
-4.89405e-14
-2.96019e-14
-2.78087e-14
-3.59482e-14
-5.33918e-14
-6.1356e-14
-6.13273e-14
-5.07314e-14
-3.66501e-14
-3.2005e-14
-3.29111e-14
-4.17561e-14
-5.02604e-14
-5.31023e-14
-5.29694e-14
-5.12821e-14
-4.85715e-14
-4.67147e-14
-4.57211e-14
-4.52396e-14
-4.50589e-14
-4.50668e-14
-4.56907e-14
-4.73369e-14
-4.93887e-14
-5.0753e-14
-5.09034e-14
-5.01559e-14
-4.61603e-14
-3.86256e-14
-3.24511e-14
-3.20376e-14
-3.73811e-14
-5.20049e-14
-6.72576e-14
-7.04262e-14
-6.468e-14
-4.23848e-14
-1.4579e-14
-6.97161e-15
-1.55351e-14
-4.82131e-14
-8.19011e-14
-9.28247e-14
-8.44093e-14
-4.92128e-14
-1.13061e-14
1.88802e-15
-6.48346e-15
-4.37662e-14
-7.65187e-14
-8.66036e-14
-8.19576e-14
-5.79033e-14
-3.94435e-14
-3.53021e-14
-3.6868e-14
-4.52115e-14
-5.26413e-14
-5.69202e-14
-5.89017e-14
-5.79542e-14
-5.49388e-14
-4.50495e-14
-3.16191e-14
-2.85772e-14
-3.49572e-14
-5.88816e-14
-7.57342e-14
-7.5343e-14
-5.18898e-14
-2.04057e-14
-1.24673e-14
-2.14146e-14
-5.26049e-14
-6.76575e-14
-6.72458e-14
-4.8076e-14
-3.23581e-14
-3.27312e-14
-4.34767e-14
-5.43474e-14
-5.47626e-14
-4.81136e-14
-3.87582e-14
-3.72275e-14
-3.80116e-14
-3.99844e-14
-4.2297e-14
-4.74691e-14
-5.58389e-14
-5.76243e-14
-5.24078e-14
-3.31256e-14
-2.58972e-14
-3.18991e-14
-6.05159e-14
-7.4088e-14
-6.98646e-14
-4.03542e-14
-2.90272e-14
-3.5532e-14
-6.42478e-14
-7.20712e-14
-6.34858e-14
-3.93328e-14
-3.58947e-14
-4.5444e-14
-6.09309e-14
-6.07008e-14
-5.18547e-14
-3.91266e-14
-3.48649e-14
-3.50224e-14
-3.64751e-14
-4.12482e-14
-4.86024e-14
-4.99207e-14
-4.43942e-14
-3.80408e-14
-4.00872e-14
-5.8817e-14
-6.33563e-14
-5.07696e-14
-2.86972e-14
-2.9415e-14
-5.58797e-14
-7.16853e-14
-6.57248e-14
-4.22697e-14
-4.17446e-14
-5.86225e-14
-6.64414e-14
-5.81997e-14
-3.89705e-14
-3.83057e-14
-4.42163e-14
-4.80221e-14
-4.76375e-14
-4.6065e-14
-4.55695e-14
-4.56576e-14
-4.95172e-14
-5.36062e-14
-5.26061e-14
-3.89854e-14
-3.70949e-14
-4.88976e-14
-5.71043e-14
-4.97732e-14
-3.98686e-14
-4.80499e-14
-7.04987e-14
-6.90369e-14
-4.78905e-14
-4.78595e-14
-5.92809e-14
-5.92788e-14
-4.18838e-14
-3.91977e-14
-4.54457e-14
-4.74509e-14
-4.51802e-14
-4.45379e-14
-4.70668e-14
-5.19292e-14
-5.27716e-14
-5.15111e-14
-5.11365e-14
-5.48569e-14
-5.61488e-14
-5.04625e-14
-4.92656e-14
-5.56263e-14
-5.5591e-14
-4.8444e-14
-4.93285e-14
-5.37127e-14
-5.00119e-14
-4.59958e-14
-4.74503e-14
-4.67235e-14
-4.17678e-14
-4.18137e-14
-4.21831e-14
-4.27715e-14
-4.3535e-14
-4.64926e-14
-4.99352e-14
-5.14051e-14
-5.23128e-14
-5.45543e-14
-5.42585e-14
-5.30477e-14
-5.23506e-14
-4.92649e-14
-4.74997e-14
-4.53354e-14
-4.37586e-14
-4.2896e-14
-4.15043e-14
-4.31028e-14
-4.27436e-14
-4.54412e-14
-4.69017e-14
-4.71237e-14
-5.22562e-14
-4.97247e-14
-5.28499e-14
-4.96952e-14
-4.91085e-14
-4.60901e-14
-4.34622e-14
-4.07677e-14
-3.78185e-14
-3.61104e-14
-3.36101e-14
-3.33931e-14
-2.47055e-14
-1.95936e-14
1.1982e-15
-3.26639e-14
-5.46264e-14
-5.71667e-14
-5.45136e-14
-5.57619e-14
-4.92544e-14
-4.94529e-14
-4.4475e-14
-4.21253e-14
-4.25486e-14
-3.00509e-14
-4.83716e-14
-3.05212e-14
-4.88208e-14
-4.71028e-14
-4.63433e-14
-6.21982e-14
-5.02433e-14
-5.75503e-14
-5.87682e-14
-4.97911e-14
-5.20193e-14
-4.78532e-14
-4.19349e-14
-4.21598e-14
-4.26882e-14
-4.25973e-14
-4.21176e-14
-4.8702e-14
-5.21121e-14
-4.83309e-14
-5.77916e-14
-6.57721e-14
-4.71943e-14
-5.10624e-14
-6.66274e-14
-3.8883e-14
-3.54539e-14
-5.88922e-14
-4.39608e-14
-2.98827e-14
-5.91907e-14
-6.09211e-14
-4.17492e-14
-5.30068e-14
-6.71472e-14
-4.90899e-14
-4.62301e-14
-5.44109e-14
-4.74946e-14
-3.82867e-14
-4.55557e-14
-4.35203e-14
-3.77765e-14
-4.70602e-14
-5.66604e-14
-5.11816e-14
-5.0246e-14
-7.24724e-14
-7.25832e-14
-3.90144e-14
-4.32512e-14
-7.65288e-14
-6.64093e-14
-1.62007e-14
-2.08895e-14
-8.13758e-14
-8.23907e-14
-2.97177e-14
-1.65716e-14
-5.86602e-14
-8.89067e-14
-6.28019e-14
-2.1289e-14
-2.31495e-14
-4.44168e-14
-4.6679e-14
-4.58769e-14
-4.63065e-14
-4.86924e-14
-4.78148e-14
-5.13864e-14
-6.6044e-14
-7.63304e-14
-5.76687e-14
-4.07748e-14
-4.33763e-14
-5.41948e-14
-5.10926e-14
-2.38888e-14
-2.35412e-14
-5.14431e-14
-7.78541e-14
-7.3097e-14
-3.18951e-14
-2.13313e-14
-3.08855e-14
-5.01811e-14
-5.20047e-14
-4.38722e-14
-4.56762e-14
-5.58734e-14
-6.17781e-14
-5.79016e-14
-5.46231e-14
-5.34279e-14
-4.83278e-14
-2.86143e-14
-1.10563e-14
-1.25031e-14
-4.27261e-14
-6.56399e-14
-6.9053e-14
-4.75874e-14
-4.25409e-14
-5.91668e-14
-8.44564e-14
-8.67994e-14
-6.32475e-14
-3.26274e-14
-3.01504e-14
-4.92221e-14
-6.82593e-14
-6.57757e-14
-4.64418e-14
-3.10585e-14
-3.31204e-14
-4.4435e-14
-5.02413e-14
-4.81211e-14
-4.55837e-14
-4.6715e-14
-5.44483e-14
-5.72892e-14
-5.49929e-14
-4.61274e-14
-4.53461e-14
-4.81492e-14
-4.92217e-14
-4.17002e-14
-1.88297e-14
-1.32861e-14
-2.36278e-14
-5.88287e-14
-8.56719e-14
-8.85537e-14
-6.98826e-14
-3.36244e-14
-2.4614e-14
-2.62094e-14
-4.94719e-14
-6.05545e-14
-5.91155e-14
-4.35893e-14
-2.93024e-14
-3.10643e-14
-3.85535e-14
-5.27415e-14
-6.43009e-14
-7.0641e-14
-7.48582e-14
-7.69549e-14
-7.56581e-14
-6.12175e-14
-3.66902e-14
-2.39307e-14
-2.29709e-14
-3.69793e-14
-6.66623e-14
-8.49049e-14
-8.43415e-14
-6.4745e-14
-3.2562e-14
-1.82075e-14
-1.80947e-14
-3.41859e-14
-5.77382e-14
-6.46533e-14
-6.30706e-14
-4.73151e-14
-3.45642e-14
-3.43779e-14
-4.01679e-14
-5.27441e-14
-5.71668e-14
-5.69517e-14
-4.90914e-14
-3.94593e-14
-3.74249e-14
-3.80903e-14
-4.37865e-14
-4.97015e-14
-5.15169e-14
-5.1266e-14
-5.02429e-14
-4.84682e-14
-4.71621e-14
-4.65757e-14
-4.63618e-14
-4.62724e-14
-4.62131e-14
-4.66018e-14
-4.77741e-14
-4.93243e-14
-5.02002e-14
-5.03247e-14
-4.96691e-14
-4.62484e-14
-4.09982e-14
-3.77909e-14
-3.74819e-14
-4.12962e-14
-5.23485e-14
-6.21917e-14
-6.35003e-14
-5.94897e-14
-4.20388e-14
-2.44452e-14
-2.17326e-14
-2.73349e-14
-5.02629e-14
-7.2968e-14
-7.72409e-14
-7.18912e-14
-4.6753e-14
-2.19152e-14
-1.75344e-14
-2.32468e-14
-4.77379e-14
-7.07183e-14
-7.50281e-14
-7.18868e-14
-5.52158e-14
-4.13718e-14
-3.98473e-14
-4.13059e-14
-4.69298e-14
-5.25544e-14
-5.62304e-14
-5.75237e-14
-5.65171e-14
-5.36217e-14
-4.50473e-14
-3.58687e-14
-3.35419e-14
-3.84926e-14
-5.7114e-14
-6.52855e-14
-6.52539e-14
-4.90902e-14
-2.87325e-14
-2.69741e-14
-3.35404e-14
-5.4254e-14
-6.33069e-14
-6.17128e-14
-4.72614e-14
-3.61476e-14
-3.64255e-14
-4.47179e-14
-5.2082e-14
-5.2721e-14
-4.76447e-14
-4.16239e-14
-4.09614e-14
-4.09492e-14
-4.14472e-14
-4.30141e-14
-4.7504e-14
-5.32103e-14
-5.47024e-14
-5.03261e-14
-3.6529e-14
-3.28349e-14
-3.72752e-14
-5.83172e-14
-6.58793e-14
-6.32413e-14
-4.15498e-14
-3.58216e-14
-4.08225e-14
-6.17168e-14
-6.62232e-14
-5.9658e-14
-4.3093e-14
-4.13304e-14
-4.85484e-14
-5.84504e-14
-5.72646e-14
-5.02411e-14
-4.07879e-14
-3.78554e-14
-3.80134e-14
-3.88005e-14
-4.24731e-14
-4.78868e-14
-4.88957e-14
-4.56592e-14
-4.23784e-14
-4.38418e-14
-5.60132e-14
-5.76707e-14
-4.77198e-14
-3.32133e-14
-3.39945e-14
-5.49069e-14
-6.5008e-14
-6.02064e-14
-4.40178e-14
-4.37306e-14
-5.50242e-14
-5.92128e-14
-5.35203e-14
-4.10424e-14
-4.13347e-14
-4.54984e-14
-4.7346e-14
-4.69934e-14
-4.61582e-14
-4.61069e-14
-4.66966e-14
-4.93146e-14
-5.09936e-14
-4.9811e-14
-4.12395e-14
-4.03242e-14
-4.87508e-14
-5.33819e-14
-4.8201e-14
-4.22743e-14
-4.83184e-14
-6.27585e-14
-6.21998e-14
-4.78272e-14
-4.7841e-14
-5.55208e-14
-5.61001e-14
-4.27761e-14
-4.1171e-14
-4.59093e-14
-4.71895e-14
-4.5251e-14
-4.48365e-14
-4.74195e-14
-5.05141e-14
-5.02334e-14
-4.93139e-14
-4.93621e-14
-5.16597e-14
-5.24073e-14
-4.8649e-14
-4.7622e-14
-5.2521e-14
-5.33755e-14
-4.68028e-14
-4.69223e-14
-5.28425e-14
-4.96127e-14
-4.44029e-14
-4.77224e-14
-4.86936e-14
-4.15652e-14
-4.23268e-14
-4.5575e-14
-4.33571e-14
-4.31008e-14
-4.82224e-14
-4.85926e-14
-4.84157e-14
-5.094e-14
-5.12398e-14
-5.08302e-14
-5.05379e-14
-5.07774e-14
-4.86556e-14
-4.64972e-14
-4.66271e-14
-4.38166e-14
-4.36542e-14
-4.48218e-14
-4.29177e-14
-4.56736e-14
-4.60722e-14
-4.58567e-14
-4.93732e-14
-4.91446e-14
-5.05136e-14
-5.06925e-14
-4.98313e-14
-4.98426e-14
-4.59745e-14
-4.61832e-14
-4.23447e-14
-4.24726e-14
-3.96323e-14
-4.08764e-14
-3.95642e-14
-4.0044e-14
-4.92866e-14
-3.98906e-14
-5.60522e-14
-5.69845e-14
-5.71264e-14
-5.51346e-14
-5.43755e-14
-5.02112e-14
-5.01059e-14
-4.50189e-14
-4.53994e-14
-4.22351e-14
-4.29079e-14
-4.37624e-14
-4.43159e-14
-4.64871e-14
-4.73806e-14
-4.93067e-14
-5.16372e-14
-5.14931e-14
-5.3734e-14
-5.19869e-14
-5.08011e-14
-5.16899e-14
-4.48841e-14
-4.48873e-14
-4.4786e-14
-4.03881e-14
-4.59423e-14
-4.57435e-14
-4.46782e-14
-5.33568e-14
-5.22891e-14
-5.19327e-14
-5.59296e-14
-5.15911e-14
-5.01004e-14
-5.06892e-14
-4.46577e-14
-4.54713e-14
-4.83358e-14
-4.39083e-14
-4.34226e-14
-5.36403e-14
-5.01169e-14
-4.56786e-14
-5.67032e-14
-5.89425e-14
-4.62167e-14
-4.72082e-14
-5.40923e-14
-4.67554e-14
-3.83963e-14
-4.31028e-14
-4.59727e-14
-4.56845e-14
-4.55806e-14
-4.89254e-14
-5.15629e-14
-5.4492e-14
-6.02357e-14
-5.64773e-14
-4.54707e-14
-4.93017e-14
-6.10233e-14
-5.54907e-14
-3.21386e-14
-3.27027e-14
-6.01728e-14
-6.28302e-14
-4.32839e-14
-3.824e-14
-5.18104e-14
-5.93385e-14
-5.49794e-14
-3.94305e-14
-3.97043e-14
-4.43829e-14
-4.58249e-14
-4.54734e-14
-4.55091e-14
-4.83387e-14
-5.32277e-14
-5.78624e-14
-5.82271e-14
-5.1427e-14
-4.28537e-14
-4.60538e-14
-5.16335e-14
-5.48058e-14
-4.33749e-14
-3.02917e-14
-3.17331e-14
-5.18271e-14
-5.88452e-14
-5.40249e-14
-3.8261e-14
-4.05695e-14
-4.95432e-14
-5.23032e-14
-4.71902e-14
-3.98748e-14
-3.88332e-14
-4.81135e-14
-5.53498e-14
-5.60966e-14
-5.54153e-14
-5.37972e-14
-4.9551e-14
-4.18157e-14
-3.94107e-14
-3.94689e-14
-4.54055e-14
-4.66158e-14
-4.23714e-14
-3.74573e-14
-4.07083e-14
-5.49692e-14
-6.27644e-14
-5.84293e-14
-4.03853e-14
-3.0743e-14
-3.41922e-14
-5.04627e-14
-6.08977e-14
-5.94474e-14
-4.5549e-14
-3.66096e-14
-3.7093e-14
-4.2685e-14
-4.73238e-14
-4.84827e-14
-4.98496e-14
-5.15186e-14
-5.26831e-14
-5.16549e-14
-4.68274e-14
-4.30064e-14
-4.44285e-14
-4.72573e-14
-4.89419e-14
-4.55895e-14
-3.76002e-14
-3.56881e-14
-4.03915e-14
-5.88202e-14
-6.58502e-14
-6.33228e-14
-5.09922e-14
-3.49045e-14
-3.43526e-14
-4.01176e-14
-5.53608e-14
-6.03185e-14
-5.92034e-14
-4.9833e-14
-4.20734e-14
-4.11018e-14
-4.23333e-14
-4.84746e-14
-5.18117e-14
-5.28684e-14
-5.29236e-14
-5.31383e-14
-5.12553e-14
-4.28219e-14
-3.05886e-14
-2.55801e-14
-2.64728e-14
-3.96742e-14
-6.01207e-14
-6.72794e-14
-6.63438e-14
-5.37468e-14
-3.39036e-14
-2.80027e-14
-2.9582e-14
-4.06125e-14
-5.5112e-14
-5.75657e-14
-5.58837e-14
-4.66189e-14
-3.99352e-14
-4.00796e-14
-4.38516e-14
-5.11373e-14
-5.31223e-14
-5.27071e-14
-4.76512e-14
-4.20904e-14
-4.12985e-14
-4.18331e-14
-4.51515e-14
-4.88287e-14
-5.00339e-14
-4.98731e-14
-4.93603e-14
-4.83403e-14
-4.74541e-14
-4.70534e-14
-4.69819e-14
-4.70048e-14
-4.70116e-14
-4.73456e-14
-4.81722e-14
-4.9175e-14
-4.96513e-14
-4.97408e-14
-4.89273e-14
-4.61578e-14
-4.29026e-14
-4.17615e-14
-4.17847e-14
-4.51138e-14
-5.26308e-14
-5.77643e-14
-5.81422e-14
-5.40402e-14
-4.14456e-14
-3.20208e-14
-3.17296e-14
-3.67028e-14
-5.23049e-14
-6.55415e-14
-6.5819e-14
-6.08151e-14
-4.37179e-14
-2.85047e-14
-2.80592e-14
-3.23571e-14
-4.82546e-14
-6.08549e-14
-6.04786e-14
-5.73864e-14
-4.75366e-14
-4.03045e-14
-3.975e-14
-4.04625e-14
-4.31826e-14
-4.61854e-14
-4.84111e-14
-4.94712e-14
-4.99214e-14
-4.92363e-14
-4.49067e-14
-4.2189e-14
-4.26826e-14
-4.79934e-14
-5.79874e-14
-6.1238e-14
-5.94692e-14
-4.67993e-14
-3.47882e-14
-3.43158e-14
-3.92215e-14
-5.23342e-14
-5.63918e-14
-5.574e-14
-4.79506e-14
-4.37848e-14
-4.40035e-14
-4.69966e-14
-4.9436e-14
-4.91182e-14
-4.6062e-14
-4.30779e-14
-4.27703e-14
-4.3124e-14
-4.38012e-14
-4.51944e-14
-4.79889e-14
-5.01099e-14
-4.99073e-14
-4.60245e-14
-3.93601e-14
-3.85705e-14
-4.31775e-14
-5.42367e-14
-5.54113e-14
-5.13476e-14
-4.07661e-14
-3.91521e-14
-4.25371e-14
-5.05387e-14
-5.06925e-14
-4.66249e-14
-4.1318e-14
-4.17991e-14
-4.71985e-14
-5.22896e-14
-5.30411e-14
-4.97598e-14
-4.57665e-14
-4.476e-14
-4.49937e-14
-4.49595e-14
-4.58254e-14
-4.69876e-14
-4.65731e-14
-4.50342e-14
-4.43351e-14
-4.70271e-14
-5.25563e-14
-5.29952e-14
-4.61221e-14
-4.06585e-14
-4.13379e-14
-5.14081e-14
-5.33666e-14
-5.12357e-14
-4.68748e-14
-4.74246e-14
-5.22766e-14
-5.3198e-14
-4.92197e-14
-4.38218e-14
-4.39062e-14
-4.57033e-14
-4.67194e-14
-4.68548e-14
-4.66158e-14
-4.65265e-14
-4.72176e-14
-4.87482e-14
-4.92581e-14
-4.75988e-14
-4.40969e-14
-4.40766e-14
-4.79973e-14
-4.89949e-14
-4.71202e-14
-4.56901e-14
-5.01677e-14
-5.42754e-14
-5.33613e-14
-4.95355e-14
-4.97609e-14
-5.1474e-14
-5.027e-14
-4.50094e-14
-4.46446e-14
-4.58444e-14
-4.6311e-14
-4.59426e-14
-4.59516e-14
-4.72767e-14
-4.87126e-14
-4.86577e-14
-4.82871e-14
-4.83079e-14
-4.90707e-14
-4.88156e-14
-4.75938e-14
-4.78815e-14
-4.91171e-14
-4.8692e-14
-4.74008e-14
-4.77265e-14
-4.86103e-14
-4.76148e-14
-4.63324e-14
-4.69161e-14
-4.67928e-14
-4.43667e-14
-4.43356e-14
-4.50667e-14
-4.47254e-14
-4.46501e-14
-4.74963e-14
-4.80256e-14
-4.80107e-14
-4.93354e-14
-4.91607e-14
-4.8935e-14
-4.91523e-14
-4.88163e-14
-4.75674e-14
-4.67002e-14
-4.61876e-14
-4.48309e-14
-4.49165e-14
-4.5009e-14
-4.4914e-14
-4.61994e-14
-4.63145e-14
-4.71726e-14
-4.90355e-14
-4.89835e-14
-5.04073e-14
-4.98457e-14
-5.02158e-14
-4.91415e-14
-4.83935e-14
-4.68379e-14
-4.62591e-14
-4.60385e-14
-4.6566e-14
-4.64179e-14
-4.82478e-14
-5.08145e-14
-5.01398e-14
-5.14771e-14
-5.28441e-14
-5.72175e-14
-5.65503e-14
-5.5468e-14
-5.3135e-14
-5.18959e-14
-4.89731e-14
-4.72503e-14
-4.56079e-14
-4.39503e-14
-4.43021e-14
-4.35878e-14
-4.59567e-14
-4.61761e-14
-4.75546e-14
-5.00871e-14
-5.0254e-14
-5.18503e-14
-5.22145e-14
-5.10638e-14
-5.08495e-14
-4.95981e-14
-4.61074e-14
-4.5457e-14
-4.51651e-14
-4.36237e-14
-4.47177e-14
-4.68635e-14
-4.67994e-14
-4.91056e-14
-5.30407e-14
-5.23207e-14
-5.17869e-14
-5.30552e-14
-5.12385e-14
-4.76847e-14
-4.71821e-14
-4.78993e-14
-4.56806e-14
-4.50443e-14
-4.74566e-14
-4.98732e-14
-4.91064e-14
-4.84971e-14
-5.2583e-14
-5.39322e-14
-4.86909e-14
-4.73546e-14
-4.87674e-14
-4.78771e-14
-4.19982e-14
-4.17377e-14
-4.52755e-14
-4.72326e-14
-4.67607e-14
-4.69089e-14
-5.18427e-14
-5.51125e-14
-5.59447e-14
-5.31237e-14
-5.01553e-14
-5.08326e-14
-5.31989e-14
-4.93858e-14
-4.26363e-14
-4.26753e-14
-5.06938e-14
-5.25922e-14
-4.84424e-14
-4.69715e-14
-4.99565e-14
-5.17713e-14
-5.02693e-14
-4.46139e-14
-4.3314e-14
-4.42333e-14
-4.53625e-14
-4.58324e-14
-4.58627e-14
-4.76152e-14
-5.33892e-14
-5.75828e-14
-5.75373e-14
-5.01262e-14
-4.52937e-14
-4.62386e-14
-5.02921e-14
-5.05793e-14
-4.19806e-14
-3.63478e-14
-3.87395e-14
-4.97908e-14
-5.25546e-14
-4.86188e-14
-4.26026e-14
-4.32292e-14
-4.8651e-14
-4.99119e-14
-4.77177e-14
-4.37167e-14
-4.29731e-14
-4.80653e-14
-5.30037e-14
-5.44825e-14
-5.46971e-14
-5.22055e-14
-4.7051e-14
-4.22172e-14
-4.18279e-14
-4.3102e-14
-4.60296e-14
-4.55331e-14
-4.25964e-14
-4.06341e-14
-4.53075e-14
-5.48594e-14
-5.80696e-14
-5.41442e-14
-4.16659e-14
-3.72925e-14
-3.93839e-14
-4.91658e-14
-5.45819e-14
-5.41229e-14
-4.65297e-14
-4.12855e-14
-4.09378e-14
-4.31173e-14
-4.58344e-14
-4.76973e-14
-4.96912e-14
-5.12211e-14
-5.13516e-14
-5.02493e-14
-4.70095e-14
-4.50427e-14
-4.53125e-14
-4.64259e-14
-4.64319e-14
-4.29966e-14
-3.95429e-14
-3.89689e-14
-4.55356e-14
-5.80363e-14
-6.15517e-14
-5.93856e-14
-4.92355e-14
-3.97613e-14
-3.96317e-14
-4.3873e-14
-5.25904e-14
-5.55608e-14
-5.49511e-14
-4.92267e-14
-4.46923e-14
-4.36407e-14
-4.44747e-14
-4.8097e-14
-5.10576e-14
-5.259e-14
-5.27477e-14
-5.26069e-14
-4.90834e-14
-4.07313e-14
-3.1882e-14
-2.9511e-14
-3.13136e-14
-4.31331e-14
-5.80625e-14
-6.23678e-14
-6.1291e-14
-5.06832e-14
-3.69956e-14
-3.3269e-14
-3.45471e-14
-4.26405e-14
-5.16575e-14
-5.32973e-14
-5.2019e-14
-4.67331e-14
-4.32936e-14
-4.30819e-14
-4.56709e-14
-4.95653e-14
-5.07614e-14
-5.02616e-14
-4.6953e-14
-4.37692e-14
-4.31397e-14
-4.35655e-14
-4.57352e-14
-4.80883e-14
-4.90753e-14
-4.91218e-14
-4.88508e-14
-4.82052e-14
-4.75703e-14
-4.71994e-14
-4.70909e-14
-4.70926e-14
-4.71649e-14
-4.75476e-14
-4.82473e-14
-4.89244e-14
-4.91816e-14
-4.91712e-14
-4.82384e-14
-4.60765e-14
-4.39597e-14
-4.33054e-14
-4.36195e-14
-4.68774e-14
-5.21486e-14
-5.48892e-14
-5.51163e-14
-5.06188e-14
-4.15583e-14
-3.60743e-14
-3.55262e-14
-4.0973e-14
-5.29427e-14
-6.10076e-14
-6.15877e-14
-5.61274e-14
-4.28256e-14
-3.31975e-14
-3.27468e-14
-3.69004e-14
-4.83275e-14
-5.65812e-14
-5.67076e-14
-5.43387e-14
-4.77202e-14
-4.26697e-14
-4.17198e-14
-4.20304e-14
-4.37513e-14
-4.6128e-14
-4.80342e-14
-4.87878e-14
-4.90025e-14
-4.79003e-14
-4.529e-14
-4.41948e-14
-4.50307e-14
-4.98813e-14
-5.57076e-14
-5.73331e-14
-5.51027e-14
-4.63681e-14
-3.97734e-14
-3.91041e-14
-4.29661e-14
-5.02661e-14
-5.24665e-14
-5.19624e-14
-4.81534e-14
-4.60364e-14
-4.59616e-14
-4.72061e-14
-4.80941e-14
-4.76974e-14
-4.57919e-14
-4.41217e-14
-4.3705e-14
-4.37471e-14
-4.43583e-14
-4.58705e-14
-4.78282e-14
-4.86221e-14
-4.80445e-14
-4.5e-14
-4.22015e-14
-4.19693e-14
-4.59875e-14
-5.11221e-14
-5.18086e-14
-4.85891e-14
-4.36207e-14
-4.27826e-14
-4.48659e-14
-4.79981e-14
-4.81729e-14
-4.58654e-14
-4.39936e-14
-4.43407e-14
-4.73076e-14
-4.98143e-14
-5.05059e-14
-4.87996e-14
-4.64084e-14
-4.53902e-14
-4.54057e-14
-4.55746e-14
-4.62261e-14
-4.6566e-14
-4.62233e-14
-4.55973e-14
-4.57688e-14
-4.79233e-14
-4.99399e-14
-4.96312e-14
-4.61995e-14
-4.41765e-14
-4.53701e-14
-4.94989e-14
-5.04223e-14
-4.95838e-14
-4.82653e-14
-4.88096e-14
-5.04596e-14
-5.05704e-14
-4.80529e-14
-4.56812e-14
-4.54272e-14
-4.60087e-14
-4.65378e-14
-4.6763e-14
-4.67967e-14
-4.68681e-14
-4.74113e-14
-4.80954e-14
-4.81815e-14
-4.70028e-14
-4.5776e-14
-4.59599e-14
-4.73311e-14
-4.77397e-14
-4.72503e-14
-4.77376e-14
-5.02343e-14
-5.16149e-14
-5.1271e-14
-5.01936e-14
-5.01084e-14
-5.0115e-14
-4.84296e-14
-4.64379e-14
-4.6018e-14
-4.61565e-14
-4.62849e-14
-4.6309e-14
-4.66537e-14
-4.73226e-14
-4.80272e-14
-4.82242e-14
-4.81618e-14
-4.81741e-14
-4.83256e-14
-4.81863e-14
-4.78136e-14
-4.7898e-14
-4.82176e-14
-4.80054e-14
-4.77074e-14
-4.78175e-14
-4.77212e-14
-4.73016e-14
-4.70109e-14
-4.66262e-14
-4.5984e-14
-4.53015e-14
-4.50338e-14
-4.50602e-14
-4.52439e-14
-4.56336e-14
-4.67363e-14
-4.77977e-14
-4.82458e-14
-4.87703e-14
-4.88607e-14
-4.88035e-14
-4.88028e-14
-4.83537e-14
-4.74551e-14
-4.68869e-14
-4.59079e-14
-4.53577e-14
-4.52755e-14
-4.52195e-14
-4.56129e-14
-4.6043e-14
-4.66065e-14
-4.77491e-14
-4.85502e-14
-4.98033e-14
-4.98732e-14
-5.00005e-14
-5.00175e-14
-4.96781e-14
-4.94536e-14
-4.77045e-14
-4.75853e-14
-4.77047e-14
-4.86303e-14
-5.00938e-14
-5.11185e-14
-5.03103e-14
-5.10247e-14
-4.96692e-14
-5.233e-14
-5.49446e-14
-5.52851e-14
-5.43565e-14
-5.32537e-14
-5.15349e-14
-4.95275e-14
-4.77832e-14
-4.60021e-14
-4.51845e-14
-4.49642e-14
-4.48722e-14
-4.58467e-14
-4.654e-14
-4.80085e-14
-4.94929e-14
-5.02564e-14
-5.0936e-14
-5.11096e-14
-5.07539e-14
-5.00079e-14
-4.87953e-14
-4.69308e-14
-4.58814e-14
-4.55559e-14
-4.49486e-14
-4.51867e-14
-4.7129e-14
-4.75258e-14
-4.88415e-14
-5.18583e-14
-5.18159e-14
-5.18303e-14
-5.20019e-14
-5.09223e-14
-4.87718e-14
-4.79949e-14
-4.75453e-14
-4.65139e-14
-4.64327e-14
-4.7246e-14
-4.85459e-14
-4.90722e-14
-4.94164e-14
-5.0624e-14
-5.11061e-14
-4.95771e-14
-4.77829e-14
-4.74604e-14
-4.67211e-14
-4.43263e-14
-4.35419e-14
-4.48791e-14
-4.66983e-14
-4.72355e-14
-4.80034e-14
-5.15401e-14
-5.32971e-14
-5.35511e-14
-5.25508e-14
-5.14498e-14
-5.12683e-14
-4.99769e-14
-4.79494e-14
-4.56434e-14
-4.60542e-14
-4.88799e-14
-4.9414e-14
-4.81704e-14
-4.80321e-14
-4.97286e-14
-5.02408e-14
-4.83271e-14
-4.54625e-14
-4.44499e-14
-4.48163e-14
-4.54495e-14
-4.61907e-14
-4.68625e-14
-4.85462e-14
-5.22892e-14
-5.46087e-14
-5.50185e-14
-5.21171e-14
-4.897e-14
-4.7929e-14
-4.80093e-14
-4.67756e-14
-4.25477e-14
-4.08447e-14
-4.26727e-14
-4.76191e-14
-4.93382e-14
-4.77786e-14
-4.48832e-14
-4.40108e-14
-4.55989e-14
-4.70881e-14
-4.71168e-14
-4.64702e-14
-4.6887e-14
-4.93815e-14
-5.1894e-14
-5.29752e-14
-5.3157e-14
-5.0554e-14
-4.5979e-14
-4.28888e-14
-4.20815e-14
-4.31878e-14
-4.55524e-14
-4.67864e-14
-4.65204e-14
-4.57581e-14
-4.89069e-14
-5.37051e-14
-5.55768e-14
-5.34261e-14
-4.67089e-14
-4.35195e-14
-4.4131e-14
-4.84148e-14
-5.08207e-14
-5.04232e-14
-4.66765e-14
-4.39605e-14
-4.3522e-14
-4.43866e-14
-4.5831e-14
-4.73558e-14
-4.88388e-14
-4.97554e-14
-4.99927e-14
-4.93618e-14
-4.7781e-14
-4.65842e-14
-4.62443e-14
-4.60909e-14
-4.48679e-14
-4.24628e-14
-4.05573e-14
-4.11618e-14
-4.76263e-14
-5.59989e-14
-5.87337e-14
-5.79459e-14
-5.10423e-14
-4.47482e-14
-4.38779e-14
-4.59524e-14
-5.02067e-14
-5.20563e-14
-5.15665e-14
-4.84429e-14
-4.59333e-14
-4.51092e-14
-4.58966e-14
-4.83854e-14
-5.10314e-14
-5.2627e-14
-5.30188e-14
-5.25576e-14
-4.86801e-14
-4.15664e-14
-3.55229e-14
-3.39273e-14
-3.62531e-14
-4.55602e-14
-5.5366e-14
-5.82368e-14
-5.7403e-14
-4.94781e-14
-4.04258e-14
-3.78421e-14
-3.85515e-14
-4.37657e-14
-4.90614e-14
-5.05126e-14
-4.98963e-14
-4.71358e-14
-4.5343e-14
-4.50618e-14
-4.65534e-14
-4.84755e-14
-4.92232e-14
-4.87474e-14
-4.67025e-14
-4.49065e-14
-4.4391e-14
-4.4666e-14
-4.60546e-14
-4.75783e-14
-4.83446e-14
-4.84978e-14
-4.8394e-14
-4.8009e-14
-4.75711e-14
-4.72824e-14
-4.7189e-14
-4.71864e-14
-4.72971e-14
-4.76585e-14
-4.81989e-14
-4.86384e-14
-4.87925e-14
-4.86939e-14
-4.78267e-14
-4.62606e-14
-4.4995e-14
-4.46329e-14
-4.52444e-14
-4.78888e-14
-5.11715e-14
-5.26553e-14
-5.25408e-14
-4.8665e-14
-4.26372e-14
-3.95795e-14
-3.91795e-14
-4.3863e-14
-5.21345e-14
-5.67374e-14
-5.74781e-14
-5.27032e-14
-4.33028e-14
-3.75189e-14
-3.66878e-14
-4.00462e-14
-4.78322e-14
-5.31209e-14
-5.38392e-14
-5.23922e-14
-4.8153e-14
-4.4668e-14
-4.36368e-14
-4.36806e-14
-4.48183e-14
-4.66224e-14
-4.80617e-14
-4.85576e-14
-4.85527e-14
-4.75309e-14
-4.60802e-14
-4.5525e-14
-4.64026e-14
-4.97736e-14
-5.29608e-14
-5.4013e-14
-5.19701e-14
-4.66493e-14
-4.32335e-14
-4.27595e-14
-4.52091e-14
-4.89147e-14
-5.03399e-14
-5.00611e-14
-4.81871e-14
-4.69881e-14
-4.67033e-14
-4.71656e-14
-4.75352e-14
-4.72033e-14
-4.60141e-14
-4.49069e-14
-4.44859e-14
-4.44138e-14
-4.49324e-14
-4.61495e-14
-4.73329e-14
-4.76766e-14
-4.71882e-14
-4.5469e-14
-4.41522e-14
-4.43047e-14
-4.68147e-14
-4.91965e-14
-4.98684e-14
-4.8246e-14
-4.59117e-14
-4.51976e-14
-4.6148e-14
-4.75355e-14
-4.79885e-14
-4.70608e-14
-4.60925e-14
-4.61907e-14
-4.75506e-14
-4.87045e-14
-4.9023e-14
-4.80026e-14
-4.64676e-14
-4.55918e-14
-4.54888e-14
-4.56743e-14
-4.61378e-14
-4.63771e-14
-4.63876e-14
-4.62351e-14
-4.66833e-14
-4.78005e-14
-4.84875e-14
-4.8074e-14
-4.66719e-14
-4.57872e-14
-4.66747e-14
-4.85302e-14
-4.92731e-14
-4.91064e-14
-4.86513e-14
-4.8777e-14
-4.94128e-14
-4.91468e-14
-4.77575e-14
-4.65724e-14
-4.62392e-14
-4.63835e-14
-4.66187e-14
-4.6782e-14
-4.68928e-14
-4.70725e-14
-4.74087e-14
-4.7661e-14
-4.75914e-14
-4.70521e-14
-4.65965e-14
-4.66677e-14
-4.71775e-14
-4.74544e-14
-4.75928e-14
-4.84148e-14
-4.96321e-14
-5.03249e-14
-5.03687e-14
-5.00041e-14
-4.97753e-14
-4.92322e-14
-4.80495e-14
-4.7039e-14
-4.65786e-14
-4.64837e-14
-4.65109e-14
-4.65964e-14
-4.69209e-14
-4.73593e-14
-4.77411e-14
-4.79525e-14
-4.80328e-14
-4.80401e-14
-4.8055e-14
-4.79838e-14
-4.78458e-14
-4.78086e-14
-4.78774e-14
-4.78117e-14
-4.7687e-14
-4.76537e-14
-4.74344e-14
-4.72175e-14
-4.7001e-14
-4.65039e-14
-4.59815e-14
-4.56536e-14
-4.54398e-14
-4.53831e-14
-4.55944e-14
-4.60184e-14
-4.66732e-14
-4.76077e-14
-4.81785e-14
-4.84831e-14
-4.86109e-14
-4.86136e-14
-4.85109e-14
-4.80899e-14
-4.74802e-14
-4.68028e-14
-4.60672e-14
-4.5673e-14
-4.5548e-14
-4.56091e-14
-4.58378e-14
-4.62724e-14
-4.69194e-14
-4.76563e-14
-4.88439e-14
-4.9593e-14
-4.99594e-14
-4.99944e-14
-4.98912e-14
-4.99631e-14
-4.96676e-14
-4.89483e-14
-4.82183e-14
-4.84011e-14
-4.92043e-14
-4.994e-14
-5.08138e-14
-5.22597e-14
-5.1694e-14
-5.21195e-14
-5.23564e-14
-5.34696e-14
-5.37669e-14
-5.33653e-14
-5.24492e-14
-5.11782e-14
-4.95508e-14
-4.78627e-14
-4.67216e-14
-4.5972e-14
-4.5704e-14
-4.56838e-14
-4.61633e-14
-4.70236e-14
-4.80791e-14
-4.91894e-14
-4.99065e-14
-5.02595e-14
-5.03804e-14
-5.02156e-14
-4.93355e-14
-4.84462e-14
-4.74027e-14
-4.62909e-14
-4.60174e-14
-4.58165e-14
-4.5897e-14
-4.71635e-14
-4.80748e-14
-4.89161e-14
-5.08095e-14
-5.11948e-14
-5.11629e-14
-5.10473e-14
-5.04545e-14
-4.90675e-14
-4.83075e-14
-4.775e-14
-4.72461e-14
-4.72485e-14
-4.76339e-14
-4.81985e-14
-4.88815e-14
-4.92943e-14
-4.9682e-14
-4.97548e-14
-4.92281e-14
-4.80453e-14
-4.69705e-14
-4.63153e-14
-4.53688e-14
-4.49429e-14
-4.53336e-14
-4.66511e-14
-4.76283e-14
-4.87648e-14
-5.09531e-14
-5.20641e-14
-5.21803e-14
-5.17826e-14
-5.13327e-14
-5.08051e-14
-4.91233e-14
-4.78493e-14
-4.68952e-14
-4.71878e-14
-4.81642e-14
-4.84665e-14
-4.82801e-14
-4.83959e-14
-4.90974e-14
-4.87355e-14
-4.75629e-14
-4.62485e-14
-4.55321e-14
-4.54719e-14
-4.57169e-14
-4.64155e-14
-4.75772e-14
-4.94149e-14
-5.17351e-14
-5.28774e-14
-5.29161e-14
-5.143e-14
-4.96721e-14
-4.85515e-14
-4.75183e-14
-4.57881e-14
-4.38203e-14
-4.31978e-14
-4.428e-14
-4.63779e-14
-4.73179e-14
-4.685e-14
-4.58373e-14
-4.54498e-14
-4.59755e-14
-4.66001e-14
-4.68587e-14
-4.70945e-14
-4.79355e-14
-4.95934e-14
-5.11001e-14
-5.179e-14
-5.16742e-14
-4.95176e-14
-4.62774e-14
-4.43076e-14
-4.39055e-14
-4.44132e-14
-4.5478e-14
-4.61661e-14
-4.64549e-14
-4.73083e-14
-4.98449e-14
-5.20229e-14
-5.27734e-14
-5.10029e-14
-4.76761e-14
-4.61788e-14
-4.64122e-14
-4.80345e-14
-4.91183e-14
-4.86444e-14
-4.6763e-14
-4.53438e-14
-4.49387e-14
-4.52563e-14
-4.61873e-14
-4.7413e-14
-4.85557e-14
-4.91075e-14
-4.91392e-14
-4.8694e-14
-4.78047e-14
-4.7047e-14
-4.65381e-14
-4.58559e-14
-4.45774e-14
-4.32572e-14
-4.2384e-14
-4.3889e-14
-4.87915e-14
-5.3651e-14
-5.51475e-14
-5.44328e-14
-5.05431e-14
-4.72762e-14
-4.65686e-14
-4.7508e-14
-4.93002e-14
-5.02743e-14
-4.98435e-14
-4.81797e-14
-4.68617e-14
-4.62709e-14
-4.68352e-14
-4.85509e-14
-5.04257e-14
-5.14671e-14
-5.17319e-14
-5.07602e-14
-4.71199e-14
-4.19128e-14
-3.85044e-14
-3.75211e-14
-3.99396e-14
-4.65969e-14
-5.25739e-14
-5.43365e-14
-5.34985e-14
-4.8322e-14
-4.30108e-14
-4.13452e-14
-4.17634e-14
-4.46926e-14
-4.75873e-14
-4.86611e-14
-4.84848e-14
-4.7264e-14
-4.63866e-14
-4.62448e-14
-4.69955e-14
-4.78572e-14
-4.8256e-14
-4.78332e-14
-4.66358e-14
-4.5649e-14
-4.53021e-14
-4.54824e-14
-4.63287e-14
-4.72822e-14
-4.78378e-14
-4.8017e-14
-4.80038e-14
-4.77893e-14
-4.75107e-14
-4.73161e-14
-4.72557e-14
-4.72654e-14
-4.73935e-14
-4.77017e-14
-4.80917e-14
-4.83617e-14
-4.84538e-14
-4.82968e-14
-4.75964e-14
-4.65705e-14
-4.58869e-14
-4.57149e-14
-4.64084e-14
-4.82813e-14
-5.01442e-14
-5.0958e-14
-5.048e-14
-4.75562e-14
-4.39476e-14
-4.22863e-14
-4.23451e-14
-4.58913e-14
-5.09308e-14
-5.34048e-14
-5.36914e-14
-4.99947e-14
-4.40887e-14
-4.07777e-14
-4.00831e-14
-4.24935e-14
-4.73148e-14
-5.05452e-14
-5.11915e-14
-5.03548e-14
-4.79216e-14
-4.57948e-14
-4.49613e-14
-4.48701e-14
-4.55596e-14
-4.67406e-14
-4.76904e-14
-4.80379e-14
-4.80147e-14
-4.74082e-14
-4.67613e-14
-4.65868e-14
-4.75265e-14
-4.95867e-14
-5.11299e-14
-5.15855e-14
-4.99552e-14
-4.69757e-14
-4.52558e-14
-4.49501e-14
-4.62848e-14
-4.80813e-14
-4.89293e-14