/*--------------------------------*- C++ -*----------------------------------*\
| =========                 |                                                 |
| \\      /  F ield         | OpenFOAM: The Open Source CFD Toolbox           |
|  \\    /   O peration     | Version:  2106                                  |
|   \\  /    A nd           | Website:  www.openfoam.com                      |
|    \\/     M anipulation  |                                                 |
\*---------------------------------------------------------------------------*/
FoamFile
{
    version     2.0;
    format      ascii;
    arch        "LSB;label=32;scalar=64";
    class       surfaceScalarField;
    location    "0.001";
    object      phi;
}
// * * * * * * * * * * * * * * * * * * * * * * * * * * * * * * * * * * * * * //

dimensions      [0 3 -1 0 0 0 0];

oriented        oriented;

internalField   nonuniform List<scalar> 
319200
(
3.03361e-18
-2.60569e-17
-1.35071e-17
1.4575e-17
2.32186e-17
-2.84514e-17
-8.4187e-17
6.68764e-17
-1.36888e-17
-5.3377e-17
-4.43367e-17
3.37995e-17
2.78768e-17
-5.42545e-17
-3.00105e-17
4.01512e-17
4.5128e-17
-3.88633e-17
-2.52761e-17
2.24376e-17
2.78069e-17
8.32802e-18
-2.06931e-17
-2.59685e-17
7.96822e-19
5.49126e-17
4.14792e-18
-6.02296e-17
-7.06729e-18
5.89879e-17
-5.35666e-18
-3.48257e-17
1.33587e-18
5.55327e-18
-2.45447e-17
2.15054e-17
2.25068e-17
-4.41686e-17
-2.37968e-17
4.0375e-17
4.85241e-18
-3.13465e-17
1.92682e-17
-1.02948e-18
-1.99015e-17
1.48489e-17
2.8854e-17
-2.51e-17
1.62884e-17
1.1177e-17
-6.35162e-18
5.41479e-18
1.71391e-17
-2.3181e-18
7.41644e-18
6.42661e-18
-2.44622e-17
1.06955e-17
-2.0044e-18
-5.51819e-18
1.90964e-17
-9.48726e-18
-3.29026e-17
2.23199e-17
-1.02569e-17
-1.43301e-17
4.76651e-17
-2.41486e-17
-1.86228e-17
3.47837e-17
-2.09594e-17
-1.23305e-17
5.70422e-17
-3.47595e-17
-8.68684e-18
4.29633e-17
-4.52804e-17
4.35079e-18
4.29944e-17
-4.76889e-17
2.36968e-17
2.87002e-17
-5.31407e-17
4.0179e-17
-9.34961e-18
-3.66709e-17
2.2895e-17
-1.58773e-17
2.34263e-18
2.96639e-17
-1.15646e-17
-5.31379e-18
-3.24813e-17
-1.02151e-17
5.45302e-18
-6.21748e-18
6.02944e-17
-1.29186e-17
-1.6611e-21
1.24155e-17
-5.08191e-17
9.62563e-18
2.73456e-17
-1.5459e-17
7.2377e-17
-4.12178e-18
-2.23897e-17
2.71973e-17
-7.12529e-17
1.47786e-17
2.56471e-17
-3.3361e-17
5.314e-17
-4.8801e-18
-3.98426e-17
4.37835e-17
-6.00331e-17
-1.84383e-18
2.49007e-17
-4.16678e-17
3.15445e-17
-4.47682e-18
-1.64212e-17
2.30674e-17
3.33342e-18
-3.44277e-18
3.48979e-17
-2.60058e-17
-7.39483e-18
9.70307e-18
-2.42304e-17
1.95737e-17
2.70079e-17
-8.10144e-18
5.64452e-17
-2.59796e-17
-1.36829e-17
2.92113e-17
-7.49195e-17
3.7316e-17
-8.76673e-18
-3.0703e-17
7.88043e-17
-5.28243e-17
4.42223e-17
1.2924e-17
-4.74371e-17
4.84549e-17
-3.49297e-17
1.31352e-18
3.47101e-17
-2.95725e-17
4.82481e-17
-1.41879e-17
-5.64695e-18
2.06147e-17
-2.39908e-17
1.46909e-17
4.76896e-18
-8.13841e-18
9.17031e-18
5.07934e-18
-3.338e-17
1.85732e-17
-4.75739e-17
-5.22882e-18
-3.85715e-19
-3.54885e-17
5.01809e-17
-1.68704e-17
4.42492e-17
6.12313e-18
-1.90607e-17
4.60863e-17
-2.91582e-17
3.12362e-18
1.76773e-17
-3.205e-17
4.22437e-17
-1.56193e-17
2.64759e-17
4.66258e-18
-3.80558e-17
4.53796e-17
-4.52319e-17
3.62865e-18
-4.12723e-18
-2.10329e-17
3.24398e-17
-1.99894e-17
3.86192e-17
1.87288e-18
-6.36891e-18
2.91688e-17
-2.75003e-17
9.11147e-19
-2.31837e-17
-1.14883e-17
-5.1248e-18
-1.8529e-17
3.96968e-18
-3.0972e-18
-2.5999e-18
1.84185e-17
-1.06143e-17
4.90165e-18
-1.17355e-17
6.34594e-18
9.28936e-18
-9.38759e-18
2.88971e-17
-1.01809e-17
4.24581e-17
-1.42404e-17
3.20375e-17
-2.92695e-18
-4.66711e-19
1.94135e-17
-3.08228e-17
1.94439e-17
-3.79996e-17
2.03583e-18
-3.44181e-17
-1.40585e-17
-1.42375e-17
-1.50966e-17
-1.39172e-17
2.86333e-18
-2.78218e-17
2.13051e-17
-4.23747e-17
2.06271e-17
-3.04181e-17
-9.31991e-18
-3.84014e-18
-2.62951e-17
2.70417e-17
-2.99165e-17
3.50253e-17
7.71644e-20
2.80399e-17
1.08729e-17
6.70336e-18
3.06384e-17
4.41345e-18
2.56239e-18
2.39715e-18
3.05335e-18
1.10479e-17
-2.15875e-17
1.1792e-17
-5.84899e-18
1.25801e-17
-7.85323e-18
1.22995e-17
1.23606e-17
1.21805e-17
2.43404e-18
7.55085e-18
8.39884e-18
-3.32566e-18
1.11505e-17
-1.48221e-17
6.64319e-18
-1.12571e-17
-9.53829e-18
-4.75232e-18
-1.59768e-17
-8.63894e-19
-1.09397e-17
-5.58942e-19
2.46637e-19
6.13423e-18
1.93659e-18
1.15917e-17
4.88287e-18
2.19135e-17
-4.5436e-18
2.96946e-17
-3.46614e-18
1.89415e-17
6.08623e-18
3.39941e-18
1.05453e-17
-2.04886e-17
1.64223e-17
-3.28532e-17
1.27245e-18
-4.69218e-17
-4.68637e-19
-2.83523e-17
-1.51492e-17
-1.07571e-18
-2.27698e-17
1.73891e-17
-3.5523e-18
3.55097e-17
-5.04855e-18
2.75432e-17
2.16077e-17
2.81292e-17
8.09292e-18
1.29982e-17
6.19223e-18
1.80772e-18
-1.26543e-18
-3.58444e-18
-9.15039e-18
-4.34432e-18
-2.3237e-18
-7.49577e-18
-1.25663e-19
-1.82513e-17
7.68771e-18
-2.5505e-17
1.48599e-18
-2.94306e-17
5.27642e-18
-2.72607e-17
7.86648e-19
-2.00494e-17
-3.99392e-18
-1.01801e-17
-7.46709e-18
2.70186e-18
-1.09514e-17
1.42956e-17
-8.30462e-18
2.29308e-17
-3.23643e-18
2.45941e-17
3.73411e-18
1.23374e-17
1.78175e-17
-1.79537e-18
2.02448e-17
-1.15462e-17
5.82446e-18
-2.3962e-17
8.47641e-18
-6.94058e-18
-2.00136e-17
1.05014e-17
-2.37091e-17
2.10075e-17
-6.41161e-18
3.47949e-17
-1.06182e-17
2.14791e-17
1.54049e-17
8.88634e-18
1.8368e-17
-3.22887e-18
7.44349e-18
-1.51393e-17
1.00272e-17
-9.08988e-18
-9.60346e-18
-4.68348e-18
-9.13878e-18
4.17739e-18
-7.48057e-18
6.61987e-18
-1.26816e-18
1.00783e-18
8.83083e-18
-1.96792e-18
1.94398e-18
-7.51284e-18
2.87756e-18
-4.06017e-18
-5.64798e-18
-5.17781e-19
-5.67816e-18
4.68899e-18
-3.62046e-18
6.8672e-18
-1.08951e-19
3.48818e-18
5.88572e-18
1.37822e-18
3.30015e-18
-2.74995e-18
2.783e-18
-6.60018e-18
1.80401e-18
-6.76969e-18
-1.55449e-18
-4.69359e-18
-3.17734e-18
-1.3003e-18
-3.07023e-18
2.22958e-18
-2.45731e-18
5.43495e-18
-1.50109e-18
5.86352e-18
3.61913e-19
4.02334e-18
1.51492e-18
1.77388e-18
2.25828e-18
-5.13422e-20
1.69696e-18
-1.3519e-18
1.09424e-18
-2.25377e-18
2.89209e-19
-2.49987e-18
-8.47211e-19
-4.55122e-19
-2.79083e-18
2.49971e-18
-3.51677e-18
5.25021e-18
-2.73159e-18
6.76807e-18
-8.01517e-19
4.87019e-18
3.55629e-18
-8.73509e-21
6.4772e-18
-4.91959e-18
6.32298e-18
-8.84083e-18
2.65806e-18
-1.30099e-17
1.51041e-18
-8.63402e-18
-6.61312e-18
2.93554e-18
-1.39596e-17
1.00905e-17
-6.75928e-18
1.83512e-17
-4.86535e-18
1.14441e-17
9.63123e-18
-4.12931e-18
1.84352e-17
-1.17144e-17
6.92238e-18
-2.39786e-17
7.63774e-18
-2.27162e-17
-2.67505e-18
-3.68616e-18
-2.26922e-17
5.95287e-18
-1.11205e-17
2.10125e-17
-1.21223e-17
2.01807e-17
1.77613e-18
1.4006e-18
2.29565e-17
-7.10593e-18
1.01089e-17
-2.21229e-17
1.12864e-17
-2.84646e-17
3.93232e-18
-1.6658e-17
-1.60918e-17
-1.15616e-17
-6.39475e-18
-6.47602e-20
-7.59314e-18
8.33384e-18
-4.41296e-18
7.93144e-18
5.47087e-18
8.82281e-18
2.48833e-18
4.4019e-18
4.2787e-18
1.80423e-19
2.8893e-18
2.50158e-19
-1.00579e-19
6.59242e-18
-4.14962e-18
1.48673e-17
-5.72958e-18
2.14414e-17
-2.92503e-18
2.40564e-17
1.18294e-18
1.60798e-17
7.65758e-18
2.07622e-18
1.07778e-17
-5.50206e-18
1.13953e-18
-1.2647e-17
-1.308e-18
-6.56327e-18
-1.45117e-17
-1.81356e-18
-1.24225e-17
4.89681e-18
-5.33009e-18
6.96217e-18
1.39393e-18
-2.44166e-18
1.76659e-17
-1.23764e-18
5.82811e-18
-6.01278e-18
7.37129e-18
-1.39112e-18
-2.45539e-18
3.71678e-18
-7.07727e-18
8.34018e-18
-3.09154e-18
5.27795e-18
3.82425e-19
1.50245e-19
3.78341e-18
-3.15791e-18
-2.85268e-18
-4.48526e-18
-3.02823e-18
-2.06217e-18
-3.81026e-18
6.93368e-19
8.99529e-19
3.62814e-18
2.16696e-18
5.777e-18
2.44653e-18
5.63959e-18
1.24455e-18
-5.6263e-19
3.88943e-18
-7.38222e-18
3.74939e-18
-9.28699e-18
-1.52711e-18
-5.07708e-18
-7.8994e-18
3.31845e-18
-8.9947e-18
5.67639e-18
5.15973e-19
2.78362e-18
6.5094e-18
-9.49811e-18
1.39661e-17
-1.23701e-17
1.98944e-18
-1.60254e-17
-7.04921e-19
-4.8414e-18
-1.44152e-17
-4.18746e-18
-3.19528e-18
-7.12693e-19
-5.68703e-19
-8.41603e-18
1.16177e-17
-6.56059e-18
2.03376e-18
-6.55721e-18
-1.14386e-18
2.42835e-18
-1.0379e-17
3.29624e-18
1.66425e-18
7.02785e-18
2.28016e-18
6.64134e-18
7.28004e-18
1.24044e-17
-3.88417e-18
1.43757e-17
-8.71512e-19
1.79624e-17
-4.83044e-18
1.49666e-17
9.21832e-19
1.36073e-17
-1.97365e-18
9.07765e-18
4.50253e-19
5.44222e-19
3.0578e-18
-8.62161e-18
3.71859e-18
-1.36164e-17
3.00423e-19
-1.00215e-17
-4.08619e-18
-3.20461e-18
-3.62932e-18
-5.06518e-18
6.64569e-18
-9.59337e-18
1.04144e-17
-6.30208e-18
8.27906e-19
2.6549e-19
-5.7224e-18
1.0444e-17
-1.25845e-17
3.38841e-18
3.99911e-18
-8.3209e-18
8.10689e-18
-1.62477e-17
8.6349e-18
-1.40895e-17
-5.83069e-18
-1.04697e-18
-8.9462e-18
-4.08946e-18
3.95004e-18
-7.69708e-18
5.53623e-18
-7.5745e-18
1.04064e-18
3.81736e-18
-1.40845e-17
1.35216e-17
-1.10795e-17
6.71726e-18
4.60149e-18
3.06483e-18
2.2881e-18
4.18273e-18
2.7346e-18
9.35463e-18
-3.27773e-18
5.30517e-18
3.72082e-18
-2.51101e-18
5.9065e-18
-3.56861e-18
1.64264e-18
-8.12412e-19
-8.54352e-19
-1.9035e-18
1.37923e-18
-5.01922e-18
6.08635e-20
-1.19933e-18
-5.71555e-18
2.42879e-18
-1.25768e-18
6.67826e-19
6.0586e-18
-7.72135e-18
8.35803e-18
-6.26511e-18
-6.35765e-18
2.82998e-19
-6.70335e-18
-6.64086e-18
9.20527e-18
-1.79857e-17
1.06752e-17
-1.27539e-17
-8.31433e-18
2.40101e-18
-1.4644e-17
2.87101e-18
-3.65803e-19
-7.40924e-18
1.03569e-17
-6.18694e-18
-2.6745e-18
1.2586e-17
-1.8131e-17
1.70223e-17
-2.27746e-18
2.90932e-18
1.42484e-17
-4.71224e-18
5.11878e-18
1.00564e-17
-1.05461e-17
1.19716e-17
1.36262e-18
-7.28149e-18
1.49022e-17
-1.39608e-17
4.7759e-18
-1.31032e-18
-7.24706e-18
2.58931e-18
-2.46215e-18
-8.96374e-18
3.21372e-18
-1.25211e-17
3.493e-18
-1.55803e-18
-2.71616e-18
4.06726e-18
-7.33854e-18
-5.03406e-19
-2.35429e-18
-3.26283e-18
6.562e-18
9.62289e-19
2.8667e-19
6.09238e-18
-1.03544e-17
4.17417e-18
-2.06253e-19
-2.53649e-18
9.81849e-18
2.67395e-18
-5.91222e-18
1.52419e-17
-1.23497e-17
7.76689e-18
7.34253e-18
-5.54537e-18
9.06291e-18
1.22786e-17
-1.28641e-17
1.68668e-17
-2.12994e-18
-5.26594e-18
1.63668e-17
-3.63481e-19
-1.15141e-18
1.3387e-17
-8.23213e-18
-3.97129e-18
1.01425e-17
-1.24028e-17
8.78369e-18
6.50614e-18
-1.12758e-17
-4.3556e-18
4.43424e-18
-1.36281e-17
7.26351e-18
1.51847e-18
-1.06708e-17
1.66478e-18
-3.47027e-18
-5.77273e-18
4.80448e-18
5.13211e-18
-8.48692e-18
6.49982e-18
2.84952e-20
1.18746e-18
1.94312e-18
1.01766e-17
-7.27515e-18
4.51578e-18
6.20597e-18
6.2037e-18
-2.81622e-18
6.99716e-18
2.11929e-18
-4.30689e-18
9.53482e-18
1.13001e-17
-1.24822e-17
-1.01117e-17
1.72348e-17
2.27429e-18
-8.05693e-18
3.7001e-19
-2.53407e-19
-1.45339e-17
1.21733e-17
1.61246e-17
-2.25761e-17
-2.44678e-17
2.31673e-17
2.37688e-17
-2.37665e-17
-1.52961e-17
9.44134e-18
1.87834e-17
-3.00534e-18
-1.6732e-18
-9.93311e-18
1.0733e-17
1.58872e-17
7.48102e-18
-1.98165e-17
7.08206e-18
2.5544e-17
1.31023e-17
-2.11753e-17
1.38893e-17
1.96781e-17
2.48323e-17
-1.5838e-17
4.06135e-17
6.1948e-18
2.41188e-17
-6.0627e-19
-2.62406e-17
-8.075e-18
2.20437e-17
-2.4487e-17
-1.20394e-17
2.27847e-17
1.96047e-17
-2.36346e-17
-6.9576e-18
1.22183e-17
-2.05345e-18
-2.59406e-17
-1.60956e-17
4.60254e-18
9.60809e-18
-1.19793e-17
-2.22815e-17
-1.83319e-17
2.87902e-17
2.48906e-17
-3.48945e-17
-4.70952e-17
4.60173e-17
4.91573e-17
-4.13398e-17
-5.38719e-17
4.27997e-17
3.56133e-17
-3.04973e-17
-2.12361e-17
2.20237e-17
-5.04689e-18
-1.06359e-17
1.99397e-17
-3.48118e-18
-3.16212e-17
7.39236e-18
2.1871e-17
-1.31172e-17
-4.69425e-18
-4.78123e-18
-1.04616e-17
4.73792e-18
9.50313e-18
-5.11584e-18
-4.81437e-18
-1.07825e-17
-1.96099e-17
2.59726e-17
9.73499e-18
-2.39301e-17
7.4834e-18
-6.6508e-20
-2.77782e-17
4.16882e-17
2.67956e-17
-4.38783e-17
1.09766e-17
1.03008e-17
-3.77289e-17
3.92182e-17
3.7777e-17
-5.3186e-17
1.2924e-17
1.05229e-17
-4.79645e-17
3.67399e-17
3.47198e-17
-4.79005e-17
2.93383e-17
-6.949e-18
-4.64875e-17
4.10663e-17
1.67818e-17
-2.0306e-17
3.70586e-17
-1.5926e-17
-3.82681e-17
2.76378e-17
-2.15954e-17
1.20276e-17
2.89911e-17
-1.04076e-17
1.3923e-18
-9.07207e-18
-1.96622e-17
5.17723e-18
-7.40122e-18
1.74029e-17
1.45993e-17
-2.73143e-17
2.39164e-17
-1.95322e-17
-1.27802e-17
3.04792e-17
-3.99779e-17
1.4279e-17
1.71229e-17
-4.46853e-17
3.61383e-17
-9.38977e-18
-2.68871e-17
4.75664e-17
-4.10506e-17
1.00418e-17
2.80769e-17
-4.19302e-17
4.68217e-17
-3.96608e-18
-2.18163e-17
3.52769e-17
-4.19909e-17
1.52945e-17
2.11806e-17
-1.93879e-17
4.6362e-17
-2.70253e-17
-5.31e-18
1.00042e-17
-2.78968e-17
1.811e-17
-1.0554e-18
-3.77408e-18
1.70807e-17
-2.15789e-17
7.98132e-18
-1.69065e-17
1.0033e-17
7.65135e-18
1.34019e-17
1.62049e-17
-1.71393e-17
2.24397e-17
-3.14377e-17
-1.16812e-17
2.9574e-17
-3.18004e-17
5.90228e-17
7.86725e-18
-7.42374e-18
3.57436e-17
-6.24378e-17
2.18973e-18
-1.77814e-17
-3.17324e-17
4.08204e-17
-1.01468e-17
4.57082e-17
-3.57428e-18
-1.87099e-18
1.80066e-17
-2.42104e-17
8.15154e-18
-7.55861e-18
3.96284e-18
5.49243e-18
1.63984e-18
1.43821e-19
-2.78981e-18
1.07661e-17
-5.5429e-18
3.86362e-17
-9.29701e-18
3.46385e-17
-1.23111e-18
-1.66216e-17
1.57716e-17
-4.55059e-17
1.20139e-17
-3.86692e-17
-7.13576e-19
3.49908e-17
-2.75737e-17
7.47984e-17
-3.66839e-17
2.95641e-17
1.31842e-17
-3.96845e-17
5.36294e-17
-5.3757e-17
1.8735e-17
-7.59111e-18
-7.86297e-19
2.01369e-17
-2.40993e-17
1.2724e-17
-1.362e-17
-1.41437e-17
6.87831e-18
-4.79619e-18
-7.47467e-18
2.70231e-17
-2.65047e-18
4.10881e-17
-1.31539e-17
1.29423e-17
1.66575e-17
-4.27357e-17
3.71491e-17
-6.22474e-17
1.64145e-17
-2.3621e-17
-2.0208e-17
2.08555e-17
-3.95748e-17
4.62586e-17
-1.90572e-17
3.28679e-17
4.00316e-18
8.93165e-18
1.37553e-17
-8.71811e-18
3.40938e-18
-1.06809e-17
-9.64191e-19
3.56471e-18
5.16789e-18
9.61072e-18
1.33979e-17
5.73174e-18
5.91481e-18
-1.71456e-17
8.81884e-18
-4.18177e-17
9.57548e-18
-4.00968e-17
1.14246e-18
-1.80601e-17
-7.31634e-19
1.69162e-17
-1.43492e-17
3.39498e-17
-2.63535e-17
1.3075e-17
-5.42025e-18
-1.82092e-17
1.36771e-18
-3.35349e-17
1.54029e-17
-1.87101e-17
-3.95199e-18
2.30124e-17
-1.1084e-17
4.33204e-17
-1.77456e-17
4.16101e-17
4.76362e-18
8.61242e-18
1.14102e-17
-1.63608e-17
1.91242e-17
-3.22934e-17
8.07936e-18
-1.66098e-17
-3.32302e-18
1.54235e-18
-1.57181e-17
2.02289e-17
-1.02877e-17
2.89853e-17
2.39409e-18
2.62767e-17
9.3518e-18
1.4279e-17
2.45937e-18
-6.41087e-18
4.71304e-18
-2.42977e-17
6.94717e-18
-2.90351e-17
4.98405e-18
-2.0022e-17
-7.07659e-18
2.65248e-18
-1.77916e-17
2.13058e-17
-2.31969e-17
2.46564e-17
-6.81673e-18
1.03773e-17
2.03653e-17
-4.19117e-18
2.51138e-17
-8.81441e-18
2.10456e-17
-3.24946e-18
-4.29249e-18
-8.14425e-18
4.42615e-18
-8.73612e-18
-1.45574e-17
-1.32964e-17
-1.82095e-17
-1.71286e-17
2.79869e-19
-8.38025e-18
-1.37969e-17
1.3651e-17
-4.23581e-19
2.68751e-17
-5.13109e-18
3.06569e-17
2.41043e-18
2.44828e-17
4.90859e-18
3.48756e-18
1.18449e-17
-1.09734e-17
1.21372e-17
-1.8995e-17
7.89598e-18
-1.53819e-17
4.07461e-18
-1.1459e-17
-2.43694e-18
-8.45464e-18
2.2721e-18
-2.19905e-18
-5.46895e-18
1.05055e-18
-7.24351e-18
2.79576e-18
-9.2123e-18
6.57884e-19
-8.81349e-18
-7.7393e-18
9.25713e-20
-1.51757e-17
4.19997e-18
-1.32837e-17
1.84214e-18
-1.29356e-18
5.82735e-18
9.2413e-18
9.7099e-18
1.34896e-17
1.57618e-18
1.88912e-17
3.07481e-18
1.52553e-17
-1.63777e-17
5.39679e-19
-8.99346e-18
-7.81366e-18
1.94173e-18
-9.59377e-18
-8.83811e-18
-3.45718e-18
9.26835e-18
6.93829e-18
7.97253e-18
1.13895e-17
2.99232e-18
1.29911e-17
8.42554e-18
7.19845e-18
-3.81079e-18
-3.95094e-18
2.01062e-18
-9.62434e-18
-1.80718e-18
-9.28433e-18
-1.60816e-18
-1.72138e-18
1.26788e-18
4.99494e-18
-4.77234e-18
7.24717e-18
6.25326e-19
4.30809e-18
-2.70889e-18
-2.67552e-18
1.30544e-18
-7.35967e-18
1.06369e-18
-7.87256e-18
4.03939e-19
-3.85394e-18
1.8671e-18
1.93576e-18
-2.48955e-18
5.42568e-18
-7.06923e-19
5.56647e-18
1.66322e-18
3.38253e-18
6.29447e-19
-2.20403e-19
4.25592e-19
-2.82846e-18
-4.62163e-19
-3.5705e-18
-1.71528e-18
-3.18056e-18
-1.89102e-18
-1.9838e-18
-8.34851e-19
-5.99038e-19
1.30158e-19
7.702e-19
8.89038e-19
1.86282e-18
6.04333e-19
3.05685e-18
-9.97842e-20
4.10097e-18
-7.54914e-19
4.36669e-18
-1.11293e-18
3.14903e-18
-1.57318e-18
8.14678e-19
-1.18241e-18
-2.49153e-18
5.74622e-19
-5.14574e-18
1.8527e-18
-5.82541e-18
4.23596e-18
-4.48657e-18
5.13836e-18
6.24604e-20
1.77394e-18
5.57886e-18
-2.85835e-18
8.79666e-18
-1.70738e-18
7.79606e-18
-5.61252e-18
1.50789e-18
-7.6714e-18
-7.21774e-18
1.96635e-18
-1.20774e-17
-5.71749e-21
-1.08223e-17
8.37616e-18
-4.5623e-18
1.21752e-17
5.16033e-18
-2.80025e-18
1.01701e-17
2.62796e-18
1.03889e-17
-2.89388e-18
4.05619e-18
-1.63595e-17
-7.14739e-18
8.30469e-20
-1.31849e-17
-6.08484e-18
-1.22531e-17
8.44363e-19
-5.14327e-18
1.58466e-17
4.27223e-18
6.93408e-19
7.54672e-18
8.01191e-18
8.59584e-18
2.8832e-18
9.04074e-19
-8.40008e-18
-9.10263e-18
3.61195e-18
-1.46421e-17
-2.05366e-18
-1.52486e-17
-3.80649e-18
-7.16321e-18
-2.61449e-18
1.7129e-19
-4.84617e-18
5.48938e-18
-1.03939e-18
8.99442e-18
-6.15738e-19
1.057e-17
-1.67615e-18
9.72328e-18
-3.30291e-18
6.91503e-18
-2.92132e-18
3.22833e-18
7.61657e-19
2.58096e-18
1.83031e-18
3.74114e-18
6.49741e-18
8.31978e-18
6.19913e-18
1.43233e-17
-4.864e-18
1.4519e-17
-1.50374e-18
3.02679e-18
-3.01942e-18
-1.09777e-17
1.58203e-18
-1.86749e-17
2.36706e-18
-1.91134e-17
1.83238e-18
-8.95085e-18
7.50342e-18
3.25777e-18
-6.38052e-18
1.05048e-17
1.24266e-19
1.39864e-17
-5.93704e-18
5.92395e-18
9.85212e-19
2.2288e-18
6.03615e-19
-1.15081e-18
3.76204e-18
2.31813e-18
3.1448e-19
2.18193e-18
-2.71649e-18
-2.79786e-18
1.95156e-18
-8.57614e-18
1.96801e-18
-9.39214e-18
1.71552e-18
-3.70723e-18
-3.51795e-18
3.64689e-18
-4.9076e-18
7.19026e-18
-2.29881e-18
7.52036e-18
3.55933e-18
6.14148e-18
5.12828e-18
2.90803e-18
1.70634e-18
-2.19478e-18
-2.79659e-18
-7.16487e-18
-4.02461e-18
-1.09598e-17
4.31095e-18
-6.50164e-18
2.0512e-18
1.96843e-18
5.49605e-18
9.07097e-18
-5.11309e-18
6.87501e-18
1.49104e-18
-3.49942e-18
-4.04075e-18
-1.5877e-17
9.18231e-18
-1.88939e-17
2.44817e-18
-7.48461e-18
2.08438e-19
6.11179e-18
-1.15626e-17
1.01253e-17
-5.15737e-18
8.87201e-19
-1.14095e-18
-1.18247e-17
1.43761e-17
-1.30892e-17
3.54473e-18
1.03867e-18
-6.84785e-18
1.37966e-17
-1.66421e-17
1.9749e-17
-6.82391e-18
1.38628e-17
1.05583e-18
7.90196e-18
6.88263e-18
1.11004e-18
4.81828e-18
-1.91234e-18
3.47263e-18
-1.62211e-18
2.76757e-18
-1.01379e-18
3.11027e-18
-2.36587e-18
1.65251e-18
-8.42784e-18
1.97578e-18
-1.47281e-17
2.67094e-18
-1.29334e-17
4.85099e-18
2.08321e-19
-2.72733e-18
1.47609e-17
-1.37246e-17
1.64593e-17
-7.42082e-18
3.40508e-18
4.69729e-19
-8.39025e-18
1.57944e-17
-1.06647e-17
1.03813e-17
-1.27169e-18
-7.58105e-19
-2.06753e-18
-5.03486e-18
-3.31937e-18
-7.69436e-18
-6.68156e-18
7.31223e-18
1.22458e-18
-2.36991e-18
1.15786e-17
-9.31336e-18
7.32396e-18
-9.82989e-18
-3.10461e-18
-6.50918e-19
-1.05816e-17
1.20784e-17
-7.89799e-18
-3.95472e-19
1.11459e-18
-6.27798e-18
5.42174e-18
-7.58488e-18
6.35938e-18
2.78318e-18
3.12406e-18
9.14182e-18
-1.91243e-18
6.67913e-18
-5.12531e-18
2.35852e-18
-1.15757e-18
-2.58851e-18
6.14166e-18
-7.23837e-18
4.43985e-18
-4.01374e-18
-5.77499e-18
8.95716e-18
-9.14808e-18
9.4317e-18
-5.35797e-19
-2.54256e-19
4.02731e-18
-1.09208e-17
-2.36809e-18
-3.07949e-19
-7.74866e-18
1.45858e-17
3.04068e-19
2.62244e-18
7.31547e-18
-1.53257e-17
-1.08326e-18
-6.24528e-18
-9.69469e-18
8.24563e-18
-2.63822e-18
3.30038e-18
7.29226e-18
-1.2605e-17
8.96311e-19
-1.1735e-17
-9.29037e-18
7.90923e-18
-2.2486e-18
7.20667e-18
5.23329e-18
-2.36311e-18
6.93242e-19
-6.00605e-18
-4.7832e-18
6.83907e-18
7.95223e-19
9.32375e-18
4.85788e-18
7.13244e-19
-2.32683e-19
-2.1565e-18
-1.55906e-18
-1.13577e-18
1.56555e-18
8.91081e-20
9.65475e-19
4.09307e-18
-1.55526e-18
-1.95426e-19
4.76115e-19
-9.36992e-18
8.50803e-19
-2.72897e-18
-2.44636e-18
9.85916e-18
-1.0154e-20
-2.14954e-18
3.19438e-18
-1.35589e-17
-2.08624e-19
3.19675e-18
8.41683e-19
8.76819e-18
5.80604e-18
-1.08766e-17
-6.99304e-19
-5.84434e-18
-4.16697e-18
1.08102e-17
7.4791e-18
-2.58316e-18
2.69625e-18
-8.08126e-18
-6.61677e-18
7.18307e-18
6.37835e-18
3.37172e-18
8.43466e-18
-3.20772e-18
-5.60486e-18
5.80738e-18
8.7842e-19
3.65919e-18
1.07654e-17
-1.1033e-18
-4.7e-18
4.18956e-18
2.10032e-18
-2.36608e-18
1.03299e-17
-9.66112e-19
-2.50259e-18
2.16177e-18
5.65396e-19
-6.53826e-18
4.21445e-18
1.15543e-18
-6.07524e-18
1.80278e-18
1.55971e-18
-7.60645e-18
3.5019e-19
3.15264e-18
-5.3289e-18
-1.59606e-18
3.33207e-18
-2.455e-18
-2.39815e-18
2.91401e-18
-9.21183e-19
6.4232e-19
6.37396e-18
2.23968e-18
-5.24881e-18
-8.5943e-19
6.81039e-18
5.1756e-18
3.70652e-18
-4.95306e-18
-1.37592e-18
4.82903e-18
9.12139e-18
1.67597e-18
-6.14183e-18
-7.31286e-18
7.4126e-18
9.61284e-18
2.36247e-18
-1.87164e-17
-5.93418e-18
1.7738e-17
1.19111e-17
-2.08506e-17
-1.39149e-17
1.58929e-17
1.84846e-17
-1.65123e-17
-1.47366e-17
1.34046e-17
2.02504e-17
-9.44305e-18
-1.30522e-17
1.21274e-17
1.41178e-17
-7.4919e-18
-7.83299e-18
6.11279e-18
-3.61251e-20
-1.60206e-18
2.48727e-17
-3.37277e-17
5.00301e-18
3.87338e-17
-5.04177e-17
1.34086e-17
1.32857e-17
2.68305e-17
6.1829e-18
-1.79545e-18
2.16683e-17
1.11814e-17
-1.50303e-17
-2.02257e-17
1.53116e-17
9.11746e-18
-1.97351e-17
-2.65097e-17
1.33457e-17
1.28217e-17
-1.05412e-17
-2.20702e-17
-2.51858e-21
9.15323e-18
1.47938e-17
-3.28837e-18
-2.88982e-17
3.41894e-18
3.60924e-17
9.23242e-18
-3.63108e-17
9.44282e-18
2.18133e-17
2.19681e-19
-1.41278e-18
1.94766e-17
-2.27381e-17
-7.58829e-18
3.44572e-17
9.55587e-18
-3.02614e-17
-3.82503e-18
8.59967e-18
-1.22361e-17
1.3149e-17
6.44948e-18
-2.38014e-17
-2.04046e-17
1.60716e-17
8.0473e-18
-2.4793e-18
-1.07374e-17
-5.14539e-18
-1.80232e-17
7.21923e-18
2.75902e-17
-3.92522e-18
-2.36441e-17
7.35597e-18
-2.6183e-18
-1.07249e-17
3.58657e-17
7.34206e-19
-3.40198e-17
1.66995e-17
3.06507e-18
-2.6562e-17
3.98826e-17
-7.75989e-20
-4.18998e-17
3.38819e-17
-1.55857e-17
-3.32632e-17
3.57323e-17
-1.02517e-17
-3.24263e-17
4.78527e-17
-2.56425e-17
-2.27098e-17
3.18158e-17
-2.98205e-17
-4.72286e-18
4.85662e-17
-1.76217e-17
2.49127e-18
1.94101e-17
-4.61038e-17
5.57762e-18
1.90097e-17
-5.5989e-18
2.85794e-17
4.17561e-18
-3.70888e-17
-4.18521e-18
-1.11714e-17
-1.39163e-18
2.76856e-17
1.84273e-17
-5.53992e-18
-7.85214e-18
-1.84058e-17
-3.10198e-17
1.37779e-17
9.48709e-18
7.05951e-18
3.01876e-17
-1.06587e-17
-1.90605e-17
7.31778e-18
-2.67411e-17
3.71456e-18
2.75229e-17
-1.89871e-17
3.48349e-17
7.98252e-18
-4.75604e-18
2.0203e-17
-1.21926e-17
-1.95887e-17
2.35583e-17
-2.57467e-17
1.40648e-17
2.76036e-17
-1.5462e-17
2.57527e-17
-2.7551e-18
-3.42857e-17
1.09577e-17
-3.06192e-17
-1.44272e-17
3.30362e-17
-2.54764e-17
2.7254e-17
2.09526e-17
-2.39893e-17
3.66128e-17
-2.73413e-17
-1.44849e-17
1.92972e-17
-4.41817e-17
3.7564e-17
5.31664e-18
-1.37548e-17
5.34922e-17
-4.59859e-17
2.04159e-17
1.34391e-18
-3.46974e-17
4.49666e-17
-4.30628e-17
4.79108e-18
2.21437e-18
-2.72706e-17
2.79541e-17
-1.75882e-17
1.61819e-17
1.5735e-17
2.59635e-18
1.52254e-17
1.27107e-18
-1.46453e-18
-3.36003e-18
-9.11788e-19
-9.50612e-18
-3.15093e-18
5.97124e-18
-1.67085e-17
3.5316e-17
-1.35731e-17
2.84719e-17
1.88579e-17
-7.17612e-18
3.49345e-17
-3.99185e-17
5.16868e-18
-4.0943e-17
-3.56595e-17
-7.79908e-18
-1.99597e-17
1.9838e-17
2.59923e-17
9.1142e-18
2.94588e-17
1.17521e-17
-3.42423e-18
1.75417e-17
-2.98889e-17
1.95843e-17
-1.56626e-17
-4.61009e-18
3.10727e-17
-3.84238e-17
2.63391e-17
-3.42736e-17
-6.80076e-18
-9.26338e-18
-3.81641e-17
2.42196e-17
-1.68255e-17
4.08225e-17
2.05461e-17
3.49534e-17
2.22836e-17
1.44648e-17
2.80598e-19
-1.06569e-17
-1.44531e-17
-2.22752e-17
-7.4389e-18
-2.03924e-17
2.12036e-18
-7.61984e-18
9.82711e-19
-4.41182e-18
2.01355e-19
-1.46609e-17
9.28489e-18
-2.34707e-17
1.39777e-17
-1.31206e-17
3.04785e-18
1.64283e-17
-2.36341e-17
4.78151e-17
-2.25679e-17
5.42549e-17
3.13564e-18
2.12625e-17
3.41349e-17
-8.48387e-18
2.90147e-17
-1.00192e-17
-1.28139e-17
6.48481e-19
-3.70212e-17
2.03344e-17
-2.51061e-17
8.52162e-18
1.31804e-17
-6.96984e-18
3.08944e-17
-2.85113e-17
1.75894e-17
-2.402e-17
-1.55753e-17
-1.22459e-17
-2.95197e-17
5.08352e-18
-1.25658e-17
2.8802e-18
1.36135e-17
1.34775e-18
2.06567e-17
1.88911e-18
7.538e-18
7.5721e-18
-9.00601e-18
3.17005e-18
-1.13161e-17
-8.36898e-18
1.25135e-18
-1.52244e-17
9.24951e-18
-7.15907e-18
1.28648e-18
7.23481e-18
-1.19345e-17
2.17394e-17
-9.79153e-18
2.29981e-17
5.68845e-18
1.23127e-17
1.56694e-17
-2.96289e-18
8.19905e-18
-1.28403e-17
-7.91419e-18
-2.12725e-17
-1.47647e-17
-2.78712e-17
-2.18021e-19
-2.46106e-17
1.71046e-17
-1.68051e-17
1.73082e-17
3.7649e-18
4.75612e-19
2.36967e-17
-2.42243e-17
4.55199e-17
-1.7397e-17
4.066e-17
-9.69746e-18
8.99425e-18
1.34562e-17
-1.65995e-17
2.58737e-17
-4.18623e-17
1.14659e-17
-3.87293e-17
-3.55666e-18
-1.79711e-17
-2.58893e-17
1.70161e-18
-1.72622e-17
8.42972e-18
-1.81951e-18
2.04389e-18
1.82307e-17
-3.59289e-18
1.7774e-17
-1.63424e-18
5.93733e-18
9.74192e-18
-7.30155e-18
2.15283e-17
-1.42233e-17
3.02379e-17
-6.4375e-18
2.58139e-17
-1.04499e-18
1.76691e-17
9.01341e-19
9.3998e-18
-9.43024e-19
1.70674e-19
4.15641e-19
-8.20501e-18
8.46826e-18
-1.69609e-17
1.29559e-17
-2.65105e-17
1.13917e-17
-2.71133e-17
6.43011e-18
-8.10723e-18
-9.29617e-18
1.05514e-17
-1.70824e-17
2.65547e-17
-1.29285e-17
2.02273e-17
-1.00504e-17
6.51875e-19
1.0582e-17
-1.63589e-17
1.89525e-17
-3.36624e-17
8.46542e-18
-2.73049e-17
2.91089e-18
-5.60217e-18
-1.37302e-17
1.33388e-17
-1.59487e-17
2.64979e-17
-4.73357e-18
1.81694e-17
4.51775e-18
1.82664e-18
1.83534e-17
-1.31849e-17
1.32043e-17
-1.73248e-17
2.53174e-18
-6.76913e-18
-9.28777e-18
4.4888e-18
-1.60303e-17
1.32247e-17
-8.11056e-18
9.6166e-18
8.99199e-19
-2.49774e-19
1.11718e-17
-9.68632e-18
1.05002e-17
-1.34367e-17
4.15431e-18
-8.23722e-18
-3.33238e-18
-8.54401e-19
-9.87236e-18
5.99007e-18
-7.5514e-18
9.48467e-18
-1.83137e-18
7.41508e-18
2.69904e-18
2.6727e-18
5.16797e-18
-1.81496e-18
4.0255e-18
-4.45248e-18
9.22245e-19
-5.06906e-18
-1.27445e-18
-4.08228e-18
-1.82163e-18
-2.50565e-18
-1.44647e-18
-4.9954e-19
-1.11707e-18
1.62302e-18
-1.51823e-18
3.62641e-18
-2.10317e-18
5.12942e-18
-2.25793e-18
5.63315e-18
-1.61665e-18
4.26424e-18
-2.04275e-19
8.60368e-19
2.22146e-18
-3.35492e-18
4.78991e-18
-7.31888e-18
5.81667e-18
-8.46388e-18
5.38095e-18
-5.53396e-18
2.20845e-18
8.69839e-19
-4.62986e-18
7.4684e-18
-9.45691e-18
1.41781e-17
-8.41705e-18
1.40146e-17
-5.44908e-18
3.41608e-18
2.92715e-18
-8.28634e-18
1.36688e-17
-2.06294e-17
1.23374e-17
-2.18031e-17
9.54979e-18
-9.07002e-18
-5.57796e-19
5.62929e-18
-1.74996e-17
2.1926e-17
-1.36687e-17
2.8479e-17
-9.44694e-18
1.35216e-17
-1.40205e-18
-4.47663e-18
1.80813e-17
-2.33021e-17
1.27406e-17
-3.02745e-17
7.81675e-18
-1.36801e-17
-7.47725e-19
5.52671e-18
-1.85134e-17
2.47814e-17
-1.12428e-17
3.1439e-17
-3.77439e-18
1.78128e-17
5.22604e-18
3.68191e-18
1.77429e-17
-8.36764e-18
9.9959e-18
-1.22757e-17
1.01565e-19
-6.62726e-18
-8.26294e-18
1.02457e-18
-1.2498e-17
6.72948e-18
-6.7443e-18
7.14455e-18
-1.03081e-18
4.16414e-18
1.30426e-18
-8.04624e-19
1.66586e-18
-7.4208e-18
3.69485e-18
-1.45069e-17
7.84773e-18
-2.09501e-17
8.27351e-18
-1.9301e-17
4.84831e-18
-6.58425e-18
-6.5176e-18
5.47265e-18
-1.69209e-17
1.78922e-17
-1.39232e-17
1.9241e-17
-4.3683e-18
7.00923e-18
1.38138e-17
-6.77323e-18
1.61495e-17
-1.44179e-17
9.47703e-18
-4.54574e-18
-2.36872e-18
6.91678e-18
-1.7843e-17
1.70074e-17
-9.9664e-18
1.04581e-17
6.12261e-19
-4.66233e-18
1.61057e-17
-1.7084e-17
1.30253e-17
-1.43211e-17
9.99193e-19
-3.07276e-19
-1.36994e-17
1.21881e-17
-1.52118e-17
1.66911e-17
-2.55152e-18
7.84435e-18
1.08148e-17
-3.11419e-18
1.26741e-17
-1.09393e-17
4.30712e-18
-1.17257e-17
-4.12117e-18
-7.73191e-18
-6.29258e-18
-9.39268e-19
-3.23331e-18
6.5793e-18
-2.39029e-18
1.25812e-17
-4.2956e-18
1.29965e-17
-3.21184e-18
3.24525e-18
5.72663e-18
-7.6548e-18
1.5211e-17
-1.70199e-17
1.14163e-17
-9.29744e-18
-2.22642e-18
5.34255e-18
-1.97531e-17
2.15864e-17
-1.47529e-17
1.76895e-17
-1.43802e-19
4.86757e-18
2.20042e-17
-8.78817e-18
1.61039e-17
-7.3709e-18
-1.20884e-18
3.51193e-18
-2.24455e-17
1.33162e-17
-1.49617e-17
7.02415e-18
5.15113e-18
-1.61148e-18
2.30117e-17
-1.01748e-17
1.21081e-17
-8.09422e-18
-8.92846e-18
-5.7444e-18
-1.8992e-17
-4.95476e-18
-7.61355e-18
-1.15802e-17
7.68125e-18
-1.66493e-17
1.19517e-17
-1.56927e-17
3.86165e-18
-9.20657e-18
-3.01345e-18
-1.88771e-18
-4.55129e-18
5.58488e-18
-4.36232e-18
1.20606e-17
-4.82322e-18
1.5104e-17
-1.06763e-18
8.84524e-18
8.92971e-18
-1.00989e-18
1.47061e-17
-6.95922e-18
3.22201e-18
-6.17442e-18
-1.45094e-17
2.75219e-20
-1.36228e-17
-4.18289e-18
4.68014e-18
-8.87602e-18
2.04876e-17
-8.39657e-18
9.90188e-18
6.87925e-18
-1.60339e-17
2.04735e-17
-1.86291e-17
1.32993e-17
-5.20192e-19
-2.78183e-18
2.33934e-17
-1.53415e-17
1.01898e-17
-7.13202e-18
-1.75228e-17
5.519e-18
-2.24809e-17
5.27295e-18
-4.04866e-19
-1.48998e-18
1.88414e-17
-1.01689e-17
8.28341e-18
-7.14143e-18
-9.30541e-18
-2.68455e-18
-1.20418e-17
-1.34997e-18
1.44861e-18
-1.03749e-18
8.82934e-18
1.44179e-18
4.19985e-18
4.45099e-18
-6.50671e-19
4.19674e-18
-2.33426e-18
1.04353e-18
-4.08516e-18
-2.53051e-18
-4.39696e-19
-4.23578e-18
1.06624e-17
-5.53113e-18
1.0727e-17
-1.89299e-19
-5.59609e-18
4.74703e-18
-1.58571e-17
4.0735e-18
3.65578e-19
-9.31581e-19
1.95909e-17
-1.39748e-18
3.08834e-18
5.04416e-18
-2.17674e-17
1.08283e-17
-1.20294e-17
2.10955e-18
1.69644e-17
-8.28953e-18
1.36995e-17
-5.39444e-18
-1.55001e-17
4.49254e-19
-1.75787e-17
-2.85118e-18
1.12097e-17
-1.15013e-17
1.58568e-17
-8.00177e-18
-5.8626e-18
7.30509e-19
-1.47383e-17
2.39749e-18
5.17209e-18
-1.50859e-18
1.32298e-17
4.39739e-19
-1.23509e-18
6.52216e-18
-8.23893e-18
6.39948e-18
-1.01308e-18
1.29158e-18
5.19701e-18
9.05558e-19
4.47909e-18
3.79277e-18
-3.08264e-18
2.50471e-18
-8.08186e-18
-1.22043e-18
9.96172e-19
-1.44358e-18
1.00823e-17
3.66144e-19
-3.95926e-18
1.9449e-18
-1.51377e-17
2.0784e-19
4.93381e-18
-3.88021e-18
1.28562e-17
-2.04054e-18
-1.27162e-17
3.79116e-18
-1.1676e-17
-2.21233e-18
1.68137e-17
-9.47723e-18
4.68175e-18
6.31369e-19
-1.81899e-17
1.77607e-18
6.03838e-18
-1.07163e-17
1.58641e-17
-2.18522e-18
-1.17388e-17
8.80546e-18
-5.1833e-18
-2.96214e-18
1.54268e-17
8.91143e-19
-4.95658e-18
1.38573e-17
-8.77659e-18
3.70269e-18
7.78853e-18
2.80633e-18
-6.97516e-20
1.03735e-17
-5.40541e-18
8.44287e-19
2.99097e-18
-7.53094e-19
2.75281e-18
1.62495e-18
-5.75272e-19
-3.56833e-18