/*--------------------------------*- C++ -*----------------------------------*\
| =========                 |                                                 |
| \\      /  F ield         | OpenFOAM: The Open Source CFD Toolbox           |
|  \\    /   O peration     | Version:  2106                                  |
|   \\  /    A nd           | Website:  www.openfoam.com                      |
|    \\/     M anipulation  |                                                 |
\*---------------------------------------------------------------------------*/
FoamFile
{
    version     2.0;
    format      ascii;
    arch        "LSB;label=32;scalar=64";
    class       surfaceScalarField;
    location    "0.001";
    object      phi;
}
// * * * * * * * * * * * * * * * * * * * * * * * * * * * * * * * * * * * * * //

dimensions      [0 3 -1 0 0 0 0];

oriented        oriented;

internalField   nonuniform List<scalar> 
319200
(
1.20864e-06
-1.68249e-06
0.000399476
-0.000403685
6.79441e-06
0.0003924
6.12725e-05
-5.43196e-05
4.13771e-06
5.75359e-05
4.43826e-06
3.53039e-07
-1.63064e-06
6.32496e-06
-2.59038e-06
1.3829e-06
-2.79202e-06
3.4949e-07
-3.01736e-06
4.93732e-07
-2.74404e-06
-2.63617e-07
-2.5798e-06
1.87152e-08
-2.10675e-06
-3.18682e-07
-2.02541e-06
-2.4707e-07
-1.59294e-06
-1.70927e-07
-1.27489e-06
-3.62233e-07
-1.18707e-06
-1.53407e-07
-9.70966e-07
5.41705e-08
-8.84534e-07
-3.1968e-07
-1.06074e-06
2.6962e-07
-1.05642e-06
2.45347e-07
-1.12048e-06
-1.12801e-07
-1.19985e-06
1.76066e-07
-1.16261e-06
1.38457e-07
-9.96879e-07
-9.04574e-08
-6.42565e-07
-3.6833e-07
-5.75007e-07
-4.76439e-08
-3.70979e-07
1.0204e-07
-1.62862e-07
-5.46548e-07
-6.40368e-08
-9.48985e-08
-7.4303e-09
4.71002e-07
-7.71509e-08
-1.76598e-07
-2.11164e-07
-3.22562e-08
-1.54065e-07
2.07203e-07
-1.39569e-07
8.05006e-09
-1.45316e-07
7.8126e-08
4.03565e-08
-2.32825e-07
3.09658e-07
-4.80898e-07
3.71101e-07
3.53673e-08
4.44292e-07
1.17719e-07
6.66601e-07
-2.48241e-07
7.70211e-07
-3.23695e-07
7.92133e-07
-1.79606e-07
6.18643e-07
2.4037e-07
4.92209e-07
4.36553e-07
5.52413e-07
-7.85861e-08
5.86584e-07
-4.33141e-07
7.24134e-07
-2.4357e-07
9.77158e-07
-9.60124e-08
1.11009e-06
-1.90014e-07
1.07649e-06
7.45525e-08
1.11978e-06
1.5169e-07
1.38926e-06
-3.96363e-07
1.38286e-06
-5.57893e-07
1.18043e-06
1.0537e-07
1.02543e-06
6.27783e-07
9.12595e-07
4.16738e-07
6.78133e-07
2.41788e-07
5.23666e-07
1.43247e-07
5.64893e-07
-1.90268e-07
7.29289e-07
-4.37958e-07
8.96747e-07
-2.47235e-07
1.03147e-06
3.26661e-08
1.0769e-06
1.77767e-07
9.62394e-07
3.39269e-07
8.46157e-07
4.95413e-07
7.35412e-07
2.06917e-07
7.56392e-07
-2.74034e-07
7.12324e-07
-2.83136e-07
6.05599e-07
6.01248e-09
6.07518e-07
-7.51613e-08
6.51937e-07
-3.72254e-07
7.4339e-07
-4.21593e-07
7.58247e-07
1.02314e-08
8.134e-07
2.17942e-07
1.03624e-06
-1.09702e-08
1.19125e-06
-1.48756e-07
1.26249e-06
-5.03851e-08
1.21207e-06
1.94864e-07
1.14434e-06
1.74649e-07
1.03186e-06
8.284e-08
8.15226e-07
2.22848e-07
6.97752e-07
2.84661e-07
6.74914e-07
9.36242e-08
8.17486e-07
-2.72299e-07
1.02493e-06
-3.90422e-07
1.14309e-06
-1.74116e-07
1.31818e-06
-1.85081e-08
1.47551e-06
-6.37736e-08
1.65664e-06
-2.53123e-07
1.66713e-06
-2.41026e-07
1.51496e-06
8.84182e-08
1.32695e-06
2.85337e-07
1.13647e-06
2.56964e-07
1.02725e-06
5.30727e-08
9.41853e-07
-9.40636e-09
8.36202e-07
1.44946e-07
8.2508e-07
1.65797e-07
8.7219e-07
2.55371e-09
9.96344e-07
-2.16748e-07
1.07603e-06
-2.25906e-07
1.03679e-06
1.23864e-09
9.62725e-07
2.06758e-07
8.78091e-07
2.69718e-07
9.11937e-07
-4.3514e-09
9.76584e-07
-1.54428e-07
1.01096e-06
-1.28723e-07
9.85346e-07
4.46456e-08
8.27099e-07
2.16192e-07
7.19679e-07
1.51873e-07
6.2174e-07
1.12423e-08
5.42761e-07
-1.18909e-07
5.3434e-07
-9.85882e-08
5.71995e-07
4.57933e-08
7.28995e-07
6.96414e-08
9.43019e-07
-3.77971e-08
1.21573e-06
-2.75617e-07
1.51133e-06
-4.49112e-07
1.65784e-06
-3.26978e-07
1.77683e-06
-1.77197e-07
1.76748e-06
4.85599e-08
1.7628e-06
1.00036e-07
1.83624e-06
-4.54272e-08
1.92792e-06
-1.77458e-07
2.15095e-06
-3.92545e-07
2.37756e-06
-3.66692e-07
2.59188e-06
-2.06527e-07
2.81859e-06
-7.08944e-08
2.95414e-06
4.39138e-08
3.16389e-06
-7.15375e-08
3.33559e-06
-1.78324e-07
3.4661e-06
-2.71884e-07
3.52434e-06
-2.49286e-07
3.46931e-06
-3.58198e-08
3.33292e-06
1.67174e-07
3.09771e-06
3.95662e-07
2.78045e-06
4.76151e-07
2.4295e-06
4.16858e-07
1.99303e-06
4.13566e-07
1.66714e-06
2.11677e-07
1.35272e-06
1.54819e-07
1.11708e-06
1.05615e-07
9.60205e-07
1.30822e-07
8.49673e-07
2.11294e-07
8.07596e-07
2.24677e-07
6.28322e-07
3.2775e-07
4.75667e-07
2.41396e-07
2.28193e-07
2.41627e-07
-4.13135e-08
1.72157e-07
-2.96136e-07
8.55356e-08
-5.35436e-07
5.01095e-08
-6.21807e-07
-3.06508e-08
-6.35501e-07
8.71586e-09
-5.8175e-07
4.5418e-08
-4.65981e-07
4.29706e-08
-3.98595e-07
1.124e-07
-2.6823e-07
4.31177e-08
-1.77677e-07
3.94703e-08
-9.91889e-08
-3.86221e-08
-4.54983e-08
-1.20223e-07
3.71374e-09
-1.74489e-07
6.30946e-09
-1.86295e-07
-4.15069e-08
-1.57398e-07
-1.54373e-07
-1.03872e-07
-2.64512e-07
-6.60248e-08
-4.07423e-07
3.88855e-08
-4.7382e-07
4.3775e-08
-5.42474e-07
7.86916e-08
-6.16913e-07
1.03946e-07
-6.67893e-07
9.03951e-08
-7.36116e-07
1.41082e-07
-8.23678e-07
1.87047e-07
-9.30277e-07
2.064e-07
-1.04691e-06
1.92676e-07
-1.15025e-06
1.51868e-07
-1.21942e-06
1.04721e-07
-1.24591e-06
5.80248e-08
-1.22292e-06
-3.3268e-09
-1.14149e-06
-8.16377e-08
-9.98701e-07
-1.56028e-07
-8.02178e-07
-2.1068e-07
-5.61833e-07
-2.46592e-07
-3.04364e-07
-2.70236e-07
-5.72355e-08
-2.74121e-07
1.49434e-07
-2.49351e-07
2.79339e-07
-1.74e-07
3.11172e-07
-6.6382e-08
2.32592e-07
5.60273e-08
4.36533e-08
1.65419e-07
-2.26008e-07
2.45496e-07
-5.39205e-07
2.91154e-07
-8.56832e-07
2.97969e-07
-1.1336e-06
2.65946e-07
-1.33468e-06
1.96376e-07
-1.43359e-06
9.54544e-08
-1.41268e-06
-2.35571e-08
-1.26497e-06
-1.48828e-07
-9.9507e-07
-2.6912e-07
-6.28656e-07
-3.69719e-07
-2.12783e-07
-4.28588e-07
1.93264e-07
-4.32132e-07
5.39223e-07
-3.80609e-07
7.88967e-07
-2.87717e-07
9.28254e-07
-1.70612e-07
9.51391e-07
-4.7357e-08
8.57554e-07
7.52231e-08
6.48274e-07
1.88938e-07
3.43162e-07
2.82465e-07
-2.16745e-08
3.44276e-07
-4.05732e-07
3.73477e-07
-7.51026e-07
3.37312e-07
-1.01103e-06
2.48119e-07
-1.15482e-06
1.30248e-07
-1.17698e-06
1.36853e-08
-1.09906e-06
-8.2009e-08
-9.54093e-07
-1.54711e-07
-7.73481e-07
-2.06624e-07
-5.8204e-07
-2.32408e-07
-3.95273e-07
-2.22313e-07
-2.40297e-07
-1.73524e-07
-1.52752e-07
-9.58671e-08
-1.54626e-07
-1.37246e-08
-2.39154e-07
5.3077e-08
-3.67653e-07
1.02477e-07
-5.08311e-07
1.31032e-07
-6.37996e-07
1.2303e-07
-7.37823e-07
8.37118e-08
-7.93746e-07
3.11046e-08
-7.99426e-07
-3.78397e-09
-7.60033e-07
-1.45075e-08
-6.85068e-07
-2.64464e-08
-6.22893e-07
-1.97417e-08
-5.59248e-07
-5.39794e-08
-5.1869e-07
-3.73514e-08
-5.68329e-07
6.64774e-08
-6.18117e-07
9.32699e-08
-7.17994e-07
1.27517e-07
-8.04624e-07
9.34337e-08
-8.26841e-07
1.4331e-08
-8.35997e-07
-1.73186e-08
-7.68868e-07
-1.06513e-07
-7.00875e-07
-1.43201e-07
-6.13314e-07
-1.7112e-07
-4.80995e-07
-1.89703e-07
-3.86449e-07
-1.24974e-07
-3.01169e-07
-8.625e-08
-3.08506e-07
1.68803e-08
-4.162e-07
1.42993e-07
-5.98175e-07
2.52375e-07
-9.08637e-07
3.88831e-07
-1.21091e-06
3.41409e-07
-1.50903e-06
2.9124e-07
-1.73773e-06
1.90949e-07
-1.86255e-06
7.02717e-08
-1.91163e-06
-7.68669e-09
-1.82089e-06
-1.43288e-07
-1.69336e-06
-1.34259e-07
-1.59266e-06
-5.4126e-08
-1.59079e-06
5.3881e-08
-1.70298e-06
1.34582e-07
-1.86935e-06
1.53274e-07
-2.11231e-06
2.20536e-07
-2.32218e-06
1.80348e-07
-2.54963e-06
1.73297e-07
-2.73532e-06
1.44453e-07
-2.81747e-06
1.02255e-07
-2.81357e-06
6.90817e-08
-2.6611e-06
-6.94142e-08
-2.44373e-06
-1.90965e-07
-2.18416e-06
-2.87208e-07
-1.92565e-06
-3.34709e-07
-1.75995e-06
-2.40959e-07
-1.59137e-06
-2.22417e-07
-1.45818e-06
-1.19471e-07
-1.33531e-06
-6.17967e-08
-1.19379e-06
-9.31854e-08
-1.07821e-06
-1.15089e-07
-9.17158e-07
-2.18751e-07
-8.05971e-07
-1.77622e-07
-7.19876e-07
-1.31584e-07
-5.9672e-07
-1.30834e-07
-4.13702e-07
-1.53575e-07
-5.47491e-08
-2.88211e-07
3.65266e-07
-4.10958e-07
7.67468e-07
-4.80013e-07
1.13104e-06
-4.40263e-07
1.3332e-06
-2.14277e-07
1.47632e-06
-8.40843e-08
1.5075e-06
2.72468e-08
1.4511e-06
4.9028e-08
1.38625e-06
1.55677e-08
1.24715e-06
1.07304e-07
1.17284e-06
5.17102e-08
1.09947e-06
8.2499e-08
1.04958e-06
4.64191e-08
1.05206e-06
-4.41032e-08
9.83696e-07
-2.23503e-08
9.87015e-07
-3.91624e-08
9.59333e-07
3.91034e-08
9.54701e-07
4.27748e-08
9.62847e-07
-1.8944e-09
9.45758e-07
-3.91925e-08
8.82088e-07
-3.09482e-08
6.84384e-07
1.26929e-07
5.06234e-07
1.82902e-07
2.94193e-07
2.21051e-07
1.49629e-07
1.15309e-07
6.21826e-08
3.44402e-08
5.19207e-08
2.66135e-08
1.53495e-07
-4.97986e-09
3.48551e-07
-1.96601e-07
6.63369e-07
-3.99725e-07
1.02869e-06
-4.33163e-07
1.26434e-06
-1.82051e-07
1.46465e-06
-8.78138e-08
1.46407e-06
-1.05044e-08
1.36899e-06
-9.19318e-09
1.15692e-06
1.08737e-07
8.07628e-07
3.63376e-07
5.16162e-07
3.83243e-07
2.47984e-07
2.70506e-07
7.37439e-08
1.48864e-07
-8.44302e-08
1.76121e-07
-1.20061e-07
1.32349e-07
-1.09438e-07
2.24158e-08
-8.73188e-08
-6.16216e-08
-1.24369e-07
5.5381e-08
-1.2368e-07
1.6279e-07
9.21435e-09
6.65895e-08
1.47236e-07
-1.29703e-07
3.01596e-07
-2.5404e-07
3.84186e-07
-9.62213e-08
4.19077e-07
-4.57663e-08
3.9088e-07
-1.21312e-07
2.63414e-07
-8.06443e-08
6.06904e-08
1.30983e-07
-1.42621e-07
1.92454e-07
-3.13222e-07
1.27342e-07
-4.02404e-07
1.4749e-07
-4.03325e-07
1.54768e-07
-4.14455e-07
8.32791e-08
-5.42793e-07
7.67364e-08
-8.33595e-07
2.73885e-07
-1.25948e-06
3.1944e-07
-1.5896e-06
1.65163e-07
-1.81734e-06
3.40162e-07
-1.93065e-06
4.30851e-07
-2.01577e-06
1.09994e-07
-1.7856e-06
-3.31662e-07
-1.48721e-06
-2.75927e-07
-1.32751e-06
-6.38374e-08
-1.11328e-06
-2.62653e-07
-8.43553e-07
-2.16957e-07
-6.99254e-07
4.98811e-08
-6.78019e-07
-3.68805e-08
-7.30316e-07
-8.30556e-08
-9.17059e-07
2.36086e-07
-1.22378e-06
4.05835e-07
-1.3945e-06
1.71953e-07
-1.35047e-06
4.62438e-08
-1.36421e-06
-6.0555e-08
-1.33451e-06
-6.13717e-08
-1.31941e-06
1.6545e-07
-1.28967e-06
-6.6617e-08
-9.79978e-07
-3.79563e-07
-8.28285e-07
-3.47059e-08
-9.24314e-07
-1.07033e-07
-8.78774e-07
-5.63764e-08
-8.92942e-07
1.72051e-07
-8.96759e-07
-1.8655e-07
-8.04147e-07
-1.48021e-07
-7.44953e-07
1.46934e-07
-5.7155e-07
-3.46447e-07
-3.82081e-07
-2.94129e-07
-4.06358e-07
1.33321e-07
-3.47738e-07
-1.73673e-07
-3.46834e-07
-2.61753e-08
-5.32765e-07
1.63754e-07
-6.21411e-07
1.2268e-07
-8.0907e-07
1.47184e-07
-8.66679e-07
-6.64931e-08
-7.63906e-07
1.25441e-07
-6.28752e-07
-1.54658e-07
-2.79946e-07
-3.74981e-07
-7.70604e-08
-3.83791e-08
2.27545e-07
-2.87754e-07
4.05558e-07
-1.38698e-07
5.44581e-07
1.29789e-07
4.34389e-07
-3.11845e-08
4.06035e-07
1.87147e-07
-3.96952e-08
6.23328e-07
-8.56657e-07
7.00942e-07
-2.40489e-06
1.86808e-06
-8.90764e-06
6.36831e-06
-9.70131e-06
9.93384e-07
-6.73284e-05
5.73509e-05
-1.37001e-05
-5.37238e-05
-0.000406741
0.000391824
-6.36791e-06
-0.0004031
-1.97526e-06
-0.000405388
0.000398601
-0.000405415
-0.000403647
-9.57347e-05
8.27405e-05
-6.90394e-05
-8.10216e-05
-2.08168e-05
9.31786e-06
-1.02521e-05
-1.02139e-05
-3.54361e-06
-3.82628e-07
-1.37185e-06
-7.87273e-07
-6.64194e-07
-3.55546e-07
-2.15508e-07
4.35096e-08
-2.01331e-07
-2.80131e-07
-2.45443e-07
6.05216e-08
-2.82624e-07
-2.82669e-07
-4.58097e-07
-7.24376e-08
-4.32793e-07
-1.95748e-07
-5.48174e-07
-2.43753e-07
-6.61545e-07
-4.75348e-08
-5.39628e-07
-6.58868e-08
-6.43722e-07
-2.18179e-07
-5.60043e-07
1.82237e-07
-4.30576e-07
1.18752e-07
-4.4312e-07
-1.07124e-07
-4.17209e-07
1.60896e-07
-3.81169e-07
1.00226e-07
-4.10425e-07
-5.7098e-08
-4.7404e-07
-3.01577e-07
-6.15039e-07
8.84663e-08
-5.49762e-07
4.20436e-08
-6.99201e-07
-3.95397e-07
-7.88075e-07
-1.61736e-08
-6.05655e-07
2.89372e-07
-6.29897e-07
-1.51186e-07
-5.85232e-07
-8.88705e-08
-3.62506e-07
-1.40183e-08
-2.73353e-07
-7.54968e-08
-1.65098e-07
-3.82291e-08
-1.09533e-07
-2.84741e-07
-7.87029e-08
-5.03924e-07
-7.96579e-08
3.05422e-08
-8.05532e-08
1.18978e-07
-1.34501e-07
-1.87096e-07
-1.88995e-07
-2.68346e-07
-2.62639e-07
-1.06822e-07
-2.60046e-07
2.40961e-07
-2.27644e-07
4.09307e-07
-2.31435e-07
-7.53911e-08
-3.31141e-07
-3.37671e-07
-3.8157e-07
-1.91688e-07
-3.65547e-07
-1.11329e-07
-4.5531e-07
-1.05253e-07
-5.39499e-07
1.5594e-07
-4.90802e-07
1.02974e-07
-4.74557e-07
-4.11413e-07
-5.24367e-07
-5.05529e-07
-5.41148e-07
1.2052e-07
-3.95231e-07
4.7993e-07
-2.44688e-07
2.72484e-07
-1.40933e-07
1.45112e-07
-6.16216e-08
6.5074e-08
-2.24609e-08
-2.28128e-07
-1.6461e-08
-4.39802e-07
-1.05765e-08
-2.47182e-07
-7.52021e-08
1.03041e-07
-1.44608e-07
2.44949e-07
-2.01031e-07
3.87954e-07
-1.5371e-07
4.5022e-07
-1.04338e-07
1.67286e-07
-1.36957e-07
-2.41102e-07
-1.92594e-07
-2.34353e-07
-1.64803e-07
-2.18752e-08
-9.36796e-08
-1.40553e-07
-2.7433e-08
-4.33369e-07
-6.4924e-08
-3.80133e-07
-6.5865e-08
1.06696e-08
-4.05614e-08
1.87952e-07
-6.61512e-09
-4.21252e-08
6.61256e-08
-2.09427e-07
8.81007e-08
-6.77994e-08
1.14302e-07
1.5905e-07
1.09724e-07
1.69729e-07
1.1835e-07
7.39011e-08
1.70782e-07
1.73552e-07
2.7005e-07
1.88243e-07
2.91452e-07
7.45236e-08
1.94506e-07
-1.79101e-07
5.71937e-08
-2.62777e-07
-5.28575e-08
-6.62569e-08
-1.0418e-07
4.43772e-08
-7.99268e-08
-7.63993e-08
-4.89144e-08
-2.84862e-07
-2.55707e-08
-2.71369e-07
3.14458e-08
2.79074e-08
4.04628e-08
2.75438e-07
1.01827e-07
1.95373e-07
1.58915e-07
-3.00038e-11
2.38996e-07
-8.37569e-08
3.15985e-07
6.47287e-08
3.82689e-07
8.52243e-08
3.55687e-07
1.82441e-08
2.58852e-07
-1.18615e-07
1.50949e-07
-1.08859e-07
9.93417e-08
6.18384e-08
7.69741e-08
2.37369e-07
1.05989e-07
2.47582e-07
1.4942e-07
-4.90305e-08
1.89826e-07
-2.06778e-07
2.40071e-07
-1.91798e-07
3.02039e-07
-1.9956e-08
3.21902e-07
2.02472e-07
3.3766e-07
1.42147e-07
3.15682e-07
3.64275e-08
2.80508e-07
-8.00858e-08
2.63562e-07
-7.89019e-08
2.49682e-07
5.51265e-08
2.23057e-07
8.39896e-08
1.87712e-07
-1.37696e-08
1.37006e-07
-2.28117e-07
1.07524e-07
-4.16971e-07
1.11886e-07
-3.28166e-07
1.25754e-07
-1.86904e-07
1.74776e-07
8.27855e-09
2.16316e-07
6.98897e-08
2.29984e-07
-5.21729e-08
2.19466e-07
-1.67709e-07
1.72479e-07
-3.49682e-07
1.11521e-07
-3.08491e-07
5.27033e-08
-1.50761e-07
-5.2753e-08
2.67061e-08
-1.20088e-07
9.90166e-08
-2.093e-07
6.60097e-09
-2.78192e-07
-1.16019e-07
-3.3496e-07
-2.19839e-07
-3.67886e-07
-2.22865e-07
-3.3972e-07
-7.10234e-08
-3.00601e-07
1.25021e-07
-2.04743e-07
3.02165e-07
-1.05256e-07
3.80705e-07
-4.55534e-08
3.58978e-07
5.93862e-08
3.08778e-07
9.53071e-08
1.77416e-07
1.28566e-07
1.25403e-07
1.31418e-07
1.05809e-07
1.00309e-07
1.61662e-07
6.0201e-08
2.49256e-07
-6.06382e-09
2.90523e-07
-1.58752e-08
3.40237e-07
-1.62856e-08
2.45533e-07
3.65164e-08
1.91371e-07
1.07768e-07
1.02859e-07
1.89638e-07
7.28798e-09
2.40961e-07
4.48936e-09
2.54229e-07
-3.86989e-08
2.3266e-07
3.22652e-08
1.92407e-07
8.4645e-08
1.2213e-07
1.12144e-07
7.78621e-08
1.57865e-07
1.53049e-08
1.08689e-07
-1.6939e-09
5.90612e-08
-1.78839e-09
-3.75707e-08
-4.50544e-09
-1.17305e-07
5.86901e-09
-1.84042e-07
1.45725e-08
-1.93632e-07
2.10965e-08
-1.63396e-07
3.12639e-08
-1.15143e-07
1.5028e-08
-5.15036e-08
3.08133e-08
2.26528e-08
1.58135e-08
6.03794e-08
1.77686e-08
7.94016e-08
3.57543e-08
8.81674e-08
4.30049e-08
8.44503e-08
8.41018e-08
1.01133e-07
1.39566e-07
1.33134e-07
1.9766e-07
1.49563e-07
2.34937e-07
1.5501e-07
2.42761e-07
1.41688e-07
2.26594e-07
1.18139e-07
2.06012e-07
7.78839e-08
1.94185e-07
1.10114e-08
1.83227e-07
-6.60191e-08
1.7011e-07
-1.38584e-07
1.54815e-07
-1.93291e-07
1.41045e-07
-2.33037e-07
1.21406e-07
-2.51828e-07
8.41248e-08
-2.37843e-07
3.24429e-08
-1.98173e-07
-1.60083e-08
-1.2597e-07
-4.98401e-08
-3.30813e-08
-4.40641e-08
5.00413e-08
5.3369e-09
1.16657e-07
9.21008e-08
1.60037e-07
2.01117e-07
1.83098e-07
3.01198e-07
1.97487e-07
3.88585e-07
1.7678e-07
4.51319e-07
1.31679e-07
4.75298e-07
7.08743e-08
4.5675e-07
-3.58048e-09
4.06088e-07
-9.54635e-08
3.47747e-07
-2.0842e-07
2.96703e-07
-3.1797e-07
2.57815e-07
-3.90791e-07
2.20279e-07
-3.96515e-07
1.76702e-07
-3.38489e-07
1.2749e-07
-2.38719e-07
8.61791e-08
-1.28343e-07
6.40334e-08
-2.37645e-08
6.95575e-08
7.08302e-08
1.0489e-07
1.53873e-07
1.68895e-07
2.17714e-07
2.58402e-07
2.53221e-07
3.73401e-07
2.566e-07
4.85279e-07
2.23801e-07
5.61448e-07
1.71034e-07
5.89675e-07
1.01976e-07
5.76286e-07
2.76604e-08
5.42119e-07
-4.71453e-08
5.03696e-07
-1.16028e-07
4.63194e-07
-1.66605e-07
4.20306e-07
-1.90655e-07
3.89225e-07
-1.92516e-07
3.75211e-07
-1.602e-07
3.79141e-07
-9.92582e-08
3.91259e-07
-2.3976e-08
3.95381e-07
5.14734e-08
3.91826e-07
1.07998e-07
3.96863e-07
1.26405e-07
4.2147e-07
9.72473e-08
4.5614e-07
4.7405e-08
4.91477e-07
-4.76726e-09
5.18951e-07
-2.98562e-08
5.36565e-07
-2.93604e-08
5.53188e-07
-4.05258e-08
5.24178e-07
1.02288e-08
4.84892e-07
-1.54519e-08
4.5166e-07
-5.52492e-09
4.09509e-07
1.07901e-07
4.41863e-07
6.14211e-08
4.50498e-07
1.2016e-07
4.53743e-07
9.13306e-08
4.70109e-07
-1.64074e-09
4.42966e-07
9.48006e-09
4.61429e-07
-1.25578e-07
4.50518e-07
-1.32514e-07
4.29127e-07
-1.49072e-07
4.26629e-07
-1.85568e-07
3.82299e-07
-7.85376e-08
3.55014e-07
-5.73179e-08
3.1246e-07
5.99727e-08
2.82836e-07
1.72409e-07
3.04187e-07
2.31356e-07
3.47983e-07
3.47036e-07
4.38456e-07
2.54421e-07
5.02029e-07
2.31141e-07
5.48695e-07
1.46245e-07
5.80236e-07
3.89966e-08
5.57311e-07
1.4902e-08
5.11938e-07
-9.7748e-08
4.47915e-07
-6.95044e-08
4.00272e-07
-5.92084e-09
3.60921e-07
9.31415e-08
3.21169e-07
1.73867e-07
2.96053e-07
1.78083e-07
3.17532e-07
1.98999e-07
3.8941e-07
1.08252e-07
4.87337e-07
7.4433e-08
5.83139e-07
4.6402e-08
6.54269e-07
2.68724e-08
6.61574e-07
5.51339e-08
6.28115e-07
-4.43728e-08
5.40566e-07
-1.12086e-07
4.34913e-07
-1.89308e-07
3.4467e-07
-2.51479e-07
2.95825e-07
-1.99124e-07
2.63922e-07
-1.96978e-07
2.29285e-07
-8.8593e-08
1.97315e-07
-2.90908e-08
1.58466e-07
-4.97227e-08
1.40265e-07
-9.09106e-08
1.32543e-07
-2.05752e-07
1.66727e-07
-2.07644e-07
2.09668e-07
-1.71374e-07
2.33809e-07
-1.53542e-07
1.79619e-07
-1.00723e-07
1.08829e-07
-2.21524e-07
2.15351e-09
-3.09737e-07
-1.07744e-07
-3.74907e-07
-1.9751e-07
-3.52755e-07
-2.33667e-07
-1.76768e-07
-2.33941e-07
-7.9668e-08
-2.21143e-07
1.83389e-08
-2.07241e-07
3.56769e-08
-1.88444e-07
-6.13101e-09
-1.11798e-07
2.70089e-08
-8.13731e-08
1.89036e-08
-7.79904e-08
7.73702e-08
-1.14058e-07
8.04755e-08
-1.66801e-07
7.82721e-09
-1.67533e-07
-1.91195e-08
-1.40076e-07
-6.16417e-08
-1.12128e-07
1.50099e-08
-1.17536e-07
4.83367e-08
-1.66618e-07
4.43322e-08
-2.18481e-07
9.45991e-09
-2.35994e-07
-1.46944e-08
-2.31234e-07
1.23235e-07
-1.85583e-07
1.38404e-07
-1.32806e-07
1.66496e-07
-6.81607e-08
4.61304e-08
-9.81975e-09
-2.71253e-08
4.74193e-08
-2.97968e-08
4.61328e-08
-1.23902e-09
-5.46099e-08
-9.54925e-08
-2.05954e-07
-2.49799e-07
-2.9654e-07
-3.43289e-07
-2.96129e-07
-1.82378e-07
-3.14003e-07
-7.03941e-08
-3.87931e-07
6.28594e-08
-4.94343e-07
9.733e-08
-5.03657e-07
1.17688e-07
-4.36357e-07
2.94157e-07
-3.23604e-07
2.68031e-07
-2.5428e-07
1.99713e-07
-1.88444e-07
8.30375e-08
-1.20504e-07
1.08978e-07
-1.07759e-07
1.19139e-07
-1.1722e-07
2.93157e-08
-1.01552e-07
-7.84932e-08
-1.5087e-08
-2.83569e-08
1.01547e-08
1.39187e-07
-3.20988e-08
1.04317e-07
-1.4146e-07
-2.54115e-08
-2.50457e-07
-1.43082e-07
-3.00381e-07
-4.21389e-08
-3.63023e-07
1.37874e-08
-4.56856e-07
-3.51066e-08
-4.44716e-07
-9.40667e-08
-3.41881e-07
3.42528e-08
-2.90887e-07
1.42891e-07
-3.11748e-07
1.38675e-07
-3.67289e-07
1.95893e-07
-3.81613e-07
1.77382e-07
-4.01567e-07
1.13598e-07
-3.94313e-07
6.31886e-08
-2.69311e-07
1.37735e-07
-1.86638e-07
2.41381e-07
-1.12298e-07
1.00903e-07
8.06537e-08
1.43612e-07
1.62664e-07
3.41961e-07
1.13726e-08
2.68734e-07
-1.55735e-07
-1.55541e-07
-1.90247e-07
-2.50252e-07
-2.02689e-07
-6.3045e-08
-3.19564e-07
-1.40758e-07
-3.40757e-07
-1.9331e-07
-3.34749e-07
3.14603e-08
-4.48783e-07
7.65835e-08
-5.28001e-07
7.75731e-09
-4.06836e-07
1.09374e-07
-3.64365e-07
3.52919e-07
-4.48584e-07
2.61027e-07
-5.16909e-07
1.11811e-07
-5.91424e-07
-6.66564e-10
-5.02391e-07
-1.49094e-07
-3.79205e-07
4.75018e-08
-4.20557e-07
-3.62498e-08
-4.14195e-07
-3.85767e-07
-2.12617e-07
-2.28358e-07
-2.07681e-07
-1.24347e-07
-1.10062e-07
-1.5624e-07
-6.35484e-08
1.31607e-07
-1.51386e-07
-1.11787e-07
-5.85509e-08
-2.38335e-07
-1.03058e-07
1.97929e-07
-3.57763e-07
-1.00284e-07
-3.12357e-07
-3.31529e-07
-2.43915e-07
7.09096e-08
-3.88778e-07
-3.58959e-08
-2.76785e-07
-1.30995e-07
-1.90389e-07
6.85819e-08
-9.29783e-08
2.28712e-08
-5.24521e-08
1.04645e-07
2.31963e-08
-1.47773e-07
1.06908e-07
3.89958e-08
1.11377e-08
-6.12136e-08
-5.82145e-08
-3.04874e-07
-1.20235e-07
2.2484e-08
-3.24406e-07
-7.72183e-08
-3.86713e-07
-8.18771e-08
-3.99063e-07
1.51056e-07
-6.84032e-07
2.50271e-07
-5.05796e-07
1.35625e-08
-3.58652e-07
4.75791e-07
4.00734e-07
-5.98865e-08
2.50154e-06
-2.36211e-07
8.87389e-06
-6.638e-09
1.94421e-05
-9.57666e-06
6.6689e-05
1.01032e-05
9.32726e-05
-8.03151e-05
0.000400877
8.42083e-05
0.000399878
-0.000402132
0.000403022
0.000390363
8.05169e-06
8.15689e-05
-9.48371e-05
8.25371e-05
8.17722e-05
2.30815e-05
-2.15596e-05
1.44952e-05
1.79019e-05
4.46908e-06
-1.89187e-07
1.87495e-06
2.20453e-06
5.26417e-07
5.62014e-07
-4.37505e-08
2.08437e-07
-1.12773e-07
1.15013e-07
-3.43999e-07
-4.61748e-08
-2.37807e-07
-4.71684e-08
-3.96664e-07
-1.19566e-07
-3.56403e-07
-1.12194e-07
-4.03714e-07
-1.53899e-07
-5.23346e-07
-1.1645e-07
-4.70263e-07
-1.02459e-07
-4.53188e-07
-7.80151e-08
-6.09534e-07
-5.71285e-08
-4.45898e-07
1.90033e-08
-3.48668e-07
2.20805e-08
-4.5395e-07
-7.30729e-09
-3.15406e-07
1.48112e-08
-2.09598e-07
-5.96368e-09
-2.70356e-07
8.21556e-09
-4.37781e-07
-1.35766e-07
-3.34975e-07
-1.10274e-08
-2.4348e-07
-5.35183e-08
-4.91037e-07
-1.44494e-07
-5.34454e-07
2.86852e-08
-1.95011e-07
-5.6865e-08
-3.17261e-07
-2.62241e-08
-3.60488e-07
-4.8544e-08
-2.77759e-07
-1.02182e-07
-2.49514e-07
-9.70356e-08
-1.80878e-07
-1.08439e-07
-3.06084e-07
-1.60231e-07
-5.74867e-07
-2.27785e-07
-4.29785e-07
-1.15471e-07
-2.93456e-07
-1.58025e-08
-3.55957e-07
-1.19253e-07
-5.09657e-07
-1.13259e-07
-6.06796e-07
-6.71398e-09
-3.98328e-07
3.37169e-08
-4.94135e-08
6.26616e-08
-8.6889e-08
-3.2779e-08
-3.6162e-07
-6.44691e-08
-4.43571e-07
-1.11488e-07
-3.96858e-07
-1.56146e-07
-4.51375e-07
-5.34279e-08
-2.8568e-07
-1.17402e-08
-1.39552e-07
-4.19366e-08
-4.11873e-07
-1.39692e-07
-7.85699e-07
-1.2906e-07
-7.40968e-07
7.96736e-08
-3.40619e-07
7.87077e-08
-1.37728e-07
7.28946e-08
-3.53769e-08
5.11571e-08
-1.47962e-08
4.72585e-08
-2.09679e-07
-3.21239e-08
-4.88824e-07
-1.55156e-07
-6.55034e-07
-7.69851e-08
-5.63175e-07
1.39937e-08
-4.34729e-07
1.20647e-07
-2.05651e-07
1.57547e-07
1.48972e-07
9.1236e-08
2.39181e-07
8.08538e-08
1.73315e-08
-1.2382e-08
-2.04425e-07
-1.35584e-08
-1.97282e-07
-3.18001e-08
-2.03342e-07
-1.30985e-07
-4.58226e-07
-1.73498e-07
-6.63288e-07
-1.72114e-07
-5.93342e-07
-5.58335e-08
-3.75843e-07
-2.80175e-08
-3.25236e-07
-9.49614e-08
-4.25915e-07
-1.07841e-07
-4.24146e-07
-6.29973e-08
-3.12334e-07
5.00581e-08
-2.59491e-07
1.10993e-07
-2.53705e-07
6.16872e-08
-1.76769e-07
9.63836e-08
-5.41437e-09
1.92477e-08
4.67353e-08
2.29479e-08
-1.11596e-07
-2.10638e-08
-2.93899e-07
-8.09266e-08
-3.30448e-07
-3.12438e-08
-1.83127e-07
-1.03216e-07
-1.44887e-07
-1.10036e-07
-2.87073e-07
-1.35708e-07
-4.50743e-07
-1.05363e-07
-4.64106e-07
3.71667e-08
-2.79777e-07
8.61532e-08
-1.7929e-07
9.36401e-08
-2.14164e-07
3.55445e-08
-2.49688e-07
-4.88461e-08
-2.09605e-07
2.31624e-08
-9.88735e-08
-2.63755e-08
-1.09681e-07
2.74803e-08
-2.41379e-07
9.7103e-09
-3.7951e-07
2.74502e-08
-3.82765e-07
6.89786e-08
-1.80195e-07
4.25401e-08
1.00412e-08
6.26174e-08
1.43009e-09
-4.02187e-08
-1.46764e-07
-6.029e-08
-2.93753e-07
-4.61109e-08
-2.71776e-07
-4.48636e-08
-1.68383e-07
9.34864e-08
-6.67319e-08
3.63725e-08
-7.98174e-08
5.09064e-08
-1.72438e-07
1.69208e-08
-2.07653e-07
-4.21014e-08
-1.50221e-07
-4.32377e-09
-2.92132e-09
-6.45643e-08
9.29879e-08
-1.08474e-07
2.62581e-08
-1.61628e-07
-1.58683e-07
-2.36552e-07
-3.34324e-07
-1.57782e-07
-3.48331e-07
-1.73732e-07
-2.44766e-07
-9.24151e-08
-1.00853e-07
-7.25679e-08
-5.08953e-08
-1.03608e-07
-1.10594e-07
-1.08173e-07
-2.83139e-07
-1.72835e-07
-4.3889e-07
-1.47163e-07
-4.73148e-07
-1.14909e-07
-3.70312e-07
-7.85275e-08
-2.4201e-07
-3.08842e-08
-1.75055e-07
-5.8771e-08
-2.208e-07
-6.87874e-08
-3.76673e-07
-6.62971e-08
-5.47732e-07
-5.63309e-08
-6.39934e-07
1.94407e-08
-5.92444e-07
8.01832e-08
-4.30947e-07
1.44045e-07
-2.51249e-07
2.01514e-07
-1.21657e-07
2.28343e-07
-5.00799e-08
2.38582e-07
-8.41656e-08
2.16019e-07
-1.6312e-07
2.08167e-07
-2.43647e-07
1.86e-07
-2.65108e-07
1.80035e-07
-2.13757e-07
1.96417e-07
-8.6771e-08
1.6555e-07
4.9115e-08
2.07498e-07
1.38735e-07
1.57293e-07
1.73221e-07
1.57075e-07
1.46205e-07
1.31956e-07
6.87068e-08
8.99366e-08
-2.63356e-09
8.13656e-08
-8.68449e-08
4.79032e-08
-1.13295e-07
5.77062e-08
-8.61383e-08
5.62467e-08
-2.05317e-08
4.78226e-08
9.46398e-08
4.58175e-08
1.84134e-07
2.12532e-08
2.49881e-07
-7.14158e-09
2.43491e-07
-3.25634e-08
2.08831e-07
-8.2514e-08
1.04406e-07
-7.77281e-08
3.69609e-09
-9.14518e-08
-8.88294e-08
-7.17423e-08
-1.69139e-07
-3.7454e-08
-1.92745e-07
-2.9886e-08
-2.16646e-07
4.66936e-08
-1.86191e-07
3.13815e-08
-1.58341e-07
5.25268e-08
-1.35272e-07
6.5069e-08
-9.97148e-08
4.90637e-08
-6.43987e-08
6.73002e-08
-1.14788e-08
8.22139e-08
4.42845e-08
9.40851e-08
1.03794e-07
9.28033e-08
1.51859e-07
8.93309e-08
1.9211e-07
7.50938e-08
2.2702e-07
4.37171e-08
2.40846e-07
6.33031e-10
2.27271e-07
-4.9102e-08
1.89348e-07
-9.95937e-08
1.38655e-07
-1.43611e-07
7.91131e-08
-1.74748e-07
7.37832e-09
-1.80272e-07
-6.3387e-08
-1.66706e-07
-1.30923e-07
-1.31263e-07
-1.75872e-07
-8.3295e-08
-1.80882e-07
-3.08096e-08
-1.52413e-07
2.03273e-08
-1.02811e-07
6.80523e-08
-4.18444e-08
1.00957e-07
2.74442e-08
1.14266e-07
1.00176e-07
1.22617e-07
1.72567e-07
1.0077e-07
2.31283e-07
7.0339e-08
2.69297e-07
3.29584e-08
2.81241e-07
-1.31508e-08
2.68656e-07
-8.03895e-08
2.21636e-07
-1.60837e-07
1.35974e-07
-2.34032e-07
1.92882e-08
-2.76757e-07
-9.83196e-08
-2.8074e-07
-1.92328e-07
-2.44776e-07
-2.47189e-07
-1.8326e-07
-2.65805e-07
-1.094e-07
-2.6108e-07
-2.90469e-08
-2.36812e-07
4.54078e-08
-1.86169e-07
1.02117e-07
-1.084e-07
1.39087e-07
-1.4478e-08
1.58276e-07
7.59788e-08
1.64411e-07
1.48418e-07
1.48918e-07
1.9435e-07
1.2265e-07
2.17887e-07
7.68753e-08
2.19212e-07
2.60012e-08
2.00142e-07
-2.77143e-08
1.58385e-07
-7.42693e-08
9.85379e-08
-1.07928e-07
3.66192e-08
-1.31052e-07
-2.70744e-08
-1.31383e-07
-7.64678e-08
-1.12386e-07
-9.95544e-08
-7.6e-08
-9.53264e-08
-2.65149e-08
-6.60479e-08
2.42092e-08
-1.79725e-08
6.07929e-08
3.4326e-08
7.30563e-08
6.66046e-08
6.25316e-08
7.81384e-08
3.36384e-08
7.18059e-08
1.10044e-09
6.01861e-08
-1.65792e-08
5.08593e-08
-1.745e-08
3.25112e-08
-2.05517e-08
3.10816e-08
1.119e-08
1.81351e-08
-4.61396e-09
1.09994e-08
-5.38586e-10
5.76298e-08
6.04993e-08
9.61348e-08
2.37051e-08
1.54377e-07
6.32598e-08
1.96492e-07
4.98706e-08
2.23677e-07
-2.93876e-08
1.9865e-07
3.31162e-08
1.63165e-07
-9.14601e-08
9.34986e-08
-6.34452e-08
2.92006e-08
-8.42636e-08
-5.73716e-08
-9.75585e-08
-1.09208e-07
-2.5027e-08
-1.4605e-07
-1.94937e-08
-1.4414e-07
5.78252e-08
-9.20616e-08
1.19349e-07
-1.53243e-09
1.40422e-07
1.31236e-07
2.15538e-07
2.42527e-07
1.45864e-07
3.09686e-07
1.66702e-07
3.30517e-07
1.26658e-07
3.14613e-07
5.44586e-08
2.48609e-07
7.97782e-08
1.63849e-07
-1.37649e-08
8.62546e-08
7.81517e-09
5.99519e-08
2.01636e-08
9.63909e-08
5.63817e-08
1.64796e-07
1.05411e-07
2.4926e-07
9.41274e-08
3.04352e-07
1.447e-07
3.29438e-07
8.37592e-08
3.22079e-07
8.2114e-08
3.215e-07
4.72855e-08
3.47928e-07
7.03269e-10
3.91747e-07
1.11178e-08
4.20337e-07
-7.37311e-08
4.08814e-07
-1.01377e-07
3.54661e-07
-1.35567e-07
2.70609e-07
-1.67895e-07
1.90622e-07
-1.20499e-07
1.41576e-07
-1.50011e-07
1.52813e-07
-1.01202e-07
2.15252e-07
-9.11302e-08
2.92859e-07
-1.25876e-07
2.99064e-07
-9.6281e-08
2.73247e-07
-1.80311e-07
2.09733e-07
-1.44729e-07
1.7542e-07
-1.36934e-07
2.1084e-07
-1.88491e-07
2.36187e-07
-1.26186e-07
2.55436e-07
-2.41578e-07
1.70804e-07
-2.25986e-07
3.70107e-08
-2.41773e-07
-9.93632e-08
-2.16915e-07
-1.34548e-07
-1.41802e-07
-1.09657e-07
-1.0424e-07
-2.82438e-08
-6.28348e-08
4.75462e-08
-4.08886e-08
5.58618e-08
-1.58831e-08
7.55064e-08
6.73343e-09
7.16808e-08
2.31989e-08
1.14741e-07
3.42846e-08
1.6625e-07
2.75251e-08
1.72105e-07
8.33218e-10
1.28281e-07
2.60929e-08
7.79023e-08
-7.8113e-09
7.9793e-08
1.60887e-08
1.21805e-07
7.35135e-09
1.62812e-07
2.92565e-09
1.47225e-07
2.40745e-08
1.08199e-07
2.33013e-08
1.21287e-07
1.09672e-07
2.03026e-07
5.67173e-08
2.88093e-07
8.07257e-08
2.92461e-07
3.96913e-08
2.96063e-07
-3.25746e-08
2.66494e-07
-3.3888e-10
3.33159e-07
-6.7206e-08
3.19529e-07
-8.16263e-08
2.07831e-07
-1.37579e-07
2.72319e-08
-1.61419e-07
-4.43025e-08
-1.10691e-07
-5.66428e-08
-5.99582e-08
4.47559e-09
1.63132e-10
2.38642e-08
7.84757e-08
1.06611e-08
1.3158e-07
1.07966e-07
1.95463e-07
2.24792e-07
1.48571e-07
2.81953e-07
1.40645e-07
2.45032e-07
1.19695e-07
2.80025e-07
7.50782e-08
2.83721e-07
1.15901e-07
2.98096e-07
1.2866e-08
2.10618e-07
6.53223e-09
1.81966e-07
8.9743e-10
3.20945e-07
1.66125e-09
3.68116e-07
5.49295e-08
3.59161e-07
-2.05109e-08
2.28884e-07
-1.3967e-08
2.20509e-07
-3.30294e-08
2.73167e-07
-3.99796e-08
1.92662e-07
4.25924e-08
8.04409e-08
1.60251e-08
5.88058e-08
5.54168e-08
1.06485e-07
9.48949e-08
1.54675e-07
8.7541e-08
1.76343e-07
1.70348e-07
2.70424e-07
8.41611e-08
2.94898e-07
9.30029e-08
2.51372e-07
1.05811e-07
2.67332e-07
1.17307e-07
3.54625e-07
1.53752e-07
3.33855e-07
1.25227e-07
3.22696e-07
1.56369e-07
5.14606e-07
1.48587e-07
6.92726e-07
9.0305e-08
5.45919e-07
-6.48077e-09
3.74505e-07
-8.04087e-08
3.5569e-07
-5.12264e-08
2.86654e-07
-7.47082e-08
1.48644e-07
-5.42592e-08
2.28127e-07
-5.15335e-08
3.23413e-07
-2.17667e-08
2.0771e-07
1.25817e-07
2.33508e-07
8.28761e-08
4.12699e-07
1.68263e-07
5.15335e-07
1.55076e-07
5.75393e-07
4.96743e-08
5.31631e-07
3.7373e-08
3.96086e-07
-1.79981e-08
4.9527e-07
-5.06316e-08
5.73801e-07
-1.17533e-07
3.57036e-07
-1.72783e-07
2.74263e-07
-1.43189e-07
2.7794e-07
-1.31759e-07
2.2122e-07
-1.03881e-07
4.14538e-07
-5.98975e-08
3.73465e-07
-7.54716e-08
1.81397e-07
-4.78203e-08
4.32048e-07
-4.87149e-08
3.74045e-07
-4.27265e-08
1.40294e-07