/*--------------------------------*- C++ -*----------------------------------*\
| =========                 |                                                 |
| \\      /  F ield         | OpenFOAM: The Open Source CFD Toolbox           |
|  \\    /   O peration     | Version:  2106                                  |
|   \\  /    A nd           | Website:  www.openfoam.com                      |
|    \\/     M anipulation  |                                                 |
\*---------------------------------------------------------------------------*/
FoamFile
{
    version     2.0;
    format      ascii;
    arch        "LSB;label=32;scalar=64";
    class       volScalarField;
    location    "0.03";
    object      p;
}
// * * * * * * * * * * * * * * * * * * * * * * * * * * * * * * * * * * * * * //

dimensions      [0 2 -2 0 0 0 0];

internalField   nonuniform List<scalar> 
9600
(
3.04785357501
0.15011079507
-0.753443001659
-1.13796939114
-1.35582258538
-1.49401842922
-1.59614655064
-1.68219274021
-1.76076125864
-1.83602612434
-1.91020992141
-1.98448101854
-2.05939314547
-2.13514035949
-2.21171626158
-2.28900890961
-2.36688623261
-2.44520423938
-2.52384106703
-2.60270022092
-2.68170858181
-2.76081376123
-2.83997940293
-2.91918067437
-2.99840123752
-3.07763048113
-3.15686128533
-3.23608884408
-3.31530990597
-3.39452204698
-3.47372329874
-3.55291211542
-3.63208719621
-3.71124724934
-3.79039089683
-3.86951664338
-3.94862276196
-4.02770748395
-4.10676870962
-4.18580430902
-4.26481207849
-4.34378968799
-4.42273459029
-4.50164404785
-4.58051511137
-4.65934455273
-4.73812882528
-4.81686406238
-4.89554613119
-4.97417067858
-5.05273310151
-5.13122842614
-5.20965122241
-5.28799562441
-5.3662554032
-5.44442397337
-5.522494311
-5.60045886291
-5.6783095154
-5.75603760357
-5.8336338967
-5.9110885288
-5.98839091801
-6.06552974344
-6.14249299002
-6.21926798995
-6.29584138886
-6.37219904379
-6.4483259017
-6.52420591613
-6.59982202401
-6.67515615715
-6.75018926056
-6.82490129943
-6.89927123058
-6.97327693196
-7.04689508886
-7.12010105791
-7.19286876709
-7.26517071376
-7.33697805776
-7.40826070991
-7.47898729277
-7.5491249531
-7.61863914347
-7.68749352256
-7.75565002094
-7.82306897669
-7.88970919155
-7.9555278217
-8.02048015699
-8.08451945074
-8.14759695224
-8.2096621224
-8.27066281708
-8.33054520706
-8.38925344935
-8.4467293975
-8.50291264519
-8.55774085838
-8.61115004526
-8.66307448841
-8.71344641695
-8.7621957786
-8.80925032946
-8.85453593667
-8.8979767203
-8.939494983
-8.97901102681
-9.01644314881
-9.05170786952
-9.08472015155
-9.11539338628
-9.14363929131
-9.16936802134
-9.19248839698
-9.21290792676
-9.23053262584
-9.24526706867
-9.25701483739
-9.26567891793
-9.2711616143
-9.27336415154
-9.27218668862
-9.26752897314
-9.25929121383
-9.24737306599
-9.23167281586
-9.21208844489
-9.18851801941
-9.16085988215
-9.12901199633
-9.09287172336
-9.05233619938
-9.00730211403
-8.95766480077
-8.90331798929
-8.84415410148
-8.78006329325
-8.7109313339
-8.63663851951
-8.55705956071
-8.47206160394
-8.38150001534
-8.28521464297
-8.18302617499
-8.07472950267
-7.96008456056
-7.83880492574
-7.71054008938
-7.57484872793
-7.43115667949
-7.2786826106
-7.11630492726
-6.94232242619
-6.75409086649
-6.54749349556
-6.31586228202
-6.05764450206
-5.8579623165
1.13612655676
-0.0460505364621
-0.654398392801
-1.00784774572
-1.24958763557
-1.41902213413
-1.54586488833
-1.64926578176
-1.73961561753
-1.82276168376
-1.90214494121
-1.97977860659
-2.05680419011
-2.13383007392
-2.21114098655
-2.28883776713
-2.36690838959
-2.44530486374
-2.52396075502
-2.60281085753
-2.68179987836
-2.76088438331
-2.84003166849
-2.91921826351
-2.99842791876
-3.07764933916
-3.15687467882
-3.23609859923
-3.31531731475
-3.39452792958
-3.47372825862
-3.55291663823
-3.63209162104
-3.7112517948
-3.79039573201
-3.86952190835
-3.94862863832
-4.02771388973
-4.10677563946
-4.18581181952
-4.26482021953
-4.34379850187
-4.4227441445
-4.50165444245
-4.58052644732
-4.65935690198
-4.7381422274
-4.8168785424
-4.89556174299
-4.97418753668
-5.05275134045
-5.13124814741
-5.20967249872
-5.28801854969
-5.3662801173
-5.44445063494
-5.5225230597
-5.60048981621
-5.67834279823
-5.75607337573
-5.83367234466
-5.91112983071
-5.98843522412
-6.06557719848
-6.14254377447
-6.21932233917
-6.2958995684
-6.37226131533
-6.44839250584
-6.52427707642
-6.59989796347
-6.67523711542
-6.75027550654
-6.82499313522
-6.8993689903
-6.97338097454
-7.04700577639
-7.12021872496
-7.19299370916
-7.26530322005
-7.33711847165
-7.40840946168
-7.47914486848
-7.54929182376
-7.61881571467
-7.68768014447
-7.75584704753
-7.82327682929
-7.88992837548
-7.9557588745
-8.02072356443
-8.08477561354
-8.14786625322
-8.20994504636
-8.27095999508
-8.33085731202
-8.38958102916
-8.4470728283
-8.50327226974
-8.55811716979
-8.6115437194
-8.66348623449
-8.71387680837
-8.76264524039
-8.80971926715
-8.855024867
-8.89848625837
-8.94002570638
-8.97956338992
-9.01701755528
-9.05230478918
-9.08534006601
-9.11603654005
-9.14430593066
-9.17005848584
-9.1932030991
-9.213647213
-9.23129669513
-9.24605613827
-9.25782937332
-9.26651961319
-9.27202906389
-9.27425868165
-9.27310862632
-9.26847885116
-9.26026890752
-9.24837806679
-9.23270542758
-9.21314987107
-9.18961054131
-9.16198629054
-9.13017542981
-9.09407642597
-9.05358812558
-9.00860867728
-8.95903481617
-8.90476261963
-8.84568790547
-8.78170477037
-8.7127038993
-8.63857214917
-8.55919192294
-8.47443935887
-8.38418276621
-8.28828049045
-8.18657609143
-8.07889372382
-7.96503507798
-7.84477186045
-7.71783453704
-7.58390329585
-7.44259434855
-7.29344041227
-7.13587887738
-6.96926185774
-6.79300640513
-6.60710600469
-6.41230074886
-6.21089273972
-6.03429973668
0.160025353412
-0.321174399399
-0.712266146466
-1.00359085387
-1.22464610229
-1.39182598901
-1.52302510012
-1.6319438944
-1.72718781432
-1.81418728247
-1.89641842702
-1.97606839833
-2.05447220748
-2.13241082613
-2.21030779935
-2.28836522641
-2.36665544596
-2.445178822
-2.52390508392
-2.60279218099
-2.68179925116
-2.76089140213
-2.84004099977
-2.91922751326
-2.99843611759
-3.0776561955
-3.15688030656
-3.23610322297
-3.31532110816
-3.39453108332
-3.47373100648
-3.55291917327
-3.63209406748
-3.71125424782
-3.7903982671
-3.86952456928
-3.94863140619
-4.02771681324
-4.10677876961
-4.18581518116
-4.264823865
-4.34380247936
-4.42274852219
-4.50165927585
-4.58053175625
-4.65936265571
-4.73814839378
-4.81688511968
-4.89556878392
-4.97419511714
-5.05275951959
-5.13125696491
-5.20968200944
-5.28802883957
-5.36629127627
-5.44446272351
-5.52253610809
-5.60050385339
-5.67835787826
-5.75608957225
-5.83368972337
-5.91114843681
-5.98845510466
-6.0655984386
-6.14256650789
-6.21934672298
-6.29592573236
-6.37228934903
-6.44842247264
-6.5243090415
-6.59993202123
-6.67527340039
-6.75031418392
-6.82503437978
-6.89941297036
-6.97342784142
-7.04705565668
-7.12027172243
-7.19304992887
-7.26536280853
-7.33718163937
-7.40847646004
-7.47921593443
-7.54936713558
-7.61889539057
-7.68776428094
-7.75593576806
-7.82337031367
-7.89002684798
-7.9558625567
-8.02083263732
-8.08489023967
-8.1479866507
-8.21007153566
-8.2710929357
-8.330996966
-8.38972750048
-8.44722616438
-8.50343263378
-8.55828490383
-8.61171921848
-8.66366974541
-8.71406833132
-8.762844678
-8.80992666939
-8.85524043396
-8.89871023348
-8.94025823994
-8.97980456267
-9.01726753789
-9.05256394192
-9.08560891603
-9.11631583622
-9.14459612845
-9.17035988017
-9.19351599899
-9.21397194587
-9.23163364553
-9.24640585578
-9.25819258248
-9.26689705515
-9.27242136728
-9.27466651943
-9.27353305143
-9.26892153747
-9.26073224275
-9.24886453623
-9.23321727632
-9.21368981896
-9.19018183926
-9.16259249072
-9.13082060597
-9.094765627
-9.0543275094
-9.00940574488
-8.95989919365
-8.90570655857
-8.84672597091
-8.78285417169
-8.71398664404
-8.64001728628
-8.56083613363
-8.47632787239
-8.38637254096
-8.29084403429
-8.18960585636
-8.08250930808
-7.9693925149
-7.85007615004
-7.7243598395
-7.59202182796
-7.45282162955
-7.30651242233
-7.15287442879
-6.99179383481
-6.8234712446
-6.6489247403
-6.47039225411
-6.29109357862
-6.12318981843
-0.391648968112
-0.577826825671
-0.820171973233
-1.04249689538
-1.2293906424
-1.38292099626
-1.51070345751
-1.62031830945
-1.71761257227
-1.80685439239
-1.89106206914
-1.97228907105
-2.05188024261
-2.13067652997
-2.20917371822
-2.28763963968
-2.36620162041
-2.44490109528
-2.52373950666
-2.60269645696
-2.68174602164
-2.76086333661
-2.84002746542
-2.91922211372
-2.99843503085
-3.07765723651
-3.15688227187
-3.23610544578
-3.31532324686
-3.3945330399
-3.47373280844
-3.55292087885
-3.63209573648
-3.71125593818
-3.79040002549
-3.86952641393
-3.94863333233
-4.02771883683
-4.10678090404
-4.18581742777
-4.26482623622
-4.34380502087
-4.42275130497
-4.50166236095
-4.58053513178
-4.65936630929
-4.73815229265
-4.81688926287
-4.89557320048
-4.9741998389
-5.05276457024
-5.13126239232
-5.20968788988
-5.28803524859
-5.3662982567
-5.44447028339
-5.52254424856
-5.60051259476
-5.67836725639
-5.75609961273
-5.83370042838
-5.91115980564
-5.98846717322
-6.06561129884
-6.14258028561
-6.2193615235
-6.29594163345
-6.37230637784
-6.44844062436
-6.5243283346
-6.5999525317
-6.67529525343
-6.75033752273
-6.82505933257
-6.89943963164
-6.97345627085
-7.04708589148
-7.12030380217
-7.19308392771
-7.26539885543
-7.33721990558
-7.40851711622
-7.47925910558
-7.54941288472
-7.61894373818
-7.68781524666
-7.7559894069
-7.82342672964
-7.89008617275
-7.95592491485
-8.02089813997
-8.0849590295
-8.14805895145
-8.21014763582
-8.27117307747
-8.33108124962
-8.38981592688
-8.44731879704
-8.5035297197
-8.5583868187
-8.61182628265
-8.66378210346
-8.71418605375
-8.76296787295
-8.81005554831
-8.85537532377
-8.8988514282
-8.94040591178
-8.97995887253
-9.01742879852
-9.05273260066
-9.08578528545
-9.11649987265
-9.14478777666
-9.17055922575
-9.19372324383
-9.21418736269
-9.23185761201
-9.24663887985
-9.2584352362
-9.2671498277
-9.27268472035
-9.27494117483
-9.27382013139
-9.2692222603
-9.26104760558
-9.24919571146
-9.2335663337
-9.21405970355
-9.19057587502
-9.16301443985
-9.13127528641
-9.09525909988
-9.0548668279
-9.00999934391
-8.96055792395
-8.90644413657
-8.84755879652
-8.78380192333
-8.71507380572
-8.64127437967
-8.56230105394
-8.47804826638
-8.38840801123
-8.29326861703
-8.192513412
-8.08601989124
-7.97365842004
-7.85529335086
-7.73078513726
-7.59999272235
-7.46278531939
-7.31906597348
-7.16881433575
-7.01216087932
-6.84951710029
-6.68182049024
-6.5106219037
-6.33757098038
-6.16648435917
-0.729158653543
-0.780787243675
-0.924617808717
-1.08884220537
-1.24300613596
-1.38074061214
-1.50243313091
-1.61072289054
-1.70879874928
-1.79958093984
-1.8854300158
-1.96811559758
-2.04889001573
-2.12859319888
-2.20775775594
-2.28669922543
-2.36559025826
-2.44451277929
-2.52349803588
-2.60255001934
-2.68165974316
-2.760814249
-2.8400008603
-2.91920874422
-2.99842918073
-3.07765546109
-3.15688256759
-3.23610667288
-3.31532480816
-3.39453468445
-3.47373446539
-3.55292253838
-3.63209740059
-3.71125762044
-3.79040174113
-3.86952817446
-3.9486351431
-4.02772070992
-4.10678285857
-4.1858195162
-4.26482854512
-4.3438076501
-4.42275431426
-4.50166572988
-4.58053882915
-4.65937028171
-4.73815651369
-4.81689374098
-4.89557795983
-4.97420490811
-5.05277000562
-5.13126828416
-5.20969433967
-5.28804232903
-5.36630599659
-5.44447869082
-5.52255334121
-5.60052240443
-5.67837780756
-5.75611090399
-5.83371244311
-5.91117255118
-5.98848071858
-6.06562577571
-6.1425958432
-6.21937827155
-6.29595960879
-6.37232557357
-6.44846104863
-6.52435005248
-6.59997567317
-6.67531999236
-6.75036402941
-6.8250877362
-6.89947001224
-6.97348867686
-7.04712037064
-7.12034043391
-7.19312284236
-7.26544022587
-7.33726391148
-7.4085639025
-7.47930876134
-7.54946545058
-7.61899923713
-7.6878737184
-7.75605093806
-7.82349144639
-7.89015420632
-7.95599638017
-8.02097316531
-8.08503781029
-8.14814176672
-8.21023474556
-8.27126460805
-8.3311771966
-8.38991629314
-8.44742374078
-8.50363954948
-8.55850182735
-8.61194657657
-8.66390757349
-8.7143165038
-8.76310325481
-8.81019601568
-8.85552106824
-8.89900250847
-8.94056229301
-8.98012063346
-9.01759624906
-9.0529061385
-9.08596518568
-9.11668627568
-9.14498082907
-9.17075918715
-9.19393045345
-9.21440218192
-9.23208044628
-9.24687023213
-9.25867564174
-9.26739978104
-9.27294480764
-9.27521233863
-9.27410365248
-9.26951944642
-9.26135976179
-9.24952464058
-9.23391465636
-9.21443045973
-9.19097220478
-9.16344012109
-9.13173544859
-9.0957602159
-9.05541647459
-9.0106065656
-8.96123386561
-8.9072024576
-8.84841642087
-8.78478015369
-8.71619861494
-8.64257658009
-8.56381857749
-8.47982911208
-8.3905113915
-8.29576710908
-8.19549793205
-8.08960437387
-7.9779850286
-7.86054080454
-7.73717892995
-7.6078181384
-7.47240090576
-7.33091436421
-7.18342634899
-7.03013121557
-6.87140179914
-6.7078406341
-6.54016095482
-6.36860543428
-6.19320889308
-0.933359972965
-0.928330597438
-1.01230024304
-1.13308039763
-1.259639003
-1.38211207975
-1.49668767107
-1.60252863313
-1.70056593305
-1.79239027056
-1.8796264664
-1.96367280964
-2.04562110578
-2.12626459488
-2.20614452737
-2.28560934376
-2.36487054712
-2.44404954121
-2.52320608937
-2.60237048657
-2.68155230199
-2.76075196051
-2.83996624769
-2.91919065615
-2.99842062274
-3.07765220082
-3.15688210801
-3.23610756204
-3.3153262672
-3.39453635239
-3.47373619102
-3.55292425659
-3.63209909934
-3.71125932134
-3.79040347762
-3.86952995438
-3.94863694538
-4.02772251282
-4.10678466505
-4.18582137507
-4.26483054095
-4.34380986807
-4.42275678989
-4.50166845434
-4.58054176731
-4.659373405
-4.73815980835
-4.81689719693
-4.89558157931
-4.97420873111
-5.0527741155
-5.13127277801
-5.20969928678
-5.28804775563
-5.36631190929
-5.44448510793
-5.52256029651
-5.60052992254
-5.67838587838
-5.75611948625
-5.83372150085
-5.91118209959
-5.9884908436
-6.06563660879
-6.14260750535
-6.21939082697
-6.29597305163
-6.37233986875
-6.44847619106
-6.52436610628
-6.59999276955
-6.67533828672
-6.75038364977
-6.82510875499
-6.89949245509
-6.97351255773
-7.04714573016
-7.12036736064
-7.1931514667
-7.26547069052
-7.3372963363
-7.40859836414
-7.47934529648
-7.54950407662
-7.61903997665
-7.6879166219
-7.75609609088
-7.82353895571
-7.89020417762
-7.95604891184
-8.02102837838
-8.08509588621
-8.14820292484
-8.2102991693
-8.27133238872
-8.33124836949
-8.38999094964
-8.44750210377
-8.50372192302
-8.55858845391
-8.61203753716
-8.66400283607
-8.71441611269
-8.76320743664
-8.81030510132
-8.85563528841
-8.89912189349
-8.94068684011
-8.980250525
-9.01773183686
-9.05304769778
-9.08611279782
-9.11683997518
-9.14514082994
-9.17092589492
-9.19410428627
-9.21458347899
-9.23226955062
-9.24706760353
-9.2588818358
-9.26761540574
-9.2731706385
-9.27544943521
-9.27435327988
-9.26978293454
-9.26163871348
-9.2498212644
-9.2342316698
-9.21477075082
-9.19133902021
-9.16383769496
-9.13216922937
-9.0962366754
-9.05594331232
-9.01119328779
-8.96189194981
-8.90794546671
-8.84926106025
-8.78574737323
-8.71731355225
-8.64386903119
-8.56532519595
-8.48159525213
-8.39259224581
-8.29822978709
-8.19842402434
-8.09309387058
-7.98216173447
-7.86555552489
-7.74321320619
-7.61509034943
-7.48116853323
-7.34147010602
-7.19607659837
-7.0451494763
-6.88892852218
-6.72769968579
-6.56161988024
-6.39027613121
-6.21254239545
-1.0565912781
-1.03120366178
-1.08065303579
-1.1708905591
-1.27582305883
-1.38503980123
-1.49266419349
-1.59564064906
-1.69316272593
-1.785654851
-1.87403098867
-1.95929471984
-2.04234470144
-2.12389896575
-2.20448787579
-2.28448060555
-2.36412095051
-2.44356361374
-2.52289834091
-2.60218045428
-2.6814380462
-2.76068540751
-2.83992904155
-2.91917098293
-2.99841111618
-3.07764840639
-3.15688133981
-3.23610825656
-3.31532759502
-3.3945379103
-3.47373777882
-3.5529257852
-3.63210056237
-3.71126075981
-3.79040492074
-3.86953139787
-3.94863837224
-4.02772392736
-4.10678610937
-4.18582292857
-4.26483228694
-4.34381185735
-4.42275901517
-4.50167088113
-4.58054436387
-4.65937614907
-4.73816267511
-4.81690016718
-4.89558467159
-4.97421201727
-5.05277769449
-5.13127672647
-5.20970363143
-5.28805249484
-5.36631705582
-5.44449070415
-5.52256638934
-5.600536525
-5.67839295676
-5.75612698613
-5.83372939504
-5.91119042673
-5.98849970812
-6.06564613737
-6.14261778951
-6.21940188995
-6.29598486142
-6.37235239083
-6.44848944429
-6.52438018756
-6.60000782985
-6.6753544733
-6.750401057
-6.82512741614
-6.89951237632
-6.97353376564
-7.04716830044
-7.12039141228
-7.19317712908
-7.26549806611
-7.33732548183
-7.40862929907
-7.47937802764
-7.5495386236
-7.61907638784
-7.68795497927
-7.75613649738
-7.82358151065
-7.89024895796
-7.95609598407
-8.02107783433
-8.08514785834
-8.14825754739
-8.2103565256
-8.27139250522
-8.33131127764
-8.39005675652
-8.44757099082
-8.50379406253
-8.55866390802
-8.61211624881
-8.66408475258
-8.714501332
-8.76329622801
-8.81039773375
-8.85573184469
-8.89922231812
-8.94079116869
-8.98035900524
-9.01784476457
-9.05316521536
-9.08623493799
-9.11696690344
-9.14527297142
-9.17106376435
-9.19424827421
-9.21473384546
-9.23242662693
-9.24723191098
-9.25905400644
-9.26779612639
-9.27336074551
-9.2756499915
-9.27456551404
-9.27000828654
-9.26187904739
-9.2500788658
-9.23450898342
-9.21507047703
-9.19166473471
-9.16419416287
-9.13256200016
-9.09667188904
-9.05642844787
-9.01173794544
-8.96250774955
-8.90864593981
-8.85006235476
-8.7866689956
-8.71837903451
-8.6451070481
-8.56677017419
-8.48328795878
-8.39458222986
-8.30057740571
-8.20120077578
-8.0963849175
-7.98606928653
-7.87020037427
-7.74873621635
-7.62165159021
-7.48894452551
-7.35064165065
-7.2068076807
-7.0575430682
-6.90296559556
-6.74315482473
-6.57800864055
-6.40698422266
-6.22900282078
-1.13071874773
-1.09986111938
-1.12999670495
-1.19996005585
-1.28925029911
-1.38812912716
-1.48989253475
-1.59020016933
-1.68703832216
-1.77992477823
-1.8691755319
-1.95543906916
-2.03942649148
-2.12177347478
-2.20298950768
-2.28345450128
-2.36343669058
-2.44311870405
-2.52261613789
-2.60200587221
-2.68133289502
-2.76062407141
-2.83989463897
-2.91915269408
-2.9984022435
-3.07764483697
-3.15688056998
-3.23610884477
-3.31532877872
-3.39453930137
-3.47373918891
-3.55292715661
-3.63210191894
-3.71126212965
-3.79040629016
-3.86953272783
-3.94863964116
-4.02772515264
-4.10678734568
-4.18582425813
-4.26483377736
-4.34381352926
-4.42276085366
-4.50167286195
-4.58054646148
-4.6593783261
-4.73816489801
-4.81690243612
-4.89558704154
-4.97421458277
-5.0527805387
-5.13127987728
-5.20970707164
-5.28805621238
-5.36632108006
-5.44449509318
-5.52257118518
-5.60054172018
-5.67839850064
-5.75613282432
-5.83373551653
-5.91119688669
-5.98850660853
-6.06565357545
-6.14262581009
-6.21941047426
-6.29599395877
-6.37236197481
-6.44849955799
-6.52439094623
-6.60001937643
-6.67536691651
-6.75041443839
-6.82514172965
-6.89952762128
-6.97354999129
-7.04718561046
-7.12040992877
-7.19319694339
-7.26551921078
-7.33734794031
-7.40865304235
-7.47940305161
-7.54956496786
-7.61910413448
-7.68798423627
-7.75616737368
-7.82361409339
-7.89028330499
-7.95613214128
-8.0211158617
-8.08518783474
-8.14829955141
-8.21040061994
-8.2714387507
-8.33135976712
-8.39010762448
-8.44762437237
-8.5038500302
-8.55872244392
-8.61217730861
-8.66414840061
-8.71456780151
-8.76336580713
-8.8104705682
-8.855807884
-8.8993014957
-8.94087358111
-8.98044486169
-9.01793418787
-9.05325818095
-9.08633149682
-9.11706739145
-9.14537791208
-9.17117357783
-9.19436316195
-9.21485399424
-9.23255246694
-9.24736408632
-9.25919316425
-9.26794290381
-9.273515968
-9.2758147506
-9.27474108512
-9.27019618009
-9.26208114504
-9.25029732798
-9.2347461408
-9.21532918276
-9.19194887467
-9.16450856858
-9.13291200403
-9.09706353976
-9.05686930838
-9.01223738272
-8.9630768252
-8.90929780266
-8.85081263955
-8.78753598879
-8.71938484696
-8.64627883743
-8.56813967569
-8.48489184178
-8.39646470509
-8.3027917501
-8.20380953583
-8.09946053612
-7.98969519477
-7.87447358199
-7.75376629773
-7.6275578879
-7.49585128899
-7.35866726179
-7.21605164722
-7.06806064871
-6.91473808114
-6.75607676437
-6.59192729514
-6.42188199878
-6.2452841065
-1.17301501803
-1.14174264146
-1.16169482944
-1.2194400003
-1.29868679828
-1.39056848219
-1.48815266646
-1.58643648371
-1.68266799227
-1.77575776145
-1.8655966578
-1.95256839508
-2.03723693499
-2.12016925926
-2.20185354871
-2.28267386008
-2.3629145736
-2.44277692742
-2.52240022884
-2.601872364
-2.68125249492
-2.76057718594
-2.83986831142
-2.91913867862
-2.9983954105
-3.07764200499
-3.15687983076
-3.2361091348
-3.31532953657
-3.39454023575
-3.47374017571
-3.55292818774
-3.63210302157
-3.71126329346
-3.79040746671
-3.86953387617
-3.94864075001
-4.02772623256
-4.10678843657
-4.18582541556
-4.26483504356
-4.34381491128
-4.42276233946
-4.50167442967
-4.58054807472
-4.6593799437
-4.7381665044
-4.81690406972
-4.89558879109
-4.97421654005
-5.05278274214
-5.13128230166
-5.20970967328
-5.28805898554
-5.36632406995
-5.44449836051
-5.52257475855
-5.60054557839
-5.67840259314
-5.75613711328
-5.83374001254
-5.91120165378
-5.98851173176
-6.06565911341
-6.14263176568
-6.21941680238
-6.29600060911
-6.3723689446
-6.4485069192
-6.52439882395
-6.60002788908
-6.67537612201
-6.75042432991
-6.82515228307
-6.89953885504
-6.9735619912
-7.04719850078
-7.1204238114
-7.19321184924
-7.26553509689
-7.33736473364
-7.40867069671
-7.47942158208
-7.54958444902
-7.61912467489
-7.68800594848
-7.7561903522
-7.82363840116
-7.89030897166
-7.95615917199
-8.02114425418
-8.08521759648
-8.14833071223
-8.21043323766
-8.27147290857
-8.33139555926
-8.39014512908
-8.44766362233
-8.50389100151
-8.55876509703
-8.61222167289
-8.66419465123
-8.71461620642
-8.76341656249
-8.81052369087
-8.85586329787
-8.89935922052
-8.94093378983
-8.9805076943
-9.01799961871
-9.05332616702
-9.08640222353
-9.11714131126
-9.14545546619
-9.17125496529
-9.19444844914
-9.2149434661
-9.23264675348
-9.24746388241
-9.25929899807
-9.26805533024
-9.27363588164
-9.27594334141
-9.27487962265
-9.27034607308
-9.26224415396
-9.25047560254
-9.23494224237
-9.21554630135
-9.1921909157
-9.16477995881
-9.13321783518
-9.09741021829
-9.05726467504
-9.01269020443
-8.96359724171
-8.90989859985
-8.85150931388
-8.78834621739
-8.72032931544
-8.64738236993
-8.56943174818
-8.48640727251
-8.39824384956
-8.30488113879
-8.20626394777
-8.10234315483
-7.99307778439
-7.87843724616
-7.75840026394
-7.63295868156
-7.50211832671
-7.36589840446
-7.22433385678
-7.07746293582
-6.92531508052
-6.76788264182
-6.60508722956
-6.43675014386
-6.26265964667
-1.19229730906
-1.16154751253
-1.17713834444
-1.22917131496
-1.30353160536
-1.39189883396
-1.48731874217
-1.58451745815
-1.68039785439
-1.77356846295
-1.86370114614
-1.95103875612
-2.0360647868
-2.1193074527
-2.2012416085
-2.28225242785
-2.36263244119
-2.44259284951
-2.52228341182
-2.60180002959
-2.68120892833
-2.76055178697
-2.83985409511
-2.91913120072
-2.9983918469
-3.07764057757
-3.15687949167
-3.23610931589
-3.31532993541
-3.39454070863
-3.47374069644
-3.5529287912
-3.63210372269
-3.71126406007
-3.79040825994
-3.86953468023
-3.94864155468
-4.02772703906
-4.10678927205
-4.18582632231
-4.26483604453
-4.34381600049
-4.42276348714
-4.50167558897
-4.58054919607
-4.65938100021
-4.73816751885
-4.81690512091
-4.89558997953
-4.97421792776
-5.05278431649
-5.13128399798
-5.20971143826
-5.28806082222
-5.36632602869
-5.44450049285
-5.52257707991
-5.6005480649
-5.67840520813
-5.75613984218
-5.83374288349
-5.91120472659
-5.98851506244
-6.06566271866
-6.14263561322
-6.21942083413
-6.29600478729
-6.37237329359
-6.44851153086
-6.5244038132
-6.60003332948
-6.67538201356
-6.75043062755
-6.8251589639
-6.89954596935
-6.9735696554
-7.04720683537
-7.1204328692
-7.19322158625
-7.26554540563
-7.33737551735
-7.40868193004
-7.47943332092
-7.54959679672
-7.61913773852
-7.68801981739
-7.75620509621
-7.82365406662
-7.89032556671
-7.95617665931
-8.02116257229
-8.08523670726
-8.14835063972
-8.21045406499
-8.27149473194
-8.33141843034
-8.39016903551
-8.44768850937
-8.50391682017
-8.55879186156
-8.61224950299
-8.66422374114
-8.71464672122
-8.76344854266
-8.8105570723
-8.8558980638
-8.89939550327
-8.94097175286
-8.98054738413
-9.01804097527
-9.05336922042
-9.08644725047
-9.11718869534
-9.1455054385
-9.17130755988
-9.19450379563
-9.2150020653
-9.23270931086
-9.24753094203
-9.25937095026
-9.2681328091
-9.27371992182
-9.27603510016
-9.27498022445
-9.2704568723
-9.26236698946
-9.25061277057
-9.23509647486
-9.21572085744
-9.19238952197
-9.16500680221
-9.13347808898
-9.09771051407
-9.05761266806
-9.01309424647
-8.96406733291
-8.91044729099
-8.85215154096
-8.78909929248
-8.72121328327
-8.64842046785
-8.57065182566
-8.48784244133
-8.39993153798
-8.30686447713
-8.20859360434
-8.10507691289
-7.99628059468
-7.88218060466
-7.7627657957
-7.63803497646
-7.50800046581
-7.37268517054
-7.23212994774
-7.08638359728
-6.93549532857
-6.77951381295
-6.61847986005
-6.45244377698
-6.2815516564
-1.19229680095
-1.16154693999
-1.17713821085
-1.22917109576
-1.30353127692
-1.39189874704
-1.48731867826
-1.58451731628
-1.68039769789
-1.77356826165
-1.86370097491
-1.95103856239
-2.03606462072
-2.1193073313
-2.20124141144
-2.28225220844
-2.36263227966
-2.44259266525
-2.52228320398
-2.60179990446
-2.68120889447
-2.76055181163
-2.83985420786
-2.91913141916
-2.99839211469
-3.0776408304
-3.15687971906
-3.23610953095
-3.31533014678
-3.39454093521
-3.47374098968
-3.55292918801
-3.63210420522
-3.71126459063
-3.79040881783
-3.86953524716
-3.94864210363
-4.02772756554
-4.10678981368
-4.18582692895
-4.26483673796
-4.34381675766
-4.42276425094
-4.50167629495
-4.58054980041
-4.6593815062
-4.73816798655
-4.81690564767
-4.89559064993
-4.97421876148
-5.05278525749
-5.13128495987
-5.20971236789
-5.28806172672
-5.36632695148
-5.44450147175
-5.52257812419
-5.60054916038
-5.67840634047
-5.75614101978
-5.83374414108
-5.9112061066
-5.98851658616
-6.06566436818
-6.14263733423
-6.21942256827
-6.29600651656
-6.37237506744
-6.44851344667
-6.5244059564
-6.60003571754
-6.67538459375
-6.75043333503
-6.82516179485
-6.8995490082
-6.97357303053
-7.04721063368
-7.12043707335
-7.19322608178
-7.2655500574
-7.33738025259
-7.40868677422
-7.4794383671
-7.54960214114
-7.61914344519
-7.68802593066
-7.75621166202
-7.82366111817
-7.89033308421
-7.95618455635
-8.02117074414
-8.08524510692
-8.14835931199
-8.21046310421
-8.27150419592
-8.33142828835
-8.39017919801
-8.44769890314
-8.50392745225
-8.55880282686
-8.61226092994
-8.66423572602
-8.71465927137
-8.76346159487
-8.81057059124
-8.85591213187
-8.89941028327
-8.94098736863
-8.98056384215
-9.01805825342
-9.05338742254
-9.08646661213
-9.11720940917
-9.14552754356
-9.17133110337
-9.19452912322
-9.21502979283
-9.23273996529
-9.24756482644
-9.25940851265
-9.26817492737
-9.2737676428
-9.27608933344
-9.27504199586
-9.27052777064
-9.26244913435
-9.25070848418
-9.23520829218
-9.21585183798
-9.19254338321
-9.16518795044
-9.1336918165
-9.09796306072
-9.05791126764
-9.01344770227
-8.96448631714
-8.91094382351
-8.85273943499
-8.78979567576
-8.72203863254
-8.64939792256
-8.57180810912
-8.48920883518
-8.4015445964
-8.30876677462
-8.21083330327
-8.10770983103
-7.99937035777
-7.88579865289
-7.76699243277
-7.64296119297
-7.51372643893
-7.37932974353
-7.23982504852
-7.09528993578
-6.94582120351
-6.7915421216
-6.63261877329
-6.46929389211
-6.30196298605
-1.17301358152
-1.14174113026
-1.16169458943
-1.21943945451
-1.29868602412
-1.3905682549
-1.48815237419
-1.58643597445
-1.68266743377
-1.77575707662
-1.8655959947
-1.95256777058
-2.03723636663
-2.12016870159
-2.20185279509
-2.28267300375
-2.36291375626
-2.44277599934
-2.52239921564
-2.60187154241
-2.68125194426
-2.76057686595
-2.83986829909
-2.9191390047
-2.99839590693
-3.07764248382
-3.1568802416
-3.23610949858
-3.31532987429
-3.39454062644
-3.47374077936
-3.5529291213
-3.6321042678
-3.71126476234
-3.79040907461
-3.86953553349
-3.94864236394
-4.02772779505
-4.10679005972
-4.18582724226
-4.26483712325
-4.34381716408
-4.42276460142
-4.50167652772
-4.58054989755
-4.65938150212
-4.73816795969
-4.81690569
-4.89559081688
-4.97421903373
-5.05278555063
-5.13128518005
-5.20971246391
-5.28806170065
-5.36632683295
-5.44450128857
-5.52257788931
-5.60054887724
-5.67840601635
-5.75614067536
-5.83374380517
-5.91120579766
-5.98851629433
-6.06566404894
-6.14263692341
-6.21942201746
-6.29600583163
-6.37237431574
-6.44851271531
-6.52440528591
-6.6000350662
-6.67538386914
-6.75043247255
-6.82516081969
-6.89954802689
-6.97357215326
-7.0472098855
-7.12043636219
-7.19322525257
-7.26554899243
-7.33737894303
-7.40868530544
-7.47943683668
-7.54960058984
-7.61914186348
-7.68802431673
-7.7562100482
-7.82365952654
-7.89033146298
-7.95618278187
-8.02116869965
-8.08524276449
-8.14835673316
-8.21046035334
-8.2715012501
-8.33142503596
-8.39017552831
-8.44769480198
-8.50392300764
-8.55879813868
-8.61225603074
-8.6642305588
-8.71465373423
-8.7634556266
-8.81056422518
-8.85590550117
-8.89940353806
-8.94098058463
-8.98055703404
-9.01805144771
-9.05338071721
-9.08646011047
-9.11720313045
-9.14552149045
-9.17132548888
-9.19452443424
-9.21502650028
-9.23273829729
-9.24756504413
-9.2594113218
-9.26818134514
-9.2737785303
-9.27610542864
-9.27506448045
-9.27055851763
-9.26249029372
-9.25076214244
-9.23527679541
-9.21593825974
-9.19265155495
-9.16532239392
-9.13385780214
-9.09816662753
-9.05815964191
-9.01375001706
-8.96485337413
-8.91138752316
-8.85327375676
-8.7904378667
-8.72280884069
-8.65031925978
-8.57290770612
-8.49051851549
-8.40310165709
-8.31061351678
-8.21301851281
-8.11029143909
-8.00241422757
-7.8893793861
-7.77119521026
-7.64788659952
-7.51948962358
-7.38606571118
-7.24769731407
-7.10449948291
-6.95662291115
-6.8042694176
-6.64771461349
-6.48734189649
-6.32370232927
-1.13071721126
-1.09985936663
-1.1299965354
-1.19995948805
-1.28924952798
-1.3881288628
-1.48989208847
-1.59019930391
-1.68703721837
-1.77992347788
-1.86917406702
-1.95543770023
-2.03942516777
-2.12177207246
-2.20298804359
-2.28345301169
-2.3634352172
-2.4431172258
-2.52261471436
-2.60200472431
-2.68133216497
-2.76062377755
-2.83989481817
-2.91915332811
-2.99840312895
-3.07764573587
-3.15688138029
-3.23610956427
-3.31532945056
-3.39454006392
-3.47374026411
-3.55292871723
-3.63210398739
-3.71126460509