/*--------------------------------*- C++ -*----------------------------------*\
| =========                 |                                                 |
| \\      /  F ield         | OpenFOAM: The Open Source CFD Toolbox           |
|  \\    /   O peration     | Version:  2106                                  |
|   \\  /    A nd           | Website:  www.openfoam.com                      |
|    \\/     M anipulation  |                                                 |
\*---------------------------------------------------------------------------*/
FoamFile
{
    version     2.0;
    format      ascii;
    arch        "LSB;label=32;scalar=64";
    class       surfaceScalarField;
    location    "0.03";
    object      phi;
}
// * * * * * * * * * * * * * * * * * * * * * * * * * * * * * * * * * * * * * //

dimensions      [0 3 -1 0 0 0 0];

oriented        oriented;

internalField   nonuniform List<scalar> 
18840
(
3.37527778926e-05
1.62472220951e-05
2.25348173195e-05
1.12179596407e-05
1.63060499677e-05
6.2287674461e-06
1.28248687765e-05
3.48118229921e-06
1.08413635918e-05
1.98350451991e-06
9.66865617739e-06
1.17270731814e-06
8.95367952849e-06
7.14976731891e-07
8.51233165803e-06
4.413477186e-07
8.24201915572e-06
2.70312147026e-07
8.08089834248e-06
1.61120692053e-07
7.98931409543e-06
9.15841661279e-08
7.94103043435e-06
4.82836654212e-08
7.91865244733e-06
2.23779181933e-08
7.91088018209e-06
7.77239163998e-09
7.91059028339e-06
2.89739357773e-10
7.91368433604e-06
-3.09391473042e-09
7.91776673134e-06
-4.08247011136e-09
7.92170356815e-06
-3.93702997931e-09
7.92502090442e-06
-3.31738485478e-09
7.92760618489e-06
-2.58548695367e-09
7.92951846385e-06
-1.91244477059e-09
7.93087990639e-06
-1.36144658892e-09
7.93182070636e-06
-9.40838905455e-10
7.93245531334e-06
-6.34620806604e-10
7.93287472431e-06
-4.19285938898e-10
7.93314688243e-06
-2.71999951559e-10
7.93332053276e-06
-1.73541186075e-10
7.93342958514e-06
-1.08946298665e-10
7.93349695883e-06
-6.72933403423e-11
7.93353784515e-06
-4.09183499842e-11
7.93356222256e-06
-2.44820066574e-11
7.93357650597e-06
-1.43729786571e-11
7.93358470632e-06
-8.25614577672e-12
7.93358930648e-06
-4.63419193012e-12
7.93359183811e-06
-2.52936515324e-12
7.93359321837e-06
-1.34522616657e-12
7.93359387736e-06
-6.35870177233e-13
7.93359409909e-06
-2.60921438369e-13
7.93359413214e-06
-1.21717739017e-13
7.93359411297e-06
-7.22090527524e-14
7.93359410225e-06
-6.72040837091e-14
7.93359411484e-06
-9.59100097389e-14
7.93359416557e-06
-1.35888816199e-13
7.93359426428e-06
-1.5732320561e-13
7.93359439645e-06
-1.57485082248e-13
7.93359453568e-06
-1.55199362237e-13
7.93359466008e-06
-1.72188868262e-13
7.93359477408e-06
-2.17457487992e-13
7.93359490917e-06
-2.74268119942e-13
7.93359509563e-06
-3.1078467776e-13
7.93359532587e-06
-3.22693280151e-13
7.93359556653e-06
-3.35501196465e-13
7.9335958017e-06
-3.69231736048e-13
7.93359605356e-06
-4.12453373313e-13
7.93359635653e-06
-4.40332142589e-13
7.93359672253e-06
-4.47445210383e-13
7.93359713857e-06
-4.52404121437e-13
7.93359759131e-06
-4.74346264003e-13
7.9335980839e-06
-5.12329561424e-13
7.93359862647e-06
-5.48623937036e-13
7.93359921337e-06
-5.71792901924e-13
7.9335998179e-06
-5.9235777479e-13
7.93360041499e-06
-6.31951885849e-13
7.93360100948e-06
-6.97640153527e-13
7.93360163723e-06
-7.71788921478e-13
7.93360233714e-06
-8.28250966619e-13
7.93360312371e-06
-8.56183257524e-13
7.93360397971e-06
-8.65635872356e-13
7.93360487161e-06
-8.76719888784e-13
7.9336057715e-06
-9.05011074827e-13
7.93360667042e-06
-9.54471807518e-13
7.93360758148e-06
-1.01931212711e-12
7.93360853511e-06
-1.08813532495e-12
7.93360956746e-06
-1.14860020873e-12
7.9336107053e-06
-1.18992088159e-12
7.9336119501e-06
-1.2059188603e-12
7.93361326949e-06
-1.20311130777e-12
7.93361461001e-06
-1.20521842958e-12
7.93361593318e-06
-1.24103510432e-12
7.93361725059e-06
-1.31845097324e-12
7.93361862201e-06
-1.40980774981e-12
7.93362010845e-06
-1.47048704346e-12
7.93362171884e-06
-1.47711244662e-12
7.93362340032e-06
-1.44899447005e-12
7.93362508182e-06
-1.43302467021e-12
7.93362673198e-06
-1.46657592795e-12
7.93362838178e-06
-1.54955982191e-12
7.93363009405e-06
-1.64507318086e-12
7.93363190407e-06
-1.70974764797e-12
7.93363378096e-06
-1.73360593805e-12
7.9336356482e-06
-1.75555366948e-12
7.93363745715e-06
-1.83035435729e-12
7.93363925035e-06
-1.96917218713e-12
7.93364114441e-06
-2.11292954097e-12
7.93364323163e-06
-2.18185081328e-12
7.93364549202e-06
-2.16332531345e-12
7.93364781407e-06
-2.14234839798e-12
7.93365011817e-06
-2.22410547196e-12
7.93365245512e-06
-2.42627477739e-12
7.93365497389e-06
-2.66084552239e-12
7.93365779366e-06
-2.82952817599e-12
7.93366091701e-06
-2.93139917693e-12
7.93366429177e-06
-3.08292914551e-12
7.93366794484e-06
-3.41282064218e-12
7.93367197998e-06
-3.89927902918e-12
7.93367656214e-06
-4.4836909902e-12
7.93368183877e-06
-5.13852867585e-12
7.93368791371e-06
-5.92233109166e-12
7.93369492231e-06
-6.9407096397e-12
7.93370311726e-06
-8.25455035042e-12
7.93371286976e-06
-9.86982304443e-12
7.93372462035e-06
-1.18352498212e-11
7.93373887343e-06
-1.4287163691e-11
7.93375624596e-06
-1.73694854073e-11
7.9337775644e-06
-2.12424317789e-11
7.93380381653e-06
-2.60640510052e-11
7.93383613334e-06
-3.21184409602e-11
7.93387596144e-06
-3.97994516139e-11
7.93392527796e-06
-4.9479727965e-11
7.93398663205e-06
-6.1507400304e-11
7.93406307282e-06
-7.6388690409e-11
7.93415822482e-06
-9.49856786781e-11
7.93427671532e-06
-1.18477582783e-10
7.93442487499e-06
-1.48374200383e-10
7.93461230103e-06
-1.87632927073e-10
7.9348469634e-06
-2.3463815149e-10
7.9351368602e-06
-2.89779808919e-10
7.93549835108e-06
-3.6156982522e-10
7.93595036891e-06
-4.52272917318e-10
7.9365160503e-06
-5.65841829118e-10
7.93722397922e-06
-7.07971744768e-10
7.9381099709e-06
-8.86122156194e-10
7.93921917279e-06
-1.10935884254e-09
7.94060817618e-06
-1.38891945174e-09
7.94234780404e-06
-1.73936283541e-09
7.94452723213e-06
-2.17926208755e-09
7.94725900342e-06
-2.73166339777e-09
7.95068467142e-06
-3.425472348e-09
7.9549823064e-06
-4.29761031462e-09
7.96037709581e-06
-5.39507002687e-09
7.96715474152e-06
-6.77760372051e-09
7.97567771754e-06
-8.52222170627e-09
7.98640692259e-06
-1.07285996091e-08
7.99993167646e-06
-1.35250146125e-08
8.01700938679e-06
-1.70781586775e-08
8.03861813036e-06
-2.1608931902e-08
8.06602998475e-06
-2.74123436139e-08
8.10091435864e-06
-3.48850188838e-08
8.14548428586e-06
-4.45701664981e-08
8.2027108661e-06
-5.72266235639e-08
8.27664866029e-06
-7.39376597842e-08
8.37295825214e-06
-9.63093455911e-08
8.49983966743e-06
-1.26881315291e-07
8.66997887534e-06
-1.7013877997e-07
8.90541910596e-06
-2.35439980473e-07
9.25142585254e-06
-3.4600708735e-07
9.81836416652e-06
-5.66938268432e-07
1.0917610943e-05
-1.09924644613e-06
1.35386868187e-05
-2.62107725365e-06
-7.43193365866e-06
2.09706200602e-05
5.01394362373e-05
1.61077868187e-05
4.41667487423e-05
1.71906468328e-05
3.77864582814e-05
1.26090564253e-05
3.27117501955e-05
8.55589059008e-06
2.90647976998e-05
5.63045660576e-06
2.65635680919e-05
3.67393590765e-06
2.48878373594e-05
2.39070671374e-06
2.37860234072e-05
1.54316116633e-06
2.30775055135e-05
9.78829361126e-07
2.26350461384e-05
6.03579735663e-07
2.23693028665e-05
3.57327166097e-07
2.22178834842e-05
1.99702890628e-07
2.21378422137e-05
1.02419305427e-07
2.21003455476e-05
4.52690160893e-08
2.20867483007e-05
1.38873239717e-08
2.20853622133e-05
-1.70767716623e-09
2.20894639455e-05
-8.18416139325e-09
2.20953072159e-05
-9.78015079349e-09
2.21010501005e-05
-9.0603374494e-09
2.21059290953e-05
-7.46455142958e-09
2.21097509037e-05
-5.73419638206e-09
2.21125895192e-05
-4.20007430483e-09
2.21146187596e-05
-2.97005775217e-09
2.21160275375e-05
-2.04319325486e-09
2.21169827084e-05
-1.37421606432e-09
2.21176175626e-05
-9.06693027249e-10
2.2118032294e-05
-5.88120982124e-10
2.21182990036e-05
-3.75546186516e-10
2.21184679572e-05
-2.36287466083e-10
2.21185734501e-05
-1.46539497361e-10
2.21186384136e-05
-8.95405504325e-11
2.21186778532e-05
-5.38532102273e-11
2.21187014283e-05
-3.18366960763e-11
2.21187152795e-05
-1.844440827e-11
2.21187232257e-05
-1.04066486324e-11
2.21187275716e-05
-5.66242304686e-12
2.21187298352e-05
-2.97331475658e-12
2.21187309209e-05
-1.49572469424e-12
2.21187313386e-05
-6.98643657365e-13
2.21187314511e-05
-3.28680942687e-13
2.21187314746e-05
-2.30504968193e-13
2.21187314703e-05
-2.07194089905e-13
2.21187314846e-05
-2.02936904422e-13
2.21187315292e-05
-2.01435380101e-13
2.21187315857e-05
-2.10368071897e-13
2.21187316288e-05
-2.57597774482e-13
2.21187316453e-05
-3.43189137953e-13
2.21187316581e-05
-4.4654409084e-13
2.21187317106e-05
-5.33948499066e-13
2.21187318165e-05
-5.93710543616e-13
2.21187319469e-05
-6.40305736062e-13
2.21187320681e-05
-6.90704008712e-13
2.21187321819e-05
-7.3792956836e-13
2.21187323209e-05
-7.62821612783e-13
2.21187325111e-05
-7.63410847159e-13
2.21187327514e-05
-7.6131797063e-13
2.21187330273e-05
-7.80680046372e-13
2.21187333355e-05
-8.26808152352e-13
2.21187336881e-05
-8.86248108615e-13
2.21187340911e-05
-9.47300248985e-13
2.21187345247e-05
-1.01567357375e-12
2.21187349547e-05
-1.10605351955e-12
2.21187353651e-05
-1.21977322288e-12
2.21187357774e-05
-1.33499177097e-12
2.21187362353e-05
-1.42238404527e-12
2.21187367702e-05
-1.46882150884e-12
2.21187373833e-05
-1.49492871197e-12
2.21187380487e-05
-1.53055923538e-12
2.21187387311e-05
-1.59541093267e-12
2.21187394065e-05
-1.69008859719e-12
2.21187400727e-05
-1.79740304993e-12
2.21187407489e-05
-1.89389075722e-12
2.21187414696e-05
-1.96387954879e-12
2.21187422733e-05
-2.00545998985e-12
2.21187431855e-05
-2.02688398926e-12
2.21187441986e-05
-2.0431388228e-12
2.21187452653e-05
-2.07426002519e-12
2.21187463239e-05
-2.13867581403e-12
2.21187473462e-05
-2.23836434262e-12
2.21187483687e-05
-2.34857960695e-12
2.21187494691e-05
-2.43023737588e-12
2.21187507032e-05
-2.46040326165e-12
2.21187520564e-05
-2.45369239134e-12
2.2118753455e-05
-2.45401920664e-12
2.21187548269e-05
-2.50455544984e-12
2.21187561609e-05
-2.6203716587e-12
2.21187575158e-05
-2.78202137362e-12
2.21187589701e-05
-2.95229245153e-12
2.21187605493e-05
-3.10649858584e-12
2.21187621961e-05
-3.25479264267e-12
2.21187638212e-05
-3.4314658254e-12
2.21187654026e-05
-3.65220275819e-12
2.21187670375e-05
-3.88129600389e-12
2.21187688791e-05
-4.05599147089e-12
2.21187710035e-05
-4.16023674589e-12
2.21187733478e-05
-4.26910535052e-12
2.21187757977e-05
-4.49544422058e-12
2.21187783422e-05
-4.8839634633e-12
2.21187811306e-05
-5.36966996841e-12
2.21187843739e-05
-5.8543459872e-12
2.21187882042e-05
-6.3285499421e-12
2.2118792648e-05
-6.91447656739e-12
2.21187977242e-05
-7.78568186e-12
2.2118803539e-05
-9.01471598069e-12
2.211881037e-05
-1.05803676935e-11
2.21188185469e-05
-1.24647496898e-11
2.21188283622e-05
-1.47408176753e-11
2.21188401186e-05
-1.75810608624e-11
2.21188542486e-05
-2.11479627895e-11
2.21188713529e-05
-2.550892279e-11
2.21188920708e-05
-3.06639876063e-11
2.21189167668e-05
-3.6499381449e-11
2.21189478602e-05
-4.52956188051e-11
2.21189871087e-05
-5.64823863195e-11
2.2119036153e-05
-7.00741702787e-11
2.21190973001e-05
-8.7021363962e-11
2.21191734362e-05
-1.08263846213e-10
2.21192683187e-05
-1.34889804046e-10
2.21193868421e-05
-1.68165494306e-10
2.21195351177e-05
-2.09694900781e-10
2.21197205547e-05
-2.6162978748e-10
2.21199522759e-05
-3.26734880092e-10
2.21202418015e-05
-4.08307266012e-10
2.2120603479e-05
-5.10304380384e-10
2.21210538157e-05
-6.37920547752e-10
2.21216175973e-05
-7.98310655733e-10
2.21223281149e-05
-1.00050356407e-09
2.21232206008e-05
-1.25449310141e-09
2.21243407579e-05
-1.57270610195e-09
2.21257461063e-05
-1.97126621749e-09
2.21275089229e-05
-2.47088655217e-09
2.21297203468e-05
-3.09753195791e-09
2.2132494984e-05
-3.88362899937e-09
2.21359765071e-05
-4.87010699628e-09
2.21403455396e-05
-6.10862832038e-09
2.21458300098e-05
-7.66410994771e-09
2.21527174014e-05
-9.61863786837e-09
2.2161369868e-05
-1.20768177236e-08
2.21722445274e-05
-1.51715499285e-08
2.21859202187e-05
-1.90710118713e-08
2.22031313051e-05
-2.3989535342e-08
2.22248112477e-05
-3.02031066493e-08
2.22521505198e-05
-3.80682814079e-08
2.22866731244e-05
-4.80469580738e-08
2.23303386186e-05
-6.07427426821e-08
2.23856823053e-05
-7.69524679605e-08
2.24560091473e-05
-9.77389448993e-08
2.25456645681e-05
-1.24539817551e-07
2.26604273931e-05
-1.59333272966e-07
2.28080991096e-05
-2.04898668377e-07
2.29994164759e-05
-2.65254411158e-07
2.32495495655e-05
-3.4644267399e-07
2.3580729558e-05
-4.58062250184e-07
2.40271584448e-05
-6.16568127416e-07
2.46447342366e-05
-8.53015547612e-07
2.55310038364e-05
-1.23227664251e-06
2.68645095408e-05
-1.90044550515e-06
2.89655381791e-05
-3.20027396179e-06
3.23049794373e-05
-5.96051873394e-06
-1.20365866044e-05
3.69096339176e-05
5.35872408878e-05
1.25205464033e-05
5.2932072408e-05
1.78458158676e-05
4.96834334578e-05
1.5857694974e-05
4.59329415088e-05
1.23063828524e-05
4.26142769463e-05
8.94912165745e-06
4.00086069433e-05
6.27960617566e-06
3.80958084476e-05
4.3035055573e-06
3.67541032843e-05
2.88486646856e-06
3.58477555409e-05
1.88517715457e-06
3.52575983642e-05
1.19373662499e-06
3.48884372149e-05
7.2648856545e-07
3.46681610222e-05
4.19978885705e-07
3.45443237257e-05
2.26256669708e-07
3.44802358852e-05
1.09356854914e-07
3.44512653201e-05
4.28578802006e-08
3.4441582707e-05
7.97492938395e-09
3.44415381296e-05
-8.13962708769e-09
3.44455941845e-05
-1.38362571091e-08
3.44507878997e-05
-1.42541037651e-08
3.44557072601e-05
-1.23838722703e-08
3.44598042631e-05
-9.83112572753e-09
3.44629733133e-05
-7.36905797921e-09
3.44653073109e-05
-5.30386926988e-09
3.44669662974e-05
-3.70190463984e-09
3.44681136241e-05
-2.52129779094e-09
3.44688897571e-05
-1.68260436811e-09
3.44694051307e-05
-1.10331098978e-09
3.44697418097e-05
-7.12152732318e-10
3.4469958508e-05
-4.53019353261e-10
3.44700960821e-05
-2.84161265801e-10
3.44701822793e-05
-1.75753610787e-10
3.44702355673e-05
-1.07126563842e-10
3.44702680532e-05
-6.42737748267e-11
3.44702875684e-05
-3.78796643245e-11
3.44702990979e-05
-2.18580313199e-11
3.44703057646e-05
-1.23078493336e-11
3.44703094854e-05
-6.74294824086e-12
3.44703114834e-05
-3.58357798366e-12
3.44703125375e-05
-1.85747725072e-12
3.44703130571e-05
-9.62158180964e-13
3.44703132482e-05
-5.23324997278e-13
3.44703132996e-05
-3.11814655085e-13
3.44703133165e-05
-2.2502174241e-13
3.44703133216e-05
-2.01697566348e-13
3.44703133021e-05
-2.30509530208e-13
3.44703132567e-05
-3.28199216212e-13
3.44703131885e-05
-4.54794488883e-13
3.44703131317e-05
-5.80739153976e-13
3.44703131185e-05
-6.867394831e-13
3.44703131457e-05
-7.73599203359e-13
3.4470313184e-05
-8.50820097502e-13
3.44703132104e-05
-9.13730766709e-13
3.44703132322e-05
-9.49485124674e-13
3.44703132727e-05
-9.56330322628e-13
3.44703133464e-05
-9.52341403773e-13
3.44703134518e-05
-9.61920076318e-13
3.44703135848e-05
-9.96579973493e-13
3.44703137516e-05
-1.05105161517e-12
3.44703139626e-05
-1.11796775717e-12
3.44703142143e-05
-1.20208306328e-12
3.44703144824e-05
-1.31616711118e-12
3.44703147396e-05
-1.46240755531e-12
3.44703149815e-05
-1.61935601633e-12
3.4470315233e-05
-1.75137536502e-12
3.44703155269e-05
-1.83405261064e-12
3.44703158777e-05
-1.87320042787e-12
3.44703162818e-05
-1.91348572367e-12
3.44703167161e-05
-1.98512656721e-12
3.44703171568e-05
-2.09884047958e-12
3.4470317592e-05
-2.24056193925e-12
3.44703180215e-05
-2.37653726098e-12
3.447031846e-05
-2.47867930233e-12
3.44703189346e-05
-2.53855483268e-12
3.44703194794e-05
-2.56769679138e-12
3.44703201169e-05
-2.58871104613e-12
3.44703208361e-05
-2.6254622748e-12
3.44703215885e-05
-2.69550668663e-12
3.44703223196e-05
-2.80180668523e-12
3.44703230162e-05
-2.92604863215e-12
3.44703237246e-05
-3.03440874411e-12
3.44703245164e-05
-3.09878693523e-12
3.44703254275e-05
-3.11907095394e-12
3.44703264264e-05
-3.12724586645e-12
3.44703274376e-05
-3.16908150442e-12
3.44703284037e-05
-3.27808254881e-12
3.44703293336e-05
-3.45754830862e-12
3.44703303005e-05
-3.68332593634e-12
3.44703313803e-05
-3.922382839e-12
3.44703325817e-05
-4.16040149345e-12
3.44703338332e-05
-4.41270959032e-12
3.4470335056e-05
-4.70214186684e-12
3.44703362608e-05
-5.01930475643e-12
3.44703375696e-05
-5.31803927446e-12
3.44703391189e-05
-5.56311562385e-12
3.44703409411e-05
-5.79683809076e-12
3.44703429585e-05
-6.13150326081e-12
3.44703451064e-05
-6.65715297196e-12
3.44703474531e-05
-7.36067910182e-12
3.44703501856e-05
-8.15073777964e-12
3.44703534762e-05
-8.97355956323e-12
3.44703573751e-05
-9.89709988057e-12
3.44703618174e-05
-1.10571827706e-11
3.44703668621e-05
-1.26848449384e-11
3.44703731713e-05
-1.52784671655e-11
3.44703809765e-05
-1.82934228375e-11
3.44703906198e-05
-2.19149436709e-11
3.44704024548e-05
-2.638963791e-11
3.44704169632e-05
-3.20304758451e-11
3.44704348858e-05
-3.91070863731e-11
3.44704572349e-05
-4.78498120599e-11
3.44704852938e-05
-5.86049151307e-11
3.44705209379e-05
-7.20069703855e-11
3.44705646588e-05
-8.89466084616e-11
3.44706184978e-05
-1.10295356484e-10
3.44706855513e-05
-1.37085631874e-10
3.44707691844e-05
-1.70639820133e-10
3.44708735018e-05
-2.12664846815e-10
3.44710037807e-05
-2.6527760717e-10
3.44711667501e-05
-3.31109565031e-10
3.4471370748e-05
-4.13517622381e-10
3.44716260355e-05
-5.16822387421e-10
3.44719455259e-05
-6.46386846211e-10
3.4472345692e-05
-8.08726310777e-10
3.44728473565e-05
-1.01201263698e-09
3.44734764279e-05
-1.26688910479e-09
3.44742648791e-05
-1.58687896141e-09
3.44752529324e-05
-1.9889395092e-09
3.44764921091e-05
-2.49387565311e-09
3.44780470053e-05
-3.12743109917e-09
3.44799983094e-05
-3.92242160541e-09
3.44824475305e-05
-4.92025310843e-09
3.44855226416e-05
-6.17274428113e-09
3.44893844346e-05
-7.74519921272e-09
3.44942348268e-05
-9.72024367614e-09
3.45003281457e-05
-1.22019457107e-08
3.45079851704e-05
-1.53212641787e-08
3.45176102805e-05
-1.92439650329e-08
3.45297137165e-05
-2.41806256851e-08
3.45449406255e-05
-3.03985084572e-08
3.45641075985e-05
-3.82372567775e-08
3.45882494076e-05
-4.81306595815e-08
3.46186811587e-05
-6.06351628423e-08
3.4657079802e-05
-7.6467470789e-08
3.47055894717e-05
-9.65566870926e-08
3.47669623747e-05
-1.22116028586e-07
3.48447515306e-05
-1.54742246131e-07
3.49435732658e-05
-1.96560420705e-07
3.506947152e-05
-2.50437502148e-07
3.52304396966e-05
-3.20301502555e-07
3.54371848162e-05
-4.11644166519e-07
3.57042792721e-05
-5.32349163748e-07
3.60519608097e-05
-6.9412376077e-07
3.65090324734e-05
-9.15133300457e-07
3.71176061106e-05
-1.22514200437e-06
3.79406508143e-05
-1.67606052536e-06
3.90725832061e-05
-2.36420888568e-06
4.06481272326e-05
-3.47599127596e-06
4.28215855143e-05
-5.37373323426e-06
4.55994942146e-05
-8.73842785534e-06
-1.4660211472e-05
4.82231175393e-05
5.357411877e-05
8.94642738113e-06
5.56038334649e-05
1.58161021602e-05
5.528836427e-05
1.61731632803e-05
5.3696027899e-05
1.38987195664e-05
5.17174735577e-05
1.09276763174e-05
4.98586568659e-05
8.13842244787e-06
4.83287822627e-05
5.83338000091e-06
4.71665935503e-05
4.04705503016e-06
4.63332511907e-05
2.71851939601e-06
4.57638374655e-05
1.76315042817e-06
4.53920416156e-05
1.09828415137e-06
4.51604465687e-05
6.51574186094e-07
4.50236366018e-05
3.63066633376e-07
4.49479303086e-05
1.85063236852e-07
4.49096688e-05
8.11196256157e-08
4.48930677505e-05
2.45759838279e-08
4.48880988606e-05
-3.17071047631e-09
4.48887845784e-05
-1.45219950172e-08
4.48917352176e-05
-1.72048155189e-08
4.48951983394e-05
-1.58469767667e-08
4.48983699239e-05
-1.30026515309e-08
4.49009622867e-05
-9.96130064551e-09
4.49029435919e-05
-7.28495632844e-09
4.490439094e-05
-5.14901143149e-09
4.49054139052e-05
-3.54405516893e-09
4.49061187195e-05
-2.38726778075e-09
4.49065943991e-05
-1.57891844684e-09
4.49069098643e-05
-1.02764063623e-09
4.49071159051e-05
-6.59126846311e-10
4.49072486474e-05
-4.16948014613e-10
4.49073330778e-05
-2.60179236431e-10
4.49073861117e-05
-1.60112657695e-10
4.49074190201e-05
-9.71018946872e-11
4.49074391937e-05
-5.79558240704e-11
4.49074513898e-05
-3.39775791001e-11
4.49074586192e-05
-1.95220158059e-11
4.4907462778e-05
-1.09704794085e-11
4.49074650807e-05
-6.03038789943e-12
4.49074662925e-05
-3.263473222e-12
4.49074669005e-05
-1.77027147068e-12
4.49074672174e-05
-9.92317059481e-13
4.49074673963e-05
-5.76311788953e-13
4.49074674767e-05
-3.54401826581e-13
4.49074674804e-05
-2.67795082882e-13
4.49074674192e-05
-2.79361645841e-13
4.49074672952e-05
-3.61942124779e-13
4.49074671389e-05
-4.75469598159e-13
4.49074669869e-05
-5.96262658408e-13
4.4907466865e-05
-7.14727810219e-13
4.49074667735e-05
-8.25108653979e-13
4.49074666903e-05
-9.13981051004e-13
4.49074665973e-05
-9.66855760993e-13
4.49074664909e-05
-9.82403821325e-13
4.49074663794e-05
-9.79303395557e-13
4.49074662749e-05
-9.8230232321e-13
4.49074661871e-05
-1.00339324893e-12
4.49074661232e-05
-1.03948634586e-12
4.49074660893e-05
-1.08659889399e-12
4.49074660855e-05
-1.15253376108e-12
4.49074661003e-05
-1.25406722725e-12
4.49074661144e-05
-1.40004418167e-12
4.49074661152e-05
-1.57526533085e-12
4.49074661092e-05
-1.74259851851e-12
4.49074661164e-05
-1.86557380734e-12
4.49074661545e-05
-1.93549312979e-12
4.49074662264e-05
-1.97564452207e-12
4.4907466317e-05
-2.03313878062e-12
4.49074664146e-05
-2.1374966877e-12
4.49074665116e-05
-2.28462477254e-12
4.49074666044e-05
-2.4439445977e-12
4.49074666921e-05
-2.57560707837e-12
4.49074667779e-05
-2.65674021604e-12
4.49074668772e-05
-2.69191467702e-12
4.49074670173e-05
-2.70698166842e-12
4.49074672204e-05
-2.73280634408e-12
4.49074674799e-05
-2.79070376931e-12
4.49074677561e-05
-2.88473408575e-12
4.49074680063e-05
-3.00026927999e-12
4.49074682249e-05
-3.1101421001e-12
4.49074684551e-05
-3.18932184548e-12
4.49074687539e-05
-3.23123811366e-12
4.49074691427e-05
-3.25434364845e-12
4.49074695843e-05
-3.29403228738e-12
4.49074700098e-05
-3.38493326904e-12
4.4907470375e-05
-3.54617602449e-12
4.49074707029e-05
-3.77187256103e-12
4.49074710741e-05
-4.03962300601e-12
4.49074715616e-05
-4.32611900071e-12
4.49074721649e-05
-4.62762426413e-12
4.49074728132e-05
-4.95977717133e-12
4.49074734471e-05
-5.33197301641e-12
4.49074740998e-05
-5.72029808457e-12
4.49074748886e-05
-6.09277820316e-12
4.49074759128e-05
-6.45739541637e-12
4.49074771757e-05
-6.89485958112e-12
4.4907478623e-05
-7.51110967635e-12
4.49074802587e-05
-8.35077481217e-12
4.49074822062e-05
-9.37032694169e-12
4.49074846512e-05
-1.05127976649e-11
4.4907487735e-05
-1.18176967504e-11
4.49074915391e-05
-1.34537439741e-11
4.49074962236e-05
-1.56431699707e-11
4.49075020286e-05
-1.85426866385e-11
4.49075089076e-05
-2.22054720784e-11
4.49075174003e-05
-2.66871499257e-11
4.49075278965e-05
-3.21992599384e-11
4.49075407935e-05
-3.91193233631e-11
4.49075566882e-05
-4.78625891522e-11
4.49075764466e-05
-5.87897017265e-11
4.49076011143e-05
-7.23004469829e-11
4.49076318307e-05
-8.90453599287e-11
4.49076699904e-05
-1.10032656047e-10
4.49077175725e-05
-1.36607183443e-10
4.4907777162e-05
-1.70031977248e-10
4.49078518425e-05
-2.11838840782e-10
4.49079453149e-05
-2.64122410038e-10
4.49080622325e-05
-3.29590570969e-10
4.49082085861e-05
-4.1161523633e-10
4.49083919722e-05
-5.1438847655e-10
4.49086217995e-05
-6.43225113533e-10
4.49089097841e-05
-8.04838431079e-10
4.49092707786e-05
-1.00755274957e-09
4.49097236248e-05
-1.26166118063e-09
4.49102919061e-05
-1.5802314996e-09
4.49110049978e-05
-1.98002243242e-09
4.49118998819e-05
-2.48207354237e-09
4.49130232248e-05
-3.11252411762e-09
4.49144336435e-05
-3.90408770978e-09
4.49162046012e-05
-4.89796863867e-09
4.4918428463e-05
-6.14616406713e-09
4.4921221789e-05
-7.71377994247e-09
4.49247313531e-05
-9.6824900203e-09
4.49291415176e-05
-1.21554627365e-08
4.49346842589e-05
-1.5263072271e-08
4.49416520433e-05
-1.9169624915e-08
4.49504134008e-05
-2.40823933397e-08
4.49614326731e-05
-3.02635502734e-08
4.4975296106e-05
-3.80450400039e-08
4.49927449191e-05
-4.78478782127e-08
4.50147162574e-05
-6.02080956705e-08
4.50423962668e-05
-7.58100303375e-08
4.50772902587e-05
-9.55290278076e-08
4.51213130129e-05
-1.20490119561e-07
4.5176905403e-05
-1.52148848936e-07
4.52471891233e-05
-1.92399543467e-07
4.5336172742e-05
-2.43725616509e-07
4.54490279519e-05
-3.09415814935e-07
4.55924666705e-05
-3.93876619224e-07
4.57752605018e-05
-5.03095265435e-07
4.60089675216e-05
-6.45351622562e-07
4.63089661683e-05
-8.32348553283e-07
4.66959248611e-05
-1.08108247602e-06
4.71978590468e-05
-1.41706696461e-06
4.78528068666e-05
-1.88008922853e-06
4.8711480782e-05
-2.53473543161e-06
4.98368782551e-05
-3.48960527228e-06
5.12911060491e-05
-4.93021929926e-06
5.30828020762e-05
-7.16543006445e-06
5.50102583025e-05
-1.06658818455e-05
-1.59760143276e-05
5.63260614486e-05
5.27635415897e-05
6.18288492014e-06
5.57538659002e-05
1.28257796218e-05
5.73481677733e-05
1.45788603879e-05
5.7684304106e-05
1.35625828073e-05
5.72620516156e-05
1.13499285319e-05
5.65215174281e-05
8.87895681806e-06
5.57411494859e-05
6.61374738848e-06
5.50581049153e-05
4.73009957319e-06
5.45194245198e-05
3.25719962744e-06
5.41242431284e-05
2.15833151007e-06
5.38506895724e-05
1.37183763713e-06
5.36709616333e-05
8.3130201572e-07
5.35588172184e-05
4.75210886599e-07
5.34926351877e-05
2.51245387359e-07
5.34560841054e-05
1.17670624472e-07
5.34376307143e-05
4.30292816431e-08
5.34295742112e-05
4.88576625029e-09
5.34270938596e-05
-1.20417932068e-08
5.34273030086e-05
-1.74141065812e-08
5.34285931488e-05
-1.71371924792e-08
5.34301373277e-05
-1.45468913542e-08
5.34315589591e-05
-1.13829085414e-08
5.34327233795e-05
-8.44922503227e-09
5.34336144793e-05
-6.03990064485e-09
5.34342663226e-05
-4.19569249407e-09
5.34347278854e-05
-2.84862535065e-09
5.34350466484e-05
-1.89750633885e-09
5.34352624048e-05
-1.24328045147e-09
5.34354060233e-05
-8.02658097386e-10
5.34355002642e-05
-5.11096815056e-10
5.34355613082e-05
-3.21134082659e-10
5.34356003761e-05
-1.99108860707e-10
5.34356251106e-05
-1.21762583411e-10
5.34356406132e-05
-7.3365195454e-11
5.34356502168e-05
-4.34736599917e-11
5.34356560631e-05
-2.52804079496e-11
5.34356595339e-05
-1.44028656115e-11
5.34356615352e-05
-8.04304806067e-12
5.34356626696e-05
-4.42590609199e-12
5.34356633157e-05
-2.41646515638e-12
5.34356636711e-05
-1.30196310153e-12
5.34356638344e-05
-6.81427278771e-13
5.3435663859e-05
-3.63713391461e-13
5.34356637813e-05
-2.49298705e-13
5.34356636386e-05
-2.631523788e-13
5.3435663455e-05
-3.4505247143e-13
5.34356632539e-05
-4.57013490694e-13
5.34356630602e-05
-5.84603218646e-13
5.34356628941e-05
-7.15153479696e-13
5.34356627583e-05
-8.26954994105e-13
5.34356626354e-05
-8.98111465148e-13
5.34356624986e-05
-9.24156247996e-13
5.34356623313e-05
-9.24869358744e-13
5.34356621381e-05
-9.27804885146e-13
5.34356619386e-05
-9.45133001569e-13
5.34356617522e-05
-9.70051537635e-13
5.34356615872e-05
-9.94886502113e-13
5.34356614418e-05
-1.02832835086e-12
5.343566131e-05
-1.09451676312e-12
5.34356611857e-05
-1.21380424571e-12
5.34356610658e-05
-1.38220376271e-12
5.34356609518e-05
-1.56657724526e-12
5.34356608485e-05
-1.7219756532e-12
5.34356607567e-05
-1.8208423101e-12
5.34356606688e-05
-1.87257083841e-12
5.34356605768e-05
-1.91681684045e-12
5.34356604767e-05
-1.99767901107e-12
5.34356603759e-05
-2.13165675125e-12
5.34356602875e-05
-2.29825817271e-12
5.34356602139e-05
-2.453944111e-12
5.34356601434e-05
-2.55982386942e-12
5.3435660061e-05
-2.6064839374e-12
5.34356599674e-05
-2.61630048468e-12
5.34356598862e-05
-2.62640671733e-12
5.34356598454e-05
-2.66569713592e-12
5.34356598492e-05
-2.74113916444e-12
5.34356598702e-05
-2.8385304507e-12
5.34356598741e-05
-2.93324168257e-12
5.34356598542e-05
-3.00455679358e-12
5.34356598405e-05
-3.04754655174e-12
5.34356598733e-05
-3.07642122337e-12
5.34356599623e-05
-3.11791208542e-12
5.34356600703e-05
-3.19948612312e-12
5.34356601381e-05
-3.33938423833e-12
5.34356601358e-05
-3.54099076773e-12
5.34356600985e-05
-3.79094334573e-12
5.34356601053e-05
-4.06875211804e-12
5.34356602142e-05
-4.36323319139e-12
5.34356604117e-05
-4.68344833843e-12
5.34356606333e-05
-5.04705446159e-12
5.34356608409e-05
-5.45400552059e-12
5.3435661075e-05
-5.88028480153e-12
5.34356614177e-05
-6.31724648712e-12
5.34356619192e-05
-6.81014357161e-12
5.34356625738e-05
-7.44944722768e-12
5.34356633758e-05
-8.30899634013e-12
5.34356643895e-05
-9.39456456145e-12
5.34356657459e-05
-1.06698748916e-11
5.34356675685e-05
-1.21453395506e-11
5.34356699169e-05
-1.3943959968e-11
5.34356728236e-05
-1.6273869843e-11
5.34356764007e-05
-1.9332106062e-11
5.34356809285e-05
-2.32517136241e-11
5.34356868191e-05
-2.8141405097e-11
5.34356944063e-05
-3.41217626834e-11
5.34357039805e-05
-4.15589366331e-11
5.34357159529e-05
-5.09694074659e-11
5.34357310138e-05
-6.28431918399e-11
5.34357500919e-05
-7.76427238436e-11
5.34357741939e-05
-9.60068475747e-11
5.34358044012e-05
-1.18936276418e-10
5.34358421281e-05
-1.47753836232e-10
5.34358893019e-05
-1.84020195816e-10
5.3435948508e-05
-2.29454668941e-10
5.34360228815e-05
-2.86242950752e-10
5.3436116171e-05
-3.57323643999e-10
5.34362331032e-05
-4.46442325747e-10
5.34363797646e-05
-5.58218753536e-10
5.3436563825e-05
-6.98387990191e-10
5.34367947978e-05
-8.74189989649e-10
5.34370846248e-05
-1.09475747872e-09
5.34374485121e-05
-1.37151518897e-09
5.34379055658e-05
-1.71866913464e-09
5.34384796093e-05
-2.1542504147e-09
5.34392005019e-05
-2.70111227456e-09
5.34401060559e-05
-3.387850693e-09
5.34412439166e-05
-4.2502359313e-09
5.34426736177e-05
-5.33335799817e-09
5.34444698439e-05
-6.69402402038e-09
5.34467269091e-05
-8.4034663257e-09
5.34495638623e-05
-1.05509453586e-08
5.34531302861e-05
-1.32489127051e-08
5.34576140632e-05
-1.66393791074e-08
5.34632518989e-05
-2.09013125916e-08
5.34703422087e-05
-2.62602056905e-08
5.34792607127e-05
-3.30008971282e-08
5.34904806553e-05
-4.1483563032e-08
5.35045990591e-05
-5.21636104957e-08
5.35223693806e-05
-6.56182299332e-08
5.35447426615e-05
-8.25814719213e-08
5.35729208596e-05
-1.03988446808e-07
5.36084248244e-05
-1.31032964317e-07
5.36531807297e-05
-1.65245995251e-07
5.3709632478e-05
-2.08600728303e-07
5.37808869063e-05
-2.63653537595e-07
5.38709003159e-05
-3.33738558787e-07
5.39847231436e-05
-4.23239310103e-07
5.41288210564e-05
-5.37975176695e-07
5.43114911473e-05
-6.85765014063e-07
5.45434022052e-05
-8.77262106473e-07
5.48382811601e-05
-1.12722736641e-06
5.52137283051e-05
-1.45653045539e-06