/*--------------------------------*- C++ -*----------------------------------*\
| =========                 |                                                 |
| \\      /  F ield         | OpenFOAM: The Open Source CFD Toolbox           |
|  \\    /   O peration     | Version:  2106                                  |
|   \\  /    A nd           | Website:  www.openfoam.com                      |
|    \\/     M anipulation  |                                                 |
\*---------------------------------------------------------------------------*/
FoamFile
{
    version     2.0;
    format      ascii;
    arch        "LSB;label=32;scalar=64";
    class       surfaceScalarField;
    location    "0.27";
    object      phi;
}
// * * * * * * * * * * * * * * * * * * * * * * * * * * * * * * * * * * * * * //

dimensions      [0 3 -1 0 0 0 0];

oriented        oriented;

internalField   nonuniform List<scalar> 
18840
(
3.37543048726e-05
1.62456951325e-05
2.25359617847e-05
1.12183418822e-05
1.63023782738e-05
6.23358458425e-06
1.28098249055e-05
3.49255296457e-06
1.08065800561e-05
2.00324507596e-06
9.60476891949e-06
1.20181084006e-06
8.85167843004e-06
7.53090586641e-07
8.36503069051e-06
4.86647810577e-07
8.04518602413e-06
3.19844554012e-07
7.83374188566e-06
2.11444187298e-07
7.69428191875e-06
1.39459977329e-07
7.6030801594e-06
9.1201694384e-08
7.54426520209e-06
5.88149035932e-08
7.507076863e-06
3.71882836158e-08
7.48418888554e-06
2.28879672699e-08
7.47062334045e-06
1.35655383203e-08
7.46302077352e-06
7.60252804191e-09
7.45913801921e-06
3.88273238057e-09
7.45749830383e-06
1.63969710742e-09
7.45714523622e-06
3.53045084425e-10
7.45748258655e-06
-3.37376011302e-10
7.45813364322e-06
-6.51070648293e-10
7.45888562447e-06
-7.5199110924e-10
7.45961928843e-06
-7.33685739637e-10
7.46027570493e-06
-6.56468376287e-10
7.46083212612e-06
-5.56489843623e-10
7.4612862861e-06
-4.54215231054e-10
7.46164649112e-06
-3.60239912293e-10
7.46192566134e-06
-2.79177403539e-10
7.46213785931e-06
-2.1218813912e-10
7.46229641587e-06
-1.58552717293e-10
7.46241307118e-06
-1.16660960203e-10
7.4624976596e-06
-8.46036193398e-11
7.46255814381e-06
-6.05008247177e-11
7.46260080203e-06
-4.26704329979e-11
7.46263046729e-06
-2.96741122977e-11
7.46265080278e-06
-2.03371536275e-11
7.46266452887e-06
-1.37370479367e-11
7.46267364607e-06
-9.14730825967e-12
7.46267961623e-06
-5.99899969231e-12
7.46268347668e-06
-3.88174555925e-12
7.46268598719e-06
-2.53941596009e-12
7.46268757131e-06
-1.6173855056e-12
7.46268852098e-06
-9.7040094126e-13
7.46268913125e-06
-6.16756713558e-13
7.46268957201e-06
-4.3493640103e-13
7.46268993297e-06
-3.34460121996e-13
7.46269026843e-06
-2.5949235218e-13
7.4626906108e-06
-2.12026504618e-13
7.46269097878e-06
-2.21827584699e-13
7.46269136448e-06
-2.64644582972e-13
7.46269179167e-06
-3.19470632236e-13
7.46269228189e-06
-3.80448830618e-13
7.462692844e-06
-4.42256564412e-13
7.46269346037e-06
-4.84291543554e-13
7.46269411848e-06
-4.98960482542e-13
7.46269481891e-06
-5.07408057162e-13
7.46269553797e-06
-5.3505466908e-13
7.4626962425e-06
-5.74594102424e-13
7.46269693839e-06
-6.12190229833e-13
7.46269766381e-06
-6.48608623131e-13
7.4626984334e-06
-6.80510955907e-13
7.46269923291e-06
-6.95837717919e-13
7.46270005373e-06
-7.03022442894e-13
7.46270090597e-06
-7.27907967373e-13
7.4627017902e-06
-7.8298648567e-13
7.4627027044e-06
-8.46500815442e-13
7.46270366193e-06
-8.90866905444e-13
7.4627046814e-06
-9.10785783562e-13
7.46270575408e-06
-9.25224549851e-13
7.46270685574e-06
-9.43869510262e-13
7.46270797343e-06
-9.53343829214e-13
7.46270909574e-06
-9.56141785973e-13
7.46271019959e-06
-9.862941872e-13
7.46271127966e-06
-1.05898072881e-12
7.46271236893e-06
-1.14070316681e-12
7.46271350799e-06
-1.19916049636e-12
7.46271472048e-06
-1.25142052812e-12
7.46271600226e-06
-1.32796910286e-12
7.46271733056e-06
-1.41068829613e-12
7.46271870127e-06
-1.45242066605e-12
7.46272013317e-06
-1.45184891701e-12
7.46272162803e-06
-1.46445129025e-12
7.4627231525e-06
-1.515156825e-12
7.46272469443e-06
-1.55901268118e-12
7.46272628776e-06
-1.57663218815e-12
7.46272793555e-06
-1.61779325742e-12
7.46272960373e-06
-1.69961669213e-12
7.46273129767e-06
-1.76078013974e-12
7.46273306248e-06
-1.78814033139e-12
7.46273491465e-06
-1.85585404262e-12
7.46273683537e-06
-1.97663346735e-12
7.46273884774e-06
-2.08867531199e-12
7.46274100474e-06
-2.17301769974e-12
7.46274330618e-06
-2.25199912777e-12
7.46274570588e-06
-2.33358394849e-12
7.46274818448e-06
-2.41930834195e-12
7.4627507827e-06
-2.54170787736e-12
7.46275353334e-06
-2.71944575272e-12
7.46275644039e-06
-2.92564396478e-12
7.46275956648e-06
-3.16446353731e-12
7.46276303734e-06
-3.47112447314e-12
7.46276692924e-06
-3.86354276428e-12
7.4627712637e-06
-4.31068043382e-12
7.46277612781e-06
-4.84820298056e-12
7.46278169593e-06
-5.53355864463e-12
7.46278809129e-06
-6.36530232466e-12
7.46279548811e-06
-7.35035827372e-12
7.46280417611e-06
-8.57980588286e-12
7.46281453328e-06
-1.01646923638e-11
7.46282690121e-06
-1.21456820581e-11
7.46284169417e-06
-1.45957621361e-11
7.46285951968e-06
-1.76371280268e-11
7.46288113302e-06
-2.14777037105e-11
7.46290744573e-06
-2.62740236896e-11
7.46293962985e-06
-3.21910189059e-11
7.4629791355e-06
-3.95155957779e-11
7.46302769592e-06
-4.86153848329e-11
7.46308740023e-06
-5.98219911633e-11
7.46316089374e-06
-7.35537524768e-11
7.4632515282e-06
-9.05753471152e-11
7.46336344322e-06
-1.11839769846e-10
7.4635019168e-06
-1.3837076472e-10
7.4636742517e-06
-1.72209555899e-10
7.46389056818e-06
-2.162504115e-10
7.4641542354e-06
-2.63708182072e-10
7.4644795434e-06
-3.25551008861e-10
7.46488219107e-06
-4.02688312245e-10
7.46538082302e-06
-4.9854163378e-10
7.46599840433e-06
-6.17455382535e-10
7.46676325601e-06
-7.64765913038e-10
7.46771043235e-06
-9.47237895695e-10
7.46888366371e-06
-1.17329534394e-09
7.47033721129e-06
-1.45347558729e-09
7.47213816451e-06
-1.80093274474e-09
7.47436996062e-06
-2.23189392744e-09
7.47713632271e-06
-2.76649456976e-09
7.48056630815e-06
-3.43006423707e-09
7.4848204965e-06
-4.25431719576e-09
7.49009905133e-06
-5.27880582716e-09
7.49665221431e-06
-6.55334440151e-09
7.50479311186e-06
-8.1409810384e-09
7.51491468562e-06
-1.01216768271e-08
7.52751168758e-06
-1.25972217712e-08
7.54320975368e-06
-1.56983102242e-08
7.56280408468e-06
-1.959443124e-08
7.58731150002e-06
-2.45073744984e-08
7.61804248241e-06
-3.07309207899e-08
7.65670291274e-06
-3.86604356489e-08
7.70554115428e-06
-4.88383870442e-08
7.76757243495e-06
-6.20312878718e-08
7.84694730362e-06
-7.93746221339e-08
7.94963421073e-06
-1.02686789369e-07
8.08491336866e-06
-1.35278770865e-07
8.26921160088e-06
-1.84297927644e-07
8.53696025064e-06
-2.6774845573e-07
8.97281093071e-06
-4.35850485563e-07
9.81403890449e-06
-8.4122856942e-07
1.17904093773e-05
-1.97637076003e-06
-5.35445911424e-06
1.71448680061e-05
5.01388827049e-05
1.61068136671e-05
4.41591286786e-05
1.71980941224e-05
3.7759873974e-05
1.26328400636e-05
3.26495141645e-05
8.60291219463e-06
2.89465821328e-05
5.70617753382e-06
2.63676029605e-05
3.78078978378e-06
2.45938849787e-05
2.5268084825e-06
2.33783981987e-05
1.70213475634e-06
2.25473236441e-05
1.15091902608e-06
2.19811566331e-05
7.77611140581e-07
2.15978042451e-05
5.22812334346e-07
2.13405412227e-05
3.48464650664e-07
2.11699437361e-05
2.29412369524e-07
2.10585360008e-05
1.4859596249e-07
2.0987184916e-05
9.42389721856e-08
2.09426213855e-05
5.81289973568e-08
2.09157068426e-05
3.45169973011e-08
2.09002070517e-05
1.93824922166e-08
2.08919195827e-05
9.92716165752e-09
2.08880544486e-05
4.21818643664e-09
2.08867847747e-05
9.32287052215e-10
2.08869497547e-05
-8.16087085925e-10
2.08878280345e-05
-1.63034464005e-09
2.08889864854e-05
-1.89224812436e-09
2.08901798277e-05
-1.84993344681e-09
2.08912803199e-05
-1.65708108473e-09
2.08922317562e-05
-1.40570799916e-09
2.08930194105e-05
-1.1479374313e-09
2.08936509879e-05
-9.10785720075e-10
2.08941448691e-05
-7.06065332005e-10
2.08945231273e-05
-5.36782855313e-10
2.08948076798e-05
-4.01178656597e-10
2.08950183261e-05
-2.9523149243e-10
2.0895171962e-05
-2.14142951943e-10
2.08952824571e-05
-1.53177300676e-10
2.08953608374e-05
-1.0807317295e-10
2.08954156746e-05
-7.52088246627e-11
2.08954535032e-05
-5.16190065115e-11
2.08954792135e-05
-3.49198359176e-11
2.08954964054e-05
-2.32478647369e-11
2.08955076721e-05
-1.51955701278e-11
2.08955148302e-05
-9.72846295984e-12
2.08955192748e-05
-6.08867630464e-12
2.08955220122e-05
-3.72109523162e-12
2.08955236389e-05
-2.20492478205e-12
2.08955245803e-05
-1.24000142526e-12
2.08955251105e-05
-6.54876361604e-13
2.08955254891e-05
-4.26663539115e-13
2.08955257702e-05
-3.09568214304e-13
2.08955260298e-05
-2.93286925236e-13
2.08955262878e-05
-3.36563057957e-13
2.08955265774e-05
-4.12973726987e-13
2.08955269181e-05
-4.95508369018e-13
2.08955273332e-05
-5.74660525641e-13
2.08955278103e-05
-6.51011129598e-13
2.08955283274e-05
-7.21135460851e-13
2.08955288733e-05
-7.84077504481e-13
2.08955294373e-05
-8.55878961261e-13
2.08955299966e-05
-9.41475099062e-13
2.08955305561e-05
-1.01362774381e-12
2.0895531147e-05
-1.05837231401e-12
2.08955317751e-05
-1.10069881666e-12
2.08955324165e-05
-1.15285676806e-12
2.08955330678e-05
-1.20573264268e-12
2.08955337503e-05
-1.25468240794e-12
2.08955344759e-05
-1.31896962963e-12
2.08955352365e-05
-1.40007675907e-12
2.08955360357e-05
-1.47109765456e-12
2.08955368837e-05
-1.50882053522e-12
2.08955377722e-05
-1.53828886416e-12
2.08955386831e-05
-1.58530137716e-12
2.08955395938e-05
-1.64859849087e-12
2.08955404838e-05
-1.72789497849e-12
2.08955413497e-05
-1.8368555696e-12
2.08955422044e-05
-1.97669155104e-12
2.08955430627e-05
-2.12589455752e-12
2.08955439425e-05
-2.25279278064e-12
2.08955448857e-05
-2.34056719672e-12
2.08955459231e-05
-2.40941709342e-12
2.08955470272e-05
-2.48726941646e-12
2.08955481573e-05
-2.56452933665e-12
2.08955493171e-05
-2.61834423359e-12
2.08955505389e-05
-2.66988020432e-12
2.08955518256e-05
-2.75461139722e-12
2.08955531469e-05
-2.85649533981e-12
2.08955544928e-05
-2.95351394922e-12
2.0895555883e-05
-3.07308279145e-12
2.08955573404e-05
-3.23186846732e-12
2.08955588688e-05
-3.39329966277e-12
2.08955604771e-05
-3.52880651301e-12
2.08955622112e-05
-3.66826627814e-12
2.08955641062e-05
-3.84927927392e-12
2.08955661847e-05
-4.0625024824e-12
2.08955684792e-05
-4.29677718783e-12
2.08955709972e-05
-4.58985902973e-12
2.08955737498e-05
-4.97042684231e-12
2.08955767836e-05
-5.41050515114e-12
2.08955801812e-05
-5.90357679445e-12
2.08955840137e-05
-6.51842593538e-12
2.08955883202e-05
-7.33163658093e-12
2.08955932184e-05
-8.25953946819e-12
2.0895598956e-05
-9.28544703702e-12
2.08956057247e-05
-1.05294133083e-11
2.08956136661e-05
-1.21090257582e-11
2.08956230554e-05
-1.4051050474e-11
2.08956342746e-05
-1.64481211836e-11
2.08956476746e-05
-1.94789638527e-11
2.08956637204e-05
-2.32253068135e-11
2.08956829727e-05
-2.76852635816e-11
2.08957058607e-05
-3.28115020401e-11
2.08957338909e-05
-3.98335138575e-11
2.08957689305e-05
-4.93743858715e-11
2.08958120568e-05
-6.07032825844e-11
2.08958651523e-05
-7.46395355217e-11
2.08959306222e-05
-9.18350205169e-11
2.08960114312e-05
-1.1304073972e-10
2.08961112632e-05
-1.39229122358e-10
2.08962346599e-05
-1.71691246683e-10
2.0896387172e-05
-2.11966200317e-10
2.08965756166e-05
-2.61875703789e-10
2.08968085227e-05
-3.23642233283e-10
2.08970965961e-05
-3.99983593794e-10
2.08974526765e-05
-4.94396883986e-10
2.08978916872e-05
-6.11380188875e-10
2.08984321046e-05
-7.5674611191e-10
2.08991063254e-05
-9.37709602457e-10
2.08999434239e-05
-1.16240224449e-09
2.0900981559e-05
-1.44062581222e-09
2.0902268254e-05
-1.78507517072e-09
2.09038627305e-05
-2.21161553003e-09
2.09058382938e-05
-2.7400889369e-09
2.09082858266e-05
-3.39486502775e-09
2.09113182051e-05
-4.20599410713e-09
2.09150754767e-05
-5.21110676549e-09
2.09197312961e-05
-6.45708557094e-09
2.09255013237e-05
-8.0021529488e-09
2.09326533948e-05
-9.91880322979e-09
2.09415206872e-05
-1.22975644264e-08
2.09525180397e-05
-1.52517604443e-08
2.09661624594e-05
-1.89233329173e-08
2.09830997351e-05
-2.34907066498e-08
2.10041379851e-05
-2.91792346315e-08
2.10302912541e-05
-3.62747394691e-08
2.10628360158e-05
-4.51417096146e-08
2.11033859019e-05
-5.6248185669e-08
2.11539918682e-05
-7.02005561834e-08
2.1217277759e-05
-8.77935075033e-08
2.12966291834e-05
-1.10082914972e-07
2.13964650063e-05
-1.38496697463e-07
2.15226394184e-05
-1.75012766238e-07
2.16830699695e-05
-2.22461760272e-07
2.18887810735e-05
-2.85085674738e-07
2.21557540579e-05
-3.69660386372e-07
2.25084343289e-05
-4.87959631845e-07
2.29867164314e-05
-6.62580440732e-07
2.36601640907e-05
-9.41196979204e-07
2.46550536727e-05
-1.43074047897e-06
2.61919327619e-05
-2.37810798197e-06
2.85742754927e-05
-4.35871303543e-06
-8.53681456978e-06
3.1756629184e-05
5.35844275898e-05
1.25223871315e-05
5.29166002544e-05
1.78659200183e-05
4.96393017395e-05
1.59101393282e-05
4.58382167188e-05
1.24039965594e-05
4.24428745832e-05
9.10151999727e-06
3.97331592087e-05
6.49050507995e-06
3.76912451053e-05
4.5687224031e-06
3.62011669003e-05
3.19221306208e-06
3.51355934759e-05
2.21649241571e-06
3.43848443584e-05
1.52836022046e-06
3.38626587825e-05
1.04499790313e-06
3.35040063552e-05
7.0711701971e-07
3.32609622943e-05
4.72456404976e-07
3.30987202189e-05
3.10837989768e-07
3.2992290178e-05
2.00668931474e-07
3.29239189821e-05
1.26500120074e-07
3.28811290581e-05
7.7306857375e-08
3.28552504721e-05
4.52610525441e-08
3.28403339875e-05
2.48436417132e-08
3.28323540805e-05
1.21980949396e-08
3.28286281966e-05
4.65816834189e-09
3.28274042557e-05
4.07836562456e-10
3.28275636554e-05
-1.78980142528e-09
3.28284096576e-05
-2.73834498352e-09
3.28295256959e-05
-2.96607233905e-09
3.2830675297e-05
-2.80677095419e-09
3.28317353977e-05
-2.46586051247e-09
3.28326518598e-05
-2.06442021528e-09
3.28334105149e-05
-1.66945385344e-09
3.28340188073e-05
-1.31436640802e-09
3.28344944444e-05
-1.01242561559e-09
3.28348587074e-05
-7.65435258315e-10
3.28351327095e-05
-5.69214731806e-10
3.28353355189e-05
-4.16931280639e-10
3.28354834146e-05
-3.01051711436e-10
3.28355897253e-05
-2.14394120859e-10
3.28356650651e-05
-1.50610350456e-10
3.28357177076e-05
-1.04351644799e-10
3.28357539591e-05
-7.12658289191e-11
3.28357785415e-05
-4.79156670089e-11
3.28357949384e-05
-3.16575930286e-11
3.28358056949e-05
-2.05112493119e-11
3.28358126153e-05
-1.30107190953e-11
3.28358169615e-05
-8.0589161297e-12
3.28358196416e-05
-4.84681651976e-12
3.28358213216e-05
-2.80257372384e-12
3.28358224059e-05
-1.54383396099e-12
3.28358230017e-05
-8.09646859514e-13
3.28358232747e-05
-4.09617814759e-13
3.28358234618e-05
-3.32718120058e-13
3.28358236174e-05
-3.55599403089e-13
3.28358237917e-05
-4.37830499224e-13
3.28358240085e-05
-5.35595281694e-13
3.28358242916e-05
-6.3088674642e-13
3.28358246361e-05
-7.24856113221e-13
3.28358250241e-05
-8.41150781622e-13
3.2835825436e-05
-9.72517651467e-13
3.28358258528e-05
-1.08646966442e-12
3.28358262729e-05
-1.18740336523e-12
3.28358267033e-05
-1.2642368219e-12
3.28358271541e-05
-1.31433534454e-12
3.28358276269e-05
-1.36333187074e-12
3.28358281062e-05
-1.44012267144e-12
3.28358285901e-05
-1.53661016663e-12
3.28358290941e-05
-1.63602648033e-12
3.28358296339e-05
-1.72318954217e-12
3.28358302129e-05
-1.7989217563e-12
3.28358308304e-05
-1.87944445729e-12
3.28358314709e-05
-1.93786717564e-12
3.28358321336e-05
-1.99003063086e-12
3.28358328143e-05
-2.05347162921e-12
3.28358334818e-05
-2.15015639438e-12
3.28358341032e-05
-2.28610048792e-12
3.28358346871e-05
-2.44036036958e-12
3.28358352658e-05
-2.59578097299e-12
3.28358358593e-05
-2.75985001601e-12
3.28358364741e-05
-2.92911711775e-12
3.28358371328e-05
-3.07167690669e-12
3.28358378664e-05
-3.17132648636e-12
3.28358386691e-05
-3.25374271151e-12
3.28358395012e-05
-3.35142023888e-12
3.28358403371e-05
-3.46622242109e-12
3.28358412051e-05
-3.58158959305e-12
3.28358421431e-05
-3.69734741666e-12
3.28358431237e-05
-3.83064092604e-12
3.28358441113e-05
-3.99393885372e-12
3.28358451376e-05
-4.17994966071e-12
3.2835846257e-05
-4.38597231767e-12
3.2835847471e-05
-4.62781631311e-12
3.28358487664e-05
-4.89571066381e-12
3.28358501922e-05
-5.17499715623e-12
3.28358518097e-05
-5.49588246008e-12
3.28358536565e-05
-5.88697846364e-12
3.28358557634e-05
-6.34308891184e-12
3.28358581513e-05
-6.88147180189e-12
3.28358608543e-05
-7.56309361601e-12
3.28358639198e-05
-8.40614991577e-12
3.28358674118e-05
-9.3688423022e-12
3.28358713649e-05
-1.04494493762e-11
3.28358759365e-05
-1.18891176769e-11
3.28358815223e-05
-1.38046026965e-11
3.28358882672e-05
-1.59875888191e-11
3.28358964268e-05
-1.8647694837e-11
3.28359062936e-05
-2.19214903042e-11
3.28359182408e-05
-2.59216946075e-11
3.28359327839e-05
-3.0865801365e-11
3.28359505606e-05
-3.70853410587e-11
3.28359723969e-05
-4.48554278249e-11
3.28359993867e-05
-5.44557820781e-11
3.28360331356e-05
-6.6317857814e-11
3.28360746263e-05
-8.10484255276e-11
3.28361248832e-05
-9.94317587066e-11
3.2836186507e-05
-1.22273309339e-10
3.28362624149e-05
-1.50566644845e-10
3.28363561114e-05
-1.85559002399e-10
3.28364718183e-05
-2.28783579759e-10
3.28366147113e-05
-2.82182927464e-10
3.28367912992e-05
-3.48231700207e-10
3.28370095873e-05
-4.30066742998e-10
3.28372793657e-05
-5.31543918462e-10
3.28376129663e-05
-6.57225234535e-10
3.28380257407e-05
-8.12755422882e-10
3.28385366444e-05
-1.00525891838e-09
3.28391690653e-05
-1.24383132253e-09
3.28399517362e-05
-1.53958643053e-09
3.28409202402e-05
-1.90616006527e-09
3.28421189321e-05
-2.36094979928e-09
3.28436030872e-05
-2.92465367661e-09
3.28454409521e-05
-3.62288620536e-09
3.28477170219e-05
-4.48770774911e-09
3.28505360358e-05
-5.55905603493e-09
3.28540277044e-05
-6.88638291515e-09
3.28583527164e-05
-8.53098510857e-09
3.28637105208e-05
-1.05690588802e-08
3.28703485937e-05
-1.30953701046e-08
3.28785741391e-05
-1.62278561193e-08
3.28887684991e-05
-2.01134046908e-08
3.29014057612e-05
-2.49351858859e-08
3.29170759984e-05
-3.09222370523e-08
3.29365140513e-05
-3.8361543912e-08
3.29606367239e-05
-4.76135817086e-08
3.29905899932e-05
-5.91327936323e-08
3.30278098284e-05
-7.34947750973e-08
3.3074100698e-05
-9.143260349e-08
3.31317386202e-05
-1.13886031889e-07
3.32036081913e-05
-1.42070006427e-07
3.32933872502e-05
-1.7757252355e-07
3.34058013095e-05
-2.22497188081e-07
3.3546983385e-05
-2.79678888689e-07
3.37249970964e-05
-3.53026150503e-07
3.39506255112e-05
-4.48089772642e-07
3.42386089015e-05
-5.73068401329e-07
3.46096385484e-05
-7.4068963489e-07
3.50936063996e-05
-9.71927184252e-07
3.57346762898e-05
-1.30364999975e-06
3.65980347749e-05
-1.80455594124e-06
3.77741794951e-05
-2.6068855139e-06
3.93590358798e-05
-3.96296509222e-06
4.13297552163e-05
-6.32943181793e-06
-1.03637616708e-05
4.31567029846e-05
5.3570520855e-05
8.95186706259e-06
5.55863050738e-05
1.5850134474e-05
5.52410591698e-05
1.62553861016e-05
5.3597615529e-05
1.40474395209e-05
5.15429058096e-05
1.11562298908e-05
4.95819403751e-05
8.4514705395e-06
4.79262509937e-05
6.22441158229e-06
4.66200397402e-05
4.49842440624e-06
4.56322338495e-05
3.20429831973e-06
4.49066876244e-05
2.2539063875e-06
4.43854422632e-05
1.56624328708e-06
4.40178328843e-05
1.07472636896e-06
4.37629123138e-05
7.27376886795e-07
4.3589044752e-05
4.84705465321e-07
4.34725014653e-05
3.17212136414e-07
4.33958683999e-05
2.03133121162e-07
4.33465903512e-05
1.26584872751e-07
4.33157562277e-05
7.60951658153e-08
4.32971347864e-05
4.34650813553e-08
4.32864332126e-05
2.28996756571e-08
4.3280739903e-05
1.03514600363e-08
4.3278117142e-05
3.03055271845e-09
4.32772904264e-05
-9.63150161755e-10
4.32774548823e-05
-2.90288681346e-09
4.32781062264e-05
-3.61751534871e-09
4.32789441744e-05
-3.64481979088e-09
4.32797991082e-05
-3.32085394209e-09
4.32805834288e-05
-2.8487467337e-09
4.32812592227e-05
-2.3452389619e-09
4.32818173238e-05
-1.87245721605e-09
4.32822639926e-05
-1.45908007723e-09
4.32826127342e-05
-1.11415009551e-09
4.32828794711e-05
-8.359124033e-10
4.32830798649e-05
-6.17292825456e-10
4.32832280093e-05
-4.49187571904e-10
4.32833358825e-05
-3.22314289393e-10
4.32834133005e-05
-2.28135404732e-10
4.32834680945e-05
-1.5927041702e-10
4.32835063418e-05
-1.09617320765e-10
4.32835326603e-05
-7.43023086017e-11
4.32835504891e-05
-4.95260317999e-11
4.32835623624e-05
-3.23914233351e-11
4.32835701206e-05
-2.07355851695e-11
4.32835750816e-05
-1.29507519173e-11
4.32835781757e-05
-7.8431055397e-12
4.32835800605e-05
-4.55213594109e-12
4.32835811826e-05
-2.5005802739e-12
4.32835818495e-05
-1.31256377487e-12
4.32835822727e-05
-7.0612578491e-13
4.32835825236e-05
-4.77639281362e-13
4.32835826808e-05
-3.75144124881e-13
4.32835828266e-05
-4.1259345177e-13
4.3283582978e-05
-5.05098442461e-13
4.32835831561e-05
-6.03457960761e-13
4.32835833663e-05
-6.89690535809e-13
4.32835836012e-05
-8.22669965343e-13
4.32835838244e-05
-9.72036037952e-13
4.32835840403e-05
-1.09972796853e-12
4.32835842622e-05
-1.20007341646e-12
4.32835844896e-05
-1.2802391689e-12
4.32835847067e-05
-1.34739760038e-12
4.3283584915e-05
-1.40830479701e-12
4.32835851241e-05
-1.4894249158e-12
4.32835853396e-05
-1.60728362133e-12
4.32835855713e-05
-1.7408860748e-12
4.32835858405e-05
-1.85442184676e-12
4.32835861529e-05
-1.93845289483e-12
4.32835864757e-05
-2.00917549394e-12
4.32835867935e-05
-2.06775395116e-12
4.32835871058e-05
-2.12394944769e-12
4.32835874092e-05
-2.20255464103e-12
4.32835876802e-05
-2.32198943089e-12
4.32835879002e-05
-2.46904967271e-12
4.32835880758e-05
-2.62305327848e-12
4.32835882292e-05
-2.77673866692e-12
4.32835883913e-05
-2.93091073477e-12
4.32835885836e-05
-3.08742881167e-12
4.32835888091e-05
-3.25211806189e-12
4.32835890732e-05
-3.40893991458e-12
4.3283589379e-05
-3.53517359812e-12
4.32835897067e-05
-3.65940354376e-12
4.32835900265e-05
-3.81704156899e-12
4.32835903554e-05
-3.97753823682e-12
4.3283590737e-05
-4.11414464931e-12
4.32835911569e-05
-4.27772570464e-12
4.32835915877e-05
-4.51101972863e-12
4.32835920602e-05
-4.75439533238e-12
4.32835926245e-05
-4.97898921615e-12
4.32835932993e-05
-5.28463750703e-12
4.32835940765e-05
-5.70452124347e-12
4.32835949925e-05
-6.15576880582e-12
4.32835961165e-05
-6.63379448739e-12
4.32835974968e-05
-7.23909359309e-12
4.32835991624e-05
-7.98499981194e-12
4.32836011496e-05
-8.82803611656e-12
4.32836035399e-05
-9.87530369423e-12
4.32836064225e-05
-1.12387927376e-11
4.32836098952e-05
-1.28761479771e-11
4.32836141752e-05
-1.47751786805e-11
4.32836194345e-05
-1.70752819338e-11
4.32836256486e-05
-1.9888593068e-11
4.32836331254e-05
-2.33622586786e-11
4.32836422256e-05
-2.76209206316e-11
4.32836533709e-05
-3.28689716861e-11
4.32836669544e-05
-3.93594818642e-11
4.32836835059e-05
-4.73866937348e-11
4.32837038235e-05
-5.73553478762e-11
4.32837288643e-05
-6.97460413293e-11
4.3283759693e-05
-8.50920721746e-11
4.32837976347e-05
-1.04089166051e-10
4.32838444498e-05
-1.27718228011e-10
4.32839022268e-05
-1.57138422716e-10
4.32839735256e-05
-1.93597390395e-10
4.32840616191e-05
-2.38660907976e-10
4.3284170578e-05
-2.94357356634e-10
4.32843052942e-05
-3.63272165339e-10
4.3284471781e-05
-4.48536519829e-10
4.32846776002e-05
-5.54002235491e-10
4.32849320953e-05
-6.84595005517e-10
4.32852468428e-05
-8.46360995144e-10
4.32856362535e-05
-1.04671795553e-09
4.32861182194e-05
-1.2947378929e-09
4.32867148007e-05
-1.60179791064e-09
4.32874533259e-05
-1.98215504685e-09
4.32883673734e-05
-2.45354551335e-09
4.32894988776e-05
-3.03759789373e-09
4.32908995133e-05
-3.76147951255e-09
4.32926335102e-05
-4.65843647776e-09
4.32947802916e-05
-5.76959160009e-09
4.32974383056e-05
-7.14589403361e-09
4.33007297116e-05
-8.85059971055e-09
4.33048057505e-05
-1.09623903339e-08
4.33098536577e-05
-1.35789153187e-08
4.33161057396e-05
-1.68212944736e-08
4.33238501578e-05
-2.0840010622e-08
4.33334445028e-05
-2.5822339595e-08
4.33453324557e-05
-3.20014903043e-08
4.33600650712e-05
-3.96680455349e-08
4.33783275664e-05
-4.91849155346e-08
4.34009723542e-05
-6.10064072905e-08
4.34290612833e-05
-7.57024882062e-08
4.34639189534e-05
-9.399049261e-08
4.3507201058e-05
-1.16777040988e-07
4.35609819522e-05
-1.45213662365e-07
4.36278679065e-05
-1.80771996727e-07
4.37111453827e-05
-2.25347470646e-07
4.38149777949e-05
-2.81404978892e-07
4.39446698528e-05
-3.52189214268e-07
4.41070281778e-05
-4.42037181463e-07
4.43108629097e-05
-5.56860785778e-07
4.45676946282e-05
-7.04921400533e-07
4.48927535922e-05
-8.98127088913e-07
4.53063602789e-05
-1.1542960794e-06
4.58356636935e-05
-1.501230425e-06
4.65161708659e-05
-1.98415721945e-06
4.73907289887e-05
-2.67911444604e-06
4.84988471772e-05
-3.71500396435e-06
4.98379939277e-05
-5.30211301787e-06
5.12560022432e-05
-7.74744029697e-06
-1.13602185106e-05
5.22524592489e-05
5.27606092796e-05
6.19125846721e-06
5.57402399681e-05
1.28705023339e-05
5.73124122922e-05
1.46832147716e-05
5.76111976909e-05
1.3748653496e-05
5.71338683847e-05
1.16335591674e-05
5.63199840378e-05
9.26535498793e-06
5.54496447974e-05
7.09475064237e-06
5.46637027966e-05
5.2843664551e-06
5.40144130072e-05
3.85358819836e-06
5.35068424043e-05
2.76147695465e-06
5.31248779055e-05
1.94820778538e-06
5.2845523877e-05
1.35408039393e-06
5.2645887626e-05
9.27013037464e-07
5.25060749048e-05
6.24518053564e-07
5.2409997193e-05
4.13289750919e-07
5.23452156183e-05
2.67914632573e-07
5.2302410647e-05
1.69389818184e-07
5.22747657678e-05
1.03740044343e-07
5.22573935956e-05
6.08372513683e-08
5.22468515614e-05
3.34417189147e-08
5.22407553238e-05
1.64476848797e-08
5.22374823136e-05
6.30351298556e-09
5.22359410519e-05
5.78044675997e-10
5.22354257082e-05
-2.38761911355e-09
5.22354775963e-05
-3.66947634982e-09
5.22358124118e-05
-3.97970103318e-09
5.22362596652e-05
-3.76815391484e-09
5.22367225003e-05
-3.31160300759e-09
5.22371503306e-05
-2.77308412106e-09
5.22375207466e-05
-2.24288134771e-09
5.22378277064e-05
-1.76603191703e-09
5.22380740249e-05
-1.36044034465e-09
5.22382667491e-05
-1.02859045327e-09
5.22384143963e-05
-7.64913647543e-10
5.22385254587e-05
-5.60277881065e-10
5.22386076358e-05
-4.04586529284e-10
5.22386675255e-05
-2.881628452e-10
5.22387105663e-05
-2.02436527375e-10
5.22387410791e-05
-1.40211101111e-10
5.22387624177e-05
-9.56703612711e-11
5.22387771205e-05
-6.4233663607e-11
5.22387870885e-05
-4.2354998461e-11
5.22387937457e-05
-2.73550299956e-11
5.22387981326e-05
-1.72462244843e-11
5.22388009836e-05
-1.0567810327e-11
5.22388028226e-05
-6.25091339347e-12
5.22388039952e-05
-3.53915479147e-12
5.22388047103e-05
-1.9120207991e-12
5.22388050998e-05
-1.00731370143e-12
5.22388052574e-05
-5.44233004649e-13
5.22388053297e-05
-3.15730456036e-13
5.22388053884e-05
-2.90005185516e-13
5.22388054559e-05
-3.67337391691e-13
5.22388055512e-05
-4.86109145543e-13
5.22388056879e-05
-6.04553766047e-13
5.22388058444e-05
-7.41252988743e-13
5.22388060052e-05
-8.83766822672e-13
5.22388061652e-05
-1.00258438347e-12
5.22388063235e-05
-1.08974888237e-12
5.22388064631e-05
-1.16577610439e-12
5.22388065664e-05
-1.24646107696e-12
5.22388066402e-05
-1.33898900257e-12
5.22388067125e-05
-1.44957738774e-12
5.2238806796e-05
-1.58255089977e-12
5.2238806897e-05
-1.72005545128e-12
5.22388070271e-05
-1.83398471191e-12
5.22388071855e-05
-1.91716676372e-12
5.22388073437e-05
-1.97924864813e-12
5.22388074843e-05
-2.02920617635e-12
5.22388076036e-05
-2.08932340322e-12
5.22388076919e-05
-2.18189254459e-12
5.22388077416e-05
-2.3013260883e-12
5.22388077491e-05
-2.42590377166e-12
5.2238807703e-05
-2.55539252752e-12
5.22388076056e-05
-2.6997911462e-12
5.2238807507e-05
-2.85351666811e-12
5.22388074581e-05
-3.01510534489e-12
5.22388074487e-05
-3.19424126992e-12
5.22388074514e-05
-3.37815395071e-12
5.22388074717e-05
-3.5451014408e-12
5.22388075166e-05
-3.70877868462e-12
5.22388075604e-05
-3.87993871822e-12
5.22388075863e-05
-4.02760602885e-12
5.22388076198e-05
-4.15481847787e-12
5.22388076721e-05
-4.33268558509e-12
5.22388077249e-05
-4.59332432694e-12
5.22388077905e-05
-4.88669038866e-12
5.22388079304e-05
-5.19525262311e-12
5.22388081786e-05
-5.58680614884e-12
5.22388085117e-05
-6.09466443648e-12
5.22388089546e-05
-6.66658732836e-12
5.22388095927e-05
-7.29552005781e-12
5.22388104687e-05
-8.07028790047e-12
5.22388115927e-05
-9.05015754659e-12
5.22388130212e-05
-1.02321212562e-11
5.22388148595e-05
-1.16632979154e-11
5.223881717e-05
-1.34395621848e-11
5.22388200015e-05
-1.56111930708e-11
5.22388235282e-05
-1.82161469303e-11
5.22388279408e-05
-2.13985497516e-11
5.22388334769e-05
-2.53369193064e-11
5.22388403805e-05
-3.01787298801e-11
5.2238848993e-05
-3.60902852e-11
5.22388597225e-05
-4.33699375677e-11
5.22388729882e-05
-5.24492538212e-11
5.22388893505e-05
-6.37348101089e-11
5.22389096592e-05
-7.76699354321e-11
5.22389349465e-05
-9.49214433375e-11
5.2238966343e-05
-1.16305302765e-10
5.22390052143e-05
-1.42791756608e-10
5.22390532533e-05
-1.75660533486e-10
5.22391125853e-05
-2.16476885429e-10
5.22391859612e-05
-2.67031151974e-10
5.22392767809e-05
-3.29504663953e-10
5.22393892335e-05
-4.06708805217e-10
5.22395284322e-05
-5.02256718139e-10
5.22397006531e-05
-6.2051762856e-10
5.22399136597e-05
-7.66903733188e-10
5.22401771652e-05
-9.4814960291e-10
5.22405032449e-05
-1.17262817517e-09
5.22409069266e-05
-1.45054470852e-09
5.22414067442e-05
-1.79461613474e-09
5.22420255432e-05
-2.2205657967e-09
5.22427916526e-05
-2.74808654683e-09
5.22437399957e-05
-3.4016913547e-09
5.22449139378e-05
-4.21148221933e-09
5.22463671424e-05
-5.21470020931e-09
5.22481662102e-05
-6.45745287898e-09
5.22503935289e-05
-7.99687208055e-09
5.2253151142e-05
-9.90355773417e-09
5.22565655453e-05
-1.22650731456e-08
5.22607934168e-05
-1.51902879643e-08
5.22660287438e-05
-1.88143131765e-08
5.22725120238e-05
-2.33047063875e-08
5.22805413077e-05
-2.88695287962e-08
5.22904862489e-05
-3.57674960674e-08
5.23028052163e-05
-4.43205966638e-08
5.23180667538e-05
-5.492979069e-08
5.23369767607e-05
-6.8095193354e-08
5.2360411972e-05
-8.44418727084e-08
5.23894622075e-05
-1.04752785469e-07
5.24254830982e-05
-1.30011379869e-07
5.24701632187e-05
-1.61457198452e-07
5.25256088142e-05
-2.00659215493e-07
5.25944512319e-05
-2.4961424656e-07
5.26799845154e-05
-3.10880642903e-07
5.27863423479e-05
-3.87762808559e-07
5.29187264934e-05
-4.84573048218e-07
5.30837006553e-05
-6.07010836402e-07
5.32895683694e-05
-7.62728072468e-07
5.35468460812e-05
-9.62198825485e-07
5.38688139804e-05
-1.2200947682e-06
5.42720344683e-05
-1.55751634495e-06