/*--------------------------------*- C++ -*----------------------------------*\
| =========                 |                                                 |
| \\      /  F ield         | OpenFOAM: The Open Source CFD Toolbox           |
|  \\    /   O peration     | Version:  2106                                  |
|   \\  /    A nd           | Website:  www.openfoam.com                      |
|    \\/     M anipulation  |                                                 |
\*---------------------------------------------------------------------------*/
FoamFile
{
    version     2.0;
    format      ascii;
    arch        "LSB;label=32;scalar=64";
    class       volVectorField;
    location    "0.27";
    object      U;
}
// * * * * * * * * * * * * * * * * * * * * * * * * * * * * * * * * * * * * * //

dimensions      [0 1 -1 0 0 0 0];

internalField   nonuniform List<vector> 
9600
(
(0.675396188404 0.157677431075 0)
(0.563826156301 0.102430804861 0)
(0.381538922885 0.0510646949665 0)
(0.283853188124 0.0244589897268 0)
(0.232281026812 0.0119348220112 0)
(0.201907706917 0.00623035771199 0)
(0.183178402803 0.00352192724535 0)
(0.171271984029 0.00212007542097 0)
(0.163512238471 0.00132523581567 0)
(0.158392656621 0.000841456945984 0)
(0.155010694252 0.000534135902467 0)
(0.152789974674 0.000335039544849 0)
(0.151348685056 0.000205521131747 0)
(0.15042923611 0.00012179224249 0)
(0.1498564475 6.84341922795e-05 0)
(0.149511110182 3.51733711556e-05 0)
(0.149312499924 1.50865924294e-05 0)
(0.149206449292 3.50367137287e-06 0)
(0.149157068471 -2.7070232261e-06 0)
(0.149140958602 -5.61169051523e-06 0)
(0.149143241652 -6.5274030086e-06 0)
(0.149154637782 -6.41802289752e-06 0)
(0.149169576722 -5.78189032247e-06 0)
(0.149184948309 -4.92808513659e-06 0)
(0.149199118306 -4.04264640511e-06 0)
(0.149211365539 -3.22380496068e-06 0)
(0.149221502619 -2.51506468665e-06 0)
(0.149229630002 -1.92824609817e-06 0)
(0.149235984662 -1.45811086058e-06 0)
(0.149240851052 -1.09128922379e-06 0)
(0.149244511252 -8.11348782154e-07 0)
(0.14924722009 -6.01799662756e-07 0)
(0.14924919501 -4.47631835481e-07 0)
(0.149250614294 -3.35934103627e-07 0)
(0.149251619924 -2.5608634415e-07 0)
(0.149252322249 -1.99517855379e-07 0)
(0.149252805353 -1.59532951701e-07 0)
(0.14925313222 -1.31073040445e-07 0)
(0.149253349316 -1.10332832488e-07 0)
(0.149253490638 -9.46369605068e-08 0)
(0.149253580693 -8.25382636982e-08 0)
(0.149253636958 -7.39557521674e-08 0)
(0.149253670884 -7.03487952057e-08 0)
(0.149253689534 -7.12244724039e-08 0)
(0.149253698566 -7.43302902991e-08 0)
(0.149253702369 -7.89247834434e-08 0)
(0.149253703432 -8.49395860554e-08 0)
(0.149253703187 -9.23533561605e-08 0)
(0.14925370246 -1.00602188338e-07 0)
(0.149253701642 -1.09602172998e-07 0)
(0.149253700795 -1.19165816393e-07 0)
(0.149253700039 -1.29175787447e-07 0)
(0.149253699793 -1.39640343136e-07 0)
(0.149253700335 -1.5070723849e-07 0)
(0.14925370156 -1.62406618238e-07 0)
(0.149253703139 -1.74723876914e-07 0)
(0.14925370492 -1.87766622873e-07 0)
(0.149253706651 -2.01801805788e-07 0)
(0.149253707744 -2.16934644849e-07 0)
(0.149253707895 -2.33118795693e-07 0)
(0.149253707505 -2.50293497406e-07 0)
(0.14925370707 -2.68463340206e-07 0)
(0.149253706576 -2.87729458883e-07 0)
(0.149253705786 -3.08317004738e-07 0)
(0.14925370469 -3.30392222761e-07 0)
(0.149253703357 -3.5395639301e-07 0)
(0.149253701753 -3.78857635086e-07 0)
(0.14925369999 -4.05037867704e-07 0)
(0.149253698362 -4.32579541778e-07 0)
(0.149253696927 -4.61665588534e-07 0)
(0.149253695329 -4.92447507555e-07 0)
(0.149253693195 -5.24958800671e-07 0)
(0.149253690273 -5.5933237675e-07 0)
(0.149253686195 -5.95828674227e-07 0)
(0.149253680653 -6.34485194655e-07 0)
(0.149253673914 -6.75098184012e-07 0)
(0.149253666718 -7.17672463546e-07 0)
(0.149253659714 -7.62534702127e-07 0)
(0.149253653102 -8.09861598999e-07 0)
(0.149253646598 -8.59422647675e-07 0)
(0.149253639922 -9.11015404149e-07 0)
(0.149253633243 -9.64882900001e-07 0)
(0.149253626809 -1.02147728677e-06 0)
(0.149253620319 -1.08088737275e-06 0)
(0.149253613299 -1.14277700476e-06 0)
(0.149253605965 -1.20709317362e-06 0)
(0.149253598742 -1.2743454632e-06 0)
(0.149253591373 -1.34481615574e-06 0)
(0.149253583605 -1.41812026547e-06 0)
(0.14925357598 -1.49404190575e-06 0)
(0.149253569165 -1.57298871188e-06 0)
(0.1492535632 -1.65514709853e-06 0)
(0.149253558184 -1.74017838463e-06 0)
(0.149253554925 -1.82787441806e-06 0)
(0.149253553997 -1.91839001389e-06 0)
(0.149253555017 -2.01199230911e-06 0)
(0.149253557444 -2.10864655127e-06 0)
(0.149253561593 -2.20795688066e-06 0)
(0.149253568252 -2.30940687859e-06 0)
(0.149253577861 -2.41264256081e-06 0)
(0.149253591238 -2.51772498523e-06 0)
(0.149253610371 -2.62482302421e-06 0)
(0.149253637321 -2.73388114167e-06 0)
(0.149253673146 -2.84479996784e-06 0)
(0.149253719094 -2.95775599827e-06 0)
(0.149253777908 -3.07273192304e-06 0)
(0.149253852651 -3.18977266268e-06 0)
(0.149253946489 -3.30945404214e-06 0)
(0.149254064235 -3.4330160111e-06 0)
(0.149254212028 -3.56370843523e-06 0)
(0.14925439692 -3.70827362108e-06 0)
(0.149254627519 -3.86827506002e-06 0)
(0.149254914161 -4.03916768161e-06 0)
(0.149255269856 -4.21996939315e-06 0)
(0.149255711174 -4.4111524162e-06 0)
(0.149256258955 -4.61327782259e-06 0)
(0.149256939291 -4.82724990534e-06 0)
(0.149257783713 -5.05431856925e-06 0)
(0.149258830056 -5.29576163601e-06 0)
(0.149260125246 -5.55301767747e-06 0)
(0.149261728528 -5.82901770498e-06 0)
(0.149263713691 -6.12826699499e-06 0)
(0.149266174153 -6.45687021044e-06 0)
(0.149269236238 -6.8360997888e-06 0)
(0.149273066481 -7.33461004489e-06 0)
(0.149277800392 -8.05850821653e-06 0)
(0.149283617409 -8.9386971476e-06 0)
(0.149290806889 -9.94161143105e-06 0)
(0.149299710125 -1.10666793131e-05 0)
(0.149310737841 -1.23275841776e-05 0)
(0.149324395865 -1.37446362798e-05 0)
(0.149341309253 -1.53442304082e-05 0)
(0.149362255057 -1.71590151292e-05 0)
(0.14938819987 -1.92304704842e-05 0)
(0.149420340583 -2.16108689334e-05 0)
(0.149460161465 -2.43644535348e-05 0)
(0.14950950788 -2.7572154715e-05 0)
(0.149570674656 -3.1337951066e-05 0)
(0.149646516511 -3.57940236609e-05 0)
(0.149740587991 -4.11065684868e-05 0)
(0.149857325391 -4.74866286856e-05 0)
(0.150002275327 -5.5203744123e-05 0)
(0.150182385307 -6.460169254e-05 0)
(0.150406383485 -7.61195412038e-05 0)
(0.150685275962 -9.03228164101e-05 0)
(0.151033003441 -0.000107945205401 0)
(0.151467317119 -0.000129942144066 0)
(0.152010969421 -0.000157566493261 0)
(0.152693366517 -0.000192474221293 0)
(0.153552903843 -0.000236865517968 0)
(0.154640381065 -0.000293703558612 0)
(0.156024269123 -0.000367146121423 0)
(0.157799621655 -0.00046373580878 0)
(0.160106039073 -0.000596776304234 0)
(0.163170525286 -0.000803222803064 0)
(0.167415447453 -0.00120590620902 0)
(0.173793335043 -0.0022405518461 0)
(0.185149701105 -0.00552979225418 0)
(0.21010954439 -0.0172295653694 0)
(0.265142679111 -0.0601373314299 0)
(0.977201181894 0.296997116655 0)
(0.96268746502 0.250387267217 0)
(0.820646024958 0.158581013413 0)
(0.697824892875 0.095799348306 0)
(0.610491663584 0.057913275521 0)
(0.549133313549 0.0359038508106 0)
(0.506705982448 0.0229309375404 0)
(0.477662018794 0.0149788793874 0)
(0.457815299209 0.00990973198261 0)
(0.444277674182 0.00658331025751 0)
(0.435087224264 0.00436198766303 0)
(0.42889555183 0.00286682712402 0)
(0.424768031548 0.00185972094507 0)
(0.422054220409 0.00118457265359 0)
(0.420301036853 0.000736110865225 0)
(0.419193662723 0.000442158998368 0)
(0.418514592944 0.000252859311015 0)
(0.418114816721 0.000133738485313 0)
(0.417893358373 6.10518748414e-05 0)
(0.417782715393 1.85772425264e-05 0)
(0.417738457168 -4.63473157546e-06 0)
(0.417731919067 -1.60102732026e-05 0)
(0.417745134198 -2.03062435797e-05 0)
(0.417767156406 -2.06089402968e-05 0)
(0.417791604135 -1.88557530935e-05 0)
(0.417815016613 -1.62211648775e-05 0)
(0.41783573473 -1.33835058035e-05 0)
(0.417853166216 -1.07057706413e-05 0)
(0.417867314793 -8.35721160836e-06 0)
(0.417878486595 -6.39340476785e-06 0)
(0.417887112701 -4.8069339673e-06 0)
(0.417893647611 -3.5589435335e-06 0)
(0.417898515703 -2.59817335718e-06 0)
(0.417902086697 -1.87177472864e-06 0)
(0.41790466851 -1.33114639122e-06 0)
(0.417906509059 -9.3434385194e-07 0)
(0.417907802689 -6.46846603737e-07 0)
(0.417908698687 -4.41204224112e-07 0)
(0.417909309657 -2.95865531319e-07 0)
(0.417909719053 -1.94372452367e-07 0)
(0.417909987524 -1.24711004423e-07 0)
(0.417910158255 -7.85012570822e-08 0)
(0.417910262571 -5.03146335207e-08 0)
(0.417910323717 -3.48291534965e-08 0)
(0.417910357343 -2.68537774711e-08 0)
(0.417910373387 -2.3182804594e-08 0)
(0.417910378589 -2.1331690442e-08 0)
(0.417910377968 -1.95515317197e-08 0)
(0.417910374411 -1.84213570992e-08 0)
(0.417910369287 -1.88184789809e-08 0)
(0.417910363448 -2.02872044102e-08 0)
(0.417910357286 -2.23153117091e-08 0)
(0.417910351267 -2.45509692069e-08 0)
(0.417910345797 -2.69447592123e-08 0)
(0.417910340949 -2.94660462486e-08 0)
(0.417910336333 -3.19938601318e-08 0)
(0.417910331573 -3.44835868237e-08 0)
(0.417910326424 -3.71486824116e-08 0)
(0.417910320523 -4.01471821986e-08 0)
(0.417910313649 -4.32434401231e-08 0)
(0.417910306112 -4.61681404749e-08 0)
(0.417910298233 -4.89667762446e-08 0)
(0.417910289812 -5.18123235332e-08 0)
(0.417910280568 -5.4918012201e-08 0)
(0.417910270656 -5.84060297267e-08 0)
(0.417910260351 -6.2291615855e-08 0)
(0.417910249659 -6.63591734436e-08 0)
(0.41791023854 -7.03271156021e-08 0)
(0.417910227111 -7.41111160471e-08 0)
(0.417910215326 -7.80529552836e-08 0)
(0.417910202879 -8.23617326124e-08 0)
(0.417910189362 -8.69305566493e-08 0)
(0.417910174338 -9.18430029941e-08 0)
(0.417910157529 -9.7468631344e-08 0)
(0.417910138993 -1.03810867441e-07 0)
(0.417910119003 -1.10392294565e-07 0)
(0.417910097904 -1.1689377818e-07 0)
(0.417910076306 -1.23480784137e-07 0)
(0.417910054935 -1.30427102121e-07 0)
(0.417910033802 -1.37601783801e-07 0)
(0.417910012211 -1.44633606412e-07 0)
(0.417909989821 -1.51575895278e-07 0)
(0.417909967041 -1.59036148317e-07 0)
(0.417909944246 -1.67307539104e-07 0)
(0.417909921135 -1.75866945891e-07 0)
(0.417909897302 -1.84496156366e-07 0)
(0.417909872908 -1.93912084595e-07 0)
(0.417909848446 -2.04464508213e-07 0)
(0.41790982423 -2.15470005641e-07 0)
(0.417909800442 -2.26538428893e-07 0)
(0.417909777712 -2.38292452329e-07 0)
(0.417909756924 -2.5120300612e-07 0)
(0.417909738705 -2.64984362692e-07 0)
(0.41790972366 -2.79408260786e-07 0)
(0.417909712263 -2.94782858044e-07 0)
(0.417909704801 -3.11563849259e-07 0)
(0.417909702008 -3.29875307689e-07 0)
(0.417909705343 -3.49830945004e-07 0)
(0.417909716306 -3.72140951965e-07 0)
(0.417909735949 -3.98282296363e-07 0)
(0.417909766263 -4.29117564122e-07 0)
(0.417909811112 -4.63651778795e-07 0)
(0.417909874765 -5.0222420762e-07 0)
(0.417909960605 -5.45558462453e-07 0)
(0.417910072985 -5.94126960034e-07 0)
(0.417910218662 -6.48624635729e-07 0)
(0.417910405066 -7.10214676621e-07 0)
(0.41791064041 -7.7959416884e-07 0)
(0.417910934648 -8.5660510688e-07 0)
(0.417911298101 -9.39281052037e-07 0)
(0.417911750544 -1.02146894571e-06 0)
(0.417912324391 -1.10327995981e-06 0)
(0.417913049432 -1.19486802601e-06 0)
(0.417913955899 -1.30299904003e-06 0)
(0.417915085661 -1.43276184938e-06 0)
(0.417916491971 -1.5893269831e-06 0)
(0.417918240787 -1.77977101686e-06 0)
(0.417920413605 -2.01414689044e-06 0)
(0.417923110293 -2.30419598267e-06 0)
(0.417926453215 -2.66380567869e-06 0)
(0.417930594284 -3.11149928085e-06 0)
(0.417935723684 -3.67012145224e-06 0)
(0.417942073162 -4.36871269761e-06 0)
(0.417949915018 -5.25241338075e-06 0)
(0.417959586775 -6.40891426098e-06 0)
(0.417971583647 -7.97194825244e-06 0)
(0.41798651238 -9.96296180561e-06 0)
(0.41800504434 -1.24417891499e-05 0)
(0.418028022437 -1.55111232543e-05 0)
(0.418056500541 -1.9307214281e-05 0)
(0.418091787673 -2.40015898721e-05 0)
(0.418135505401 -2.98049363402e-05 0)
(0.418189665804 -3.69760623906e-05 0)
(0.418256766585 -4.58384578546e-05 0)
(0.418339905549 -5.67943089677e-05 0)
(0.41844292639 -7.03406044894e-05 0)
(0.418570602157 -8.70951959739e-05 0)
(0.418728865346 -0.000107830900127 0)
(0.418925098224 -0.000133515480693 0)
(0.419168495061 -0.000165360206674 0)
(0.419470525144 -0.000204889130613 0)
(0.419845524167 -0.000254030498077 0)
(0.42031145053 -0.000315233076512 0)
(0.420890864832 -0.000391622778582 0)
(0.42161221182 -0.000487220139089 0)
(0.422511523204 -0.000607242979244 0)
(0.423634704923 -0.000758536061438 0)
(0.425040669492 -0.000950198462196 0)
(0.426805750836 -0.00119453391608 0)
(0.429030107963 -0.0015085620722 0)
(0.431847405928 -0.00191660428307 0)
(0.435440289693 -0.00245517056588 0)
(0.440066684597 -0.00318331575876 0)
(0.446108282892 -0.00420760007556 0)
(0.454166363938 -0.00574843443341 0)
(0.465245318434 -0.00832318786957 0)
(0.481098440249 -0.0132537479575 0)
(0.505109501931 -0.024129877573 0)
(0.543864115867 -0.050967187275 0)
(0.601592853346 -0.117958055742 0)
(1.03387039602 0.239240962809 0)
(1.08314081993 0.293634376885 0)
(1.03294437106 0.239131933314 0)
(0.954408205117 0.174539019481 0)
(0.880112579137 0.121551464018 0)
(0.818677613169 0.0832335926783 0)
(0.77146678823 0.056825813013 0)
(0.736691568453 0.03881257339 0)
(0.711672096962 0.0264913176495 0)
(0.693953123499 0.0180235769054 0)
(0.681568195423 0.0121876205191 0)
(0.673018592461 0.00816650363628 0)
(0.667192221092 0.00540556630183 0)
(0.663277736098 0.00352226291327 0)
(0.660690296134 0.00224961174466 0)
(0.659012720148 0.00140002758856 0)
(0.657950511623 0.000841455590095 0)
(0.657298057578 0.000481123057832 0)
(0.65691351354 0.000254194655444 0)
(0.656700322484 0.000115711692619 0)
(0.656593714076 3.47975601335e-05 0)
(0.656550999862 -9.4638139285e-06 0)
(0.656544655873 -3.10080212549e-05 0)
(0.656557352008 -3.90718991934e-05 0)
(0.656578533308 -3.9544435213e-05 0)
(0.65660205475 -3.61168682602e-05 0)
(0.656624582996 -3.10274611229e-05 0)
(0.656644519818 -2.55662099844e-05 0)
(0.656661294198 -2.04216083361e-05 0)
(0.656674909331 -1.59138531589e-05 0)
(0.656685659608 -1.21466552043e-05 0)
(0.656693959854 -9.10398293471e-06 0)
(0.656700247568 -6.71049668055e-06 0)
(0.656704931059 -4.86773740035e-06 0)
(0.656708366114 -3.47489401274e-06 0)
(0.656710848778 -2.43948133934e-06 0)
(0.656712617234 -1.6818400456e-06 0)
(0.656713858629 -1.13612205294e-06 0)
(0.656714716979 -7.49301981808e-07 0)
(0.656715300926 -4.79720975229e-07 0)
(0.656715691065 -2.95342055005e-07 0)
(0.65671594635 -1.71866772118e-07 0)
(0.656716109247 -9.07133656016e-08 0)
(0.656716209816 -3.84561117098e-08 0)
(0.656716269168 -5.87128796403e-09 0)
(0.656716302457 1.37598032222e-08 0)
(0.656716319937 2.53036494346e-08 0)
(0.65671632661 3.22277920543e-08 0)
(0.656716325074 3.61706503446e-08 0)
(0.65671631906 3.88665821933e-08 0)
(0.656716311331 4.09247278343e-08 0)
(0.656716302905 4.28259678011e-08 0)
(0.656716294461 4.51323630557e-08 0)
(0.656716286419 4.80197966147e-08 0)
(0.656716278922 5.13815973303e-08 0)
(0.656716271687 5.51860285561e-08 0)
(0.656716264292 5.95126953651e-08 0)
(0.656716256335 6.41081641119e-08 0)
(0.65671624758 6.8891810642e-08 0)
(0.656716238022 7.42149487111e-08 0)
(0.65671622778 8.03302545043e-08 0)
(0.656716216953 8.6902754344e-08 0)
(0.656716205385 9.35628534439e-08 0)
(0.656716192858 1.00377259465e-07 0)
(0.656716179474 1.07525346564e-07 0)
(0.656716165516 1.15067252529e-07 0)
(0.656716151167 1.23206346639e-07 0)
(0.656716136438 1.32348353921e-07 0)
(0.656716121125 1.42466912066e-07 0)
(0.656716105006 1.53213539262e-07 0)
(0.656716087999 1.64347181446e-07 0)
(0.656716069756 1.75824573957e-07 0)
(0.656716049623 1.87617852901e-07 0)
(0.656716027303 1.99719189396e-07 0)
(0.656716003168 2.12226335039e-07 0)
(0.656715977757 2.25336774094e-07 0)
(0.656715951361 2.39450654183e-07 0)
(0.656715924268 2.54992411402e-07 0)
(0.656715897004 2.71867632137e-07 0)
(0.656715869825 2.89657768669e-07 0)
(0.656715842261 3.08361968062e-07 0)
(0.656715813652 3.28267589491e-07 0)
(0.656715784065 3.49241808856e-07 0)
(0.656715754211 3.70919210694e-07 0)
(0.65671572419 3.9335295728e-07 0)
(0.656715693357 4.16703759802e-07 0)
(0.65671566172 4.40866027551e-07 0)
(0.656715630209 4.65873636412e-07 0)
(0.656715599417 4.92031607093e-07 0)
(0.656715569297 5.19632755095e-07 0)
(0.656715540319 5.48579543693e-07 0)
(0.656715513642 5.78517493615e-07 0)
(0.656715490263 6.09353857564e-07 0)
(0.656715470924 6.41101678351e-07 0)
(0.65671545625 6.73487654557e-07 0)
(0.656715446882 7.06263654076e-07 0)
(0.656715443739 7.39558365207e-07 0)
(0.656715448036 7.73442362824e-07 0)
(0.656715460912 8.07645197617e-07 0)
(0.656715484487 8.43048003917e-07 0)
(0.656715524139 8.81122389479e-07 0)
(0.656715585358 9.20314104576e-07 0)
(0.656715672522 9.5806614434e-07 0)
(0.656715791003 9.92350199004e-07 0)
(0.656715947533 1.02236338996e-06 0)
(0.656716151157 1.045939427e-06 0)
(0.656716413456 1.05924755872e-06 0)
(0.656716749104 1.05966708282e-06 0)
(0.656717177618 1.0453475808e-06 0)
(0.65671772517 1.01483263348e-06 0)
(0.656718417311 9.69929292448e-07 0)
(0.656719275369 9.05570668149e-07 0)
(0.656720334776 8.06475619692e-07 0)
(0.65672164971 6.59855941394e-07 0)
(0.65672328428 4.52179404054e-07 0)
(0.656725314996 1.6726760941e-07 0)
(0.656727834938 -2.15906113535e-07 0)
(0.656730959892 -7.25130324555e-07 0)
(0.65673483337 -1.39495920467e-06 0)
(0.656739631345 -2.26769080036e-06 0)
(0.656745572708 -3.39427445939e-06 0)
(0.656752931325 -4.83724768938e-06 0)
(0.656762047168 -6.67583150728e-06 0)
(0.656773338102 -9.00762360019e-06 0)
(0.656787314212 -1.19417434983e-05 0)
(0.656804615275 -1.56100144075e-05 0)
(0.656826036487 -2.02325255575e-05 0)
(0.656852557138 -2.60608224174e-05 0)
(0.656885397463 -3.3397157984e-05 0)
(0.656926067487 -4.26149821238e-05 0)
(0.656976437088 -5.41790256608e-05 0)
(0.657038822589 -6.86625716672e-05 0)
(0.657116092811 -8.67744238928e-05 0)
(0.657211805516 -0.000109397066914 0)
(0.657330375852 -0.000137627594078 0)
(0.657477282604 -0.000172828714087 0)
(0.657659326123 -0.000216695566465 0)
(0.657884954183 -0.000271341060152 0)
(0.658164674357 -0.000339406082936 0)
(0.658511566319 -0.000424197513993 0)
(0.658941930738 -0.000529869636965 0)
(0.659476120045 -0.000661664007346 0)
(0.660139599551 -0.000826225736798 0)
(0.660964312749 -0.0010320284673 0)
(0.661990458833 -0.00128995340838 0)
(0.663268837189 -0.00161409938142 0)
(0.664863978854 -0.00202294638803 0)
(0.666858404716 -0.00254105991266 0)
(0.66935855309 -0.00320169069938 0)
(0.672503250684 -0.00405095264569 0)
(0.676476221031 -0.00515489681522 0)
(0.68152529087 -0.00661235686207 0)
(0.68799286102 -0.00858004198361 0)
(0.69636577929 -0.0113248635484 0)
(0.7073579654 -0.015339157994 0)
(0.722032385831 -0.0215996795769 0)
(0.741923648245 -0.0321286087617 0)
(0.769113240526 -0.0511356707426 0)
(0.805760923846 -0.0871629173717 0)
(0.848105538725 -0.154561039302 0)
(1.03384129082 0.171306948375 0)
(1.10231585075 0.275556744619 0)
(1.11663620422 0.266312371387 0)
(1.09207924599 0.219892603034 0)
(1.0519541934 0.168210317685 0)
(1.01022221167 0.123615335361 0)
(0.973507714349 0.0888850598375 0)
(0.943885942657 0.063049462538 0)
(0.921162796861 0.0442607979762 0)
(0.904299820011 0.0307744353354 0)
(0.892086131919 0.0211830165857 0)
(0.883411229741 0.0144172998929 0)
(0.877355057007 0.00968544360975 0)
(0.873196208578 0.00640758872873 0)
(0.87038805538 0.00416172453904 0)
(0.868526249063 0.00264232212536 0)
(0.867317291422 0.00162947721514 0)
(0.866551578263 0.000966024715161 0)
(0.866081651563 0.000540572290106 0)
(0.865805294578 0.000274926112013 0)
(0.865652720043 0.000114790640043 0)
(0.865577086982 2.29552615897e-05 0)
(0.865547473091 -2.57262736138e-05 0)
(0.86554393384 -4.80467334445e-05 0)
(0.865553979671 -5.49268095569e-05 0)
(0.865569981062 -5.33280492161e-05 0)
(0.865587516866 -4.75746318751e-05 0)
(0.865604205836 -4.02469980687e-05 0)
(0.865618918444 -3.27995945446e-05 0)
(0.865631264377 -2.59814653784e-05 0)
(0.865641265036 -2.01145266872e-05 0)
(0.865649148663 -1.52739394431e-05 0)
(0.865655227212 -1.14027367427e-05 0)
(0.865659826015 -8.38215542669e-06 0)
(0.86566324706 -6.0733073076e-06 0)
(0.865665752506 -4.34010103557e-06 0)
(0.865667560087 -3.06017715932e-06 0)
(0.865668845249 -2.12925948032e-06 0)
(0.865669745765 -1.4618528354e-06 0)
(0.86567036725 -9.90002351358e-07 0)
(0.865670789024 -6.61023004542e-07 0)
(0.865671069697 -4.35120799917e-07 0)
(0.865671252085 -2.82882823314e-07 0)
(0.86567136704 -1.82511103379e-07 0)
(0.865671436422 -1.17774465279e-07 0)
(0.865671475694 -7.7090691922e-08 0)
(0.865671495643 -5.29005553953e-08 0)
(0.865671503433 -4.02000077834e-08 0)
(0.865671503907 -3.44155002035e-08 0)
(0.865671499893 -3.226642594e-08 0)
(0.865671492796 -3.31185837366e-08 0)
(0.865671484056 -3.5960206299e-08 0)
(0.865671474629 -3.99639240482e-08 0)
(0.865671464871 -4.46460481076e-08 0)
(0.865671454978 -4.98213369575e-08 0)
(0.86567144487 -5.52404941321e-08 0)
(0.865671434069 -6.08045189469e-08 0)
(0.865671422227 -6.64440431568e-08 0)
(0.865671409483 -7.19636520311e-08 0)
(0.865671395908 -7.71903602529e-08 0)
(0.865671381295 -8.22785418756e-08 0)
(0.865671365489 -8.77311628784e-08 0)
(0.86567134858 -9.39707950492e-08 0)
(0.865671330664 -1.00869529379e-07 0)
(0.865671311862 -1.08139269798e-07 0)
(0.865671292484 -1.15595435628e-07 0)
(0.86567127278 -1.23083937429e-07 0)
(0.86567125245 -1.30483855338e-07 0)
(0.865671230965 -1.37996018536e-07 0)
(0.865671208116 -1.45823692967e-07 0)
(0.865671183838 -1.54211210155e-07 0)
(0.865671157863 -1.63487759647e-07 0)
(0.86567112975 -1.73689410074e-07 0)
(0.865671099324 -1.84485016623e-07 0)
(0.86567106684 -1.95801464391e-07 0)
(0.865671032854 -2.07968293402e-07 0)
(0.865670997926 -2.20943951855e-07 0)
(0.865670962291 -2.34112031516e-07 0)
(0.865670926004 -2.47238748127e-07 0)
(0.865670889151 -2.60798764934e-07 0)
(0.865670851576 -2.75102715993e-07 0)
(0.865670812776 -2.89871849445e-07 0)
(0.865670772633 -3.04866254126e-07 0)
(0.865670731797 -3.20465182054e-07 0)
(0.865670690587 -3.37251739421e-07 0)
(0.865670648578 -3.55373251751e-07 0)
(0.865670605825 -3.74804099966e-07 0)
(0.865670563197 -3.95787920426e-07 0)
(0.865670521438 -4.18518736753e-07 0)
(0.865670480724 -4.42879132713e-07 0)
(0.865670441442 -4.68981529715e-07 0)
(0.865670404704 -4.97332350606e-07 0)
(0.865670371679 -5.28244157312e-07 0)
(0.865670343193 -5.62100098995e-07 0)
(0.865670320035 -5.9973229549e-07 0)
(0.865670303496 -6.41784595568e-07 0)
(0.865670295332 -6.88347933904e-07 0)
(0.865670297563 -7.39684129176e-07 0)
(0.865670313431 -7.96544505182e-07 0)
(0.865670346773 -8.58354777677e-07 0)
(0.865670399444 -9.24803144982e-07 0)
(0.865670474257 -9.98380711376e-07 0)
(0.865670577833 -1.08160725418e-06 0)
(0.865670718197 -1.17689521738e-06 0)
(0.865670903498 -1.28673393893e-06 0)
(0.86567114307 -1.41495083624e-06 0)
(0.865671450275 -1.5671040489e-06 0)
(0.865671842576 -1.74888194502e-06 0)
(0.865672339984 -1.96690683164e-06 0)
(0.865672966926 -2.2319698368e-06 0)
(0.865673754383 -2.56171537215e-06 0)
(0.86567473936 -2.97237520554e-06 0)
(0.86567596803 -3.47587168437e-06 0)
(0.865677499156 -4.09053470866e-06 0)
(0.865679405337 -4.84164276922e-06 0)
(0.865681775114 -5.76130203717e-06 0)
(0.865684716496 -6.88939921091e-06 0)
(0.865688364033 -8.27565567009e-06 0)
(0.865692884941 -9.9833163982e-06 0)
(0.865698486016 -1.20902955813e-05 0)
(0.865705424244 -1.46909726653e-05 0)
(0.865714019116 -1.79015372766e-05 0)
(0.8657246657 -2.18687149919e-05 0)
(0.865737852771 -2.67791473524e-05 0)
(0.86575418192 -3.2864995157e-05 0)
(0.865774399269 -4.04067692176e-05 0)
(0.865799430489 -4.97521512471e-05 0)
(0.865830420377 -6.13230881156e-05 0)
(0.865868789011 -7.56455756599e-05 0)
(0.865916294528 -9.33764843439e-05 0)
(0.865975116889 -0.000115334058731 0)
(0.86604795778 -0.000142535392814 0)
(0.86613816187 -0.000176242930612 0)
(0.866249874543 -0.000218024691087 0)
(0.866388238504 -0.000269830300651 0)
(0.866559633795 -0.0003340865203 0)
(0.866771976287 -0.000413815890641 0)
(0.867035092515 -0.000512786044361 0)
(0.867361193635 -0.000635705099501 0)
(0.867765465249 -0.000788470015321 0)
(0.868266808664 -0.000978484372158 0)
(0.868888782401 -0.00121507588977 0)
(0.869660799574 -0.00151005033262 0)
(0.870619658649 -0.00187843012179 0)
(0.871811515061 -0.00233945636352 0)
(0.873294444536 -0.00291798022721 0)
(0.875141816496 -0.00364643800397 0)
(0.8774467942 -0.00456772561796 0)
(0.880328418822 -0.00573952425617 0)
(0.883939987925 -0.00724109851912 0)
(0.88848079557 -0.00918444339174 0)
(0.894212772903 -0.0117335079953 0)
(0.901483971559 -0.0151390708175 0)
(0.910760488287 -0.0198044811684 0)
(0.922664870503 -0.0264127486277 0)
(0.937999514678 -0.0361712300268 0)
(0.957669636504 -0.0512491650872 0)
(0.982338519424 -0.0754264099189 0)
(1.01137166111 -0.11470941573 0)
(1.03886106449 -0.176135557044 0)
(1.02388346799 0.119321984522 0)
(1.08875436538 0.231514423229 0)
(1.13660482787 0.252868939409 0)
(1.15406272813 0.228905046619 0)
(1.15000112051 0.188337387157 0)
(1.13537623425 0.146577291183 0)
(1.11757777305 0.1101648202 0)
(1.10059199213 0.0808376071464 0)
(1.08612240817 0.0582502009601 0)
(1.07458761414 0.0413417866365 0)
(1.06578679064 0.0289362847358 0)
(1.05928155918 0.0199770216183 0)
(1.05459131819 0.0135949311267 0)
(1.05128025779 0.00910742806898 0)
(1.04898734945 0.00599313339712 0)
(1.04742903898 0.00386144128568 0)
(1.04639044546 0.00242413637853 0)
(1.04571297755 0.00147134783072 0)
(1.04528204636 0.000852135561619 0)
(1.0450163647 0.000459262499135 0)
(1.04485924218 0.000217488537541 0)
(1.04477181233 7.47168600385e-05 0)
(1.04472783047 -4.64712988812e-06 0)
(1.04470996326 -4.44466969443e-05 0)
(1.04470703559 -6.05366070078e-05 0)
(1.04471195687 -6.30935496976e-05 0)
(1.04472039589 -5.85435263772e-05 0)
(1.04472983639 -5.08101947711e-05 0)
(1.04473891028 -4.21786385056e-05 0)
(1.04474695678 -3.38911977136e-05 0)
(1.04475373588 -2.65463803103e-05 0)
(1.04475924335 -2.03604712076e-05 0)
(1.04476359484 -1.53358459232e-05 0)
(1.04476695593 -1.13661051127e-05 0)
(1.04476950203 -8.29967389632e-06 0)
(1.04477139754 -5.97613337601e-06 0)
(1.04477278628 -4.24501416901e-06 0)
(1.04477378853 -2.97472388972e-06 0)
(1.0447745014 -2.05562918103e-06 0)
(1.04477500095 -1.39963995105e-06 0)
(1.04477534536 -9.37736047269e-07 0)
(1.04477557831 -6.16887784605e-07 0)
(1.04477573242 -3.97248007696e-07 0)
(1.04477583183 -2.49130595302e-07 0)
(1.04477589389 -1.50486318625e-07 0)
(1.04477593082 -8.54626709473e-08 0)
(1.04477595105 -4.3271411448e-08 0)
(1.04477595992 -1.67859300611e-08 0)
(1.04477596072 -1.26109046859e-09 0)
(1.04477595558 6.6504287132e-09 0)
(1.04477594672 9.77443260976e-09 0)
(1.04477593629 1.07431613779e-08 0)
(1.04477592518 1.08417525129e-08 0)
(1.04477591376 1.07165019788e-08 0)
(1.04477590228 1.03183138587e-08 0)
(1.04477589064 9.65924024931e-09 0)
(1.04477587843 8.86201917717e-09 0)
(1.04477586541 8.46070942483e-09 0)
(1.04477585147 8.75937569221e-09 0)
(1.04477583638 9.64650297e-09 0)
(1.04477581974 1.08067342019e-08 0)
(1.04477580146 1.19425059515e-08 0)
(1.04477578185 1.28762503578e-08 0)
(1.04477576124 1.36779702679e-08 0)
(1.0447757398 1.46794823172e-08 0)
(1.04477571771 1.62229573316e-08 0)
(1.0447756951 1.83927118698e-08 0)
(1.04477567161 2.10103163717e-08 0)
(1.04477564671 2.39429805696e-08 0)
(1.04477562015 2.69818153185e-08 0)
(1.04477559179 2.98632897867e-08 0)
(1.04477556146 3.24637234773e-08 0)
(1.044775529 3.49892397528e-08 0)
(1.04477549422 3.76943424244e-08 0)
(1.044775457 4.05637744604e-08 0)
(1.0447754179 4.34355263973e-08 0)
(1.04477537796 4.62813260049e-08 0)
(1.04477533759 4.93685557073e-08 0)
(1.04477529636 5.3039258817e-08 0)
(1.04477525403 5.72825643115e-08 0)
(1.04477521076 6.17903157407e-08 0)
(1.04477516636 6.66153292961e-08 0)
(1.04477512043 7.22086854539e-08 0)
(1.04477507307 7.83856008115e-08 0)
(1.04477502469 8.42957340726e-08 0)
(1.04477497523 8.97259093709e-08 0)
(1.04477492462 9.50687683733e-08 0)
(1.04477487366 1.00170556429e-07 0)
(1.04477482337 1.04473088431e-07 0)
(1.04477477396 1.07977197305e-07 0)
(1.04477472549 1.11011095006e-07 0)
(1.04477467914 1.13290708838e-07 0)
(1.04477463619 1.14066092741e-07 0)
(1.04477459723 1.12650709525e-07 0)
(1.04477456304 1.08365118897e-07 0)
(1.04477453537 1.00369448389e-07 0)
(1.04477451595 8.78279674119e-08 0)
(1.04477450591 6.98042041775e-08 0)
(1.04477450775 4.46043305127e-08 0)
(1.04477452537 9.33078845223e-09 0)
(1.04477456285 -3.94512282098e-08 0)
(1.04477462492 -1.03382654866e-07 0)
(1.04477471779 -1.84735114462e-07 0)
(1.04477484906 -2.87582479645e-07 0)
(1.04477502697 -4.17802326644e-07 0)
(1.04477526136 -5.81526631566e-07 0)
(1.04477556649 -7.8572791942e-07 0)
(1.04477596124 -1.03950171393e-06 0)
(1.04477646695 -1.35334606834e-06 0)
(1.04477710845 -1.73977974365e-06 0)
(1.04477791644 -2.2156999532e-06 0)
(1.04477892876 -2.80293596743e-06 0)
(1.04478019375 -3.52715229396e-06 0)
(1.04478177258 -4.419408813e-06 0)
(1.04478374032 -5.51881560998e-06 0)
(1.0447861891 -6.87502005389e-06 0)
(1.04478923168 -8.54804400502e-06 0)
(1.04479300717 -1.06118798362e-05 0)
(1.04479768867 -1.31595023038e-05 0)
(1.04480349144 -1.63052767605e-05 0)
(1.04481068355 -2.01899011624e-05 0)
(1.04481959692 -2.49879958209e-05 0)
(1.04483064083 -3.0916636034e-05 0)
(1.04484432148 -3.82481220457e-05 0)
(1.04486126409 -4.73222570826e-05 0)
(1.04488224249 -5.85555592338e-05 0)
(1.04490821582 -7.24637200434e-05 0)
(1.04494037248 -8.96821027886e-05 0)
(1.04498018527 -0.000110997764297 0)
(1.04502947725 -0.000137384631027 0)
(1.04509050703 -0.000170051354214 0)
(1.04516607335 -0.000210501189352 0)
(1.04525964206 -0.000260600045291 0)
(1.04537550696 -0.000322662393807 0)
(1.0455189902 -0.000399563334246 0)
(1.04569669021 -0.000494879828473 0)
(1.04591678928 -0.000613065469851 0)
(1.04618943486 -0.000759668719523 0)
(1.04652721928 -0.000941615702385 0)
(1.04694577875 -0.00116757146941 0)
(1.0474645407 -0.00144840098354 0)
(1.04810766048 -0.0017977689832 0)
(1.04890520373 -0.00223292841352 0)
(1.04989464194 -0.00277576464841 0)
(1.05112274581 -0.00345420421554 0)
(1.05264799864 -0.00430414577482 0)