/*--------------------------------*- C++ -*----------------------------------*\
| =========                 |                                                 |
| \\      /  F ield         | OpenFOAM: The Open Source CFD Toolbox           |
|  \\    /   O peration     | Version:  2106                                  |
|   \\  /    A nd           | Website:  www.openfoam.com                      |
|    \\/     M anipulation  |                                                 |
\*---------------------------------------------------------------------------*/
FoamFile
{
    version     2.0;
    format      ascii;
    arch        "LSB;label=32;scalar=64";
    class       surfaceScalarField;
    location    "0.111";
    object      phi;
}
// * * * * * * * * * * * * * * * * * * * * * * * * * * * * * * * * * * * * * //

dimensions      [0 3 -1 0 0 0 0];

oriented        oriented;

internalField   nonuniform List<scalar> 
799
(
1.67774e-32
4.35522e-32
5.5685e-32
4.37863e-32
1.74853e-32
-5.03992e-32
-1.1102e-31
-1.58134e-31
-1.69413e-31
-1.32877e-31
-7.83041e-32
-1.72481e-32
2.00088e-32
2.85368e-32
5.7366e-33
-3.47053e-32
-8.68113e-32
-1.40376e-31
-1.81553e-31
-2.10379e-31
-2.03056e-31
-1.67754e-31
-1.07368e-31
-3.73676e-32
2.45857e-33
1.08018e-32
-3.16116e-32
-1.0298e-31
-1.70018e-31
-2.23352e-31
-2.26935e-31
-2.00363e-31
-1.54758e-31
-1.00434e-31
-7.62638e-32
-6.58979e-32
-8.38031e-32
-1.22403e-31
-1.52976e-31
-1.9036e-31
-2.00008e-31
-1.88193e-31
-1.65379e-31
-1.19302e-31
-9.46818e-32
-8.49854e-32
-1.01477e-31
-1.51005e-31
-1.91511e-31
-2.28339e-31
-2.30789e-31
-1.97451e-31
-1.54756e-31
-1.00918e-31
-7.69497e-32
-8.35313e-32
-1.17039e-31
-1.76517e-31
-2.22291e-31
-2.47792e-31
-2.3496e-31
-1.8213e-31
-1.20328e-31
-6.56842e-32
-5.31406e-32
-9.41396e-32
-1.68173e-31
-2.51913e-31
-2.97546e-31
-2.8022e-31
-2.09011e-31
-1.07413e-31
-3.11056e-32
-1.46852e-32
-6.18494e-32
-1.55688e-31
-2.42237e-31
-2.86888e-31
-2.75379e-31
-2.16107e-31
-1.49823e-31
-1.00758e-31
-8.53176e-32
-1.00232e-31
-1.24247e-31
-1.50072e-31
-1.69515e-31
-1.87513e-31
-2.07665e-31
-2.19767e-31
-2.17632e-31
-1.86334e-31
-1.336e-31
-8.00104e-32
-4.71612e-32
-6.58623e-32
-1.24262e-31
-2.05841e-31
-2.75e-31
-2.88158e-31
-2.5267e-31
-1.66683e-31
-7.56356e-32
-2.21738e-32
-1.29128e-32
-7.06308e-32
-1.49659e-31
-2.23206e-31
-2.66893e-31
-2.49652e-31
-2.05572e-31
-1.42573e-31
-9.56901e-32
-8.68685e-32
-9.80678e-32
-1.28446e-31
-1.45053e-31
-1.4232e-31
-1.29348e-31
-1.15224e-31
-1.24912e-31
-1.55174e-31
-1.96476e-31
-2.27064e-31
-2.25412e-31
-1.90509e-31
-1.30908e-31
-7.12188e-32
-3.31754e-32
-2.75865e-32
-5.73057e-32
-1.09456e-31
-1.70196e-31
-2.25303e-31
-2.56954e-31
-2.59477e-31
-2.25548e-31
-1.61198e-31
-8.72465e-32
-2.22599e-32
3.23491e-33
-1.91225e-32
-8.21242e-32
-1.66116e-31
-2.30758e-31
-2.57054e-31
-2.3336e-31
-1.72915e-31
-1.09992e-31
-6.64912e-32
-6.55178e-32
-9.99016e-32
-1.46719e-31
-1.83625e-31
-1.83965e-31
-1.50882e-31
-9.98933e-32
-5.79795e-32
-5.49733e-32
-9.48159e-32
-1.65724e-31
-2.32357e-31
-2.59083e-31
-2.27958e-31
-1.47544e-31
-5.79572e-32
3.64121e-34
-7.31327e-33
-7.35765e-32
-1.63292e-31
-2.33807e-31
-2.40443e-31
-1.93782e-31
-1.16033e-31
-5.30594e-32
-4.63382e-32
-8.19886e-32
-1.50537e-31
-1.99802e-31
-2.01609e-31
-1.64998e-31
-9.36483e-32
-4.37953e-32
-2.99443e-32
-5.85919e-32
-1.25515e-31
-1.81012e-31
-2.16975e-31
-2.08777e-31
-1.61176e-31
-1.0527e-31
-4.87521e-32
-2.51229e-32
-3.30391e-32
-6.39461e-32
-1.11822e-31
-1.48733e-31
-1.72242e-31
-1.75276e-31
-1.56889e-31
-1.29631e-31
-9.33677e-32
-5.88336e-32
-3.55191e-32
-2.74468e-32
-4.5081e-32
-8.314e-32
-1.27778e-31
-1.62535e-31
-1.63692e-31
-1.27599e-31
-6.72867e-32
-7.7308e-33
1.57956e-32
-1.00457e-32
-7.50526e-32
-1.47354e-31
-1.81447e-31
-1.52095e-31
-6.59375e-32
4.07673e-32
1.11538e-31
1.05947e-31
2.39861e-32
-1.00272e-31
-1.9989e-31
-2.1943e-31
-1.46715e-31
-4.46838e-33
1.35865e-31
2.10992e-31
1.92993e-31
8.69485e-32
-4.17447e-32
-1.33487e-31
-1.46313e-31
-6.76942e-32
5.41796e-32
1.73468e-31
2.41645e-31
2.34478e-31
1.76587e-31
9.70388e-32
4.09617e-32
3.70757e-32
8.26312e-32
1.60614e-31
2.36742e-31
2.82012e-31
2.87039e-31
2.66079e-31
2.43326e-31
2.49313e-31
2.948e-31
3.60988e-31
4.25912e-31
4.53502e-31
4.36326e-31
3.98996e-31
3.69279e-31
3.90791e-31
4.71304e-31
5.85007e-31
6.99357e-31
7.67552e-31
7.77305e-31
7.51106e-31
7.16599e-31
7.15874e-31
7.63333e-31
8.41365e-31
9.37421e-31
1.02082e-30
1.08476e-30
1.1433e-30
1.19376e-30
1.25439e-30
1.31826e-30
1.37572e-30
1.43702e-30
1.49438e-30
1.56427e-30
1.64849e-30
1.73571e-30
1.82504e-30
1.90324e-30
1.98128e-30
2.07564e-30
2.19816e-30
2.35063e-30
2.50942e-30
2.64343e-30
2.72833e-30
2.77178e-30
2.8057e-30
2.88181e-30
3.03514e-30
3.25931e-30
3.52084e-30
3.75363e-30
3.91948e-30
4.01593e-30
4.07532e-30
4.16516e-30
4.31999e-30
4.55165e-30
4.82956e-30
5.09812e-30
5.33132e-30
5.51539e-30
5.68133e-30
5.86843e-30
6.09472e-30
6.36917e-30
6.65994e-30
6.94187e-30
7.20288e-30
7.44253e-30
7.69479e-30
7.97735e-30
8.30154e-30
8.66132e-30
9.02184e-30
9.36919e-30
9.68898e-30
9.99292e-30
1.03162e-29
1.06735e-29
1.1087e-29
1.1541e-29
1.20034e-29
1.24545e-29
1.2862e-29
1.32438e-29
1.36248e-29
1.40356e-29
1.45184e-29
1.50612e-29
1.56509e-29
1.6244e-29
1.67878e-29
1.72675e-29
1.76859e-29
1.80462e-29
1.8567e-29
1.91975e-29
2.06554e-29
2.31771e-29
2.68919e-29
3.38683e-29
3.66517e-29
3.95396e-29
2.25692e-29
-2.00799e-29
-7.13499e-29
-1.76836e-28
-1.67366e-28
-1.0646e-28
1.81675e-28
8.26024e-28
1.19151e-27
1.83412e-27
1.07264e-27
-7.45097e-28
-3.02026e-27
-7.52652e-27
-7.19678e-27
-5.91431e-27
1.76518e-27
1.68933e-26
2.26851e-26
3.3066e-26
1.66656e-26
-1.35937e-26
-4.09898e-26
-9.0478e-26
-7.13048e-26
-4.21771e-26
3.1588e-26
1.54643e-25
1.62753e-25
1.92016e-25
5.43293e-26
-1.45582e-25
-2.41544e-25
-4.15693e-25
-2.36505e-25
-3.16249e-26
2.19172e-25
5.89214e-25
4.55175e-25
3.83053e-25
-3.70654e-26
-5.43983e-25
-5.80031e-25
-7.54233e-25
-2.54559e-25
2.23647e-25
5.06867e-25
9.15311e-25
5.06877e-25
2.23662e-25
-2.54546e-25
-7.54228e-25
-5.80036e-25
-5.43996e-25
-3.70795e-26
3.83044e-25
4.55173e-25
5.89218e-25
2.1918e-25
-3.16192e-26
-2.36504e-25
-4.15695e-25
-2.41549e-25
-1.45587e-25
5.43257e-26
1.92014e-25
1.62753e-25
1.54643e-25
3.15883e-26
-4.21774e-26
-7.13055e-26
-9.04788e-26
-4.09908e-26
-1.35945e-26
1.66646e-26
3.3065e-26
2.26841e-26
1.68924e-26
1.76439e-27
-5.91501e-27
-7.19739e-27
-7.52707e-27
-3.02084e-27
-7.45695e-28
1.07199e-27
1.83344e-27
1.19082e-27
8.25345e-28
1.81069e-28
-1.06986e-28
-1.6779e-28
-1.77193e-28
-7.17063e-29
-2.04803e-29
2.20633e-29
3.89517e-29
3.60317e-29
3.329e-29
2.64421e-29
2.28644e-29
2.04632e-29
1.90536e-29
1.8383e-29
1.77782e-29
1.73079e-29
1.68141e-29
1.63193e-29
1.58147e-29
1.532e-29
1.48442e-29
1.44015e-29
1.39841e-29
1.35686e-29
1.3134e-29
1.2666e-29
1.21736e-29
1.16924e-29
1.12493e-29
1.0871e-29
1.05506e-29
1.02588e-29
9.96967e-30
9.64731e-30
9.29387e-30
8.91696e-30
8.53701e-30
8.18555e-30
7.86852e-30
7.59959e-30
7.36739e-30
7.15206e-30
6.93653e-30
6.69372e-30
6.41891e-30
6.12202e-30
5.82557e-30
5.56381e-30
5.35918e-30
5.20539e-30
5.08381e-30
4.95121e-30
4.77256e-30
4.54884e-30
4.28673e-30
4.03741e-30
3.83706e-30
3.69614e-30
3.61929e-30
3.55455e-30
3.4711e-30
3.34153e-30
3.15276e-30
2.94428e-30
2.74162e-30
2.58633e-30
2.50006e-30
2.46458e-30
2.45576e-30
2.42421e-30
2.33304e-30
2.17688e-30
1.97582e-30
1.78006e-30
1.6446e-30
1.59409e-30
1.62036e-30
1.67634e-30
1.69686e-30
1.64262e-30
1.5042e-30
1.32007e-30
1.14785e-30
1.03544e-30
1.00366e-30
1.0297e-30
1.07606e-30
1.09458e-30
1.06542e-30
9.89284e-31
8.84443e-31
7.87025e-31
7.08451e-31
6.68137e-31
6.55814e-31
6.56602e-31
6.62095e-31
6.43121e-31
6.10132e-31
5.56503e-31
4.98872e-31
4.62963e-31
4.39066e-31
4.44836e-31
4.4835e-31
4.3347e-31
4.01595e-31
3.3692e-31
2.829e-31
2.48566e-31
2.45797e-31
2.81448e-31
3.11509e-31
3.2879e-31
3.11114e-31
2.59615e-31
2.07867e-31
1.60471e-31
1.38454e-31
1.33745e-31
1.26226e-31
1.20265e-31
1.09107e-31
1.13526e-31
1.46863e-31
1.92412e-31
2.35601e-31
2.3197e-31
1.62919e-31
4.95596e-32
-7.59862e-32
-1.39839e-31
-1.08686e-31
8.79646e-33
1.74581e-31
2.92198e-31
3.11278e-31
2.11952e-31
2.49897e-32
-1.48359e-31
-2.45202e-31
-2.1104e-31
-6.06277e-32
1.20007e-31
2.6339e-31
2.86602e-31
1.86337e-31
1.91024e-32
-1.5137e-31
-2.29384e-31
-1.97609e-31
-7.84305e-32
7.52377e-32
1.74327e-31
1.95425e-31
1.31215e-31
1.89343e-32
-7.67679e-32
-1.36038e-31
-1.33478e-31
-9.01719e-32
-3.56312e-32
2.09095e-32
5.24665e-32
6.91364e-32
6.74948e-32
4.61114e-32
1.77238e-32
-2.41426e-32
-6.05622e-32
-8.69791e-32
-9.66166e-32
-8.33698e-32
-5.75296e-32
-1.85769e-32
1.84558e-32
5.05361e-32
6.55655e-32
5.73476e-32
2.94773e-32
-2.11195e-32
-6.73338e-32
-1.04537e-31
-1.14424e-31
-9.07361e-32
-5.52757e-32
-4.08433e-33
3.12132e-32
4.86794e-32
5.08024e-32
2.5013e-32
-2.62709e-33
-4.03287e-32
-7.38008e-32
-8.83535e-32
-9.16231e-32
-6.58354e-32
-2.88683e-32
1.02766e-32
4.18183e-32
4.50224e-32
2.92113e-32
-6.01176e-33
-4.47553e-32
-7.13092e-32
-8.24117e-32
-7.04892e-32
-4.44138e-32
-1.1892e-32
1.59642e-32
2.93689e-32
2.36778e-32
3.54491e-33
-2.11416e-32
-4.00413e-32
-4.01e-32
-3.13699e-32
-1.74182e-32
-1.2834e-32
-2.5642e-32
-3.65069e-32
-4.31815e-32
-2.28373e-32
1.67625e-32
5.03255e-32
6.46827e-32
3.03138e-32
-3.08454e-32
-9.28569e-32
-1.22739e-31
-9.03239e-32
-1.92202e-32
6.58156e-32
1.14491e-31
1.00538e-31
3.65596e-32
-5.26637e-32
-1.11025e-31
-1.16149e-31
-6.55253e-32
1.49658e-32
7.48841e-32
9.30164e-32
5.58769e-32
-9.95315e-33
-6.45548e-32
-8.48841e-32
-5.25493e-32
6.96932e-33
6.268e-32
8.75798e-32
6.05976e-32
2.81442e-33
-6.11394e-32
-1.00325e-31
-8.90321e-32
-3.93595e-32
3.22774e-32
9.50958e-32
1.17763e-31
1.00262e-31
4.44521e-32
-2.69818e-32
-8.29008e-32
-1.13739e-31
-1.02431e-31
-5.6259e-32
6.59156e-33
7.60569e-32
1.21513e-31
1.33897e-31
1.06824e-31
3.99849e-32
-3.79498e-32
-1.08149e-31
-1.38972e-31
-1.13332e-31
-4.17686e-32
5.70843e-32
1.38143e-31
1.68371e-31
1.34341e-31
4.59253e-32
-5.37936e-32
-1.22149e-31
-1.27916e-31
-6.75511e-32
2.67881e-32
1.11407e-31
1.47408e-31
1.17038e-31
4.13157e-32
-4.32161e-32
-9.57864e-32
-8.68406e-32
-2.95337e-32
5.29668e-32
1.18331e-31
1.30527e-31
9.63943e-32
2.24702e-32
-4.59443e-32
-7.43966e-32
-6.16884e-32
6.68057e-34
6.57213e-32
1.08662e-31
1.17264e-31
7.49006e-32
2.37852e-32
-2.44786e-32
-4.68272e-32
-2.72128e-32
5.92901e-33
5.10447e-32
8.18219e-32
8.74327e-32
7.93303e-32
5.49514e-32
3.29646e-32
1.99003e-32
1.2678e-32
1.47257e-32
1.71758e-32
1.53721e-32
1.65455e-32
1.6657e-32
2.64623e-32
4.92835e-32
7.31996e-32
1.02357e-31
1.10921e-31
9.69491e-32
6.18231e-32
3.75124e-33
-3.99059e-32
-6.57261e-32
-5.08724e-32
2.62107e-33
6.67715e-32
1.30075e-31
1.53631e-31
1.38438e-31
8.66315e-32
2.2984e-32
-2.60337e-32
-4.65594e-32
-2.52823e-32
5.4242e-33
5.42134e-32
7.46223e-32
7.52798e-32
6.82772e-32
2.3478e-32
1.40946e-32
-1.83686e-32
-2.4565e-32
-4.63627e-33
)
;

boundaryField
{
    left
    {
        type            calculated;
        value           uniform 0;
    }
    right
    {
        type            calculated;
        value           uniform 0;
    }
    empty
    {
        type            empty;
        value           nonuniform List<scalar> 0();
    }
}


// ************************************************************************* //
