/*--------------------------------*- C++ -*----------------------------------*\
| =========                 |                                                 |
| \\      /  F ield         | OpenFOAM: The Open Source CFD Toolbox           |
|  \\    /   O peration     | Version:  2106                                  |
|   \\  /    A nd           | Website:  www.openfoam.com                      |
|    \\/     M anipulation  |                                                 |
\*---------------------------------------------------------------------------*/
FoamFile
{
    version     2.0;
    format      ascii;
    arch        "LSB;label=32;scalar=64";
    class       volVectorField;
    location    "0.46";
    object      U;
}
// * * * * * * * * * * * * * * * * * * * * * * * * * * * * * * * * * * * * * //

dimensions      [0 1 -1 0 0 0 0];

internalField   nonuniform List<vector> 
9600
(
(0.675396173761 0.157677442718 0)
(0.563826158482 0.102430807557 0)
(0.381538939562 0.0510646901594 0)
(0.283853188324 0.0244589882434 0)
(0.232281028299 0.011934823467 0)
(0.201907712092 0.00623035808015 0)
(0.183178410928 0.00352192609118 0)
(0.1712719889 0.00212007551672 0)
(0.163512242936 0.00132523601483 0)
(0.158392662239 0.000841456577386 0)
(0.155010699538 0.000534135522718 0)
(0.1527899814 0.000335039049753 0)
(0.151348693419 0.000205521156694 0)
(0.150429247161 0.000121792404332 0)
(0.149856461838 6.84338970937e-05 0)
(0.14951112642 3.51731140532e-05 0)
(0.149312517172 1.50867847333e-05 0)
(0.14920646719 3.50385380227e-06 0)
(0.149157085735 -2.70686360179e-06 0)
(0.149140974549 -5.61155321101e-06 0)
(0.149143256659 -6.52737653368e-06 0)
(0.149154652445 -6.4182382439e-06 0)
(0.14916959195 -5.78242843911e-06 0)
(0.149184964616 -4.92866148859e-06 0)
(0.149199136347 -4.04303448923e-06 0)
(0.149211385689 -3.22394409916e-06 0)
(0.149221524793 -2.51514658866e-06 0)
(0.149229653687 -1.92840281827e-06 0)
(0.14923600898 -1.45823910527e-06 0)
(0.1492408754 -1.09121562191e-06 0)
(0.149244535537 -8.1122393247e-07 0)
(0.149247244225 -6.01786946502e-07 0)
(0.149249218668 -4.47609581151e-07 0)
(0.149250637578 -3.35791990783e-07 0)
(0.149251643346 -2.55939309839e-07 0)
(0.149252346166 -1.99583261457e-07 0)
(0.149252829797 -1.59735126231e-07 0)
(0.14925315753 -1.31272457915e-07 0)
(0.149253375903 -1.10454228983e-07 0)
(0.149253518428 -9.45137582009e-08 0)
(0.149253609609 -8.22237794825e-08 0)
(0.149253666561 -7.34911373119e-08 0)
(0.149253700356 -6.95245989273e-08 0)
(0.149253718195 -7.01717054159e-08 0)
(0.149253725523 -7.31813606876e-08 0)
(0.149253726464 -7.76269623075e-08 0)
(0.149253723911 -8.36999271324e-08 0)
(0.149253719812 -9.1538737519e-08 0)
(0.149253715191 -1.0017954489e-07 0)
(0.149253710964 -1.09301916315e-07 0)
(0.149253707509 -1.18813153786e-07 0)
(0.149253704464 -1.28601872172e-07 0)
(0.149253701728 -1.38766598803e-07 0)
(0.149253699294 -1.49594030488e-07 0)
(0.149253696732 -1.61146780116e-07 0)
(0.149253693588 -1.73261998702e-07 0)
(0.149253690091 -1.86173146889e-07 0)
(0.149253686458 -2.00279075563e-07 0)
(0.149253682474 -2.15582320754e-07 0)
(0.149253678012 -2.31861472061e-07 0)
(0.149253673408 -2.49107816843e-07 0)
(0.14925366925 -2.67551240694e-07 0)
(0.149253665618 -2.87244352364e-07 0)
(0.149253662154 -3.08128576488e-07 0)
(0.149253658489 -3.30128528267e-07 0)
(0.149253654606 -3.53369546142e-07 0)
(0.149253650493 -3.78008998165e-07 0)
(0.149253645951 -4.04129037098e-07 0)
(0.149253640875 -4.31786010031e-07 0)
(0.149253635371 -4.6108441911e-07 0)
(0.149253629604 -4.9216169797e-07 0)
(0.149253623574 -5.25100324714e-07 0)
(0.149253617226 -5.59941913732e-07 0)
(0.149253610488 -5.96617981063e-07 0)
(0.149253603523 -6.35129142303e-07 0)
(0.14925359671 -6.75602709851e-07 0)
(0.149253590249 -7.18141643292e-07 0)
(0.149253584026 -7.62732761573e-07 0)
(0.149253577877 -8.09427862993e-07 0)
(0.149253571802 -8.58481321647e-07 0)
(0.149253565642 -9.10131821574e-07 0)
(0.149253558936 -9.64407337037e-07 0)
(0.149253551358 -1.02117429414e-06 0)
(0.149253543148 -1.08041663659e-06 0)
(0.149253534866 -1.14235204977e-06 0)
(0.149253526668 -1.2071388855e-06 0)
(0.149253518318 -1.27468913153e-06 0)
(0.149253509957 -1.34493288122e-06 0)
(0.149253502323 -1.41810666682e-06 0)
(0.149253495911 -1.49437821801e-06 0)
(0.149253490234 -1.57336090716e-06 0)
(0.149253484919 -1.65482793018e-06 0)
(0.149253480409 -1.7392918111e-06 0)
(0.149253476921 -1.82723503049e-06 0)
(0.149253473816 -1.91820420905e-06 0)
(0.149253471128 -2.01180077378e-06 0)
(0.149253470258 -2.1084119587e-06 0)
(0.149253472229 -2.20824937212e-06 0)
(0.149253477171 -2.3105404719e-06 0)
(0.14925348548 -2.41422863017e-06 0)
(0.149253499193 -2.51965368913e-06 0)
(0.149253519461 -2.62730751662e-06 0)
(0.149253545923 -2.73679583214e-06 0)
(0.149253579742 -2.84761044098e-06 0)
(0.149253623988 -2.96032516478e-06 0)
(0.14925368135 -3.07552312647e-06 0)
(0.149253753351 -3.19289608326e-06 0)
(0.149253843043 -3.31234432561e-06 0)
(0.1492539554 -3.43476315413e-06 0)
(0.149254096946 -3.56387684744e-06 0)
(0.149254273387 -3.70552466094e-06 0)
(0.149254492893 -3.86412735771e-06 0)
(0.149254767067 -4.03361133e-06 0)
(0.149255108838 -4.2123325687e-06 0)
(0.149255533785 -4.40109206656e-06 0)
(0.149256059978 -4.60039113781e-06 0)
(0.149256711267 -4.81117885636e-06 0)
(0.149257517618 -5.03470434627e-06 0)
(0.149258516127 -5.27302590437e-06 0)
(0.149259752275 -5.5279948327e-06 0)
(0.149261282268 -5.8016118187e-06 0)
(0.149263175617 -6.0962541529e-06 0)
(0.149265518739 -6.41653556229e-06 0)
(0.149268428779 -6.77728209361e-06 0)
(0.149272072693 -7.23307497783e-06 0)
(0.149276587515 -7.90740731994e-06 0)
(0.14928213253 -8.75360643268e-06 0)
(0.149288976139 -9.72856225365e-06 0)
(0.149297448104 -1.08264040923e-05 0)
(0.149307941433 -1.20580399964e-05 0)
(0.149320935893 -1.34405905942e-05 0)
(0.149337026589 -1.49976519901e-05 0)
(0.149356954398 -1.67613693196e-05 0)
(0.149381637879 -1.87727834737e-05 0)
(0.14941221419 -2.10807164639e-05 0)
(0.149450093901 -2.37441138698e-05 0)
(0.149497033701 -2.68403099371e-05 0)
(0.149555217491 -3.04694661057e-05 0)
(0.149627358766 -3.47573038017e-05 0)
(0.149716834885 -3.98600138668e-05 0)
(0.149827862049 -4.59773293709e-05 0)
(0.149965713221 -5.33652902497e-05 0)
(0.150136991538 -6.23507231259e-05 0)
(0.150349989239 -7.33504857461e-05 0)
(0.150615162565 -8.69017977809e-05 0)
(0.150945755261 -0.000103700860211 0)
(0.151358626389 -0.000124653792698 0)
(0.151875381496 -0.00015094861875 0)
(0.152523938979 -0.000184152471224 0)
(0.15334074532 -0.00022634808449 0)
(0.154374018207 -0.000280341397965 0)
(0.155688767659 -0.000350071204951 0)
(0.157375344219 -0.000441776735956 0)
(0.159566793597 -0.000568312405628 0)
(0.162480497209 -0.000765746903378 0)
(0.16652351149 -0.00115429514453 0)
(0.172621130172 -0.00215994438521 0)
(0.183546277043 -0.00536438437401 0)
(0.207638828639 -0.0167313694661 0)
(0.260699322892 -0.0581419861432 0)
(0.977201159563 0.296997128228 0)
(0.962687453773 0.250387275989 0)
(0.820646038622 0.15858100699 0)
(0.697824898148 0.0957993440551 0)
(0.610491667163 0.0579132767653 0)
(0.549133316733 0.0359038522052 0)
(0.506705990047 0.0229309359212 0)
(0.477662024532 0.0149788792967 0)
(0.457815302985 0.00990973276577 0)
(0.444277678925 0.00658331004056 0)
(0.435087229335 0.00436198750445 0)
(0.428895559106 0.00286682640469 0)
(0.424768040849 0.00185972057542 0)
(0.422054231784 0.00118457282757 0)
(0.420301051623 0.000736110653104 0)
(0.419193680168 0.000442158793363 0)
(0.418514611282 0.000252859864591 0)
(0.41811483522 0.000133739011642 0)
(0.417893376034 6.10520810629e-05 0)
(0.417782731416 1.85771556724e-05 0)
(0.41773847177 -4.63507671902e-06 0)
(0.417731932821 -1.6010850842e-05 0)
(0.41774514848 -2.030718758e-05 0)
(0.41776717219 -2.06099105338e-05 0)
(0.417791622057 -1.88564055466e-05 0)
(0.417815036766 -1.62213408002e-05 0)
(0.417835756869 -1.33834368285e-05 0)
(0.417853190044 -1.07057770286e-05 0)
(0.417867339576 -8.35732327545e-06 0)
(0.417878511343 -6.39330293319e-06 0)
(0.417887136877 -4.80664380703e-06 0)
(0.417893671269 -3.5587408376e-06 0)
(0.417898538749 -2.59798605284e-06 0)
(0.417902109131 -1.87141963118e-06 0)
(0.417904690692 -1.33076093882e-06 0)
(0.41790653162 -9.34364339886e-07 0)
(0.417907826119 -6.47194677646e-07 0)
(0.417908723514 -4.41576011346e-07 0)
(0.417909336454 -2.96113117216e-07 0)
(0.417909747661 -1.94191944543e-07 0)
(0.417910017606 -1.241268146e-07 0)
(0.417910189483 -7.77379523568e-08 0)
(0.417910293902 -4.92777618884e-08 0)
(0.417910354034 -3.36584059396e-08 0)
(0.417910385776 -2.58409981095e-08 0)
(0.417910398593 -2.23684943091e-08 0)
(0.417910399408 -2.09021859525e-08 0)
(0.417910394345 -1.98493053147e-08 0)
(0.417910386878 -1.91623267752e-08 0)
(0.417910378585 -1.9238084202e-08 0)
(0.417910370488 -2.01954567664e-08 0)
(0.41791036247 -2.15633954641e-08 0)
(0.417910354306 -2.30767370113e-08 0)
(0.417910346094 -2.50478410502e-08 0)
(0.417910337718 -2.75989333932e-08 0)
(0.417910328524 -3.02197905023e-08 0)
(0.417910318308 -3.27506239265e-08 0)
(0.417910307498 -3.56400402289e-08 0)
(0.41791029637 -3.90633551917e-08 0)
(0.4179102848 -4.25449937882e-08 0)
(0.417910272776 -4.56761093502e-08 0)
(0.41791026084 -4.86829640626e-08 0)
(0.417910249266 -5.18524406702e-08 0)
(0.417910237756 -5.52314384587e-08 0)
(0.417910225753 -5.8599664164e-08 0)
(0.417910213015 -6.2011716957e-08 0)
(0.41791019954 -6.5674792815e-08 0)
(0.417910185186 -6.96337188964e-08 0)
(0.417910169799 -7.38236712087e-08 0)
(0.41791015341 -7.81155549111e-08 0)
(0.41791013621 -8.26257504508e-08 0)
(0.417910118286 -8.74969313286e-08 0)
(0.41791009971 -9.28370640217e-08 0)
(0.417910080463 -9.84886873159e-08 0)
(0.417910060604 -1.04230187284e-07 0)
(0.417910040479 -1.10052748613e-07 0)
(0.41791002043 -1.1605063674e-07 0)
(0.417910000385 -1.2215882706e-07 0)
(0.417909979921 -1.28284217806e-07 0)
(0.417909958814 -1.34700887356e-07 0)
(0.41790993704 -1.41829154761e-07 0)
(0.41790991447 -1.49744341596e-07 0)
(0.417909890888 -1.58094897137e-07 0)
(0.417909866338 -1.66623320114e-07 0)
(0.417909841317 -1.75545076892e-07 0)
(0.417909816279 -1.85125299891e-07 0)
(0.417909791222 -1.95196809579e-07 0)
(0.417909766132 -2.05384776708e-07 0)
(0.417909741729 -2.15835092592e-07 0)
(0.417909719187 -2.27094664402e-07 0)
(0.417909698488 -2.39008550439e-07 0)
(0.417909678718 -2.51099551594e-07 0)
(0.417909659973 -2.63795564722e-07 0)
(0.417909643496 -2.78112027254e-07 0)
(0.417909629676 -2.93846446529e-07 0)
(0.417909618365 -3.10271520522e-07 0)
(0.417909611125 -3.27894801119e-07 0)
(0.417909610614 -3.47685763618e-07 0)
(0.417909618725 -3.69698634232e-07 0)
(0.417909635908 -3.93732800302e-07 0)
(0.417909664464 -4.2254666279e-07 0)
(0.417909707896 -4.56664690007e-07 0)
(0.417909768573 -4.95457367991e-07 0)
(0.417909849256 -5.3787993803e-07 0)
(0.417909955206 -5.84950057356e-07 0)
(0.417910093608 -6.38722039608e-07 0)
(0.417910271104 -6.99730969134e-07 0)
(0.417910495395 -7.68045777568e-07 0)
(0.417910775289 -8.43406689172e-07 0)
(0.417911121696 -9.26175362544e-07 0)
(0.417911550136 -1.0121858222e-06 0)
(0.417912092861 -1.09448770929e-06 0)
(0.417912783113 -1.18342903993e-06 0)
(0.417913648415 -1.28633611037e-06 0)
(0.41791472757 -1.40955145653e-06 0)
(0.417916069578 -1.55850336851e-06 0)
(0.417917736231 -1.74003077205e-06 0)
(0.417919804172 -1.96266208312e-06 0)
(0.417922368948 -2.23800056454e-06 0)
(0.417925549116 -2.57999251488e-06 0)
(0.417929491132 -3.00592206428e-06 0)
(0.417934375236 -3.53686232529e-06 0)
(0.417940420302 -4.19891308892e-06 0)
(0.417947888114 -5.03023852337e-06 0)
(0.417957092472 -6.10624498465e-06 0)
(0.417968494197 -7.56999352736e-06 0)
(0.417982678801 -9.45552739081e-06 0)
(0.41800029162 -1.1811358369e-05 0)
(0.418022133038 -1.4731655752e-05 0)
(0.418049206148 -1.83465757556e-05 0)
(0.418082753788 -2.28165381125e-05 0)
(0.418124315456 -2.83395424668e-05 0)
(0.418175803304 -3.5163918851e-05 0)
(0.418239592197 -4.36001366998e-05 0)
(0.418318628244 -5.40309919006e-05 0)
(0.418416562475 -6.69261876111e-05 0)
(0.418537929758 -8.2872325344e-05 0)
(0.41868836935 -0.000102605475713 0)
(0.41887489744 -0.000127047069452 0)
(0.419106248303 -0.000157347527992 0)
(0.419393315785 -0.000194953990893 0)
(0.419749718005 -0.000241697325383 0)
(0.42019251339 -0.000299904486044 0)
(0.420743127568 -0.000372544480473 0)
(0.421428573337 -0.000463434338635 0)
(0.422283067847 -0.000577529293466 0)
(0.423350198971 -0.000721328434031 0)
(0.424685904832 -0.000903470805559 0)
(0.426362668346 -0.00113564031694 0)
(0.428475610341 -0.0014340137005 0)
(0.43115173217 -0.00182174019481 0)
(0.434564724498 -0.00233365015674 0)
(0.438960225444 -0.00302630789554 0)
(0.444702568282 -0.00400234467868 0)
(0.452367373003 -0.00547519476235 0)
(0.462918915303 -0.00794758292275 0)
(0.478045204514 -0.0127053458538 0)
(0.50101271649 -0.0232377703464 0)
(0.53815344232 -0.0492405294275 0)
(0.59340459673 -0.113877689273 0)
(1.03387037831 0.239240957165 0)
(1.08314080756 0.293634385957 0)
(1.0329443782 0.239131932793 0)
(0.954408211101 0.17453901501 0)
(0.880112585258 0.121551462762 0)
(0.818677616269 0.0832335943985 0)
(0.771466794859 0.0568258127596 0)
(0.736691574774 0.0388125731714 0)
(0.711672101078 0.0264913187588 0)
(0.693953128227 0.0180235772586 0)
(0.681568200391 0.0121876211359 0)
(0.673018599455 0.00816650360963 0)
(0.667192230828 0.00540556567628 0)
(0.663277748039 0.00352226295984 0)
(0.66069031105 0.00224961215405 0)
(0.659012737937 0.00140002787874 0)
(0.65795053036 0.00084145633794 0)
(0.657298076038 0.000481123864789 0)
(0.656913530971 0.000254194969361 0)
(0.656700338345 0.000115711451191 0)
(0.656593728641 3.47968750556e-05 0)
(0.656551013523 -9.46450903386e-06 0)
(0.6565446699 -3.10086302778e-05 0)
(0.656557367561 -3.9072390007e-05 0)
(0.656578551153 -3.95447928449e-05 0)
(0.656602074923 -3.61169745876e-05 0)
(0.656624605049 -3.10272291475e-05 0)
(0.656644543358 -2.5565845277e-05 0)
(0.656661318732 -2.04214604902e-05 0)
(0.656674934031 -1.59137439702e-05 0)
(0.656685683672 -1.21462165293e-05 0)
(0.656693983164 -9.10334755131e-06 0)
(0.656700270185 -6.70991514803e-06 0)
(0.65670495303 -4.86735614419e-06 0)
(0.656708387606 -3.47475014974e-06 0)
(0.656710870497 -2.43970174143e-06 0)
(0.65671264003 -1.68226568931e-06 0)
(0.656713883159 -1.13631396571e-06 0)
(0.656714743872 -7.49188205861e-07 0)
(0.656715329994 -4.79299283554e-07 0)
(0.656715721662 -2.94545940301e-07 0)
(0.656715977962 -1.71011468277e-07 0)
(0.656716140973 -9.0076745701e-08 0)
(0.656716240509 -3.80296839947e-08 0)
(0.656716297878 -5.97581582308e-09 0)
(0.656716327931 1.2811672987e-08 0)
(0.656716341031 2.3682264448e-08 0)
(0.656716343381 3.02599949203e-08 0)
(0.656716338374 3.4307081544e-08 0)
(0.656716329474 3.74663618198e-08 0)
(0.656716319483 4.0263555355e-08 0)
(0.656716309307 4.29162290142e-08 0)
(0.656716298711 4.59763203847e-08 0)
(0.656716287625 4.94465050952e-08 0)
(0.656716276335 5.28940642245e-08 0)
(0.656716264586 5.63200945817e-08 0)
(0.65671625187 6.01864712666e-08 0)
(0.656716238183 6.46110850561e-08 0)
(0.656716224069 6.93183296284e-08 0)
(0.656716209876 7.41522238668e-08 0)
(0.65671619539 7.96964923058e-08 0)
(0.656716180641 8.61507077205e-08 0)
(0.656716165807 9.31001915088e-08 0)
(0.656716150871 1.00091662684e-07 0)
(0.656716135385 1.07248847512e-07 0)
(0.656716118936 1.1487899419e-07 0)
(0.656716101482 1.22983533582e-07 0)
(0.656716083009 1.31561389015e-07 0)
(0.656716063515 1.40856395371e-07 0)
(0.656716042933 1.51052258072e-07 0)
(0.656716021209 1.62097535552e-07 0)
(0.656715998353 1.73786705961e-07 0)
(0.656715974552 1.85873369308e-07 0)
(0.656715950015 1.98394261219e-07 0)
(0.656715924856 2.11708077053e-07 0)
(0.656715899278 2.26051367324e-07 0)
(0.656715873574 2.4133062794e-07 0)
(0.656715847797 2.57418215364e-07 0)
(0.656715821479 2.74452440996e-07 0)
(0.656715794128 2.92450550393e-07 0)
(0.656715765662 3.11110536569e-07 0)
(0.656715736272 3.3020095487e-07 0)
(0.656715706038 3.49971146952e-07 0)
(0.656715674887 3.70867344494e-07 0)
(0.656715643062 3.92924851637e-07 0)
(0.656715611088 4.15836333349e-07 0)
(0.656715579325 4.39592025892e-07 0)
(0.656715547829 4.64759925391e-07 0)
(0.656715516884 4.91706675547e-07 0)
(0.656715487565 5.19837607972e-07 0)
(0.656715460514 5.48552056779e-07 0)
(0.65671543521 5.78258424835e-07 0)
(0.656715411283 6.09483163234e-07 0)
(0.656715389925 6.41520075691e-07 0)
(0.656715372487 6.73689390706e-07 0)
(0.656715359276 7.06639097732e-07 0)
(0.656715351423 7.40768767606e-07 0)
(0.65671535153 7.75381463322e-07 0)
(0.656715361987 8.09836848997e-07 0)
(0.656715382673 8.4568506756e-07 0)
(0.656715417683 8.85335726715e-07 0)
(0.656715473895 9.25014035737e-07 0)
(0.656715555671 9.6222148417e-07 0)
(0.65671566704 9.96899926825e-07 0)
(0.656715813894 1.02831189791e-06 0)
(0.656716005917 1.05310448215e-06 0)
(0.656716254252 1.06833765982e-06 0)
(0.6567165724 1.0713992766e-06 0)
(0.656716977085 1.06043074849e-06 0)
(0.656717492622 1.03341562305e-06 0)
(0.656718149102 9.9015059852e-07 0)
(0.656718968114 9.31967806176e-07 0)
(0.656719979122 8.43516743457e-07 0)
(0.656721233471 7.11898956863e-07 0)
(0.656722791993 5.22579028279e-07 0)
(0.656724726552 2.58946681988e-07 0)
(0.656727125891 -9.9258381457e-08 0)
(0.656730099554 -5.7692519267e-07 0)
(0.656733783501 -1.20546055174e-06 0)
(0.656738346359 -2.02410514042e-06 0)
(0.656743997273 -3.08225989208e-06 0)
(0.656750996478 -4.44174598829e-06 0)
(0.656759665768 -6.17802874961e-06 0)
(0.65677040224 -8.38267703956e-06 0)
(0.656783690929 -1.11628884467e-05 0)
(0.656800139852 -1.46401021149e-05 0)
(0.65682050429 -1.90183124175e-05 0)
(0.656845712919 -2.4538033781e-05 0)
(0.656876923619 -3.14865263799e-05 0)
(0.656915574735 -4.02212583455e-05 0)
(0.656963444739 -5.11841171847e-05 0)
(0.657022731692 -6.49191629402e-05 0)
(0.657096159505 -8.21007065319e-05 0)
(0.657187109082 -0.000103568065912 0)
(0.657299778085 -0.00013036624674 0)
(0.657439371026 -0.000163790419015 0)
(0.657612346286 -0.000205449562328 0)
(0.657826728196 -0.000257350754949 0)
(0.658092497789 -0.000322005741018 0)
(0.658422077083 -0.000402558050075 0)
(0.658830945975 -0.00050295378354 0)
(0.659338431661 -0.000628170165899 0)
(0.659968714967 -0.000784519287783 0)
(0.660752126031 -0.000980048591782 0)
(0.661726831033 -0.00122508835389 0)
(0.66294106067 -0.0015330284797 0)
(0.664456082742 -0.00192141862015 0)
(0.66635024955 -0.00241359086303 0)
(0.668724633643 -0.00304114659354 0)
(0.671711098302 -0.00384795230076 0)
(0.67548424445 -0.00489692986229 0)
(0.680279786371 -0.00628244810809 0)
(0.686423767155 -0.00815460392167 0)
(0.694380488051 -0.0107700020873 0)
(0.704831958231 -0.0146036704633 0)
(0.718794808326 -0.0206003714956 0)
(0.737736664967 -0.0307173371187 0)
(0.763645521159 -0.0490241900546 0)
(0.798559636382 -0.0837469563548 0)
(0.838740665036 -0.148543736651 0)
(1.03384127994 0.171306937837 0)
(1.10231584323 0.275556747354 0)
(1.11663620729 0.266312373867 0)
(1.09207925019 0.21989260016 0)
(1.05195420118 0.168210315281 0)
(1.01022221555 0.123615336675 0)
(0.973507720323 0.0888850604103 0)
(0.943885949259 0.0630494624046 0)
(0.921162801286 0.0442607991216 0)
(0.904299824805 0.0307744357395 0)
(0.892086137059 0.0211830168921 0)
(0.883411236361 0.0144173000381 0)
(0.877355066599 0.00968544317971 0)
(0.873196220847 0.00640758872489 0)
(0.870388070345 0.00416172526757 0)
(0.86852626683 0.00264232277584 0)
(0.867317310319 0.00162947786099 0)
(0.866551596682 0.000966025317148 0)
(0.866081668745 0.000540572547642 0)
(0.865805310137 0.000274926002945 0)
(0.865652734439 0.000114790076417 0)
(0.865577100703 2.29546196024e-05 0)
(0.8655474872 -2.57266791476e-05 0)
(0.865543949327 -4.8046842246e-05 0)
(0.865553997331 -5.49267875048e-05 0)
(0.865570001098 -5.33279617878e-05 0)
(0.865587538845 -4.75744432403e-05 0)
(0.865604229169 -4.02467499936e-05 0)
(0.865618942719 -3.27995364215e-05 0)
(0.86563128909 -2.59815249457e-05 0)
(0.865641289272 -2.01142593494e-05 0)
(0.865649171941 -1.52732860959e-05 0)
(0.865655249476 -1.1401993085e-05 0)
(0.865659847454 -8.38180714332e-06 0)
(0.865663268042 -6.07341748635e-06 0)
(0.865665773865 -4.3404126813e-06 0)
(0.865667582848 -3.06036447686e-06 0)
(0.865668869991 -2.12881301968e-06 0)
(0.865669772835 -1.46083343665e-06 0)
(0.865670396546 -9.88815727808e-07 0)
(0.865670819919 -6.59801895956e-07 0)
(0.865671101539 -4.34018453995e-07 0)
(0.86567128408 -2.82105809689e-07 0)
(0.865671398015 -1.82138186663e-07 0)
(0.865671465208 -1.18094103931e-07 0)
(0.865671501217 -7.84917059539e-08 0)
(0.865671517071 -5.52106141043e-08 0)
(0.865671520799 -4.29060460998e-08 0)
(0.86567151773 -3.68804694401e-08 0)
(0.865671510882 -3.39839340551e-08 0)
(0.865671501796 -3.33024791311e-08 0)
(0.865671491429 -3.47944421025e-08 0)
(0.86567148003 -3.80050711476e-08 0)
(0.865671467295 -4.21467720795e-08 0)
(0.865671453331 -4.71119284709e-08 0)
(0.865671438322 -5.28390399874e-08 0)
(0.865671422236 -5.89990658455e-08 0)
(0.86567140498 -6.50857074293e-08 0)
(0.865671386675 -7.09870537943e-08 0)
(0.865671367931 -7.70949477009e-08 0)
(0.86567134903 -8.32439924745e-08 0)
(0.865671329716 -8.91848683397e-08 0)
(0.865671309727 -9.50968326098e-08 0)
(0.865671289169 -1.01488228292e-07 0)
(0.865671268046 -1.08512145134e-07 0)
(0.865671245988 -1.15854514569e-07 0)
(0.865671222723 -1.23392103225e-07 0)
(0.865671198284 -1.31224006994e-07 0)
(0.865671172644 -1.39414951418e-07 0)
(0.865671145572 -1.47933888635e-07 0)
(0.865671116929 -1.56743447379e-07 0)
(0.865671086627 -1.6589237341e-07 0)
(0.865671054918 -1.75538334675e-07 0)
(0.865671022272 -1.85761588079e-07 0)
(0.865670988943 -1.96347565061e-07 0)
(0.865670954959 -2.07024352195e-07 0)
(0.865670920411 -2.1788838007e-07 0)
(0.865670885438 -2.29421510211e-07 0)
(0.865670849742 -2.41887636518e-07 0)
(0.865670812721 -2.55221516339e-07 0)
(0.865670774121 -2.69456257983e-07 0)
(0.865670734269 -2.84890775762e-07 0)
(0.865670693558 -3.01617465455e-07 0)
(0.865670651918 -3.19266602002e-07 0)
(0.865670609294 -3.37547179893e-07 0)
(0.865670566151 -3.56648266308e-07 0)
(0.865670523248 -3.76914320143e-07 0)
(0.865670480978 -3.98273863962e-07 0)
(0.865670439318 -4.20361924047e-07 0)
(0.865670398921 -4.43561743088e-07 0)
(0.865670360832 -4.6896195229e-07 0)
(0.865670325287 -4.9702669136e-07 0)
(0.86567029177 -5.27289512865e-07 0)
(0.86567026093 -5.60074205592e-07 0)
(0.865670234706 -5.96722357696e-07 0)
(0.865670214386 -6.3756759066e-07 0)
(0.865670201171 -6.8220924655e-07 0)
(0.865670197743 -7.3111087329e-07 0)
(0.865670208806 -7.86048277354e-07 0)
(0.865670238548 -8.47232982333e-07 0)
(0.865670286894 -9.12084855572e-07 0)
(0.865670355471 -9.83375539008e-07 0)
(0.86567045212 -1.06488723097e-06 0)
(0.865670584105 -1.15890616306e-06 0)
(0.865670757939 -1.26655574633e-06 0)
(0.865670983865 -1.39160825319e-06 0)
(0.865671274957 -1.53906654477e-06 0)
(0.865671646905 -1.71488890249e-06 0)
(0.865672117739 -1.92549220374e-06 0)
(0.865672710501 -2.17956091575e-06 0)
(0.865673456653 -2.4926247346e-06 0)
(0.8656743932 -2.88382440846e-06 0)
(0.86567556404 -3.36298109133e-06 0)
(0.865677023231 -3.94699601008e-06 0)
(0.865678838225 -4.66105863569e-06 0)
(0.865681092487 -5.53647209627e-06 0)
(0.86568388989 -6.6115856846e-06 0)
(0.86568735866 -7.93341351108e-06 0)
(0.865691657752 -9.5603922884e-06 0)
(0.865696983932 -1.15650203968e-05 0)
(0.865703580679 -1.40369008054e-05 0)
(0.865711751239 -1.70881797037e-05 0)
(0.865721871656 -2.08593636707e-05 0)
(0.865734406507 -2.55266418563e-05 0)
(0.865749925324 -3.13094729574e-05 0)
(0.86576913763 -3.84775068002e-05 0)
(0.865792924508 -4.73629417747e-05 0)
(0.865822372438 -5.83665044631e-05 0)
(0.865858827845 -7.19840515596e-05 0)
(0.865903962257 -8.88385020033e-05 0)
(0.865959847918 -0.000109709324234 0)
(0.866029049206 -0.000135563686797 0)
(0.866114741751 -0.000167600157389 0)
(0.86622086244 -0.000207306688779 0)
(0.8663522976 -0.000256536920528 0)
(0.866515107222 -0.000317597796217 0)
(0.866716808163 -0.00039335979481 0)
(0.866966730303 -0.000487400560623 0)
(0.867276468501 -0.00060419359037 0)
(0.867660441874 -0.000749340159193 0)
(0.868136596317 -0.00092987129636 0)
(0.868727298187 -0.00115464451423 0)
(0.869460470976 -0.0014348696443 0)
(0.870371050116 -0.00178481144187 0)
(0.871502850369 -0.00222273806124 0)
(0.872911003994 -0.0027722474519 0)
(0.874665167134 -0.0034641421933 0)
(0.876853792518 -0.00433916968279 0)
(0.879589916693 -0.00545215679953 0)
(0.883019145424 -0.0068785119293 0)
(0.887330850241 -0.00872491789244 0)
(0.892774060215 -0.0111478565442 0)
(0.899679900625 -0.0143872799439 0)
(0.908492086539 -0.018830219856 0)
(0.919803443441 -0.0251338383344 0)
(0.934377289216 -0.0344620250535 0)
(0.953070545228 -0.0489066888335 0)
(0.976497037796 -0.0721063316871 0)
(1.00400038718 -0.109813013005 0)
(1.02981404393 -0.16865292377 0)
(1.02388346119 0.11932197682 0)
(1.08875436312 0.231514420399 0)
(1.13660483053 0.252868941961 0)
(1.15406273006 0.228905045937 0)
(1.15000112908 0.188337384474 0)
(1.13537623928 0.1465772922 0)
(1.11757777855 0.110164821399 0)
(1.10059199877 0.080837606969 0)
(1.08612241279 0.0582502016934 0)
(1.0745876186 0.0413417869057 0)
(1.06578679566 0.0289362845286 0)
(1.05928156561 0.0199770215685 0)
(1.05459132768 0.0135949310209 0)
(1.05128027038 0.0091074282302 0)
(1.04898736453 0.00599313436775 0)
(1.04742905639 0.00386144236276 0)
(1.046390464 0.00242413709999 0)
(1.04571299573 0.00147134820588 0)
(1.04528206339 0.000852135612739 0)
(1.0450163801 0.000459262446441 0)
(1.04485925642 0.000217488333059 0)
(1.04477182609 7.47166612442e-05 0)
(1.04472784478 -4.64714037796e-06 0)
(1.04470997888 -4.44464306499e-05 0)
(1.04470705319 -6.05362170684e-05 0)
(1.04471197669 -6.30932131121e-05 0)
(1.04472041762 -5.85434182493e-05 0)
(1.04472985949 -5.08102251348e-05 0)
(1.04473893435 -4.21787072327e-05 0)
(1.04474698147 -3.38913304623e-05 0)
(1.04475376034 -2.65463831457e-05 0)
(1.04475926688 -2.03602666446e-05 0)
(1.04476361714 -1.53355126648e-05 0)
(1.04476697715 -1.13659533398e-05 0)
(1.04476952283 -8.29969238219e-06 0)
(1.04477141893 -5.97595328545e-06 0)
(1.04477280937 -4.24443026275e-06 0)
(1.04477381374 -2.97359190016e-06 0)
(1.04477452868 -2.05405728381e-06 0)
(1.04477503011 -1.39809707367e-06 0)
(1.044775376 -9.3656596223e-07 0)
(1.04477560992 -6.16194881374e-07 0)
(1.04477576419 -3.97161450075e-07 0)
(1.04477586254 -2.49867219369e-07 0)
(1.04477592226 -1.52220203877e-07 0)
(1.04477595585 -8.8310929743e-08 0)
(1.04477597215 -4.6883237963e-08 0)
(1.0447759774 -2.05391435785e-08 0)
(1.04477597547 -4.36586529506e-09 0)
(1.04477596844 4.94499355191e-09 0)
(1.04477595787 9.80631364814e-09 0)
(1.04477594527 1.19946709258e-08 0)
(1.04477593159 1.25934896019e-08 0)
(1.04477591687 1.26289639595e-08 0)
(1.04477590109 1.24435384054e-08 0)
(1.04477588438 1.19032516483e-08 0)
(1.04477586671 1.09489878816e-08 0)
(1.04477584799 9.95902723376e-09 0)
(1.04477582817 9.47360783183e-09 0)
(1.04477580773 9.55482044212e-09 0)
(1.04477578701 9.96407890999e-09 0)
(1.04477576577 1.06247945232e-08 0)
(1.04477574359 1.1675416487e-08 0)
(1.04477572046 1.29956616683e-08 0)
(1.04477569655 1.4317432289e-08 0)
(1.04477567165 1.57916054722e-08 0)
(1.04477564536 1.76997237692e-08 0)
(1.0447756175 2.00694255606e-08 0)
(1.04477558817 2.25355602443e-08 0)
(1.04477555733 2.50244129646e-08 0)
(1.04477552487 2.75761917041e-08 0)
(1.04477549064 3.02966702036e-08 0)
(1.0447754548 3.32391038103e-08 0)
(1.04477541785 3.6366186911e-08 0)
(1.0447753802 3.97859270684e-08 0)
(1.04477534181 4.37775377671e-08 0)
(1.04477530243 4.84320050347e-08 0)
(1.04477526198 5.33030817979e-08 0)
(1.04477522044 5.79272228712e-08 0)
(1.04477517751 6.2339006973e-08 0)
(1.0447751328 6.68036108518e-08 0)
(1.04477508642 7.12189658299e-08 0)
(1.04477503898 7.53001035444e-08 0)
(1.04477499076 7.92255477129e-08 0)
(1.0447749416 8.34965726573e-08 0)
(1.04477489155 8.82800564511e-08 0)
(1.04477484125 9.32022648008e-08 0)
(1.04477479142 9.79325544652e-08 0)
(1.04477474207 1.0268626922e-07 0)
(1.04477469326 1.07479828574e-07 0)
(1.04477464576 1.11496884788e-07 0)
(1.04477460049 1.13893274509e-07 0)
(1.04477455735 1.14883673332e-07 0)
(1.04477451632 1.14650711027e-07 0)
(1.04477447909 1.11918247133e-07 0)
(1.04477444773 1.0548725768e-07 0)
(1.04477442371 9.52072130771e-08 0)
(1.04477440846 8.07887687713e-08 0)
(1.04477440535 5.9621524638e-08 0)
(1.04477441858 2.77342067285e-08 0)
(1.04477445118 -1.82404911149e-08 0)
(1.0447745064 -7.80692813915e-08 0)
(1.04477459063 -1.54956572487e-07 0)
(1.04477471214 -2.54314564056e-07 0)
(1.04477487823 -3.79801874216e-07 0)
(1.04477509868 -5.36225442638e-07 0)
(1.04477538667 -7.3106294199e-07 0)
(1.04477575914 -9.73982813816e-07 0)
(1.04477623629 -1.27523756409e-06 0)
(1.04477684237 -1.64552696897e-06 0)
(1.0447776082 -2.0993173699e-06 0)
(1.0447785709 -2.65721721511e-06 0)
(1.04477977609 -3.34455412526e-06 0)
(1.04478127963 -4.19207779956e-06 0)
(1.04478315171 -5.23764551404e-06 0)
(1.04478547934 -6.52759567546e-06 0)
(1.04478837068 -8.11924814446e-06 0)
(1.04479195898 -1.00831234577e-05 0)
(1.04479640921 -1.25068130786e-05 0)
(1.04480192608 -1.54987604188e-05 0)
(1.04480876268 -1.91923295438e-05 0)
(1.04481723315 -2.37535079362e-05 0)
(1.04482772687 -2.93895083163e-05 0)
(1.04484072659 -3.63602882814e-05 0)
(1.04485682438 -4.49865534431e-05 0)
(1.04487675417 -5.56637999577e-05 0)
(1.0449014283 -6.88837820123e-05 0)
(1.04493197639 -8.52518867468e-05 0)
(1.04496979568 -0.000105513164486 0)
(1.04501661617 -0.000130591343817 0)
(1.04507458298 -0.000161636830566 0)
(1.04514635351 -0.000200078645917 0)
(1.04523521926 -0.000247688817359 0)
(1.04534525665 -0.00030666429102 0)
(1.04548151998 -0.000379736436192 0)
(1.04565027528 -0.00047030386747 0)
(1.04585929156 -0.000582597164282 0)
(1.046118201 -0.000721885084277 0)
(1.04643895798 -0.00089474532926 0)
(1.04683640748 -0.00110940569523 0)
(1.04732899144 -0.00137618330422 0)
(1.04793963993 -0.00170805339914 0)
(1.0486968923 -0.00212139438876 0)
(1.04963631903 -0.00263698558412 0)
(1.0508023161 -0.00328134177294 0)
(1.05225039987 -0.0040885480574 0)
(1.05405014879 -0.00510282386771 0)