/*--------------------------------*- C++ -*----------------------------------*\
| =========                 |                                                 |
| \\      /  F ield         | OpenFOAM: The Open Source CFD Toolbox           |
|  \\    /   O peration     | Version:  2106                                  |
|   \\  /    A nd           | Website:  www.openfoam.com                      |
|    \\/     M anipulation  |                                                 |
\*---------------------------------------------------------------------------*/
FoamFile
{
    version     2.0;
    format      ascii;
    arch        "LSB;label=32;scalar=64";
    class       volScalarField;
    location    "0.07";
    object      p;
}
// * * * * * * * * * * * * * * * * * * * * * * * * * * * * * * * * * * * * * //

dimensions      [0 2 -2 0 0 0 0];

internalField   nonuniform List<scalar> 
9600
(
2.25044655656
-0.647563820256
-1.55179367731
-1.9374006122
-2.15672418061
-2.2966538232
-2.40053908638
-2.48806120435
-2.56752540989
-2.64287408695
-2.71620257738
-2.78866550902
-2.86089716239
-2.93323358986
-3.00583648038
-3.07876630495
-3.15202681037
-3.22559215095
-3.29942311794
-3.37347530297
-3.44770821595
-3.52208311794
-3.59656683167
-3.6711315413
-3.74575442676
-3.82041718353
-3.89510539663
-3.96980791475
-4.04451622856
-4.11922393689
-4.19392622862
-4.26861946924
-4.3433008446
-4.41796807738
-4.4926192099
-4.56725244516
-4.64186604032
-4.71645829009
-4.79102737575
-4.86557126201
-4.94008774325
-5.01457446983
-5.08902892733
-5.16344835061
-5.23782972959
-5.31216981904
-5.38646512173
-5.46071184733
-5.53490590624
-5.60904287584
-5.6831180358
-5.75712628074
-5.83106218084
-5.90491983515
-5.97869295773
-6.05237484395
-6.12595827807
-6.19943557897
-6.27279855727
-6.34603849118
-6.41914608845
-6.49211145276
-6.56492404685
-6.6375726606
-6.71004537557
-6.78232953221
-6.85441170105
-6.92627764256
-6.99791225867
-7.06929955455
-7.14042258949
-7.21126345272
-7.28180321006
-7.3520218613
-7.42189829463
-7.4914102447
-7.560534255
-7.62924564847
-7.69751848516
-7.76532550646
-7.83263807333
-7.89942610851
-7.9656580527
-8.03130083737
-8.09631986349
-8.16067896613
-8.22434035484
-8.28726454301
-8.349410292
-8.41073458286
-8.47119260353
-8.5307377286
-8.58932148075
-8.64689348598
-8.70340144262
-8.75879110848
-8.81300629307
-8.86598884038
-8.91767861007
-8.96801348157
-9.01692939047
-9.06436025083
-9.11023801458
-9.15449254121
-9.19705171683
-9.23784151053
-9.27678600705
-9.3138074107
-9.34882605674
-9.38176044363
-9.41252728539
-9.44104150525
-9.46721638484
-9.49096361828
-9.51219339377
-9.53081449244
-9.54673434553
-9.55985907265
-9.57009358113
-9.57734172331
-9.58150641209
-9.58248965326
-9.58019260872
-9.57451589879
-9.56536023785
-9.5526250358
-9.53620906254
-9.51601095242
-9.4919292464
-9.46386234738
-9.43170837004
-9.39536506008
-9.35472978948
-9.30969948606
-9.26017038149
-9.20603762222
-9.14719484067
-9.0835336514
-9.01494296574
-8.94130809366
-8.86250956961
-8.77842150777
-8.6889093808
-8.59382728609
-8.49301456241
-8.38629123138
-8.2734516764
-8.15425596189
-8.02841760996
-7.89558580685
-7.75531878489
-7.60704187364
-7.44997670074
-7.28301429066
-7.10449277881
-6.9118685629
-6.70121524553
-6.46644638537
-6.20738677509
-5.99564177891
0.338905754343
-0.843449030167
-1.45212186822
-1.80614395027
-2.048755654
-2.21931035837
-2.34736901779
-2.45185327566
-2.54290502252
-2.62615504255
-2.70489667188
-2.78108224329
-2.85587462755
-2.92996613164
-3.00376298799
-3.07749581892
-3.15128777897
-3.22519705813
-3.29924364296
-3.37342690123
-3.44773234631
-3.52214311034
-3.59664006479
-3.6712047684
-3.74582063809
-3.82047336213
-3.89515095194
-3.96984362246
-4.04454352126
-4.11924445922
-4.19394157847
-4.26863105854
-4.3433098461
-4.41797542633
-4.49262563609
-4.56725851579
-4.64187218439
-4.71646474271
-4.79103421539
-4.86557855143
-4.94009566035
-5.01458314511
-5.08903841491
-5.16345870385
-5.23784100877
-5.31218209009
-5.38647843981
-5.46072625905
-5.53492149575
-5.60905973031
-5.6831362648
-5.75714598571
-5.83108345495
-5.90494280049
-5.97871772027
-6.05240152323
-6.12598701265
-6.19946651326
-6.27283184166
-6.34607427857
-6.41918453542
-6.49215272603
-6.56496832529
-6.63762013348
-6.71009624311
-6.78238400542
-6.85447000057
-6.92633999967
-6.99797890673
-7.06937073609
-7.14049855912
-7.21134447573
-7.28188956608
-7.35211384281
-7.42199620676
-7.49151440582
-7.56064499536
-7.62936330684
-7.69764340726
-7.76545804651
-7.83277859659
-7.89957499379
-7.96581569541
-8.03146765248
-8.09649628478
-8.16086543846
-8.22453732229
-8.2874724417
-8.3496295547
-8.41096565283
-8.47143594677
-8.5309938355
-8.58959085829
-8.64717664782
-8.70369890329
-8.7591033821
-8.81333389412
-8.86633228753
-8.91803843599
-8.96839023454
-9.01732362498
-9.06477249703
-9.11066878083
-9.15494236461
-9.19752115048
-9.23833110516
-9.27729629964
-9.31433891375
-9.34937923778
-9.38233565933
-9.41312473948
-9.44166156559
-9.46785944426
-9.49163006651
-9.51288362433
-9.53152890258
-9.54747332528
-9.56062300515
-9.57088287238
-9.57815683537
-9.58234786013
-9.583357982
-9.58108838308
-9.57543950303
-9.56631084174
-9.55360236712
-9.53721392671
-9.51704471103
-9.49299368073
-9.46495977319
-9.43284176972
-9.39653821806
-9.35594751258
-9.31096788078
-9.26149713717
-9.20743236585
-9.14866964878
-9.08510368717
-9.01662719273
-8.9431301694
-8.86449909653
-8.78061568567
-8.6913550233
-8.59658337437
-8.49615579855
-8.38991306419
-8.27767714086
-8.15924502772
-8.03438078554
-7.90280518156
-7.76418207311
-7.61810059046
-7.46405308165
-7.30141011064
-7.12940753182
-6.94724062447
-6.75439484372
-6.55058204451
-6.33680885998
-6.13870884725
-0.63693731672
-1.1183055755
-1.50956354698
-1.80117855928
-2.02274973609
-2.19068073736
-2.32277436787
-2.43255096898
-2.52839342069
-2.61551812206
-2.69723790694
-2.77564963241
-2.85207648053
-2.92735153855
-3.0019947482
-3.07632507895
-3.1505329177
-3.22472698543
-3.29896475519
-3.37327227248
-3.44765729625
-3.52211623036
-3.59664058006
-3.67121928491
-3.74584087796
-3.82049451559
-3.89517048004
-3.96986041982
-4.04455734179
-4.11925552133
-4.19395031782
-4.26863797183
-4.34331540312
-4.41798002855
-4.49262960388
-4.5672620897
-4.64187553873
-4.71646801767
-4.79103759347
-4.86558217032
-4.94009951761
-5.01458726688
-5.08904283758
-5.16346345203
-5.23784611309
-5.3121875876
-5.38648437452
-5.46073270783
-5.53492851549
-5.60906737588
-5.68314453295
-5.75715491626
-5.83109306769
-5.90495316033
-5.97872890431
-6.05241357812
-6.12599999682
-6.19948049398
-6.27284689232
-6.34609047253
-6.41920194867
-6.49217143301
-6.56498840135
-6.63764165735
-6.71011930018
-6.78240868993
-6.85449641013
-6.92636822987
-6.99800906121
-7.06940291771
-7.14053288376
-7.21138106533
-7.28192854409
-7.35215533719
-7.42204035021
-7.49156133465
-7.5606948521
-7.62941624079
-7.69769957439
-7.76551760834
-7.83284171872
-7.89964184585
-7.96588645359
-8.03154250253
-8.09657542061
-8.16094905556
-8.22462561223
-8.2875655942
-8.34972776524
-8.41106912666
-8.47154489292
-8.53110845613
-8.58971134605
-8.64730319669
-8.70383172218
-8.75924269263
-8.81347991054
-8.86648520283
-8.9181984233
-8.9685574335
-9.01749817938
-9.06495461171
-9.11085862074
-9.15514008942
-9.19772693082
-9.23854513137
-9.27751877863
-9.31457005835
-9.34961928124
-9.38258496496
-9.41338392523
-9.44193100714
-9.46813947587
-9.49192103918
-9.51318592713
-9.53184295854
-9.54779957173
-9.56096190668
-9.57123496256
-9.578522736
-9.58272826809
-9.58375368165
-9.58150034249
-9.57586913201
-9.56676054069
-9.55407448216
-9.53771049078
-9.51756794278
-9.49354622097
-9.46554473078
-9.43346281194
-9.39719975698
-9.35665493529
-9.31172778522
-9.26231759892
-9.20832329282
-9.14964325278
-9.08617507599
-9.01781510356
-8.94445787714
-8.86599554524
-8.78231695199
-8.69330624686
-8.59884124818
-8.49879179898
-8.39301785399
-8.28136668838
-8.16366904195
-8.03973463413
-7.90934754392
-7.77226193301
-7.62819940408
-7.4768531145
-7.31790773483
-7.15109260493
-6.97633342251
-6.79412001697
-6.60573993694
-6.41324066395
-6.22666219263
-1.18839911681
-1.37474538884
-1.61719242526
-1.83966028994
-2.02685030578
-2.18087607046
-2.3093092604
-2.41959286493
-2.51737728205
-2.60672405281
-2.69047969762
-2.770590417
-2.84836605716
-2.92467870286
-3.00010216088
-3.07500848638
-3.14963450771
-3.2241272777
-3.29857481677
-3.37302686297
-3.44750930417
-3.52203222246
-3.59659740345
-3.67120110036
-3.74583713541
-3.82049842832
-3.8951778575
-3.9698688096
-4.04456543192
-4.11926270746
-4.19395641689
-4.2686430309
-4.34331957741
-4.41798350941
-4.49263257994
-4.56726472957
-4.64187799516
-4.71647040697
-4.79103996369
-4.86558462406
-4.94010212273
-5.01459004601
-5.08904581226
-5.16346664159
-5.23784953849
-5.31219126386
-5.38648831021
-5.46073689296
-5.53493293477
-5.60907207047
-5.6831495669
-5.75716033761
-5.83109890361
-5.9049594254
-5.97873566758
-6.05242088304
-6.12600788676
-6.19948901167
-6.27285608104
-6.34610037511
-6.41921260978
-6.49218289684
-6.56500070861
-6.63765484958
-6.71013342357
-6.78242380113
-6.8545125676
-6.92638549991
-6.99802751953
-7.06942263262
-7.14055391286
-7.21140346451
-7.2819523717
-7.35218065423
-7.42206722711
-7.49158985572
-7.56072511501
-7.62944835
-7.69773363234
-7.76555370977
-7.83287995075
-7.89968229488
-7.96592921633
-8.03158769408
-8.09662317319
-8.16099950908
-8.2246789043
-8.28762185587
-8.34978712199
-8.41113170049
-8.47161080452
-8.53117782725
-8.58978430257
-8.64737987275
-8.7039122646
-8.7593272618
-8.81356867801
-8.86657836195
-8.918296212
-8.96866014541
-9.01760603031
-9.06506778793
-9.11097731549
-9.15526451827
-9.19785733957
-9.23868178701
-9.27766193906
-9.31471994284
-9.34977606156
-9.38274873754
-9.41355464419
-9.4421088002
-9.46832453715
-9.49211358609
-9.51338620669
-9.53205125586
-9.54801621668
-9.56118728196
-9.5714695068
-9.57876693888
-9.58298268723
-9.58401900106
-9.58177743716
-9.57615895017
-9.56706403934
-9.55439292719
-9.53804564199
-9.51792212072
-9.49392231307
-9.46594620278
-9.43389381686
-9.3976653399
-9.35716126695
-9.31228241641
-9.2629297782
-9.20900433693
-9.15040695293
-9.08703824358
-9.01879837958
-8.94558674961
-8.86730146508
-8.78383868491
-8.69509176576
-8.60095029976
-8.5012991399
-8.39601739465
-8.28497709937
-8.16804148483
-8.04506349035
-7.91588544261
-7.78034088907
-7.63826045077
-7.48948703835
-7.33390943224
-7.17152188553
-7.00252917145
-6.82753555614
-6.64761918043
-6.46404037815
-6.28024797584
-1.52574592203
-1.57750922553
-1.72140419895
-1.88569797091
-2.04003133112
-2.17808906054
-2.30024147209
-2.40902667027
-2.50746531414
-2.59828760002
-2.68368557484
-2.76531338023
-2.8443746433
-2.92172376227
-2.99795546963
-3.07347664253
-3.1485609762
-3.22338923215
-3.29807814512
-3.37270095386
-3.447301932
-3.52190508287
-3.59652346293
-3.67116146411
-3.7458188072
-3.82049269856
-3.89517907185
-3.96987342327
-4.04457133376
-4.11926872352
-4.19396196695
-4.2686478956
-4.34332374249
-4.41798706539
-4.49263565946
-4.56726747469
-4.64188054326
-4.71647288631
-4.79104247808
-4.86558719795
-4.94010479082
-5.01459285804
-5.08904880929
-5.16346985912
-5.23785300881
-5.31219502858
-5.38649240914
-5.46074137223
-5.53493781632
-5.60907740364
-5.68315532607
-5.75716656428
-5.83110562921
-5.90496665564
-5.9787434118
-6.0524291952
-6.1260168262
-6.19949863658
-6.27286644822
-6.34611154039
-6.41922463023
-6.4921958314
-6.56501461404
-6.63766977829
-6.71014942679
-6.78244093316
-6.8545308943
-6.92640508033
-6.9980484192
-7.06944493037
-7.14057769536
-7.21142882043
-7.28197939409
-7.35220943575
-7.42209785547
-7.49162241447
-7.56075968892
-7.62948503234
-7.69777253112
-7.76559494873
-7.83292366378
-7.89972861631
-7.96597827171
-8.03163959563
-8.09667802281
-8.16105740883
-8.22473996852
-8.28768621571
-8.34985491748
-8.41120306559
-8.47168585813
-8.53125667951
-8.58986707066
-8.64746668849
-8.70400326309
-8.75942256402
-8.81366838461
-8.8666825637
-8.91840496864
-8.9687735637
-9.01772422018
-9.06519083048
-9.111105288
-9.15539751476
-9.19799548472
-9.23882522694
-9.27781081359
-9.31487437652
-9.34993619224
-9.38291476113
-9.41372681961
-9.4422873584
-9.46850969474
-9.49230558709
-9.51358532498
-9.53225777803
-9.54823045735
-9.56140963435
-9.57170046648
-9.57900707519
-9.58323262436
-9.58427945892
-9.58204934803
-9.57644352464
-9.5673626773
-9.55470722027
-9.53837752661
-9.51827403215
-9.49429723045
-9.46634768445
-9.43432616733
-9.39813385913
-9.3576724558
-9.31284418112
-9.26355176442
-9.20969836939
-9.15118747885
-9.08792285452
-9.01980858558
-8.94674899581
-8.86864825272
-8.78540985112
-8.69693620668
-8.60312835695
-8.50388565781
-8.39910547598
-8.28868286409
-8.17251038147
-8.05047879802
-7.92247949843
-7.78840943046
-7.64817989026
-7.50173282825
-7.349070625
-7.19030018753
-7.02568436959
-6.85568902867
-6.68091762121
-6.50168356059
-6.31832902759
-1.72982156847
-1.72484323133
-1.80881868855
-1.92960893377
-2.05625313533
-2.17893409445
-2.29383157609
-2.40002719592
-2.49830811998
-2.59009341815
-2.67684910033
-2.75985872214
-2.84015866233
-2.91854485403
-2.99560800896
-3.07177557113
-3.14735053828
-3.22254375507
-3.29749923011
-3.37231327681
-3.44704866955
-3.52174544172
-3.59642673146
-3.67110618678
-3.74579006341
-3.82048027045
-3.89517615624
-3.96987562975
-4.04457593938
-4.11927412711
-4.19396729813
-4.26865274512
-4.34332797769
-4.41799070711
-4.49263880417
-4.56727024543
-4.64188305857
-4.71647525643
-4.79104479104
-4.86558951982
-4.94010717997
-5.01459534933
-5.08905143364
-5.16347264623
-5.23785597227
-5.31219818509
-5.38649577167
-5.4607449637
-5.53494164274
-5.60908143757
-5.68315960104
-5.75717104919
-5.83111049051
-5.90497194623
-5.97874914757
-6.05243539909
-6.12602353009
-6.19950587255
-6.27287425018
-6.34611994699
-6.41923368153
-6.49220556872
-6.56502507992
-6.63768101757
-6.71016148467
-6.78245385374
-6.85454472776
-6.92641988125
-6.99806422946
-7.06946178449
-7.1405956223
-7.21144785206
-7.28199957933
-7.35223084528
-7.4221205742
-7.49164652836
-7.56078527435
-7.62951215472
-7.69780125219
-7.76562533754
-7.83295580569
-7.89976261596
-7.96601424758
-8.03167766871
-8.09671830611
-8.16110000337
-8.2247849672
-8.2877337111
-8.34990500792
-8.41125585669
-8.4717414608
-8.5313152096
-8.58992865214
-8.6475314557
-8.70407135704
-8.75949412877
-8.81374356444
-8.86676151464
-8.91848784449
-8.96886050319
-9.01781538526
-9.06528638011
-9.11120538414
-9.15550232988
-9.19810519596
-9.2389399972
-9.27793077712
-9.31499965669
-9.35006693475
-9.38305113511
-9.41386900598
-9.44243553142
-9.46866404417
-9.49246635494
-9.51375280248
-9.53243227628
-9.54841230768
-9.56159923443
-9.5718983274
-9.57921382631
-9.58344899628
-9.58450628943
-9.58228760765
-9.57669440817
-9.56762767637
-9.55498813202
-9.53867649833
-9.51859363711
-9.49464053797
-9.46671836505
-9.43472868093
-9.39857367565
-9.35815623612
-9.31337996163
-9.26414925201
-9.21036936424
-9.15194635517
-9.08878708087
-9.02079937149
-8.94789215227
-8.86997525512
-8.78695906462
-8.6987543683
-8.60527253524
-8.50642580534
-8.40212752296
-8.29229240832
-8.17683724115
-8.05568266759
-7.92875662769
-7.79600001004
-7.65737531838
-7.51287944529
-7.36256218092
-7.20654995571
-7.04506245239
-6.87838066388
-6.7067400821
-6.52996568377
-6.34737284304
-1.85295178905
-1.82749576391
-1.8768555858
-1.9670167522
-2.07194341316
-2.18126780056
-2.28910662065
-2.39233139966
-2.49000519951
-2.5823944066
-2.67026365141
-2.75450545552
-2.83596013432
-2.91534102697
-2.99321781635
-3.07002753555
-3.14609581857
-3.22165973511
-3.29688843144
-3.37190025901
-3.44677630431
-3.52157111356
-3.59631923943
-3.67104329132
-3.74575608275
-3.82046436426
-3.89517101553
-3.96987647016
-4.04457973984
-4.11927907285
-4.1939723728
-4.26865744291
-4.34333210636
-4.41799425087
-4.49264183633
-4.56727287876
-4.64188540678
-4.71647742231
-4.79104686242
-4.86559157076
-4.94010926322
-5.01459750742
-5.08905369467
-5.16347503726
-5.23785851356
-5.31220089172
-5.38649865408
-5.4607480247
-5.53494492328
-5.60908495998
-5.68316342532
-5.75717522606
-5.83111487075
-5.90497660792
-5.97875415208
-6.05244078965
-6.12602934228
-6.19951214388
-6.27288101832
-6.34612725492
-6.41924157309
-6.49221408374
-6.56503425237
-6.63769087718
-6.71017206471
-6.78246519467
-6.85455687482
-6.92643288574
-6.99807813688
-7.06947663177
-7.14061144344
-7.21146468301
-7.28201746104
-7.35224983093
-7.42214072977
-7.49166792685
-7.56080798901
-7.62953625559
-7.69782680673
-7.76565241276
-7.83298447041
-7.89979294243
-7.96604631283
-8.03171155522
-8.09675410179
-8.16113780064
-8.22482486051
-8.28777579235
-8.34994936109
-8.41130255568
-8.47179057309
-8.53136680293
-8.58998279854
-8.64758822972
-8.70413083129
-8.75955637999
-8.81380867698
-8.86682957249
-8.91855896203
-8.96893477107
-9.01789290278
-9.06536724308
-9.1112896978
-9.15559022971
-9.19819683751
-9.23903552268
-9.27803030722
-9.31510333043
-9.35017493601
-9.38316366067
-9.41398622912
-9.44255761791
-9.46879119931
-9.49259884369
-9.51389092469
-9.53257634221
-9.5485626596
-9.56175629189
-9.5720626103
-9.57938594907
-9.5836296817
-9.58469641663
-9.58248822616
-9.57690674014
-9.5678531991
-9.55522866137
-9.53893422668
-9.5188711497
-9.49494089181
-9.46704525121
-9.435086594
-9.39896805217
-9.3585936204
-9.31386823839
-9.26469791928
-9.21098986094
-9.15265250364
-9.08959562311
-9.0217305344
-8.94897030459
-8.87122978924
-8.78842550548
-8.70047564199
-8.60730048463
-8.50882310356
-8.40496997731
-8.29567162844
-8.18086371034
-8.06048909921
-7.93450108328
-7.80286804231
-7.66558062514
-7.52266095775
-7.37417080941
-7.22021598512
-7.06094790786
-6.89652093676
-6.72697351921
-6.55202143285
-6.37095385534
-1.92699479254
-1.89594557681
-1.9258769308
-1.99565135703
-2.08482217025
-2.18370183924
-2.28558396476
-2.3860585353
-2.48298641661
-2.57573306354
-2.66446996552
-2.74973640854
-2.83218331257
-2.91243658178
-2.99103707155
-3.06842387857
-3.14493900743
-3.22084085564
-3.29631997694
-3.37151395284
-3.44652008774
-3.52140603108
-3.59621678973
-3.67098280145
-3.74572293556
-3.82044843144
-3.89516542544
-3.96987669218
-4.04458289036
-4.11928340511
-4.19397689873
-4.26866166095
-4.34333581794
-4.41799743201
-4.49264454667
-4.56727521311
-4.64188746637
-4.71647930021
-4.79104863899
-4.86559330953
-4.94011101468
-5.01459931386
-5.0890555872
-5.16347702912
-5.23786061806
-5.31220311155
-5.38650100723
-5.46075050241
-5.53494754018
-5.60908773137
-5.6831663509
-5.75717832862
-5.83111824044
-5.90498023608
-5.97875805553
-6.05244499111
-6.12603386759
-6.19951702711
-6.27288629786
-6.34613297017
-6.41924776037
-6.4922207737
-6.56504147121
-6.6376986472
-6.71018041077
-6.78247415044
-6.85456647528
-6.92644316172
-6.99808910937
-7.06948831189
-7.14062383958
-7.2114778146
-7.28203136523
-7.35226456184
-7.42215634957
-7.49168449505
-7.56082555675
-7.62955486719
-7.69784650624
-7.76567325081
-7.8330065077
-7.89981624864
-7.96607096194
-8.03173761997
-8.0967816498
-8.16116689447
-8.22485556141
-8.28780816614
-8.34998348212
-8.41133850403
-8.47182842522
-8.53140662307
-8.59002463993
-8.64763214615
-8.70417688833
-8.75960465848
-8.81385928454
-8.86688258772
-8.91861446152
-8.96899282179
-9.01795357872
-9.06543063099
-9.11135589297
-9.15565933256
-9.19826894679
-9.23911072717
-9.27810869572
-9.31518502434
-9.35026009462
-9.38325244766
-9.41407878838
-9.44265409976
-9.46889180506
-9.49270382236
-9.51400053904
-9.53269086588
-9.548682422
-9.56188171736
-9.57219421786
-9.57952434809
-9.58377557903
-9.58485067095
-9.58265190379
-9.5770811062
-9.56803974116
-9.55542915563
-9.53915080073
-9.51910633187
-9.49519770444
-9.46732735369
-9.43539839888
-9.39931481769
-9.35898162767
-9.31430506844
-9.26519271569
-9.21155356001
-9.15329817101
-9.09033895669
-9.02259042084
-8.94996936887
-8.87239505707
-8.78978928953
-8.70207660316
-8.60918480415
-8.51104581295
-8.40759650593
-8.29877961471
-8.18454504486
-8.0648519122
-7.93967095849
-7.80898751007
-7.67280649089
-7.531159429
-7.38410955824
-7.23174424918
-7.07416154341
-6.91146452139
-6.74364606271
-6.57051399475
-6.39166584737
-1.96922843817
-1.93766525685
-1.95731132973
-2.0147596927
-2.09377625744
-2.18555849443
-2.28317977249
-2.38157043841
-2.47785409242
-2.57078921589
-2.66012255437
-2.74612785334
-2.82930705022
-2.91021344386
-2.98936105166
-3.06718720237
-3.14404430561
-3.22020583568
-3.29587803508
-3.37121283606
-3.446319781
-3.52127642714
-3.5961362107
-3.67093505808
-3.74569662371
-3.8204356536
-3.89516080684
-3.96987667805
-4.0445852123
-4.11928668515
-4.19398035756
-4.26866490162
-4.34333867912
-4.4179998924
-4.49264665404
-4.56727703889
-4.64188908581
-4.71648078302
-4.79105004601
-4.86559468965
-4.94011240322
-5.01460073526
-5.08905707386
-5.16347859362
-5.2378622727
-5.31220484625
-5.38650282899
-5.46075241185
-5.53494952834
-5.60908981868
-5.68316855731
-5.75718068471
-5.83112075037
-5.90498292103
-5.97876093762
-6.05244809122
-6.12603720257
-6.19952062352
-6.27289019333
-6.34613720464
-6.41925236668
-6.49222577319
-6.56504687944
-6.63770447898
-6.71018668289
-6.78248088445
-6.85457369354
-6.92645088132
-6.99809734072
-7.069497063
-7.1406331204
-7.21148764364
-7.28204177165
-7.3522755811
-7.42216801647
-7.49169684059
-7.56083861181
-7.62956866875
-7.69786110062
-7.76568869111
-7.83302284757
-7.89983353727
-7.96608924351
-8.03175693628
-8.09680204283
-8.16118840692
-8.22487823602
-8.28783204644
-8.35000861599
-8.41136494712
-8.47185623869
-8.53143586413
-8.59005535111
-8.64766435522
-8.70421062456
-8.75963994969
-8.8138961915
-8.86692119089
-8.91865483564
-8.96903502695
-9.01799766435
-9.06547666108
-9.11140395764
-9.15570951359
-9.19832130825
-9.2391653371
-9.27816565184
-9.31524445111
-9.35032211645
-9.38331718123
-9.41414636034
-9.44272467672
-9.4689655922
-9.49278102777
-9.51408136627
-9.53277556501
-9.5487713461
-9.56197531593
-9.57229298675
-9.57962885595
-9.58388653039
-9.58496893744
-9.58277854418
-9.57721737097
-9.56818709981
-9.55558935066
-9.53932590868
-9.51929883323
-9.49541057699
-9.46756417933
-9.4356634566
-9.399613185
-9.35931935339
-9.31468941947
-9.2656324247
-9.212059044
-9.15388179913
-9.09101545101
-9.02337735774
-8.95088768825
-8.87346958886
-8.79104943124
-8.70355720845
-8.61092715336
-8.51309853805
-8.41001650849
-8.30163314984
-8.18790908727
-8.06881558824
-7.94433640467
-7.81446922997
-7.6792285272
-7.53865035567
-7.39279968278
-7.24176409349
-7.08562361294
-6.9244858571
-6.75839511486
-6.58732993281
-6.41123622968
-1.98847720396
-1.95738176921
-1.97260692022
-2.02427733728
-2.09833851837
-2.18654391211
-2.28195199168
-2.3792241936
-2.47513873426
-2.56815116491
-2.65778778702
-2.74418032654
-2.82774884269
-2.90900550845
-2.98844827215
-3.06651243523
-3.14355537143
-3.21985834213
-3.29563589772
-3.37104765538
-3.44620974058
-3.52120496127
-3.59609181281
-3.67090872545
-3.74568207386
-3.82042854856
-3.89515819164
-3.96987659875
-4.04458642508
-4.11928843682
-4.19398222611
-4.26866667629
-4.3433402737
-4.41800129431
-4.4926478912
-4.56727815227
-4.64189011677
-4.71648176852
-4.79105101716
-4.86559567241
-4.94011341877
-5.01460178455
-5.08905816373
-5.16347972256
-5.23786344417
-5.31220605365
-5.3865040659
-5.46075369256
-5.53495086005
-5.6090912019
-5.68317000417
-5.75718220536
-5.83112236766
-5.90498464913
-5.97876278419
-6.05245007236
-6.12603933657
-6.19952293281
-6.27289270879
-6.34613995862
-6.41925538354
-6.49222906368
-6.56505044779
-6.63770833358
-6.71019083949
-6.78248536086
-6.85457850256
-6.92645602394
-6.99810280642
-7.06950284123
-7.14063921305
-7.21149407013
-7.28204856363
-7.35228276942
-7.42217561982
-7.49170486509
-7.56084706135
-7.62957755785
-7.69787046059
-7.76569856636
-7.83303328558
-7.89984457934
-7.96610092119
-8.03176927366
-8.09681506094
-8.16120212793
-8.22489268606
-8.2878472555
-8.35002461522
-8.41138176628
-8.47187390633
-8.53145440913
-8.59007480071
-8.64768472825
-8.70423194012
-8.75966222377
-8.81391943695
-8.86694544704
-8.91868014751
-8.96906144112
-9.01802522846
-9.06550541588
-9.1114339582
-9.15574081424
-9.19835395444
-9.23919938646
-9.27820120168
-9.31528161261
-9.3503609718
-9.38335780696
-9.41418887506
-9.44276925721
-9.4690124291
-9.49283028097
-9.51413319633
-9.53283022126
-9.5488292099
-9.56203685239
-9.57235867038
-9.57969921195
-9.58396225627
-9.58505092963
-9.58286785202
-9.57731519726
-9.56829487019
-9.55570879396
-9.53945910347
-9.51944824629
-9.49557912741
-9.46775533609
-9.4358813668
-9.39986282008
-9.3596066553
-9.31502145961
-9.26601761096
-9.21250737422
-9.15440513645
-9.09162784569
-9.02409545986
-8.95173121646
-8.87446178852
-8.79221759536
-8.70493341248
-8.61254916475
-8.5150106857
-8.41227034763
-8.30428801865
-8.19103286066
-8.07248579395
-7.94864159309
-7.81950962225
-7.68511501371
-7.54550170327
-7.40074212196
-7.25094026248
-7.0961942012
-6.93665010436
-6.77244686929
-6.60374208822
-6.43076791065
-1.98847706075
-1.95738156919
-1.97260684608
-2.02427724071
-2.0983384215
-2.1865439022
-2.28195200477
-2.37922424353
-2.47513884893
-2.56815132639
-2.65778798186
-2.74418055737
-2.82774910808
-2.90900580362
-2.98844859069
-3.06651276919
-3.14355570536
-3.21985865348
-3.29563616941
-3.37104787846
-3.44620991638
-3.52120509143
-3.59609190403
-3.67090878652
-3.74568210083
-3.82042853886
-3.89515814818
-3.96987653255
-4.04458635315
-4.11928837872
-4.19398220147
-4.26866670284
-4.34334036153
-4.41800144635
-4.4926481093
-4.56727843723
-4.64189046818
-4.71648218464
-4.79105149539
-4.86559620908
-4.94011401554
-5.01460243468
-5.08905885456
-5.16348043849
-5.23786416978
-5.31220678408
-5.38650478627
-5.46075439769
-5.5349515564
-5.60909189034
-5.68317069499
-5.75718290994
-5.83112309976
-5.90498541989
-5.97876359971
-6.05245094062
-6.12604027911
-6.19952397125
-6.27289386646
-6.34614125587
-6.41925683266
-6.49223066593
-6.56505219818
-6.63771023181
-6.71019289403
-6.78248758242
-6.85458089491
-6.92645858036
-6.99810551058
-7.06950567605
-7.14064217254
-7.21149716246
-7.28205180358
-7.35228616637
-7.42217917185
-7.49170856402
-7.5608509029
-7.6295815507
-7.69787462599
-7.76570293083
-7.83303787336
-7.89984940897
-7.96610600579
-8.03177462301
-8.09682068409
-8.1612080357
-8.22489889199
-8.28785377427
-8.35003145836
-8.41138893885
-8.4718814079
-8.5314622389
-8.59008296328
-8.64769322875
-8.70424077628
-8.7596714005
-8.81392894731
-8.86695530173
-8.9186903681
-8.96907204505
-9.01803624798
-9.06551688119
-9.11144588864
-9.15575323145
-9.19836689496
-9.2392129011
-9.27821536337
-9.31529650229
-9.35037664357
-9.38337432016
-9.41420633691
-9.4427878206
-9.46903224517
-9.49285148179
-9.51415594793
-9.53285479293
-9.54885597641
-9.56206624048
-9.57239113582
-9.5797352915
-9.58400265958
-9.58509654521
-9.58291969095
-9.57737442631
-9.56836290969
-9.55578738513
-9.53955032961
-9.51955456304
-9.4957034279
-9.46790104492
-9.43605257562
-9.40006445695
-9.35984463364
-9.31530280044
-9.26635061478
-9.21290187758
-9.1548727943
-9.09218241732
-9.02475317304
-8.95251123923
-8.8753867137
-8.7933138904
-8.70623196397
-8.61408606116
-8.51682818669
-8.41441777438
-8.30682237289
-8.19401925948
-8.07599813155
-7.95276429204
-7.82434006111
-7.69076447857
-7.55209598148
-7.40842350545
-7.25987666078
-7.1065948946
-6.94877965761
-6.78667079751
-6.62057821268
-6.45093614205
-1.96922802033
-1.93766467548
-1.95731107608
-2.01475940857
-2.09377598314
-2.1855584608
-2.28317981611
-2.38157060193
-2.4778544428
-2.57078970772
-2.6601231517
-2.74612855588
-2.8293078482
-2.91021432322
-2.98936199535
-3.06718818514
-3.14404528119
-3.22020674352
-3.29587882699
-3.37121348422
-3.44632028771
-3.5212768009
-3.59613647222
-3.67093522802
-3.74569669382
-3.82043561588
-3.89516067229
-3.96987647901
-4.04458499784
-4.1192865121
-4.19398028306
-4.26866497613
-4.34333893335
-4.41800034044
-4.49264730631
-4.56727789845
-4.64189014893
-4.71648204136
-4.79105148939
-4.86559630664
-4.94011418577
-5.01460265589
-5.08905909975
-5.16348068776
-5.23786439544
-5.31220697552
-5.38650493569
-5.46075449951
-5.53495161129
-5.60909189904
-5.68317066008
-5.75718283373
-5.8311229809
-5.90498526595
-5.97876341789
-6.05245073396
-6.12604006295
-6.19952376493
-6.27289368571
-6.34614110779
-6.41925671377
-6.49223056711
-6.5650521107
-6.63771015237
-6.71019282493
-6.78248752505
-6.85458084295
-6.92645851684
-6.99810541345
-7.06950552641
-7.14064196138
-7.21149688824
-7.28205146274
-7.35228574525
-7.42217864713
-7.49170791308
-7.56085011589
-7.62958063364
-7.6978735933
-7.76570179399
-7.83303663486
-7.89984806351
-7.96610454427
-8.03177303545
-8.09681896236
-8.16120617506
-8.22489689122
-8.28785163184
-8.35002916615
-8.4113864782
-8.47187875276
-8.53145936355
-8.59007984951
-8.6476898673
-8.70423714292
-8.75966747502
-8.81392470335
-8.86695072159
-8.91868545808
-8.96906681061
-9.01803068511
-9.06551100193
-9.11143970101
-9.15574673777
-9.19836011291
-9.23920586557
-9.27820810853
-9.31528907274
-9.35036908394
-9.38336668363
-9.41419870298
-9.44278029337
-9.46902494072
-9.49284454231
-9.51414957629
-9.53284926544
-9.54885162042
-9.56206341837
-9.57239029449
-9.57973701447
-9.58400767431
-9.58510570475
-9.58293396565
-9.57739498674
-9.56839121568
-9.55582519588
-9.53959970552
-9.51961793902
-9.49578372716
-9.46800176845
-9.4361778911
-9.40021934057
-9.36003504117
-9.31553582167
-9.26663464464
-9.21324686041
-9.15529051822
-9.09268681021
-9.02536063617
-8.95324110155
-8.87626179543
-8.79436105747
-8.70748263318
-8.61557680511
-8.51860163962
-8.41652383187
-8.30931933467
-8.19697455789
-8.0794887523
-7.95687831774
-7.82918045352
-7.69645159302
-7.55876975005
-7.41624876249
-7.26904864755
-7.11735849095
-6.96143812223
-6.80161471124
-6.63831065591
-6.47208555057
-1.92699414399
-1.89594467592
-1.92587644768
-1.99565091697
-2.08482177924
-2.18370179512
-2.28558407526
-2.3860588718
-2.4829870412
-2.57573391714
-2.66447100189
-2.74973761043
-2.83218465043
-2.91243802993
-2.99103860361
-3.06842545074
-3.14494054854
-3.22084228055
-3.29632121291
-3.37151495691
-3.44652086432
-3.52140660152
-3.59621718469
-3.67098304476
-3.74572302397
-3.82044836136
-3.89516521586
-3.96987639464
-4.04458257938
-4.11928316701
-4.19397681992
-4.26866181467
-4.3433362539