/*--------------------------------*- C++ -*----------------------------------*\
| =========                 |                                                 |
| \\      /  F ield         | OpenFOAM: The Open Source CFD Toolbox           |
|  \\    /   O peration     | Version:  2106                                  |
|   \\  /    A nd           | Website:  www.openfoam.com                      |
|    \\/     M anipulation  |                                                 |
\*---------------------------------------------------------------------------*/
FoamFile
{
    version     2.0;
    format      ascii;
    arch        "LSB;label=32;scalar=64";
    class       volScalarField;
    location    "0.445";
    object      p;
}
// * * * * * * * * * * * * * * * * * * * * * * * * * * * * * * * * * * * * * //

dimensions      [0 2 -2 0 0 0 0];

internalField   nonuniform List<scalar> 
11200
(
150.104062598
147.175461003
146.061610614
145.534279991
145.166950907
144.872172906
144.610528903
144.361989338
144.117468649
143.872396904
143.624076783
143.37075348
143.111194946
142.84446569
142.569799013
142.286521719
141.994008239
141.691652859
141.378857077
141.055033139
140.719557508
140.371781407
140.01104657
139.636685106
139.248011318
138.844323776
138.424906131
137.989027819
137.535944794
137.064900167
136.575124804
136.065837854
135.536246881
134.985548314
134.412927341
133.817559943
133.198612411
132.555241433
131.886594283
131.191809503
130.470017515
129.720340421
128.941892419
128.133779809
127.295101091
126.424946424
125.522397326
124.58652594
123.616393771
122.6110504
121.569531312
120.490855084
119.374019638
118.217997418
117.021729185
115.784116128
114.5040099
113.18020005
111.811398207
110.396218284
108.933151492
107.420534879
105.856510955
104.238979084
102.565529254
100.833356206
99.0391494439
97.1789487219
95.2479497781
93.2402377381
91.1484234961
88.9631475359
86.6722110372
84.2594274904
81.7027108941
78.9704009042
76.0148971708
72.7636219087
69.062843026
64.2995417519
148.311020611
146.952846691
146.161875731
145.661862095
145.27087456
144.946992434
144.662471054
144.397867559
144.142377155
143.889851176
143.636462127
143.379696318
143.117816676
142.849546827
142.573886507
142.290001098
141.997153438
141.694660988
141.381865621
141.058105784
140.722731625
140.375067877
140.014470823
139.640272336
139.25177628
138.848275489
138.429050788
137.993369783
137.540487128
137.069644921
136.580073032
136.070989096
135.541599083
134.991102612
134.418686998
133.823528338
133.204792712
132.561636517
131.893207103
131.198643103
130.477075089
129.727625456
128.949408659
128.141531503
127.303092969
126.433183984
125.530887049
124.595275398
123.625412076
122.620348577
121.579122802
120.500756331
119.384250779
118.228583192
117.032700004
115.795509443
114.515871921
113.192587866
111.824382402
110.409886339
108.947612392
107.435925253
105.873001075
104.256776683
102.584884363
100.85458372
99.0626591122
97.2052730182
95.277785906
93.2745129421
91.1883851856
89.0104462833
86.729148783
84.329356754
81.7906750048
79.0845951406
76.1703189303
72.9900127123
69.4408879684
65.328097357
147.315830293
146.6616301
146.109274912
145.671657866
145.300034773
144.977933441
144.688833325
144.418598194
144.158132731
143.901647819
143.645258295
143.386282365
143.122807986
142.853408277
142.57696232
142.292541683
141.999336959
141.696609828
141.383662324
141.059817934
140.724414882
140.376813704
140.016270531
139.642131617
139.253704767
138.850280253
138.431136601
137.995540338
137.542745828
137.071995406
136.582519799
136.073539131
135.544262497
134.993882298
134.421580876
133.826536942
133.207917372
132.564879105
131.896570294
131.202130622
130.480691462
129.731376184
128.953300289
128.145571956
127.307291613
126.437552046
125.535438131
124.600025863
123.630381823
122.625561838
121.584609164
120.506551883
119.390399481
118.235138646
117.039727642
115.803089142
114.524101251
113.201586189
111.834296097
110.420894949
108.959935594
107.44983118
105.888817438
104.274925795
102.60591894
100.879202825
99.0917358496
97.2399193785
95.3194392072
93.3250567002
91.2503222631
89.087173107
86.8255145516
84.4524309385
81.9512017655
79.2999673697
76.4707548861
73.4319502443
70.1475775681
66.594620602
146.766069029
146.402687947
146.002790441
145.633800596
145.296184315
144.988081791
144.702717565
144.43201164
144.169636347
143.910964478
143.652577846
143.391944827
143.127165613
142.856773019
142.579591109
142.294637527
142.001056198
141.698071203
141.384955728
141.061010156
140.725543825
140.377866725
140.017337725
139.64323366
139.254843692
138.851459988
138.432360824
137.996811476
137.544065194
137.073363327
136.583935647
136.075000213
135.545764266
134.995426122
134.423176144
133.828188797
133.209631881
132.566663151
131.898429921
131.204072355
130.482722766
129.733505334
128.955537076
128.147928007
127.309780692
126.44019093
125.538247132
124.603029672
123.6336105
122.629051985
121.588405293
120.510707994
119.394981255
118.240226127
117.045418577
115.809503221
114.531385151
113.209919727
111.843900102
110.432040663
108.972960112
107.46516008
105.906979581
104.296559279
102.631797857
100.91029669
99.1292805783
97.2854973377
95.3750938624
93.3934602244
91.3350394384
89.1931020566
86.9594166101
84.6239415125
82.1745884013
79.5972597649
76.877211035
74.0047359046
70.9834336061
67.8504858105
146.432021043
146.200225822
145.898813906
145.587837335
145.282998053
144.99097434
144.711997609
144.442869306
144.179905548
143.919815986
143.659840089
143.397740383
143.13172437
142.860343062
142.582399884
142.296878043
142.002885126
141.699612205
141.386304252
141.062238956
140.726711659
140.379026207
140.018486334
139.644381419
139.256014244
138.852668377
138.433616857
137.998122522
137.545437301
137.07480212
136.585446688
136.076589706
135.547438984
134.997191469
134.425033369
133.830140949
133.211679701
132.568807552
131.900675274
131.206423609
130.485187085
129.736092216
128.958258585
128.150798758
127.312818568
126.443417947
125.541689727
124.606719891
123.637587231
122.633362301
121.593106863
120.515870976
119.400691255
118.246587546
117.052558639
115.817576422
114.54057826
113.220460583
111.856065559
110.44617418
108.989483658
107.484582059
105.929931751
104.323838205
102.664407676
100.949498187
99.1766623488
97.3430782126
95.4454662139
93.4799921037
91.4421591391
89.3267027552
87.127514636
84.8376763434
82.4497675534
79.9567796014
77.3545164938
74.647420194
71.8568507197
69.0335043909
146.228628508
146.052726709
145.811532435
145.544207155
145.267020419
144.990381798
144.718690894
144.452186888
144.189417981
143.928403921
143.66710972
143.403668298
143.136454208
142.864076702
142.585343001
142.299215583
142.004772616
141.701174953
141.387640106
141.063422569
140.72779916
140.380058153
140.019490198
139.645385552
139.257033605
138.853713532
138.434695737
137.999241028
137.546599788
137.076011703
136.586705511
136.07789909
135.54879985
134.998604641
134.426500297
133.831664086
133.21326461
132.570461774
131.902407213
131.208245083
130.487110721
129.738131566
128.960429331
128.153118437
127.315309374
126.446106008
125.544606686
124.609904354
123.641086266
122.637233612
121.59741952
120.52070899
119.406156789
118.25280483
117.059679122
115.825785767
114.550106352
113.231588587
111.869141865
110.461616432
109.007796416
107.506389536
105.95601195
104.35514748
102.70212896
100.995106522
99.2320093551
97.410503842
95.5279500847
93.5813622479
91.5673841205
89.4823041122
87.3221559973
85.082998727
82.7615476815
80.3564515223
77.8707779524
75.3166805091
72.7211068856
70.1311531034
146.105511614
145.949904254
145.743602958
145.507041431
145.251566686
144.988287244
144.72367333
144.460163001
144.198026803
143.93643675
143.67405877
143.409416345
143.14107972
142.867740411
142.588226384
142.301490234
142.006587225
141.70265174
141.388875976
141.064492277
140.728759034
140.380949948
140.020346231
139.646230343
139.25788341
138.85457967
138.43558664
138.000162994
137.547557662
137.077009408
136.587746599
136.07898708
135.54993851
134.999798507
134.427754943
133.832986216
133.214661311
132.571941217
131.903978058
131.209915125
130.488887775
129.740027451
128.962459469
128.15530438
127.317676153
126.44868393
125.547432509
124.613022775
123.644551507
122.641111008
121.601788685
120.525666985
119.411821924
118.259321258
117.067222166
115.834567371
114.560381941
113.243670231
111.883407029
110.478532443
109.027945306
107.530485303
105.984923204
104.389946392
102.744142972
101.045983725
99.2938042606
97.4857907995
95.6199736919
93.6942385195
91.7063708911
89.6541648223
87.5356409725
85.3494667877
83.0957112289
80.7771320044
78.4012779343
75.9837463919
73.5514123936
71.1436307146
146.031431745
145.881421901
145.694666839
145.478562151
145.238856686
144.986035678
144.727398133
144.466658561
144.205289344
143.943363959
143.680141503
143.414498551
143.145194621
142.87100853
142.590796882
142.303509991
142.008186537
141.703939374
141.38993915
141.065398893
140.729560815
140.38168568
140.021044589
139.646912015
139.258564256
138.855270512
138.436295664
138.00089631
137.548320044
137.077804826
136.588578593
136.079859199
135.550854386
135.000762068
134.428770343
133.834058055
133.215795268
132.573143088
131.905254427
131.211275656
130.490348585
129.741606348
128.964175953
128.157180437
127.319738569
126.450965403
125.549972999
124.615870765
123.647765787
122.644763139
121.605966326
120.530476539
119.417392522
118.265809822
117.074819641
115.843507377
114.570949958
113.256213653
111.898350983
110.496392991
109.049348695
107.556198366
106.015887541
104.427319366
102.789349235
101.10078175
99.3603712754
97.5668318701
95.7188620692
93.8151969232
91.854703948
89.8365533254
87.7604993096
85.6273541566
83.4397313999
81.2031643648
78.9276892457
76.6299096352
74.3345045434
72.073480104
145.989155113
145.839707703
145.663292716
145.459555319
145.23002343
144.984315499
144.729955311
144.47131581
144.210606823
143.948509231
143.684707082
143.418342508
143.148324034
142.873503086
142.592763041
142.305055825
142.00940954
141.704921811
141.390747482
141.066085145
140.730164772
140.382237224
140.021565908
139.64742031
139.25906922
138.855781926
138.436820235
138.001439056
137.548884974
137.078395403
136.58919802
136.08051065
135.5515413
135.00148821
134.42954017
133.834876789
133.216669188
132.574080113
131.906264869
131.212372312
130.491542751
129.742913141
128.965615324
128.158776528
127.321520588
126.452968846
125.552240994
124.618455686
123.650731275
122.648186538
121.609941258
120.535116711
119.422836162
118.272225014
117.082410442
115.852521347
114.581687797
113.269040422
111.913710548
110.514829725
109.071526338
107.582926681
106.048154808
104.466334043
102.836591152
101.158065684
99.4299268452
97.6514033104
95.8218319951
93.9407399586
92.0079723132
90.0238959191
87.9897058574
85.9078935069
83.7829052668
81.6220362548
79.4365364063
77.2428162425
75.062918905
72.923021737
145.969878347
145.820000726
145.648038323
145.450103626
145.225543026
144.983424319
144.73128891
144.473778814
144.213449457
143.951284896
143.687189818
143.420448477
143.150051335
142.874891012
142.593866962
142.305933091
142.010112435
141.705494746
141.391226499
141.066498556
140.730534291
140.382579217
140.021892534
139.647740353
139.259390185
138.85610863
138.437156582
138.001788286
137.549249935
137.078778756
136.589602443
136.080939053
135.551996946
135.001974911
134.430062435
133.835440156
133.217280297
132.574746889
131.906996668
131.213179701
130.492440729
129.74391902
128.966749529
128.160063775
127.322990968
126.454659015
125.554195474
124.620728557
123.653388228
122.651307402
121.613623042
120.539477224
119.428018376
118.278402485
117.089794123
115.861367741
114.592308569
113.281814071
111.929097752
110.533389804
109.093938272
107.610016746
106.080928888
104.506016831
102.884674643
101.216367903
99.5006635985
97.7372750487
95.9261274339
94.0674582511
92.1619596008
90.2110007841
88.2169216491
86.1834756869
84.1163706729
82.0239512516
79.9179403993
77.8140914591
75.7320933601
73.6938685971
145.969880555
145.820016365
145.648064818
145.450139216
145.225586894
144.983475655
144.731346755
144.473842354
144.213518015
143.951357938
143.687266944
143.420529411
143.150135899
142.874979107
142.593958552
142.306028202
142.010211127
141.705597085
141.391332556
141.066608426
140.730648112
140.382697206
140.022014968
139.647867688
139.259523018
138.856247606
138.437302619
138.001942534
137.549413799
137.078953836
136.58979074
136.081143066
135.552219692
135.002220044
134.430334355
133.835744208
133.217622888
132.575135743
131.907441543
131.213692628
130.493035753
129.744613132
128.967563377
128.161022528
127.324125203
126.456005887
125.555800086
124.622645701
123.655684481
122.65406363
121.616937433
120.543469005
119.43283227
118.284214008
117.096816335
115.869858755
114.602581405
113.294249294
111.944156036
110.551631701
109.11604247
107.636806691
106.113403255
104.545386282
102.932405776
101.274234437
99.5708048967
97.8222664084
96.0290642296
94.1920482942
92.3126461536
90.3931606847
88.4367063625
86.4479040255
84.4332691728
82.4017031633
80.3649913992
78.3381507136
76.3390827102
74.3868791719
145.989161812
145.839755016
145.663372822
145.459662865
145.230155981
144.984470294
144.730129507
144.471506979
144.210812958
143.948728742
143.684938774
143.418585547
143.148577893
142.873767492
142.593037905
142.305341208
142.009705601
141.705228751
141.391065529
141.066414589
140.73050602
140.382590904
140.021932906
139.647801894
139.259467101
138.856198176
138.437257465
138.001900595
137.549374947
137.078918746
136.589760739
136.08112012
135.552206465
135.002219897
134.430351488
133.835783803
133.217691154
132.575240641
131.907592479
131.213900993
130.493315422
129.744980946
128.968039779
128.161632391
127.32489874
126.456979754
125.557018782
124.62416328
123.657566624
122.656390102
121.619805045
120.546995271
119.437159756
118.289515625
117.103301523
115.87778155
114.612250562
113.306038466
111.958516352
110.569107804
109.137298899
107.662643554
106.144785601
104.58347709
102.978603375
101.33021999
99.6386117725
97.9043645551
96.1283674004
94.3119950479
92.4572252488
90.5667400801
88.6445157024
86.6958114556
84.7276187777
82.7490906297
80.7718995233
78.8104490215
76.8814550585
75.0023564757
146.031443181
145.88150208
145.694802279
145.478743592
145.239079852
144.986295759
144.727690304
144.466978743
144.205634211
143.943730889
143.680528513
143.414904243
143.145618138
142.87144945
142.591255091
142.303985573
142.00867973
141.704450511
141.390468635
141.065947237
140.730128734
140.382274201
140.021655086
139.647546671
139.259225604
138.855962107
138.437021855
138.00166253
137.549133011
137.078672675
136.589511212
136.080868618
135.55195524
135.001971962
134.430110729
133.835555108
133.217480549
132.575055463
131.907441737
131.213795621
130.493268721
129.745009092
128.968162437
128.161873477
127.325287321
126.457551083
125.557815667
124.625237745
123.658981896
122.658222969
121.622148682
120.549962687
119.440887994
118.294170815
117.109084621
115.884936186
114.621071634
113.316882159
111.971814421
110.585380491
109.157172072
107.686875743
106.174291455
104.619359309
103.022193302
101.383108117
99.7026586656
97.9817023215
96.2215590075
94.4240437262
92.5916114103
90.7275235577
88.8360887187
86.9229087484
84.995202052
83.0621404925
81.1351642967
79.2282185744
77.3574344569
75.5397246665
146.105528265
145.950019565
145.743796946
145.507300297
145.251883997
144.988655951
144.72408651
144.460614858
144.198512679
143.936953007
143.674602667
143.409985972
143.141673909
142.868358586
142.588868385
142.302156174
142.007277419
141.703366627
141.389616104
141.065258314
140.729551942
140.381771183
140.021197789
139.647115122
139.258804996
138.855542825
138.436597363
138.001228693
137.548687478
137.078214494
136.589040529
136.080386475
135.551463502
135.001473293
134.429608673
133.835054002
133.216985921
132.574574103
131.906981974
131.213367624
130.492884883
129.744684526
128.967915558
128.161726634
127.325267679
126.457691632
125.558156488
124.625827558
123.659879907
122.659501074
121.623894141
120.55228127
119.443907947
118.29804734
117.114005657
115.891129123
114.628811078
113.326501047
111.983714695
110.600047232
109.175188895
107.708943706
106.201251021
104.652211095
103.062115781
101.431503217
99.7612082916
98.05241436
96.3067326137
94.5263047355
92.713928597
90.8732039976
89.0087124783
87.1262280908
85.2329799237
83.3379515171
81.4522218574
79.5893591857
77.7653728713
75.9976706676
146.228651171
146.052880999
145.811790322
145.544549377
145.267437909
144.990864979
144.719230608
144.452775579
144.190049652
143.929073943
143.667814666
143.404405804
143.137222821
142.864875669
142.586172118
142.300074997
142.005662683
141.702096111
141.388592843
141.064407399
140.72881672
140.381109593
140.020579224
139.646517344
139.258212247
138.854944419
138.435986014
138.000599667
137.548037945
137.077543095
136.588347035
136.079671564
135.550728649
135.000720796
134.428841657
133.834276422
133.216202651
132.573791152
131.906206686
131.21260896
130.492153886
129.743994811
128.967283791
128.161173114
127.324817062
126.4573739
125.558008101
124.62589283
123.66021263
122.660166538
121.624971497
120.553866456
119.446117155
118.301020914
117.117913484
115.896176369
114.635245827
113.334622736
111.993885088
110.612701698
109.190850009
107.728237003
106.224924407
104.681158715
103.097406681
101.474396685
99.8131716657
98.1151528474
96.3822147749
94.6167704014
92.8218746055
91.0013445475
89.1599038885
87.3033433183
85.4387240644
83.574639573
81.7216038942
79.8926968217
78.103948407
76.3740313409
146.432050516
146.200424073
145.899142317
145.588270091
145.283522775
144.991578493
144.712669645
144.443599908
144.180687434
143.920643619
143.660709439
143.398648726
143.132670064
142.861325312
142.583418577
142.297933555
142.003978105
141.700743322
141.387474014
141.063447798
140.727960346
140.380314984
140.01981632
139.645765179
139.257455193
138.854171836
138.435190729
137.99977698
137.547184963
137.076658272
136.587429848
136.078722311
135.549748371
134.999711314
134.427805551
133.833217181
133.21512475
132.572700145
131.905109273
131.211513103
130.49106914
129.742932827
128.966258685
128.160202181
127.3239215
126.456579681
125.557346962
124.625403423
123.659941876
122.660171398
121.625321142
120.554644979
119.447426197
118.302983518
117.12067858
115.899923803
114.640191842
113.341027812
112.002062569
110.623028077
109.20377749
107.744307442
106.244784354
104.705575958
103.127288575
101.510811486
99.8573679643
98.1685742645
96.4465089881
94.6937897397
92.9136581307
91.1100718684
89.2878052618
87.4525553583
85.6110738688
83.7713550226
81.9430202569
80.138223676
78.3724807549
76.6656462726
146.766105408
146.402933925
146.003192027
145.634324466
145.296814084
144.98880147
144.70351309
144.432872
144.170553081
143.911931234
143.653590083
143.392999546
143.128261094
142.857908612
142.580767088
142.295855009
142.002317029
141.699377857
141.386310815
141.062416869
140.727010369
140.379407773
140.018925112
139.644869754
139.256541716
138.853230781
138.434215686
137.998763849
137.546131202
137.075562376
136.586291133
136.077540728
135.548524398
134.998445876
134.42650001
133.831873549
133.213745916
132.571289946
131.903672627
131.210056595
130.489601711
129.741464579
128.964801911
128.158771791
127.322535572
126.455260137
125.556120407
124.624302122
123.659005017
122.659446536
121.624865881
120.554528989
119.447733393
118.303815328
117.122157291
115.902197146
114.6434394
113.34546646
112.007952789
110.630682885
109.213571827
107.756688843
106.260285173
104.724826915
103.151033074
101.539920143
99.8928528458
98.2116009335
96.4984019492
94.7560278908
92.9878543845
91.1979280551
89.3910254628
87.572698212
85.7493109113
83.9280808476
82.1173108237
80.3273823111
78.5715113458
76.8683514114
147.315878451
146.661938065
146.109759832
145.672278372
145.300770735
144.97876553
144.689745232
144.419577461
144.159169879
143.90273573
143.646391816
143.38745794
143.124023334
142.854662089
142.578254016
142.293871339
142.000705573
141.698020164
141.385119165
141.06132712
140.725975961
140.37839549
140.017906656
139.643829504
139.255468715
138.852117328
138.433056641
137.997555943
137.54487267
137.074252404
136.584929653
136.076128307
135.547062182
134.996935576
134.424943854
133.830273928
133.212104242
132.56960883
131.901955633
131.208308315
130.487826674
129.739669583
128.962995673
128.156965189
127.320742094
126.453496408
125.554406766
124.622663272
123.657470801
122.658053308
121.62365823
120.553560745
119.447070002
118.303536
117.122357751
115.902992664
114.644967432
113.347892389
112.011475447
110.635540918
109.220050929
107.765129989
106.271094169
104.738484809
103.168107239
101.561075088
99.9188599014
98.2433452996
96.536884408
94.8023628675
93.0432538907
91.2636674384
89.4683769332
87.6628115696
85.8529887627
84.0452965913
82.2463961928
80.4638473963
78.7047653334
76.9778472146
148.311116028
146.953300034
146.16255307
145.66271003
145.271869465
144.94811316
144.66370044
144.399192644
144.143788092
143.891340532
143.638024397
143.381327457
143.119513633
142.851306991
142.575707142
142.29187883
141.999083666
141.696637051
141.383881721
141.060169052
140.724839542
140.377243754
140.016729784
139.642614405
139.254206049
138.850801135
138.431682639
137.996118823
137.543368788
137.072679678
136.583286614
136.074413848
135.545275467
134.995076016
134.423011237
133.828268913
133.2100304
132.567468683
131.899752081
131.206044674
130.485507499
129.73730002
128.960581882
128.154514746
127.318264332
126.451002764
125.551911141
124.620182605
123.655026
122.655669755
121.621366311
120.551397303
119.445079553
118.30177232
117.120885889
115.901891455
114.64433297
113.34783889
112.012140125
110.637088387
109.222678099
107.769071407
106.276627908
104.745938801
103.177865992
101.573586559
99.9346420053
98.2629900466
96.5610569162
94.831817002
93.0788179826
91.3062280061
89.5188523609
87.7221087725
85.9218943759
84.1240758992
82.3341832398
80.5569795492
78.7872685928
76.9955487386
150.104224564
147.176126706
146.062598498
145.535527286
145.168426851
144.873852496
144.612393393
144.364025257
144.119666446
143.874750151
143.626581631
143.373408321
143.114000219
142.847423748
142.572914077
142.289799809
141.997457022
141.695281006
141.382669229
141.05901413
140.723710546
140.376118546
140.01556934
139.641397793
139.252921869
138.849442409
138.430245646
137.994606662
137.541783194
137.071020892
136.581554912
136.072609674
135.543399336
134.993128476
134.42099282
133.826179768
133.207869654
132.56523656
131.897449309
131.203672228
130.483066785
129.734793134
128.958011645
128.151884787
127.315579227
126.448268215
125.549134099
124.617371768
123.652191829
122.652825004
121.618526527
120.548581467
119.442310715
118.299078273
117.118300048
115.899453777
114.642090674
113.345849518
112.010472979
110.635826472
109.221920498
107.768936294
106.277256006
104.747497338
103.180552969
101.577635117
99.940325104
98.2706299842
96.5710467037
94.8445805407
93.0948366217
91.3260519885
89.543116028
87.7515476707
85.9573928704
84.167148429
82.3872353599
80.6224367786
78.852293225
76.9523559019
56.9054922586
53.3533675001
50.9619377425
49.0045270846
47.3324910096
45.8756561122
44.5900364565
43.4459249838
42.4216491985
41.5004634924
40.6689625354
39.9161420517
39.2328017187
38.6111438196
38.0444898555
37.5270714515
37.0538723995
36.6205049753
36.223112236
35.8582891981
35.5230182651
35.2146161883
34.9306897443
34.6690980787
34.4279211344
34.2054323985
34.0000754398
33.8104438512
33.6352636841
33.4733784968
33.3237363644
33.18537844
33.057429052
32.9390869892
32.8296176219
32.728346506
32.6346534232
32.5479668458
32.4677594622
32.3935436619
32.3248673962
32.2613101827
32.2024787006
32.1480023843
32.0975291862
32.0507468588
32.0074844688
31.967677058
31.9309355769
31.8969523769
31.8654828213
31.8363086685
31.8092544075
31.7841585307
31.7608745755
31.7392824035
31.7192375472
31.7006098825
31.6832861927
31.6671604871
31.6521410399
31.6381273828
31.6250296233
31.6127678548
31.6012685227
31.5904636835
31.5802926621
31.5706994898
31.5616314302
31.5530423329
31.5448879635
31.5371278577
31.5297248493
31.5226423303
31.5158521669
31.5093256412
31.503033213
31.4969534211
31.4910661637
31.4853509258
31.4797883589
31.4743634069
31.4690683635
31.4638846768
31.4587976624
31.4537999454
31.4488764146
31.4440198749
31.439221183
31.434488979
31.4298142217
31.4251757081
31.4205639373
31.4159721207
31.4113955941
31.4068294147
31.4022693903
31.3977119238
31.39315312
31.3885893032
31.3840171304
31.3794332271
31.3748340624
31.3702158997
31.3655756138
31.3609102421
31.3562169002
31.3514928149
31.346735336
31.3419419251
31.3371104492
31.3322390395
31.3273261971
31.3223704565
31.3173702555
31.3123240804
31.3072302464
31.3020869962
31.296893169
31.2916484617
31.2863528641
31.2810067493
31.2756094642
31.2701543922
31.2646202343
31.2589524146
31.2534503605
31.2483736876
31.2432415459
31.2380721991
31.2329671922
31.2279987467
31.2232196482
31.2186864851
31.2144593263
31.2105976126
31.2071534482
31.204169938
31.2016549623
31.1995889755
31.1981501063
31.1969566132
31.1959855726
31.194605145
31.1911581223
31.1814240695
31.15531052
31.0911263566
30.9475789777
30.6540989947
30.1054490792
29.1688313845
27.7116506602
25.6412338466
22.9316182394
19.6389427742
15.8817517064
11.6282195052
6.60312444443
1.57037913699
60.0868527844
56.0340367039
53.3220590873
51.1697059058
49.3677587612
47.8178065597
46.4616348325
45.262008268
44.1927530522
43.2342369487
42.3711215574
41.591064189
40.8839119897
40.2411761454
39.6556671211
39.1212337737
38.632568023
38.1850581186
37.7746705711
37.3978619288
37.0515019722
36.7328167963
36.4393369531
36.1688585002
35.9194066961
35.6892086338
35.476666303
35.2803368527
35.0989136765
34.9312103846
34.7761481271
34.632742839
34.5000964186
34.3773857057
34.2638569015
34.1588169083
34.0616290803
33.9717066013
33.8885089415
33.8115374168
33.7403316639
33.6744671235
33.6135515121
33.5572256138
33.5051603817
33.4570469078
33.4125577911
33.3713035859
33.333118583
33.2977796938
33.2650801539
33.2348224546
33.2068146234
33.1808768219
33.1568404034
33.1345471733
33.1138550893
33.0946362498
33.0767702954
33.0601439698
33.0446462806
33.0301897648
33.0166885342
33.0040608841
32.9922305044
32.9811267038
32.9706871996
32.9608522904
32.9515667019
32.9427871414
32.934457536
32.9265462677
32.9190057021
32.9118015436
32.9049034853
32.8982806333
32.8919050195
32.885751174
32.8797990987
32.8740299955
32.8684223053
32.8629552884
32.8576042607
32.8523619173
32.8472165208
32.8421551447
32.8371695329
32.8322518452
32.8273894268
32.8225727612
32.8177927423
32.8130462244
32.808327788
32.8036318062
32.7989535911
32.794287895
32.7896304416
32.7849776534
32.7803253683
32.7756703933
32.7710088833
32.7663377866
32.7616532869
32.7569523448
32.752231111
32.7474871396
32.7427167605
32.7379180473
32.733087208
32.7282222778
32.7233204165
32.7183800428
32.7133992821
32.7083766169
32.7033107522
32.6982001446
32.693043619
32.6878394426
32.6825874168
32.6772880082
32.6719431034
32.6665558484
32.661131957
32.6556793036
32.6502154045
32.6447575143
32.6393484022
32.6339062184
32.6284437947
32.6232655662
32.6181831657
32.6132695884
32.608601445
32.6042412599
32.6002593128
32.5967295114
32.5937216311
32.591293857
32.5894557422
32.5882913254
32.5877522785
32.5877175956
32.5879024256
32.587487099
32.5842921025
32.5731148776
32.5418776665
32.4656299588
32.2981138671
31.9624357893
31.3472436881
30.3167457931
28.7414484322
26.538498778
23.6938167855
20.2680414187
16.3777158101
12.0062778657
6.89228018506
1.70394090633
62.2942825976
58.3608442794
55.4936980901
53.2097695934
51.3078009947
49.6813133849
48.2652738801
47.0176668813
45.9090703072
44.9176241194
44.0264330225
43.2220454692
42.4935069584
41.831740703
41.229120721
40.6791681192
40.1763257149
39.7157903624
39.2933793807
38.9054316387
38.5487229434
38.2204028564
37.9179386879
37.639073458
37.3817871678
37.1442676804
36.924882355
36.7221573066
36.534758125
36.3614729774
36.2011997251
36.0529325178
35.9157527771
35.7888186008
35.6713584886
35.562662638
35.462078653
35.3690047861
35.2828862474
35.2032106371
35.1295039771
35.0613275759
34.9982737425
34.9399647401
34.8860494764
34.8362062196
34.7901359982
34.7474636566
34.7079007547
34.6713049607
34.6374677484
34.6061655264
34.5771944323
34.5503695064
34.5255203787
34.5024904834
34.4811315306
34.4613081133
34.4428949753
34.4257771931
34.4098361649
34.3949786216
34.3811115319
34.3681499019
34.3560139018
34.3446317707
34.3339368353
34.3238693998
34.3143713368
34.3053972986
34.2968895715
34.2888168439
34.2811274268
34.273787673
34.2667632999
34.2600258783
34.2535439208
34.2472912748
34.2412451179
34.2353819249
34.2296804286
34.2241285839
34.2187114769
34.2134129548
34.208218783
34.2031162632
34.1980934482
34.193141491
34.1882503619
34.1834123488
34.1786179855
34.173859215
34.1691289567
34.1644210483
34.1597303349
34.1550512281
34.1503789419
34.1457098694
34.1410398247
34.1363651006
34.1316815975
34.1269862583
34.1222754654
34.117546306
34.1127947203
34.1080182116
34.1032132297
34.0983778646
34.0935083505
34.088602495
34.0836576473
34.0786720308
34.0736437504
34.068571577
34.0634545583
34.0582913133
34.0530809372
34.0478221586
34.0425152777
34.0371614746
34.0317633315
34.0263251938
34.0208539306
34.015359709
34.0098605338
34.0043694499
33.9988962264
33.9934789273
33.9881943391
33.9829348805
33.9777919877
33.9728626377
33.9682606165
33.9640380202
33.9602646275
33.9570312579
33.9544196236
33.9525063795
33.9512980104
33.9508374036
33.9511573772
33.9520687252
33.9531842248
33.9534296541
33.9500494479
33.9367966056
33.8995836455
33.8101933235
33.6176089413
33.2390993168
32.5580377747
31.4365926313
29.748823678
27.4209830802
24.4491095985
20.8965273402
16.8764628845
12.386862316
7.18104028445
1.83529083969
64.0984581254
60.3737479419
57.4697639041
55.1145840875
53.1444866962
51.4601306058
49.9963524852
48.7092714511
47.5676396422
46.5481321926
45.6327373857
44.8071669582
44.0598426396
43.381221945