/*--------------------------------*- C++ -*----------------------------------*\
| =========                 |                                                 |
| \\      /  F ield         | OpenFOAM: The Open Source CFD Toolbox           |
|  \\    /   O peration     | Version:  2106                                  |
|   \\  /    A nd           | Website:  www.openfoam.com                      |
|    \\/     M anipulation  |                                                 |
\*---------------------------------------------------------------------------*/
FoamFile
{
    version     2.0;
    format      ascii;
    arch        "LSB;label=32;scalar=64";
    class       surfaceScalarField;
    location    "0.02";
    object      phi;
}
// * * * * * * * * * * * * * * * * * * * * * * * * * * * * * * * * * * * * * //

dimensions      [0 3 -1 0 0 0 0];

oriented        oriented;

internalField   nonuniform List<scalar> 
22100
(
3.38415379623e-05
1.61584620301e-05
2.24621644391e-05
1.13793729677e-05
1.62972055366e-05
6.1649585708e-06
1.28988847045e-05
3.39832034805e-06
1.09968943449e-05
1.90199009937e-06
9.91115063344e-06
1.08574354104e-06
9.2854138084e-06
6.25736757199e-07
8.92762102405e-06
3.57792787951e-07
8.72818542748e-06
1.99435785008e-07
8.62167540389e-06
1.06510326262e-07
8.56832574148e-06
5.33500605292e-08
8.54419677589e-06
2.41294066122e-08
8.5352538889e-06
8.94334742517e-09
8.53338978024e-06
1.86452526632e-09
8.53474302554e-06
-1.35285624118e-09
8.53729857162e-06
-2.55521758764e-09
8.53982029098e-06
-2.52148158907e-09
8.54195025505e-06
-2.12984723484e-09
8.54361200594e-06
-1.66179285052e-09
8.54479130183e-06
-1.17942240513e-09
8.54566572345e-06
-8.74655477172e-10
8.54628986696e-06
-6.24453856904e-10
8.54672221439e-06
-4.32663182957e-10
8.54701558643e-06
-2.93692824792e-10
8.54721129463e-06
-1.95981031718e-10
8.54734002799e-06
-1.28963177692e-10
8.54742403034e-06
-8.42242439675e-11
8.54747769455e-06
-5.38106655703e-11
8.54750914669e-06
-3.14890256869e-11
8.54752529613e-06
-1.61085132757e-11
8.54753236295e-06
-6.93366023553e-12
8.54753387557e-06
-1.29208134654e-12
8.54753173984e-06
2.3836040153e-12
8.5475272776e-06
4.73496375435e-12
8.5475213877e-06
6.23401185143e-12
8.5475146011e-06
7.1810249373e-12
8.54750721485e-06
7.77671196178e-12
8.54749935953e-06
8.22200698778e-12
8.54749098441e-06
8.67516920755e-12
8.54748192242e-06
9.23350947646e-12
8.547472011e-06
9.95936680019e-12
8.54746110663e-06
1.08663599473e-11
8.54744907824e-06
1.18861715846e-11
8.54743585063e-06
1.2946873099e-11
8.54742138621e-06
1.40959831533e-11
8.5474055692e-06
1.5488617173e-11
8.547388077e-06
1.72866108447e-11
8.54736843015e-06
1.95293476703e-11
8.54734596878e-06
2.23455271062e-11
8.54731988343e-06
2.59149800004e-11
8.5472892909e-06
3.03379411488e-11
8.54725328296e-06
3.56637883371e-11
8.54721096258e-06
4.19408960993e-11
8.54716148362e-06
4.91535830498e-11
8.5471040499e-06
5.72281684114e-11
8.54703789853e-06
6.61113309732e-11
8.54696243921e-06
7.5613937629e-11
8.54687773736e-06
8.50035664731e-11
8.54678538682e-06
9.26651853074e-11
8.54668964695e-06
9.59231989215e-11
8.54660220257e-06
8.73745108022e-11
8.54654508758e-06
5.67412793133e-11
8.54653597723e-06
8.57812458219e-12
8.54661981128e-06
-8.42707960125e-11
8.54687153864e-06
-2.51914994293e-10
8.54741371647e-06
-5.42065651877e-10
8.54844108281e-06
-1.02703785893e-09
8.55025312599e-06
-1.81168231581e-09
8.55326867051e-06
-3.01522490791e-09
8.55814304489e-06
-4.87413741543e-09
8.56662719609e-06
-8.48407281757e-09
8.58046405755e-06
-1.38368846421e-08
8.60286472068e-06
-2.24006748714e-08
8.63960714719e-06
-3.67423719753e-08
8.70280460312e-06
-6.31972509522e-08
8.82172718506e-06
-1.18922195664e-07
9.07946119149e-06
-2.5773355802e-07
9.7431797749e-06
-6.63718239057e-07
1.18020915669e-05
-2.05891156889e-06
-7.71239766913e-06
1.95144895544e-05
5.02254097524e-05
1.59330517541e-05
4.42981910799e-05
1.73065906747e-05
3.79367738541e-05
1.25263751443e-05
3.29731687898e-05
8.36192492493e-06
2.9499471206e-05
5.3756871602e-06
2.7205939517e-05
3.37927485785e-06
2.57465922444e-05
2.08508383808e-06
2.48474817527e-05
1.25690335064e-06
2.43120234891e-05
7.34894307886e-07
2.40050025935e-05
4.13531685689e-07
2.38365573266e-05
2.21795940314e-07
2.37490444699e-05
1.11642992691e-07
2.37068643064e-05
5.11242998574e-08
2.368908822e-05
1.96414124228e-08
2.36835059349e-05
4.23013688432e-09
2.36833756455e-05
-2.42435318882e-09
2.36854086586e-05
-4.55417296325e-09
2.36880063513e-05
-4.72752910424e-09
2.36904530045e-05
-4.10865065097e-09
2.36925451986e-05
-3.27204502868e-09
2.36941458435e-05
-2.47583353173e-09
2.36953297926e-05
-1.80892306493e-09
2.36961847943e-05
-1.28818492391e-09
2.36967911848e-05
-9.00539597461e-10
2.36972172849e-05
-6.22480028619e-10
2.36975189169e-05
-4.30975808743e-10
2.36977310991e-05
-2.96660201398e-10
2.36978629624e-05
-1.8574888464e-10
2.36979451177e-05
-1.13587266768e-10
2.36979941263e-05
-6.49025467142e-11
2.36980230383e-05
-3.54648165725e-11
2.36980391334e-05
-1.69205326099e-11
2.3698046532e-05
-4.48520519162e-12
2.36980481624e-05
3.73209249614e-12
2.36980459359e-05
9.1390746051e-12
2.36980410457e-05
1.27338171155e-11
2.36980342729e-05
1.51859901353e-11
2.36980260414e-05
1.70027084953e-11
2.36980164869e-05
1.85762141007e-11
2.36980055836e-05
2.0248375471e-11
2.36979931924e-05
2.22669176368e-11
2.36979790468e-05
2.47365690767e-11
2.36979628244e-05
2.76341793061e-11
2.36979442443e-05
3.09392751165e-11
2.36979230695e-05
3.47412212532e-11
2.36978989987e-05
3.92033293293e-11
2.36978715043e-05
4.45579659549e-11
2.36978399913e-05
5.08221460741e-11
2.36978038015e-05
5.82055798148e-11
2.36977622423e-05
6.69777770602e-11
2.36977146525e-05
7.72937064489e-11
2.36976604795e-05
8.9196383484e-11
2.36975993627e-05
1.02552549896e-10
2.36975312916e-05
1.16924420814e-10
2.3697456924e-05
1.31545148183e-10
2.36973780406e-05
1.45221397e-10
2.36972982267e-05
1.55833668196e-10
2.36972243133e-05
1.5929074889e-10
2.36971691067e-05
1.48048263109e-10
2.36971548909e-05
1.10015798767e-10
2.36972253409e-05
1.6442767236e-11
2.36974644119e-05
-1.83009670537e-10
2.36980036893e-05
-5.31238735299e-10
2.3698990172e-05
-1.07092176643e-09
2.37006005849e-05
-1.86207814136e-09
2.37032518853e-05
-3.19287189485e-09
2.37075832231e-05
-5.35788884872e-09
2.37146047726e-05
-8.83279361958e-09
2.37259610991e-05
-1.43712265728e-08
2.37442959831e-05
-2.32089578901e-08
2.37734960912e-05
-3.76842532e-08
2.38209215361e-05
-6.12623502365e-08
2.38980262915e-05
-9.95053735123e-08
2.40256578632e-05
-1.64373709128e-07
2.42430454648e-05
-2.80584406195e-07
2.4629123321e-05
-5.04999503892e-07
2.53449998471e-05
-9.7360974953e-07
2.67084707592e-05
-2.02718908532e-06
2.92578479111e-05
-4.6082889123e-06
-1.0587181673e-05
3.21326322056e-05
5.35348592982e-05
1.23981920205e-05
5.30219242519e-05
1.78195252234e-05
4.9881607238e-05
1.56666915171e-05
4.62919341929e-05
1.19515975319e-05
4.31958193143e-05
8.47180171623e-06
4.0851208461e-05
5.72388561311e-06
3.92101873128e-05
3.72610499104e-06
3.81248126765e-05
2.34227822646e-06
3.74397685577e-05
1.41993882658e-06
3.70254974196e-05
8.27803353047e-07
3.67853061643e-05
4.61987769681e-07
3.66521214905e-05
2.44828279908e-07
3.65820048735e-05
1.21241533079e-07
3.65475443186e-05
5.41025275645e-08
3.65321896361e-05
1.95853306813e-08
3.65267343297e-05
3.03128409351e-09
3.65259627188e-05
-3.78240002058e-09
3.6527088163e-05
-5.85295124482e-09
3.65288139595e-05
-5.83462348817e-09
3.65305257292e-05
-4.9841226016e-09
3.65319850767e-05
-3.93556053982e-09
3.65331357685e-05
-2.96006141595e-09
3.65339998956e-05
-2.15274642692e-09
3.65346260496e-05
-1.52708751758e-09
3.65350658505e-05
-1.06266830181e-09
3.65353638189e-05
-7.29251368815e-10
3.65355650494e-05
-4.98051237766e-10
3.6535725886e-05
-3.46637797051e-10
3.65358304459e-05
-2.1809326337e-10
3.6535895631e-05
-1.29893126036e-10
3.65359360026e-05
-7.55382089738e-11
3.65359603272e-05
-4.08655124225e-11
3.65359735386e-05
-1.71937825758e-11
3.65359792171e-05
-1.33631607151e-12
3.6535979779e-05
9.2178482721e-12
3.65359767725e-05
1.63672415508e-11
3.65359711783e-05
2.13497263036e-11
3.65359635648e-05
2.50522892108e-11
3.65359542444e-05
2.81629882652e-11
3.65359433119e-05
3.12915016179e-11
3.65359306591e-05
3.48583746495e-11
3.6535916024e-05
3.90944956484e-11
3.65358991047e-05
4.40958283658e-11
3.65358796382e-05
4.99170854855e-11
3.65358573681e-05
5.66305995231e-11
3.65358318939e-05
6.44148646798e-11
3.65358024267e-05
7.38064575134e-11
3.65357683974e-05
8.46122754774e-11
3.65357293447e-05
9.69418675667e-11
3.65356848497e-05
1.11028162358e-10
3.65356346395e-05
1.26959070109e-10
3.65355786964e-05
1.4460584469e-10
3.65355173967e-05
1.63433765577e-10
3.65354517915e-05
1.82294401868e-10
3.65353841183e-05
1.99225860775e-10
3.65353186371e-05
2.10955788479e-10
3.65352630993e-05
2.11758651465e-10
3.65352313712e-05
1.91364711664e-10
3.65352469954e-05
1.32535810726e-10
3.65353467822e-05
9.94895502874e-12
3.65356047179e-05
-2.42104167324e-10
3.65361540166e-05
-7.32974143431e-10
3.65369773347e-05
-1.35502382022e-09
3.65383486833e-05
-2.44236959115e-09
3.6540714056e-05
-4.2271813335e-09
3.65446271004e-05
-7.10547260642e-09
3.65509815944e-05
-1.1711880664e-08
3.65612036163e-05
-1.90543298461e-08
3.65775787187e-05
-3.07460299893e-08
3.66037995052e-05
-4.94296799011e-08
3.66456541645e-05
-7.95389726777e-08
3.67123994515e-05
-1.28007694989e-07
3.68200137357e-05
-2.07119576062e-07
3.69950838614e-05
-3.39443572376e-07
3.72826818952e-05
-5.68181995913e-07
3.77578425171e-05
-9.80159644832e-07
3.85350551607e-05
-1.75082211405e-06
3.97386049756e-05
-3.23073886936e-06
4.12505004203e-05
-6.12018455358e-06
-1.12154323744e-05
4.18787497624e-05
5.35292942623e-05
8.8688972188e-06
5.56606657282e-05
1.568815311e-05
5.54633542457e-05
1.58640025816e-05
5.40305839615e-05
1.33843673998e-05
5.22615770075e-05
1.02408083414e-05
5.06461747104e-05
7.33928773596e-06
4.93705896199e-05
5.00169010034e-06
4.84505354813e-05
3.2623325355e-06
4.78290722778e-05
2.0414023654e-06
4.74309349996e-05
1.2259410623e-06
4.71873783989e-05
7.05544958006e-07
4.7044671015e-05
3.87536281786e-07
4.69646010697e-05
2.01312111144e-07
4.69217720564e-05
9.69321762028e-08
4.69001876892e-05
4.11701900786e-08
4.68901473436e-05
1.30720226929e-08
4.68860961038e-05
2.69072734421e-10
4.6885131544e-05
-4.88837089153e-09
4.68854631525e-05
-6.16636584016e-09
4.68862585741e-05
-5.77984005333e-09
4.68871239507e-05
-4.80138194478e-09
4.6887894992e-05
-3.7316101864e-09
4.68885207315e-05
-2.77899120204e-09
4.68890013483e-05
-2.00818975674e-09
4.68893572025e-05
-1.41893106643e-09
4.68896130092e-05
-9.85318380014e-10
4.68897883503e-05
-6.73526290361e-10
4.68898915093e-05
-4.49837204624e-10
4.68899615033e-05
-2.88003699798e-10
4.68899947149e-05
-1.62904891178e-10
4.68900234617e-05
-1.04007759052e-10
4.68900429273e-05
-5.99613702599e-11
4.68900545138e-05
-2.83038835659e-11
4.68900605828e-05
-6.85872285475e-12
4.6890062557e-05
7.81698670899e-12
4.68900613248e-05
1.81569072147e-11
4.68900574823e-05
2.56667214149e-11
4.68900514274e-05
3.14420641326e-11
4.68900434499e-05
3.63333639246e-11
4.68900335939e-05
4.12052414912e-11
4.68900217069e-05
4.66317460756e-11
4.68900075273e-05
5.29745478534e-11
4.68899907677e-05
6.04617029458e-11
4.68899711074e-05
6.92269712956e-11
4.6889948117e-05
7.93643881559e-11
4.68899212634e-05
9.10579278139e-11
4.68898901828e-05
1.04665266707e-10
4.6889854397e-05
1.20126109692e-10
4.68898133973e-05
1.37577586537e-10
4.68897668539e-05
1.571071439e-10
4.688971471e-05
1.78598633193e-10
4.68896572542e-05
2.01597406637e-10
4.68895952873e-05
2.2503270147e-10
4.68895304026e-05
2.46965117963e-10
4.68894654004e-05
2.64230555314e-10
4.68894048765e-05
2.71708656495e-10
4.68893558832e-05
2.61130083311e-10
4.6889328107e-05
2.19481424916e-10
4.68893346371e-05
1.26044677895e-10
4.68894000783e-05
-5.58530155915e-11
4.68895400546e-05
-3.82649197786e-10
4.68899257148e-05
-1.11917090159e-09
4.68908049239e-05
-2.23457342426e-09
4.68923485955e-05
-3.9860830071e-09
4.68949025578e-05
-6.78091204342e-09
4.68990439805e-05
-1.1246471275e-08
4.69056859662e-05
-1.83533684468e-08
4.69162646327e-05
-2.9632606665e-08
4.69330402494e-05
-4.75214569037e-08
4.69595544573e-05
-7.59438897474e-08
4.70012893762e-05
-1.2127407095e-07
4.7067155396e-05
-1.93873927966e-07
4.71712477968e-05
-3.11211993909e-07
4.73353039733e-05
-5.03499534716e-07
4.75913523638e-05
-8.24230173955e-07
4.79809420945e-05
-1.3697490546e-06
4.85400298195e-05
-2.30990947118e-06
4.92356411894e-05
-3.92635004954e-06
4.97620653343e-05
-6.64660848663e-06
-1.07299733954e-05
4.92766057689e-05
5.27478162536e-05
6.1210806302e-06
5.5788856528e-05
1.26471122114e-05
5.74588893075e-05
1.41939693505e-05
5.79001044342e-05
1.29431518164e-05
5.76159361374e-05
1.05249763731e-05
5.70373200229e-05
7.91790367152e-06
5.64285226066e-05
5.61048747678e-06
5.59118185853e-05
3.77903669194e-06
5.55218465924e-05
2.43137458181e-06
5.52498824744e-05
1.49790558376e-06
5.50712262957e-05
8.84201595438e-07
5.49594697054e-05
4.99293443094e-07
5.48924817646e-05
2.68300690614e-07
5.4853892852e-05
1.35521643958e-07
5.48325278724e-05
6.25357164892e-08
5.48211726367e-05
2.44276664493e-08
5.48155664281e-05
5.8755103234e-09
5.4812958045e-05
-2.27989713842e-09
5.48119610122e-05
-5.16946510933e-09
5.48117330725e-05
-5.55223510001e-09
5.4811839765e-05
-4.90853593631e-09
5.48120623946e-05
-3.95478726955e-09
5.48122982749e-05
-3.01544720742e-09
5.48125033402e-05
-2.21379043824e-09
5.48126640191e-05
-1.58002946626e-09
5.48127810447e-05
-1.10262869278e-09
5.48128624726e-05
-7.55133126048e-10
5.48129205118e-05
-5.07933101118e-10
5.48129656269e-05
-3.33027892704e-10
5.48130151175e-05
-2.12166141298e-10
5.48130447734e-05
-1.33298364011e-10
5.48130687591e-05
-8.34468175814e-11
5.48130824707e-05
-4.14151611663e-11
5.48130893473e-05
-1.30941224513e-11
5.48130919991e-05
5.80345392304e-12
5.48130915094e-05
1.92474237586e-11
5.48130885614e-05
2.9123523421e-11
5.48130835559e-05
3.68157645476e-11
5.48130766205e-05
4.34772041896e-11
5.4813067748e-05
5.01081921238e-11
5.48130568086e-05
5.74162639575e-11
5.48130436129e-05
6.58860921846e-11
5.48130279528e-05
7.58076280114e-11
5.48130096352e-05
8.72586035825e-11
5.48129886814e-05
1.00059865525e-10
5.48129660716e-05
1.13427240136e-10
5.48129375761e-05
1.32924003806e-10
5.48129036681e-05
1.53750297183e-10
5.4812864433e-05
1.7643198284e-10
5.48128195223e-05
2.01562284604e-10
5.48127688017e-05
2.28856219863e-10
5.48127124428e-05
2.57530913403e-10
5.48126510621e-05
2.86069399888e-10
5.48125859204e-05
3.11927316853e-10
5.48125192209e-05
3.30973243049e-10
5.48124546791e-05
3.36485504043e-10
5.48123986859e-05
3.17429459918e-10
5.48123643112e-05
2.54024770838e-10
5.48124034124e-05
8.68119954533e-11
5.48124939515e-05
-1.46779681384e-10
5.48127017218e-05
-5.90924583479e-10
5.48130982671e-05
-1.51619142547e-09
5.48137843932e-05
-2.92095173158e-09
5.48149624972e-05
-5.16412513143e-09
5.48169268134e-05
-8.74491464662e-09
5.48201157834e-05
-1.44349887275e-08
5.4825205901e-05
-2.34430409128e-08
5.48332458443e-05
-3.76722052999e-08
5.48458570033e-05
-6.01324090043e-08
5.48655265794e-05
-9.56134997635e-08
5.48960316122e-05
-1.51779340189e-07
5.49430892536e-05
-2.40931829496e-07
5.5014970703e-05
-3.83093520218e-07
5.51226655724e-05
-6.11194290724e-07
5.52780800557e-05
-9.79644522449e-07
5.5486081711e-05
-1.57775058141e-06
5.57217213653e-05
-2.54554915864e-06
5.58763262876e-05
-4.08095490257e-06
5.56463879916e-05
-6.41666987044e-06
-9.58839864803e-06
5.45048128321e-05
5.19869953861e-05
4.13408490002e-06
5.50731876315e-05
9.56091949842e-06
5.76745512142e-05
1.15926053229e-05
5.93967520273e-05
1.12209506651e-05
6.0348605802e-05
9.57312231668e-06
6.07771652693e-05
7.48934407937e-06
6.09072158182e-05
5.48043693455e-06
6.08936141694e-05
3.7926384251e-06
6.08267445519e-05
2.49824445675e-06
6.07521343603e-05
1.57251612153e-06
6.0688562362e-05
9.47774079996e-07
6.06408689027e-05
5.4698746977e-07
6.06077557594e-05
3.01414388651e-07
6.0585955362e-05
1.57322619772e-07
6.05721447092e-05
7.63468597577e-08
6.05636477493e-05
3.29250095586e-08
6.05585724366e-05
1.0951145019e-08
6.05555885358e-05
7.04133778856e-10
6.05538623577e-05
-3.44336790069e-09
6.05528903255e-05
-4.5804433534e-09
6.05523528427e-05
-4.37146018878e-09
6.05520628741e-05
-3.66532538584e-09
6.05519115614e-05
-2.86465220869e-09
6.05518374138e-05
-2.1401078453e-09
6.05518053269e-05
-1.54830346174e-09
6.05517955732e-05
-1.09313456942e-09
6.05517983717e-05
-7.58099967748e-10
6.05518080493e-05
-5.17667772825e-10
6.05518203804e-05
-3.45282975464e-10
6.05518309247e-05
-2.22496539526e-10
6.05518368941e-05
-1.38915235788e-10
6.05518347264e-05
-8.07993598586e-11
6.05518281158e-05
-3.42564523457e-11
6.05518255435e-05
-9.97434434941e-12
6.05518237279e-05
8.14039584192e-12
6.05518214739e-05
2.19810440112e-11
6.05518178613e-05
3.31363731124e-11
6.05518125008e-05
4.24631248872e-11
6.0551806196e-05
4.99332225787e-11
6.05517982868e-05
5.80259072305e-11
6.05517884633e-05
6.7139656001e-11
6.05517764964e-05
7.77014259459e-11
6.05517620791e-05
9.00438037792e-11
6.05517447281e-05
1.04382702295e-10
6.05517236256e-05
1.2089520601e-10
6.05516969515e-05
1.39832799171e-10
6.05516680983e-05
1.61513097135e-10
6.05516356783e-05
1.85865610387e-10
6.05515987458e-05
2.12997780841e-10
6.05515570384e-05
2.42866083612e-10
6.05515105006e-05
2.74963317863e-10
6.05514593969e-05
3.08191688922e-10
6.05514044914e-05
3.40628508465e-10
6.05513472292e-05
3.6907956705e-10
6.05512899492e-05
3.88396964669e-10
6.05512360222e-05
3.90684527548e-10
6.05511890936e-05
3.64557119783e-10
6.0551147438e-05
2.95658333801e-10
6.05510606413e-05
1.73384346116e-10
6.05510013497e-05
-8.78662753295e-11
6.05510955449e-05
-6.85630271955e-10
6.05512447189e-05
-1.66582002375e-09
6.05515508652e-05
-3.22726717011e-09
6.05520995325e-05
-5.71266345018e-09
6.05530164993e-05
-9.661550328e-09
6.05544873686e-05
-1.59054105173e-08
6.05567874246e-05
-2.57426319161e-08
6.05603223019e-05
-4.1206729742e-08
6.05656792431e-05
-6.54893368695e-08
6.05736783888e-05
-1.03612934035e-07
6.05853911827e-05
-1.63492372851e-07
6.06020504763e-05
-2.57591191101e-07
6.06245358063e-05
-4.05578877858e-07
6.06517575427e-05
-6.38416117727e-07
6.06764229584e-05
-1.00430988678e-06
6.06750456136e-05
-1.57637314638e-06
6.05877642633e-05
-2.45826787675e-06
6.02839183239e-05
-3.77710905088e-06
5.95152878248e-05
-5.64803907829e-06
-8.03087124182e-06
5.79577602426e-05
5.14316964271e-05
2.70238803204e-06
5.42349780036e-05
6.75763742952e-06
5.71664758632e-05
8.66110697413e-06
5.9624184491e-05
8.76324160247e-06
6.14436244015e-05
7.75368214962e-06
6.26807971438e-05
6.2521711468e-06
6.3468974453e-05
4.69225954999e-06
6.39438031794e-05
3.31780974543e-06
6.42150109638e-05
2.2270368017e-06
6.43614803485e-05
1.42604706861e-06
6.44355494494e-05
8.73705403628e-07
6.4469793282e-05
5.12744102899e-07
6.44833780892e-05
2.87830130569e-07
6.44869953895e-05
1.53705845489e-07
6.44862915681e-05
7.70511444877e-08
6.44840733933e-05
3.51436602733e-08
6.4481634745e-05
1.33901621899e-08
6.4479487274e-05
2.85179429554e-09
6.4477758547e-05
-1.71462089799e-09
6.44764577691e-05
-3.27988165021e-09
6.44755094357e-05
-3.42353998428e-09
6.44748355313e-05
-2.99191483338e-09
6.44743659635e-05
-2.3956005268e-09
6.44740444118e-05
-1.81902906665e-09
6.44738277412e-05
-1.3320069507e-09
6.4473683802e-05
-9.49465385762e-10
6.44735880982e-05
-6.62549162334e-10
6.44735237071e-05
-4.53263231734e-10
6.44734807045e-05
-3.02087346451e-10
6.44734515216e-05
-1.92970039598e-10
6.44734312731e-05
-1.18189171449e-10
6.44734183965e-05
-6.73475385493e-11
6.44734173296e-05
-3.25896319183e-11
6.44734180552e-05
-1.01209124677e-11
6.44734181336e-05
8.60239462681e-12
6.44734161452e-05
2.44305310905e-11
6.44734134141e-05
3.62063825748e-11
6.44734102695e-05
4.58133876218e-11
6.44734054655e-05
5.48272586895e-11
6.44733991985e-05
6.4301935188e-11
6.44733913226e-05
7.49768360675e-11
6.44733815661e-05
8.73769266647e-11
6.44733695861e-05
1.01878672759e-10
6.44733549929e-05
1.18759714736e-10
6.44733373568e-05
1.38281500768e-10
6.44733161825e-05
1.6075924238e-10
6.44732910381e-05
1.86393183303e-10
6.44732635355e-05
2.13056578361e-10
6.44732324338e-05
2.43748754019e-10
6.44731964856e-05
2.78425500716e-10
6.44731553246e-05
3.15676824099e-10
6.44731087402e-05
3.54326556119e-10
6.44730565871e-05
3.92471421874e-10
6.44729986796e-05
4.26909835864e-10
6.44729347334e-05
4.52476091435e-10
6.44728643704e-05
4.61246692719e-10
6.44727876801e-05
4.41321094001e-10
6.44727084358e-05
3.74795711475e-10
6.44726429361e-05
2.38634589382e-10
6.44725448567e-05
9.80615168399e-12
6.44724152849e-05
-5.56538148247e-10
6.44722515679e-05
-1.50244707795e-09
6.4472043376e-05
-3.019181909e-09
6.44717583432e-05
-5.4275038395e-09
6.44713367031e-05
-9.2395747387e-09
6.44706641734e-05
-1.52324050804e-08
6.44695410613e-05
-2.46190199537e-08
6.44676216234e-05
-3.92869775989e-08
6.44643047972e-05
-6.21724597315e-08
6.44585348184e-05
-9.78430950417e-08
6.44484327493e-05
-1.5339057995e-07
6.44306129471e-05
-2.39771731712e-07
6.43988457225e-05
-3.73811841782e-07
6.43414530678e-05
-5.81023441719e-07
6.42363483513e-05
-8.99205251479e-07
6.4042015302e-05
-1.38204025437e-06
6.36831095529e-05
-2.0993621563e-06
6.30325319093e-05
-3.12653141839e-06
6.1899073144e-05
-4.51458017137e-06
-6.20946388503e-06
6.00776657482e-05
5.10721874635e-05
1.6302003364e-06
5.35426981448e-05
4.2871263012e-06
5.65007989674e-05
5.70300576517e-06
5.93145028295e-05
5.94953751958e-06
6.16675641088e-05
5.40062061525e-06
6.34701679467e-05
4.44956718066e-06
6.47616517472e-05
3.4007756654e-06
6.56369461379e-05
2.44251533041e-06
6.6201768829e-05
1.66221424077e-06
6.65500494395e-05
1.07776668672e-06
6.67555507362e-05
6.68204422246e-07
6.68714551058e-05
3.96840165329e-07
6.69336365692e-05
2.25649122532e-07
6.69649880666e-05
1.22354780494e-07
6.69794293673e-05
6.26103135267e-08
6.69850619005e-05
2.95115652037e-08
6.69864091088e-05
1.20432615507e-08
6.69858827363e-05
3.37832373555e-09
6.69846890416e-05
-5.21012355967e-10
6.69834132911e-05
-2.00447492468e-09
6.69822857091e-05
-2.2964317759e-09
6.69813774482e-05
-2.08419504736e-09
6.69806849094e-05
-1.70362864073e-09
6.69801760252e-05
-1.31064165974e-09
6.69798120344e-05
-9.68407201947e-10
6.69795568769e-05
-6.9459242563e-10
6.69793805512e-05
-4.86333540972e-10
6.69792601854e-05
-3.32782237986e-10
6.69791797997e-05
-2.21399086474e-10
6.69791290227e-05
-1.41749277317e-10
6.69790982661e-05
-8.68831815319e-11
6.69790800647e-05
-4.85607835391e-11
6.69790670024e-05
-1.89591645467e-11
6.69790533006e-05
4.12334623495e-12
6.69790453635e-05
1.70301355179e-11
6.69790414365e-05
2.87420705343e-11
6.69790387057e-05
3.9192981058e-11
6.69790357995e-05
4.88807510574e-11
6.69790322117e-05
5.85312412611e-11
6.69790276388e-05
6.89612689318e-11
6.69790218638e-05
8.07871886635e-11
6.69790146957e-05
9.44990636242e-11
6.69790059437e-05
1.10492173381e-10
6.69789954181e-05
1.29085102241e-10
6.69789829374e-05
1.50554782354e-10
6.69789683627e-05
1.7513322534e-10
6.69789514895e-05
2.03039211557e-10
6.69789300393e-05
2.34226483232e-10
6.69789043113e-05
2.69128237451e-10
6.69788745962e-05
3.0771212889e-10
6.69788404527e-05
3.49364957793e-10
6.6978801354e-05
3.93056267222e-10
6.6978756556e-05
4.37051056414e-10
6.69787049735e-05
4.78429560523e-10
6.6978644973e-05
5.12535529671e-10
6.69785739934e-05
5.32288146215e-10
6.69784879547e-05
5.27313869405e-10
6.6978379778e-05
4.82797260227e-10
6.6978240311e-05
3.77778327705e-10
6.69780595692e-05
1.90101971584e-10
6.69777252048e-05
-2.2260908275e-10
6.69772742472e-05
-1.05178402968e-09
6.69765693887e-05
-2.31438633416e-09
6.69754674629e-05
-4.32535748634e-09
6.69737295814e-05
-7.50126409551e-09
6.69709504424e-05
-1.24527486089e-08
6.69664759157e-05
-2.01440534421e-08
6.69592499109e-05
-3.206076889e-08
6.69475638267e-05
-5.04864392927e-08
6.69286486824e-05
-7.89282119948e-08
6.68980071099e-05
-1.22749253183e-07
6.6848318838e-05
-1.90083738346e-07
6.67676281618e-05
-2.93121353291e-07
6.66363748379e-05
-4.49770138577e-07
6.64226597738e-05
-6.85490221141e-07
6.60751511154e-05
-1.0345315514e-06
6.55140913902e-05
-1.53830251384e-06
6.46240687092e-05
-2.23650874444e-06
6.32571576542e-05
-3.1476689306e-06
-4.22775708468e-06
6.12754508436e-05
5.08628279378e-05
7.67372102682e-07
5.30747153903e-05
2.07523852726e-06
5.59575389353e-05
2.8201819353e-06
5.89117066497e-05
2.99536953669e-06
6.15516613056e-05
2.76066579048e-06
6.36971785687e-05
2.30404974012e-06
6.53175145539e-05
1.78043952111e-06
6.64690811605e-05
1.29094867254e-06
6.72453708013e-05
8.85924623544e-07
6.77443200507e-05
5.78817598699e-07
6.80510725868e-05
3.61452168701e-07
6.82317097765e-05
2.16203304184e-07
6.83334853381e-05
1.23873899077e-07
6.83880770426e-05
6.77634601544e-08
6.84156120073e-05
3.50757715664e-08
6.84282994207e-05
1.6824528778e-08
6.84332423641e-05
7.10060929861e-09
6.84344065683e-05
2.21422884525e-09
6.84339140671e-05
-2.86655801073e-11
6.84328335797e-05
-9.24329379657e-10
6.84316778387e-05
-1.14116887177e-09
6.84306567487e-05
-1.06372500986e-09
6.84298338415e-05
-8.81382319412e-10
6.84292059579e-05
-6.83365653349e-10
6.84287442194e-05
-5.07202009125e-10
6.8428413665e-05
-3.64418937254e-10
6.8428181973e-05
-2.54773291919e-10
6.84280225524e-05
-1.73256824294e-10
6.84279150937e-05
-1.13652244383e-10
6.84278442676e-05
-7.04748523512e-11
6.84277974519e-05
-3.95146382771e-11
6.84277662582e-05
-1.67897185388e-11
6.84277471871e-05
6.74241918991e-13
6.84277374603e-05
1.43727158024e-11
6.84277300547e-05
2.48638566637e-11
6.84277254735e-05
3.36170931276e-11
6.84277224058e-05
4.24518625251e-11
6.84277199949e-05
5.14502982085e-11
6.84277175915e-05
6.10881535774e-11
6.84277147744e-05
7.1902624366e-11
6.84277112509e-05
8.43769656148e-11
6.84277067916e-05
9.8948996112e-11
6.84277012064e-05
1.15992639437e-10
6.84276943184e-05
1.3584156842e-10
6.84276859174e-05
1.58805632862e-10
6.84276757272e-05
1.85151010401e-10
6.84276634453e-05
2.15110014583e-10
6.84276486116e-05
2.48786905841e-10
6.84276308265e-05
2.86539040778e-10
6.84276096614e-05
3.28412650127e-10
6.84275845478e-05
3.74024467888e-10
6.8427554623e-05
4.2263243221e-10
6.84275185342e-05
4.72930990797e-10
6.84274741549e-05
5.22745246749e-10
6.84274180642e-05
5.68638643839e-10
6.84273449821e-05
6.05340704562e-10
6.84272472675e-05
6.24911887687e-10
6.84271142533e-05
6.15595843809e-10
6.84269316997e-05
5.59982723778e-10
6.84266909589e-05
4.3039095734e-10
6.84262708364e-05
1.97081697389e-10
6.84255206577e-05
-3.01882347847e-10
6.84244148608e-05
-1.2086032392e-09
6.84226548573e-05
-2.56511086777e-09
6.84198507369e-05
-4.69671928911e-09
6.84153718742e-05
-7.9733637718e-09
6.84082093364e-05
-1.29810742817e-08
6.839675513e-05
-2.06062628675e-08
6.83784523455e-05
-3.2183508002e-08
6.83492440983e-05
-4.97200066461e-08
6.83027127149e-05
-7.62180220516e-08
6.82287509586e-05
-1.16121969712e-07
6.81115361551e-05
-1.75906615966e-07
6.79265306876e-05
-2.64764807035e-07
6.76362627432e-05
-3.95222458495e-07
6.71849573729e-05
-5.83226131555e-07
6.64932434462e-05
-8.46588625265e-07
6.5456698141e-05
-1.19996335775e-06
6.39548481418e-05
-1.64581876845e-06
-2.1579246073e-06
6.18850156606e-05
5.07673223669e-05
4.95610023702e-11
5.28425137161e-05
4.68995336541e-11
5.56626737258e-05
2.17209001624e-11
5.86580357995e-05
7.31872414533e-12
6.1418702678e-05
-1.27154059401e-12
6.37227569284e-05
-4.7073168103e-12
6.55032002669e-05
-3.9922517347e-12
6.67941495544e-05
-7.51360852387e-13
6.76800705345e-05
3.65322808206e-12
6.82588813931e-05
6.87110733294e-12
6.8620325498e-05
8.26856681648e-12
6.88365214055e-05
7.66543049534e-12
6.89603903195e-05
5.29794244709e-12
6.90281525069e-05
1.65805337895e-12
6.906323117e-05
-2.45063203176e-12
6.90800622372e-05
-6.09255579347e-12
6.90871714048e-05
-8.19538370798e-12
6.90893946389e-05
-8.85168390723e-12
6.90893736795e-05
-7.74559267947e-12
6.90884567696e-05
-7.60546323988e-12
6.90873212762e-05
-6.06093684127e-12
6.90862610878e-05
-4.07420530876e-12
6.90853810526e-05
-1.92315113063e-12
6.90846968527e-05
2.65249836605e-13
6.90841871907e-05
1.98361757389e-12
6.90838188939e-05
3.63415359403e-12
6.90835589452e-05
5.19798839385e-12
6.90833790264e-05
6.8920652465e-12
6.90832567697e-05
9.010352951e-12
6.90831752241e-05
1.16200368983e-11
6.90831217565e-05
1.4569841022e-11
6.90830874922e-05
1.80925379929e-11
6.90830662896e-05
2.24570399172e-11
6.90830537957e-05
2.73537746276e-11
6.90830465388e-05
3.24594357131e-11
6.90830421468e-05
3.82167519927e-11
6.90830398009e-05
4.49520602844e-11
6.90830385998e-05
5.27962047247e-11
6.90830378702e-05
6.19407770165e-11
6.9083037188e-05
7.26801430048e-11
6.90830362737e-05
8.53680414469e-11
6.90830349236e-05
1.00349334807e-10
6.90830329892e-05
1.179394112e-10
6.90830303479e-05
1.38458322203e-10
6.90830268607e-05
1.62220753315e-10
6.90830223465e-05
1.89524480706e-10
6.90830165654e-05
2.20677209807e-10
6.90830091298e-05
2.55933424772e-10
6.90829996861e-05
2.95610472002e-10
6.90829878313e-05
3.3983548827e-10
6.90829729187e-05
3.88500983041e-10
6.90829539146e-05
4.41264658827e-10
6.90829291915e-05
4.97430615357e-10
6.90828960585e-05
5.55806315731e-10
6.90828501014e-05
6.1454519274e-10
6.90827844527e-05
6.70868345867e-10
6.90826885835e-05
7.20602843121e-10
6.9082546355e-05
7.57557171765e-10
6.90823332045e-05
7.72726744194e-10
6.90820123979e-05
7.50730609489e-10
6.90815513704e-05
6.57711363438e-10
6.90807834164e-05
4.65858294653e-10
6.90793949704e-05
1.79873332282e-10
6.90771585874e-05
-3.28445357969e-10
6.90737172803e-05
-1.25488884064e-09
6.90682255739e-05
-2.48112038624e-09
6.90594652691e-05
-4.22034322642e-09
6.90455153248e-05
-6.65602971112e-09
6.90233464247e-05
-1.00144764519e-08
6.89881992893e-05
-1.45729120857e-08
6.89326364636e-05
-2.06552968275e-08
6.88451199466e-05
-2.86054309269e-08
6.87079314204e-05
-3.87180632068e-08
6.84942521496e-05
-5.10855564334e-08
6.81643386964e-05
-6.53091722929e-08
6.76611390248e-05
-8.00265666773e-08
6.69067721629e-05
-9.22217357145e-08
6.58033172146e-05
-9.65083235985e-08
6.42432837232e-05
-8.57852705541e-08
-5.20316588521e-08
6.2137390793e-05
5.07673211609e-05
-7.6727178291e-07
5.2842512501e-05
-2.07514451231e-06
5.56626737298e-05