/*--------------------------------*- C++ -*----------------------------------*\
| =========                 |                                                 |
| \\      /  F ield         | OpenFOAM: The Open Source CFD Toolbox           |
|  \\    /   O peration     | Version:  2106                                  |
|   \\  /    A nd           | Website:  www.openfoam.com                      |
|    \\/     M anipulation  |                                                 |
\*---------------------------------------------------------------------------*/
FoamFile
{
    version     2.0;
    format      ascii;
    arch        "LSB;label=32;scalar=64";
    class       volVectorField;
    location    "0.19";
    object      U;
}
// * * * * * * * * * * * * * * * * * * * * * * * * * * * * * * * * * * * * * //

dimensions      [0 1 -1 0 0 0 0];

internalField   nonuniform List<vector> 
9600
(
(0.675396181964 0.157677435422 0)
(0.563826159982 0.102430805839 0)
(0.381538935597 0.0510646932272 0)
(0.28385319491 0.0244589889142 0)
(0.232281034311 0.0119348231085 0)
(0.201907715071 0.00623035794184 0)
(0.183178412996 0.00352192614534 0)
(0.171271991712 0.00212007504677 0)
(0.163512247155 0.00132523528442 0)
(0.158392668165 0.000841455951318 0)
(0.155010707629 0.000534135444665 0)
(0.152789991622 0.000335039336743 0)
(0.1513487058 0.00020552109682 0)
(0.150429259381 0.000121792341698 0)
(0.149856472589 6.8434161813e-05 0)
(0.149511135975 3.51732912518e-05 0)
(0.149312526305 1.50864527998e-05 0)
(0.149206476205 3.50347295607e-06 0)
(0.149157095724 -2.70720559179e-06 0)
(0.149140986413 -5.61174452781e-06 0)
(0.149143270411 -6.5274247044e-06 0)
(0.149154667798 -6.41817745305e-06 0)
(0.149169607861 -5.7821833074e-06 0)
(0.149184980303 -4.92827022004e-06 0)
(0.149199151384 -4.04269958793e-06 0)
(0.14921140014 -3.22399451681e-06 0)
(0.149221538546 -2.51543664088e-06 0)
(0.149229666977 -1.92866325941e-06 0)
(0.149236022654 -1.45848317486e-06 0)
(0.149240889888 -1.09160456642e-06 0)
(0.149244550546 -8.1159077902e-07 0)
(0.149247259638 -6.02007053026e-07 0)
(0.149249234911 -4.47788097515e-07 0)
(0.149250654966 -3.36060561307e-07 0)
(0.149251662107 -2.56364921874e-07 0)
(0.149252366401 -2.00047403596e-07 0)
(0.149252851469 -1.6005904311e-07 0)
(0.149253180659 -1.31474967009e-07 0)
(0.149253400734 -1.10878955429e-07 0)
(0.149253544722 -9.51874389571e-08 0)
(0.149253636929 -8.2672261841e-08 0)
(0.149253695112 -7.38423713584e-08 0)
(0.149253730299 -6.97796380684e-08 0)
(0.14925374948 -7.0395627681e-08 0)
(0.149253758321 -7.34987131633e-08 0)
(0.149253760468 -7.77440167984e-08 0)
(0.14925375856 -8.31498092587e-08 0)
(0.149253755342 -9.08569143494e-08 0)
(0.149253751069 -9.97815998129e-08 0)
(0.149253745692 -1.08850395809e-07 0)
(0.14925374099 -1.18331394411e-07 0)
(0.149253737284 -1.28401308997e-07 0)
(0.149253733819 -1.38908326669e-07 0)
(0.149253730921 -1.50136505429e-07 0)
(0.149253728407 -1.6200639604e-07 0)
(0.149253725995 -1.74464323489e-07 0)
(0.149253724304 -1.87955232205e-07 0)
(0.149253722717 -2.0219285076e-07 0)
(0.149253720347 -2.16871105224e-07 0)
(0.149253717726 -2.32712646167e-07 0)
(0.149253714358 -2.49839119144e-07 0)
(0.149253709405 -2.67821079843e-07 0)
(0.14925370426 -2.87217748117e-07 0)
(0.149253699714 -3.0825589984e-07 0)
(0.149253694549 -3.29983433786e-07 0)
(0.149253689225 -3.52616773195e-07 0)
(0.149253684989 -3.77295058459e-07 0)
(0.149253680283 -4.03597235016e-07 0)
(0.149253673736 -4.30867498122e-07 0)
(0.14925366664 -4.59964342085e-07 0)
(0.149253659733 -4.91446906067e-07 0)
(0.149253652798 -5.2487714201e-07 0)
(0.149253646215 -5.59803842708e-07 0)
(0.149253639937 -5.95872435204e-07 0)
(0.149253634284 -6.33822010765e-07 0)
(0.14925362936 -6.74666780109e-07 0)
(0.14925362296 -7.17469755007e-07 0)
(0.149253614758 -7.617139791e-07 0)
(0.149253607581 -8.08916998009e-07 0)
(0.14925360147 -8.59104085245e-07 0)
(0.149253594965 -9.1090312912e-07 0)
(0.149253589272 -9.64684052678e-07 0)
(0.149253584658 -1.02130643581e-06 0)
(0.14925357954 -1.0807049785e-06 0)
(0.149253574042 -1.14287353002e-06 0)
(0.149253569283 -1.20788266638e-06 0)
(0.149253565372 -1.27540916778e-06 0)
(0.149253561671 -1.34511377892e-06 0)
(0.149253557708 -1.41742888472e-06 0)
(0.149253553338 -1.49321839966e-06 0)
(0.149253548574 -1.57249245595e-06 0)
(0.149253543963 -1.65453022986e-06 0)
(0.149253540414 -1.73910492199e-06 0)
(0.149253538361 -1.82658748982e-06 0)
(0.149253537767 -1.91734205174e-06 0)
(0.149253538238 -2.01112310497e-06 0)
(0.149253539826 -2.10748804304e-06 0)
(0.149253543664 -2.20650917491e-06 0)
(0.149253550068 -2.30764218692e-06 0)
(0.1492535596 -2.4104326208e-06 0)
(0.149253573888 -2.51528857734e-06 0)
(0.149253593052 -2.62178317048e-06 0)
(0.149253618445 -2.7299437388e-06 0)
(0.149253653593 -2.84100950747e-06 0)
(0.149253699295 -2.95428836352e-06 0)
(0.149253757128 -3.068921546e-06 0)
(0.149253832852 -3.18653213388e-06 0)
(0.149253929768 -3.30744458487e-06 0)
(0.149254050249 -3.43160323598e-06 0)
(0.149254201197 -3.56384646807e-06 0)
(0.14925439133 -3.71233721555e-06 0)
(0.149254628992 -3.87449863012e-06 0)
(0.149254925575 -4.04700684248e-06 0)
(0.149255295012 -4.22901836066e-06 0)
(0.149255753946 -4.42083304613e-06 0)
(0.149256325532 -4.62478922595e-06 0)
(0.149257034425 -4.84102385337e-06 0)
(0.149257910163 -5.06910855959e-06 0)
(0.149258996689 -5.31269376557e-06 0)
(0.149260346016 -5.57482901579e-06 0)
(0.149262016065 -5.85544301781e-06 0)
(0.149264082675 -6.15804251834e-06 0)
(0.149266646785 -6.4941985791e-06 0)
(0.149269844292 -6.89459019842e-06 0)
(0.149273831193 -7.44118540182e-06 0)
(0.149278750859 -8.1940459905e-06 0)
(0.149284807499 -9.09392217008e-06 0)
(0.149292297172 -1.01158229467e-05 0)
(0.149301571012 -1.12634863108e-05 0)
(0.149313056071 -1.25509086512e-05 0)
(0.149327281292 -1.39991768903e-05 0)
(0.149344900272 -1.56355679048e-05 0)
(0.149366722442 -1.74943040327e-05 0)
(0.149393752746 -1.96181857874e-05 0)
(0.149427237423 -2.20604486967e-05 0)
(0.149468725053 -2.48898682596e-05 0)
(0.149520139859 -2.81925524496e-05 0)
(0.149583873772 -3.20764047233e-05 0)
(0.149662901539 -3.66786893422e-05 0)
(0.149760926511 -4.21724472875e-05 0)
(0.149882573014 -4.87772718302e-05 0)
(0.150033626438 -5.67748684269e-05 0)
(0.150221333871 -6.65253020218e-05 0)
(0.150454796163 -7.84867909975e-05 0)
(0.150745494645 -9.32509449513e-05 0)
(0.151107974973 -0.000111583581261 0)
(0.151560761722 -0.000134483264489 0)
(0.152127605854 -0.000163260511442 0)
(0.152839203342 -0.000199642312245 0)
(0.153735649928 -0.000245932651963 0)
(0.154870005762 -0.000305241268885 0)
(0.156313768869 -0.000381913446698 0)
(0.158166129909 -0.000482750084902 0)
(0.160572459108 -0.00062144096699 0)
(0.163768229535 -0.000835690386274 0)
(0.168189334893 -0.0012506003203 0)
(0.174812280315 -0.00231057959608 0)
(0.186546746554 -0.00567554947314 0)
(0.212279243652 -0.0176798511779 0)
(0.269125785021 -0.0619888445757 0)
(0.977201172365 0.296997121763 0)
(0.962687463259 0.250387271567 0)
(0.82064603661 0.158581012184 0)
(0.697824902152 0.0957993463582 0)
(0.610491672591 0.0579132764816 0)
(0.549133320041 0.0359038516349 0)
(0.506705991713 0.0229309354316 0)
(0.47766202651 0.0149788783454 0)
(0.457815306868 0.00990973144131 0)
(0.444277685159 0.00658330892764 0)
(0.435087237904 0.00436198713472 0)
(0.428895569109 0.00286682712408 0)
(0.424768052743 0.00185972101834 0)
(0.422054244145 0.00118457289926 0)
(0.420301062609 0.000736110903623 0)
(0.419193689495 0.000442158954818 0)
(0.418514620302 0.000252859156222 0)
(0.418114844526 0.000133738077396 0)
(0.417893386507 6.10512873386e-05 0)
(0.417782744039 1.85767082595e-05 0)
(0.417738486639 -4.6351528455e-06 0)
(0.417731949839 -1.60108336003e-05 0)
(0.417745166696 -2.03071683931e-05 0)
(0.417767190658 -2.06099422381e-05 0)
(0.417791640143 -1.88566609757e-05 0)
(0.417815054839 -1.62224291639e-05 0)
(0.417835775278 -1.33853200166e-05 0)
(0.417853208858 -1.07079097185e-05 0)
(0.417867359495 -8.35949356998e-06 0)
(0.417878533417 -6.39577933166e-06 0)
(0.417887161571 -4.80928163798e-06 0)
(0.417893698636 -3.56124850596e-06 0)
(0.417898569204 -2.60038612062e-06 0)
(0.417902143046 -1.87379041018e-06 0)
(0.417904728449 -1.33319941319e-06 0)
(0.417906573504 -9.36823331125e-07 0)
(0.417907871933 -6.49451938769e-07 0)
(0.417908772738 -4.43371201497e-07 0)
(0.417909389227 -2.97821450987e-07 0)
(0.417909804406 -1.96162375545e-07 0)
(0.417910077839 -1.25891974114e-07 0)
(0.417910253043 -7.9215832417e-08 0)
(0.417910361162 -5.04663886275e-08 0)
(0.417910424925 -3.45946891271e-08 0)
(0.41791046063 -2.69639247707e-08 0)
(0.417910477381 -2.3665684373e-08 0)
(0.41791048057 -2.18122757208e-08 0)
(0.417910477021 -2.0723965197e-08 0)
(0.417910470942 -2.05483861135e-08 0)
(0.417910462556 -2.02438074224e-08 0)
(0.417910453379 -2.036264513e-08 0)
(0.417910444484 -2.12366040003e-08 0)
(0.417910435288 -2.24066054575e-08 0)
(0.417910426268 -2.41680017999e-08 0)
(0.41791041767 -2.63854842409e-08 0)
(0.417910408825 -2.84528860065e-08 0)
(0.417910400507 -3.09682317853e-08 0)
(0.417910392656 -3.38571240602e-08 0)
(0.41791038353 -3.62946374486e-08 0)
(0.41791037338 -3.92101277164e-08 0)
(0.417910362757 -4.30701829013e-08 0)
(0.417910350379 -4.65023060728e-08 0)
(0.417910336964 -4.97403034451e-08 0)
(0.417910324606 -5.39496047716e-08 0)
(0.417910312079 -5.77786699947e-08 0)
(0.417910297941 -6.06667958298e-08 0)
(0.417910283923 -6.46971408347e-08 0)
(0.417910269969 -6.9920005426e-08 0)
(0.417910253666 -7.44848004154e-08 0)
(0.417910235474 -7.88483911933e-08 0)
(0.417910217189 -8.40587831456e-08 0)
(0.417910199082 -8.97893357858e-08 0)
(0.417910181405 -9.562238369e-08 0)
(0.417910163353 -1.00614845097e-07 0)
(0.417910144122 -1.05161209369e-07 0)
(0.417910125179 -1.11480513639e-07 0)
(0.417910105762 -1.18694969364e-07 0)
(0.417910083568 -1.24673737757e-07 0)
(0.417910060828 -1.31141125437e-07 0)
(0.417910039888 -1.39067877999e-07 0)
(0.417910019042 -1.46349411822e-07 0)
(0.417909997803 -1.53099566399e-07 0)
(0.417909976843 -1.60902808949e-07 0)
(0.417909955139 -1.69605198968e-07 0)
(0.417909932745 -1.78757430284e-07 0)
(0.417909911299 -1.88438753976e-07 0)
(0.417909891305 -1.98422633901e-07 0)
(0.417909871573 -2.08267831049e-07 0)
(0.417909851041 -2.1826776913e-07 0)
(0.417909830161 -2.29397624186e-07 0)
(0.417909810157 -2.4185948476e-07 0)
(0.417909791686 -2.54799987364e-07 0)
(0.417909774912 -2.67769914555e-07 0)
(0.417909760402 -2.81344589984e-07 0)
(0.417909749486 -2.96548813895e-07 0)
(0.41790974282 -3.13413709585e-07 0)
(0.41790974028 -3.31296496851e-07 0)
(0.417909743746 -3.50957891613e-07 0)
(0.417909755174 -3.7319872404e-07 0)
(0.417909775789 -3.99398736583e-07 0)
(0.417909808806 -4.31048598994e-07 0)
(0.417909856371 -4.67431818016e-07 0)
(0.41790992029 -5.0745917529e-07 0)
(0.417910007057 -5.52994386484e-07 0)
(0.417910122678 -6.04109918661e-07 0)
(0.417910271231 -6.5936906763e-07 0)
(0.417910462536 -7.21788132835e-07 0)
(0.417910707283 -7.93209022021e-07 0)
(0.417911011772 -8.71060584096e-07 0)
(0.417911385437 -9.52953359742e-07 0)
(0.417911855384 -1.03284339873e-06 0)
(0.417912454074 -1.11551957425e-06 0)
(0.417913209568 -1.2096982317e-06 0)
(0.417914155317 -1.32109616543e-06 0)
(0.417915332699 -1.45357371646e-06 0)
(0.417916798917 -1.61571974205e-06 0)
(0.41791862325 -1.81583183864e-06 0)
(0.417920884816 -2.05961257028e-06 0)
(0.417923689441 -2.360224079e-06 0)
(0.417927172414 -2.73620838939e-06 0)
(0.417931490999 -3.2039707819e-06 0)
(0.417936836353 -3.78526753225e-06 0)
(0.41794344714 -4.51480379754e-06 0)
(0.417951607986 -5.44637001636e-06 0)
(0.417961689819 -6.68038031628e-06 0)
(0.41797420912 -8.31932538512e-06 0)
(0.41798977849 -1.03948909277e-05 0)
(0.418009098935 -1.29773954961e-05 0)
(0.418033050664 -1.61758731422e-05 0)
(0.418062734075 -2.01304264185e-05 0)
(0.418099515304 -2.50183328449e-05 0)
(0.41814508686 -3.10601407446e-05 0)
(0.418201546861 -3.85278241256e-05 0)
(0.418271498643 -4.77579759851e-05 0)
(0.41835816937 -5.91669362075e-05 0)
(0.418465566356 -7.32733555696e-05 0)
(0.418598669033 -9.07223680037e-05 0)
(0.418763665862 -0.000112319521119 0)
(0.418968255889 -0.000139074244456 0)
(0.419222027067 -0.000172249792829 0)
(0.419536940905 -0.000213434171947 0)
(0.419927952623 -0.000264638215909 0)
(0.420413801835 -0.000328419402819 0)
(0.421018026762 -0.000408039442676 0)
(0.421770311458 -0.00050769564267 0)
(0.422708263627 -0.000632835553544 0)
(0.423879799909 -0.000790606785229 0)
(0.42534642669 -0.000990514251785 0)
(0.427187828267 -0.00124539806354 0)
(0.429508551474 -0.00157301891099 0)
(0.432448104106 -0.00199874474693 0)
(0.43619700248 -0.00256056958009 0)
(0.441024005204 -0.00331975423114 0)
(0.447326175763 -0.00438635788981 0)
(0.455727633163 -0.00598700791034 0)
(0.467268769453 -0.00865223074638 0)
(0.483761871449 -0.0137366290455 0)
(0.508697213886 -0.0249220182084 0)
(0.548895635506 -0.0525202746996 0)
(0.608877427146 -0.121694561656 0)
(1.0338703881 0.239240962454 0)
(1.08314081844 0.293634381647 0)
(1.03294437958 0.239131935489 0)
(0.954408213502 0.174539017785 0)
(0.880112589228 0.121551462717 0)
(0.818677619402 0.0832335934658 0)
(0.771466796759 0.0568258116571 0)
(0.736691576784 0.0388125726426 0)
(0.711672104681 0.0264913183223 0)
(0.693953134085 0.0180235770703 0)
(0.681568208803 0.012187621046 0)
(0.673018609147 0.00816650443707 0)
(0.667192241728 0.0054055664675 0)
(0.663277759603 0.00352226299928 0)
(0.660690321993 0.00224961170242 0)
(0.659012747503 0.00140002745754 0)
(0.657950539776 0.000841455421437 0)
(0.65729808614 0.000481122606651 0)
(0.656913542428 0.000254193902335 0)
(0.656700351974 0.000115710748104 0)
(0.65659374446 3.47965730894e-05 0)
(0.656551031473 -9.46485952319e-06 0)
(0.656544689349 -3.10094263278e-05 0)
(0.656557387799 -3.90738309995e-05 0)
(0.656578571365 -3.95467498684e-05 0)
(0.656602095321 -3.61198024568e-05 0)
(0.656624626347 -3.10312800285e-05 0)
(0.656644565855 -2.55708202928e-05 0)
(0.656661342851 -2.04268248826e-05 0)
(0.656674960793 -1.59195225175e-05 0)
(0.656685714058 -1.21525097595e-05 0)
(0.656694017599 -9.10989803989e-06 0)
(0.656700309116 -6.71651069143e-06 0)
(0.65670499672 -4.87369294642e-06 0)
(0.656708436241 -3.48072811905e-06 0)
(0.656710924355 -2.44557951756e-06 0)
(0.656712699229 -1.68821767774e-06 0)
(0.656713947185 -1.14195043413e-06 0)
(0.656714812373 -7.54296043852e-07 0)
(0.65671540335 -4.8422918498e-07 0)
(0.656715799808 -2.99440032025e-07 0)
(0.656716060803 -1.75618967672e-07 0)
(0.656716228778 -9.43017721103e-08 0)
(0.656716333012 -4.15754761234e-08 0)
(0.656716395103 -9.04079478752e-09 0)
(0.65671643002 9.79361145925e-09 0)
(0.656716446683 2.11919712647e-08 0)
(0.656716451445 2.88056631775e-08 0)
(0.65671644879 3.31203987535e-08 0)
(0.656716440986 3.64501456477e-08 0)
(0.65671643047 4.00348869155e-08 0)
(0.656716419404 4.33422791059e-08 0)
(0.656716407643 4.66270317624e-08 0)
(0.656716395634 4.99334096786e-08 0)
(0.656716384249 5.30468440525e-08 0)
(0.656716372774 5.67992355187e-08 0)
(0.656716361294 6.09967040715e-08 0)
(0.656716350258 6.49146823048e-08 0)
(0.656716338123 6.94332058894e-08 0)
(0.656716324472 7.4610639508e-08 0)
(0.656716310645 7.94606380222e-08 0)
(0.656716296009 8.5138034366e-08 0)
(0.656716279845 9.24998713978e-08 0)
(0.656716264079 9.99034475307e-08 0)
(0.656716248762 1.06972587628e-07 0)
(0.656716231432 1.15301304401e-07 0)
(0.656716212774 1.24240227661e-07 0)
(0.656716194514 1.32425114541e-07 0)
(0.656716175014 1.4092042925e-07 0)
(0.656716153231 1.50735220153e-07 0)
(0.656716130581 1.61516893212e-07 0)
(0.656716107813 1.72966437395e-07 0)
(0.656716085458 1.84589152206e-07 0)
(0.656716062893 1.96891052972e-07 0)
(0.656716038223 2.11047600122e-07 0)
(0.656716012693 2.25498209446e-07 0)
(0.656715987666 2.39207609771e-07 0)
(0.656715960826 2.54610528146e-07 0)
(0.656715932321 2.72157200995e-07 0)
(0.65671590502 2.89989687529e-07 0)
(0.656715878202 3.08640659652e-07 0)
(0.656715850373 3.28659310901e-07 0)
(0.656715822229 3.48859005602e-07 0)
(0.656715793758 3.69293674146e-07 0)
(0.656715764655 3.91064778079e-07 0)
(0.656715735934 4.14307412162e-07 0)
(0.656715708628 4.38459008593e-07 0)
(0.656715682128 4.63496480009e-07 0)
(0.656715655202 4.89968886689e-07 0)
(0.656715628087 5.18026211741e-07 0)
(0.656715602209 5.47198222773e-07 0)
(0.656715578517 5.77149132851e-07 0)
(0.656715557277 6.08129834318e-07 0)
(0.656715538847 6.40464244756e-07 0)
(0.656715524683 6.7351587038e-07 0)
(0.656715516406 7.06556300971e-07 0)
(0.656715514013 7.40143073329e-07 0)
(0.656715518564 7.74347256079e-07 0)
(0.656715531844 8.09302156733e-07 0)
(0.656715556573 8.46820071418e-07 0)
(0.656715598769 8.84847482788e-07 0)
(0.65671566334 9.21054533627e-07 0)
(0.656715752934 9.56095815801e-07 0)
(0.656715874483 9.88025779705e-07 0)
(0.656716037272 1.01396919221e-06 0)
(0.656716248124 1.0341858073e-06 0)
(0.656716519266 1.04602518532e-06 0)
(0.656716869111 1.0437856541e-06 0)
(0.656717316474 1.02562671952e-06 0)
(0.656717887189 9.92048744795e-07 0)
(0.656718605938 9.45442401381e-07 0)
(0.656719495486 8.75966325727e-07 0)
(0.656720597805 7.69465702944e-07 0)
(0.656721969663 6.1193935532e-07 0)
(0.656723673492 3.91687899662e-07 0)
(0.656725788472 9.05906930119e-08 0)
(0.656728415531 -3.17740636108e-07 0)
(0.656731672022 -8.58506173984e-07 0)
(0.656735705168 -1.56308699935e-06 0)
(0.656740704997 -2.47845259289e-06 0)
(0.656746901469 -3.66055199702e-06 0)
(0.656754574149 -5.17342431235e-06 0)
(0.65676407607 -7.0987059327e-06 0)
(0.656775844478 -9.53624832796e-06 0)
(0.656790414659 -1.25982259281e-05 0)
(0.656808452716 -1.64360832505e-05 0)
(0.656830785019 -2.12741324808e-05 0)
(0.65685843533 -2.73730054285e-05 0)
(0.656892676766 -3.50461709439e-05 0)
(0.656935084142 -4.46813646098e-05 0)
(0.656987606607 -5.67615773391e-05 0)
(0.6570526592 -7.1885830423e-05 0)
(0.657133235386 -9.07954763977e-05 0)
(0.657233048379 -0.000114411694144 0)
(0.6573567015 -0.000143877270853 0)
(0.657509908098 -0.000180611088348 0)
(0.65769976279 -0.000226378886859 0)
(0.657935078713 -0.000283384059561 0)
(0.658226818293 -0.000354382543971 0)
(0.658588628284 -0.000442825326061 0)
(0.659037516308 -0.000553045277869 0)
(0.659594718491 -0.000690508646375 0)
(0.660286813081 -0.000862152110149 0)
(0.661147137879 -0.00107681963074 0)
(0.662217650477 -0.00134586877804 0)
(0.663551378573 -0.00168401903909 0)
(0.6652156842 -0.002110560835 0)
(0.667296721434 -0.00265114245963 0)
(0.669905601006 -0.00334046919197 0)
(0.673187213641 -0.00422663139951 0)
(0.677333271679 -0.00537844516102 0)
(0.682602242798 -0.00689871526698 0)
(0.689350942919 -0.00895004815338 0)
(0.698086187586 -0.0118085953246 0)
(0.70955031014 -0.0159822943565 0)
(0.724847866195 -0.0224769493523 0)
(0.745574064532 -0.0333742889532 0)
(0.773895516369 -0.0530136377308 0)
(0.812084642709 -0.09023199248 0)
(0.856364269515 -0.160037397079 0)
(1.03384128471 0.171306947395 0)
(1.10231585131 0.275556746189 0)
(1.11663621109 0.266312374653 0)
(1.09207925221 0.219892602412 0)
(1.05195420384 0.16821031537 0)
(1.01022221826 0.123615336148 0)
(0.973507722329 0.0888850595246 0)
(0.943885951357 0.0630494621704 0)
(0.921162804551 0.0442607991494 0)
(0.904299830028 0.0307744359653 0)
(0.892086144895 0.0211830168838 0)
(0.883411245628 0.014417300475 0)
(0.877355076824 0.00968544354793 0)
(0.873196231826 0.00640758846611 0)
(0.870388081332 0.00416172428481 0)
(0.868526276805 0.00264232182826 0)
(0.86731732006 0.00162947684945 0)
(0.866551607247 0.000966024042109 0)
(0.866081680907 0.000540571245348 0)
(0.865805324587 0.000274924744208 0)
(0.865652751025 0.000114788986341 0)
(0.865577119211 2.29534131923e-05 0)
(0.865547507066 -2.57284674506e-05 0)
(0.865543970118 -4.8049732976e-05 0)
(0.865554018326 -5.49306731648e-05 0)
(0.865570022202 -5.33328431313e-05 0)
(0.865587560695 -4.7580638376e-05 0)
(0.865604252316 -4.0254296457e-05 0)
(0.865618967527 -3.28079584676e-05 0)
(0.865631316289 -2.59905901802e-05 0)
(0.865641319936 -2.01240339314e-05 0)
(0.865649206733 -1.52836132465e-05 0)
(0.86565528895 -1.1412745376e-05 0)
(0.865659891816 -8.39257534779e-06 0)
(0.865663317131 -6.08383175409e-06 0)
(0.86566582773 -4.35054790507e-06 0)
(0.865667641826 -3.07054681042e-06 0)
(0.865668933856 -2.13899071323e-06 0)
(0.865669841093 -1.47060915047e-06 0)
(0.865670469286 -9.98185780493e-07 0)
(0.865670897166 -6.6884938119e-07 0)
(0.86567118342 -4.42762491364e-07 0)
(0.865671371138 -2.90585949756e-07 0)
(0.865671490037 -1.89813872745e-07 0)
(0.865671561886 -1.24710360963e-07 0)
(0.86567160296 -8.46968015023e-08 0)
(0.865671623003 -6.08035286728e-08 0)
(0.865671628963 -4.71467232041e-08 0)
(0.865671627347 -4.01505355551e-08 0)
(0.865671621319 -3.65843930294e-08 0)
(0.865671611805 -3.45915186167e-08 0)
(0.865671600207 -3.47091157423e-08 0)
(0.865671587072 -3.65118971382e-08 0)
(0.865671572942 -3.93120384164e-08 0)
(0.865671559086 -4.32937783531e-08 0)
(0.865671545064 -4.77916471317e-08 0)
(0.865671530311 -5.26157695346e-08 0)
(0.865671515565 -5.88473185848e-08 0)
(0.865671499959 -6.58442096626e-08 0)
(0.865671482366 -7.26819620832e-08 0)
(0.865671464076 -8.01309584487e-08 0)
(0.865671445383 -8.77827485953e-08 0)
(0.865671424901 -9.4059311066e-08 0)
(0.865671403587 -1.00100671802e-07 0)
(0.865671382675 -1.07843667919e-07 0)
(0.865671360408 -1.16020765078e-07 0)
(0.865671335972 -1.23785742914e-07 0)
(0.86567131078 -1.32592057636e-07 0)
(0.865671284475 -1.42435475266e-07 0)
(0.865671256242 -1.51983245335e-07 0)
(0.865671226903 -1.60995799624e-07 0)
(0.865671196767 -1.69758810776e-07 0)
(0.865671166419 -1.7949430256e-07 0)
(0.865671136238 -1.90957262196e-07 0)
(0.865671104016 -2.02288604255e-07 0)
(0.865671069463 -2.13202820358e-07 0)
(0.865671034965 -2.25780565553e-07 0)
(0.865670999624 -2.390823393e-07 0)
(0.86567096219 -2.51339037554e-07 0)
(0.865670924936 -2.63966385844e-07 0)
(0.865670888201 -2.77887480483e-07 0)
(0.865670850138 -2.92487927925e-07 0)
(0.865670810993 -3.08144404067e-07 0)
(0.865670771682 -3.25236202378e-07 0)
(0.865670732189 -3.43344057009e-07 0)
(0.865670692684 -3.62124552373e-07 0)
(0.865670653975 -3.81921178388e-07 0)
(0.865670616182 -4.03528842814e-07 0)
(0.865670578559 -4.26863360089e-07 0)
(0.865670541116 -4.50991965123e-07 0)
(0.865670504828 -4.76172853896e-07 0)
(0.86567047069 -5.03807257462e-07 0)
(0.86567043979 -5.34427724742e-07 0)
(0.865670412907 -5.67595630972e-07 0)
(0.865670390951 -6.03895459932e-07 0)
(0.865670375912 -6.45074514452e-07 0)
(0.865670369005 -6.91516995655e-07 0)
(0.865670372587 -7.43251545402e-07 0)
(0.865670391315 -8.00889799344e-07 0)
(0.865670426585 -8.6288712905e-07 0)
(0.865670480096 -9.3071188482e-07 0)
(0.865670558087 -1.00783526531e-06 0)
(0.865670665308 -1.09465710905e-06 0)
(0.865670808683 -1.19295260885e-06 0)
(0.865671000246 -1.30791653855e-06 0)
(0.865671249788 -1.44207810835e-06 0)
(0.865671568982 -1.59841454209e-06 0)
(0.865671977028 -1.78540936093e-06 0)
(0.865672494844 -2.01170925605e-06 0)
(0.86567314699 -2.2875367745e-06 0)
(0.865673966851 -2.63221339043e-06 0)
(0.865674993021 -3.05808977058e-06 0)
(0.865676273383 -3.57886522578e-06 0)
(0.865677871334 -4.21728270387e-06 0)
(0.86567985977 -4.99789039283e-06 0)
(0.865682327705 -5.95191069774e-06 0)
(0.865685392502 -7.12558461584e-06 0)
(0.865689195552 -8.57178275592e-06 0)
(0.865693907768 -1.03505584168e-05 0)
(0.865699747165 -1.25426403497e-05 0)
(0.865706984354 -1.52502640634e-05 0)
(0.865715948633 -1.85949730239e-05 0)
(0.865727050536 -2.27290767757e-05 0)
(0.865740800789 -2.7847608556e-05 0)
(0.865757828822 -3.41928476708e-05 0)
(0.865778913152 -4.20587494954e-05 0)
(0.865805017337 -5.18034429678e-05 0)
(0.865837336111 -6.3866207509e-05 0)
(0.865877352301 -7.87966680598e-05 0)
(0.865926900939 -9.72812925901e-05 0)
(0.865988254819 -0.000120174150548 0)
(0.866064231132 -0.000148535230119 0)
(0.866158319697 -0.000183680130583 0)
(0.866274847925 -0.000227246239872 0)
(0.866419181209 -0.000281268755467 0)
(0.866597975802 -0.000348278215242 0)
(0.86681949206 -0.000431425804802 0)
(0.867093982929 -0.00053464099231 0)
(0.867434189981 -0.000662836105719 0)
(0.867855961145 -0.000822165376036 0)
(0.86837902351 -0.00102035518981 0)
(0.869027962606 -0.00126713761479 0)
(0.869833480342 -0.0015748354067 0)
(0.870833987725 -0.00195913109214 0)
(0.872077663926 -0.00244011226316 0)
(0.873625137456 -0.00304372400035 0)
(0.875552997855 -0.00380382168136 0)
(0.87795850202 -0.00476518182791 0)
(0.880965914796 -0.00598800491215 0)
(0.884735230533 -0.00755495167526 0)
(0.889474407642 -0.0095827043946 0)
(0.895456676139 -0.0122418500226 0)
(0.903044955137 -0.0157928247988 0)
(0.912725078757 -0.0206536229737 0)
(0.925145921592 -0.0275306033109 0)
(0.94114467812 -0.0376706661136 0)
(0.961669766424 -0.0533140741955 0)
(0.987428609065 -0.0783716909489 0)
(1.01780542298 -0.119088017291 0)
(1.04675887053 -0.182891494188 0)
(1.02388346233 0.119321985716 0)
(1.08875436745 0.231514422276 0)
(1.13660483482 0.252868942019 0)
(1.15406273207 0.228905047584 0)
(1.15000113069 0.188337384733 0)
(1.13537624149 0.146577292043 0)
(1.11757778044 0.110164820907 0)
(1.10059200088 0.0808376069496 0)
(1.08612241578 0.0582502021166 0)
(1.07458762324 0.0413417875048 0)
(1.06578680291 0.0289362845917 0)
(1.05928157445 0.0199770216771 0)
(1.05459133732 0.0135949311217 0)
(1.05128028076 0.0091074279165 0)
(1.04898737543 0.00599313307125 0)
(1.04742906687 0.00386144066195 0)
(1.04639047431 0.00242413545061 0)
(1.04571300671 0.00147134657562 0)
(1.04528207584 0.000852134007772 0)
(1.04501639481 0.000459260683895 0)
(1.04485927325 0.000217486419786 0)
(1.04477184458 7.47143920107e-05 0)
(1.04472786417 -4.65010812206e-06 0)
(1.04470999889 -4.44506556089e-05 0)
(1.04470707333 -6.05417549066e-05 0)
(1.04471199664 -6.30999449969e-05 0)
(1.04472043771 -5.85514366145e-05 0)
(1.04472988027 -5.08197048948e-05 0)
(1.04473895618 -4.21894722384e-05 0)
(1.04474700481 -3.39030746516e-05 0)
(1.04475378606 -2.65589928892e-05 0)
(1.04475929554 -2.03734917127e-05 0)
(1.04476364924 -1.53493336387e-05 0)
(1.04476701297 -1.1380249059e-05 0)
(1.04476956207 -8.31406434387e-06 0)
(1.0447714613 -5.99007947564e-06 0)
(1.04477285506 -4.25843586356e-06 0)
(1.04477386277 -2.98751894378e-06 0)
(1.04477458066 -2.06767920464e-06 0)
(1.04477508508 -1.41138532391e-06 0)
(1.044775434 -9.49357765713e-07 0)
(1.04477567099 -6.2834168758e-07 0)
(1.04477582913 -4.08915823117e-07 0)
(1.04477593145 -2.60890399345e-07 0)
(1.04477599435 -1.61952981871e-07 0)
(1.04477603141 -9.73157960872e-08 0)
(1.04477605124 -5.54852372995e-08 0)
(1.04477605869 -2.76650992726e-08 0)
(1.04477605827 -9.38922339255e-09 0)
(1.04477605239 1.84079484012e-09 0)
(1.04477604165 8.36778052951e-09 0)
(1.04477602808 1.15617359165e-08 0)
(1.04477601317 1.30831389137e-08 0)
(1.04477599725 1.41989152585e-08 0)
(1.04477598143 1.46669949248e-08 0)
(1.04477596558 1.48205700867e-08 0)
(1.04477594845 1.51518904763e-08 0)
(1.04477593069 1.46481855023e-08 0)
(1.04477591251 1.33530443976e-08 0)
(1.04477589264 1.27545114028e-08 0)
(1.04477587189 1.25590552592e-08 0)
(1.04477585152 1.21073413195e-08 0)
(1.04477582982 1.29161890464e-08 0)
(1.04477580588 1.49346471862e-08 0)
(1.0447757815 1.59363289929e-08 0)
(1.04477575641 1.60441714632e-08 0)
(1.0447757289 1.67950841175e-08 0)
(1.04477569997 1.78311803846e-08 0)
(1.04477567051 1.89089746266e-08 0)
(1.0447756396 2.07009673504e-08 0)
(1.04477560731 2.31995868799e-08 0)
(1.04477557354 2.65840090922e-08 0)
(1.04477553833 3.01560294702e-08 0)
(1.04477550311 3.23226217132e-08 0)
(1.04477546692 3.43814178653e-08 0)
(1.04477542796 3.81831480223e-08 0)
(1.04477538793 4.21333426851e-08 0)
(1.04477534781 4.56009887101e-08 0)
(1.04477530604 5.02378622007e-08 0)
(1.04477526324 5.54905125999e-08 0)
(1.0447752204 6.01374642139e-08 0)
(1.04477517637 6.47890259222e-08 0)
(1.04477513079 6.98120501611e-08 0)
(1.04477508444 7.48048734218e-08 0)
(1.04477503779 7.96042564119e-08 0)
(1.044774991 8.44653167903e-08 0)
(1.04477494427 8.94208353299e-08 0)
(1.04477489776 9.39205823421e-08 0)
(1.04477485177 9.77880121318e-08 0)
(1.04477480649 1.01591158449e-07 0)
(1.04477476184 1.05365887506e-07 0)
(1.04477471835 1.08221532658e-07 0)
(1.04477467782 1.0929122401e-07 0)
(1.0447746413 1.08348666563e-07 0)
(1.04477460882 1.04899000158e-07 0)
(1.04477458221 9.72242289855e-08 0)
(1.04477456334 8.42895625316e-08 0)
(1.04477455372 6.52600889298e-08 0)
(1.04477455706 3.72935867095e-08 0)
(1.04477457647 -2.33930347859e-09 0)
(1.04477461521 -5.49205772448e-08 0)
(1.0447746803 -1.23972795492e-07 0)
(1.0447747776 -2.11887389827e-07 0)
(1.04477491259 -3.2063876636e-07 0)
(1.04477509692 -4.57288385124e-07 0)
(1.04477534284 -6.29061066857e-07 0)
(1.04477566201 -8.41644944721e-07 0)
(1.04477607321 -1.10521322914e-06 0)
(1.04477660024 -1.43192234021e-06 0)
(1.04477726857 -1.8334186158e-06 0)
(1.04477811075 -2.32778823484e-06 0)
(1.04477916669 -2.93754041394e-06 0)
(1.04478048499 -3.68863464943e-06 0)
(1.04478213184 -4.6164668902e-06 0)
(1.04478418583 -5.76217964157e-06 0)
(1.04478673793 -7.17286147983e-06 0)
(1.04478990755 -8.91339496059e-06 0)
(1.04479384429 -1.10649070271e-05 0)
(1.04479872713 -1.37204485733e-05 0)
(1.0448047799 -1.69964991695e-05 0)
(1.04481228382 -2.10425950617e-05 0)
(1.04482158288 -2.60421429888e-05 0)
(1.04483310261 -3.22216768057e-05 0)
(1.04484737163 -3.98650944669e-05 0)
(1.04486504316 -4.93257236153e-05 0)
(1.0448869256 -6.10397913663e-05 0)
(1.04491401959 -7.55433642035e-05 0)
(1.04494756464 -9.34965772856e-05 0)
(1.04498909728 -0.000115719770065 0)
(1.04504051984 -0.000143231358391 0)
(1.04510418931 -0.000177293783336 0)
(1.04518302678 -0.000219473581214 0)
(1.04528064783 -0.000271714869342 0)
(1.04540153377 -0.000336433142695 0)
(1.04555123919 -0.000416629255401 0)
(1.04573665035 -0.000516034971068 0)
(1.0459663077 -0.000639296656372 0)
(1.04625080087 -0.000792203353711 0)
(1.04660327045 -0.000981981745292 0)
(1.04704003653 -0.00121767417287 0)
(1.04758137919 -0.00151062171299 0)
(1.04825250991 -0.00187508545923 0)
(1.04908481246 -0.00232907339457 0)
(1.0501174018 -0.00289543286735 0)
(1.05139910097 -0.00360331955478 0)
(1.0529909673 -0.00449021277008 0)