/*--------------------------------*- C++ -*----------------------------------*\
| =========                 |                                                 |
| \\      /  F ield         | OpenFOAM: The Open Source CFD Toolbox           |
|  \\    /   O peration     | Version:  2106                                  |
|   \\  /    A nd           | Website:  www.openfoam.com                      |
|    \\/     M anipulation  |                                                 |
\*---------------------------------------------------------------------------*/
FoamFile
{
    version     2.0;
    format      ascii;
    arch        "LSB;label=32;scalar=64";
    class       surfaceScalarField;
    location    "0.075";
    object      phi;
}
// * * * * * * * * * * * * * * * * * * * * * * * * * * * * * * * * * * * * * //

dimensions      [0 3 -1 0 0 0 0];

oriented        oriented;

internalField   nonuniform List<scalar> 
22100
(
3.38461158095e-05
1.61538841845e-05
2.2457194429e-05
1.13889219397e-05
1.62585229549e-05
6.19867200921e-06
1.27977332536e-05
3.46079040879e-06
1.08045964191e-05
1.99313767851e-06
9.60456222642e-06
1.20003495297e-06
8.85135183406e-06
7.53210859044e-07
8.36449961941e-06
4.8685232661e-07
8.04468034061e-06
3.19819178848e-07
7.83348821433e-06
2.11192056016e-07
7.69446998643e-06
1.39018344345e-07
7.60387171534e-06
9.05985335174e-08
7.54580371421e-06
5.80681995273e-08
7.5094903537e-06
3.63132952367e-08
7.48758613431e-06
2.19038441887e-08
7.47508647604e-06
1.2499107998e-08
7.46859129711e-06
6.49463553227e-09
7.46576724553e-06
2.8235964187e-09
7.46504948734e-06
7.17324059772e-10
7.46568892348e-06
-6.39954399373e-10
7.46693723141e-06
-1.24893802304e-09
7.46841543388e-06
-1.47881638804e-09
7.46983059585e-06
-1.41558178283e-09
7.47109431363e-06
-1.26386853661e-09
7.47217605043e-06
-1.08174152335e-09
7.47305535505e-06
-8.79401563541e-10
7.47374213321e-06
-6.87141317874e-10
7.47425996334e-06
-5.18442288931e-10
7.47463742729e-06
-3.78138767075e-10
7.47490325567e-06
-2.66339262245e-10
7.47508362716e-06
-1.80626130108e-10
7.47520099382e-06
-1.17427590283e-10
7.47527364282e-06
-7.26411556462e-11
7.47531532214e-06
-4.16614587462e-11
7.47533336384e-06
-1.79960978433e-11
7.47533665605e-06
-3.15884802242e-12
7.47533205448e-06
4.80458085456e-12
7.47532305e-06
9.18002194384e-12
7.47531165411e-06
1.14220054069e-11
7.4752990372e-06
1.24319076817e-11
7.47528578053e-06
1.2909487321e-11
7.47527214257e-06
1.32642224032e-11
7.47525821761e-06
1.36629290935e-11
7.4752440194e-06
1.41328925166e-11
7.47522950844e-06
1.46597294162e-11
7.4752145886e-06
1.52813498989e-11
7.47519903658e-06
1.6109260346e-11
7.47518245597e-06
1.72660155072e-11
7.47516426215e-06
1.88987975242e-11
7.47514367531e-06
2.12025966767e-11
7.4751197595e-06
2.43689314823e-11
7.47509146779e-06
2.85562209965e-11
7.47505767931e-06
3.38754796931e-11
7.47501724057e-06
4.03776918698e-11
7.4749690426e-06
4.80426601158e-11
7.47491213898e-06
5.67535345535e-11
7.47484588199e-06
6.62761885385e-11
7.4747700376e-06
7.62134004078e-11
7.47468502611e-06
8.57893463878e-11
7.47459290606e-06
9.32237907898e-11
7.47449942243e-06
9.47502561054e-11
7.47441658897e-06
8.40036850234e-11
7.47435546173e-06
6.1971525833e-11
7.47433338602e-06
2.25046726422e-11
7.47438727113e-06
-5.39143119515e-11
7.47457777384e-06
-1.90944454509e-10
7.47500398606e-06
-4.26935655186e-10
7.47582367038e-06
-8.20564377292e-10
7.47728437828e-06
-1.46161618341e-09
7.47975829359e-06
-2.47477043392e-09
7.48370678877e-06
-3.94923477566e-09
7.49046028674e-06
-6.75411316193e-09
7.50170726666e-06
-1.1247427873e-08
7.52066077243e-06
-1.89537391553e-08
7.55516092911e-06
-3.4500300891e-08
7.62689125457e-06
-7.17304163514e-08
7.79941379484e-06
-1.7252263988e-07
8.27071324449e-06
-4.712995244e-07
9.79694232041e-06
-1.52622913294e-06
-5.72454974504e-06
1.55214917812e-05
5.02175865564e-05
1.59362982524e-05
4.42440862239e-05
1.73624233964e-05
3.7779460746e-05
1.26632987163e-05
3.2646105082e-05
8.59414741286e-06
2.89380948213e-05
5.70114912871e-06
2.63597382851e-05
3.77839224747e-06
2.45878610844e-05
2.52508832517e-06
2.33742082565e-05
1.70050513459e-06
2.25448621393e-05
1.14916531274e-06
2.19804186801e-05
7.75635758767e-07
2.15988823156e-05
5.20555102967e-07
2.13435950667e-05
3.45886035233e-07
2.11751667934e-05
2.26496298128e-07
2.10661230097e-05
1.45356429866e-07
2.09973019286e-05
9.07239976194e-08
2.09553802342e-05
5.44198628435e-08
2.09311511089e-05
3.07229202718e-08
2.09183507142e-05
1.56231749121e-08
2.09127873926e-05
6.27972410686e-09
2.09117260721e-05
4.20323403483e-10
2.09127280512e-05
-2.25190377087e-09
2.09148208523e-05
-3.57231610263e-09
2.09173693168e-05
-3.96437954854e-09
2.09199205082e-05
-3.81521514189e-09
2.09222212953e-05
-3.38283751421e-09
2.09241746257e-05
-2.83342148595e-09
2.0925757239e-05
-2.27077839511e-09
2.09269912324e-05
-1.75350924261e-09
2.09279221643e-05
-1.30988948228e-09
2.09286047287e-05
-9.49338324892e-10
2.09290948923e-05
-6.70933018746e-10
2.09294474743e-05
-4.70026923743e-10
2.09296746445e-05
-2.99778076309e-10
2.0929807712e-05
-1.74619284032e-10
2.09298795214e-05
-8.95805566568e-11
2.09299122927e-05
-3.56396587819e-11
2.09299222724e-05
-4.95956526046e-12
2.09299185675e-05
1.28699940588e-11
2.09299068664e-05
2.28205483043e-11
2.092989078e-05
2.80114736511e-11
2.09298723852e-05
3.07734142026e-11
2.09298527497e-05
3.25277038332e-11
2.0929832312e-05
3.40152340556e-11
2.09298111273e-05
3.55743304859e-11
2.0929789038e-05
3.73647639173e-11
2.09297657461e-05
3.95136370119e-11
2.09297408066e-05
4.21975863518e-11
2.09297137019e-05
4.55610908617e-11
2.09296838885e-05
4.97731110457e-11
2.09296507906e-05
5.50912192536e-11
2.09296138611e-05
6.17564830208e-11
2.09295726544e-05
6.99262377341e-11
2.09295268842e-05
7.9602638788e-11
2.09294765245e-05
9.0581383023e-11
2.0929422029e-05
1.02392592701e-10
2.09293647282e-05
1.14163814438e-10
2.09293074206e-05
1.24280187506e-10
2.09292551837e-05
1.2986887551e-10
2.09292166276e-05
1.26301692316e-10
2.09292063423e-05
1.05645798965e-10
2.0929250017e-05
5.2964629311e-11
2.09293953944e-05
-6.00432466561e-11
2.09297140751e-05
-2.56058156012e-10
2.09303259139e-05
-5.89434341753e-10
2.09313581571e-05
-1.0869177651e-09
2.09329782632e-05
-1.81224371893e-09
2.09355617836e-05
-3.01190871522e-09
2.09396843997e-05
-4.94472853543e-09
2.09462615754e-05
-8.04028989937e-09
2.09567962354e-05
-1.30107192828e-08
2.09739235908e-05
-2.10776165879e-08
2.10019476913e-05
-3.47789797772e-08
2.10482344928e-05
-5.7534708223e-08
2.11266566429e-05
-9.73761721359e-08
2.12645381485e-05
-1.72382014518e-07
2.15177507167e-05
-3.24943194516e-07
2.20009382186e-05
-6.55710341967e-07
2.29421158818e-05
-1.41247754443e-06
2.4701190066e-05
-3.28530382602e-06
-7.49671054975e-06
2.64733507779e-05
5.35170989039e-05
1.24191998802e-05
5.29349509996e-05
1.79445722613e-05
4.96538214637e-05
1.59444292947e-05
4.58401929123e-05
1.24077770709e-05
4.24401970234e-05
9.10114597331e-06
3.97294754282e-05
6.48911446184e-06
3.76879652747e-05
4.5665987737e-06
3.61988972911e-05
3.18957327269e-06
3.5134703328e-05
2.21335952078e-06
3.43856556629e-05
1.5246838308e-06
3.38654991651e-05
1.0407120054e-06
3.35092166999e-05
7.02168636395e-07
3.32688828771e-05
4.66829820449e-07
3.31096675688e-05
3.04571058226e-07
3.30065319908e-05
1.93858743876e-07
3.29416532624e-05
1.19297801421e-07
3.29024727035e-05
6.99027776372e-08
3.28802330501e-05
3.78621020929e-08
3.28688684355e-05
1.76434915756e-08
3.28639644255e-05
5.32340475893e-09
3.28633968571e-05
-1.68515195025e-09
3.28648396981e-05
-5.01567780015e-09
3.28672793011e-05
-6.40422155667e-09
3.28700195181e-05
-6.55561906078e-09
3.28726593291e-05
-6.02305507916e-09
3.28749933729e-05
-5.16820452034e-09
3.28769392389e-05
-4.21758942627e-09
3.28784888023e-05
-3.30396006845e-09
3.28796747462e-05
-2.49645376862e-09
3.28805482183e-05
-1.8231424155e-09
3.28811645666e-05
-1.287435393e-09
3.28815740227e-05
-8.79568530787e-10
3.28818595156e-05
-5.85289698015e-10
3.28820714783e-05
-3.86478034544e-10
3.28821902648e-05
-2.08107082687e-10
3.28822539537e-05
-9.89949608757e-11
3.28822831803e-05
-3.39528800999e-11
3.28822903513e-05
5.67949527507e-12
3.28822840779e-05
2.87953557196e-11
3.28822701243e-05
4.14971413702e-11
3.28822519902e-05
4.84414697179e-11
3.2882231623e-05
5.25634888216e-11
3.28822099618e-05
5.5553703573e-11
3.28821873413e-05
5.83465698138e-11
3.28821637546e-05
6.14418674063e-11
3.28821389523e-05
6.51307528841e-11
3.28821124397e-05
6.9730355527e-11
3.28820837549e-05
7.52970871213e-11
3.28820525888e-05
8.18484395738e-11
3.28820187337e-05
8.95933847512e-11
3.28819821569e-05
9.86717739143e-11
3.28819431004e-05
1.09033183531e-10
3.28819022107e-05
1.203475661e-10
3.28818607465e-05
1.31843940693e-10
3.28818209799e-05
1.42079550459e-10
3.28817869045e-05
1.48524714815e-10
3.28817652278e-05
1.46786412196e-10
3.28817664042e-05
1.30065360424e-10
3.28818061262e-05
8.83375257573e-11
3.28819111158e-05
2.47085597488e-12
3.28821308887e-05
-1.65277396265e-10
3.2882551746e-05
-4.79820504798e-10
3.28832239834e-05
-9.27762475295e-10
3.28842091318e-05
-1.57461949995e-09
3.2885764426e-05
-2.64274686287e-09
3.28882985498e-05
-4.34729757043e-09
3.28923371503e-05
-7.05168790917e-09
3.28987350997e-05
-1.1343986058e-08
3.29088763513e-05
-1.8182816131e-08
3.29250469668e-05
-2.91824749533e-08
3.29511110594e-05
-4.71426504593e-08
3.29927640067e-05
-7.64325530435e-08
3.306048839e-05
-1.25259494784e-07
3.31723967033e-05
-2.09284746823e-07
3.33595963285e-05
-3.59581913352e-07
3.36741517352e-05
-6.394989407e-07
3.41940479842e-05
-1.17560682361e-06
3.4996466687e-05
-2.21489644183e-06
3.59557430671e-05
-4.2445807582e-06
-7.67524686004e-06
3.61342789882e-05
5.35105641776e-05
8.90863619171e-06
5.55742189707e-05
1.58809183283e-05
5.52424931497e-05
1.62761560522e-05
5.3597847689e-05
1.40524235294e-05
5.15420291833e-05
1.11569653724e-05
4.95806908206e-05
8.45045347305e-06
4.79251506975e-05
6.22213933565e-06
4.66195434715e-05
4.49518086641e-06
4.56327493034e-05
3.20015412689e-06
4.4908606972e-05
2.2488266481e-06
4.43891570434e-05
1.56016227931e-06
4.40237332189e-05
1.06759244941e-06
4.37713747343e-05
7.19187872793e-07
4.3600413376e-05
4.75531696725e-07
4.34870667637e-05
3.07204572876e-07
4.34138469482e-05
1.92516910102e-07
4.33681077128e-05
1.15641363591e-07
4.33408321668e-05
6.51369420237e-08
4.33256725807e-05
3.28022438688e-08
4.33181950681e-05
1.28000562354e-08
4.33153113032e-05
1.19791418558e-09
4.3315379591e-05
-5.08439891126e-09
4.33168764364e-05
-7.90132395805e-09
4.33189819575e-05
-8.66144778636e-09
4.33212069869e-05
-8.24863778511e-09
4.33232806239e-05
-7.2426511701e-09
4.33250732582e-05
-6.01111914847e-09
4.33265425949e-05
-4.77405867625e-09
4.33276971324e-05
-3.65151139671e-09
4.33285718052e-05
-2.69812880129e-09
4.3329212514e-05
-1.92834931443e-09
4.33296651187e-05
-1.33230762475e-09
4.33299638194e-05
-8.84017266364e-10
4.33301315969e-05
-5.54108922725e-10
4.33302298793e-05
-3.06072101306e-10
4.33302754517e-05
-1.44206761821e-10
4.33303009644e-05
-5.92405314701e-11
4.33303082846e-05
-1.67303225952e-12
4.33303037908e-05
3.29961220605e-11
4.33302922075e-05
5.26339582092e-11
4.33302763081e-05
6.3868590309e-11
4.33302576639e-05
7.08144696029e-11
4.33302371326e-05
7.58713438911e-11
4.3330215093e-05
8.04732249263e-11
4.33301915656e-05
8.54377890026e-11
4.33301663101e-05
9.12053515073e-11
4.33301390083e-05
9.80551555936e-11
4.3330109422e-05
1.05898111558e-10
4.33300773575e-05
1.14740425405e-10
4.3330042821e-05
1.24677721967e-10
4.33300061374e-05
1.35599081031e-10
4.3329968035e-05
1.4711684427e-10
4.33299297517e-05
1.58443748113e-10
4.33298932205e-05
1.68169294765e-10
4.33298613502e-05
1.73974410377e-10
4.3329838267e-05
1.72098562142e-10
4.33298296516e-05
1.56425284943e-10
4.33298443887e-05
1.16803325249e-10
4.33298982966e-05
3.61297237068e-11
4.33300152907e-05
-1.12904053474e-10
4.33302045622e-05
-3.53212534283e-10
4.33305639153e-05
-8.38230176008e-10
4.33312352835e-05
-1.59863143256e-09
4.3332398617e-05
-2.73790074327e-09
4.33342580415e-05
-4.50256644608e-09
4.33371717458e-05
-7.26178905777e-09
4.33417224213e-05
-1.16034470361e-08
4.33488317064e-05
-1.84544809931e-08
4.33599573596e-05
-2.93096819282e-08
4.33773888404e-05
-4.6615076514e-08
4.34046654794e-05
-7.4420136903e-08
4.34477424657e-05
-1.19510145186e-07
4.35161429396e-05
-1.93660461697e-07
4.36247413204e-05
-3.17883553757e-07
4.37954318971e-05
-5.30272899121e-07
4.40559202286e-05
-8.99987667529e-07
4.44272799535e-05
-1.54696695892e-06
4.48752076065e-05
-2.66282461801e-06
4.51566707191e-05
-4.52604463113e-06
-7.19316312968e-06
4.46745863102e-05
5.2735139446e-05
6.17349717819e-06
5.57309428325e-05
1.28851157269e-05
5.73115046947e-05
1.46955950582e-05
5.76110758639e-05
1.37528533055e-05
5.71337149925e-05
1.1634327133e-05
5.63198525136e-05
9.2643166733e-06
5.54496825809e-05
7.09230985159e-06
5.46641385671e-05
5.28072542187e-06
5.40155049209e-05
3.84878831961e-06
5.35088671118e-05
2.75546492515e-06
5.3128125327e-05
1.94090427793e-06
5.28502878024e-05
1.34542979841e-06
5.26524531462e-05
9.17021990329e-07
5.25147035309e-05
6.132805848e-07
5.24209108441e-05
4.00996530581e-07
5.23585810553e-05
2.54846055465e-07
5.23183261153e-05
1.55895677322e-07
5.22932520755e-05
9.02102690309e-08
5.22783877434e-05
4.76657726119e-08
5.22701912706e-05
2.09957630163e-08
5.22663050711e-05
5.08352725653e-09
5.22649963774e-05
-3.7761001625e-09
5.2265192128e-05
-8.09741455504e-09
5.22661466677e-05
-9.61645189454e-09
5.22674030346e-05
-9.50569707407e-09
5.22686933508e-05
-8.53381424076e-09
5.22698728994e-05
-7.19149041379e-09
5.22708756873e-05
-5.77750468141e-09
5.22716837445e-05
-4.46003902631e-09
5.22723048964e-05
-3.31962419239e-09
5.2272760074e-05
-2.38379914509e-09
5.22730766966e-05
-1.64908916288e-09
5.22732874852e-05
-1.09478223656e-09
5.22734264029e-05
-6.9278944012e-10
5.22735298644e-05
-4.09156699482e-10
5.22736071628e-05
-2.21150445619e-10
5.22736559444e-05
-1.07842845284e-10
5.22736784902e-05
-2.4285842145e-11
5.22736830877e-05
2.81124917204e-11
5.22736772078e-05
5.80733766907e-11
5.22736653275e-05
7.52322661086e-11
5.2273649913e-05
8.57473095666e-11
5.22736321909e-05
9.33111394901e-11
5.22736127341e-05
1.00006889522e-10
5.22735918025e-05
1.0686694014e-10
5.22735697979e-05
1.14055826067e-10
5.2273545355e-05
1.23502366315e-10
5.22735179114e-05
1.34284300012e-10
5.22734879772e-05
1.45389640319e-10
5.22734555958e-05
1.57470367273e-10
5.22734210551e-05
1.70276250873e-10
5.22733850791e-05
1.83037658379e-10
5.22733488879e-05
1.94475657186e-10
5.22733144104e-05
2.02554917728e-10
5.22732846455e-05
2.03965509417e-10
5.22732645503e-05
1.9290534038e-10
5.22732650134e-05
1.5716937486e-10
5.22733042336e-05
7.9113582135e-11
5.22733947214e-05
-5.2787463083e-11
5.22735338387e-05
-2.50593803927e-10
5.22737921882e-05
-6.10366927194e-10
5.22742417095e-05
-1.2868713634e-09
5.22749216718e-05
-2.27808187721e-09
5.22759743466e-05
-3.79046520667e-09
5.22776085177e-05
-6.13703044611e-09
5.22801359515e-05
-9.78990537553e-09
5.2284025693e-05
-1.54941604862e-08
5.22900001459e-05
-2.44300797413e-08
5.22991756378e-05
-3.84863753281e-08
5.2313272564e-05
-6.07130496996e-08
5.23349256095e-05
-9.60740307081e-08
5.23681435254e-05
-1.52728711086e-07
5.24187629741e-05
-2.44280418375e-07
5.24945037393e-05
-3.93624841075e-07
5.26034266085e-05
-6.39196305502e-07
5.27476473779e-05
-1.04420891268e-06
5.29063139443e-05
-1.70563391731e-06
5.29970496708e-05
-2.75356101668e-06
5.27987755285e-05
-4.32777154158e-06
-6.37321235086e-06
5.19788237734e-05
5.19834902846e-05
4.19000727096e-06
5.50586785963e-05
9.80992816807e-06
5.76386485665e-05
1.21156259397e-05
5.93259753166e-05
1.2065527501e-05
6.0228148384e-05
1.07321549826e-05
6.05931543429e-05
8.89931150983e-06
6.06486500343e-05
7.03681483917e-06
6.0553748849e-05
5.37562722066e-06
6.04037723511e-05
3.99876536043e-06
6.02490642757e-05
2.91017336867e-06
6.01123536126e-05
2.07761500909e-06
6.00010970495e-05
1.45668607307e-06
5.99151750454e-05
1.00294342378e-06
5.98512639541e-05
6.77190996831e-07
5.98051205944e-05
4.47139244496e-07
5.97726613653e-05
2.87304689807e-07
5.97503911621e-05
1.78165264112e-07
5.97355062178e-05
1.0509451653e-07
5.97258477781e-05
5.73234803399e-08
5.97198041182e-05
2.70387699843e-08
5.97162311643e-05
8.65597729205e-09
5.97142634435e-05
-1.80878567009e-09
5.97133296644e-05
-7.16408964919e-09
5.97130192439e-05
-9.30664929987e-09
5.97130604717e-05
-9.54770273249e-09
5.97132785796e-05
-8.75274425274e-09
5.97135652462e-05
-7.47888875563e-09
5.97138570985e-05
-6.06993720956e-09
5.97141204441e-05
-4.72385617253e-09
5.97143416993e-05
-3.54128012837e-09
5.97145190266e-05
-2.56144290515e-09
5.97146565287e-05
-1.78674582786e-09
5.97147621407e-05
-1.20031185697e-09
5.97148444641e-05
-7.74804906696e-10
5.97149060566e-05
-4.70349881927e-10
5.97149441002e-05
-2.58870018143e-10
5.97149519569e-05
-1.15565921738e-10
5.97149428109e-05
-1.52285775274e-11
5.97149344669e-05
3.61580808131e-11
5.97149278658e-05
6.419768285e-11
5.97149194782e-05
8.30333273925e-11
5.97149084604e-05
9.62190949545e-11
5.97148950158e-05
1.06463338278e-10
5.97148793502e-05
1.15793304399e-10
5.97148613667e-05
1.25403067206e-10
5.97148403864e-05
1.35884292164e-10
5.97148173527e-05
1.47468343857e-10
5.9714792516e-05
1.5994159901e-10
5.97147653187e-05
1.73159779629e-10
5.97147361026e-05
1.86976346879e-10
5.97147056329e-05
2.00805908535e-10
5.97146750761e-05
2.13503688983e-10
5.97146461775e-05
2.23266162699e-10
5.97146213645e-05
2.27455241881e-10
5.97146034481e-05
2.22362098785e-10
5.97145940872e-05
2.03238478651e-10
5.97145872426e-05
1.6538332713e-10
5.97145767545e-05
9.10885071159e-11
5.97145797387e-05
-5.43760490132e-11
5.97146841207e-05
-3.53731314961e-10
5.97149151959e-05
-8.40386424019e-10
5.97152249017e-05
-1.59575176466e-09
5.97157006591e-05
-2.75331462435e-09
5.97164299838e-05
-4.51963109314e-09
5.97175253169e-05
-7.23259544638e-09
5.97191518356e-05
-1.1417013529e-08
5.97215500762e-05
-1.78933106042e-08
5.97250712602e-05
-2.79524051449e-08
5.9730223811e-05
-4.36400811007e-08
5.97377286206e-05
-6.82188539489e-08
5.97485573233e-05
-1.06903515909e-07
5.97638734715e-05
-1.68045528765e-07
5.97846772373e-05
-2.65084771233e-07
5.98105933201e-05
-4.19541530579e-07
5.98366492481e-05
-6.6525274517e-07
5.98458110945e-05
-1.05337115361e-06
5.9794666633e-05
-1.65448999522e-06
5.95907014146e-05
-2.54959668873e-06
5.90644202735e-05
-3.80149168285e-06
-5.33970105383e-06
5.80309078056e-05
5.14373103792e-05
2.75269724954e-06
5.4265836599e-05
6.98140274696e-06
5.72496713137e-05
9.13179211405e-06
5.97900622074e-05
9.52513757326e-06
6.17201539798e-05
8.80206413765e-06
6.30882912268e-05
7.53117507044e-06
6.40166202465e-05
6.10848650336e-06
6.46289875093e-05
4.76326053427e-06
6.5025311435e-05
3.60244188481e-06
6.52782314308e-05
2.65725361086e-06
6.54376440022e-05
1.91820239537e-06
6.55367417973e-05
1.35758795172e-06
6.55972259418e-05
9.42458761152e-07
6.56331629137e-05
6.41253438144e-07
6.56536347295e-05
4.26666852621e-07
6.56644924768e-05
2.76446366777e-07
6.56694958776e-05
1.7316124396e-07
6.56710492809e-05
1.03540451358e-07
6.56706766998e-05
5.76954290777e-08
6.56693308872e-05
2.83840481894e-08
6.56676036576e-05
1.03827553646e-08
6.56658154957e-05
-2.10892047604e-11
6.56641799989e-05
-5.52916120441e-09
6.56627628403e-05
-7.89021132721e-09
6.56615932082e-05
-8.3788718604e-09
6.56606638794e-05
-7.82417809147e-09
6.56599495204e-05
-6.76518474546e-09
6.56594169656e-05
-5.53795189946e-09
6.56590317194e-05
-4.33911668491e-09
6.56587620015e-05
-3.2720260504e-09
6.56585801908e-05
-2.37996854288e-09
6.5658462976e-05
-1.66964722773e-09
6.5658389928e-05
-1.12712265918e-09
6.56583428706e-05
-7.27422048537e-10
6.56583128929e-05
-4.39999280814e-10
6.56582908341e-05
-2.36531395778e-10
6.56582782472e-05
-1.02878788273e-10
6.56582867669e-05
-2.38599280934e-11
6.56582910094e-05
3.15854811268e-11
6.56582863494e-05
6.83279917169e-11
6.56582793553e-05
8.93870650472e-11
6.56582710107e-05
1.04006648385e-10
6.56582612798e-05
1.15943586972e-10
6.56582499257e-05
1.27333621993e-10
6.56582365903e-05
1.39319778285e-10
6.56582208715e-05
1.52399175143e-10
6.56582024225e-05
1.6672249422e-10
6.5658181222e-05
1.81802407257e-10
6.5658158963e-05
1.95862917992e-10
6.56581346678e-05
2.11498568049e-10
6.56581083204e-05
2.27192388015e-10
6.56580805185e-05
2.4124036764e-10
6.56580522453e-05
2.51546831248e-10
6.56580249035e-05
2.55088493128e-10
6.5658000493e-05
2.4751318414e-10
6.56579823816e-05
2.22535849608e-10
6.56579777417e-05
1.71426390875e-10
6.56579827929e-05
8.74241499659e-11
6.56579953341e-05
-6.56520853402e-11
6.56580488855e-05
-4.06185082056e-10
6.56581287934e-05
-9.19362316317e-10
6.56582527292e-05
-1.71894922194e-09
6.56584293113e-05
-2.9294273804e-09
6.56586695349e-05
-4.75971569997e-09
6.56589769872e-05
-7.5402378177e-09
6.56593391604e-05
-1.17796956772e-08
6.56597100878e-05
-1.82650693568e-08
6.56599797712e-05
-2.82231222651e-08
6.56599151469e-05
-4.35765597654e-08
6.5659049362e-05
-6.73540682306e-08
6.5656452127e-05
-1.04307027426e-07
6.56502510433e-05
-1.61845049292e-07
6.56366882086e-05
-2.51522598153e-07
6.56082215785e-05
-3.91075421195e-07
6.55498728874e-05
-6.06904446757e-07
6.54327091842e-05
-9.36207836475e-07
6.52040735468e-05
-1.42585495256e-06
6.47769934362e-05
-2.12251767853e-06
6.40261622986e-05
-3.0506620439e-06
-4.15350241604e-06
6.28399624216e-05
5.10850478639e-05
1.66764976731e-06
5.36118592266e-05
4.45459230206e-06
5.66873313226e-05
6.05632098064e-06
5.96894336164e-05
6.52303626647e-06
6.22996314297e-05
6.19186722705e-06
6.44134189665e-05
5.41738828797e-06
6.60466051186e-05
4.47530095203e-06
6.72675395336e-05
3.54232658395e-06
6.81580807475e-05
2.71190099308e-06
6.87949186892e-05
2.02041580994e-06
6.92425436102e-05
1.47057739961e-06
6.95520490631e-05
1.04808221569e-06
6.97624475036e-05
7.3205989254e-07
6.9902791729e-05
5.00908715351e-07
6.99943228136e-05
3.35135224879e-07
7.00523426976e-05
2.18425892938e-07
7.00877333424e-05
1.37769972089e-07
7.01081393723e-05
8.31338134083e-08
7.01188641246e-05
4.69701471079e-08
7.01235362082e-05
2.37115184955e-08
7.01246006989e-05
9.31782602398e-09
7.01236786701e-05
9.00412046731e-10
7.01217814349e-05
-3.63260016745e-09
7.01195549663e-05
-5.66451586703e-09
7.011736537e-05
-6.19004066916e-09
7.01154056372e-05
-5.86512939655e-09
7.01137575464e-05
-5.11770212177e-09
7.01124353447e-05
-4.21633348949e-09
7.01114154495e-05
-3.3198027025e-09
7.011065609e-05
-2.51316859228e-09
7.01101094576e-05
-1.83365448617e-09
7.01097287651e-05
-1.2890139222e-09
7.01094719881e-05
-8.70173194018e-10
7.01093042442e-05
-5.59377063497e-10
7.01091999606e-05
-3.35410294648e-10
7.01091428825e-05
-1.7924000266e-10
7.01091152313e-05
-7.51652431276e-11
7.01090895906e-05
1.64845596352e-12
7.01090791725e-05
4.16443239155e-11
7.01090764043e-05
7.05286743426e-11
7.01090744961e-05
9.06496404713e-11
7.01090719992e-05
1.0600004278e-10
7.01090683131e-05
1.19471419593e-10
7.01090631084e-05
1.32793945148e-10
7.01090561537e-05
1.46838964517e-10
7.01090473087e-05
1.61923837302e-10
7.01090365715e-05
1.78086446639e-10
7.0109023749e-05
1.95111867042e-10
7.01090072531e-05
2.12689340823e-10
7.01089882932e-05
2.30638229824e-10
7.01089675079e-05
2.48032074805e-10
7.01089454525e-05
2.633250484e-10
7.01089229033e-05
2.74280639467e-10
7.0108900782e-05
2.77755018535e-10
7.01088798194e-05
2.69468673792e-10
7.01088597166e-05
2.4392937522e-10
7.01088377454e-05
1.94755197898e-10
7.01088094879e-05
1.16959132417e-10
7.01087832799e-05
-3.83200539842e-11
7.0108746916e-05
-3.68845090314e-10
7.01087071841e-05
-8.78816966286e-10
7.0108630648e-05
-1.64182254831e-09
7.01084803909e-05
-2.77883813905e-09
7.01081936458e-05
-4.47287860179e-09
7.01076577619e-05
-7.00447559404e-09
7.01066775614e-05
-1.07999163423e-08
7.01049175891e-05
-1.65058460839e-08
7.01018082715e-05
-2.51147672419e-08
7.00963905394e-05
-3.81598530189e-08
7.00870686363e-05
-5.80330586734e-08
7.00711718546e-05
-8.84108953905e-08
7.00441634393e-05
-1.3483722966e-07
6.99983694183e-05
-2.05729096151e-07
6.99208419427e-05
-3.13548442311e-07
6.97899380853e-05
-4.76000928323e-07
6.95703137655e-05
-7.1658399595e-07
6.92070786975e-05
-1.06262060662e-06
6.86223616918e-05
-1.53780200653e-06
6.77204019669e-05
-2.14870392466e-06
-2.85724852419e-06
6.64241469048e-05
5.08804188812e-05
7.87231338368e-07
5.31704787937e-05
2.16453344659e-06
5.62177517971e-05
3.00904900522e-06
5.9438215169e-05
3.30257387038e-06
6.2444771389e-05
3.18531183665e-06
6.5037770567e-05
2.82438975569e-06
6.71538935716e-05
2.35917842184e-06
6.88118207226e-05
1.884399778e-06
7.00702969953e-05
1.45342495464e-06
7.10012330649e-05
1.08947985748e-06
7.16747787415e-05
7.97031694654e-07
7.21523628791e-05
5.70497891648e-07
7.24844406374e-05
3.99981802084e-07
7.27107190095e-05
2.7462987869e-07
7.28614945281e-05
1.84359137427e-07
7.29593386471e-05
1.20581135438e-07
7.30207426526e-05
7.63653302629e-08
7.30575532288e-05
4.63226859875e-08
7.30781478594e-05
2.63750781232e-08
7.30883585626e-05
1.35004290972e-08
7.30921782869e-05
5.49764973123e-09
7.30922927506e-05
7.85347357593e-10
7.30904342122e-05
-1.77479004095e-09
7.30877193179e-05
-2.950378673e-09
7.30848137462e-05
-3.28515440231e-09
7.30820896854e-05
-3.14167250302e-09
7.30797281637e-05
-2.75677251931e-09
7.30777908497e-05
-2.27965221177e-09
7.30762694407e-05
-1.7990358148e-09
7.30751189272e-05
-1.36318149735e-09
7.30742786787e-05
-9.93696593454e-10
7.30736853527e-05
-6.95719643318e-10
7.30732804717e-05
-4.65135212641e-10
7.30730142446e-05
-2.92912236499e-10
7.30728469303e-05
-1.67870021374e-10
7.30727468412e-05
-7.89897258889e-11
7.30726871868e-05
-1.54642208527e-11
7.30726624329e-05
2.62651116235e-11
7.3072649522e-05
5.41760885336e-11
7.30726450269e-05
7.44393321206e-11
7.30726446524e-05
9.040672575e-11
7.30726457058e-05
1.04534606856e-10
7.30726466542e-05
1.18477569324e-10
7.30726465854e-05
1.33161593458e-10
7.30726449322e-05
1.4897263608e-10
7.30726413589e-05
1.65995038617e-10
7.30726356953e-05
1.84178568389e-10
7.30726278254e-05
2.03327459296e-10
7.30726176948e-05
2.23091520994e-10
7.30726053754e-05
2.43145829598e-10
7.30725909467e-05
2.62580547845e-10
7.30725745373e-05
2.79889966907e-10
7.30725562776e-05
2.92921203702e-10
7.30725361424e-05
2.98659468514e-10
7.30725137911e-05
2.9295556945e-10
7.3072488664e-05
2.70381571999e-10
7.30724603111e-05
2.24423611234e-10
7.30724294656e-05
1.48972821804e-10
7.3072372513e-05
1.96400079064e-11
7.30722672731e-05
-2.62761536372e-10
7.30721021604e-05
-7.1308365848e-10
7.30718297259e-05
-1.369034522e-09
7.30713729098e-05
-2.32187004404e-09
7.3070604059e-05
-3.70393409995e-09
7.30693116062e-05
-5.71205217691e-09
7.30671484517e-05
-8.63705563504e-09
7.30635402837e-05
-1.28983046677e-08
7.3057542966e-05
-1.91183636702e-08
7.30476179606e-05
-2.82358362879e-08
7.30312929768e-05
-4.17088333525e-08
7.30045847434e-05
-6.17032514613e-08
7.29610201683e-05
-9.12732837935e-08
7.28902292112e-05
-1.34938651242e-07
7.27758072485e-05
-1.99126835634e-07
7.25923055856e-05
-2.92499537637e-07
7.23015099962e-05
-4.25788911767e-07
7.18491352189e-05
-6.10246685871e-07
7.11648594195e-05
-8.53527666216e-07
7.01698744093e-05
-1.15372044384e-06
-1.48941464109e-06
6.88020395466e-05
5.07871783565e-05
5.35401566062e-11
5.29516611229e-05
5.18838074509e-11
5.59606829239e-05
2.82767280129e-11
5.92632433622e-05
1.43729145785e-11
6.2448552263e-05
3.67291645561e-12
6.52729473179e-05
-4.77475291179e-12
6.76321363635e-05
-1.02631072735e-11
6.95165493591e-05
-1.29437785568e-11
7.09699877264e-05
-1.31906776154e-11
7.2059479324e-05
-1.15744491885e-11
7.28565198143e-05
-8.73066265352e-12
7.34270229684e-05
-5.35478207877e-12
7.38270066682e-05
-2.18422754921e-12
7.41016360667e-05
-6.7528278835e-15
7.42859937927e-05
7.65239069005e-13
7.44065746606e-05
-4.36060924562e-13
7.44829428199e-05
-3.46512161996e-12
7.45292727769e-05
-7.76181767382e-12
7.45556599088e-05
-1.24295025018e-11
7.45691763106e-05
-1.63516274703e-11
7.45746916668e-05
-1.81966646978e-11
7.45754950785e-05
-1.87088311662e-11
7.45737378012e-05
-1.82355614354e-11
7.45708040762e-05
-1.73351959068e-11
7.45675344073e-05
-1.60727499279e-11
7.45644063777e-05
-1.41998561691e-11
7.45616604435e-05
-1.14528272384e-11
7.45593877476e-05
-7.65908599057e-12
7.45575905321e-05
-2.5123909563e-12
7.45562235815e-05
3.23085051755e-12
7.45552201734e-05
9.42258418386e-12
7.45545082336e-05
1.61639850767e-11
7.45540201849e-05
2.30053435869e-11
7.45536975965e-05
2.98266227524e-11
7.45534930241e-05
3.68620998627e-11
7.45533698617e-05
4.43106668554e-11
7.45533023314e-05
5.21178474424e-11
7.4553268332e-05
6.01258678453e-11
7.45532540302e-05
6.80812448864e-11
7.45532508536e-05
7.70332607878e-11
7.45532533692e-05
8.73432674074e-11
7.45532583416e-05
9.92875575774e-11
7.45532638497e-05
1.13039274409e-10
7.45532687322e-05
1.2856441991e-10
7.45532723349e-05
1.45694204035e-10
7.4553274352e-05
1.64246848903e-10
7.45532746809e-05
1.8407176386e-10
7.45532732552e-05
2.04983406991e-10
7.45532699384e-05
2.26655867123e-10
7.45532646687e-05
2.48640290197e-10
7.45532573939e-05
2.70065006994e-10
7.45532480165e-05
2.89571324322e-10
7.45532362797e-05
3.05230814177e-10
7.45532215206e-05
3.14359543304e-10
7.45532023929e-05
3.13318826484e-10
7.45531766737e-05
2.97440482938e-10
7.45531412773e-05
2.61077767651e-10
7.45530936856e-05
1.97665793348e-10
7.4553013513e-05
1.00724251178e-10
7.45528484149e-05
-9.69985152469e-11
7.45525954799e-05
-4.59776166258e-10
7.4552179317e-05
-9.52744314548e-10
7.45514949353e-05
-1.63738911119e-09
7.45503735533e-05
-2.58238089684e-09
7.45485410046e-05
-3.87935543236e-09
7.4545557665e-05
-5.65386803149e-09
7.45407025818e-05
-8.04385654811e-09
7.45328022115e-05
-1.1218913649e-08
7.45199644911e-05
-1.53989865575e-08
7.44992078342e-05
-2.09528508576e-08
7.44658585669e-05
-2.83545121041e-08
7.44124189386e-05
-3.78340779644e-08
7.4327177977e-05
-4.96981672757e-08
7.41921478107e-05
-6.40969979767e-08
7.39803701603e-05
-8.07220359431e-08
7.36529237816e-05
-9.83430871519e-08
7.31567886681e-05
-1.14112588557e-07
7.24260340045e-05
-1.22774416574e-07
7.13894050375e-05
-1.17092778427e-07
-8.83995349961e-08
6.99883891812e-05
5.07871773345e-05
-7.87123142565e-07
5.2951660288e-05