/*--------------------------------*- C++ -*----------------------------------*\
| =========                 |                                                 |
| \\      /  F ield         | OpenFOAM: The Open Source CFD Toolbox           |
|  \\    /   O peration     | Version:  2106                                  |
|   \\  /    A nd           | Website:  www.openfoam.com                      |
|    \\/     M anipulation  |                                                 |
\*---------------------------------------------------------------------------*/
FoamFile
{
    version     2.0;
    format      ascii;
    arch        "LSB;label=32;scalar=64";
    class       surfaceScalarField;
    location    "0.069";
    object      phi;
}
// * * * * * * * * * * * * * * * * * * * * * * * * * * * * * * * * * * * * * //

dimensions      [0 3 -1 0 0 0 0];

oriented        oriented;

internalField   nonuniform List<scalar> 
799
(
1.79247e-32
4.58441e-32
5.912e-32
4.83604e-32
2.32029e-32
-4.35381e-32
-1.03018e-31
-1.48998e-31
-1.59145e-31
-1.21481e-31
-6.57861e-32
-3.61497e-33
3.47478e-32
4.43721e-32
2.26607e-32
-1.67e-32
-6.77325e-32
-1.20234e-31
-1.60358e-31
-1.88138e-31
-1.79783e-31
-1.43464e-31
-8.20702e-32
-1.10786e-32
2.973e-32
3.90435e-32
-2.41305e-33
-7.28393e-32
-1.38946e-31
-1.91367e-31
-1.94057e-31
-1.66602e-31
-1.20125e-31
-6.49437e-32
-3.99351e-32
-2.87476e-32
-4.58477e-32
-8.36589e-32
-1.13461e-31
-1.50088e-31
-1.58991e-31
-1.46453e-31
-1.22932e-31
-7.61683e-32
-5.08765e-32
-4.05228e-32
-5.63801e-32
-1.0529e-31
-1.45196e-31
-1.81438e-31
-1.83322e-31
-1.49433e-31
-1.06206e-31
-5.18527e-32
-2.73843e-32
-3.34836e-32
-6.65243e-32
-1.25553e-31
-1.70892e-31
-1.95982e-31
-1.82751e-31
-1.29534e-31
-6.73656e-32
-1.2366e-32
5.1308e-34
-4.01632e-32
-1.13892e-31
-1.97342e-31
-2.42696e-31
-2.25105e-31
-1.53646e-31
-5.18135e-32
2.47207e-32
4.13503e-32
-5.6198e-33
-9.92792e-32
-1.85657e-31
-2.30149e-31
-2.18497e-31
-1.59088e-31
-9.26805e-32
-4.35031e-32
-2.79604e-32
-4.27842e-32
-6.67157e-32
-9.24687e-32
-1.11854e-31
-1.298e-31
-1.49907e-31
-1.61975e-31
-1.59811e-31
-1.28496e-31
-7.57487e-32
-2.21557e-32
1.06889e-32
-8.02421e-33
-6.64416e-32
-1.48045e-31
-2.17236e-31
-2.30428e-31
-1.94983e-31
-1.09044e-31
-1.80492e-32
3.53513e-32
4.45499e-32
-1.32357e-32
-9.23385e-32
-1.65965e-31
-2.09731e-31
-1.92572e-31
-1.48581e-31
-8.56722e-32
-3.88827e-32
-3.01589e-32
-4.14562e-32
-7.19395e-32
-8.865e-32
-8.6024e-32
-7.31609e-32
-5.91479e-32
-6.89506e-32
-9.93289e-32
-1.40749e-31
-1.71458e-31
-1.69929e-31
-1.35145e-31
-7.56695e-32
-1.61056e-32
2.18113e-32
2.72718e-32
-2.57706e-33
-5.48604e-32
-1.15733e-31
-1.70972e-31
-2.02757e-31
-2.05412e-31
-1.71618e-31
-1.07404e-31
-3.35896e-32
3.12592e-32
5.66149e-32
3.41163e-32
-2.9029e-32
-1.13164e-31
-1.7795e-31
-2.04393e-31
-1.80857e-31
-1.20566e-31
-5.77909e-32
-1.4443e-32
-1.3626e-32
-4.81693e-32
-9.51473e-32
-1.32221e-31
-1.32725e-31
-9.98083e-32
-4.89875e-32
-7.24782e-33
-4.42212e-33
-4.44469e-32
-1.15543e-31
-1.82369e-31
-2.09296e-31
-1.7838e-31
-9.81748e-32
-8.80633e-33
4.9285e-32
4.13706e-32
-2.51334e-32
-1.15097e-31
-1.85871e-31
-1.92775e-31
-1.46402e-31
-6.89515e-32
-6.28636e-33
1.11343e-34
-3.58768e-32
-1.0478e-31
-1.5441e-31
-1.56607e-31
-1.20406e-31
-4.94883e-32
-8.87733e-35
1.32821e-32
-1.58633e-32
-8.3316e-32
-1.39368e-31
-1.7592e-31
-1.6834e-31
-1.21397e-31
-6.61888e-32
-1.04117e-32
1.24403e-32
3.70403e-33
-2.80682e-32
-7.68619e-32
-1.14739e-31
-1.39276e-31
-1.434e-31
-1.26166e-31
-1.00128e-31
-6.51574e-32
-3.19933e-32
-1.01292e-32
-3.5878e-33
-2.28413e-32
-6.26168e-32
-1.09071e-31
-1.45755e-31
-1.48953e-31
-1.15011e-31
-5.6983e-32
1.57986e-34
2.11341e-32
-7.40533e-33
-7.52662e-32
-1.50586e-31
-1.87867e-31
-1.61886e-31
-7.92896e-32
2.36588e-32
9.046e-32
8.06784e-32
-5.70331e-33
-1.34626e-31
-2.39164e-31
-2.63892e-31
-1.96639e-31
-6.01522e-32
7.41152e-32
1.42853e-31
1.18128e-31
5.00281e-33
-1.31138e-31
-2.30713e-31
-2.51773e-31
-1.8181e-31
-6.90356e-32
4.06973e-32
9.88403e-32
8.114e-32
1.21973e-32
-7.89467e-32
-1.47185e-31
-1.63815e-31
-1.31613e-31
-6.76152e-32
-6.13439e-33
2.38078e-32
1.27879e-32
-2.49498e-32
-6.52559e-32
-7.76067e-32
-5.12899e-32
-5.12327e-33
3.89e-32
4.46786e-32
4.73959e-33
-5.6335e-32
-1.10797e-31
-1.15073e-31
-6.14251e-32
2.43028e-32
1.09526e-31
1.47421e-31
1.25646e-31
6.66655e-32
-1.91389e-33
-3.80341e-32
-2.73324e-32
1.25351e-32
6.89862e-32
1.11305e-31
1.32654e-31
1.47048e-31
1.51766e-31
1.65024e-31
1.79861e-31
1.86582e-31
1.95398e-31
1.98491e-31
2.12299e-31
2.38573e-31
2.65964e-31
2.93537e-31
3.08006e-31
3.20331e-31
3.46929e-31
3.99626e-31
4.80172e-31
5.64908e-31
6.22709e-31
6.29212e-31
5.92048e-31
5.43104e-31
5.34091e-31
6.00004e-31
7.34432e-31
9.03901e-31
1.04227e-30
1.11133e-30
1.10861e-30
1.06642e-30
1.05228e-30
1.10071e-30
1.22355e-30
1.39022e-30
1.54512e-30
1.66222e-30
1.72778e-30
1.7728e-30
1.83657e-30
1.93714e-30
2.08349e-30
2.24381e-30
2.39295e-30
2.51885e-30
2.62113e-30
2.73376e-30
2.87447e-30
3.05463e-30
3.26825e-30
3.4805e-30
3.67756e-30
3.84506e-30
3.99478e-30
4.16198e-30
4.36129e-30
4.61521e-30
4.90783e-30
5.20727e-30
5.49387e-30
5.73545e-30
5.94997e-30
6.16243e-30
6.40343e-30
6.71541e-30
7.08634e-30
7.50334e-30
7.9229e-30
8.29245e-30
8.59734e-30
8.84043e-30
9.02507e-30
9.36997e-30
9.82455e-30
1.11064e-29
1.34523e-29
1.69915e-29
2.37926e-29
2.64013e-29
2.91153e-29
1.19715e-29
-3.08499e-29
-8.22913e-29
-1.87947e-28
-1.78646e-28
-1.17908e-28
1.70062e-28
8.14247e-28
1.17957e-27
1.82202e-27
1.06039e-27
-7.5751e-28
-3.03282e-27
-7.53924e-27
-7.20964e-27
-5.92732e-27
1.75203e-27
1.688e-26
2.26716e-26
3.30524e-26
1.66519e-26
-1.36075e-26
-4.10038e-26
-9.04921e-26
-7.13189e-26
-4.21914e-26
3.15736e-26
1.54628e-25
1.62739e-25
1.92001e-25
5.43146e-26
-1.45597e-25
-2.41559e-25
-4.15708e-25
-2.36521e-25
-3.164e-26
2.19157e-25
5.89199e-25
4.5516e-25
3.83038e-25
-3.70808e-26
-5.43999e-25
-5.80046e-25
-7.54249e-25
-2.54575e-25
2.23631e-25
5.06851e-25
9.15296e-25
5.06862e-25
2.23647e-25
-2.54561e-25
-7.54244e-25
-5.80052e-25
-5.44011e-25
-3.70948e-26
3.83029e-25
4.55158e-25
5.89203e-25
2.19165e-25
-3.16343e-26
-2.36519e-25
-4.15709e-25
-2.41564e-25
-1.45602e-25
5.4311e-26
1.91999e-25
1.62739e-25
1.54628e-25
3.1574e-26
-4.21916e-26
-7.13196e-26
-9.04927e-26
-4.10047e-26
-1.36082e-26
1.6651e-26
3.30515e-26
2.26708e-26
1.68792e-26
1.75135e-27
-5.92791e-27
-7.21014e-27
-7.53968e-27
-3.03329e-27
-7.57991e-28
1.05985e-27
1.82146e-27
1.179e-27
8.13689e-28
1.69577e-28
-1.18312e-28
-1.78949e-28
-1.88182e-28
-8.25251e-29
-3.11278e-29
1.15881e-29
2.86496e-29
2.59033e-29
2.33359e-29
1.66626e-29
1.32598e-29
1.10338e-29
9.79919e-30
9.3036e-30
8.87364e-30
8.57778e-30
8.25798e-30
7.93662e-30
7.60485e-30
7.28212e-30
6.97748e-30
6.7049e-30
6.4566e-30
6.20905e-30
5.94114e-30
5.63846e-30
5.30999e-30
4.99116e-30
4.70887e-30
4.48974e-30
4.32685e-30
4.19069e-30
4.05539e-30
3.88495e-30
3.68145e-30
3.45248e-30
3.2184e-30
3.01071e-30
2.83529e-30
2.7058e-30
2.6108e-30
2.53042e-30
2.44755e-30
2.3351e-30
2.18832e-30
2.0171e-30
1.84396e-30
1.70313e-30
1.61703e-30
1.57939e-30
1.57155e-30
1.5503e-30
1.48058e-30
1.36339e-30
1.20542e-30
1.05785e-30
9.56878e-31
9.12969e-31
9.30773e-31
9.58362e-31
9.64914e-31
9.23052e-31
8.19713e-31
6.94411e-31
5.72697e-31
4.96156e-31
4.86448e-31
5.25396e-31
5.88871e-31
6.27534e-31
6.04528e-31
5.14503e-31
3.77583e-31
2.44005e-31
1.68805e-31
1.76671e-31
2.59473e-31
3.70175e-31
4.43626e-31
4.40587e-31
3.51661e-31
2.15363e-31
8.93571e-32
2.15524e-32
3.28311e-32
1.00428e-31
1.86854e-31
2.44003e-31
2.52071e-31
2.118e-31
1.41493e-31
7.73171e-32
3.07306e-32
2.11809e-32
3.84424e-32
6.76656e-32
1.00477e-31
1.07744e-31
9.99415e-32
7.0489e-32
3.60487e-32
2.23814e-32
1.98047e-32
4.60087e-32
6.90984e-32
7.29649e-32
5.90298e-32
1.15262e-32
-2.60689e-32
-4.46929e-32
-3.24482e-32
1.75515e-32
6.13187e-32
9.16856e-32
8.65021e-32
4.69299e-32
6.55719e-33
-2.99918e-32
-4.16663e-32
-3.65174e-32
-3.46494e-32
-3.1671e-32
-3.43177e-32
-2.17974e-32
1.9246e-32
7.2125e-32
1.22284e-31
1.25276e-31
6.2519e-32
-4.48651e-32
-1.64741e-31
-2.23208e-31
-1.86936e-31
-6.46014e-32
1.05789e-31
2.27771e-31
2.50987e-31
1.55581e-31
-2.76713e-32
-1.97505e-31
-2.9102e-31
-2.53706e-31
-1.00311e-31
8.31453e-32
2.29198e-31
2.54931e-31
1.57048e-31
-7.94145e-33
-1.76294e-31
-2.52313e-31
-2.1865e-31
-9.76849e-32
5.76666e-32
1.58342e-31
1.80935e-31
1.18134e-31
7.17108e-33
-8.72822e-32
-1.45381e-31
-1.41719e-31
-9.73798e-32
-4.18717e-32
1.55842e-32
4.80083e-32
6.54809e-32
6.45939e-32
4.39159e-32
1.61853e-32
-2.50642e-32
-6.09077e-32
-8.67865e-32
-9.59215e-32
-8.22052e-32
-5.59317e-32
-1.65788e-32
2.08286e-32
5.32576e-32
6.86094e-32
6.06864e-32
3.30884e-32
-1.72598e-32
-6.32465e-32
-1.00241e-31
-1.09933e-31
-8.6062e-32
-5.04383e-32
8.96761e-34
3.63218e-32
5.39005e-32
5.61318e-32
3.04297e-32
2.86633e-33
-3.47675e-32
-6.81825e-32
-8.26886e-32
-8.59205e-32
-6.01046e-32
-2.31177e-32
1.60394e-32
4.7584e-32
5.07904e-32
3.49698e-32
-2.70834e-34
-3.90482e-32
-6.56398e-32
-7.67844e-32
-6.49155e-32
-3.88978e-32
-6.43922e-33
2.13507e-32
3.46833e-32
2.892e-32
8.71182e-33
-1.60589e-32
-3.50549e-32
-3.52084e-32
-2.65805e-32
-1.27334e-32
-8.25385e-33
-2.11702e-32
-3.21495e-32
-3.89384e-32
-1.87086e-32
2.07786e-32
5.42285e-32
6.84638e-32
3.39671e-32
-2.73258e-32
-8.947e-32
-1.19486e-31
-8.72108e-32
-1.62485e-32
6.86444e-32
1.17169e-31
1.03068e-31
3.89369e-32
-5.04338e-32
-1.08948e-31
-1.14225e-31
-6.37573e-32
1.65705e-32
7.63202e-32
9.42833e-32
5.69753e-32
-9.02629e-33
-6.37964e-32
-8.4292e-32
-5.21265e-32
7.2233e-33
6.27627e-32
8.74908e-32
6.03365e-32
2.37995e-33
-6.17509e-32
-1.01115e-31
-9.00011e-32
-4.05096e-32
3.09473e-32
9.35836e-32
1.1607e-31
9.83864e-32
4.24013e-32
-2.92072e-32
-8.53006e-32
-1.16309e-31
-1.05172e-31
-5.91712e-32
3.50645e-33
7.28002e-32
1.18086e-31
1.30303e-31
1.03063e-31
3.60593e-32
-4.20424e-32
-1.12403e-31
-1.43382e-31
-1.17899e-31
-4.64901e-32
5.22108e-32
1.33124e-31
1.63208e-31
1.29033e-31
4.04803e-32
-5.93713e-32
-1.27861e-31
-1.33759e-31
-7.35205e-32
2.06959e-32
1.05196e-31
1.41084e-31
1.10604e-31
3.47758e-32
-4.98605e-32
-1.0253e-31
-9.36739e-32
-3.6458e-32
4.59583e-32
1.11244e-31
1.23374e-31
8.91766e-32
1.51975e-32
-5.32677e-32
-8.17655e-32
-6.90973e-32
-6.77386e-33
5.82463e-32
1.01165e-31
1.09749e-31
6.73771e-32
1.62621e-32
-3.19945e-32
-5.43278e-32
-3.46938e-32
-1.52495e-33
4.36268e-32
7.44462e-32
8.01051e-32
7.20584e-32
4.77412e-32
2.58225e-32
1.28345e-32
5.69203e-33
7.82447e-33
1.03664e-32
8.66142e-33
9.94494e-33
1.01706e-32
2.00994e-32
4.30536e-32
6.71081e-32
9.64108e-32
1.05127e-31
9.1314e-32
5.63538e-32
-1.54751e-33
-4.50276e-32
-7.06651e-32
-5.56259e-32
-1.94173e-33
6.24016e-32
1.25904e-31
1.49666e-31
1.34683e-31
8.30851e-32
1.96535e-32
-2.91429e-32
-4.944e-32
-2.79297e-32
3.00701e-33
5.20287e-32
7.26723e-32
7.3563e-32
6.68027e-32
2.22429e-32
1.31076e-32
-1.91096e-32
-2.50621e-32
-4.88543e-33
)
;

boundaryField
{
    left
    {
        type            calculated;
        value           uniform 0;
    }
    right
    {
        type            calculated;
        value           uniform 0;
    }
    empty
    {
        type            empty;
        value           nonuniform List<scalar> 0();
    }
}


// ************************************************************************* //
