/*--------------------------------*- C++ -*----------------------------------*\
| =========                 |                                                 |
| \\      /  F ield         | OpenFOAM: The Open Source CFD Toolbox           |
|  \\    /   O peration     | Version:  2106                                  |
|   \\  /    A nd           | Website:  www.openfoam.com                      |
|    \\/     M anipulation  |                                                 |
\*---------------------------------------------------------------------------*/
FoamFile
{
    version     2.0;
    format      ascii;
    arch        "LSB;label=32;scalar=64";
    class       volVectorField;
    location    "0.09";
    object      E;
}
// * * * * * * * * * * * * * * * * * * * * * * * * * * * * * * * * * * * * * //

dimensions      [1 1 -3 0 0 -1 0];

internalField   nonuniform List<vector> 
11200
(
(-1.34169048139e-10 6.80433694291e-14 0)
(-1.34583125793e-10 1.83867552579e-13 0)
(-1.35526173976e-10 2.75350015735e-13 0)
(-1.37008835237e-10 3.64535429626e-13 0)
(-1.39000423277e-10 4.53074743295e-13 0)
(-1.41501348811e-10 5.41629119434e-13 0)
(-1.44513625657e-10 6.3053770685e-13 0)
(-1.4804030741e-10 7.20016054699e-13 0)
(-1.520852565e-10 8.10224421836e-13 0)
(-1.56653030978e-10 9.0129453563e-13 0)
(-1.61748818128e-10 9.9334121149e-13 0)
(-1.67378388221e-10 1.08646779418e-12 0)
(-1.73548057237e-10 1.18076883452e-12 0)
(-1.8026465343e-10 1.27633143639e-12 0)
(-1.87535485256e-10 1.37323592835e-12 0)
(-1.95368309361e-10 1.47155617868e-12 0)
(-2.0377129799e-10 1.57135971846e-12 0)
(-2.12753005447e-10 1.67270776203e-12 0)
(-2.22322333449e-10 1.77565517653e-12 0)
(-2.32488495317e-10 1.88025043215e-12 0)
(-2.43260978991e-10 1.98653555466e-12 0)
(-2.54649508951e-10 2.09454609638e-12 0)
(-2.66664007129e-10 2.20431113924e-12 0)
(-2.79314552943e-10 2.31585334301e-12 0)
(-2.92611342628e-10 2.42918905201e-12 0)
(-3.06564648073e-10 2.54432847488e-12 0)
(-3.21184775401e-10 2.6612759539e-12 0)
(-3.36482023599e-10 2.78003034307e-12 0)
(-3.52466643538e-10 2.90058551725e-12 0)
(-3.69148797808e-10 3.0229310393e-12 0)
(-3.86538521837e-10 3.14705301692e-12 0)
(-4.04645686899e-10 3.27293518771e-12 0)
(-4.23479965669e-10 3.40056027842e-12 0)
(-4.43050801163e-10 3.52991169423e-12 0)
(-4.63367380005e-10 3.66097560536e-12 0)
(-4.84438611208e-10 3.79374351271e-12 0)
(-5.06273111823e-10 3.92821539157e-12 0)
(-5.28879201116e-10 4.06440353363e-12 0)
(-5.52264905267e-10 4.20233723375e-12 0)
(-5.76437974967e-10 4.34206849961e-12 0)
(-6.01405918793e-10 4.48367900159e-12 0)
(-6.2717605584e-10 4.62728852825e-12 0)
(-6.53755591797e-10 4.77306527226e-12 0)
(-6.81151723592e-10 4.92123834477e-12 0)
(-7.09371778765e-10 5.07211300737e-12 0)
(-7.3842339714e-10 5.22608922435e-12 0)
(-7.68314763978e-10 5.38368428016e-12 0)
(-7.99054905899e-10 5.54556038615e-12 0)
(-8.3065406338e-10 5.71255842804e-12 0)
(-8.6312415689e-10 5.88573929655e-12 0)
(-8.9647936771e-10 6.06643461774e-12 0)
(-9.30736859602e-10 6.25630918801e-12 0)
(-9.65917673989e-10 6.45743805935e-12 0)
(-1.00204783965e-09 6.67240207374e-12 0)
(-1.03915974879e-09 6.90440679404e-12 0)
(-1.07729386545e-09 7.15743134318e-12 0)
(-1.11650085127e-09 7.43641582949e-12 0)
(-1.15684421872e-09 7.74749906854e-12 0)
(-1.19840365636e-09 8.09832263147e-12 0)
(-1.24127921856e-09 8.49842349248e-12 0)
(-1.28559663864e-09 8.95974672213e-12 0)
(-1.33151411978e-09 9.49732339372e-12 0)
(-1.37923109684e-09 1.01301797779e-11 0)
(-1.428999667e-09 1.08825764145e-11 0)
(-1.48113969774e-09 1.17857273606e-11 0)
(-1.53605910056e-09 1.28802342101e-11 0)
(-1.5942815204e-09 1.42196107655e-11 0)
(-1.65648493397e-09 1.58755185264e-11 0)
(-1.72355674469e-09 1.79457706948e-11 0)
(-1.79667462166e-09 2.05669780686e-11 0)
(-1.87742899768e-09 2.39353021195e-11 0)
(-1.96801588942e-09 2.83420560234e-11 0)
(-2.07155449773e-09 3.42380610739e-11 0)
(-2.19263985468e-09 4.23575183406e-11 0)
(-2.33837155429e-09 5.39752899676e-11 0)
(-2.52043660042e-09 7.14933636866e-11 0)
(-2.75979529247e-09 9.99375837649e-11 0)
(-3.09869075104e-09 1.51321237411e-10 0)
(-3.63653313913e-09 2.59384086866e-10 0)
(-4.65640043868e-09 5.37353217931e-10 0)
(-1.33967519401e-10 9.31118920348e-14 0)
(-1.34417280476e-10 2.50150687241e-13 0)
(-1.35381639675e-10 3.77171993072e-13 0)
(-1.36866655455e-10 4.99047870702e-13 0)
(-1.38858748325e-10 6.18881723103e-13 0)
(-1.41359378441e-10 7.38054691269e-13 0)
(-1.44370916109e-10 8.57285620529e-13 0)
(-1.47896558038e-10 9.77009831506e-13 0)
(-1.51940233715e-10 1.09752799684e-12 0)
(-1.56506537546e-10 1.21907012641e-12 0)
(-1.61600679521e-10 1.3418252967e-12 0)
(-1.67228446123e-10 1.46595639029e-12 0)
(-1.73396166323e-10 1.59160780148e-12 0)
(-1.80110679755e-10 1.71890964485e-12 0)
(-1.87379305462e-10 1.84798014323e-12 0)
(-1.95209810329e-10 1.9789270344e-12 0)
(-2.03610376723e-10 2.11184843823e-12 0)
(-2.1258956908e-10 2.24683342747e-12 0)
(-2.22156299313e-10 2.38396244386e-12 0)
(-2.32319791015e-10 2.5233076477e-12 0)
(-2.4308954246e-10 2.66493326055e-12 0)
(-2.54475288484e-10 2.80889594654e-12 0)
(-2.66486961332e-10 2.95524527103e-12 0)
(-2.79134650612e-10 3.10402427345e-12 0)
(-2.92428562522e-10 3.2552701927e-12 0)
(-3.06378978551e-10 3.40901538699e-12 0)
(-3.20996213907e-10 3.56528849603e-12 0)
(-3.36290575948e-10 3.72411590116e-12 0)
(-3.52272322981e-10 3.88552354938e-12 0)
(-3.68951623808e-10 4.04953921982e-12 0)
(-3.86338518518e-10 4.2161953266e-12 0)
(-4.04442881089e-10 4.38553237176e-12 0)
(-4.23274384464e-10 4.55760318481e-12 0)
(-4.42842468901e-10 4.73247811477e-12 0)
(-4.6315631455e-10 4.91025137509e-12 0)
(-4.84224819379e-10 5.09104878491e-12 0)
(-5.06056583806e-10 5.27503720229e-12 0)
(-5.28659903642e-10 5.46243600863e-12 0)
(-5.52042773294e-10 5.65353108158e-12 0)
(-5.76212901552e-10 5.84869178938e-12 0)
(-6.0117774277e-10 6.04839165635e-12 0)
(-6.26944546823e-10 6.25323349339e-12 0)
(-6.53520431944e-10 6.46397996488e-12 0)
(-6.80912485404e-10 6.68159078226e-12 0)
(-7.09127898061e-10 6.90726798679e-12 0)
(-7.38174140121e-10 7.14251112262e-12 0)
(-7.68059187049e-10 7.38918452522e-12 0)
(-7.9879180658e-10 7.64959948404e-12 0)
(-8.30381920251e-10 7.92661471453e-12 0)
(-8.62841055938e-10 8.22375943788e-12 0)
(-8.96182911797e-10 8.54538447807e-12 0)
(-9.30424056849e-10 8.89684822963e-12 0)
(-9.6558479968e-10 9.2847462445e-12 0)
(-1.00169026467e-09 9.71719570155e-12 0)
(-1.03877172537e-09 1.0204189401e-11 0)
(-1.07686825822e-09 1.07580385218e-11 0)
(-1.11602879709e-09 1.13939297182e-11 0)
(-1.15631469328e-09 1.21306309913e-11 0)
(-1.19780291682e-09 1.2991393348e-11 0)
(-1.24059007929e-09 1.40051133799e-11 0)
(-1.28479751872e-09 1.52078484299e-11 0)
(-1.33057777334e-09 1.66448155484e-11 0)
(-1.37812289443e-09 1.83730654132e-11 0)
(-1.42767522893e-09 2.04651151868e-11 0)
(-1.47954157151e-09 2.30139709876e-11 0)
(-1.53411199384e-09 2.61402081472e-11 0)
(-1.59188529294e-09 3.00021721429e-11 0)
(-1.65350400603e-09 3.48110386829e-11 0)
(-1.71980357706e-09 4.08536664505e-11 0)
(-1.79188299652e-09 4.8528369496e-11 0)
(-1.87120893532e-09 5.84029334994e-11 0)
(-1.95977368225e-09 7.13126174187e-11 0)
(-2.06034212788e-09 8.85336804844e-11 0)
(-2.17685007156e-09 1.12107923745e-10 0)
(-2.31506287801e-09 1.45489591132e-10 0)
(-2.48366676538e-09 1.94933476536e-10 0)
(-2.69593299349e-09 2.72734036347e-10 0)
(-2.97113354856e-09 4.05513014276e-10 0)
(-3.32770755472e-09 6.57548458775e-10 0)
(-3.713754045e-09 1.20268065714e-09 0)
(-1.33894438075e-10 4.45379550134e-14 0)
(-1.34355877712e-10 1.21531960796e-13 0)
(-1.35327056229e-10 1.89443589046e-13 0)
(-1.36815467453e-10 2.52177180506e-13 0)
(-1.38809217821e-10 3.12098475026e-13 0)
(-1.41310625693e-10 3.70522281814e-13 0)
(-1.44322461545e-10 4.28198631726e-13 0)
(-1.47848113509e-10 4.85583626996e-13 0)
(-1.51891608264e-10 5.42976547496e-13 0)
(-1.56457593138e-10 6.00589073817e-13 0)
(-1.61551309117e-10 6.58581191463e-13 0)
(-1.67178562218e-10 7.17080519503e-13 0)
(-1.73345694633e-10 7.76193155441e-13 0)
(-1.80059555557e-10 8.36010039206e-13 0)
(-1.87327471344e-10 8.96610879889e-13 0)
(-1.95157214725e-10 9.580667242e-13 0)
(-2.03556972876e-10 1.02044175653e-12 0)
(-2.12535314242e-10 1.0837946658e-12 0)
(-2.22101154073e-10 1.14817977909e-12 0)
(-2.32263718664e-10 1.21364808943e-12 0)
(-2.43032508352e-10 1.28024826627e-12 0)
(-2.54417259343e-10 1.34802771739e-12 0)
(-2.66427904468e-10 1.41703376215e-12 0)
(-2.79074533005e-10 1.48731497405e-12 0)
(-2.92367349737e-10 1.55892275346e-12 0)
(-3.0631663343e-10 1.63191319756e-12 0)
(-3.2093269499e-10 1.7063493448e-12 0)
(-3.36225835556e-10 1.78230388386e-12 0)
(-3.52206304883e-10 1.85986243395e-12 0)
(-3.68884260386e-10 1.93912752438e-12 0)
(-3.86269727315e-10 2.02022342689e-12 0)
(-4.04372560612e-10 2.10330202589e-12 0)
(-4.23202409075e-10 2.1885499507e-12 0)
(-4.4276868261e-10 2.27619724087e-12 0)
(-4.63080523468e-10 2.36652787352e-12 0)
(-4.84146782547e-10 2.45989255203e-12 0)
(-5.05976002044e-10 2.55672424108e-12 0)
(-5.28576406012e-10 2.65755703831e-12 0)
(-5.51955900642e-10 2.7630491005e-12 0)
(-5.76122086507e-10 2.87401049958e-12 0)
(-6.0108228543e-10 2.99143707577e-12 0)
(-6.26843585193e-10 3.1165515914e-12 0)
(-6.53412905966e-10 3.25085377973e-12 0)
(-6.80797093174e-10 3.39618124227e-12 0)
(-7.09003042493e-10 3.55478359278e-12 0)
(-7.38037863909e-10 3.72941279952e-12 0)
(-7.67909093289e-10 3.92343336902e-12 0)
(-7.98624961747e-10 4.14095688335e-12 0)
(-8.30194735416e-10 4.3870065022e-12 0)
(-8.62629141079e-10 4.66771844001e-12 0)
(-8.95940896677e-10 4.99058922565e-12 0)
(-9.30145370189e-10 5.36477987946e-12 0)
(-9.65261396011e-10 5.80149118774e-12 0)
(-1.00131228513e-09 6.31442828265e-12 0)
(-1.03832707453e-09 6.92037812382e-12 0)
(-1.07634207319e-09 7.63993077899e-12 0)
(-1.1154027773e-09 8.49838541891e-12 0)
(-1.15556624782e-09 9.52689588321e-12 0)
(-1.19690407044e-09 1.07639303469e-11 0)
(-1.23950605449e-09 1.2257147797e-11 0)
(-1.2834848769e-09 1.40658350234e-11 0)
(-1.32898194619e-09 1.62641084339e-11 0)
(-1.37617485713e-09 1.89451761594e-11 0)
(-1.42528694254e-09 2.22270955524e-11 0)
(-1.47659962337e-09 2.62606793435e-11 0)
(-1.53046853964e-09 3.12405519788e-11 0)
(-1.58734485597e-09 3.74209267913e-11 0)
(-1.64780373853e-09 4.51386290249e-11 0)
(-1.71258288004e-09 5.48475359028e-11 0)
(-1.78263520802e-09 6.71715331183e-11 0)
(-1.85920159934e-09 8.29884716366e-11 0)
(-1.94391129183e-09 1.03567865161e-10 0)
(-2.03891825267e-09 1.30805326583e-10 0)
(-2.14707512616e-09 1.67638183488e-10 0)
(-2.27211111206e-09 2.18814011633e-10 0)
(-2.41864104425e-09 2.92370171882e-10 0)
(-2.59133166227e-09 4.02568830669e-10 0)
(-2.7908392131e-09 5.7571250719e-10 0)
(-2.99879902484e-09 8.60596998743e-10 0)
(-3.13127283316e-09 1.33869605686e-09 0)
(-1.33834663469e-10 3.53774617707e-14 0)
(-1.34301355969e-10 1.01688005974e-13 0)
(-1.35277123499e-10 1.62605379151e-13 0)
(-1.36768531546e-10 2.19483252294e-13 0)
(-1.38764072244e-10 2.73710174565e-13 0)
(-1.41266498315e-10 3.26290841791e-13 0)
(-1.44278867033e-10 3.77898824348e-13 0)
(-1.47804735706e-10 4.28987247376e-13 0)
(-1.51848229358e-10 4.79871851284e-13 0)
(-1.56414053831e-10 5.30783159703e-13 0)
(-1.61507486365e-10 5.81897645572e-13 0)
(-1.67134356552e-10 6.33356260282e-13 0)
(-1.73301022707e-10 6.85275640692e-13 0)
(-1.80014345576e-10 7.37755103919e-13 0)
(-1.87281660114e-10 7.90881206643e-13 0)
(-1.95110745628e-10 8.44730884546e-13 0)
(-2.0350979437e-10 8.99373761097e-13 0)
(-2.12487378662e-10 9.54873977063e-13 0)
(-2.22052416574e-10 1.01129175971e-12 0)
(-2.32214136225e-10 1.06868487723e-12 0)
(-2.42982038757e-10 1.12711008419e-12 0)
(-2.54365860087e-10 1.18662464349e-12 0)
(-2.66375531527e-10 1.24728800204e-12 0)
(-2.79021139419e-10 1.3091636967e-12 0)
(-2.92312883944e-10 1.37232157175e-12 0)
(-3.06261037278e-10 1.43684039897e-12 0)
(-3.20875901358e-10 1.50281100466e-12 0)
(-3.36167765477e-10 1.57034002644e-12 0)
(-3.52146864069e-10 1.63955444531e-12 0)
(-3.68823335013e-10 1.71060706719e-12 0)
(-3.86207178917e-10 1.78368316346e-12 0)
(-4.0430821987e-10 1.85900852313e-12 0)
(-4.23136068292e-10 1.93685922227e-12 0)
(-4.42700086563e-10 2.01757348073e-12 0)
(-4.63009358301e-10 2.10156605505e-12 0)
(-4.84072662285e-10 2.18934571238e-12 0)
(-5.05898452217e-10 2.28153644729e-12 0)
(-5.28494843755e-10 2.3789032466e-12 0)
(-5.51869610525e-10 2.48238338151e-12 0)
(-5.76030191172e-10 2.5931244204e-12 0)
(-6.00983709897e-10 2.71253041688e-12 0)
(-6.2673701346e-10 2.84231804903e-12 0)
(-6.53296728223e-10 2.98458488035e-12 0)
(-6.80669341553e-10 3.14189239998e-12 0)
(-7.08861312816e-10 3.31736710192e-12 0)
(-7.378792203e-10 3.51482361083e-12 0)
(-7.67729951782e-10 3.73891479495e-12 0)
(-7.98420948074e-10 3.99531497514e-12 0)
(-8.29960511006e-10 4.29094381423e-12 0)
(-8.6235818976e-10 4.63424034138e-12 0)
(-8.95625262646e-10 5.03549896056e-12 0)
(-9.29775335279e-10 5.50728238038e-12 0)
(-9.64825080958e-10 6.0649304244e-12 0)
(-1.00079515512e-09 6.7271889729e-12 0)
(-1.03771132338e-09 7.51699032769e-12 0)
(-1.07560585238e-09 8.46242577044e-12 0)
(-1.11451922501e-09 9.59796400635e-12 0)
(-1.15450225734e-09 1.09659870298e-11 0)
(-1.19561871529e-09 1.26187399308e-11 0)
(-1.23794855555e-09 1.46208266197e-11 0)
(-1.28159195021e-09 1.7052434517e-11 0)
(-1.32667430043e-09 2.00135458963e-11 0)
(-1.37335250473e-09 2.36295043716e-11 0)
(-1.42182282639e-09 2.80584721775e-11 0)
(-1.47233080636e-09 3.35015703887e-11 0)
(-1.52518379588e-09 4.02168949418e-11 0)
(-1.58076683131e-09 4.85392393685e-11 0)
(-1.63956271874e-09 5.89083915645e-11 0)
(-1.70217725378e-09 7.19105906224e-11 0)
(-1.76937024793e-09 8.83406395279e-11 0)
(-1.84209186969e-09 1.09297192443e-10 0)
(-1.9215201983e-09 1.36332542562e-10 0)
(-2.00908587322e-09 1.7169378647e-10 0)
(-2.10644312352e-09 2.18719361163e-10 0)
(-2.2152772873e-09 2.82499598326e-10 0)
(-2.33666291016e-09 3.70970367818e-10 0)
(-2.46925912524e-09 4.96630161979e-10 0)
(-2.6047110141e-09 6.78754978494e-10 0)
(-2.71732071498e-09 9.44104152636e-10 0)
(-2.74639017393e-09 1.31656358584e-09 0)
(-1.33784785701e-10 2.90898828002e-14 0)
(-1.34254095378e-10 8.53776520225e-14 0)
(-1.35232820032e-10 1.38485265217e-13 0)
(-1.36726583616e-10 1.88663024918e-13 0)
(-1.38723771749e-10 2.36593905695e-13 0)
(-1.41227274774e-10 2.82939250514e-13 0)
(-1.44240304421e-10 3.2822564687e-13 0)
(-1.47766535088e-10 3.72850253088e-13 0)
(-1.51810171534e-10 4.17111956304e-13 0)
(-1.56375972503e-10 4.6124018984e-13 0)
(-1.61469250637e-10 5.05416029761e-13 0)
(-1.67095859821e-10 5.49786536864e-13 0)
(-1.73262175558e-10 5.94474344002e-13 0)
(-1.79975071104e-10 6.39584149949e-13 0)
(-1.8724189072e-10 6.85207264728e-13 0)
(-1.95070420682e-10 7.31424945212e-13 0)
(-2.03468858402e-10 7.78310989273e-13 0)
(-2.12445779843e-10 8.25933888885e-13 0)
(-2.22010105353e-10 8.74358742405e-13 0)
(-2.32171064004e-10 9.23649068359e-13 0)
(-2.42938156539e-10 9.73868631288e-13 0)
(-2.54321117009e-10 1.02508337432e-12 0)
(-2.66329873225e-10 1.07736354802e-12 0)
(-2.7897450615e-10 1.13078612698e-12 0)
(-2.92265208375e-10 1.18543761321e-12 0)
(-3.06212241884e-10 1.24141733814e-12 0)
(-3.20825895288e-10 1.29884139227e-12 0)
(-3.36116440804e-10 1.35784733467e-12 0)
(-3.52094091251e-10 1.41859986269e-12 0)
(-3.68768957411e-10 1.48129765837e-12 0)
(-3.8615100615e-10 1.54618167152e-12 0)
(-4.04250019765e-10 1.61354515338e-12 0)
(-4.23075557109e-10 1.6837458204e-12 0)
(-4.42636917144e-10 1.75722060776e-12 0)
(-4.62943105683e-10 1.83450357019e-12 0)
(-4.84002806233e-10 1.91624760645e-12 0)
(-5.05824356017e-10 2.00325082944e-12 0)
(-5.28415728465e-10 2.09648858096e-12 0)
(-5.51784523703e-10 2.19715230633e-12 0)
(-5.75937968879e-10 2.30669676875e-12 0)
(-6.00882930527e-10 2.42689740659e-12 0)
(-6.26625941622e-10 2.55992003316e-12 0)
(-6.53173246485e-10 2.70840556575e-12 0)
(-6.80530867397e-10 2.87557307004e-12 0)
(-7.08704697524e-10 3.06534514586e-12 0)
(-7.37700625754e-10 3.28250059748e-12 0)
(-7.67524700197e-10 3.53286047152e-12 0)
(-7.98183338532e-10 3.82351497033e-12 0)
(-8.29683595123e-10 4.16310053861e-12 0)
(-8.62033496962e-10 4.56213868329e-12 0)
(-8.95242463046e-10 5.03345096626e-12 0)
(-9.29321825018e-10 5.59266830409e-12 0)
(-9.64285470737e-10 6.25885749014e-12 0)
(-1.00015063721e-09 7.05529410197e-12 0)
(-1.03693888509e-09 8.01041920515e-12 0)
(-1.07467729425e-09 9.15902827524e-12 0)
(-1.11339992829e-09 1.05437556305e-11 0)
(-1.15314962708e-09 1.22169379961e-11 0)
(-1.19398019877e-09 1.42429689606e-11 0)
(-1.23595909883e-09 1.67012955323e-11 0)
(-1.27917070148e-09 1.96902640284e-11 0)
(-1.32372029031e-09 2.3332103129e-11 0)
(-1.36973891611e-09 2.77794494184e-11 0)
(-1.41738928973e-09 3.32239942493e-11 0)
(-1.46687288516e-09 3.99080903853e-11 0)
(-1.51843840445e-09 4.81405503375e-11 0)
(-1.57239165867e-09 5.83184719637e-11 0)
(-1.62910665752e-09 7.0957863291e-11 0)
(-1.68903708167e-09 8.67373034622e-11 0)
(-1.75272592656e-09 1.06561176783e-10 0)
(-1.82080807692e-09 1.31652606511e-10 0)
(-1.89399401661e-09 1.63691675914e-10 0)
(-1.97300879779e-09 2.05022269076e-10 0)
(-2.05843047667e-09 2.58959835838e-10 0)
(-2.15031030673e-09 3.30235476665e-10 0)
(-2.24733659333e-09 4.25581357896e-10 0)
(-2.34510397373e-09 5.54309369971e-10 0)
(-2.43286002058e-09 7.28208306407e-10 0)
(-2.48855213896e-09 9.58615737973e-10 0)
(-2.47488887063e-09 1.24546817237e-09 0)
(-1.33743089441e-10 2.40367949852e-14 0)
(-1.34213839663e-10 7.11716985293e-14 0)
(-1.35194495201e-10 1.1635340758e-13 0)
(-1.36690044633e-10 1.59432768613e-13 0)
(-1.38688651264e-10 2.00680645551e-13 0)
(-1.41193192922e-10 2.40487712539e-13 0)
(-1.44206938231e-10 2.79230383411e-13 0)
(-1.47733626658e-10 3.17230049577e-13 0)
(-1.51777517408e-10 3.54750379662e-13 0)
(-1.56343410572e-10 3.92006246314e-13 0)
(-1.61436649287e-10 4.29174148437e-13 0)
(-1.670631099e-10 4.66401095756e-13 0)
(-1.73229184617e-10 5.03811519992e-13 0)
(-1.79941759239e-10 5.41512539536e-13 0)
(-1.87208187478e-10 5.79598021066e-13 0)
(-1.95036262648e-10 6.18151813734e-13 0)
(-2.03434187215e-10 6.572504379e-13 0)
(-2.1241054046e-10 6.96965434677e-13 0)
(-2.21974244431e-10 7.37365530799e-13 0)
(-2.32134528314e-10 7.78518741432e-13 0)
(-2.42900891312e-10 8.20494515771e-13 0)
(-2.54283064153e-10 8.63366022762e-13 0)
(-2.66290969324e-10 9.07212674079e-13 0)
(-2.78934680167e-10 9.5212298712e-13 0)
(-2.92224378975e-10 9.98197901665e-13 0)
(-3.06170314255e-10 1.0455546795e-12 0)
(-3.2078275736e-10 1.09433153751e-12 0)
(-3.36071958701e-10 1.14469319154e-12 0)
(-3.5204810381e-10 1.19683752222e-12 0)
(-3.68721269566e-10 1.25100361562e-12 0)
(-3.86101380921e-10 1.30748148299e-12 0)
(-4.04198168551e-10 1.36662382683e-12 0)
(-4.23021127929e-10 1.4288602972e-12 0)
(-4.42579480363e-10 1.49471477607e-12 0)
(-4.62882136702e-10 1.56482634162e-12 0)
(-4.83937664478e-10 1.63997470358e-12 0)
(-5.05754259438e-10 1.72111107034e-12 0)
(-5.28339722573e-10 1.80939561538e-12 0)
(-5.51701443975e-10 1.90624296249e-12 0)
(-5.75846395092e-10 2.01337741741e-12 0)
(-6.00781131285e-10 2.1329000497e-12 0)
(-6.26511806933e-10 2.26737018914e-12 0)
(-6.53044205794e-10 2.41990446559e-12 0)
(-6.80383789889e-10 2.59429721506e-12 0)
(-7.08535770794e-10 2.79516692891e-12 0)
(-7.3750520804e-10 3.02813447847e-12 0)
(-7.67297140283e-10 3.30004015546e-12 0)
(-7.9791675602e-10 3.61920819636e-12 0)
(-8.29369612036e-10 3.99576949482e-12 0)
(-8.61661909418e-10 4.44205576504e-12 0)
(-8.94800838949e-10 4.97308165708e-12 0)
(-9.2879501006e-10 5.60713544943e-12 0)
(-9.6365498032e-10 6.36650424004e-12 0)
(-9.99393905745e-10 7.27836641501e-12 0)
(-1.03602833604e-09 8.37589313887e-12 0)
(-1.07357918324e-09 9.6996124462e-12 0)
(-1.11207289723e-09 1.12991053054e-11 0)
(-1.15154288667e-09 1.32351243248e-11 0)
(-1.19203122926e-09 1.55822548172e-11 0)
(-1.23359071949e-09 1.84322779958e-11 0)
(-1.27628730413e-09 2.18984519074e-11 0)
(-1.32020295212e-09 2.61210043687e-11 0)
(-1.36543899184e-09 3.12742440559e-11 0)
(-1.41211991361e-09 3.75758564654e-11 0)
(-1.46039756149e-09 4.52991835627e-11 0)
(-1.51045549062e-09 5.47896231398e-11 0)
(-1.56251298094e-09 6.64867745226e-11 0)
(-1.61682765354e-09 8.09546679612e-11 0)
(-1.67369460299e-09 9.89234294283e-11 0)
(-1.73343800549e-09 1.21347131113e-10 0)
(-1.79638747038e-09 1.49484360448e-10 0)
(-1.86282446824e-09 1.8500988818e-10 0)
(-1.93287134528e-09 2.3016642819e-10 0)
(-2.00627255745e-09 2.87960848099e-10 0)
(-2.08198006965e-09 3.62388379236e-10 0)
(-2.15740379551e-09 4.58604291323e-10 0)
(-2.22715756643e-09 5.82795607638e-10 0)
(-2.2812659197e-09 7.41132544907e-10 0)
(-2.30351282221e-09 9.36533552149e-10 0)
(-2.27212079224e-09 1.16154300009e-09 0)
(-1.33708618906e-10 1.96040837625e-14 0)
(-1.34180242088e-10 5.82735370908e-14 0)
(-1.35162211176e-10 9.56620457298e-14 0)
(-1.36659121826e-10 1.3150275631e-13 0)
(-1.38658927794e-10 1.65848586453e-13 0)
(-1.41164434983e-10 1.98905466617e-13 0)
(-1.44178910551e-10 2.30925853821e-13 0)
(-1.47706119091e-10 2.62157204523e-13 0)
(-1.51750350577e-10 2.92822326706e-13 0)
(-1.56316433488e-10 3.23114903188e-13 0)
(-1.61409734757e-10 3.53201186019e-13 0)
(-1.67036149924e-10 3.83223707668e-13 0)
(-1.73202086403e-10 4.13305310967e-13 0)
(-1.79914441903e-10 4.43552904074e-13 0)
(-1.87180579301e-10 4.74060800323e-13 0)
(-1.95008298748e-10 5.04913672343e-13 0)
(-2.03405807505e-10 5.36189204661e-13 0)
(-2.12381687769e-10 5.67960541631e-13 0)
(-2.21944862708e-10 6.00298627039e-13 0)
(-2.32104560816e-10 6.3327452898e-13 0)
(-2.42870278714e-10 6.66961842911e-13 0)
(-2.54251742482e-10 7.0143926796e-13 0)
(-2.66258867654e-10 7.36793457539e-13 0)
(-2.78901717967e-10 7.73122255023e-13 0)
(-2.92190463021e-10 8.1053843936e-13 0)
(-3.06135334975e-10 8.49174124172e-13 0)
(-3.20746584478e-10 8.89185978182e-13 0)
(-3.36034436016e-10 9.30761465271e-13 0)
(-3.52009042912e-10 9.74126340554e-13 0)
(-3.68680442243e-10 1.01955368567e-12 0)
(-3.86058509981e-10 1.06737482425e-12 0)
(-4.04152916714e-10 1.11799252877e-12 0)
(-4.22973084349e-10 1.17189701632e-12 0)
(-4.42528144309e-10 1.22968533549e-12 0)
(-4.62826897741e-10 1.29208487442e-12 0)
(-4.8387777845e-10 1.35998187578e-12 0)
(-5.05688819287e-10 1.43445603395e-12 0)
(-5.28267622951e-10 1.51682248028e-12 0)
(-5.51621338261e-10 1.60868274401e-12 0)
(-5.75756643209e-10 1.71198661915e-12 0)
(-6.0067973631e-10 1.82910728659e-12 0)
(-6.26396338089e-10 1.96293255195e-12 0)
(-6.52911704865e-10 2.11697568622e-12 0)
(-6.80230657426e-10 2.29551012289e-12 0)
(-7.08357627713e-10 2.50373320815e-12 0)
(-7.37296727173e-10 2.74796536019e-12 0)
(-7.67051841223e-10 3.03589242634e-12 0)
(-7.9762675506e-10 3.37686080034e-12 0)
(-8.29025317069e-10 3.78223706839e-12 0)
(-8.61251647232e-10 4.26584670835e-12 0)
(-8.94310399298e-10 4.84450982694e-12 0)
(-9.28207086951e-10 5.53869629046e-12 0)
(-9.62948485965e-10 6.37332816192e-12 0)
(-9.98543126087e-10 7.37876447426e-12 0)
(-1.03500188827e-09 8.59201255762e-12 0)
(-1.07233872452e-09 1.00582220998e-11 0)
(-1.11057151879e-09 1.18325338317e-11 0)
(-1.14972310747e-09 1.39823755554e-11 0)
(-1.18982247584e-09 1.65903260921e-11 0)
(-1.23090614115e-09 1.97577053166e-11 0)
(-1.27301972038e-09 2.36090995722e-11 0)
(-1.31621965659e-09 2.82981017802e-11 0)
(-1.36057503443e-09 3.40146419243e-11 0)
(-1.40616933812e-09 4.09944165222e-11 0)
(-1.45310187182e-09 4.95311087243e-11 0)
(-1.50148833169e-09 5.99923405884e-11 0)
(-1.55145962281e-09 7.28406338359e-11 0)
(-1.6031573336e-09 8.86610866139e-11 0)
(-1.65672311115e-09 1.08197985731e-10 0)
(-1.71227718174e-09 1.32403070399e-10 0)
(-1.76987787126e-09 1.62498342203e-10 0)
(-1.82944836241e-09 2.00055381678e-10 0)
(-1.89064802986e-09 2.47089177092e-10 0)
(-1.95265291584e-09 3.06153227883e-10 0)
(-2.01379555216e-09 3.80395321179e-10 0)
(-2.07101081061e-09 4.73473726183e-10 0)
(-2.11908137087e-09 5.8911899504e-10 0)
(-2.14986966497e-09 7.29950441234e-10 0)
(-2.15222377481e-09 8.95024551436e-10 0)
(-2.11354780806e-09 1.07598859521e-09 0)
(-1.33680787344e-10 1.5532281445e-14 0)
(-1.34152993293e-10 4.62425810374e-14 0)
(-1.35135911825e-10 7.60392442551e-14 0)
(-1.36633895401e-10 1.0463473015e-13 0)
(-1.38634729095e-10 1.31972246169e-13 0)
(-1.41141131108e-10 1.58141144168e-13 0)
(-1.44156336841e-10 1.83302963516e-13 0)
(-1.4768410948e-10 2.0764387119e-13 0)
(-1.51728751249e-10 2.31348741745e-13 0)
(-1.56295107485e-10 2.5458903083e-13 0)
(-1.61388562244e-10 2.77518399366e-13 0)
(-1.670150266e-10 3.00272339114e-13 0)
(-1.73180921259e-10 3.22969703098e-13 0)
(-1.79893154847e-10 3.45715042342e-13 0)
(-1.87159098863e-10 3.68601206773e-13 0)
(-1.94986559925e-10 3.91711966685e-13 0)
(-2.0338374972e-10 4.15124568262e-13 0)
(-2.12359252922e-10 4.38912219014e-13 0)
(-2.21921993241e-10 4.63146542546e-13 0)
(-2.32081197741e-10 4.87900066266e-13 0)
(-2.42846359521e-10 5.13248820799e-13 0)
(-2.54227198862e-10 5.39275141732e-13 0)
(-2.66233622935e-10 5.66070776067e-13 0)
(-2.78875684182e-10 5.93740409441e-13 0)
(-2.92163537479e-10 6.22405747036e-13 0)
(-3.06107396224e-10 6.52210302518e-13 0)
(-3.20717487487e-10 6.83325075972e-13 0)
(-3.36004006411e-10 7.15955335286e-13 0)
(-3.51977070034e-10 7.50348756651e-13 0)
(-3.68646670779e-10 7.8680523084e-13 0)
(-3.86022629846e-10 8.2568870422e-13 0)
(-4.04114550797e-10 8.6744149981e-13 0)
(-4.22931773683e-10 9.12601656754e-13 0)
(-4.42483330076e-10 9.61823940048e-13 0)
(-4.6277789947e-10 1.01590531037e-12 0)
(-4.8382376755e-10 1.07581581218e-12 0)
(-5.05628786954e-10 1.1427360425e-12 0)
(-5.28200341205e-10 1.21810261204e-12 0)
(-5.51545312664e-10 1.30366331323e-12 0)
(-5.75670055458e-10 1.40154407884e-12 0)
(-6.00580374539e-10 1.51433026466e-12 0)
(-6.26281512213e-10 1.6451653384e-12 0)
(-6.52778143737e-10 1.79787072671e-12 0)
(-6.80074383872e-10 1.97709139102e-12 0)
(-7.08173806604e-10 2.18847270498e-12 0)
(-7.37079480665e-10 2.43887543603e-12 0)
(-7.66794023931e-10 2.73663714394e-12 0)
(-7.97319680306e-10 3.09189017054e-12 0)
(-8.28658423309e-10 3.51694869515e-12 0)
(-8.60812091211e-10 4.02678018154e-12 0)
(-8.93782559283e-10 4.63958009213e-12 0)
(-9.27571955392e-10 5.37747318305e-12 0)
(-9.62182925773e-10 6.26737026985e-12 0)
(-9.97618958229e-10 7.3420164006e-12 0)
(-1.03388476994e-09 8.64127532805e-12 0)
(-1.07098676622e-09 1.02137066311e-11 0)
(-1.10893357447e-09 1.21185065871e-11 0)
(-1.14773665286e-09 1.44279030177e-11 0)
(-1.18741096545e-09 1.7230119261e-11 0)
(-1.22797570071e-09 2.0633055095e-11 0)
(-1.26945498696e-09 2.47688754196e-11 0)
(-1.31187851823e-09 2.9799754082e-11 0)
(-1.35528194004e-09 3.59250945129e-11 0)
(-1.39970674017e-09 4.3390645434e-11 0)
(-1.44519922224e-09 5.25000530506e-11 0)
(-1.49180787053e-09 6.36295421914e-11 0)
(-1.53957798412e-09 7.72465902014e-11 0)
(-1.58854177202e-09 9.39336190821e-11 0)
(-1.63870101596e-09 1.14417802205e-10 0)
(-1.68999772031e-09 1.39607869893e-10 0)
(-1.74226562136e-09 1.70637881789e-10 0)
(-1.79515180033e-09 2.08915438572e-10 0)
(-1.84799306832e-09 2.56166016511e-10 0)
(-1.89962764218e-09 3.144529128e-10 0)
(-1.94812367101e-09 3.86128731031e-10 0)
(-1.99042485642e-09 4.73633611165e-10 0)
(-2.02197619439e-09 5.78997503103e-10 0)
(-2.03654147458e-09 7.02856780427e-10 0)
(-2.02668229903e-09 8.42868288955e-10 0)
(-1.98504671979e-09 9.91856194891e-10 0)
(-1.33659199016e-10 1.17001678126e-14 0)
(-1.34131836518e-10 3.4834104912e-14 0)
(-1.35115497457e-10 5.72470127787e-14 0)
(-1.36614375424e-10 7.86551090162e-14 0)
(-1.38616122663e-10 9.89471226762e-14 0)
(-1.41123370409e-10 1.18143113334e-13 0)
(-1.44139308369e-10 1.36344160258e-13 0)
(-1.47667682468e-10 1.53691778676e-13 0)
(-1.51712794449e-10 1.70340727768e-13 0)
(-1.56279497762e-10 1.86443090163e-13 0)
(-1.61373188111e-10 2.02140219806e-13 0)
(-1.66999788881e-10 2.1755962152e-13 0)
(-1.7316573224e-10 2.32814684672e-13 0)
(-1.798779367e-10 2.48005949132e-13 0)
(-1.87143781761e-10 2.63223124062e-13 0)
(-1.94971080059e-10 2.78547432954e-13 0)
(-2.03368047303e-10 2.94054075528e-13 0)
(-2.12343270189e-10 3.09814725997e-13 0)
(-2.2190567243e-10 3.25900062632e-13 0)
(-2.32064478994e-10 3.42382367887e-13 0)
(-2.42829178653e-10 3.593382659e-13 0)
(-2.54209484918e-10 3.76851683515e-13 0)
(-2.66215295439e-10 3.95017137291e-13 0)
(-2.78856649991e-10 4.13943465688e-13 0)
(-2.92143687107e-10 4.33758144634e-13 0)
(-3.06086599512e-10 4.54612347883e-13 0)
(-3.20695588452e-10 4.76686942076e-13 0)
(-3.35980817071e-10 5.00199641762e-13 0)
(-3.51952362995e-10 5.2541359318e-13 0)
(-3.68620170285e-10 5.52647709215e-13 0)
(-3.85994000966e-10 5.82289143539e-13 0)
(-4.04083386351e-10 6.14808372105e-13 0)
(-4.22897578397e-10 6.5077744808e-13 0)
(-4.42445501386e-10 6.9089211523e-13 0)
(-4.62735704243e-10 7.3599860991e-13 0)
(-4.83776313864e-10 7.87126158078e-13 0)
(-5.05574989847e-10 8.45526387998e-13 0)
(-5.28138881135e-10 9.12721140266e-13 0)
(-5.51474585088e-10 9.90560473413e-13 0)
(-5.75588109648e-10 1.0812930492e-12 0)
(-6.00484839302e-10 1.1876515505e-12 0)
(-6.2616950572e-10 1.31295635581e-12 0)
(-6.52646164023e-10 1.46124138962e-12 0)
(-6.79918175844e-10 1.63740691562e-12 0)
(-7.07988200477e-10 1.8474050737e-12 0)
(-7.36858195622e-10 2.09846522434e-12 0)
(-7.66529429436e-10 2.39936770837e-12 0)
(-7.97002505819e-10 2.76077652122e-12 0)
(-8.2827740506e-10 3.19564372075e-12 0)
(-8.60353542115e-10 3.71970124046e-12 0)
(-8.93229844897e-10 4.35205929432e-12 0)
(-9.26904854809e-10 5.1159349024e-12 0)
(-9.61376851391e-10 6.03953944723e-12 0)
(-9.9664400204e-10 7.1571608601e-12 0)
(-1.03270453608e-09 8.51048437843e-12 0)
(-1.06955693951e-09 1.01502062542e-11 0)
(-1.10720016168e-09 1.21380078932e-11 0)
(-1.14563381733e-09 1.45489743867e-11 0)
(-1.18485835417e-09 1.74745621491e-11 0)
(-1.22487513623e-09 2.10262464871e-11 0)
(-1.26568636119e-09 2.53400126164e-11 0)
(-1.30729468132e-09 3.05818941607e-11 0)
(-1.34970232135e-09 3.6954812367e-11 0)
(-1.39290937129e-09 4.47070267896e-11 0)
(-1.43691075442e-09 5.41425705895e-11 0)
(-1.48169110196e-09 6.56341005925e-11 0)
(-1.5272163613e-09 7.96386193423e-11 0)
(-1.57342036399e-09 9.67164704698e-11 0)
(-1.6201837105e-09 1.17553761361e-10 0)
(-1.66730111808e-09 1.42987716378e-10 0)
(-1.71443181632e-09 1.74033012721e-10 0)
(-1.76102585464e-09 2.11904193066e-10 0)
(-1.80621805047e-09 2.58023620567e-10 0)