/*--------------------------------*- C++ -*----------------------------------*\
| =========                 |                                                 |
| \\      /  F ield         | OpenFOAM: The Open Source CFD Toolbox           |
|  \\    /   O peration     | Version:  2106                                  |
|   \\  /    A nd           | Website:  www.openfoam.com                      |
|    \\/     M anipulation  |                                                 |
\*---------------------------------------------------------------------------*/
FoamFile
{
    version     2.0;
    format      ascii;
    arch        "LSB;label=32;scalar=64";
    class       volVectorField;
    location    "0.09";
    object      U;
}
// * * * * * * * * * * * * * * * * * * * * * * * * * * * * * * * * * * * * * //

dimensions      [0 1 -1 0 0 0 0];

internalField   nonuniform List<vector> 
11200
(
(0.662462399813 0.150569447802 0)
(0.558948636459 0.103243403336 0)
(0.38385063525 0.0513512476895 0)
(0.283747411974 0.0248708862602 0)
(0.232074999193 0.0124170822037 0)
(0.201908243177 0.00662285487524 0)
(0.183197569608 0.00380294356848 0)
(0.17127621611 0.00231587457532 0)
(0.163510313769 0.00146446503239 0)
(0.158389342362 0.000944778928233 0)
(0.155008161963 0.000614962895194 0)
(0.152789667654 0.000401890484233 0)
(0.151351580247 0.000263732338466 0)
(0.150436086064 0.000174567748658 0)
(0.149867951944 0.000117465923169 0)
(0.149527958706 8.10053920703e-05 0)
(0.149335301907 5.73637264461e-05 0)
(0.149235355714 4.13574557767e-05 0)
(0.149191040569 3.0674895933e-05 0)
(0.149179913783 2.65199234881e-05 0)
(0.149188728295 2.64340031335e-05 0)
(0.149206996321 2.93650076218e-05 0)
(0.149228053348 3.26312842131e-05 0)
(0.149248886801 3.56203791133e-05 0)
(0.149267892412 3.83683808242e-05 0)
(0.14928432884 4.09206740765e-05 0)
(0.149298002077 4.32968738769e-05 0)
(0.149309026564 4.55205821469e-05 0)
(0.149317677063 4.76245771934e-05 0)
(0.149324296774 4.96497048669e-05 0)
(0.149329242699 5.16483114626e-05 0)
(0.149332859805 5.36964996323e-05 0)
(0.149335454255 5.58978685885e-05 0)
(0.149337261396 5.82775813375e-05 0)
(0.149338471503 6.06900000266e-05 0)
(0.149339228874 6.30642489348e-05 0)
(0.149339655257 6.5385986117e-05 0)
(0.149339872354 6.76727507525e-05 0)
(0.149339961102 6.9945272311e-05 0)
(0.149339968434 7.22129176311e-05 0)
(0.149339927944 7.44806419482e-05 0)
(0.14933986318 7.67511958528e-05 0)
(0.14933978904 7.90254915814e-05 0)
(0.149339713756 8.13027944178e-05 0)
(0.149339640738 8.35811149337e-05 0)
(0.149339570224 8.58576914987e-05 0)
(0.149339500793 8.81294500898e-05 0)
(0.149339431018 9.03929901522e-05 0)
(0.149339361308 9.26448493169e-05 0)
(0.149339294878 9.48818161332e-05 0)
(0.149339238237 9.71008909335e-05 0)
(0.149339201706 9.92992436387e-05 0)
(0.149339199668 0.00010147420775 0)
(0.149339250999 0.000103623139406 0)
(0.149339380222 0.000105742958786 0)
(0.149339620186 0.000107829275506 0)
(0.149340017244 0.000109875416249 0)
(0.149340638683 0.000111871983649 0)
(0.14934158583 0.000113804467599 0)
(0.149343010229 0.000115649438364 0)
(0.149345149025 0.000117355985345 0)
(0.149348402529 0.000118839785216 0)
(0.149353273263 0.000120112319809 0)
(0.149360415116 0.000121354879227 0)
(0.149370856881 0.000123015341694 0)
(0.149386136907 0.000125371892513 0)
(0.149408670001 0.000128172879266 0)
(0.149442226563 0.000131167628755 0)
(0.149492517728 0.000134127672267 0)
(0.149567930081 0.000136957956749 0)
(0.149680606214 0.000141084727834 0)
(0.149854131428 0.000152652992588 0)
(0.150126884049 0.00017396652904 0)
(0.150562616994 0.000205071516371 0)
(0.151298771939 0.000236408928996 0)
(0.152617172457 0.000196367099416 0)
(0.155182052998 -0.000220469224348 0)
(0.162611148633 -0.00216667779622 0)
(0.188350646356 -0.0111161981406 0)
(0.20687705406 -0.0515968592157 0)
(0.965408244197 0.289214730758 0)
(0.961962786784 0.252656102757 0)
(0.823574204556 0.159021534235 0)
(0.698139052195 0.0959958387654 0)
(0.610225043929 0.0582482098765 0)
(0.548971063453 0.0362148890416 0)
(0.506588654663 0.0231611851248 0)
(0.477567583148 0.0151371730029 0)
(0.457746904809 0.0100170357663 0)
(0.444231755569 0.00665688905669 0)
(0.435059510977 0.00441360718838 0)
(0.4288835342 0.00290406292574 0)
(0.424770327686 0.00188726920679 0)
(0.422070154199 0.00120517645984 0)
(0.420330433903 0.000751168652978 0)
(0.419236646147 0.000452134875461 0)
(0.418571417388 0.000257648795275 0)
(0.418186018259 0.0001332368716 0)
(0.41798046752 5.64480930141e-05 0)
(0.417887364428 1.38969025382e-05 0)
(0.417862392066 -7.76989485467e-06 0)
(0.417873941879 -1.89639071162e-05 0)
(0.417901901962 -2.24215658401e-05 0)
(0.417937070944 -2.1441377655e-05 0)
(0.417973404355 -1.82034000342e-05 0)
(0.418007267557 -1.39239431813e-05 0)
(0.418036902806 -9.32023815991e-06 0)
(0.418061727465 -4.82053873028e-06 0)
(0.418081832126 -6.65307168746e-07 0)
(0.418097671352 3.01973852321e-06 0)
(0.418109881515 6.16595389994e-06 0)
(0.418119170342 8.70887802619e-06 0)
(0.418126128343 1.05498483114e-05 0)
(0.418131072784 1.17264913918e-05 0)
(0.418134362841 1.26340543211e-05 0)
(0.418136443837 1.34795544438e-05 0)
(0.418137683293 1.42173056719e-05 0)
(0.418138390191 1.48628667293e-05 0)
(0.418138757516 1.54601426609e-05 0)
(0.418138899172 1.60236626241e-05 0)
(0.418138898477 1.65629858588e-05 0)
(0.418138813538 1.7087298883e-05 0)
(0.418138681042 1.76045932385e-05 0)
(0.418138522124 1.81205643746e-05 0)
(0.418138347704 1.86392033422e-05 0)
(0.418138162648 1.9163480957e-05 0)
(0.418137968552 1.96958969001e-05 0)
(0.418137766703 2.02374837695e-05 0)
(0.418137561703 2.07885019916e-05 0)
(0.418137363174 2.13499594088e-05 0)
(0.418137186808 2.19231048791e-05 0)
(0.418137056054 2.2509012598e-05 0)
(0.418137003843 2.31083975748e-05 0)
(0.418137074828 2.3721233337e-05 0)
(0.418137329286 2.43462006287e-05 0)
(0.41813785066 2.49802765196e-05 0)
(0.418138759351 2.56187857776e-05 0)
(0.418140231099 2.62555346563e-05 0)
(0.418142527333 2.68730417702e-05 0)
(0.418146027114 2.74430769202e-05 0)
(0.418151311306 2.79111161357e-05 0)
(0.418159439055 2.8206015162e-05 0)
(0.41817195207 2.84366971111e-05 0)
(0.41819101967 2.80638114663e-05 0)
(0.418219511585 2.56143424232e-05 0)
(0.418261094583 1.98033140656e-05 0)
(0.418321980646 9.80751724534e-06 0)
(0.418412532204 -5.93401651231e-06 0)
(0.418548788914 -3.00234495508e-05 0)
(0.418756398671 -6.62549021423e-05 0)
(0.419078533479 -0.000118917437359 0)
(0.419586623366 -0.000193135706107 0)
(0.420397471638 -0.000316966842178 0)
(0.421721082965 -0.000549105033694 0)
(0.423960853548 -0.0010296871367 0)
(0.427860128831 -0.00215114680747 0)
(0.434894285362 -0.00500024115471 0)
(0.449359053713 -0.0126407544594 0)
(0.476739340396 -0.035378836972 0)
(0.482372237631 -0.10256061546 0)
(1.02222095394 0.23841623805 0)
(1.08213745604 0.295926781805 0)
(1.03447704631 0.23950324598 0)
(0.954615126035 0.174290345012 0)
(0.879991737384 0.121345564084 0)
(0.818614250551 0.083099255024 0)
(0.771411114476 0.0567311059524 0)
(0.736635619159 0.0387396958277 0)
(0.711627392625 0.0264304576436 0)
(0.693922372414 0.0179693269672 0)
(0.681551329935 0.0121368146106 0)
(0.673015890919 0.0081170369109 0)
(0.667204237552 0.00535589954256 0)
(0.66330523637 0.00347127507531 0)
(0.660734285454 0.00219659761529 0)
(0.65907440099 0.0013447584345 0)
(0.658031213874 0.000784301684178 0)
(0.65739918205 0.000423225598198 0)
(0.657036358682 0.000197366716746 0)
(0.656845028834 6.14357066745e-05 0)
(0.656759113432 -1.61016354484e-05 0)
(0.656737141098 -5.97932360123e-05 0)
(0.656751526852 -8.25050187654e-05 0)
(0.656782797121 -9.03511293374e-05 0)
(0.656820398301 -8.94035352008e-05 0)
(0.65685826098 -8.38208469864e-05 0)
(0.656893009357 -7.61285631104e-05 0)
(0.656923057371 -6.78354603151e-05 0)
(0.656947934404 -5.98086712535e-05 0)
(0.656967805029 -5.25089090289e-05 0)
(0.656983152063 -4.61544145258e-05 0)
(0.656994584701 -4.08447471994e-05 0)
(0.657002855024 -3.66655707179e-05 0)
(0.65700895079 -3.36387064809e-05 0)
(0.657013533998 -3.16336751277e-05 0)
(0.657016679274 -3.0530259954e-05 0)
(0.657018617923 -3.01250559473e-05 0)
(0.657019782886 -3.02647743324e-05 0)
(0.657020442726 -3.07239463665e-05 0)
(0.657020750834 -3.13909121211e-05 0)
(0.657020831221 -3.21939605511e-05 0)
(0.657020772971 -3.30796655954e-05 0)
(0.657020633159 -3.40089322103e-05 0)
(0.657020445799 -3.49570270765e-05 0)
(0.657020230313 -3.59085771173e-05 0)
(0.657019997298 -3.68536026088e-05 0)
(0.657019751613 -3.77846052972e-05 0)
(0.657019496724 -3.86967042526e-05 0)
(0.657019241074 -3.9585236528e-05 0)
(0.657018999823 -4.04444099194e-05 0)
(0.657018795359 -4.12692970961e-05 0)
(0.657018660038 -4.2056118259e-05 0)
(0.65701863914 -4.28025374635e-05 0)
(0.657018794869 -4.35092132674e-05 0)
(0.657019213425 -4.41831135525e-05 0)
(0.657020017548 -4.48448848058e-05 0)
(0.657021386773 -4.55426373541e-05 0)
(0.657023578211 -4.63639760537e-05 0)
(0.657026975079 -4.74563241689e-05 0)
(0.657032148446 -4.90399108815e-05 0)
(0.657039985839 -5.15762972382e-05 0)
(0.657052083729 -5.60728301733e-05 0)
(0.657070026996 -6.34541659808e-05 0)
(0.657095279171 -7.47297852918e-05 0)
(0.657131397817 -9.14843138401e-05 0)
(0.657185227073 -0.000116259793282 0)
(0.657266504619 -0.000152352466993 0)
(0.657389388457 -0.00020523609499 0)
(0.65757632586 -0.000283775269223 0)
(0.657863835747 -0.000402428262922 0)
(0.658311985666 -0.000586544992672 0)
(0.659013183712 -0.000885138225976 0)
(0.660120321008 -0.001391282752 0)
(0.661901477492 -0.0022841460354 0)
(0.664817873119 -0.00393912435329 0)
(0.669601030716 -0.00718474608693 0)
(0.677342125299 -0.0138325485173 0)
(0.690162143668 -0.0278738268015 0)
(0.707810460561 -0.0586531022119 0)
(0.704615952552 -0.118558228578 0)
(1.02251474573 0.170807225642 0)
(1.10138970387 0.276496661571 0)
(1.11752413835 0.266665039329 0)
(1.09214643561 0.219901902434 0)
(1.05187803051 0.168168856128 0)
(1.01020833891 0.123566962911 0)
(0.973495387782 0.0888362902451 0)
(0.943866371181 0.063003873015 0)
(0.921146507056 0.0442188652446 0)
(0.904290721642 0.0307355680345 0)
(0.892085803232 0.0211463156623 0)
(0.88342136473 0.0143817113317 0)
(0.877377333668 0.00964990323551 0)
(0.873232257333 0.00637118272894 0)
(0.870439536902 0.00412382571613 0)
(0.868594847199 0.00260267674034 0)
(0.867404631943 0.00158823365587 0)
(0.866659105684 0.000923703213395 0)
(0.866210525047 0.000497951325425 0)
(0.865956073132 0.000232896867182 0)
(0.865824389653 7.47948458875e-05 0)
(0.865767040364 -1.38368216229e-05 0)
(0.865755826261 -5.87280846823e-05 0)
(0.865771310941 -7.70543643358e-05 0)
(0.865798450197 -7.94508687999e-05 0)
(0.865829313705 -7.29803479173e-05 0)
(0.865859549211 -6.22008152171e-05 0)
(0.865886841173 -4.99185293128e-05 0)
(0.865910179452 -3.77755584372e-05 0)
(0.865929350801 -2.66562625716e-05 0)
(0.865944592929 -1.69661119891e-05 0)
(0.86595635869 -8.8062437062e-06 0)
(0.865965145511 -2.08530393162e-06 0)
(0.865971396797 3.2690399523e-06 0)
(0.865975578541 7.11150416571e-06 0)
(0.865978235161 9.59481860762e-06 0)
(0.865979848562 1.13258960233e-05 0)
(0.865980841294 1.26823280278e-05 0)
(0.865981459946 1.37871374204e-05 0)
(0.865981772232 1.47056607118e-05 0)
(0.865981873325 1.54817282103e-05 0)
(0.865981840788 1.61532271496e-05 0)
(0.865981722368 1.67593727003e-05 0)
(0.865981544501 1.73296028151e-05 0)
(0.865981323152 1.78858263479e-05 0)
(0.865981068723 1.84450542049e-05 0)
(0.865980787416 1.90236332884e-05 0)
(0.86598048559 1.9624721547e-05 0)
(0.865980176269 2.02448701871e-05 0)
(0.865979878575 2.08843819073e-05 0)
(0.865979618787 2.15409609186e-05 0)
(0.865979434694 2.2206955051e-05 0)
(0.86597937824 2.28681948437e-05 0)
(0.865979518286 2.35010144427e-05 0)
(0.865979944327 2.40671885965e-05 0)
(0.865980772505 2.45082730785e-05 0)
(0.865982166476 2.47498721861e-05 0)
(0.865984365757 2.47281235208e-05 0)
(0.865987742312 2.42959632276e-05 0)
(0.865992748649 2.31680279628e-05 0)
(0.865999817896 2.06334830557e-05 0)
(0.866010392543 1.59784312953e-05 0)
(0.866027040428 7.60635738813e-06 0)
(0.866052953471 -6.49671130676e-06 0)
(0.86609216338 -2.84005717281e-05 0)
(0.866150590011 -6.20522544004e-05 0)
(0.866237725824 -0.000114576607266 0)
(0.866368434406 -0.000197166108088 0)
(0.866565932097 -0.000327788328221 0)
(0.866866238861 -0.000536100817126 0)
(0.867325101085 -0.00087305561601 0)
(0.868031212776 -0.00142902389846 0)
(0.869127217824 -0.00235892162992 0)
(0.870837375056 -0.00394911656059 0)
(0.873499505622 -0.00674680598683 0)
(0.877544427797 -0.0118082349273 0)
(0.883344416938 -0.0211005098831 0)
(0.891149091366 -0.0380971556631 0)
(0.898572580816 -0.0687307779098 0)
(0.889615468697 -0.116395145802 0)
(1.01287874571 0.118961107724 0)
(1.08820668042 0.231807145113 0)
(1.13741361816 0.253107022236 0)
(1.15409082096 0.228992925983 0)
(1.149942155 0.188368222527 0)
(1.13538495847 0.14657905812 0)
(1.11758978206 0.110149050444 0)
(1.10059677551 0.0808125515028 0)
(1.08612785818 0.0582203927342 0)
(1.074596487 0.0413094383704 0)
(1.06580026768 0.0289022328301 0)
(1.05930118979 0.0199412501965 0)
(1.05461870215 0.0135569772759 0)
(1.05131691176 0.00906670063449 0)
(1.04903473977 0.00594914674951 0)
(1.04748856562 0.00381396105859 0)
(1.04646337383 0.00237324667661 0)
(1.04580034778 0.00141746678715 0)
(1.04538460243 0.00079598823612 0)
(1.04513433603 0.000401732917423 0)
(1.04499189112 0.000159561850094 0)
(1.04491928195 1.82516868628e-05 0)
(1.04489018614 -5.59832607397e-05 0)
(1.04488580721 -9.02620347659e-05 0)
(1.04489531325 -0.00010065667956 0)
(1.04491132719 -9.73878871185e-05 0)
(1.04492936126 -8.70982880159e-05 0)
(1.04494687249 -7.39612787978e-05 0)
(1.04496254329 -6.04878069044e-05 0)
(1.04497580846 -4.80965104233e-05 0)
(1.04498654732 -3.74919306177e-05 0)
(1.04499489377 -2.89252334447e-05 0)
(1.045001128 -2.23576594836e-05 0)
(1.04500562875 -1.7537496642e-05 0)
(1.04500883669 -1.40252991502e-05 0)
(1.04501124705 -1.13865078224e-05 0)
(1.04501315971 -9.29999781872e-06 0)
(1.04501457238 -7.60529242062e-06 0)
(1.04501548437 -6.42514743678e-06 0)
(1.04501599394 -5.79306885844e-06 0)
(1.04501621873 -5.50293161981e-06 0)
(1.04501626339 -5.41421076052e-06 0)
(1.04501619732 -5.42362703092e-06 0)
(1.04501605754 -5.4787136461e-06 0)
(1.04501586721 -5.55175463398e-06 0)
(1.04501564348 -5.62890840589e-06 0)
(1.0450153887 -5.70951344124e-06 0)
(1.04501509766 -5.78497254462e-06 0)
(1.04501478343 -5.84444565407e-06 0)
(1.04501446931 -5.88399365571e-06 0)
(1.0450141802 -5.90439824567e-06 0)
(1.04501395019 -5.90851690165e-06 0)
(1.04501382664 -5.90268886349e-06 0)
(1.04501387304 -5.89986990155e-06 0)
(1.0450141768 -5.92478586271e-06 0)
(1.04501487361 -6.02765157268e-06 0)
(1.04501620155 -6.33522876385e-06 0)
(1.04501845073 -7.19715872405e-06 0)
(1.04502196539 -9.09316909719e-06 0)
(1.04502706213 -1.2656055482e-05 0)
(1.04503459328 -1.75943499634e-05 0)
(1.0450459534 -2.38138029274e-05 0)
(1.0450623907 -3.33676217964e-05 0)
(1.0450860217 -4.93233427908e-05 0)
(1.04512040381 -7.61723834025e-05 0)
(1.04517076091 -0.000120422414235 0)
(1.04524483516 -0.000192214229525 0)
(1.04535422484 -0.000307723007396 0)
(1.04551655339 -0.000493133994358 0)
(1.0457585847 -0.000791197562101 0)
(1.04612066051 -0.00127216205919 0)
(1.04666342654 -0.00205265263168 0)
(1.04747570453 -0.00333212032795 0)
(1.0486783751 -0.00545750146832 0)
(1.05041144318 -0.00903531139293 0)
(1.05275029096 -0.0151147796959 0)
(1.05547370088 -0.0254068606556 0)
(1.05780697198 -0.0424103895282 0)
(1.05701214101 -0.0692844255595 0)
(1.04358104107 -0.106003692615 0)
(1.00447483255 0.0814040818152 0)
(1.06917236972 0.181288743522 0)
(1.130805696 0.216950656209 0)
(1.17375005566 0.210789265591 0)
(1.19865279845 0.1836897957 0)
(1.21020020511 0.149750615162 0)
(1.21350318306 0.116776739323 0)
(1.21251833244 0.0882162262694 0)
(1.20973275626 0.0650407976098 0)
(1.20651391919 0.0470096974442 0)
(1.20352313069 0.0333907514 0)
(1.20101710579 0.0233339039373 0)
(1.19904219556 0.0160436553688 0)
(1.19754909095 0.0108441392304 0)
(1.19645469598 0.00719167284128 0)
(1.19567254221 0.00466415889935 0)
(1.19512589967 0.00294216398297 0)
(1.19475196027 0.00178875123623 0)
(1.19450179258 0.00103112081026 0)
(1.19433849284 0.000545095866639 0)
(1.19423487575 0.000242817673079 0)
(1.19417220819 6.33490762115e-05 0)
(1.19413665149 -3.70973684296e-05 0)
(1.19411804208 -8.70127736189e-05 0)
(1.19411027199 -0.000105949142984 0)
(1.19410893063 -0.000106828096778 0)
(1.1941110965 -9.79802989194e-05 0)
(1.19411493061 -8.46521274439e-05 0)
(1.19411931015 -7.0034194007e-05 0)
(1.19412359307 -5.59585958202e-05 0)
(1.1941274542 -4.33574237915e-05 0)
(1.19413076153 -3.25786317076e-05 0)
(1.19413349994 -2.36092603573e-05 0)
(1.1941357353 -1.62498076891e-05 0)
(1.19413756098 -1.02805100301e-05 0)
(1.19413904957 -5.54936393528e-06 0)
(1.19414018341 -2.04008707369e-06 0)
(1.19414085668 3.30994030928e-07 0)
(1.19414105683 1.802983307e-06 0)
(1.19414105906 2.80844915547e-06 0)
(1.19414106811 3.58191043764e-06 0)
(1.19414107078 4.16237734441e-06 0)
(1.19414104545 4.59326671999e-06 0)
(1.19414096485 4.93550364159e-06 0)
(1.19414082247 5.23319882011e-06 0)
(1.1941406155 5.50983202644e-06 0)
(1.19414035326 5.76883792864e-06 0)
(1.19414005667 6.01596157706e-06 0)
(1.1941397411 6.25970319333e-06 0)
(1.19413942191 6.51257696289e-06 0)
(1.19413912591 6.77257311191e-06 0)
(1.19413889349 7.0254650251e-06 0)
(1.19413877744 7.24681469739e-06 0)
(1.19413884401 7.39830944292e-06 0)
(1.19413917015 7.42200162099e-06 0)
(1.19413981586 7.23467657533e-06 0)
(1.1941407417 6.71815527673e-06 0)
(1.19414195416 5.6430528748e-06 0)
(1.19414366619 3.44110522133e-06 0)
(1.19414705862 -3.95241014202e-07 0)
(1.19415332309 -6.40254103541e-06 0)
(1.19416227412 -1.59369726136e-05 0)
(1.19417435835 -3.12008101934e-05 0)
(1.19419142544 -5.51066672601e-05 0)
(1.19421564667 -9.23486596648e-05 0)
(1.19424982506 -0.000150467580386 0)
(1.19429793806 -0.000241520448166 0)
(1.19436563232 -0.000384690106173 0)
(1.19446088374 -0.00061067107008 0)
(1.19459474724 -0.000968902287048 0)
(1.19478195049 -0.00153944813256 0)
(1.19504029417 -0.00245238276002 0)
(1.19538615014 -0.00392132310305 0)
(1.1958192828 -0.00629739399679 0)
(1.1962824872 -0.0101512465937 0)
(1.19655789856 -0.0163823902037 0)
(1.19605309234 -0.0262977633005 0)
(1.19358481861 -0.0415114115001 0)
(1.1867286937 -0.0635054446843 0)
(1.169731388 -0.0912755906864 0)
(0.998962326093 0.0544317005474 0)
(1.05310958362 0.133401786231 0)
(1.11628273708 0.170777752189 0)
(1.17301283104 0.175143918456 0)
(1.21791263008 0.159583238475 0)
(1.25049877427 0.134949841648 0)
(1.27288506115 0.108409122641 0)
(1.28776718687 0.0838803822843 0)
(1.29745223751 0.0630490887255 0)
(1.30365957457 0.0462886068063 0)
(1.3075899989 0.0333044016152 0)
(1.31004964492 0.0235277031341 0)
(1.31156722093 0.0163316313335 0)
(1.31248547374 0.0111360994509 0)
(1.31302538665 0.00744922101173 0)
(1.31332898461 0.00487541346783 0)
(1.31348725517 0.0031078171092 0)
(1.31355820217 0.00191468866542 0)
(1.3135785109 0.0011247049502 0)
(1.31357108569 0.000613450103328 0)
(1.31354995076 0.000292039078902 0)
(1.31352374142 9.79407476832e-05 0)
(1.31349719401 -1.31628067448e-05 0)
(1.31347267709 -7.07582862244e-05 0)
(1.31345147628 -9.5120992273e-05 0)
(1.31343386042 -9.97461841025e-05 0)
(1.31341968912 -9.3418163383e-05 0)
(1.31340861142 -8.17290910039e-05 0)
(1.31340018141 -6.81242986879e-05 0)
(1.31339394079 -5.46230642502e-05 0)
(1.31338946342 -4.23195600937e-05 0)
(1.31338636954 -3.17200243504e-05 0)
(1.31338432793 -2.29701013785e-05 0)
(1.31338303814 -1.60136925255e-05 0)
(1.31338224118 -1.07188310611e-05 0)
(1.31338176802 -6.91176399422e-06 0)
(1.31338148578 -4.37132630988e-06 0)
(1.31338131091 -2.74118908252e-06 0)
(1.31338135595 -1.61900375885e-06 0)
(1.31338160672 -7.8193674762e-07 0)
(1.31338179605 -2.10761349229e-07 0)
(1.31338184109 2.20028549233e-07 0)
(1.31338181296 5.47420420818e-07 0)
(1.31338174671 8.09718208698e-07 0)
(1.31338163891 1.04445440316e-06 0)
(1.31338147976 1.28249358842e-06 0)
(1.31338126379 1.55164172127e-06 0)
(1.31338099527 1.86317077167e-06 0)
(1.31338069717 2.21431670319e-06 0)
(1.31338038848 2.58154225371e-06 0)
(1.31338007681 2.94356081174e-06 0)
(1.31337978233 3.27434218985e-06 0)
(1.31337953761 3.5328424423e-06 0)
(1.31337938492 3.65659466275e-06 0)
(1.31337938299 3.55420800357e-06 0)
(1.3133796291 3.09792459528e-06 0)
(1.31338025836 2.13893244335e-06 0)
(1.31338122219 6.0133361532e-07 0)
(1.3133826712 -1.67558755403e-06 0)
(1.31338500341 -5.13485826595e-06 0)
(1.31338843742 -1.11763845945e-05 0)
(1.31339310675 -2.15548593321e-05 0)
(1.31339922719 -3.79569285115e-05 0)
(1.31340718713 -6.35309795884e-05 0)
(1.31341722844 -0.000103419266738 0)
(1.31342930764 -0.000165601071757 0)
(1.31344286916 -0.000262554443815 0)
(1.31345631619 -0.000413902683098 0)
(1.31346603585 -0.000650709245008 0)
(1.31346457378 -0.00102235616864 0)
(1.3134373607 -0.00160749618033 0)
(1.31335577016 -0.00253068277155 0)
(1.31316322854 -0.00398941250354 0)
(1.31274842221 -0.00629351024503 0)
(1.31189427075 -0.00991680833828 0)
(1.31018099453 -0.0155497901093 0)
(1.30682535088 -0.0241001357028 0)
(1.30055711674 -0.0365300599528 0)
(1.28938724993 -0.0534459471666 0)
(1.26960985651 -0.0738155699112 0)
(0.995736076564 0.0346339193533 0)
(1.04179517308 0.0905690584869 0)
(1.10222847387 0.121549705065 0)
(1.16491425943 0.129605837117 0)
(1.22202580457 0.122008905953 0)
(1.26951891566 0.106018872804 0)
(1.30680181721 0.0870953258833 0)
(1.33499407688 0.068632696991 0)
(1.35574198832 0.0523633962547 0)
(1.37069096938 0.0389159301231 0)
(1.38127397423 0.0282843278557 0)
(1.38864887709 0.0201527090143 0)
(1.39370984437 0.0140934878396 0)
(1.39712758603 0.00967544682108 0)
(1.39939486615 0.00651472231621 0)
(1.40086782072 0.00429282819675 0)
(1.40180023708 0.00275736436554 0)
(1.4023706282 0.00171476203498 0)
(1.40270296947 0.0010202676418 0)
(1.40288223476 0.00056782342827 0)
(1.40296584775 0.000281080140894 0)
(1.40299211305 0.000105929153524 0)
(1.4029859799 4.27566902831e-06 0)
(1.40296324809 -4.97585873388e-05 0)
(1.40293373482 -7.40435244427e-05 0)
(1.4029032228 -8.044883918e-05 0)
(1.40287486834 -7.67420864479e-05 0)
(1.40285018754 -6.79110935609e-05 0)
(1.40282968782 -5.70603749703e-05 0)
(1.40281328882 -4.60366362643e-05 0)
(1.40280059716 -3.58652851061e-05 0)
(1.40279107637 -2.70430068705e-05 0)
(1.40278415068 -1.97392936964e-05 0)
(1.40277926246 -1.39250435595e-05 0)
(1.40277591707 -9.43633682243e-06 0)
(1.40277372654 -6.0413369805e-06 0)
(1.40277241363 -3.51100100186e-06 0)
(1.40277172505 -1.60216963687e-06 0)
(1.4027713411 -1.68798328386e-07 0)
(1.40277108751 8.16345764028e-07 0)
(1.40277100546 1.41027758433e-06 0)
(1.40277105054 1.80675521275e-06 0)
(1.40277110652 2.12125015838e-06 0)
(1.40277113561 2.40333052558e-06 0)
(1.40277112311 2.68146286633e-06 0)
(1.40277106068 2.97487626118e-06 0)
(1.40277094621 3.29781225211e-06 0)
(1.4027707805 3.65902635696e-06 0)
(1.40277055462 4.0587330633e-06 0)
(1.40277027186 4.47204694782e-06 0)
(1.40276995932 4.87756651834e-06 0)
(1.40276964331 5.25227445765e-06 0)
(1.40276934882 5.56061438763e-06 0)
(1.40276910309 5.74835922417e-06 0)
(1.40276893264 5.73542021437e-06 0)
(1.40276885442 5.40107526976e-06 0)
(1.40276887238 4.55078301554e-06 0)
(1.40276898004 2.91091908369e-06 0)
(1.40276908843 3.52005834054e-07 0)
(1.40276937849 -3.79590950023e-06 0)
(1.40276998379 -1.05986120826e-05 0)
(1.4027704818 -2.13196386933e-05 0)
(1.40277024446 -3.78004728658e-05 0)
(1.40276838708 -6.30340196028e-05 0)
(1.40276327035 -0.000101694675449 0)
(1.40275193566 -0.000160996611932 0)
(1.40272925925 -0.000252114725722 0)
(1.40268646322 -0.000392395546718 0)
(1.40260863367 -0.000608946814498 0)
(1.40247063565 -0.000944248127979 0)
(1.4022308911 -0.00146490857609 0)
(1.40181968981 -0.00227340353644 0)
(1.40111919811 -0.00352749319896 0)
(1.39993154784 -0.00546524441489 0)
(1.39792735942 -0.00843278936888 0)
(1.39456552417 -0.0129025694677 0)
(1.38898447858 -0.0194440738534 0)
(1.37995362269 -0.0285803375956 0)
(1.36583787969 -0.0405045787715 0)
(1.34401788418 -0.0544436149328 0)
(0.994011535091 0.0192358453584 0)
(1.03484767349 0.0523339270173 0)
(1.09199272995 0.0723632114512 0)
(1.15662435031 0.0791292195323 0)
(1.22032125603 0.0761042839526 0)
(1.27701924997 0.0673332328284 0)
(1.32424326376 0.0561493803651 0)
(1.36181340875 0.0447963105713 0)
(1.39068058618 0.034526031068 0)
(1.41225227821 0.0258749169916 0)
(1.4280042528 0.0189372989819 0)
(1.43927724029 0.0135725378218 0)
(1.44719636251 0.00954044835562 0)
(1.45265956858 0.00658011016823 0)
(1.45635867131 0.00445018360639 0)
(1.458812586 0.00294565391439 0)
(1.46040223123 0.00190145102558 0)
(1.46140213732 0.0011895494941 0)
(1.46200692964 0.000713412330468 0)
(1.46235246031 0.000401859272436 0)
(1.46253210781 0.000203385738249 0)
(1.46260907693 8.1328126758e-05 0)
(1.46262538593 9.85861824662e-06 0)
(1.46260823163 -2.87449140188e-05 0)
(1.46257483194 -4.66793831084e-05 0)
(1.46253579212 -5.2104705816e-05 0)
(1.46249721415 -5.03755483545e-05 0)
(1.46246232137 -4.49448678284e-05 0)
(1.4624325361 -3.79743486179e-05 0)
(1.46240818873 -3.07609242176e-05 0)
(1.46238899078 -2.40334129033e-05 0)
(1.46237433575 -1.81489595641e-05 0)
(1.46236348851 -1.32348899823e-05 0)
(1.46235570483 -9.27829474115e-06 0)
(1.46235030145 -6.17899621056e-06 0)
(1.46234669485 -3.80175069435e-06 0)
(1.46234440056 -2.0255350015e-06 0)
(1.46234299977 -7.68511056894e-07 0)
(1.46234224334 8.57879523385e-08 0)
(1.46234191509 7.48397071461e-07 0)
(1.46234180006 1.30781520479e-06 0)
(1.46234180966 1.74743332101e-06 0)
(1.46234187218 2.11092710182e-06 0)
(1.46234194005 2.44034244801e-06 0)
(1.46234198131 2.76278924322e-06 0)
(1.46234197515 3.09380589484e-06 0)
(1.46234191015 3.4399471105e-06 0)
(1.46234178208 3.79936433839e-06 0)
(1.46234158921 4.16612384411e-06 0)
(1.46234133546 4.54293793841e-06 0)
(1.46234103102 4.91760265098e-06 0)
(1.46234068466 5.2613694861e-06 0)
(1.46234030303 5.52993619581e-06 0)
(1.46233989094 5.65930290533e-06 0)
(1.46233945125 5.55972610461e-06 0)
(1.46233898614 5.11118444374e-06 0)
(1.46233850371 4.16183459015e-06 0)
(1.46233799377 2.53395756373e-06 0)
(1.46233725959 7.23383843207e-08 0)
(1.46233590553 -3.52922902137e-06 0)
(1.46233363289 -9.50743089522e-06 0)
(1.46232989511 -1.89560069593e-05 0)
(1.46232346244 -3.33794185212e-05 0)
(1.46231236269 -5.51506412592e-05 0)
(1.46229332721 -8.78925871097e-05 0)
(1.46226093281 -0.000137087484093 0)
(1.46220629153 -0.000211039253983 0)
(1.46211480763 -0.000322307615903 0)
(1.46196254704 -0.000490150936435 0)
(1.4617104356 -0.000744409867257 0)
(1.46129647282 -0.00113180782002 0)
(1.46062102428 -0.00172041703059 0)
(1.45952333603 -0.00261240044295 0)
(1.45774873377 -0.00395679512311 0)
(1.45490072004 -0.00596063492003 0)
(1.45037652259 -0.00889029494278 0)
(1.44329507086 -0.0130412451161 0)
(1.43249158082 -0.0186438273544 0)
(1.41655841171 -0.0257091945181 0)
(1.39342840808 -0.0337557698486 0)
(0.993269671756 0.00617016638343 0)
(1.03158104147 0.0171020773721 0)
(1.08672192815 0.0239906780728 0)
(1.15174569529 0.0265606611699 0)
(1.21823542215 0.0258179667301 0)
(1.27925741958 0.023048627573 0)
(1.33140014266 0.0193650982921 0)
(1.37377306413 0.0155459124756 0)
(1.40690472638 0.0120434080884 0)
(1.43202283898 0.00906411767264 0)
(1.45058530424 0.00665736312376 0)
(1.46400394706 0.00478573123227 0)
(1.47351226124 0.0033727906657 0)
(1.48012251692 0.00233172447946 0)
(1.48463056244 0.00158049305486 0)
(1.48764250262 0.001048511395 0)
(1.48960852568 0.000678465515595 0)
(1.49085614083 0.000425642138452 0)
(1.49161933388 0.000256182948988 0)
(1.49206252163 0.000145044844364 0)
(1.49229939882 7.40636772367e-05 0)
(1.49240732721 3.02824371365e-05 0)
(1.49243804733 4.54611525734e-06 0)
(1.49242532261 -9.46448010474e-06 0)
(1.49239068247 -1.60610308383e-05 0)
(1.4923475083 -1.81514617284e-05 0)
(1.49230363301 -1.7649769201e-05 0)
(1.49226330025 -1.57917020563e-05 0)
(1.4922284908 -1.33527685493e-05 0)
(1.49219979813 -1.07977850377e-05 0)
(1.49217701747 -8.38589352594e-06 0)
(1.49215952083 -6.25320895998e-06 0)
(1.4921464944 -4.4501048498e-06 0)
(1.49213709264 -2.97528372074e-06 0)
(1.49213052449 -1.7974502228e-06 0)
(1.49212610048 -8.73349931673e-07 0)
(1.49212325251 -1.60735166716e-07 0)
(1.49212153653 3.87254606295e-07 0)
(1.49212060249 8.52778829099e-07 0)
(1.49212015889 1.21217042461e-06 0)
(1.49212000588 1.52013007607e-06 0)
(1.49212002447 1.80598281311e-06 0)
(1.49212012458 2.09170072006e-06 0)
(1.49212024458 2.39139321725e-06 0)
(1.49212034459 2.71348810816e-06 0)
(1.49212039948 3.06276627201e-06 0)
(1.49212039454 3.44099503303e-06 0)
(1.49212032214 3.8464817119e-06 0)
(1.49212017808 4.27372974992e-06 0)
(1.4921199616 4.71526571081e-06 0)
(1.49211967442 5.15507810857e-06 0)
(1.49211931589 5.56718932526e-06 0)
(1.49211888034 5.91363383242e-06 0)
(1.49211835509 6.14021849416e-06 0)
(1.49211771693 6.17073769506e-06 0)
(1.4921169265 5.89930941498e-06 0)
(1.49211593213 5.17772535543e-06 0)
(1.49211470773 3.79895105913e-06 0)
(1.49211301892 1.56254898339e-06 0)
(1.49211012019 -1.72368866884e-06 0)
(1.49210545814 -6.6487979913e-06 0)
(1.49209831475 -1.42056947546e-05 0)
(1.49208693626 -2.53450028374e-05 0)
(1.49206859762 -4.15063673216e-05 0)
(1.49203896757 -6.47932514552e-05 0)
(1.49199105957 -9.82293242514e-05 0)
(1.4919137054 -0.000146140029578 0)
(1.49178886695 -0.000214503984086 0)
(1.49158718223 -0.000312138500003 0)
(1.49126079459 -0.000453326309448 0)
(1.49073675395 -0.00066218166358 0)
(1.48990052199 -0.000963953515589 0)
(1.48856960506 -0.00139557266414 0)
(1.48646284733 -0.00200881471348 0)
(1.48315616679 -0.00286965096565 0)
(1.47802758692 -0.00405271717768 0)
(1.47020352844 -0.00562328789618 0)
(1.45856840963 -0.00759847960853 0)
(1.44182268738 -0.00990394055698 0)
(1.41813802195 -0.0123104902147 0)
(0.993270469562 -0.00616840993171 0)
(1.03158102378 -0.0171004015329 0)
(1.08672186102 -0.0239897862108 0)
(1.15174573162 -0.0265602354335 0)
(1.21823549844 -0.0258178900135 0)
(1.27925751985 -0.0230488345711 0)