/*--------------------------------*- C++ -*----------------------------------*\
| =========                 |                                                 |
| \\      /  F ield         | OpenFOAM: The Open Source CFD Toolbox           |
|  \\    /   O peration     | Version:  2106                                  |
|   \\  /    A nd           | Website:  www.openfoam.com                      |
|    \\/     M anipulation  |                                                 |
\*---------------------------------------------------------------------------*/
FoamFile
{
    version     2.0;
    format      ascii;
    arch        "LSB;label=32;scalar=64";
    class       volScalarField;
    location    "0.01";
    object      p;
}
// * * * * * * * * * * * * * * * * * * * * * * * * * * * * * * * * * * * * * //

dimensions      [0 2 -2 0 0 0 0];

internalField   nonuniform List<scalar> 
11200
(
119.068703035
116.150742701
115.050946248
114.536798535
114.177263975
113.882148524
113.611741097
113.347242178
113.081359146
112.811240986
112.535549967
112.253496919
111.964490797
111.667999986
111.36349974
111.050455317
110.728321526
110.396505344
110.054396157
109.701371315
109.336790896
108.959999926
108.570325058
108.167080756
107.7495672
107.317071269
106.868867648
106.404219149
105.922376873
105.422580381
104.904057936
104.366026787
103.80769339
103.228253568
102.62689274
102.002786266
101.355099811
100.682989694
99.9856032294
99.2620790509
98.5115474279
97.733130573
96.9259428582
96.0890908364
95.2216730831
94.3227799248
93.3914930039
92.4268845273
91.4280160843
90.3939370787
89.3236827136
88.2162712756
87.0707004362
85.8859424053
84.6609377638
83.3945876287
82.0857436882
80.7331956127
79.3356552209
77.891736668
76.3999316885
74.8585778673
73.2658203516
71.6195597186
69.9173851566
68.1564906419
66.3335655694
64.4446496974
62.4849507284
60.4486213172
58.3281945457
56.1142450703
53.7945424536
51.3528288036
48.7668300989
46.0046948706
43.0195046164
39.7401113324
36.0128780995
31.1899847959
117.268431448
115.917538985
115.133054034
114.640068047
114.254463516
113.931273017
113.641196749
113.36473943
113.091980305
112.818006541
112.540180187
112.256962569
111.967347657
111.670574676
111.365989179
111.052974962
110.730915869
110.399209143
110.057239041
109.704370691
109.339941926
108.963309272
108.573800012
108.170727313
107.753390065
107.321074187
106.873053968
106.408591982
105.92693919
105.427335076
104.909007876
104.371174824
103.813042337
103.233806202
102.632651843
102.008754626
101.361280195
100.68938488
99.9922160867
99.2689126061
98.5186049005
97.7404154162
96.9334588329
96.0968421348
95.2296644987
94.3310170431
93.3999823813
92.4356338878
91.4370346087
90.4032358291
89.333275143
88.2261737925
87.0809331025
85.8965298605
84.6719103643
83.4059827746
82.097607441
80.7455848188
79.3486403098
77.9054052901
76.4143934661
74.8739679258
73.2822975937
71.6373087277
69.9366469676
68.1775750734
66.3568690992
64.4706810015
62.5143478947
60.482119459
58.3669410154
56.1597556117
53.8488989522
51.419030223
48.8494088246
46.1108590967
43.1606865859
39.9381002864
36.3366038324
32.1407792893
116.269168149
115.620515469
115.071597668
114.637733362
114.269518452
113.947905427
113.654429031
113.374262954
113.098660259
112.822734457
112.543631635
112.25960027
111.969475377
111.672387467
111.367609857
111.054481839
110.732370769
110.400653263
110.05869795
109.705865627
109.341519502
108.964978618
108.575551991
108.172565708
107.755316846
107.323090701
106.875161726
106.410792809
105.929234905
105.429727508
104.911498934
104.37376651
103.81573674
103.236605538
102.635558503
102.011771199
101.364409527
100.692630147
99.9955808738
99.2724010044
98.5222216663
97.744166166
96.9373502271
96.1008820706
95.2338623816
94.3353841541
93.4045323122
92.4403830776
91.4420029853
90.4084476279
89.3387599013
88.2319675224
87.0870797198
85.9030829667
84.6789354473
83.4135598841
82.1058344096
80.7545810819
79.3585513178
77.9164074856
76.4267002589
74.8878381863
73.2980730009
71.6554456708
69.9576974333
68.2022229718
66.3859758692
64.5053455716
62.5559958342
60.5326394454
58.4287593359
56.2362376402
53.9447862812
51.5411730299
49.0081798775
46.3231045529
43.4563254712
40.3735313049
37.0370792961
33.4204108722
115.718250891
115.358802241
114.960974829
114.593880962
114.257926774
113.949381923
113.659657944
113.379746569
113.10334097
112.826447097
112.546507058
112.261833454
111.971244571
111.673834429
111.368841512
111.055577334
110.733387285
110.40162861
110.059657732
109.70682476
109.3424705
108.96592566
108.576527101
108.173571396
107.756360989
107.324176692
106.87629329
106.41197256
105.930464915
105.431009641
104.912835047
104.375158522
103.817186701
103.238115705
102.637131411
102.013409745
101.366117089
100.69441071
99.9974391425
99.2743425361
98.5242530918
97.7462954528
96.9395869669
96.1032378292
95.2363511607
94.3380229761
93.4073418457
92.4433882254
91.4452338335
90.4119406934
89.342559587
88.2361278493
87.0916664537
85.9081762159
84.684632831
83.4199804824
82.1131238523
80.7629183749
79.3681581756
77.9275606538
76.4397497152
74.9032242911
73.3163086366
71.677138734
69.9836171654
68.2333438633
66.4235355391
64.5509271573
62.6116467091
60.6010522446
58.5135284666
56.3422508001
54.0788359244
51.7130030052
49.2322811119
46.6219850891
43.8664229892
40.9546164488
37.8899450759
34.7083410487
115.384340398
115.153944015
114.853168571
114.542723403
114.238129954
113.944706694
113.661124384
113.383184966
113.107007663
112.829707451
112.549212174
112.264025131
111.973023172
111.675305488
111.370096952
111.056690799
110.734414861
110.402611967
110.060628431
109.707807805
109.343487533
108.966996001
108.577651194
108.174756092
107.757601625
107.325475064
106.877650091
106.413389568
105.931943846
105.432552422
104.914443771
104.376835463
103.818934383
103.239936979
102.639029517
102.015388399
101.368180619
100.696564191
99.9996885517
99.2766949803
98.526717097
97.7488812718
96.9423069465
96.1061068555
95.2393871747
94.3412474893
93.4107804881
92.4470727184
91.4492030515
90.416241975
89.3472505351
88.2412786262
87.0973626122
85.9145221161
84.691755804
83.428035998
82.1223018272
80.7734501351
79.3803221569
77.9416884046
76.456248215
74.9225942917
73.3391929119
71.7043491192
70.0161647933
68.2724928692
66.4708794882
64.6084930798
62.6820389812
60.687658539
58.6208169514
56.4761903657
54.2475778939
51.9279207974
49.5095901665
46.9852854034
44.3503988053
41.6089509982
38.7825450005
35.9213494988
115.181120854
115.003645401
114.761229834
114.493021316
114.214827693
113.935994588
113.659538147
113.384645185
113.109488003
112.832289501
112.551539661
112.266006259
111.974678227
111.676693898
111.371284552
111.057736607
110.735367055
110.403507853
110.061495932
109.708667115
109.344352406
108.967874391
108.578545521
108.175669484
107.75854074
107.326446756
106.878660423
106.414442623
105.933042181
105.433698618
104.915640277
104.37808484
103.820239487
103.241300947
102.640455947
102.01688152
101.369745458
100.69820676
100.00141608
99.2785160603
98.5286420517
97.7509225017
96.9444793525
96.1084284247
95.24187975
94.3439377966
93.4137016175
92.4502637337
91.4527110196
90.4201241024
89.3515763191
88.2461324411
87.1028469222
85.9207614454
84.6989015729
83.4362723765
82.1318529478
80.7845900198
79.3933927449
77.9571266555
76.4745701448
74.9444249629
73.3653052053
71.7356946007
70.0539262114
68.3181493082
66.5262906738
64.6760126014
62.7646686026
60.7892622024
58.7464211983
56.6324103776
54.4432292109
52.1748886249
49.8240403238
47.3892572346
44.8735177801
42.2889448155
39.6628231644
37.0422032333
115.057521468
114.897786608
114.688284673
114.449245196
114.19148664
113.925282735
113.655821661
113.384407634
113.110756041
112.834047398
112.553314388
112.267611043
111.976066349
111.677880555
111.372307383
111.058637043
110.736182479
110.404269007
110.06222682
109.709385821
109.345072045
108.968604938
108.579296002
108.176448388
107.759356165
107.327302094
106.87955679
106.415379726
105.934021637
105.434722045
104.916710009
104.379203434
103.821409636
103.242526011
102.641739966
102.018229238
101.371162453
100.699699572
100.002992403
99.2801853447
98.5304157539
97.7528145364
96.9465066203
96.1106114328
95.2442433223
94.3465118716
93.4165222039
92.4533752002
91.4561671516
90.4239902567
89.3559320493
88.2510746245
87.1084935525
85.9272562445
84.706419699
83.4450275483
82.1421061768
80.796659355
79.4076603792
77.9740439866
76.4947168301
74.968515453
73.39421187
71.7704937627
70.0959495749
68.3690503655
66.5881319914
64.7513814312
62.8568304442
60.9023667797
58.885779895
56.8048700752
54.6576703482
52.4428685811
50.1605677251
47.8135816559
45.4095415378
42.9641860815
40.5047161468
38.0706076366
114.982328621
114.826457254
114.634791036
114.414648924
114.171413001
113.914964993
113.65139664
113.383201912
113.11112819
112.835076944
112.554527433
112.268789225
111.977127659
111.678810248
111.373120233
111.059357896
110.736837005
110.404879832
110.062812427
109.709960674
109.345647176
108.969188884
108.579895505
108.177068284
107.759999063
107.327969243
106.880249289
106.416100218
105.934773469
105.435508676
104.917533943
104.380067423
103.822317167
103.243480786
102.642746144
102.019291833
101.372287515
100.700894418
100.004265905
99.2815481416
98.5318806776
97.7543970309
96.9482252946
96.1124887831
95.2463066039
94.3487941248
93.4190634278
92.4562238549
91.4593827516
90.4276451039
89.360113848
88.255889877
87.1140716365
85.9337543557
84.7140288903
83.4539800928
82.1526846773
80.8092087162
79.4226046205
77.991905046
76.5161158767
74.9942275496
73.4251768411
71.8078688697
70.1411623947
68.4238638414
66.6547299286
64.8324794759
62.955818701
61.0234941037
59.0343909715
56.9877058811
54.8832373576
52.7218616968
50.5062849288
48.2421704442
45.9397246498
43.6157705716
41.2952860846
39.0104023835
114.93880026
114.782530949
114.600002726
114.391005945
114.156938582
113.907019346
113.647629397
113.381857735
113.111058326
112.835598889
112.555267781
112.269561945
111.977852412
111.6794621
111.373700734
111.059879413
110.737314755
110.405328236
110.063243756
109.710384791
109.34607177
108.969619887
108.580337406
108.177524426
107.760471949
107.328461167
106.880763154
106.416639072
105.935338991
105.436101977
104.918157076
104.380722941
103.82300797
103.2442106
102.643519451
102.020113938
101.373164747
100.701834373
100.005277767
99.2826430237
98.5330720466
97.755701226
96.9496621694
96.1140824474
95.2480863093
94.3507953895
93.4213294466
92.4588070909
91.4623465284
90.4310662817
89.364085868
88.2605263128
87.119510507
85.9401634156
84.7216120881
83.4629854381
82.1634138307
80.8220284828
79.4379607591
78.010340434
76.5382896103
75.0209406467
73.4574364526
71.8468837969
70.1884092097
68.48115632
66.7242998704
64.9170767253
63.0588353332
61.1491194926
59.1878013209
57.1752881889
55.1128385724
53.0030313936
50.8504377941
48.662523434
46.4507545928
44.2317988198
42.0279783
39.8655537341
114.918713197
114.761613585
114.58293032
114.379073228
114.149418223
113.902753283
113.645517655
113.38103852
113.110945426
112.835832016
112.55564303
112.269973603
111.978251928
111.679831905
111.374038702
111.060190195
110.737605233
110.405605358
110.063513637
109.710652468
109.346341266
108.969894371
108.580619385
108.177815932
107.76077473
107.328776879
106.881093447
106.416985233
105.935702467
105.436484736
104.918561451
104.381151658
103.823464171
103.244697921
102.644042333
102.020677757
101.373775988
100.702500884
100.006009069
99.2834506594
98.5339699968
97.7567064393
96.9507952109
96.1153682709
95.2495551867
94.3524840512
93.4232824723
92.4610786181
91.4650023301
90.4341862683
89.3677670846
88.264886578
87.1246928635
85.9463415481
84.7289968865
83.4718330014
82.174035276
80.8348019304
79.4533460086
78.0288981544
76.5607084408
75.0480431297
73.4901926762
71.8865184581
70.2364277748
68.5393948615
66.794973289
65.0028830705
63.163063411
61.2757722539
59.3417372381
57.3623746666
55.340101219
53.2787646417
51.1842116663
49.0649791012
46.9330315077
44.8043986671
42.6990415418
40.6389231479
114.918715758
114.761629596
114.582957175
114.379109501
114.149463085
113.902805799
113.645576891
113.381103656
113.111015711
112.835906833
112.555721897
112.270056152
111.978337893
111.679921108
111.374131038
111.060285621
110.737703771
110.405707087
110.063618689
109.710761048
109.346453638
108.970010863
108.580740424
108.177942049
107.760906513
107.328915007
106.881238771
106.41713878
105.935865585
105.436659164
104.918749249
104.381355287
103.823686621
103.244942806
102.644314024
102.020981558
101.374118346
100.702889651
100.006453798
99.283962956
98.5345639501
97.7573991639
96.9516074983
96.1163253633
95.2506877232
94.3538292317
93.4248854679
92.4629942746
91.4672972352
90.4369412671
89.3710803148
88.2688771475
87.1295053094
85.9521512422
84.7360166198
83.4803210032
82.1843048995
80.8472333552
79.4684002978
78.0471339141
76.5828038705
75.0748317165
73.5227000563
71.925960814
70.2842528663
68.597346053
66.8652014728
65.0879842757
63.266157956
61.400597808
59.4927455044
57.5448229237
55.5601212714
53.543378953
51.5012496653
49.4428283337
47.380146841
45.3285025145
43.3060785825
41.3320113028
114.938808028
114.782579445
114.600084326
114.391115604
114.157073985
113.907177711
113.64780785
113.382053715
113.111269644
112.835823729
112.555504693
112.269809833
111.978110482
111.679729821
111.373977805
111.060165731
110.737610386
110.405633411
110.063558878
109.710710454
109.346408741
108.969969127
108.580700137
108.177902144
107.760866422
107.328874605
106.881198354
106.417098994
105.935827353
105.436623909
104.918718764
104.381331803
103.8236729
103.24494226
102.644330847
102.021020884
101.374186455
100.702994218
100.006604191
99.2841705743
98.534842661
97.7577658324
96.9520826213
96.1169338328
95.2514597671
94.3548015646
93.4261026789
92.464510506
91.46917822
90.4392667954
89.3739472091
88.2724028626
87.1338322894
85.9574522009
84.7425009575
83.4882425709
82.1939713572
80.8590174894
79.4827536615
78.0646030732
76.6040491422
75.1006479427
73.5540442556
71.9639934812
70.3303871756
68.6532859015
66.9329654621
65.1699798467
63.3652469646
61.5201602828
59.6367386836
57.7178257495
55.7673484217
53.7906415196
51.7948340576
49.7892629375
47.7858352437
45.7992307152
43.8464824421
41.9450898092
114.982341809
114.826539406
114.634929009
114.414833835
114.171640803
113.915230918
113.651695814
113.383530028
113.111481604
112.835452662
112.554923052
112.269202929
111.977558145
111.679256663
111.373582112
111.059835098
110.73732965
110.405388298
110.063337384
109.710503084
109.346208288
108.969770313
108.580499237
108.177696613
107.760654596
107.328655536
106.880971798
106.416865129
105.935586673
105.436377532
104.918468233
104.381079081
103.823420487
103.244693297
102.644089238
102.020791451
101.373975142
100.702808328
100.006452654
99.2840642955
98.5347949341
97.7577928473
96.9522040634
96.1171736263
95.2518469898
94.3553715487
93.4268983344
92.4655839416
91.4705927073
90.4410991155
89.3762904784
88.2753699832
87.137560132
85.9621066379
84.7482829323
83.4953954431
82.2027897578
80.8698579175
79.4960471464
78.0808704029
76.6239191387
75.1248789388
73.5835488625
71.9998660823
70.3739364295
68.7060740526
66.9968517108
65.2471642894
63.4583127872
61.6321120361
59.7710292611
57.8783612208
55.9584570329
54.0169908408
52.0612834836
50.1006511087
48.1467290899
46.213714777
44.3181118108
42.476931269
115.057540506
114.897904605
114.688482127
114.44950877
114.191810218
113.925659355
113.65624434
113.384870305
113.111253606
112.834575697
112.553870105
112.268191655
111.976670056
111.678506201
111.372954355
111.05930516
110.736871916
110.404980274
110.062960823
109.710143858
109.345855802
108.969416841
108.58013931
108.177326448
107.760271532
107.328257753
106.880558652
106.416436799
105.935142732
105.435918947
104.917996187
104.380595231
103.822927009
103.244192976
102.643585584
102.020288859
101.37347909
100.702325593
100.00599157
99.2836350208
98.5344098344
97.7574670056
96.9519558487
96.1170253967
95.2518259473
94.3555107573
93.4272379647
92.4661727952
91.4714900388
90.4423768012
89.3780356639
88.2776883058
87.1405795904
85.9659822529
84.7532023639
83.501585762
82.2105255655
80.8794710545
79.5079382361
78.0955224946
76.6419138083
75.1469151912
73.6104650711
72.0326648357
70.4138125518
68.7544448837
67.0553890125
65.3178261423
63.5433712598
61.7341717721
59.8930291564
58.0235484825
56.1303211192
54.21914503
52.2972903698
50.3738110965
48.4598955637
46.5692980779
44.7184692598
42.9249469899
115.181146438
115.003802978
114.761491993
114.493369313
114.215252839
113.936487442
113.6600895
113.385247187
113.110134148
112.832974502
112.552259323
112.266757399
111.97545857
111.677501974
111.372119546
111.058598204
110.736255388
110.404423428
110.06243969
109.709640351
109.345356567
108.968912239
108.579622679
108.176793359
107.75971861
107.327681942
106.879958145
106.415811611
105.93449408
105.435246474
104.917300631
104.379877875
103.822189685
103.243438091
102.64281621
102.019508878
101.372693364
100.70154014
100.005213762
99.2828739515
98.533676717
97.7567755168
96.9513226523
96.1164707832
95.2513745975
94.3551926759
93.4270896257
92.4662384983
91.4718235303
90.4430432624
89.3791141277
88.2792745273
87.1427895128
85.9689562664
84.7571104109
83.5066333557
82.21696099
80.8875939698
79.5181098524
78.1081775707
76.6575746923
75.166208064
73.6341385304
72.0616107797
70.4490891003
68.7973004763
67.1072861774
65.380463228
63.618697808
61.8243919754
60.0005852606
58.1510728994
56.2805435036
54.3947406618
52.5006652731
50.6068445153
48.7237200485
46.8643843243
45.0453360294
43.285281781
115.384373269
115.154146061
114.853501949
114.543162836
114.238663482
113.945321991
113.661809866
113.383931012
113.107806417
112.830552619
112.550098861
112.264949717
111.973983178
111.676299407
111.371123997
111.057750658
110.735507617
110.403738032
110.061788659
109.709003026
109.344717759
108.968260898
108.578951534
108.176098433
107.758997085
107.326931235
106.879176101
106.414995681
105.933644373
105.434363869
104.916385893
104.378931587
103.821213111
103.24243305
102.641785136
102.018454934
101.371620562
100.700453496
100.004119486
99.2817798855
98.532592484
97.7557128896
96.9502960252
96.115497735
95.250476555
94.3543957345
93.426425574
92.4657460299
91.4715496726
90.4430451107
89.3794609359
88.2800502481
87.1440958884
85.9709163221
84.7598721567
83.5103756123
82.2218997534
80.8939897623
79.5262764442
78.1184921512
76.6704897031
75.1822648113
73.6539825596
72.086008782
70.4789471788
68.8336827675
67.1514325319
65.4338035069
63.6828590396
61.9011926523
60.0920084064
58.2592061675
56.4074700251
54.5423601517
52.6704250016
50.7993693614
48.9384019115
47.0992812567
45.2977935353
43.5532633719
115.718291041
115.359052449
114.961381978
114.59441227
114.258566359
113.950114068
113.660468559
113.380624286
113.104276672
112.827433603
112.547538984
112.26290711
111.972357874
111.674986828
111.370033745
111.056810753
110.734663247
110.402948703
110.061025436
109.708245109
109.343949702
108.967470379
108.578129232
108.175238922
107.758097753
107.325991208
106.878194905
106.413971242
105.93257575
105.43325064
104.915228005
104.377730336
103.81996959
103.241148668
102.6404618
102.01709517
101.370227652
100.699031682
100.002674244
99.2803176771
98.5311212444
97.7542424183
96.9488383505
96.1140675548
95.2490918343
94.3530784871
93.4252026328
92.4646496575
91.4706188619
90.4423270854
89.3790129003
88.2799414547
87.1444100288
85.9717546665
84.7613584234
83.5126591208
82.2251603335
80.8984438695
79.532184254
78.1261658407
76.6803030168
75.1946639233
73.6694983818
72.1052704991
70.5026967126
68.8627891659
67.1869047218
65.476799906
63.7346906893
61.9633148813
60.1659930404
58.3466828031
56.510019321
54.6613293036
52.8066143301
50.9525083154
49.1063573006
47.2772852802
45.4779676147
43.724826934
116.269220346
115.620827992
115.07208864
114.638361901
114.270265011
113.948751039
113.655357356
113.375261096
113.099717904
112.823843353
112.544785293
112.260793716
111.970705107
111.673651814
111.368909704
111.055820126
110.733750411
110.402073805
110.060161245
109.707373816
109.343060258
108.966554375
108.577180528
108.174249209
107.75706212
107.324909353
106.877063769
106.412791375
105.931345066
105.431968542
104.913894378
104.376344979
103.818532892
103.239661406
102.638925166
102.015510834
101.368597845
100.697359269
100.000962812
99.2785719525
98.5293471636
97.7524473118
96.9470312538
96.1122595889
95.2472965775
94.3513122969
93.4234852864
92.4630057959
91.4690786769
90.4409273096
89.3777980792
88.2789654267
87.1437376309
85.9714643097
84.7615445166
83.5134356953
82.2266650704
80.9008426976
79.5356767985
78.1309917939
76.686749459
75.2030737217
73.6802795053
72.1189063018
70.5197566219
68.8839384242
67.2129139778
65.5085531696
63.7731885064
62.009669742
60.2214113422
58.4124257263
56.5873274596
54.7512655259
52.9097776592
51.06843308
49.2323168431
47.406446399
45.5957473795
43.8022139062
117.268531112
115.917996831
115.133737994
114.640924642
114.255469447
113.932407294
113.642442038
113.366082162
113.093409546
112.819513184
112.541756285
112.258600747
111.969040736
111.672315364
111.367770116
111.054791981
110.73277752
110.401115979
110.059188957
109.706367144
109.342005451
108.965447511
108.57601842
108.173029378
107.755780426
107.323561827
106.875650948
106.411312319
105.929799628
105.430356114
104.912214491
104.374597284
103.816717254
103.237777946
102.636974303
102.013493345
101.366514937
100.695212669
99.9987548557
99.2763056493
98.52702633
97.7500767718
96.9446170678
96.1098092945
95.2448195138
94.3488200758
93.4209921946
92.4605289301
91.4666387028
90.4385493093
89.3755124964
88.2768093683
87.1417567466
85.9697137154
84.7600900436
83.5123566511
82.2260569004
80.9008200682
79.5363772364
78.1325799226
76.6894218533
75.2070643311
73.6858657767
72.1264158096
70.5295731327
68.8965056594
67.2287536613
65.5282719239
63.7974804812
62.0393200775
60.2572976815
58.4555176701
56.6386764274
54.8119129038
52.980671011
51.1501504751
49.3243128838
47.5053410048
45.685444295
43.8144149628
119.06886943
116.15141383
115.051939644
114.538053368
114.178750383
113.883842096
113.613623383
113.34929953
113.083581625
112.813621895
112.538085817
112.256187308
111.967337933
111.671007495
111.366670906
111.053789252
110.731804262
110.400139439
110.058191867
109.705335057
109.340928929
108.964317794
108.574829546
108.171778116
107.754465666
107.32218165
106.874203445
106.409796335
105.928214356
105.42870079
104.910488398
104.372799788
103.814847828
103.235836197
102.634959999
102.011406447
101.36435564
100.692981446
99.9964524969
99.2739333159
98.5245856557
97.7475699719
96.9420470123
96.1071796055
95.2421347158
94.3460857564
93.4182152429
92.4577178898
91.4638040926
90.4357039547
89.3726719679
88.2739923969
87.138985582
85.9670153645
84.7574976086
83.5099101846
82.2238047011
80.898820304
79.5346998981
78.1313091666
76.6886587757
75.2069302513
73.6865059814
72.1280039518
70.5323191809
68.9006753888
67.2346518556
65.5362497721
63.8079519409
62.0527731117
60.2743063116
58.476749197
56.6649128467
54.8443443996
53.0211564224
51.2017793797
49.3928711311
47.6012329954
45.809513132
43.836672731
23.391504108
19.9968077162
17.6535440179
15.721312486
14.048980119
12.5779210266
11.2721291712
10.105456379
9.05809846906
8.11428018511
7.26106520561
6.48765425242
5.78490446361
5.14499263766
4.56116998116
4.02757606654
3.53909455783
3.09123847717
2.68005696231
2.30205857126
1.95414755341
1.63357082436
1.33787311321
1.0648594566
0.812562721312
0.579215668796
0.36322657582
0.163158035379
-0.0222912270556
-0.194301443614
-0.353944960209
-0.502197759448
-0.639949972444
-0.768015254272
-0.887139231308
-0.998006245649
-1.10124484511
-1.19743308293
-1.28710293324
-1.37074488667
-1.44881212829
-1.52172128946
-1.58984408058
-1.6534997879
-1.71303954225
-1.76877363458
-1.82101545993
-1.87004150477
-1.91609984158
-1.95941679775
-2.00020219771
-2.03865235991
-2.07494598226
-2.10924135112
-2.1417094541
-2.17249643498
-2.20173723111
-2.22955927126
-2.2560762299
-2.28139115515
-2.30557380276
-2.32875961625
-2.35102650192
-2.37245200174
-2.39310856682
-2.41306272476
-2.432375462
-2.45110260894
-2.469295786
-2.48700231879
-2.50426542803
-2.52112429024
-2.53761461596
-2.55376897149
-2.56961664488
-2.58518393493
-2.60049469276
-2.61557065342
-2.63043088521
-2.64509194509
-2.65956831411
-2.67387295218
-2.68801702801
-2.70200974937
-2.71585812896
-2.72956775541
-2.74314318387
-2.75658765733
-2.7699019785
-2.78308516384
-2.7961351717
-2.80904874989
-2.82182031982
-2.83444222305
-2.84690535462
-2.8591989724
-2.87131011432
-2.88322306585
-2.89491973699
-2.90637994408
-2.91758076086
-2.92849575118
-2.93909498864
-2.94934511677
-2.9592085659
-2.96864344977
-2.97760283422
-2.98603407973
-2.99387836445
-3.00107032119
-3.00753689099
-3.01319656204
-3.01795913133
-3.02172476985
-3.02438191975
-3.02580657294
-3.02586187457
-3.02439607466
-3.02124017824
-3.01620785967
-3.00909409449
-2.99967088091
-2.98768654591
-2.97286482138
-2.95490077623
-2.93345770303
-2.90816723522
-2.87862542757
-2.84438920321
-2.80497538051
-2.75985833679
-2.70846676897
-2.65018312253
-2.58434348467
-2.51023672134
-2.42710726832
-2.33415941191
-2.23056539558
-2.11547668168
-1.98804207681
-1.8474326739
-1.69287696743
-1.52371061959
-1.33944435803
-1.13985343175
-0.925101117439
-0.695896097045
-0.453717456142
-0.20115520288
0.0586899195047
0.318870057992
0.572156281633
0.807711434992
1.01570371721
1.17598720286
1.26063177245
1.2506398271
1.11873671948
0.812556873912
0.450755852412
26.7091042736
22.7291396095
20.0498309728
17.9095648832
16.0987982905
14.5293846438
13.1496164234
11.9251686307
10.8313461054
9.84923528911
8.96380154833
8.16279205317
7.43603137956
6.77494890704
6.17224600544
5.62165256769
5.11774251488
4.65579227529
4.23166783349
3.84173408248
3.48278090987
3.15196275523
2.84674856705
2.56488055516
2.30433803703
2.06330818795
1.84015942348
1.63341943838
1.44175543601
1.26395909634
1.09893247018
0.945675821078
0.80327723633
0.67090215969
0.547785868007
0.43322542162
0.32657511358
0.227240506092
0.134674189787
0.0483710329538
-0.0321366998213
-0.107283779463
-0.177479072552
-0.243108183998
-0.304524571091
-0.362043308884
-0.415930499657
-0.466453672163
-0.513869388572
-0.558426683894
-0.600349788927
-0.639841655939
-0.677095175807
-0.712299833176
-0.745607419215
-0.777169025279
-0.807124384735
-0.835601387072
-0.862720819631
-0.888597357556
-0.913337432271
-0.93703421107
-0.959772769573
-0.98163364266
-1.00269187338
-1.0230170771
-1.04267242937
-1.06171658771
-1.08020300429
-1.09818137688
-1.11569654151
-1.13278943181
-1.14949745689
-1.16585446996
-1.18189152994
-1.19763582355
-1.21311319614
-1.2283458174
-1.24335485532
-1.25815687678
-1.2727689718
-1.2872037968
-1.30147489375
-1.31559108264
-1.3295618289
-1.34339281807
-1.35709078585
-1.37065915292
-1.38410089122
-1.39741508582
-1.41060252276
-1.42366005662
-1.43658424722
-1.44936911489
-1.46200689789
-1.47448922362
-1.48680498095
-1.49893974397
-1.51087965814
-1.52260519962
-1.53409761206
-1.54533301209
-1.55628536541
-1.56692402838
-1.57721710781
-1.58712636936
-1.59660972214
-1.60562160225
-1.61410773627
-1.62201076326
-1.62926517675
-1.63579821347
-1.64152916102
-1.64636833304
-1.65021653089
-1.65296279553
-1.65448474785
-1.65464686525
-1.65329816979
-1.65027320191
-1.64538887245
-1.63844178941
-1.6292083537
-1.61744508319
-1.60287944102
-1.58521526912
-1.56412745309
-1.53926112939
-1.5102278815
-1.47660519735
-1.43793889237
-1.39373295419
-1.3434576171
-1.28654804999
-1.22240564784
-1.15039807804
-1.06987243751
-0.980162291031
-0.880602280852
-0.770545022981
-0.64939545216
-0.51664453064
-0.371928131028
-0.215087987471
-0.0462728405844
0.13394471048
0.324406875677
0.52316752907
0.727236746963
0.932530927742
1.13241468882
1.31866727301
1.47889754095
1.60900931488
1.68753097396
1.67971305101
1.5762118077
1.34818764565
0.958500683167
0.497935967641
29.0195937398
25.1081141973
22.2561609946
19.9709067143
18.0521494806
16.4013546917
14.9585700126
13.6840791254
12.5495686404
11.5336621743
10.6196138109
9.79395594575
9.04563743319
8.36544820661
7.74561752657
7.17952330333
6.66147417773
6.18654451992
5.75044454643
5.34941760787
4.98015738079
4.63974107966
4.32557443263
4.03534707082
3.76699371714
3.51866290365
3.28868904077
3.07556932351
2.87794350318
2.6945778431
2.5243508469
2.36624042215
2.21931364663
2.08271600522
1.95566389519
1.83743679924
1.72737215645
1.6248596066
1.52933639962
1.44028291881
1.35721824639
1.27969780606
1.20731172646
1.1396811776
1.076436214
1.01724373132
0.961796920247
0.909808935024
0.861015051999
0.815180037996
0.772079142776
0.731489315962
0.693232146517
0.657125826715
0.62299856838
0.590690735963
0.560055119101
0.530956742953
0.503269949719
0.476878430133
0.451675676272
0.427560559174
0.404441702267
0.382234282937
0.360860211038
0.340247085986
0.320328902018
0.301044494516
0.282338108851
0.264158221379
0.246458098106
0.229194961409
0.212329586178
0.195826643299
0.179653686823
0.163782082308
0.148184684023
0.132838200112
0.117720253116
0.102813110916
0.0880986658049
0.0735632880916
0.0591925833465
0.0449767139682
0.0309052524185
0.0169712215723
0.00316704781554
-0.0105114283437
-0.0240683011505
-0.0375039820169
-0.0508203118693
-0.0640155454817
-0.0770874487918
-0.0900317245241
-0.102842194914
-0.115512013543
-0.128032365379
-0.14039064225
-0.152575490677
-0.164570248757
-0.176358559719
-0.187919858664
-0.199231703841
-0.21026726797
-0.220998724127
-0.231393131912
-0.2414129936
-0.25101861166
-0.260162567185
-0.268794324166
-0.276856344337
-0.284284948374
-0.291009296811
-0.296950228552
-0.30202044058
-0.306123067764
-0.30915048518
-0.310983582366
-0.31149032444
-0.31052578748
-0.30792974124
-0.303524717638
-0.297115502387
-0.28849014214
-0.277412163779
-0.263625462571
-0.24684916845
-0.226777898915
-0.20307938812
-0.175393411141
-0.143335786375
-0.106489801346
-0.0644137443411
-0.0166416181312
0.0373129776956
0.0979558615177
0.165798397251
0.24134715056
0.325086882559
0.41746097962
0.518836281576
0.629465400192