/*--------------------------------*- C++ -*----------------------------------*\
| =========                 |                                                 |
| \\      /  F ield         | OpenFOAM: The Open Source CFD Toolbox           |
|  \\    /   O peration     | Version:  2106                                  |
|   \\  /    A nd           | Website:  www.openfoam.com                      |
|    \\/     M anipulation  |                                                 |
\*---------------------------------------------------------------------------*/
FoamFile
{
    version     2.0;
    format      ascii;
    arch        "LSB;label=32;scalar=64";
    class       volVectorField;
    location    "0.01";
    object      U;
}
// * * * * * * * * * * * * * * * * * * * * * * * * * * * * * * * * * * * * * //

dimensions      [0 1 -1 0 0 0 0];

internalField   nonuniform List<vector> 
11200
(
(0.662075525429 0.150803157509 0)
(0.559421908835 0.102661951895 0)
(0.388526760398 0.0499014146183 0)
(0.295280323597 0.0228607353592 0)
(0.25187976408 0.0102315658679 0)
(0.230096919369 0.00458510797425 0)
(0.218903173103 0.00209654114132 0)
(0.213162853795 0.000991768047985 0)
(0.210174853042 0.000491312615985 0)
(0.208584013591 0.000257232136484 0)
(0.207723379305 0.000143638816376 0)
(0.207254857621 8.66912103171e-05 0)
(0.20700074164 5.72938619851e-05 0)
(0.206864948209 4.15001746982e-05 0)
(0.206794297713 3.24447690902e-05 0)
(0.206758761509 2.7117171283e-05 0)
(0.206742162883 2.524205159e-05 0)
(0.206736207503 2.58555406085e-05 0)
(0.206735696696 2.72585860386e-05 0)
(0.20673749126 2.88796791009e-05 0)
(0.206739966563 3.10064564614e-05 0)
(0.206742361207 3.33335034566e-05 0)
(0.206744410971 3.56797140387e-05 0)
(0.206746029563 3.79319582295e-05 0)
(0.206747276364 4.0086843287e-05 0)
(0.206748235387 4.21822415648e-05 0)
(0.20674896952 4.42523637872e-05 0)
(0.206749528406 4.63130436089e-05 0)
(0.206749958235 4.83738215014e-05 0)
(0.206750295841 5.04464836258e-05 0)
(0.206750560646 5.25395448592e-05 0)
(0.206750759636 5.46538864689e-05 0)
(0.2067509025 5.67873920648e-05 0)
(0.206751006461 5.89389307135e-05 0)
(0.20675108637 6.11088018278e-05 0)
(0.206751147169 6.32984448219e-05 0)
(0.206751188766 6.55076229493e-05 0)
(0.206751215076 6.77321544605e-05 0)
(0.206751234929 6.99679391369e-05 0)
(0.206751252998 7.22156000672e-05 0)
(0.206751262562 7.44769607998e-05 0)
(0.206751251759 7.67488726703e-05 0)
(0.206751217089 7.90249359213e-05 0)
(0.206751166122 8.13021103855e-05 0)
(0.206751105371 8.35810299167e-05 0)
(0.206751030455 8.58601327868e-05 0)
(0.20675093164 8.81339734352e-05 0)
(0.206750808015 9.03966324306e-05 0)
(0.20675066994 9.26456906183e-05 0)
(0.20675052747 9.48801699208e-05 0)
(0.206750383405 9.70980016731e-05 0)
(0.206750239268 9.92960962663e-05 0)
(0.206750105414 0.000101471135399 0)
(0.206750003203 0.000103620123355 0)
(0.206749959477 0.000105740705042 0)
(0.206750006283 0.000107829801234 0)
(0.206750196524 0.000109879647388 0)
(0.206750630156 0.000111871718581 0)
(0.206751473334 0.000113769695909 0)
(0.206752990493 0.000115505185373 0)
(0.206755660165 0.000116982143188 0)
(0.206760133197 0.000118291824336 0)
(0.206767317173 0.000119800164151 0)
(0.206778576785 0.000121995440722 0)
(0.206796161911 0.000124563872086 0)
(0.206823699717 0.000127150572702 0)
(0.206866617929 0.000129492383963 0)
(0.206932612551 0.000131839577009 0)
(0.207032929907 0.00013648202074 0)
(0.207192341513 0.000148063024759 0)
(0.207448267835 0.000156910229387 0)
(0.20785354385 0.000159288127667 0)
(0.208495731462 0.000149302855766 0)
(0.209523977377 0.000111972790147 0)
(0.211204503277 5.67096762611e-06 0)
(0.214000750774 -0.000296075941776 0)
(0.218973264197 -0.00123490580425 0)
(0.231120308569 -0.0048975590236 0)
(0.269299850184 -0.0213324908602 0)
(0.322392206019 -0.0951257758726 0)
(0.965486579777 0.288816166663 0)
(0.96580801402 0.24836121333 0)
(0.838082683537 0.150431707792 0)
(0.728853985307 0.0843478828108 0)
(0.660218067179 0.0454616469477 0)
(0.618643318661 0.0240285013456 0)
(0.594217894686 0.0126572445583 0)
(0.580297449793 0.00671636333966 0)
(0.572438394826 0.00361273377733 0)
(0.567983308271 0.00197322048916 0)
(0.565440564942 0.00109155066044 0)
(0.563981059155 0.000608243366945 0)
(0.563140648575 0.000338853216175 0)
(0.562656937574 0.000186817640549 0)
(0.562379980613 0.000100459783287 0)
(0.562223514208 5.18207833892e-05 0)
(0.562137017832 2.60529767957e-05 0)
(0.562090304705 1.3862824886e-05 0)
(0.562066047608 8.78828485996e-06 0)
(0.562054896936 7.16401059032e-06 0)
(0.562050746536 6.53668606191e-06 0)
(0.562049679952 6.34374618906e-06 0)
(0.562049977302 6.77184354987e-06 0)
(0.56205076649 7.38101246697e-06 0)
(0.562051716034 8.01875014576e-06 0)
(0.562052674666 8.6546499582e-06 0)
(0.562053552313 9.28150807434e-06 0)
(0.562054307236 9.87643122629e-06 0)
(0.562054944114 1.04338525399e-05 0)
(0.562055483773 1.09701568796e-05 0)
(0.562055937279 1.15015638551e-05 0)
(0.562056307306 1.2029053884e-05 0)
(0.562056603881 1.25440445087e-05 0)
(0.562056846842 1.30418766758e-05 0)
(0.562057054045 1.35297631673e-05 0)
(0.562057233307 1.4020572404e-05 0)
(0.562057385059 1.45173362228e-05 0)
(0.562057510407 1.5010669304e-05 0)
(0.562057614915 1.54966391941e-05 0)
(0.562057700838 1.59880891681e-05 0)
(0.562057757447 1.64989265376e-05 0)
(0.56205776725 1.70251383349e-05 0)
(0.562057724079 1.75519910816e-05 0)
(0.562057637979 1.80759558309e-05 0)
(0.562057518361 1.86092654291e-05 0)
(0.562057358801 1.91637142848e-05 0)
(0.562057142841 1.97384593875e-05 0)
(0.562056865778 2.03215995127e-05 0)
(0.562056540366 2.09088768855e-05 0)
(0.562056180309 2.1506776697e-05 0)
(0.562055792106 2.2122194738e-05 0)
(0.562055386239 2.27536522648e-05 0)
(0.562054992232 2.33937636804e-05 0)
(0.562054662373 2.40379651087e-05 0)
(0.562054470006 2.46865055811e-05 0)
(0.562054518152 2.53347957202e-05 0)
(0.562054966411 2.59603465264e-05 0)
(0.562056076772 2.65183985358e-05 0)
(0.562058264343 2.69522855796e-05 0)
(0.562062209495 2.71770464442e-05 0)
(0.562069288329 2.70130527433e-05 0)
(0.562081623664 2.63637974655e-05 0)
(0.562102044056 2.3950656722e-05 0)
(0.562133801468 1.77694777238e-05 0)
(0.562182357674 6.77451019189e-06 0)
(0.562257405089 -1.08542455575e-05 0)
(0.562373997362 -3.81325987649e-05 0)
(0.562555801767 -7.92931834727e-05 0)
(0.562840208015 -0.000139204598821 0)
(0.563282133574 -0.000224721464861 0)
(0.563974238315 -0.000362589399333 0)
(0.56506825224 -0.000594105682673 0)
(0.566803791888 -0.000986198631701 0)
(0.569586959356 -0.00166156624357 0)
(0.574142685709 -0.00288209301409 0)
(0.58177747562 -0.00528236060545 0)
(0.594919800102 -0.0105506196841 0)
(0.619789589727 -0.0238822567797 0)
(0.666863198782 -0.0630928489991 0)
(0.704942898097 -0.18056249713 0)
(1.02260860623 0.235967581159 0)
(1.08717323494 0.284539008129 0)
(1.05166545799 0.218352366736 0)
(0.990432212064 0.145890132223 0)
(0.938396181748 0.0899608448257 0)
(0.900618423335 0.0527773207154 0)
(0.875509825828 0.0301453013051 0)
(0.859803280899 0.0170299379636 0)
(0.850280825433 0.00961098402082 0)
(0.84458038659 0.00544594867807 0)
(0.841183716857 0.00309976074106 0)
(0.839162421039 0.00176655947723 0)
(0.837959903516 0.00100200777364 0)
(0.837245258911 0.000560850199646 0)
(0.836821871143 0.000306087071906 0)
(0.836572468221 0.000159833881547 0)
(0.836426641724 7.66926779105e-05 0)
(0.83634209401 3.03612521932e-05 0)
(0.83629365235 5.53510695858e-06 0)
(0.836266034572 -7.04310574257e-06 0)
(0.836250663429 -1.33546819058e-05 0)
(0.836243173695 -1.61992776989e-05 0)
(0.836239968262 -1.77255410622e-05 0)
(0.836238615112 -1.85628227075e-05 0)
(0.836238279512 -1.92046336958e-05 0)
(0.836238480336 -1.97712509521e-05 0)
(0.836238913882 -2.03266190271e-05 0)
(0.836239407922 -2.09331996829e-05 0)
(0.836239894777 -2.16136137026e-05 0)
(0.836240350174 -2.23487800038e-05 0)
(0.836240760452 -2.31143899367e-05 0)
(0.836241116913 -2.39065370569e-05 0)
(0.836241419827 -2.47398995205e-05 0)
(0.836241677411 -2.56238276916e-05 0)
(0.836241900618 -2.65437097091e-05 0)
(0.836242097403 -2.74747401826e-05 0)
(0.836242269005 -2.8411239431e-05 0)
(0.836242413059 -2.93675507585e-05 0)
(0.836242529523 -3.03466706577e-05 0)
(0.836242617555 -3.132411698e-05 0)
(0.836242667644 -3.22749003611e-05 0)
(0.836242665041 -3.32033554481e-05 0)
(0.83624260309 -3.41326834592e-05 0)
(0.836242487459 -3.50700418564e-05 0)
(0.836242324527 -3.59956541157e-05 0)
(0.83624211059 -3.68870638279e-05 0)
(0.8362418311 -3.77405792875e-05 0)
(0.836241479302 -3.85734492954e-05 0)
(0.836241064853 -3.93904066268e-05 0)
(0.836240600584 -4.01767887624e-05 0)
(0.83624009881 -4.09163473536e-05 0)
(0.836239579884 -4.16107488184e-05 0)
(0.836239082958 -4.22768807922e-05 0)
(0.836238673496 -4.29283390323e-05 0)
(0.836238452339 -4.35719461019e-05 0)
(0.836238574033 -4.4236057174e-05 0)
(0.83623928284 -4.5017298029e-05 0)
(0.836240979722 -4.61265825002e-05 0)
(0.836244292296 -4.79364389074e-05 0)
(0.836250176053 -5.11417476469e-05 0)
(0.836260427566 -5.72070059084e-05 0)
(0.836276713393 -6.78822703526e-05 0)
(0.836301169436 -8.45095154739e-05 0)
(0.836339496645 -0.000109761300526 0)
(0.836400711107 -0.000147065015649 0)
(0.836497144388 -0.000202228814573 0)
(0.836647957039 -0.000284578406292 0)
(0.836883421573 -0.000408846923195 0)
(0.837251519427 -0.000598745788671 0)
(0.837825950888 -0.000893302685449 0)
(0.838721595664 -0.0013534804335 0)
(0.84012274675 -0.00209037253756 0)
(0.842326743082 -0.00328816339481 0)
(0.845815675932 -0.00527097500679 0)
(0.851383493942 -0.00866211650985 0)
(0.86029604944 -0.0147742849106 0)
(0.874421495085 -0.0265391218576 0)
(0.896919488803 -0.0507094645243 0)
(0.929042435813 -0.103611931623 0)
(0.941247926289 -0.213003844673 0)
(1.02281266514 0.166416355168 0)
(1.10503730131 0.258412712893 0)
(1.13021495009 0.233605231504 0)
(1.11936743723 0.175304751094 0)
(1.09754227467 0.118302457797 0)
(1.07598436265 0.0746670230868 0)
(1.05887017191 0.045263082563 0)
(1.04678992731 0.0268385109341 0)
(1.03879771506 0.0157575633563 0)
(1.03369364792 0.00922934851649 0)
(1.03049957467 0.005410816902 0)
(1.02852462933 0.0031762216518 0)
(1.02731222751 0.00186419194152 0)
(1.02657160585 0.00109153321768 0)
(1.0261211572 0.000636069715359 0)
(1.02584843849 0.000368030118143 0)
(1.02568412965 0.000210972837314 0)
(1.02558570644 0.000119774741674 0)
(1.02552723774 6.76052876514e-05 0)
(1.02549290763 3.84370175799e-05 0)
(1.02547310335 2.30998661682e-05 0)
(1.02546154757 1.54464497108e-05 0)
(1.02545478473 1.12842245996e-05 0)
(1.02545105909 9.07365925564e-06 0)
(1.02544908178 8.12921935507e-06 0)
(1.02544824099 7.95678644755e-06 0)
(1.02544802379 8.25328652532e-06 0)
(1.02544811392 8.7212936021e-06 0)
(1.02544835427 9.23866941024e-06 0)
(1.02544866215 9.77372660313e-06 0)
(1.02544899006 1.03265395009e-05 0)
(1.02544931372 1.08876219762e-05 0)
(1.02544961883 1.14301218403e-05 0)
(1.02544989592 1.19357863006e-05 0)
(1.02545014311 1.24177761353e-05 0)
(1.02545036363 1.29024453736e-05 0)
(1.02545055747 1.33954688628e-05 0)
(1.02545071929 1.38819561228e-05 0)
(1.02545084383 1.43594138933e-05 0)
(1.02545092694 1.48542911046e-05 0)
(1.02545096245 1.53934547394e-05 0)
(1.02545094267 1.59721198293e-05 0)
(1.02545086142 1.6562711724e-05 0)
(1.02545071503 1.71532797986e-05 0)
(1.02545050068 1.77654641699e-05 0)
(1.02545021881 1.84354131877e-05 0)
(1.02544986518 1.91875995804e-05 0)
(1.02544943795 1.9980645338e-05 0)
(1.0254489432 2.07896313428e-05 0)
(1.02544838725 2.16217154037e-05 0)
(1.02544778348 2.24887613335e-05 0)
(1.02544715729 2.33766028157e-05 0)
(1.02544654916 2.42448307811e-05 0)
(1.0254460225 2.50490563022e-05 0)
(1.02544567618 2.57428340934e-05 0)
(1.02544565512 2.62381711677e-05 0)
(1.02544615842 2.63528941224e-05 0)
(1.02544746795 2.57985588424e-05 0)
(1.02544993673 2.42391095458e-05 0)
(1.02545386797 2.11523235948e-05 0)
(1.02546063505 1.49962705325e-05 0)
(1.02547370575 3.26331878317e-06 0)
(1.02549708114 -1.65423219824e-05 0)
(1.02553517233 -4.78674979612e-05 0)
(1.02559517388 -9.75938807503e-05 0)
(1.02568869508 -0.000176377955087 0)
(1.02583389582 -0.000300743646781 0)
(1.02605893816 -0.000496722824943 0)
(1.02640758229 -0.000805967818595 0)
(1.02694677457 -0.00129605106298 0)
(1.02777814819 -0.00207488309364 0)
(1.02906086747 -0.00331849502199 0)
(1.03104221191 -0.00531941216027 0)
(1.03409518761 -0.00857834282092 0)
(1.03876770655 -0.0139865447468 0)
(1.04577683342 -0.023206979899 0)
(1.05578399622 -0.039410885861 0)
(1.06905460792 -0.0685511774079 0)
(1.08241840385 -0.121438867075 0)
(1.07406812643 -0.209220738204 0)
(1.0129240275 0.113601795984 0)
(1.08929081671 0.210013118648 0)
(1.14201751568 0.212905733666 0)
(1.16527134511 0.173977557531 0)
(1.17052793183 0.125836645298 0)
(1.16725247073 0.084199903331 0)
(1.16134780438 0.053607974519 0)
(1.15572163166 0.0331089919974 0)
(1.15132452671 0.0201012884501 0)
(1.14819810843 0.0120999160902 0)
(1.14609063961 0.00725550996657 0)
(1.14471528201 0.00434198021771 0)
(1.14383545218 0.00259337460326 0)
(1.14327973031 0.00154451090536 0)
(1.14293176976 0.000915848726892 0)
(1.14271529618 0.000539704716865 0)
(1.14258130006 0.000315342773104 0)
(1.1424987042 0.000182134055268 0)
(1.14244798778 0.000103492690991 0)
(1.14241695019 5.72993074693e-05 0)
(1.1423979996 3.02224985186e-05 0)
(1.14238639274 1.42092702813e-05 0)
(1.14237940636 5.10656623901e-06 0)
(1.1423755715 4.9778395169e-08 0)
(1.14237370785 -2.43693901044e-06 0)
(1.14237293954 -3.5055422905e-06 0)
(1.14237270599 -3.97617223325e-06 0)
(1.14237269876 -4.19007843449e-06 0)
(1.14237284278 -4.31149711693e-06 0)
(1.14237306771 -4.38791896189e-06 0)
(1.14237333142 -4.43527101687e-06 0)
(1.14237361363 -4.47117054182e-06 0)
(1.14237389698 -4.52567151075e-06 0)
(1.14237416441 -4.61823496511e-06 0)
(1.14237440734 -4.7379137113e-06 0)
(1.14237462481 -4.86167303588e-06 0)
(1.14237481579 -4.98387826436e-06 0)
(1.14237497429 -5.11731213164e-06 0)
(1.14237509154 -5.26548605633e-06 0)
(1.14237515966 -5.40285050721e-06 0)
(1.14237517475 -5.50300777089e-06 0)
(1.14237513627 -5.56573575865e-06 0)
(1.14237504137 -5.61166562725e-06 0)
(1.14237488413 -5.65131886517e-06 0)
(1.14237466528 -5.67017641602e-06 0)
(1.14237440171 -5.65388715769e-06 0)
(1.14237406858 -5.62695154776e-06 0)
(1.14237363644 -5.57905575797e-06 0)
(1.14237311902 -5.5053047182e-06 0)
(1.14237252651 -5.39730653681e-06 0)
(1.14237186966 -5.24437642522e-06 0)
(1.14237116732 -5.05477975353e-06 0)
(1.14237044844 -4.86009312734e-06 0)
(1.14236975874 -4.70027876277e-06 0)
(1.14236917376 -4.62143879356e-06 0)
(1.14236881637 -4.70496869605e-06 0)
(1.14236890081 -5.1130499171e-06 0)
(1.14236985377 -6.16918964767e-06 0)
(1.14237228732 -8.6329219319e-06 0)
(1.14237643946 -1.38227954938e-05 0)
(1.14238299128 -2.17874730865e-05 0)
(1.14239360654 -3.40811996661e-05 0)
(1.14241069772 -5.56706861635e-05 0)
(1.14243797084 -9.29378938476e-05 0)
(1.14248093206 -0.00015509503422 0)
(1.14254776691 -0.000256304071343 0)
(1.14265085859 -0.000418745759116 0)
(1.14280900799 -0.000677339718661 0)
(1.14305072384 -0.00108728005571 0)
(1.14341856208 -0.00173624565598 0)
(1.14397512508 -0.00276297463958 0)
(1.14481252686 -0.00438750111357 0)
(1.14606119613 -0.00696675007394 0)
(1.14789083806 -0.0110846534173 0)
(1.15048842596 -0.0177095425052 0)
(1.15394354311 -0.0284716116759 0)
(1.15789166478 -0.0460891606613 0)
(1.1609273606 -0.0748409610675 0)
(1.1586115817 -0.120753314129 0)
(1.136275585 -0.187165531557 0)
(1.00432641325 0.0761524691372 0)
(1.06789985944 0.15938223327 0)
(1.1274203623 0.17572275775 0)
(1.16822336051 0.153286570959 0)
(1.19190096027 0.11711535731 0)
(1.20358653136 0.0821436363154 0)
(1.20832662909 0.0544471374313 0)
(1.20969035837 0.034788759989 0)
(1.209672405 0.0217249024195 0)
(1.20921959824 0.0133821092415 0)
(1.20872298969 0.00817617013827 0)
(1.20831232841 0.00496901593992 0)
(1.20800874582 0.003007035602 0)
(1.20779666927 0.00181186373778 0)
(1.20765318777 0.00108619640099 0)
(1.20755796138 0.000647077052575 0)
(1.20749549809 0.000382412894421 0)
(1.20745481493 0.000223684310899 0)
(1.20742843056 0.000129086460282 0)
(1.20741136362 7.31774022008e-05 0)
(1.20740038008 4.05413179023e-05 0)
(1.20739346658 2.18768016746e-05 0)
(1.20738932535 1.16947510717e-05 0)
(1.20738701976 6.47037814724e-06 0)
(1.20738577159 3.87408283943e-06 0)
(1.20738498048 2.61824518509e-06 0)
(1.20738448327 1.96112965983e-06 0)
(1.20738428186 1.67460764913e-06 0)
(1.20738428485 1.61248530252e-06 0)
(1.20738441348 1.68421705421e-06 0)
(1.20738460826 1.83192634053e-06 0)
(1.20738484442 2.01975305053e-06 0)
(1.20738510042 2.2161831857e-06 0)
(1.20738535425 2.39277360757e-06 0)
(1.20738559074 2.55267484108e-06 0)
(1.20738580223 2.71293186675e-06 0)
(1.20738598351 2.88138825914e-06 0)
(1.20738612623 3.05640796176e-06 0)
(1.20738622314 3.24433718526e-06 0)
(1.20738626787 3.4621694551e-06 0)
(1.20738625843 3.73061303826e-06 0)
(1.20738620006 4.04947952114e-06 0)
(1.20738609086 4.39917921798e-06 0)
(1.20738591511 4.76690133996e-06 0)
(1.20738565083 5.16105508126e-06 0)
(1.20738527918 5.58892067211e-06 0)
(1.20738483633 6.0199087621e-06 0)
(1.20738436214 6.4648247383e-06 0)
(1.20738383412 6.94540838379e-06 0)
(1.20738323326 7.47139880823e-06 0)
(1.20738256787 8.04587961689e-06 0)
(1.20738186065 8.65313574656e-06 0)
(1.2073811362 9.25250355311e-06 0)
(1.2073804274 9.78491029873e-06 0)
(1.20737979503 1.01665752449e-05 0)
(1.20737933622 1.02545411791e-05 0)
(1.20737913985 9.79766603834e-06 0)
(1.20737909528 8.37852886837e-06 0)
(1.20737883019 5.2920221632e-06 0)
(1.207379304 -5.6807199423e-07 0)
(1.20738188146 -1.10763860741e-05 0)
(1.20738648226 -2.87329299749e-05 0)
(1.2073937253 -5.76753663087e-05 0)
(1.20740527432 -0.00010429378317 0)
(1.20742305653 -0.000178865971713 0)
(1.20744981742 -0.000297464233506 0)
(1.20748947332 -0.000485100233589 0)
(1.2075474528 -0.000780880207304 0)
(1.20763108541 -0.00124600318332 0)
(1.2077495259 -0.00197628965747 0)
(1.20791266767 -0.00312141543507 0)
(1.20812795285 -0.0049150308824 0)
(1.20838992362 -0.00772348993051 0)
(1.20865276509 -0.0121196454996 0)
(1.2087669576 -0.0189949047626 0)
(1.20832810834 -0.0297212472632 0)
(1.20634356825 -0.0463295887098 0)
(1.2007524126 -0.0715366682416 0)
(1.18736687635 -0.108286166206 0)
(1.15668159752 -0.156727937822 0)
(0.998752707422 0.0500507724303 0)
(1.05034505019 0.11431495044 0)
(1.10707756139 0.133979917843 0)
(1.15433602836 0.122789766554 0)
(1.18838160732 0.0978679878867 0)
(1.21033480257 0.0712205214183 0)
(1.22344270958 0.0487359319433 0)
(1.23091861335 0.0319971927861 0)
(1.23507532002 0.02044130106 0)
(1.23735680876 0.0128293113894 0)
(1.23860449361 0.00795896380324 0)
(1.23928814982 0.00489794850892 0)
(1.2396637034 0.00299540132962 0)
(1.23986992261 0.00182162955255 0)
(1.23998255609 0.00110151985158 0)
(1.24004331945 0.000661904564984 0)
(1.24007537171 0.000394846898832 0)
(1.2400916484 0.000233487747546 0)
(1.24009939258 0.000136608390854 0)
(1.24010265301 7.89078428371e-05 0)
(1.24010369402 4.49245684382e-05 0)
(1.24010378553 2.5200853423e-05 0)
(1.24010357104 1.38957040065e-05 0)
(1.24010327328 7.42588726161e-06 0)
(1.24010295859 3.6289849362e-06 0)
(1.24010269494 1.37820564705e-06 0)
(1.24010258294 1.75462217898e-07 0)
(1.24010265839 -3.94009157359e-07 0)
(1.24010284452 -6.15537038873e-07 0)
(1.24010306534 -6.87596368781e-07 0)
(1.24010329837 -6.80344896811e-07 0)
(1.24010355203 -6.36194035286e-07 0)
(1.24010381295 -5.9247358942e-07 0)
(1.24010406269 -5.57415486698e-07 0)
(1.24010429566 -5.28003842899e-07 0)
(1.24010450753 -4.95010052413e-07 0)
(1.24010469766 -4.52192429401e-07 0)
(1.24010486308 -3.96983560599e-07 0)
(1.24010498841 -3.21541566856e-07 0)
(1.24010505848 -2.13615126861e-07 0)
(1.2401050715 -5.58404737348e-08 0)
(1.24010503066 1.57164616531e-07 0)
(1.24010493457 4.1708648097e-07 0)
(1.24010477345 7.20434046555e-07 0)
(1.24010453584 1.08455273978e-06 0)
(1.24010421386 1.54506376189e-06 0)
(1.24010381697 2.14097946612e-06 0)
(1.2401033716 2.84389030761e-06 0)
(1.24010287264 3.60644039634e-06 0)
(1.24010229315 4.41878044537e-06 0)
(1.2401016271 5.28087654331e-06 0)
(1.24010087861 6.17023588594e-06 0)
(1.24010004744 7.03443480532e-06 0)
(1.2400991294 7.79518622836e-06 0)
(1.24009812425 8.33608809367e-06 0)
(1.24009704321 8.46358013089e-06 0)
(1.24009592572 7.85701909202e-06 0)
(1.24009487464 6.06010953413e-06 0)
(1.24009397552 2.67449507152e-06 0)
(1.24009256069 -2.4554056886e-06 0)
(1.24009022462 -1.14134331899e-05 0)
(1.24008696789 -2.80278173373e-05 0)
(1.24008227775 -5.60459116316e-05 0)
(1.24007514754 -0.000101826138766 0)
(1.24006361784 -0.000175646349339 0)
(1.24004454077 -0.00029333383013 0)
(1.24001259532 -0.000479285474996 0)
(1.23995874753 -0.000771475327357 0)
(1.23986784748 -0.00122886093565 0)
(1.23971429594 -0.0019426830492 0)
(1.23945451224 -0.00305347554452 0)
(1.23901393217 -0.00477653447988 0)
(1.23826328138 -0.00743960654082 0)
(1.23697525568 -0.0115350701274 0)
(1.23474716311 -0.0177876185493 0)
(1.23085941928 -0.0272289246662 0)
(1.22402687533 -0.0412312955469 0)
(1.21210872326 -0.06136282265 0)
(1.19166145914 -0.0888614601004 0)
(1.15655371291 -0.1228586084 0)
(0.995567315204 0.0314811729287 0)
(1.03839790126 0.0761423012266 0)
(1.08972185427 0.0930816479023 0)
(1.1378373907 0.0883734216541 0)
(1.1768079847 0.0726422122397 0)
(1.20496947114 0.054319208442 0)
(1.22384635967 0.0380622939471 0)
(1.23593937847 0.0255033382026 0)
(1.2434746746 0.0165744117481 0)
(1.2480904802 0.0105509057863 0)
(1.25089091857 0.00662184267365 0)
(1.25258132925 0.00411399301074 0)
(1.25359819877 0.00253600653441 0)
(1.25420782863 0.00155289027098 0)
(1.25457183549 0.000944930765014 0)
(1.25478805594 0.000571290457433 0)
(1.25491562801 0.0003429669943 0)
(1.25499025122 0.00020424453981 0)
(1.25503343063 0.000120487731077 0)
(1.25505808444 7.02892682811e-05 0)
(1.25507194786 4.04794897322e-05 0)
(1.25507962774 2.29668387203e-05 0)
(1.25508382545 1.27727762469e-05 0)
(1.25508607871 6.88758195596e-06 0)
(1.25508726951 3.56362615311e-06 0)
(1.25508794614 1.78566228848e-06 0)
(1.25508841059 9.5017807085e-07 0)
(1.25508876039 6.06360461265e-07 0)
(1.25508901361 4.83792529077e-07 0)
(1.25508921991 4.64923914609e-07 0)
(1.25508943003 5.12530389423e-07 0)
(1.25508965 5.96134844525e-07 0)
(1.2550898858 6.84268488935e-07 0)
(1.25509013123 7.70784987854e-07 0)
(1.25509036454 8.57748993712e-07 0)
(1.25509057539 9.51298714416e-07 0)
(1.25509076227 1.05580597136e-06 0)
(1.25509092118 1.16980600683e-06 0)
(1.25509104005 1.29242206523e-06 0)
(1.25509110856 1.43613031593e-06 0)
(1.25509112824 1.61659853249e-06 0)
(1.25509110573 1.84350127857e-06 0)
(1.25509104014 2.11848062628e-06 0)
(1.25509092122 2.44477030112e-06 0)
(1.25509074083 2.83610782508e-06 0)
(1.25509050048 3.31338383536e-06 0)
(1.25509020449 3.89663705133e-06 0)
(1.2550898326 4.58328725603e-06 0)
(1.25508936676 5.34333153121e-06 0)
(1.2550888123 6.17127030561e-06 0)
(1.25508816879 7.06886257381e-06 0)
(1.25508742784 8.02267925537e-06 0)
(1.25508657184 8.99797327219e-06 0)
(1.25508557284 9.9378969579e-06 0)
(1.25508439258 1.07537388224e-05 0)
(1.25508297463 1.12982292361e-05 0)
(1.25508122014 1.1318981813e-05 0)
(1.25507897357 1.03794919721e-05 0)
(1.25507610548 7.74521469657e-06 0)
(1.25507222338 2.48493520735e-06 0)
(1.25506574527 -5.68827086151e-06 0)
(1.25505530547 -1.95544119554e-05 0)
(1.25503954567 -4.37752799431e-05 0)
(1.25501492992 -8.32618934875e-05 0)
(1.25497583195 -0.000146688051653 0)
(1.25491374726 -0.000247672523588 0)
(1.25481495982 -0.000406834500501 0)
(1.25465737637 -0.000656118219463 0)
(1.25440588276 -0.0010446660857 0)
(1.25400460654 -0.0016476619517 0)
(1.25336456516 -0.00257931308742 0)
(1.25234415262 -0.00401143014169 0)
(1.25071800125 -0.00619902094553 0)
(1.24812778862 -0.00951233814865 0)
(1.24400680639 -0.0144713281116 0)
(1.23746587726 -0.0217689168195 0)
(1.2271313095 -0.0322435022468 0)
(1.21101261448 -0.0467144055003 0)
(1.18639172695 -0.0655884795225 0)
(1.14919769468 -0.0879164449287 0)
(0.993919376289 0.0173792574793 0)
(1.03134182373 0.0434672084111 0)
(1.07804556501 0.054543101384 0)
(1.12513517462 0.0529697082807 0)
(1.16604994859 0.0444243680234 0)
(1.19753089501 0.0338179783205 0)
(1.2198870537 0.0240717001326 0)
(1.23497858155 0.016348946297 0)
(1.24482600781 0.010747408363 0)
(1.25110303535 0.00690689512348 0)
(1.25504207283 0.0043687395216 0)
(1.25748800692 0.00273157454566 0)
(1.25899493022 0.00169278654907 0)
(1.25991725949 0.00104126747773 0)
(1.2604783824 0.000636183609307 0)
(1.26081769086 0.000386100156644 0)
(1.26102153693 0.000232675357087 0)
(1.26114311404 0.000139118445211 0)
(1.26121502451 8.24289422607e-05 0)
(1.26125715503 4.83254044238e-05 0)
(1.26128157804 2.79850958791e-05 0)
(1.2612955827 1.59759264094e-05 0)
(1.26130353151 8.96282611225e-06 0)
(1.2613079991 4.920154131e-06 0)
(1.26131049496 2.6449460293e-06 0)
(1.26131191172 1.41351484687e-06 0)
(1.26131274939 7.56228141385e-07 0)
(1.2613132731 3.91928209589e-07 0)
(1.26131364103 1.92464240723e-07 0)
(1.26131394157 1.18459679065e-07 0)
(1.26131421415 1.26444679594e-07 0)
(1.26131447438 1.86635032185e-07 0)
(1.26131472893 2.80773410109e-07 0)
(1.26131497768 3.85693959131e-07 0)
(1.26131521385 4.94799773495e-07 0)
(1.26131543208 6.13504582057e-07 0)
(1.26131563043 7.48450924452e-07 0)
(1.2613158034 9.0236234832e-07 0)
(1.26131594006 1.07814313209e-06 0)
(1.26131603224 1.28577567768e-06 0)
(1.26131608063 1.53766241453e-06 0)
(1.26131608888 1.84028373788e-06 0)
(1.26131605501 2.19345143964e-06 0)
(1.2613159711 2.59902305946e-06 0)
(1.2613158307 3.06656254439e-06 0)
(1.26131563275 3.60750980365e-06 0)
(1.2613153779 4.22608610507e-06 0)
(1.26131505722 4.91931205843e-06 0)
(1.26131465821 5.70282902288e-06 0)
(1.26131417269 6.58402314009e-06 0)
(1.26131358844 7.5620341165e-06 0)
(1.26131288505 8.62533399526e-06 0)
(1.26131202856 9.74667010738e-06 0)
(1.26131096658 1.08798655152e-05 0)
(1.26130962218 1.19523696349e-05 0)
(1.26130787956 1.28438109138e-05 0)
(1.26130555716 1.33539947714e-05 0)
(1.26130237896 1.31703091293e-05 0)
(1.26129803328 1.17928207703e-05 0)
(1.26129219885 8.32922942769e-06 0)
(1.26128297871 1.77521058423e-06 0)
(1.26126688378 -8.24701702745e-06 0)
(1.26124169733 -2.3718184146e-05 0)
(1.26120318463 -4.983284349e-05 0)
(1.26114238311 -9.35876552626e-05 0)
(1.26104653651 -0.000164706022855 0)
(1.26089559398 -0.000276656459347 0)
(1.26065759333 -0.000451082148226 0)
(1.26028260637 -0.000721254240274 0)
(1.25969268191 -0.00113749289239 0)
(1.25876648424 -0.00177514325473 0)
(1.25731619059 -0.0027455425903 0)
(1.25505312893 -0.00421019588362 0)
(1.25153814279 -0.00639671569323 0)
(1.24611352785 -0.00961220335894 0)
(1.23781514816 -0.0142435788788 0)
(1.2252729427 -0.020720886008 0)
(1.20667609014 -0.0294006337936 0)
(1.1798204142 -0.0403419200131 0)
(1.1417897679 -0.0528703210569 0)
(0.993231562221 0.00556184733732 0)
(1.02812834997 0.0141230423282 0)
(1.0723286202 0.0179427606449 0)
(1.11850056038 0.0176182425385 0)
(1.1600054794 0.0149229338118 0)
(1.19288904181 0.0114611390822 0)
(1.21685439249 0.00822206017475 0)
(1.23340328966 0.00562213026647 0)
(1.2444125568 0.00371711731152 0)
(1.25154481734 0.00240026921211 0)
(1.25608083063 0.0015241946331 0)
(1.25892847002 0.000956095288255 0)
(1.26069878581 0.000594098528386 0)
(1.26179061488 0.000366279222319 0)
(1.26245931099 0.000224232552734 0)
(1.26286616802 0.000136326435989 0)
(1.26311207171 8.22785482664e-05 0)
(1.2632596511 4.92531559496e-05 0)
(1.26334753918 2.92053457872e-05 0)
(1.26339942982 1.71281933659e-05 0)
(1.2634297769 9.92125512189e-06 0)
(1.26344734987 5.67090211634e-06 0)
(1.26345742807 3.19652507842e-06 0)
(1.26346315456 1.77607256595e-06 0)
(1.26346638683 9.80239309622e-07 0)
(1.26346822146 5.52669478857e-07 0)
(1.26346929212 3.29547450186e-07 0)
(1.26346995332 2.28377171792e-07 0)
(1.26347040316 2.05062836159e-07 0)
(1.26347074948 2.254265711e-07 0)
(1.2634710471 2.72799075887e-07 0)
(1.26347132343 3.38784451649e-07 0)
(1.26347159031 4.19570534271e-07 0)
(1.26347184712 5.10548538421e-07 0)
(1.26347208989 6.09659327878e-07 0)
(1.26347231753 7.20965671247e-07 0)
(1.26347252852 8.49784193527e-07 0)
(1.26347271661 9.99022288328e-07 0)
(1.26347287247 1.17185434304e-06 0)
(1.26347299057 1.37622747897e-06 0)
(1.2634730717 1.62256302666e-06 0)
(1.2634731176 1.91875483295e-06 0)
(1.26347312563 2.26945365751e-06 0)
(1.26347308989 2.68049124397e-06 0)
(1.26347300614 3.1619529909e-06 0)
(1.26347287272 3.72541983863e-06 0)
(1.26347268675 4.37924582646e-06 0)
(1.2634724392 5.12687331355e-06 0)
(1.26347211837 5.97576821485e-06 0)
(1.26347171339 6.9322923214e-06 0)
(1.26347120824 8.00134347736e-06 0)
(1.26347057546 9.18317037695e-06 0)
(1.26346977041 1.04697508475e-05 0)
(1.26346872621 1.18435347823e-05 0)
(1.26346734254 1.32729942033e-05 0)
(1.26346546271 1.46992804671e-05 0)
(1.26346283864 1.60186902067e-05 0)
(1.26345907741 1.70609107998e-05 0)
(1.26345358421 1.75401072264e-05 0)
(1.26344555617 1.68586861967e-05 0)
(1.26343381285 1.38420759933e-05 0)
(1.26341620848 8.10125321946e-06 0)
(1.26338752622 -5.57706085788e-07 0)
(1.26334020026 -1.48644343919e-05 0)
(1.26326495035 -3.68304345693e-05 0)
(1.2631480508 -6.98889966634e-05 0)
(1.26296618946 -0.000121369368547 0)
(1.26268133505 -0.000200860000407 0)
(1.26223527956 -0.000322006018481 0)
(1.26153825253 -0.000504757899331 0)
(1.26045209536 -0.000778039917817 0)
(1.25876575798 -0.00118309398021 0)
(1.25616019682 -0.00177729830235 0)
(1.25216005125 -0.0026375143856 0)
(1.24607154986 -0.00386083041183 0)
(1.23691014782 -0.00555867372053 0)
(1.22333230431 -0.00783641817845 0)
(1.20364098725 -0.0107477672794 0)
(1.17588779638 -0.0142308490114 0)
(1.13767416188 -0.0179924859075 0)
(0.993232360983 -0.00556026144865 0)
(1.0281283303 -0.0141220437809 0)
(1.0723285304 -0.0179427769654 0)
(1.11850054213 -0.017618581273 0)
(1.16000548015 -0.0149232203572 0)
(1.19288904896 -0.0114612509941 0)
(1.21685440749 -0.00822199991163 0)
(1.23340331352 -0.00562195318137 0)
(1.24441258917 -0.00371687967135 0)
(1.25154485615 -0.00240000799936 0)