/*--------------------------------*- C++ -*----------------------------------*\
| =========                 |                                                 |
| \\      /  F ield         | OpenFOAM: The Open Source CFD Toolbox           |
|  \\    /   O peration     | Version:  2106                                  |
|   \\  /    A nd           | Website:  www.openfoam.com                      |
|    \\/     M anipulation  |                                                 |
\*---------------------------------------------------------------------------*/
FoamFile
{
    version     2.0;
    format      ascii;
    arch        "LSB;label=32;scalar=64";
    class       volScalarField;
    location    "0.34";
    object      p;
}
// * * * * * * * * * * * * * * * * * * * * * * * * * * * * * * * * * * * * * //

dimensions      [0 2 -2 0 0 0 0];

internalField   nonuniform List<scalar> 
11200
(
150.122045792
147.193443751
146.079591969
145.552259308
145.184927815
144.890147404
144.62850143
144.379960745
144.135440135
143.890370001
143.64205325
143.388735231
143.12918398
142.86246395
142.587808321
142.304543721
142.012044383
141.709704356
141.396924856
141.073117745
140.737659222
140.389900224
140.029182334
139.654837619
139.266180415
138.862509317
138.443108023
138.007246008
137.554179281
137.083151001
136.593392062
136.08412158
135.554547055
135.003864587
134.431259532
133.835907696
133.216975153
132.573618488
131.904985145
131.210213906
130.488435115
129.73877096
128.960335638
128.152235429
127.313568674
126.44342548
125.540887387
124.605026545
123.634904604
122.629571185
121.588061749
120.509394778
119.39256801
118.236553692
117.040292367
115.802685038
114.522583245
113.198776591
111.829976916
110.414798366
108.951732369
107.439116197
105.875092524
104.257560649
102.584110796
100.851937601
99.057730686
97.1975301411
95.2665318841
93.2588212769
91.1670092058
88.98173603
86.6908032939
84.2780246
81.7213140665
78.9890115478
76.0335169727
72.7822532557
69.0814909459
64.3182066944
148.329004017
146.970829598
146.179857169
145.679841394
145.288851351
144.964966733
144.680443315
144.415838673
144.160348355
143.907824008
143.654438374
143.397677902
143.135805586
142.867544996
142.591895736
142.308023033
142.015189533
141.712712442
141.399933342
141.07619038
140.740833333
140.393186637
140.032606529
139.65842477
139.269945276
138.866460922
138.447252571
138.01158787
137.558721536
137.087895743
136.598340397
136.08927306
135.559899346
135.009419023
134.4370194
133.841876286
133.223155492
132.580013556
131.911597944
131.21704751
130.495492742
129.746056032
128.967851904
128.159987063
127.321560433
126.451662873
125.549376853
124.613775724
123.643922672
122.638869225
121.597653237
120.519296139
119.402799347
118.24713968
117.051263391
115.814078554
114.534445469
113.211164583
111.84296124
110.428466543
108.966193381
107.454506591
105.891582609
104.275358228
102.603465984
100.873165258
99.0812406421
97.2238547962
95.2963683816
93.293096754
91.2069711173
89.0290351995
86.7477414632
84.3479541452
81.8092780827
79.1032049848
76.1889367917
73.0086398492
69.4595249518
65.3467397495
147.333813834
146.679613093
146.127256406
145.689637207
145.318011611
144.995907818
144.706805705
144.436569464
144.176104139
143.919620919
143.663234865
143.404264319
143.140797273
142.871406797
142.594971852
142.310563863
142.017373234
141.714661402
141.401730099
141.077902473
140.742516413
140.394932295
140.034406014
139.660283826
139.271873546
138.868465497
138.449338245
138.013758361
137.560980257
137.090246332
136.600787365
136.091823159
135.562562768
135.012198778
134.43991342
133.844884842
133.226280011
132.583256005
131.914961121
131.220535039
130.499109115
129.749806674
128.971743337
128.164027121
127.325758498
126.456030266
125.553927226
124.618525566
123.648891957
122.644082223
121.60313949
120.525091652
119.408948046
118.253695155
117.05829105
115.821658273
114.54267486
113.220163056
111.852875155
110.439475439
108.978516937
107.468412889
105.907399451
104.293507809
102.624500775
100.897784548
99.1103175159
97.2585012391
95.3380217054
93.3436404859
91.2689080925
89.10576187
86.844107114
84.4710282773
81.9698047007
79.3185766397
76.4893712291
73.45057441
70.1662102261
66.6132595687
146.784052699
146.420671029
146.020772014
145.651780025
145.314161286
145.006056378
144.720690255
144.449983323
144.187608271
143.928938192
143.670555104
143.409927508
143.145155612
142.874772186
142.597601194
142.312660157
142.019092794
141.716122946
141.403023499
141.079094535
140.74364509
140.395984946
140.03547282
139.661385466
139.273012082
138.869644862
138.450562132
138.01502924
137.562299483
137.091614245
136.602203127
136.093284154
135.56406463
135.013742847
134.441508629
133.846536501
133.227994343
132.585040001
131.916820804
131.222476848
130.501140325
129.751935567
128.973979626
128.166382417
127.328246719
126.458668239
125.556735332
124.621528572
123.652119976
122.647571865
121.606935186
120.529247394
119.413529547
118.258782473
117.063981894
115.828072233
114.549958582
113.22849646
111.862479091
110.450621032
108.991540978
107.483741165
105.925560772
104.315140595
102.650379232
100.928878128
99.1478620582
97.3040790946
95.3936763074
93.4120439406
91.3536251522
89.2116906777
86.9780090872
84.6425388672
82.1931914723
79.6158691804
76.8958272925
74.0233595774
71.0020655469
67.8691258123
146.450004832
146.218209019
145.91679561
145.605816938
145.300975275
145.008949275
144.729970776
144.460841609
144.197878236
143.937790592
143.677818323
143.415724062
143.149715334
142.878343106
142.600410727
142.314901265
142.020922128
141.71766414
141.404372005
141.08032311
140.744812549
140.397143945
140.03662088
139.66253268
139.274182105
138.870852737
138.451817671
138.016339852
137.563671235
137.09305266
136.603713807
136.094873382
135.565739184
135.015507846
134.443365453
133.848488329
133.230042011
132.587184399
131.919066217
131.224827944
130.503604298
129.754521946
128.976700362
128.169252285
127.331283757
126.461894312
125.560176947
124.625217836
123.656095774
122.651881221
121.611635721
120.534409377
119.419238629
118.265143088
117.071121264
115.836144809
114.559151249
113.239037133
111.87464486
110.464755213
109.008065652
107.503164123
105.948513761
104.342419964
102.682989167
100.96807954
99.1952436808
97.3616597771
95.4640484303
93.4985755837
91.4607446494
89.3452912488
87.1461071351
84.8562738773
82.4683710596
79.9753898036
77.3731339826
74.6660457422
71.8754852408
69.0521492991
146.246612433
146.070710058
145.829514335
145.562187032
145.284998024
145.008357244
144.736664724
144.470160024
144.207391675
143.946379678
143.685089191
143.421653225
143.154446368
142.882077836
142.603354778
142.31723953
142.022810089
141.719227091
141.405707821
141.081506472
140.745899612
140.398175309
140.037624086
139.663536137
139.275200804
138.871897249
138.452895927
138.017457739
137.564833146
137.094261735
136.604972211
136.096182441
135.567099673
135.016920652
134.444832103
133.85001135
133.231626985
132.588838735
131.920797903
131.226648932
130.505527371
129.756560609
128.978870179
128.171571451
127.333773852
126.464581469
125.563092925
124.628401271
123.659593735
122.655751324
121.615947305
120.539246564
119.424703609
118.27136006
117.078241527
115.844353867
114.568679084
113.250164782
111.887720391
110.48019668
109.026377745
107.524971101
105.974593422
104.373728665
102.720709825
101.013687182
99.2505900097
97.429084798
95.5465317509
93.5999452379
91.5859692462
89.5008923646
87.3407484782
85.1015965453
82.7801518879
80.3750629813
77.889397492
75.335309439
72.7397463763
70.1498056933
146.123495744
145.967887828
145.761585139
145.525021694
145.269544814
145.006263372
144.741648019
144.478137183
144.216001716
143.95441387
143.692039684
143.427402721
143.159073262
142.885742812
142.606239244
142.319515021
142.024625252
141.720704132
141.406943655
141.082575899
140.746858999
140.399066469
140.038479401
139.664380179
139.276049858
138.87276264
138.453786132
138.018379057
137.565790369
137.095258807
136.606012697
136.097269872
135.568237828
135.018114059
134.446086485
133.851333317
133.233023545
132.590317734
131.922368108
131.228318337
130.507303843
129.758455862
128.980900396
128.173756909
127.336139757
126.467158326
125.565917625
124.631518497
123.663057682
122.659627532
121.620315448
120.544203694
119.430367991
118.277875772
117.085783901
115.853135186
114.57895419
113.262246391
111.901985931
110.497113154
109.046526866
107.549067141
106.003504853
104.408527572
102.76272364
101.06456396
99.3123843302
97.5043711158
95.6385547508
93.7128209401
91.7249555632
89.6727527809
87.5542333864
85.3680649082
83.1143162462
80.7957450133
78.4198999561
76.0023793256
73.5700578807
71.162291992
146.049416163
145.899405792
145.712649407
145.496542908
145.256835453
145.004012624
144.745373837
144.484633961
144.223265652
143.9613426
143.698124022
143.432486549
143.163189721
142.889012343
142.608810941
142.321535713
142.026225198
141.72199208
141.408006815
141.083482209
140.747660247
140.399801523
140.039177016
139.665061091
139.276729926
138.873452775
138.454494483
138.019111739
137.56655215
137.09605366
136.606844205
136.098141553
135.569153369
135.019077395
134.447101714
133.852405002
133.234157071
132.59151897
131.923643889
131.2296784
130.508764023
129.760034227
128.982615725
128.175631506
127.338200585
126.469438226
125.568456537
124.634364941
123.66627057
122.663278527
121.624492216
120.549012644
119.435938224
118.284364132
117.093381259
115.862074799
114.589522036
113.27478957
111.916929599
110.514973503
109.067930224
107.574780348
106.034469446
104.445900734
102.807929951
101.119361815
99.3789509478
97.5854115992
95.7374424771
93.8337787376
91.873288175
89.8551410443
87.7790917276
85.6459526258
83.4583372241
81.2217788785
78.9463136724
76.6485462925
74.3531556917
72.092149385
146.007139881
145.857691988
145.681275768
145.477536672
145.248002933
145.002293365
144.74793214
144.489292543
144.228584643
143.966489506
143.702691308
143.436332241
143.166320826
142.891508453
142.610778423
142.323082576
142.027448907
141.722974891
141.408815177
141.084168172
140.748263666
140.400352368
140.039697544
139.665568523
139.277234097
138.873963471
138.455018412
138.01965388
137.567116515
137.096643707
136.607463139
136.098792574
135.569839889
135.019803207
134.447871164
133.853223257
133.235030372
132.59245535
131.924653733
131.230774257
130.509957212
129.761339599
128.984053222
128.177225488
127.33998046
126.471439601
125.5707226
124.636948133
123.669234587
122.666700692
121.628466122
120.553651977
119.441381198
118.290778778
117.100971691
115.871088729
114.600259433
113.287616138
111.932289363
110.533410385
109.090108096
107.601508893
106.06673698
104.484915674
102.855171982
101.176645689
99.4485062798
97.6699826107
95.8404118321
93.9593212178
92.0265560678
90.0424832971
88.0082981362
85.926492097
83.8015115465
81.64065175
79.455162575
77.2614555478
75.0815741613
72.9416969988
145.987863508
145.837985453
145.666021908
145.468085637
145.243523328
145.001403171
144.749266916
144.491756927
144.231428846
143.969266882
143.705175837
143.438440028
143.168049907
142.892898032
142.611883775
142.323960969
142.028152583
141.723548246
141.409294256
141.084581319
140.748632658
140.400693642
140.0400233
139.665887668
139.277554179
138.874289349
138.455354014
138.020002431
137.567480838
137.097026449
136.607867002
136.099220438
135.57029501
135.020289383
134.448392915
133.853786072
133.235640899
132.593121562
131.925384796
131.231580526
130.510853648
129.7623435
128.985185151
128.178510338
127.341448457
126.473127473
125.572674962
124.639219146
123.671889982
122.669820306
121.632146929
120.558011741
119.446562903
118.296955981
117.108355232
115.879935069
114.610880881
113.300390392
111.947676625
110.551970309
109.112519914
107.62859895
106.099511045
104.524598438
102.90325533
101.2349476
99.5192426275
97.7558538759
95.9447067439
94.0860389728
92.180542837
90.2295876084
88.2355133843
86.2020738766
84.1349767155
82.0425667177
79.9365670148
77.8327316678
75.750750234
73.7125465642
145.987866145
145.838001566
145.666048957
145.468121903
145.24356805
145.001455505
144.749325957
144.491821859
144.231498988
143.96934167
143.705254818
143.438522849
143.168136307
142.89298783
142.611976858
142.324057284
142.028252119
141.723651039
141.409400391
141.084690932
140.748745944
140.400810871
140.040144836
139.666014004
139.27768599
138.874427357
138.455499142
138.020155827
137.567643887
137.097200808
136.608054648
136.099423858
135.570517199
135.020533975
134.448664292
133.854089527
133.235982822
132.593509689
131.92582868
131.232092134
130.511446998
129.763035615
128.985996779
128.179466737
127.342580285
126.474471967
125.574277335
124.64113429
123.674184551
122.672575209
121.63546036
120.562002881
119.451376397
118.30276735
117.115377431
115.888426416
114.621154623
113.312825769
111.962734499
110.570211917
109.134623857
107.655388575
106.131985094
104.563967596
102.950986194
101.292813695
99.5893830561
97.8408437494
96.0476415241
94.210626738
92.3312292967
90.4117495619
88.4553001306
86.4665039445
84.4518767397
82.4203198113
80.3836188916
78.3567912743
76.3577391063
74.4055551205
146.00714784
145.857740697
145.681357514
145.477646214
145.248137939
145.002451141
144.748109909
144.489487879
144.228795512
143.966714225
143.702928526
143.436580915
143.166580181
142.891777953
142.611057729
142.323371525
142.027747477
141.723283202
141.409133487
141.084496889
140.748603373
140.400703861
140.040061891
139.665947215
139.277629065
138.874376869
138.455452958
138.02011293
137.567604161
137.097164908
136.608023915
136.099400256
135.570503346
135.020533212
134.448680806
133.85412847
133.236050504
132.593613809
131.92597861
131.232299263
130.511725155
129.763401662
128.986471217
128.180074476
127.343351579
126.47544357
125.575493874
124.642649946
123.676065089
122.674900439
121.638327134
120.565528679
119.455703718
118.308068964
117.121862925
115.896349713
114.630823893
113.324614966
111.977095402
110.587687547
109.155879598
107.68122458
106.163366444
104.602057122
102.997182065
101.34879728
99.6571898193
97.9229437864
96.1469474924
94.3305767923
92.4758077018
90.5853250213
88.6631064925
86.7144093412
84.7462248071
82.7677057847
80.7905252389
78.8290872297
76.9001082099
75.0210280123
146.049429624
145.89948821
145.712787495
145.496727562
145.25706258
145.004277569
144.745671879
144.484961021
144.223618327
143.961718099
143.698520116
143.43290152
143.163622297
142.889461643
142.609276416
142.322017101
142.026722485
141.722505482
141.408536766
141.084029392
140.748225657
140.400386498
140.039783247
139.665691118
139.277386549
138.874139713
138.455216249
138.019873836
137.567361288
137.096918003
136.607773632
136.099148064
135.570251473
135.020284649
134.44843941
133.853899075
133.235839087
132.593427702
131.925826771
131.232192614
130.511676978
129.763428141
128.986592039
128.180313577
127.343738058
126.476012785
125.576288778
124.643722706
123.677479008
122.676732319
121.640670133
120.568495765
119.45943185
118.312724123
117.127646189
115.903504409
114.639644646
113.335458651
111.990393136
110.603960971
109.175752946
107.705456791
106.192872495
104.637940084
103.040774024
101.401687871
99.7212358922
98.000278088
96.2401355249
94.4426222962
92.6101931787
90.7461096625
88.8546803636
86.9415069625
85.013807978
83.080754952
81.15378835
79.2468537559
77.3760827731
75.5583890024
146.123515065
145.96800608
145.761782623
145.525284847
145.269867459
145.00663868
144.7420692
144.478598455
144.216498304
143.954941888
143.692596058
143.427985086
143.159679871
142.886372455
142.606891169
142.320188874
142.025321023
141.721422115
141.407684432
141.083340375
140.747648512
140.399882908
140.039325238
139.665258684
139.276964952
138.873719375
138.454790695
138.019438989
137.566914847
137.096459023
136.607302242
136.098665276
135.569759131
135.019785371
134.447936648
133.853397193
133.235343543
132.592945245
131.925365701
131.231763121
130.5112915
129.763101811
128.986343272
128.180164771
127.343716443
126.476151433
125.576627881
124.644311086
123.678375934
122.678009696
121.64241516
120.570814142
119.462451643
118.31660053
117.132567059
115.909697112
114.647384039
113.345077308
112.002293319
110.618627092
109.193769315
107.72752442
106.21983143
104.670790406
103.080693245
101.450079754
99.7797844375
98.0709905726
96.3253095904
94.5448835045
92.7325104435
90.8917902656
89.0273043055
87.144826392
85.2515856585
83.3565652032
81.4708440632
79.6079908496
77.7840152803
76.0163257752
146.246638266
146.070867836
145.829776397
145.562534451
145.285422053
145.008848564
144.737214335
144.470760404
144.208036696
143.947064401
143.685809738
143.422406635
143.155230459
142.882891103
142.604196285
142.318108827
142.023707121
141.72015213
141.406661412
141.082489439
140.746913034
140.399220876
140.038706061
139.664660188
139.276371399
138.873120094
138.45417845
138.018809098
137.566264537
137.095786938
136.606608135
136.097949797
135.569023748
135.019032336
134.447169016
133.852618867
133.234559349
132.592161149
131.924589018
131.231002856
130.51055876
129.762410224
128.985709515
128.179609216
127.34326387
126.475831938
125.576478002
124.644375174
123.678707818
122.678674619
121.64349221
120.572399154
119.464660611
118.319573887
117.136474553
115.914744133
114.653818695
113.353199167
112.012463499
110.631281206
109.209430111
107.746817291
106.24350434
104.699737913
103.115984795
101.492973698
99.8317478289
98.1337288152
96.4007915395
94.6353491236
92.8404565492
91.0199310202
89.1784960337
87.3219419119
85.4573298367
83.5932527466
81.7402245484
79.9113252264
78.1225849702
76.3926768375
146.450037842
146.218411163
145.917128719
145.606255608
145.301507507
145.009562835
144.730654304
144.461585842
144.19867576
143.938635506
143.678706035
143.416651111
143.150679217
142.879342157
142.601443998
142.315968424
142.022023332
141.718799871
141.405542866
141.081529885
140.746056492
140.398425923
140.037942689
139.663907483
139.275613698
138.872346814
138.45338246
138.017985729
137.565410925
137.094901544
136.605690427
136.097000061
135.568043004
135.018022356
134.446132343
133.851558935
133.233480568
132.591069026
131.923490271
131.229905518
130.509472425
129.76134651
128.984682617
128.178636504
127.342366637
126.475036244
125.575815608
124.643884727
123.678436269
122.678678982
121.643841613
120.573177458
119.465969424
118.321536265
117.139239311
115.918491197
114.658764349
113.359603842
112.02064065
110.641607478
109.222357671
107.762887807
106.263364259
104.724154871
103.145866235
101.529388041
99.8759438054
98.1871500533
96.4650857086
94.7123686108
92.9322404531
91.1286589139
89.3063981633
87.4711547557
85.6296802741
83.789968442
81.9616403781
80.156850133
78.3911129651
76.6842835454
146.784092892
146.420921192
146.021178664
145.652310319
145.314799276
145.006786433
144.721498548
144.450858903
144.188542526
143.929924361
143.671587997
143.411003278
143.14627157
142.875926689
142.598793589
142.313890768
142.020362947
141.717434898
141.404379957
141.080499048
140.745106438
140.397518486
140.037051106
139.663011575
139.274699677
138.871405198
138.452406874
138.01697207
137.564356646
137.093805154
136.604551238
136.095818036
135.566818603
135.016756456
134.444826257
133.850214613
133.23210086
132.589657778
131.922052485
131.228447859
130.508003554
129.759876684
128.983224226
128.177204546
127.340979273
126.473715446
125.574588006
124.642782624
123.677498885
122.677954019
121.643386523
120.573061623
119.466276721
118.322368054
117.140717914
115.920764242
114.662011578
113.364042177
112.02653078
110.649262311
109.232152005
107.7752691
106.278864873
104.743405576
103.169610536
101.558496573
99.9114286308
98.2301767714
96.5169788365
94.7746071136
93.0064373678
91.2165160664
89.4096195603
87.591298889
85.7679185492
83.94669543
82.1359318733
80.3460090029
78.5901420954
76.8869836896
147.333866022
146.679925421
146.127746601
145.690264441
145.318756257
144.996750971
144.707731338
144.437565169
144.177160251
143.920729871
143.664390796
143.405462758
143.142034877
142.872681152
142.596281364
142.311907788
142.018752034
141.716077614
141.403188574
141.079409416
140.74407198
140.396505953
140.036032349
139.661970938
139.273626256
138.870291324
138.451247422
138.015763769
137.563097718
137.092494801
136.603189401
136.094405272
135.565356043
135.015245785
134.443269658
133.848614419
133.230458499
132.587975999
131.920334918
131.226698612
130.506227374
129.758080481
128.981416824
128.175396881
127.339184843
126.471950864
125.572873618
124.641143198
123.675964446
122.676560737
121.642178772
120.572093398
119.4656134
118.322088793
117.140918408
115.92155963
114.66353912
113.366467306
112.030052591
110.654119534
109.238630265
107.783709391
106.289673059
104.757062761
103.186684171
101.579651215
99.9374356153
98.2619212863
96.5554616594
94.8209426233
93.061837641
91.2822564959
89.4869723744
87.6814138526
85.871598242
84.0639133703
82.265019853
80.4824769793
78.7233987305
76.9964799153
148.329103616
146.971287379
146.180539864
145.6806962
145.289855199
144.966098943
144.681687027
144.417180959
144.161779167
143.909335441
143.656024178
143.399333073
143.137525937
142.869326737
142.593735071
142.309915763
142.017130531
141.714694828
141.401951379
141.078251494
140.742935604
140.395354226
140.034855367
139.660755633
139.27236334
138.868974875
138.449873161
138.01432638
137.561593589
137.090921835
136.601546117
136.092690537
135.563568993
135.013385829
134.441336578
133.846608916
133.228384215
132.585835392
131.918130617
131.224434154
130.503907383
129.755710129
128.979002319
128.17294585
127.336706604
126.46945681
125.570377693
124.638662417
123.673519564
122.674177152
121.63988697
120.569930167
119.463623199
118.320325271
117.139446475
115.920457989
114.662903804
113.366412949
112.030716553
110.655666441
109.241256941
107.787650367
106.295206472
104.764516585
103.196442896
101.592162749
99.9532178911
98.2815662717
96.5796346509
94.8503974882
93.0974026811
91.3248182081
89.5374491837
87.7407128478
85.9405062275
84.1426959122
82.3528114404
80.575615658
78.8059114931
77.0141915728
150.122212125
147.194113973
146.080585249
145.553513486
145.186412716
144.891838516
144.630380308
144.382013978
144.137657982
143.892745557
143.644581919
143.391414417
143.132012953
142.865443871
142.590942344
142.307837049
142.015504169
141.713339038
141.400739063
141.07709673
140.741806742
140.394229145
140.033694981
139.659539013
139.271079106
138.867616066
138.448436084
138.012814187
137.56000797
137.089263016
136.599814354
136.090886245
135.561692671
135.011438031
134.439317857
133.844519527
133.226223205
132.583602876
131.915827351
131.222061242
130.501466305
129.753202955
128.976431863
128.170315748
127.334021429
126.466722237
125.567600716
124.635851638
123.670685468
122.671332503
121.637047344
120.56711446
119.460854361
118.317630994
117.136860136
115.918019547
114.660660752
113.36442285
112.029048713
110.654403857
109.240498731
107.787514745
106.29583423
104.766074964
103.199129866
101.596211427
99.9589012833
98.2892069776
96.5896254066
94.8631622423
93.1134227545
91.344643767
89.5617145324
87.7701537201
85.976007372
84.1857725902
82.4058702639
80.6410842998
78.8709561982
76.9710259792
56.9241406282
53.3720361137
50.9806089178
49.0232116302
47.3512073093
45.8944286453
44.6088926815
43.4648916673
42.4407489113
41.5197122125
40.6883678402
39.935702379
39.2525060257
38.6309725668
38.0644160945
37.5470628484
37.0738929197
36.6405168583
36.2430779443
35.8781729283
35.5427873688
35.2342421151
34.9501483145
34.6883696026
34.4469899886
34.2242869214
34.0187075616
33.8288482829
33.6534377077
33.4913220424
33.3414514694
33.2028689103
33.0747006344
32.9561469408
32.8464740839
32.74500763
32.6511256459
32.5642527582
32.4838545841
32.4094318897
32.340511627
32.2766414808
32.2174520268
32.1628809577
32.1126084029
32.0661836209
32.0231925226
31.9833655119
31.9464746345
31.9123015924
31.8806402895
31.8513013176
31.8241209559
31.7989446779
31.7755976787
31.7539341142
31.7338223118
31.7151431507
31.6977670082
31.6815835913
31.6664923166
31.6524006454
31.6392231347
31.6268796755
31.6152991239
31.6044147074
31.5941642934
31.5844915871
31.5753440072
31.5666732122
31.5584343465
31.5505882425
31.5430974526
31.5359284634
31.5290501163
31.5224349647
31.5160554246
31.5098868863
31.5039098503
31.4981033631
31.4924510701
31.4869365687
31.4815433335
31.4762590284
31.4710691874
31.4659619197
31.4609311352
31.4559740592
31.4510788475
31.4462344072
31.4414365638
31.4366751848
31.4319407648
31.4272359492
31.4225742213
31.4179356727
31.4133058793
31.4086785632
31.4040486516
31.3994127464
31.3947670414
31.3901082901
31.3854342266
31.3807413505
31.3760262001
31.3712859229
31.3665178299
31.3617190731
31.3568868257
31.3520190685
31.347114016
31.3421699661
31.3371854149
31.3321584736
31.3270869109
31.3219698872
31.3168067427
31.3115959295
31.3063366946
31.301029658
31.2956756016
31.2902749236
31.2848236427
31.2793064211
31.2736853861
31.2678544038
31.262673812
31.2576394251
31.2524737872
31.2473173142
31.2422581979
31.2373570629
31.232671752
31.2282652248
31.2242052949
31.2205607452
31.217402213
31.214783902
31.2127441247
31.2112136116
31.2106258582
31.2104768531
31.2107201367
31.2107817849
31.2089569238
31.2009210974
31.1764319906
31.1136156884
30.9710157568
30.6779317627
30.1290256341
29.1914234208
27.7325280489
25.6597993769
22.9475005132
19.6519882478
15.891922597
11.6354473047
6.6073359589
1.57176480605
60.1054881392
56.0526897101
53.3407198347
51.1883877001
49.3864809128
47.8365940787
46.4805145921
45.2810060136
44.211889515
43.2535258669
42.3905686094
41.6106654071
40.9036543899
40.2610383974
39.6756210469
39.1412459433
38.6526023435
38.2050764871
37.7946363566
37.4177400126
37.0712612026
36.7524295738
36.458780802
36.1881150231
35.9384615683
35.7080511746
35.495289592
35.2987363111
35.1170872003
34.9491585977
34.7938736682
34.6502505841
34.5173930688
34.3944807141
34.2807612812
34.1755438309
34.0781925159
33.9881220004
33.9047934385
33.8277116069
33.7564252297
33.6905247666
33.6296135467
33.5731977269
33.5209695847
33.4726265483
33.4279153492
33.386568083
33.3483252426
33.3129445175
33.2802032934
33.2498940216
33.221821161
33.1958007149
33.1716761174
33.1492960467
33.1285165704
33.1091993761
33.0912367675
33.0745188999
33.0589405824
33.0444073823
33.0308323058
33.0181331466
33.006230987
32.9950559038
32.9845429923
32.9746324954
32.965269885
32.956406514
32.9479925632
32.9399882373
32.9323561685
32.9250601861
32.9180661324
32.9113508782
32.9048839248
32.8986368296
32.8925912231
32.8867259707
32.8810198739
32.8754584456
32.8700264943
32.864706103
32.8594892241
32.8543604159
32.8493097021
32.8443210006
32.8393837189
32.8344950823
32.8296479311
32.8248323581
32.8200439415
32.8152749497
32.8105190231
32.8057696212
32.8010269424
32.7962877176
32.7915467806
32.7868021929
32.7820498141
32.7772858961
32.7725088579
32.7677155987
32.7629022813
32.7580661447
32.7532048503
32.7483148692
32.7433935006
32.7384395094
32.7334498818
32.7284234003
32.7233587812
32.7182531203
32.7131048339
32.7079134241
32.702678037
32.697397424
32.6920718239
32.6867031377
32.6812947589
32.6758509747
32.6703770249
32.6648836473
32.6594030205
32.6539375953
32.6485237579
32.6429761873
32.6375660886
32.6323857041
32.6273333496
32.622470505
32.6178771362
32.613623355
32.6097869234
32.6064518227
32.603710806
32.6016035681
32.6002477012
32.5996398621
32.5998941619
32.6008217229
32.6021942847
32.6032087597
32.6016301867
32.5921626345
32.562583753
32.4877595617
32.3212763785
31.9861056979
31.3707803799
30.3394113353
28.7624867508
26.5572792748
23.709946478
20.2813247365
16.3880817772
12.0136792119
6.89665144083
1.70538543043
62.3129232725
58.3794962683
55.5123643328
53.2284651772
51.3265465216
49.7001342066
48.2841960413
47.0367144369
45.9282619724
44.9369713544
44.0459387319
43.2417034029
42.5133018778
41.8516495258
41.2491140511
40.6992116956
40.1963831423
39.7358236289
39.3133525428
38.9253105659
38.5684776513
38.2400071687
37.9373714952
37.6583176941
37.4008299328
37.163099393
36.9434970062
36.7405513368
36.5529302862
36.3794244411
36.218933653
36.0704547153
35.9330712704
35.805944243
35.6883040156
35.5794432987
35.4787104841
35.3855049656
35.2992726283
35.2195000655
35.1457125687
35.0774724732
35.0143820434
34.9560422355
34.901890609
34.8518036689
34.8055072637
34.7626983533
34.7231055498
34.6864790906
34.6525881114
34.621221683
34.5921837902
34.5652882885
34.540370317
34.5172708709
34.4958420628
34.4759369638
34.4574386219
34.4402317351
34.424208334
34.4092685941
34.3953185063
34.3822720862
34.3700536034
34.3585916773
34.3478181028
34.3376729328
34.3280971333
34.3190407924
34.3104540282
34.3022924926
34.2945190392
34.2870965648
34.2799854864
34.273162322
34.2665905668
34.2602513964
34.254121135
34.248178697
34.2424003469
34.2367716113
34.2312743623
34.2258924291
34.2206159025
34.215420115
34.2103024396
34.2052587063
34.2002781686
34.1953521369
34.1904727388
34.1856279167
34.1808128474
34.1760225002
34.1712526641
34.166494178
34.1617428199
34.1569944409
34.1522423251
34.1474835522
34.1427154174
34.1379330654
34.1331344225
34.128317132
34.1234770474
34.1186109654
34.113716822
34.1087914006
34.1038314985
34.0988360512
34.0938023584
34.0887289263
34.0836145655
34.0784567102
34.0732538624
34.0680057724
34.0627121433
34.0573718598
34.0519859026
34.0465569109
34.0410881874
34.0355852014
34.0300552688
34.0245108392
34.0189736523
34.0134421982
34.007932909
34.0024918894
33.9971667214
33.9919298303
33.9868032854
33.9819043702
33.9773579067
33.9732192815
33.9695699961
33.9665080806
33.964158922
33.962483688
33.9616875152
33.9618042204
33.9628474639
33.9646856328
33.9669568658
33.9685988348
33.9668111496
33.9552517388
33.9197054993
33.8317712516
33.6402855204
33.2623781569
32.5812982808
31.4591003118
29.7698085127
27.4397885503
24.4653142302
20.9099042029
16.8869115535
12.394345331
7.18551127635
1.83677349706
64.1171048974
60.3924103365
57.4884486611
55.1333078148
53.1632708105
51.4790002497
50.0153326437
48.7283841345
47.5869011009
46.567551666
45.6523148808
44.8268937209
44.079701278
43.4011876354