/*--------------------------------*- C++ -*----------------------------------*\
| =========                 |                                                 |
| \\      /  F ield         | OpenFOAM: The Open Source CFD Toolbox           |
|  \\    /   O peration     | Version:  2106                                  |
|   \\  /    A nd           | Website:  www.openfoam.com                      |
|    \\/     M anipulation  |                                                 |
\*---------------------------------------------------------------------------*/
FoamFile
{
    version     2.0;
    format      ascii;
    arch        "LSB;label=32;scalar=64";
    class       surfaceScalarField;
    location    "0.34";
    object      phi;
}
// * * * * * * * * * * * * * * * * * * * * * * * * * * * * * * * * * * * * * //

dimensions      [0 3 -1 0 0 0 0];

oriented        oriented;

internalField   nonuniform List<scalar> 
22100
(
3.38461204301e-05
1.615387957e-05
2.2457210098e-05
1.13889103048e-05
1.62585533493e-05
6.19865671901e-06
1.27977765056e-05
3.46077682638e-06
1.0804642773e-05
1.99313373021e-06
9.60458989061e-06
1.2000528895e-06
8.85132226457e-06
7.53267640382e-07
8.36435357532e-06
4.86968712109e-07
8.04433579114e-06
3.20017792333e-07
7.83284105643e-06
2.11494722141e-07
7.69339791073e-06
1.39443109744e-07
7.60224098388e-06
9.11568524822e-08
7.5434780984e-06
5.87627702428e-08
7.50634100146e-06
3.71369235036e-08
7.48350122591e-06
2.28395370859e-08
7.46998005271e-06
1.35208649793e-08
7.46241500581e-06
7.56467351502e-09
7.45854647944e-06
3.86808984949e-09
7.45682694026e-06
1.71905140632e-09
7.45641976676e-06
4.06649536942e-10
7.45676905597e-06
-3.49826877082e-10
7.45745472852e-06
-6.86197511421e-10
7.45821261032e-06
-7.58373823936e-10
7.45893750478e-06
-7.25338401036e-10
7.45958146011e-06
-6.44343752802e-10
7.46012509437e-06
-5.43967756811e-10
7.46056695924e-06
-4.42149856822e-10
7.46091550069e-06
-3.48787181878e-10
7.46118362619e-06
-2.68330879706e-10
7.46138541693e-06
-2.01961312402e-10
7.46153425146e-06
-1.48972088878e-10
7.46164182899e-06
-1.07694498322e-10
7.46171786268e-06
-7.61389722588e-11
7.46177047703e-06
-5.27170406626e-11
7.46180362266e-06
-3.32553748881e-11
7.46182227624e-06
-1.87898240565e-11
7.46183120431e-06
-9.0880179025e-12
7.46183385704e-06
-2.82215401221e-12
7.46183217156e-06
1.49500263238e-12
7.46182731876e-06
4.67527919836e-12
7.46182022363e-06
6.91816324319e-12
7.46181149864e-06
8.56882127518e-12
7.46180150843e-06
9.8519914422e-12
7.46179041627e-06
1.09683417788e-11
7.4617782529e-06
1.20706157013e-11
7.46176485185e-06
1.32768351797e-11
7.46174998658e-06
1.47057829438e-11
7.46173335787e-06
1.64631297651e-11
7.46171454129e-06
1.86381645497e-11
7.46169299663e-06
2.135544743e-11
7.46166810461e-06
2.4669198615e-11
7.46163918374e-06
2.86801514878e-11
7.46160543361e-06
3.34893328556e-11
7.46156600281e-06
3.91672129378e-11
7.46152002987e-06
4.5709979722e-11
7.46146668666e-06
5.30664223051e-11
7.46140529038e-06
6.10686791824e-11
7.46133573712e-06
6.91867166025e-11
7.46125876528e-06
7.66126726595e-11
7.46117686628e-06
8.15408121569e-11
7.46109637087e-06
8.0098585367e-11
7.46102937501e-06
6.65905538257e-11
7.4609836672e-06
4.54022200923e-11
7.46097833219e-06
4.92565041231e-12
7.46104950448e-06
-7.14752162359e-11
7.46125529918e-06
-2.06129376483e-10
7.46169018197e-06
-4.35294923496e-10
7.46250422792e-06
-8.14503750578e-10
7.46393259271e-06
-1.42894554674e-09
7.46633074516e-06
-2.39877827052e-09
7.47014808148e-06
-3.81795335862e-09
7.47659550734e-06
-6.44806699459e-09
7.48736438194e-06
-1.07695386262e-08
7.50553671132e-06
-1.8173050863e-08
7.5387188634e-06
-3.31829173132e-08
7.60792937877e-06
-6.92112721682e-08
7.77458541414e-06
-1.66656763801e-07
8.22948639225e-06
-4.54901705839e-07
9.69709185406e-06
-1.46760622992e-06
-5.45134397865e-06
1.51484349378e-05
5.02175948908e-05
1.59362846382e-05
4.42441117012e-05
1.73623934531e-05
3.77795016162e-05
1.26632667725e-05
3.2646144172e-05
8.59413425497e-06
2.89380920949e-05
5.7011858135e-06
2.63596217359e-05
3.77852326721e-06
2.4587517352e-05
2.52537202797e-06
2.33734753154e-05
1.70101074224e-06
2.254352627e-05
1.14996680043e-06
2.1978217562e-05
7.76803338862e-07
2.15955149794e-05
5.22145537442e-07
2.13387383162e-05
3.47933281472e-07
2.11684966394e-05
2.2900411907e-07
2.10573388084e-05
1.48294318883e-07
2.0986150595e-05
9.40271907927e-08
2.09416778408e-05
5.79929370165e-08
2.0914795581e-05
3.44461409896e-08
2.08992959787e-05
1.93668102729e-08
2.08910716753e-05
9.94241737814e-09
2.08872708221e-05
4.2065574206e-09
2.08862012727e-05
7.18810071808e-10
2.08864464236e-05
-9.32200042279e-10
2.08873173411e-05
-1.63007358229e-09
2.08884563646e-05
-1.86507463626e-09
2.08896292618e-05
-1.81787601353e-09
2.08907118668e-05
-1.62712191349e-09
2.08916491197e-05
-1.3798671994e-09
2.08924263372e-05
-1.12640319731e-09
2.08930512832e-05
-8.93617439407e-10
2.08935431663e-05
-6.94137113692e-10
2.0893926765e-05
-5.32807397269e-10
2.08942281016e-05
-4.09232668243e-10
2.08944388656e-05
-2.87100840585e-10
2.08945857053e-05
-1.99773360669e-10
2.08946858601e-05
-1.33643165543e-10
2.08947510184e-05
-8.41877859545e-11
2.08947913229e-05
-4.96639093091e-11
2.08948149754e-05
-2.67603645117e-11
2.08948267853e-05
-1.06102422719e-11
2.08948297169e-05
1.47822764978e-12
2.08948261892e-05
1.02161438872e-11
2.08948178539e-05
1.66798372506e-11
2.08948058584e-05
2.16309585507e-11
2.08947908938e-05
2.56823243761e-11
2.089477336e-05
2.93649043839e-11
2.08947533677e-05
3.30166208144e-11
2.08947308934e-05
3.68926619661e-11
2.08947058161e-05
4.12070642651e-11
2.089467794e-05
4.61427473944e-11
2.08946469815e-05
5.18961005301e-11
2.08946127295e-05
5.84780990617e-11
2.08945750534e-05
6.59028608265e-11
2.08945339525e-05
7.40975897415e-11
2.08944897326e-05
8.28356001568e-11
2.08944432783e-05
9.15947800892e-11
2.08943963943e-05
9.93799203726e-11
2.08943523972e-05
1.04456548368e-10
2.08943172641e-05
1.0363941592e-10
2.08943004791e-05
9.26496711736e-11
2.08943174182e-05
6.39108649065e-11
2.0894395101e-05
1.78123483402e-12
2.08945820825e-05
-1.21132158219e-10
2.08949470966e-05
-3.20134524599e-10
2.0895608521e-05
-6.57180783143e-10
2.08966740605e-05
-1.1376855965e-09
2.08983209621e-05
-1.85380584012e-09
2.09009070149e-05
-3.02221537917e-09
2.09049800728e-05
-4.88852393217e-09
2.09114092137e-05
-7.85914840729e-09
2.09216179856e-05
-1.26087205774e-08
2.09380963341e-05
-2.029754033e-08
2.0964989453e-05
-3.33424449151e-08
2.10092363431e-05
-5.50177209295e-08
2.10840087648e-05
-9.29467824756e-08
2.12152307059e-05
-1.64406214497e-07
2.14558057789e-05
-3.09787765333e-07
2.19135813175e-05
-6.24433685366e-07
2.28004532991e-05
-1.34177489803e-06
2.44442086941e-05
-3.11136271234e-06
-7.03759031453e-06
2.60304539605e-05
5.35171053394e-05
1.24191792667e-05
5.29349683445e-05
1.79445304164e-05
4.96538401552e-05
1.59443949426e-05
4.58401814811e-05
1.2407792924e-05
4.24400924601e-05
9.1012748417e-06
3.97291724822e-05
6.48944326867e-06
3.76873059723e-05
4.56723855e-06
3.6197663098e-05
3.19065360973e-06
3.5132612391e-05
2.21501746789e-06
3.43823672387e-05
1.52704841372e-06
3.38606261164e-05
1.0438865209e-06
3.35023456901e-05
7.06213500331e-07
3.3259600544e-05
4.71748966698e-07
3.30975899298e-05
3.10304540766e-07
3.29913334696e-05
2.00283155035e-07
3.29230911289e-05
1.26234685053e-07
3.28804026383e-05
7.71339476557e-08
3.28546168952e-05
4.51517937129e-08
3.28397891468e-05
2.47693559601e-08
3.2831861969e-05
1.21329118311e-08
3.28279918168e-05
4.58816490634e-09
3.28269925672e-05
6.63065017257e-11
3.28271727457e-05
-1.81092663888e-09
3.2828020605e-05
-2.71353595773e-09
3.28291358593e-05
-2.93366045088e-09
3.28302826193e-05
-2.77434614325e-09
3.28313381333e-05
-2.43577793541e-09
3.28322480896e-05
-2.03669569057e-09
3.28329976408e-05
-1.64345299565e-09
3.2833592868e-05
-1.28961478942e-09
3.28340487254e-05
-9.88881281468e-10
3.28343832824e-05
-7.43979126392e-10
3.28346492244e-05
-5.53234186232e-10
3.28348651219e-05
-4.15872430609e-10
3.28350119062e-05
-2.80652058399e-10
3.28351106908e-05
-1.83216926054e-10
3.28351761005e-05
-1.15326655816e-10
3.28352175712e-05
-6.84801399214e-11
3.28352419866e-05
-3.52799018544e-11
3.28352533201e-05
-1.00940549591e-11
3.28352551422e-05
8.17419370008e-12
3.28352499396e-05
2.16666549383e-11
3.2835239541e-05
3.1834278348e-11
3.28352251647e-05
3.98597966258e-11
3.28352075703e-05
4.6750800493e-11
3.28351872045e-05
5.31469821092e-11
3.28351643721e-05
5.94849263175e-11
3.28351392758e-05
6.60438220663e-11
3.28351120361e-05
7.30852627291e-11
3.28350826431e-05
8.09552772309e-11
3.28350514089e-05
8.93558008877e-11
3.28350189454e-05
9.80029536051e-11
3.28349862811e-05
1.06376555619e-10
3.28349551988e-05
1.13491778081e-10
3.28349287046e-05
1.1759665908e-10
3.28349114782e-05
1.16053282123e-10
3.28349105821e-05
1.04781145911e-10
3.28349375326e-05
7.6077085697e-11
3.28350096619e-05
1.98631562713e-11
3.28351568123e-05
-8.39165488154e-11
3.28354304038e-05
-2.7238579471e-10
3.28359196073e-05
-6.10944435289e-10
3.28366375542e-05
-1.03859887631e-09
3.28376804529e-05
-1.70064341505e-09
3.28393071296e-05
-2.7649607229e-09
3.28418926311e-05
-4.44001655374e-09
3.28459409405e-05
-7.07132331203e-09
3.28522664164e-05
-1.12148604337e-08
3.28621818327e-05
-1.77754965958e-08
3.28778511684e-05
-2.8279037379e-08
3.29029340897e-05
-4.53815201253e-08
3.294278021e-05
-7.31896840135e-08
3.3007216623e-05
-1.19455304773e-07
3.31132212027e-05
-1.98952502125e-07
3.32897992699e-05
-3.40985402704e-07
3.35851418845e-05
-6.05131511609e-07
3.40703079723e-05
-1.10960091746e-06
3.48114032396e-05
-2.08287125592e-06
3.56721987873e-05
-3.97215920675e-06
-7.10574106692e-06
3.57403487364e-05
5.35105664603e-05
8.90861277871e-06
5.5574222252e-05
1.58808745993e-05
5.52424825519e-05
1.62761346279e-05
5.35977860216e-05
1.4052489454e-05
5.15418477743e-05
1.11572130944e-05
4.95802800121e-05
8.45101104324e-06
4.79243509774e-05
6.223167589e-06
4.66181390706e-05
4.49686550313e-06
4.56304662049e-05
3.20269028206e-06
4.49051171645e-05
2.25239736699e-06
4.43840898469e-05
1.56491370331e-06
4.40166935182e-05
1.07360962354e-06
4.37619667878e-05
7.26475410419e-07
4.3588267876e-05
4.84003069457e-07
4.34718681381e-05
3.16682409286e-07
4.33953576157e-05
2.02744627438e-07
4.33461868207e-05
1.26304078944e-07
4.33154486403e-05
7.58892456951e-08
4.32969116744e-05
4.33055520863e-08
4.32862849984e-05
2.27588086295e-08
4.32806815561e-05
1.01908449857e-08
4.32778733148e-05
2.87382468871e-09
4.32770450037e-05
-9.83278338732e-10
4.32772624164e-05
-2.93154225769e-09
4.3277949515e-05
-3.62128650276e-09
4.32788121664e-05
-3.63746256616e-09
4.32796845916e-05
-3.30861693888e-09
4.32804816716e-05
-2.83414082708e-09
4.32811670589e-05
-2.32915099145e-09
4.32817325365e-05
-1.85535548766e-09
4.32821849364e-05
-1.44151056809e-09
4.32825369517e-05
-1.09619965701e-09
4.3282798338e-05
-8.14811554732e-10
4.32829733782e-05
-5.9109725648e-10
4.32831060517e-05
-4.13517887251e-10
4.32831911273e-05
-2.6850223277e-10
4.32832447787e-05
-1.69200992225e-10
4.32832842806e-05
-1.08201951894e-10
4.32833084241e-05
-5.96442308085e-11
4.32833201909e-05
-2.20840875522e-11
4.32833230202e-05
5.14235997154e-12
4.32833188741e-05
2.56301226387e-11
4.3283309429e-05
4.10932867419e-11
4.32832958708e-05
5.32390126232e-11
4.32832788567e-05
6.35675858956e-11
4.32832588132e-05
7.29689666715e-11
4.32832360804e-05
8.19645666136e-11
4.32832109586e-05
9.0897445518e-11
4.32831837976e-05
9.99609996605e-11
4.32831551806e-05
1.09274683856e-10
4.32831257479e-05
1.18454724049e-10
4.32830964734e-05
1.26906228304e-10
4.32830688363e-05
1.33620772178e-10
4.32830449332e-05
1.36963663273e-10
4.32830276869e-05
1.3435947668e-10
4.32830215958e-05
1.21598746079e-10
4.32830346901e-05
9.1113220776e-11
4.32830790228e-05
3.11367154853e-11
4.3283173898e-05
-7.56118467239e-11
4.32833357654e-05
-2.46376017401e-10
4.32835783917e-05
-5.1563182932e-10
4.32840227486e-05
-1.05585787877e-09
4.32847960351e-05
-1.81241357554e-09
4.32860515648e-05
-2.95670184461e-09
4.32879971253e-05
-4.71107301328e-09
4.32909827457e-05
-7.42623305876e-09
4.32955680013e-05
-1.16572978941e-08
4.33026314564e-05
-1.82791293163e-08
4.33135550354e-05
-2.86999471814e-08
4.33304961939e-05
-4.52211309954e-08
4.33567632455e-05
-7.1649506776e-08
4.33979248399e-05
-1.14352225751e-07
4.34628289221e-05
-1.84360469563e-07
4.35651935334e-05
-3.01318256339e-07
4.37249622068e-05
-5.0075521802e-07
4.39667122338e-05
-8.46882627303e-07
4.43070785262e-05
-1.44996825069e-06
4.47073156291e-05
-2.48310933597e-06
4.49264642185e-05
-4.19130863508e-06
-6.57636459908e-06
4.43970870786e-05
5.27351379924e-05
6.1734747662e-06
5.57309344438e-05
1.28850781369e-05
5.73114742849e-05
1.46955947829e-05
5.76109918016e-05
1.37529719454e-05
5.71335226642e-05
1.16346822424e-05
5.63194681968e-05
9.26506551687e-06
5.54489880919e-05
7.09364768508e-06
5.46629775943e-05
5.28287597119e-06
5.40136820747e-05
3.85198573688e-06
5.35061507598e-05
2.75992857209e-06
5.31242548329e-05
1.94680947041e-06
5.28449852444e-05
1.35287898347e-06
5.26454389139e-05
9.2602143702e-07
5.25057145338e-05
6.23727058902e-07
5.24097195729e-05
4.12676891727e-07
5.2345013307e-05
2.67450320723e-07
5.23022751666e-05
1.69041563192e-07
5.22746876324e-05
1.03476063851e-07
5.2257362675e-05
6.06297651942e-08
5.22468535438e-05
3.32671946786e-08
5.22407533627e-05
1.62903021863e-08
5.22374439781e-05
6.18252507881e-09
5.22359447548e-05
5.15314788337e-10
5.22354362234e-05
-2.42358142966e-09
5.2235500568e-05
-3.68614370095e-09
5.22358454091e-05
-3.9827616478e-09
5.22362990245e-05
-3.76265012814e-09
5.22367647834e-05
-3.30027324939e-09
5.22371915921e-05
-2.75628580436e-09
5.22375567333e-05
-2.22077005852e-09
5.22378535057e-05
-1.73852033845e-09
5.22380846946e-05
-1.3276027127e-09
5.22382605851e-05
-9.90903417505e-10
5.22383930804e-05
-7.23791378648e-10
5.22384930633e-05
-5.13696618953e-10
5.22385772676e-05
-3.52920887697e-10
5.22386424662e-05
-2.34606567097e-10
5.22386844195e-05
-1.50358046202e-10
5.22387168919e-05
-9.22999568315e-11
5.22387320172e-05
-3.74090589929e-11
5.22387369828e-05
-2.86716002058e-14
5.22387343844e-05
2.80369315241e-11
5.22387261384e-05
4.91392319106e-11
5.22387136037e-05
6.55730731501e-11
5.22386976465e-05
7.9345690785e-11
5.22386788274e-05
9.16036968193e-11
5.22386576267e-05
1.02969491843e-10
5.22386347066e-05
1.13592224661e-10
5.22386112164e-05
1.23214170339e-10
5.22385850187e-05
1.35203476454e-10
5.22385578925e-05
1.45279413251e-10
5.2238530953e-05
1.53510823707e-10
5.22385057889e-05
1.58399558533e-10
5.22384850178e-05
1.57289366028e-10
5.22384741197e-05
1.44758876523e-10
5.22384825119e-05
1.12636936544e-10
5.22385131621e-05
5.98708352209e-11
5.22385892157e-05
-4.55643338319e-11
5.22387089059e-05
-1.95989605695e-10
5.22389033582e-05
-4.41436391885e-10
5.22392409055e-05
-8.5378585685e-10
5.22397586576e-05
-1.57424048441e-09
5.22405318146e-05
-2.58611891838e-09
5.22416930601e-05
-4.11852627317e-09
5.2243445683e-05
-6.46431963911e-09
5.22460909433e-05
-1.00721807793e-08
5.22500807416e-05
-1.56478162427e-08
5.22561062024e-05
-2.4305346836e-08
5.22652260667e-05
-3.78206268201e-08
5.2279057561e-05
-5.90534922294e-08
5.23000581968e-05
-9.26510624316e-08
5.23319431502e-05
-1.4623809827e-07
5.23800548448e-05
-2.32473096304e-07
5.24513176425e-05
-3.72582084694e-07
5.25525924184e-05
-6.02031092928e-07
5.26844204705e-05
-9.78711755866e-07
5.28245724093e-05
-1.59012120875e-06
5.28915626995e-05
-2.55010053115e-06
5.26729435007e-05
-3.97269025793e-06
-5.76745597724e-06
5.18640342988e-05
5.19834864595e-05
4.18998829215e-06
5.5058663978e-05
9.8099006196e-06
5.76386132201e-05
1.21156455443e-05
5.93259031702e-05
1.20656820033e-05
6.02280151995e-05
1.07325702195e-05
6.0592926362e-05
8.9001543535e-06
6.06482832338e-05
7.03829079214e-06
6.05531886942e-05
5.37797046355e-06
6.04029540011e-05
4.00222035073e-06
6.02479133391e-05
2.91496911293e-06
6.01107876087e-05
2.08393501974e-06
5.99990278344e-05
1.46463850968e-06
5.99125123508e-05
1.01253659766e-06
5.98479200887e-05
6.8831892218e-07
5.98010160852e-05
4.59580418353e-07
5.9767730927e-05
3.0073491986e-07
5.97445889994e-05
1.92182854016e-07
5.97288098315e-05
1.19254535279e-07
5.97182610343e-05
7.11778382377e-08
5.9711354192e-05
4.01733156686e-08
5.970693421e-05
2.07095902207e-08
5.97041997104e-05
8.91637021345e-09
5.97025901016e-05
2.12431216654e-09
5.97016850223e-05
-1.5190643362e-09
5.97012262038e-05
-3.22783850665e-09
5.97010361781e-05
-3.79320205015e-09
5.97009994056e-05
-3.72629989481e-09
5.97010432293e-05
-3.3444743694e-09
5.97011239342e-05
-2.83732325134e-09
5.97012158531e-05
-2.31298538057e-09
5.9701305111e-05
-1.82804482835e-09
5.97013850869e-05
-1.40782115612e-09
5.97014543561e-05
-1.0603951864e-09
5.97015135152e-05
-7.83152722849e-10
5.9701563362e-05
-5.63729416536e-10
5.97016027779e-05
-3.92518917823e-10
5.97016302225e-05
-2.62220822268e-10
5.97016452242e-05
-1.65532499927e-10
5.97016433069e-05
-9.05546829184e-11
5.97016349847e-05
-2.92476291138e-11
5.97016281527e-05
6.61812922513e-12
5.97016187459e-05
3.7253860787e-11
5.97016080713e-05
5.96045529999e-11
5.97015962812e-05
7.71323324167e-11
5.97015822772e-05
9.31215814985e-11
5.9701565909e-05
1.0775299652e-10
5.97015472479e-05
1.21415677014e-10
5.97015263065e-05
1.34325991464e-10
5.97015028761e-05
1.46422374997e-10
5.97014803563e-05
1.57472654021e-10
5.97014586355e-05
1.66732917517e-10
5.97014389398e-05
1.72891770828e-10
5.97014229477e-05
1.74034631895e-10
5.97014121881e-05
1.67640115172e-10
5.97014056771e-05
1.50795224073e-10
5.97013963527e-05
1.2137082793e-10
5.9701400817e-05
5.47627916315e-11
5.97014122445e-05
-5.7565560487e-11
5.97014957713e-05
-2.80201122068e-10
5.97016843144e-05
-6.30628150193e-10
5.97019838222e-05
-1.15385617902e-09
5.97023704436e-05
-1.96144203438e-09
5.97029485696e-05
-3.16482656555e-09
5.97038006862e-05
-4.97115465085e-09
5.97050407005e-05
-7.70487845246e-09
5.97068335845e-05
-1.18656939074e-08
5.97094173242e-05
-1.82322696522e-08
5.97131358173e-05
-2.80245966881e-08
5.97184785554e-05
-4.3164164584e-08
5.97261259735e-05
-6.67017137075e-08
5.97369790565e-05
-1.03505025299e-07
5.97520996173e-05
-1.61359597584e-07
5.97723241598e-05
-2.52698604256e-07
5.97970595561e-05
-3.97318492145e-07
5.98211475446e-05
-6.26120099524e-07
5.98277119129e-05
-9.85277112376e-07
5.97747131543e-05
-1.53712340596e-06
5.95742373847e-05
-2.34962553525e-06
5.90684805444e-05
-3.46693417171e-06
-4.7962451546e-06
5.80972692388e-05
5.14373053654e-05
2.7526829223e-06
5.42658205908e-05
6.98138541246e-06
5.72496432594e-05
9.13182289206e-06
5.97900276028e-05
9.52529767463e-06
6.17201280642e-05
8.80246976294e-06
6.30883029572e-05
7.53197945115e-06
6.40167164362e-05
6.10987728237e-06
6.4629236121e-05
4.76545071466e-06
6.50258029279e-05
3.60565343662e-06
6.52790773187e-05
2.66169457614e-06
6.54389721399e-05
1.92403999584e-06
6.55386886989e-05
1.36492168657e-06
6.55999269171e-05
9.51298045223e-07
6.56367413652e-05
6.51504070282e-07
6.56581920457e-05
4.38129259923e-07
6.56700997962e-05
2.88826617552e-07
6.56761885181e-05
1.86093517345e-07
6.56788242771e-05
1.1661811257e-07
6.56794941556e-05
7.05072719446e-08
6.56791173985e-05
4.05493895032e-08
6.56782494737e-05
2.15768570244e-08
6.5677218058e-05
9.94716458056e-09
6.56762083359e-05
3.13345081897e-09
6.56752986095e-05
-6.09880300798e-10
6.56745294895e-05
-2.45921879585e-09
6.56739007218e-05
-3.16489810563e-09
6.56734014263e-05
-3.22743739222e-09
6.56730141372e-05
-2.95759273326e-09
6.56727198744e-05
-2.54343893236e-09
6.56725004743e-05
-2.09393652052e-09
6.56723398406e-05
-1.66771789076e-09
6.56722242882e-05
-1.29255137091e-09
6.56721416894e-05
-9.78036409048e-10
6.56720814179e-05
-7.23093731404e-10
6.56720377066e-05
-5.20196009515e-10
6.56720062956e-05
-3.61283043424e-10
6.56719810829e-05
-2.37160533982e-10
6.56719593663e-05
-1.43980168154e-10
6.56719441857e-05
-7.55481101581e-11
6.56719422255e-05
-2.74525940218e-11
6.56719404706e-05
8.19535598708e-12
6.56719328848e-05
4.46644137317e-11
6.56719226703e-05
6.96370762629e-11
6.56719099626e-05
8.96483627287e-11
6.56718957137e-05
1.07165387614e-10
6.56718799522e-05
1.232959074e-10
6.567186254e-05
1.38617617721e-10
6.56718434041e-05
1.53253367851e-10
6.56718230285e-05
1.66584431373e-10
6.56718035004e-05
1.76784935093e-10
6.56717837204e-05
1.86251190291e-10
6.56717641781e-05
1.92091216417e-10
6.5671746017e-05
1.91800096452e-10
6.56717311438e-05
1.82048865452e-10
6.56717233394e-05
1.58114550314e-10
6.56717300943e-05
1.14062187391e-10
6.56717359204e-05
4.82327695772e-11
6.56717685341e-05
-9.07813489292e-11
6.56718358542e-05
-3.48154196357e-10
6.56719336183e-05
-7.29067112131e-10
6.56720835865e-05
-1.30442654579e-09
6.56722926449e-05
-2.17105709091e-09
6.56725772906e-05
-3.45010184634e-09
6.56729541576e-05
-5.34866540868e-09
6.56734341957e-05
-8.18557481789e-09
6.56740150809e-05
-1.24472443464e-08
6.56746667178e-05
-1.88846186964e-08
6.56753036126e-05
-2.86622214864e-08
6.56757249184e-05
-4.35862121404e-08
6.56755032297e-05
-6.64808213722e-08
6.56737697249e-05
-1.01772377052e-07
6.56687911664e-05
-1.56381939951e-07
6.565703423e-05
-2.40942632056e-07
6.56313721932e-05
-3.71657472939e-07
6.55776578852e-05
-5.724068266e-07
6.54686662005e-05
-8.76286355015e-07
6.5255245106e-05
-1.32370320121e-06
6.48573774641e-05
-1.95175855068e-06
6.4162644605e-05
-2.7722019581e-06
-3.71452730008e-06
6.30809263363e-05
5.10850423635e-05
1.6676405622e-06
5.3611844595e-05
4.45458320847e-06
5.66873165332e-05
6.05635097315e-06
5.96894465489e-05
6.52316767154e-06
6.22997271434e-05
6.19218916833e-06
6.44136886659e-05
5.41801790748e-06
6.60471847427e-05
4.47638115797e-06
6.72686161947e-05
3.54401917565e-06
6.81598951069e-05
2.71437438826e-06
6.87977615598e-05
2.02382794094e-06
6.92467457711e-05
1.47505555585e-06
6.95579644193e-05
1.05370275896e-06
6.97704308866e-05
7.38831239473e-07
6.99131737203e-05
5.08760832865e-07
7.00073845815e-05
3.43917923393e-07
7.0068293885e-05
2.27916773944e-07
7.01066956456e-05
1.47691168497e-07
7.01301376716e-05
9.31754652519e-08
7.01438265147e-05
5.68177912495e-08
7.01513023383e-05
3.30729304023e-08
7.01549345504e-05
1.79440292586e-08
7.01562820852e-05
8.59905116859e-09
7.01563537392e-05
3.06125696724e-09
7.01557614883e-05
-1.81322679459e-11
7.01549003962e-05
-1.59860004113e-09
7.01539765744e-05
-2.24152456354e-09
7.01531077228e-05
-2.35902031414e-09
7.01523475015e-05
-2.19779249541e-09
7.01517131266e-05
-1.90946198854e-09
7.01512017457e-05
-1.58291850428e-09
7.01508004511e-05
-1.26673115802e-09
7.01504922862e-05
-9.8465179849e-10
7.01502596085e-05
-7.45597476007e-10
7.01500862514e-05
-5.49946419415e-10
7.0149959231e-05
-3.9334101557e-10
7.01498678672e-05
-2.70077890769e-10
7.01498050576e-05
-1.74505103913e-10
7.01497633391e-05
-1.02415534875e-10
7.01497346418e-05
-4.70261688915e-11
7.0149704564e-05
2.44102092244e-12
7.01496809804e-05
3.15499937642e-11
7.01496677331e-05
5.76688884058e-11
7.014965705e-05
8.00813237013e-11
7.01496469572e-05
9.94941168941e-11
7.01496367287e-05
1.17161134001e-10
7.01496259974e-05
1.33829847947e-10
7.01496146203e-05
1.49816089198e-10
7.01496026136e-05
1.65072545648e-10
7.01495898131e-05
1.79215675884e-10
7.01495748075e-05
1.91620908463e-10
7.01495595166e-05
2.0133340077e-10
7.01495447619e-05
2.0657452448e-10
7.01495312822e-05
2.04894917934e-10
7.01495196553e-05
1.93177823538e-10
7.01495094264e-05
1.6778722887e-10
7.01494980746e-05
1.24881815313e-10
7.01494899895e-05
5.56146061511e-11
7.01494789803e-05
-8.04142059752e-11
7.01494889105e-05
-3.5875478761e-10
7.01495109976e-05
-7.51836274576e-10
7.01495333255e-05
-1.32742520075e-09
7.01495343277e-05
-2.17265589454e-09
7.01494871187e-05
-3.40345014999e-09
7.01493384139e-05
-5.20055528218e-09
7.01489892603e-05
-7.83704574743e-09
7.01482644837e-05
-1.17231286192e-08
7.0146862516e-05
-1.74833747651e-08
7.01442718518e-05
-2.60723299473e-08
7.0139618364e-05
-3.89334758339e-08
7.01314210402e-05
-5.82842835686e-08
7.01171911109e-05
-8.75432622391e-08
7.00927749371e-05
-1.31966653891e-07
7.00510845911e-05
-1.99253201935e-07
6.99801499051e-05
-3.00723717435e-07
6.98600117344e-05
-4.52269575278e-07
6.96582372777e-05
-6.74512771249e-07
6.93249329223e-05
-9.90399716198e-07
6.87905818577e-05
-1.41740805333e-06
6.79726450498e-05
-1.95426560812e-06
-2.55498810852e-06
6.68131055567e-05
5.0880413206e-05
7.87227370344e-07
5.31704662418e-05
2.16453021609e-06
5.62177498267e-05
3.00906742116e-06
5.94382698394e-05
3.30264767893e-06
6.24449696379e-05
3.18548936752e-06
6.50382529964e-05
2.82473451266e-06
6.71548664687e-05
2.35976761538e-06
6.88135648247e-05
1.88532070788e-06
7.0073170642e-05
1.45476840851e-06
7.10056673784e-05
1.09133099106e-06
7.16812634057e-05
7.99459270394e-07
7.21614224591e-05
5.73543399628e-07
7.24966030462e-05
4.03650299076e-07
7.27264792178e-05
2.78884252616e-07
7.28812776908e-05
1.89118985476e-07
7.29834669783e-05
1.25726968881e-07
7.30494102617e-05
8.17473267807e-08
7.30908118519e-05
5.17732925098e-08
7.31159052741e-05
3.17237778677e-08
7.31303892759e-05
1.85883404343e-08
7.31381434952e-05
1.01892391702e-08
7.31417634578e-05
4.97854864024e-09
7.31429507144e-05
1.87349241905e-09
7.31428038748e-05
1.28220532549e-10
7.31419802133e-05
-7.75411817055e-10
7.31408968728e-05
-1.15864530912e-09
7.31397815678e-05
-1.24416904112e-09
7.31387537066e-05
-1.17038310876e-09
7.31378657625e-05
-1.02196538081e-09
7.31371316337e-05
-8.49217956576e-10
7.31365439718e-05
-6.79458488035e-10
7.31360853952e-05
-5.26406953233e-10
7.31357350273e-05
-3.95517264909e-10
7.31354722399e-05
-2.87400464106e-10
7.3135278697e-05
-1.99977898012e-10
7.31351387457e-05
-1.30272495277e-10
7.31350391155e-05
-7.50190269096e-11
7.31349673145e-05
-3.07419243317e-11
7.31349138841e-05
6.25389833133e-12
7.31348838984e-05
3.22513524791e-11
7.31348605365e-05
5.46912085051e-11
7.31348434464e-05
7.45021914669e-11
7.31348308094e-05
9.2462033366e-11
7.31348207987e-05
1.09231412661e-10
7.31348121736e-05
1.25530933466e-10
7.31348040584e-05
1.41711357164e-10
7.3134795838e-05
1.57813870303e-10
7.3134787077e-05
1.73611120852e-10
7.31347774974e-05
1.8855974162e-10
7.3134767048e-05
2.01791566873e-10
7.31347558027e-05
2.12288546512e-10
7.31347438193e-05
2.18243940345e-10
7.31347312186e-05
2.17129578928e-10
7.31347182389e-05
2.05720001185e-10
7.31347054645e-05
1.80000731683e-10
7.31346942879e-05
1.35550125415e-10
7.31346778114e-05
7.14378867604e-11
7.3134654318e-05
-5.75387527765e-11
7.31346121596e-05
-3.17186296574e-10
7.31345455088e-05
-6.85812096249e-10
7.31344307474e-05
-1.21329202095e-09
7.31342245337e-05
-1.96710977192e-09
7.31338588184e-05
-3.03840630384e-09
7.31332186471e-05
-4.56105850481e-09
7.31321110168e-05
-6.73010793058e-09
7.31302140994e-05
-9.82688791494e-09
7.3127000572e-05
-1.42705052315e-08
7.31216152721e-05
-2.06877276189e-08
7.31126453404e-05
-2.99642621628e-08
7.30977860968e-05
-4.3425779671e-08
7.30733304965e-05
-6.30884408205e-08
7.30333812444e-05
-9.2018277579e-08
7.29684246562e-05
-1.34297512191e-07
7.28634435676e-05
-1.95743508754e-07
7.26952723237e-05
-2.84099211487e-07
7.24294116054e-05
-4.08652804396e-07
7.20175010455e-05
-5.78489938717e-07
7.13983448265e-05
-7.98252393288e-07
7.05063920068e-05
-1.06231318312e-06
-1.34561102599e-06
6.92970146598e-05
5.07871726232e-05
5.47664286893e-11
5.29516499436e-05
5.29497531747e-11
5.59606885938e-05
2.88087612815e-11
5.9263322058e-05
1.42394215351e-11
6.24488085762e-05
2.84359793189e-12
6.52735489987e-05
-5.9596036621e-12
6.76333283435e-05
-1.18288794554e-11
6.95186636726e-05
-1.47618704255e-11
7.09734471089e-05
-1.52139685788e-11
7.20647916498e-05
-1.37837071395e-11
7.28642617402e-05
-1.10999268815e-11
7.34378126323e-05
-7.81478897367e-12
7.3841467151e-05
-4.5814572299e-12
7.412035304e-05
-2.03886277134e-12
7.43094723484e-05
-7.64468768888e-13
7.44351999794e-05
-1.14177982091e-12
7.451695021e-05
-3.41712245266e-12
7.45687303021e-05
-7.33134734175e-12
7.46004657852e-05
-1.22409272201e-11
7.4619070762e-05
-1.71589907994e-11
7.46292804547e-05
-2.09528032524e-11
7.46342810582e-05
-2.25247602601e-11
7.46361755245e-05
-2.14174838579e-11
7.46363222355e-05
-1.89204580874e-11
7.46355626123e-05
-1.62139257403e-11
7.46344164132e-05
-1.28780405024e-11
7.46331809e-05
-9.09682520095e-12
7.4632015022e-05
-4.9580984141e-12
7.46309926405e-05
-1.3145512742e-14
7.46301387625e-05
4.23773258258e-12
7.46294499566e-05
8.95634060685e-12
7.46289092223e-05
1.39748175677e-11
7.46284941629e-05
1.9244027046e-11
7.46281816921e-05
2.48280478813e-11
7.46279505905e-05
3.09240453964e-11
7.46277824976e-05
3.7654514338e-11
7.46276622189e-05
4.50961626406e-11
7.46275780786e-05
5.32435821233e-11
7.46275220218e-05
6.21352836552e-11
7.46274827135e-05
7.13610574053e-11
7.46274562785e-05
8.09035763534e-11
7.46274388378e-05
9.16740202897e-11
7.4627427444e-05
1.03587336535e-10
7.46274198618e-05
1.16546715244e-10
7.46274145665e-05
1.30575876936e-10
7.46274104885e-05
1.45555072265e-10
7.46274068848e-05
1.61208430026e-10
7.46274032177e-05
1.77098804594e-10
7.46273990344e-05
1.9253978588e-10
7.46273939759e-05
2.06602942629e-10
7.46273878685e-05
2.18106331274e-10
7.4627380475e-05
2.25270600665e-10
7.46273714413e-05
2.25752220942e-10
7.46273600989e-05
2.16598079544e-10
7.46273452112e-05
1.94342185325e-10
7.46273251347e-05
1.55108075675e-10
7.46272992028e-05
9.67552351617e-11
7.46272535885e-05
-1.25666375715e-11
7.46271651787e-05
-2.29393019174e-10
7.46270290224e-05
-5.50312549688e-10
7.46268058183e-05
-9.90686130362e-10
7.46264347804e-05
-1.59668348847e-09
7.46258195711e-05
-2.42384115308e-09
7.46248034603e-05
-3.54561749727e-09
7.46231314327e-05
-5.05879051558e-09
7.46203867928e-05
-7.08300470849e-09
7.4615903226e-05
-9.78766625273e-09
7.46086229764e-05
-1.34082319474e-08
7.45968093477e-05
-1.81514089534e-08
7.45776618675e-05
-2.42790614453e-08
7.45467641323e-05
-3.21914833585e-08
7.44973885522e-05
-4.26435203573e-08
7.4418799216e-05
-5.57091079169e-08
7.42946018088e-05
-7.15469905127e-08
7.41004226909e-05
-8.99209885346e-08
7.38014519489e-05
-1.09682838142e-07
7.33510370484e-05
-1.28075705226e-07
7.26927156577e-05
-1.39931493437e-07
7.17684672366e-05
-1.38065127463e-07
-1.13985563921e-07
7.05368415225e-05
5.07871715967e-05
-7.87116799319e-07
5.29516491147e-05