/*--------------------------------*- C++ -*----------------------------------*\
| =========                 |                                                 |
| \\      /  F ield         | OpenFOAM: The Open Source CFD Toolbox           |
|  \\    /   O peration     | Version:  2106                                  |
|   \\  /    A nd           | Website:  www.openfoam.com                      |
|    \\/     M anipulation  |                                                 |
\*---------------------------------------------------------------------------*/
FoamFile
{
    version     2.0;
    format      ascii;
    arch        "LSB;label=32;scalar=64";
    class       volScalarField;
    location    "0.46";
    object      p;
}
// * * * * * * * * * * * * * * * * * * * * * * * * * * * * * * * * * * * * * //

dimensions      [0 2 -2 0 0 0 0];

internalField   nonuniform List<scalar> 
11200
(
150.105076926
147.176475108
146.062624353
145.535293351
145.167964023
144.873186117
144.611542778
144.363004585
144.11848607
143.873417365
143.625101135
143.371782581
143.11222969
142.845506963
142.570847682
142.287578604
141.995074093
141.692728308
141.379942508
141.05612862
140.720662577
140.372895327
140.012168343
139.637813593
139.249145394
138.845462441
138.426048616
137.990173593
137.537093587
137.066052058
136.576280267
136.066997509
135.53741129
134.986717734
134.414101976
133.818739886
133.199797431
132.556430865
131.887787295
131.193005519
130.471215786
129.721540338
128.94309357
128.134982028
127.296304283
126.426150738
125.523603114
124.587733664
123.617604021
122.612263663
121.570747916
120.492075066
119.375242525
118.219222217
117.022954408
115.785339916
114.505230148
113.181414566
111.812604867
110.397415411
108.93433809
107.421710561
105.857675284
104.240132147
102.566671538
100.834488063
99.0402709838
97.1800601993
95.249051335
93.2413294697
91.1495053126
88.964219332
86.6732725249
84.2604785361
81.7037512715
78.9714304224
76.0159156525
72.7646291054
69.0638385117
64.3005247715
148.312035052
146.953860918
146.16288956
145.66287549
145.271887655
144.948005581
144.663484828
144.398882703
144.143394486
143.890871555
143.637486408
143.380725351
143.118851345
142.850588014
142.574935073
142.291057881
141.998219233
141.69573644
141.382951143
141.059201317
140.723836755
140.376181827
140.015592619
139.641400799
139.252910276
138.849414058
138.430193184
137.994515462
137.541635825
137.070796825
136.581228688
136.072149065
135.542763705
134.9922724
134.41986217
133.824708843
133.20597815
132.562826244
131.894400363
131.199839311
130.478273503
129.728825404
128.950609777
128.142733564
127.30429592
126.434387984
125.532092453
124.59648277
123.626622044
122.621561675
121.580339371
120.5019764
119.385473857
118.2298082
117.033925396
115.796733351
114.517092211
113.193802266
111.825588808
110.411083223
108.94879875
107.437100586
105.874165038
104.257929406
102.586026244
100.855715397
99.0637805837
97.2063844783
95.278887472
93.2756045768
91.1894668331
89.0115178187
86.7302100826
84.3304075724
81.7917151098
79.0856244551
76.1713374946
72.9910204234
69.4418844681
65.329081181
147.316845017
146.662644603
146.110289006
145.672671508
145.301048103
144.978946822
144.689847333
144.419613561
144.159150277
143.902668395
143.646282752
143.387311551
143.123842765
142.854449519
142.578010882
142.293598422
142.00040268
141.697685155
141.384747611
141.060913148
140.725519606
140.377927256
140.01739188
139.643259635
139.254838368
138.851418533
138.432278845
137.996686007
137.543894707
137.073147671
136.583675984
136.07469969
135.54542781
134.995052754
134.422756748
133.827718096
133.209103365
132.566069305
131.897764063
131.2033272
130.481890111
129.732576225
128.954501337
128.146773687
127.308494031
126.438755447
125.536642918
124.601232682
123.63159132
122.626774564
121.585825452
120.507771689
119.391622262
118.236363303
117.040952569
115.804312392
114.525320703
113.202799683
111.835501641
110.422091081
108.961121244
107.451005675
105.889980579
104.276078036
102.607060853
100.880334455
99.0928573435
97.2410308351
95.3205405981
93.3261479206
91.2514033487
89.0882441335
86.8265753996
84.4534813506
81.9522414659
79.3009962828
76.4717731154
73.4329579944
70.1485753978
66.5956077336
146.767084218
146.403702894
146.003804963
145.63481465
145.297198056
144.98909559
144.703732
144.433027434
144.170654312
143.911985445
143.653602643
143.392974301
143.128200606
142.857814378
142.580639692
142.295694218
142.002121772
141.699146271
141.386040594
141.062104817
140.726647911
140.378979533
140.018458286
139.644360881
139.255976575
138.852597688
138.433502648
137.997956952
137.545214184
137.074516012
136.585092314
136.076161311
135.546930185
134.996597477
134.424353107
133.829370944
133.210818882
132.567854251
131.899624435
131.205269511
130.483921697
129.734705396
128.956737836
128.149129157
127.310982413
126.441393601
125.539451234
124.604235825
123.63481933
122.630264057
121.589620897
120.511927031
119.3962032
118.241449866
117.046642473
115.810725167
114.532603051
113.211131717
111.845104415
110.433235707
108.974144872
107.46633345
105.9081422
104.297711075
102.632939195
100.91142781
99.1304016314
97.2866083986
95.3761947664
93.3945508488
91.3361198088
89.1941722737
86.9604766416
84.624991212
82.175627604
79.5982883933
76.8782290662
74.0057436098
70.9844316422
67.8514744875
146.433036824
146.20124137
145.899829023
145.588851976
145.284012371
144.991988704
144.713012612
144.443885663
144.180924055
143.920837463
143.660865345
143.398770239
143.132759654
142.861384602
142.583448551
142.297934691
142.00395053
141.700686926
141.387388587
141.063332893
140.727814859
140.380137997
140.019605792
139.645507565
139.257146175
138.853805294
138.43475811
137.999267759
137.546586435
137.075955199
136.586604005
136.077751786
135.548606371
134.998364427
134.426211894
133.831324683
133.212867904
132.56999971
131.901870606
131.207621228
130.486386162
129.73729214
128.959458871
128.151999293
127.314019734
126.444620017
125.542893211
124.607925411
123.638795383
122.634573594
121.594321561
120.517088974
119.401911977
118.247809852
117.053780822
115.81879605
114.541793818
113.22167039
111.857268012
110.447367824
108.990666726
107.485754231
105.931093157
104.324988981
102.665548042
100.950628456
99.1777826396
97.3441884583
95.4465662081
93.4810817915
91.4432385871
89.3277720164
87.1285736658
84.8387250991
82.4508060528
79.957807763
77.3555343271
74.648427955
71.8578488648
69.034493732
146.22964501
146.053742999
145.812548297
145.545222539
145.268035474
144.991396884
144.7197066
144.453203929
144.190437142
143.929426011
143.668135538
143.40469864
143.137489879
142.865118522
142.58639183
142.300272246
142.005837836
141.70224927
141.388723828
141.064515671
140.728901309
140.381168718
140.020608352
139.646510431
139.258164399
138.854849498
138.435836314
138.000385946
137.547749045
137.077165379
136.587863889
136.079062609
135.549968905
134.99977931
134.427680398
133.832849209
133.214454185
132.571655096
131.903603298
131.209443051
130.488309835
129.739331225
128.961629013
128.154318636
127.316510036
126.447307424
125.545809424
124.611109029
123.642293455
122.638443743
121.598632831
120.521925404
119.407375675
118.254025016
117.060898632
115.827003029
114.55132008
113.232796493
111.870342715
110.462808258
109.008978237
107.507560756
105.957172527
104.356297421
102.703268442
100.996235983
99.2331288941
97.411613261
95.5290491586
93.5824509452
91.568462514
89.4833722281
87.3232138117
85.0840463436
82.7625852261
80.3574789436
77.8717952597
75.3176879997
72.7221048542
70.1321425642
146.106528984
145.950921428
145.744619704
145.508057701
145.252582625
144.9893032
144.724689874
144.461180839
144.19904671
143.937459535
143.675085225
143.410447245
143.142115847
142.8687826
142.58927546
142.302546975
142.007652305
141.703725662
141.38995903
141.065584446
140.729860008
140.382059157
140.021462952
139.647353818
139.259012902
138.855714539
138.436726481
138.001307605
137.548707041
137.078163675
136.588906007
136.080151996
135.551109183
135.000974815
134.42893676
133.834173013
133.215852445
132.573135637
131.905174761
131.211113352
130.490086884
129.741226842
128.963659284
128.156504235
127.318876166
126.449884555
125.548634404
124.614226568
123.645757705
122.642320117
121.603000973
120.526882325
119.413039727
118.260540255
117.068440671
115.83578378
114.561593265
113.244876769
111.884605801
110.479722562
109.029125778
107.531655689
105.986083166
104.391095842
102.745282095
101.047112804
99.2949233034
97.4868995609
95.621071945
93.6953261696
91.7074480045
89.6552314347
87.5366971946
85.3505128934
83.0967474231
80.7781583615
78.4022943137
75.9847532571
73.5524099302
71.144619856
146.032450128
145.882440106
145.695684613
145.479579433
145.239873615
144.987052593
144.728415589
144.467677261
144.206310052
143.944387484
143.681168642
143.41553007
143.146231292
142.872051156
142.591846263
142.304566863
142.009251521
141.705012929
141.391021517
141.066490067
140.730660525
140.382793447
140.022159812
139.648034027
139.259692381
138.856404315
138.437434813
138.002040669
137.549469651
137.078959868
136.589739274
136.081025738
135.552026932
135.001940412
134.429954194
133.835246758
133.216987814
132.574338399
131.906451671
131.212474146
130.491547584
129.742805507
128.965374941
128.158379226
127.320937482
126.452164971
125.551173838
124.617073517
123.648971077
122.645971408
121.607177723
120.531690966
119.418609384
118.267027775
117.076036838
115.844721688
114.572160765
113.257417645
111.899547889
110.497581573
109.050528131
107.557368156
106.017047247
104.428468791
102.790488529
101.101910886
99.3614900889
97.5679400692
95.7199594273
93.8162833637
91.855779584
89.837618253
87.7615537811
85.6283985255
83.4407659462
81.2041892537
78.9287043322
76.6309154154
74.3355013311
72.0744686617
145.990174601
145.84072704
145.664311625
145.46057371
145.231041414
144.985333415
144.730973712
144.472335393
144.211628357
143.949533521
143.685734928
143.419374692
143.149361328
142.87454626
142.59381283
142.306112917
142.010474512
141.705995067
141.391829213
141.067175337
140.731263208
140.38334353
140.022679589
139.648540775
139.26019602
138.856914719
138.43795879
138.002583304
137.550034947
137.079551332
136.590360013
136.081678866
135.552715743
135.002668616
134.430725956
133.836067145
133.217862987
132.575276294
131.907462655
131.213570801
130.492741309
129.744111342
128.966812962
128.159973821
127.322718029
126.454167078
125.553440682
124.619657518
123.651935851
122.649394149
121.611151968
120.536330372
119.424052061
118.273441817
117.083626604
115.85373484
114.582896118
113.270242913
111.914905921
110.516016961
109.072704919
107.584096008
106.049314462
104.467483752
102.837730786
101.159195006
99.4310455237
97.6525109436
95.8229283397
93.9418250306
92.0090462306
90.0249589267
87.9907583386
85.9089358303
83.7839378075
81.623059293
79.4375498999
77.2438206323
75.0639146584
72.9240094854
145.970898982
145.821021238
145.6490584
145.451123151
145.226562075
144.984443237
144.732308227
144.474799246
144.214471792
143.952309945
143.68821839
143.421481372
143.15108933
142.87593484
142.594917299
142.306990546
142.011177515
141.706567794
141.392307662
141.067587818
140.731631485
140.383684056
140.023004614
139.648859274
139.260515647
138.857240398
138.438294558
138.002932407
137.550400234
137.07993551
136.590765722
136.0821089
135.55317324
135.003157236
134.43125008
133.836632131
133.218475391
132.575944001
131.908194729
131.2143778
130.493638266
129.745115704
128.9679454
128.161259229
127.324186647
126.455855676
125.555393908
124.621929486
123.654592177
122.652514579
121.614833397
120.540690405
119.429233598
118.279618447
117.091009134
115.862579924
114.593516149
113.283015989
111.930292127
110.534576033
109.095116192
107.611185784
106.082088565
104.507166798
102.885814521
101.217497276
99.5017819948
97.7383820051
95.92722265
94.0685417387
92.1630315569
90.2120616322
88.2179718737
86.1845157036
84.1174008355
82.0249720251
79.9189520249
77.8150942634
75.733087823
73.6948553216
145.970902341
145.821038044
145.649086039
145.451159838
145.226606994
144.984495508
144.732366935
144.474863587
144.214541117
143.952383745
143.688296285
143.421563092
143.151174684
142.876023699
142.595009579
142.307086175
142.011276448
141.706670025
141.392413228
141.067696825
140.731744126
140.383800622
140.023125499
139.648985058
139.260647101
138.857378308
138.438439886
138.003086429
137.550564394
137.080111316
136.590955262
136.082314522
135.553397797
135.003404234
134.431523778
133.836937703
133.218819094
132.576333519
131.908639672
131.214890149
130.494232158
129.745808294
128.968757498
128.162216123
127.325319067
126.457200943
125.556997268
124.623845756
123.656887865
122.655270493
121.618147592
120.544681927
119.434047086
118.285429522
117.098030892
115.871070627
114.603789273
113.295450688
111.945349702
110.552817405
109.117220007
107.637975556
106.114562985
104.546536393
102.933545764
101.275363723
99.5719229051
97.8233726549
96.0301584377
94.1931303614
92.3137160531
90.3942189446
88.4377538146
86.4489412718
84.4342966023
82.4027212419
80.3660006542
78.3391515495
76.34007558
74.3878647268
145.9901847
145.8407778
145.664395115
145.460684499
145.231177001
144.985491007
144.731150491
144.472528967
144.211836795
143.949755306
143.685968924
143.419620097
143.149617577
142.874812964
142.594089722
142.306399804
142.010771279
141.7063017
141.392145826
141.067502239
140.731600971
140.383693018
140.023041983
139.648917804
139.260589861
138.857327786
138.438393994
138.003044215
137.550525805
137.080076989
136.590926465
136.082293117
135.553386284
135.003405832
134.431542544
133.836978664
133.218888451
132.576438924
131.908790557
131.215097971
130.494510839
129.746174765
128.969232339
128.162824339
127.326090996
126.458173406
125.55821489
124.625362602
123.65876957
122.65759678
121.621015192
120.548208252
119.438374623
118.29073109
117.104516102
115.87899371
114.613458051
113.307239118
111.959709902
110.570293538
109.138476589
107.66381266
106.145945673
104.584627611
102.979743765
101.331349485
99.6397295116
97.9054699289
96.1294602102
94.3130751743
92.458293226
90.5677963896
88.6455607562
86.6968460224
84.7286435602
82.7501061116
80.7729063048
78.8114476595
76.8824460332
75.0033404471
146.032467075
145.882525857
145.695825524
145.479766102
145.240101683
144.98731724
144.72871202
144.468001441
144.206658759
143.944758204
143.681559494
143.41593972
143.146658809
142.872495891
142.592307775
142.30504486
142.009745848
141.705523584
141.391548698
141.067034285
140.731222751
140.38337512
140.022762834
139.648661281
139.260347089
138.857090624
138.438157635
138.002805831
137.550284066
137.079831593
136.590678002
136.082043002
135.553136614
135.003159453
134.431303189
133.836751035
133.218678496
132.576253967
131.908639559
131.214991903
130.494463062
129.746201544
128.969353483
128.163063907
127.326478189
126.458743618
125.559010976
124.626436601
123.660184719
122.659429832
121.623359244
120.551176259
119.442103398
118.295386603
117.110299427
115.886148387
114.622278852
113.318083352
111.97300811
110.586566799
109.158350232
107.688045437
106.175452233
104.620510478
103.023334061
101.384237682
99.7037763173
97.9828074141
96.2226510022
94.4251225475
92.5926774232
90.7285773631
88.8371310002
86.9239403101
84.9962238881
83.0631532177
81.1361684101
79.2292147151
77.358423281
75.5407069463
146.106553017
145.951044186
145.744820992
145.508323563
145.252906545
144.989678111
144.725108877
144.461638204
144.199537905
143.937981074
143.675634505
143.411022404
143.142715595
142.86940604
142.589921991
142.303216207
142.008344043
141.704439904
141.390696019
141.066344868
140.730645151
140.382871047
140.02230437
139.648228454
139.259925246
138.856670272
138.437732398
138.002371652
137.549838655
137.079373986
136.590208271
136.081562093
135.552646217
135.002662049
134.430802123
133.836250641
133.218184179
132.57577246
131.908179169
131.21456285
130.494077857
129.745875449
128.969105045
128.162915633
127.32645737
126.458883276
125.559351193
124.627026174
123.66108298
122.660708623
121.625105661
120.553495857
119.445124159
118.299263669
117.115220655
115.892341159
114.63001848
113.327702362
111.984909323
110.6012341
109.176367652
107.710114194
106.20241269
104.653363095
103.06325729
101.432633258
99.7623259142
98.053518789
96.3078234192
94.5273819104
92.7149925532
90.8742553615
89.0097521157
87.1272568923
85.2339989119
83.3389614487
81.4532232566
79.5903528214
77.7663596253
75.998651372
146.229676626
146.053906306
145.812815032
145.54557328
145.26846107
144.991887725
144.720253542
144.453799512
144.191075533
143.930102764
143.668847362
143.405443181
143.138265504
142.865924125
142.587226661
142.301135818
142.006729869
141.703169652
141.389672696
141.065493564
140.729909233
140.382208537
140.021684729
139.647629581
139.259331481
138.856071004
138.437120436
138.001742363
137.549189252
137.078703094
136.589515588
136.080848174
135.551912426
135.001910546
134.430035881
133.835473507
133.217400948
132.574989079
131.907402968
131.213802895
130.493345325
129.745184089
128.968471662
128.162360655
127.326005571
126.458564687
125.55920236
124.627091522
123.661416294
122.661375028
121.626184128
120.555082114
119.447334162
118.302237812
117.119128731
115.89738852
114.636453486
113.335824571
111.99507999
110.613889088
109.192029603
107.729408483
106.226087033
104.682311518
103.098548631
101.475526829
99.8142890719
98.1162566739
96.3833045544
94.6178461108
92.822936667
91.0023936734
89.160941099
87.3043696684
85.4397404524
83.5756468341
81.7226027249
79.893688119
78.1049332146
76.3750105293
146.433076525
146.201449914
145.900167543
145.58929449
145.284546412
144.99260171
144.713693063
144.444624373
144.181713929
143.921673154
143.661742952
143.399687009
143.133713703
142.862374722
142.584474008
142.298995126
142.00504583
141.701817142
141.388553871
141.064533677
140.729052294
140.381413168
140.020920963
139.646876592
139.258573655
138.855297807
138.436324746
138.000919525
137.5483364
137.077818684
136.588599034
136.079899692
135.550932975
135.000901811
134.429000327
133.834414498
133.216322885
132.573897493
131.906304602
131.212705821
130.492259236
129.744120674
128.967445168
128.161388512
127.325109055
126.457769849
125.558541069
124.626602439
123.661146216
122.661380797
121.626534887
120.555861651
119.44864415
118.304201227
117.121894494
115.90113655
114.641400086
113.342230145
112.003257962
110.624216159
109.204958011
107.745479897
106.245947867
104.706729468
103.12843101
101.511941792
99.8584851376
98.1696774598
96.4475977745
94.6948641378
92.9147185848
91.1111191755
89.2888403853
87.4535794853
85.6120878953
83.7723598444
81.9440167959
80.1392129381
78.3734637439
76.6666238459
146.767131814
146.403960142
146.004217603
145.635349199
145.297838045
144.98982504
144.70453692
144.43389695
144.171580144
143.912961431
143.654624351
143.394038664
143.129305615
142.858958885
142.581823294
142.296917211
142.0033852
141.700451917
141.38739069
141.06350255
140.728101942
140.380505436
140.020029145
139.645980543
139.257659604
138.854356314
138.435349431
137.999906308
137.54728274
137.076723095
136.587460786
136.078718665
135.549709574
134.999636851
134.427695065
133.833070841
133.214943686
132.572486593
131.904867058
131.211248362
130.490790592
129.74265115
128.965987192
128.159957093
127.323722347
126.456449892
125.557314499
124.625501432
123.660210039
122.660656685
121.626080531
120.555746531
119.44895224
118.305033798
117.12337386
115.903410328
114.644647848
113.346668917
112.009148478
110.631871511
109.214753003
107.757861862
106.261449126
104.725980773
103.15217573
101.541050441
99.8939696879
98.2127034976
96.4994897717
94.7571010414
92.9889134132
91.1989739
89.3920589345
87.573720434
85.7503228661
83.9290835361
82.1183053736
80.3283698218
78.5724926365
76.8693271257
147.316905098
146.662964493
146.11078559
145.673303287
145.301794908
144.979789368
144.690769411
144.420602843
144.160197453
143.903766517
143.647426744
143.388497775
143.125068599
142.855713068
142.579310829
142.294934001
142.001774046
141.699094368
141.386199051
141.062412676
140.727067265
140.379492689
140.019010214
139.644939829
139.256586192
138.853242555
138.434190219
137.998698394
137.546024333
137.075413389
136.586099666
136.07730663
135.548247697
134.99812678
134.426138963
133.83147105
133.213301656
132.570805033
131.903149633
131.209499294
130.489014674
129.74085533
128.964180305
128.158150052
127.321928669
126.454686187
125.555600961
124.623862791
123.658675822
122.659263883
121.624873151
120.554778741
119.448289324
118.304754943
117.1235748
115.904206166
114.646175929
113.349094919
112.012671385
110.636729942
109.221232472
107.76630328
106.272258316
104.73963879
103.169249887
101.562205184
99.919976277
98.2444471828
96.5379713884
94.8034349892
93.0443117322
91.2647121107
89.4694091692
87.6638323002
85.853999098
84.0462976783
82.2473891727
80.4648333513
78.7057449703
76.9788209853
148.312142783
146.954326512
146.163578866
145.66373501
145.27289377
144.949137211
144.66472492
144.400218409
144.144816121
143.892371833
143.639059879
143.382367862
143.120559451
142.852358451
142.576764318
142.292941736
142.000152278
141.697711321
141.384961619
141.061254545
140.725930737
140.37834085
140.017833137
139.643724497
139.255323332
138.85192624
138.432816187
137.997261387
137.544520627
137.073840876
136.584456848
136.075592364
135.546461079
134.996267186
134.424206172
133.829465771
133.211227441
132.568664459
131.900945405
131.207234969
130.486694902
129.738485309
128.961766223
128.155699499
127.319450987
126.452192698
125.553105459
124.621382225
123.656231263
122.656880461
121.62258157
120.552615649
119.446299161
118.302991494
117.122102944
115.903104626
114.645540959
113.349040952
112.013335742
110.638277181
109.223859467
107.770244567
106.277791922
104.747092579
103.179008335
101.574716215
99.9357578316
98.2640912907
96.5621432273
94.8328884785
93.0798750979
91.3072718577
89.5198837688
87.7231286014
85.9229037901
84.1250761032
82.3351752241
80.5579641974
78.7882466074
76.9965205712
150.105251326
147.177153102
146.063624236
145.536552269
145.169451236
144.874876709
144.61341811
144.365051332
144.120694842
143.875781852
143.627617527
143.374449108
143.115046337
142.848475413
142.573971383
142.290862794
141.998525668
141.696355305
141.383749091
141.06009965
140.724801706
140.377215643
140.016672685
139.642507872
139.254039203
138.850567628
138.431379412
137.995749341
137.542935154
137.072182182
136.582725178
136.073788138
135.544584794
134.994319387
134.42218738
133.827376216
133.209066241
132.566431804
131.898642083
131.204862096
130.484253989
129.735978435
128.959196137
128.153069824
127.316766227
126.449458475
125.550328822
124.618571672
123.653397375
122.654036005
121.619742044
120.549800003
119.443530436
118.30029739
117.119516873
115.900666657
114.643298492
113.347051451
112.011668477
110.637015099
109.223101675
107.770109281
106.278419875
104.748650895
103.181694951
101.578764289
99.9414403985
98.2717305315
96.5721324551
94.8456517004
93.0958935734
91.3270955642
89.5441471259
87.752567234
85.9584020773
84.1681484375
82.3882269624
80.6234205503
78.8532698935
76.9533259221
56.9064576637
53.3543223725
50.9628885605
49.0054749011
47.3334367656
45.8766001966
44.5909784702
43.4468641823
42.4225854112
41.501396688
40.669892214
39.9170676438
39.2337229338
38.6120605295
38.04540202
37.5279797843
37.0547781794
36.6214098767
36.2240187031
35.8592005711
35.5239383099
35.2155489211
34.9316395731
34.6700698718
34.4289187662
34.206458703
34.001132692
33.8115326278
33.6363822876
33.4745245169
33.3249076281
33.1865723203
33.0586434504
32.9403216347
32.8308727067
32.7296219308
32.6359516456
32.5492921985
32.4691133707
32.3949262451
32.3262821892
32.2627613663
32.2039695175
32.149540412
32.0991250549
32.0523935887
32.0091017342
31.9692445823
31.9324726112
31.8984807169
31.8670303228
31.8378839749
31.8108498139
31.785771
31.7625031124
31.7409147884
31.7208836024
31.7022664039
31.6849438442
31.6688294463
31.6538195965
31.6398117314
31.6267224213
31.6144692981
31.6029768608
31.5921832301
31.5820257139
31.5724446964
31.5633914253
31.5548201993
31.5466819425
31.5389335133
31.5315430519
31.5244743375
31.5176953424
31.5111768497
31.5048917562
31.4988164291
31.4929321609
31.4872190367
31.4816580468
31.4762412356
31.4709552209
31.4657787206
31.4607064537
31.4557124515
31.4507997705
31.4459530746
31.4411641183
31.4364483126
31.4317824376
31.427147735
31.4225400964
31.4179548449
31.4133838138
31.4088233331
31.4042717679
31.3997227423
31.3951708952
31.3906145241
31.3860508175
31.3814760384
31.3768867521
31.3722788966
31.3676485261
31.3629930465
31.3583095905
31.3535936481
31.3488416027
31.3440519252
31.3392229064
31.3343524203
31.329439189
31.3244829254
31.3194821866
31.3144353177
31.3093411017
31.3041981952
31.2990049834
31.29376089
31.2884662709
31.2831214167
31.2777254438
31.2722717658
31.2667367874
31.2610695173
31.255501215
31.2504166098
31.2452866334
31.2401010103
31.2349681747
31.2299684428
31.2251562889
31.2205876611
31.2163225758
31.2124206713
31.2089338203
31.2059025107
31.2033299972
31.2012008388
31.1996513662
31.1983680186
31.1972569215
31.1957055441
31.1920549034
31.1820875706
31.1557159196
31.0912660572
30.947459511
30.6537417971
30.1048873882
29.1681132782
27.7108444411
25.6404216413
22.9308762456
19.6383245767
15.8812775869
11.6278702232
6.60287755929
1.57029445239
60.0878193858
56.0349969605
53.3230141851
51.1706571374
49.3687070218
47.8187527224
46.4625780474
45.2629482142
44.1936896846
43.2351703522
42.372051136
41.5919896883
40.8848331955
40.2420927856
39.6565791914
39.122141965
38.6334737769
38.1859624946
37.7755765783
37.3987727862
37.0524217735
36.733749253
36.4402870818
36.1698309993
35.9204056166
35.6902365624
35.4777257684
35.2814280215
35.1000341179
34.932357833
34.7773202639
34.6339368087
34.50130967
34.3786186745
34.2651088294
34.1600872913
34.0629207649
33.9730239227
33.8898515462
33.8129038389
33.7417241361
33.6758846791
33.6149901984
33.5586806982
33.5066248744
33.4585151595
33.4140499641
33.3728331214
33.3346952146
33.299382717
33.2666984254
33.236443487
33.2084348821
33.1824981153
33.1584651927
33.1361736451
33.1154896795
33.096283091
33.0784171868
33.0618094858
33.0463303736
33.0318790127
33.0183881436
33.0057676164
32.9939438007
32.9828516884
32.9724252977
32.9626036123
32.9533340787
32.9445700434
32.9362592716
32.9283571737
32.9208299053
32.9136395509
32.9067520136
32.9001388234
32.893769405
32.8876211006
32.8816747055
32.8759093356
32.8703026484
32.8648357045
32.8594869493
32.8542504612
32.8491136078
32.8440576848
32.8390809587
32.8341727308
32.8293140134
32.8244998172
32.8197256026
32.814982714
32.8102702432
32.805581768
32.8009091275
32.7962502664
32.7916023872
32.7869588737
32.7823154107
32.7776700536
32.7730187301
32.768358215
32.7636856331
32.7589967285
32.7542874095
32.7495550994
32.7447966192
32.7400071317
32.7351834121
32.7303237595
32.7254259499
32.720487584
32.7155076805
32.7104857963
32.7054204312
32.7003099298
32.6951534923
32.6899500882
32.6846988362
32.6794002772
32.6740567122
32.668670962
32.6632476191
32.657794389
32.6523255848
32.6468628586
32.6414443078
32.6360121467
32.6305033676
32.6253174475
32.620213498
32.6152709607
32.6105731413
32.6061815948
32.6021662133
32.5986012805
32.5955569646
32.5930894303
32.5911974946
32.5899811664
32.589363787
32.5892314084
32.589286908
32.5887136668
32.5853283135
32.5739314103
32.5424481613
32.4659442891
32.298174305
31.9622566871
31.3468506522
30.3161806706
28.7407779904
26.5378060187
23.6931795493
20.267512442
16.3773126857
12.0059816557
6.89206594942
1.70386797297
62.2952551372
58.3618084181
55.4946561688
53.2107230401
51.3087506463
49.6822599609
48.2662167672
47.018606125
45.9100059496
44.9185562344
44.027361097
43.222969559
42.4944268028
41.8326560918
41.2300318221
40.6800755966
40.1772309196
39.7166943209
39.2942852036
38.9063424388
38.5496426828
38.2213355538
37.9188894503
37.6400467413
37.3827872262
37.1452972761
36.9259433672
36.7232495146
36.5358793702
36.3626209343
36.2023715729
36.0541257005
35.9169652052
35.7900498073
35.6726073193
35.5639296506
35.4633665067
35.3703160617
35.2842210327
35.2045689527
35.1308870354
35.0627340866
34.9997020974
34.9414123816
34.8875137159
34.8376802495
34.7916207283
34.749042576
34.709523314
34.6729197028
34.6390814826
34.6077799759
34.5788120813
34.551990479
34.5271438447
34.5041172036
34.4827658268
34.4629513184
34.4445432785
34.4274368554
34.4115114923
34.3966602051
34.382801458
34.3698461989
34.3577186584
34.3463500528
34.3356699774
34.3256160092
34.316136369
34.3071789685
34.2986862177
34.2906239055
34.2829441824
34.2756194359
34.2686057226
34.2618773826
34.2553998644
34.2491558195
34.2431152307
34.2372497145
34.2315495224
34.2260024152
34.220591182
34.2152998799
34.2101136147
34.2050157932
34.2000015732
34.1950578221
34.1901737799
34.1853408943
34.1805523199
34.1757991388
34.1710762292
34.1663750458
34.1616894485
34.1570168046
34.1523529268
34.1476927075
34.143032173
34.1383673688
34.1336934047
34.1290081276
34.1243092776
34.1195924461
34.1148532407
34.1100884023
34.1052947765
34.1004684771
34.0956063414
34.0907059918
34.085765156
34.0807819565
34.0757553097
34.0706846549
34.0655687457
34.0604061736
34.0551960709
34.0499380235
34.0446322526
34.0392800444
34.033883947
34.0284477285
34.0229781569
34.0174851042
34.0119853289
34.0064940659
34.0010147953
33.9955891957
33.990308677
33.9850095745
33.9798560547
33.9748988988
33.9702701232
33.9660201728
33.9622192112
33.9589560516
33.9563142534
33.954372586
33.9531251543
33.9526099688
33.9528617105
33.9536878948
33.9546896085
33.9547922349
33.951236509
33.9377803364
33.9003358956
33.8107020988
33.6178713155
33.239121892
32.5578380804
31.4362060521
29.7483143556
27.4204337603
24.4485977791
20.8961044978
16.876146359
12.3866320787
7.18086524809
1.83523056121
64.0994342902
60.3747146665
57.4707237781
55.1155385414
53.1454364518
51.4610764304
49.9972940767
48.7102089774
47.5685731573
46.5490620431
45.6336630992
44.8080887188
44.0607602647
43.3821353583
42.7642391427
42.2003298466