/*--------------------------------*- C++ -*----------------------------------*\
| =========                 |                                                 |
| \\      /  F ield         | OpenFOAM: The Open Source CFD Toolbox           |
|  \\    /   O peration     | Version:  2106                                  |
|   \\  /    A nd           | Website:  www.openfoam.com                      |
|    \\/     M anipulation  |                                                 |
\*---------------------------------------------------------------------------*/
FoamFile
{
    version     2.0;
    format      ascii;
    arch        "LSB;label=32;scalar=64";
    class       volVectorField;
    location    "0.46";
    object      U;
}
// * * * * * * * * * * * * * * * * * * * * * * * * * * * * * * * * * * * * * //

dimensions      [0 1 -1 0 0 0 0];

internalField   nonuniform List<vector> 
11200
(
(0.662462403568 0.150569443514 0)
(0.558948671202 0.103243388607 0)
(0.383850733483 0.0513512239883 0)
(0.283747592908 0.0248708547251 0)
(0.232075272807 0.0124170445377 0)
(0.201908597858 0.00662281622076 0)
(0.183197954883 0.00380291415432 0)
(0.171276522504 0.00231587022032 0)
(0.163510351968 0.00146450712036 0)
(0.158388825773 0.000944893302756 0)
(0.155006695721 0.000615177921081 0)
(0.152786747161 0.000402234814345 0)
(0.151346601525 0.000264233071164 0)
(0.150428367681 0.000175250755741 0)
(0.149856766027 0.0001183610584 0)
(0.149512567373 8.21602612836e-05 0)
(0.149315009867 5.8866138558e-05 0)
(0.149209651225 4.33158447186e-05 0)
(0.14915979461 3.29342673487e-05 0)
(0.149142557402 2.81867511052e-05 0)
(0.149144714737 2.76848865585e-05 0)
(0.149156989664 2.98904299424e-05 0)
(0.149172609387 3.30507355485e-05 0)
(0.149188154146 3.59663779971e-05 0)
(0.149202359434 3.86019144063e-05 0)
(0.149214625248 4.10409164825e-05 0)
(0.149224784202 4.33181349458e-05 0)
(0.14923294349 4.54648512809e-05 0)
(0.149239339347 4.7520132302e-05 0)
(0.1492442526 4.95307942405e-05 0)
(0.149247968363 5.15590552806e-05 0)
(0.149250755272 5.36961882499e-05 0)
(0.149252810682 5.60241534489e-05 0)
(0.149254305523 5.84048098755e-05 0)
(0.14925537124 6.07651132818e-05 0)
(0.149256093931 6.30855977032e-05 0)
(0.149256571592 6.53772741243e-05 0)
(0.149256889017 6.76526803533e-05 0)
(0.149257099111 6.99224558291e-05 0)
(0.149257229498 7.2193467676e-05 0)
(0.149257301497 7.44665810402e-05 0)
(0.149257331597 7.67426961664e-05 0)
(0.149257331574 7.90214913141e-05 0)
(0.149257310184 8.13020866475e-05 0)
(0.14925727333 8.35825079746e-05 0)
(0.149257224965 8.58603019901e-05 0)
(0.149257169295 8.81325631188e-05 0)
(0.149257111627 9.03960565374e-05 0)
(0.149257058019 9.26479486548e-05 0)
(0.149257015136 9.4885399887e-05 0)
(0.149256990756 9.71054168248e-05 0)
(0.149256995454 9.93052445583e-05 0)
(0.149257042618 0.000101481837723 0)
(0.14925714919 0.000103631557175 0)
(0.149257339239 0.000105749760365 0)
(0.149257647813 0.000107830752451 0)
(0.149258125931 0.000109867588439 0)
(0.149258850384 0.000111850454331 0)
(0.14925993041 0.000113766556537 0)
(0.149261522866 0.000115590118378 0)
(0.149263876969 0.000117265360667 0)
(0.149267404411 0.000118711138568 0)
(0.149272571492 0.000119968050606 0)
(0.149280025465 0.000121230485194 0)
(0.149290801279 0.000122964042516 0)
(0.149306422022 0.0001253392424 0)
(0.149329277224 0.000128119727943 0)
(0.149363062204 0.000131078812767 0)
(0.149413370626 0.000134001924202 0)
(0.149488432034 0.000136777533038 0)
(0.149600180935 0.000140686991969 0)
(0.149771464842 0.00015156039249 0)
(0.150040045052 0.000172278867986 0)
(0.15046906332 0.000202515704062 0)
(0.151194312198 0.000232426006476 0)
(0.152493405382 0.000191618433211 0)
(0.155022426061 -0.000216771920869 0)
(0.162375513485 -0.0021098800864 0)
(0.18770242463 -0.0107874564091 0)
(0.204354598818 -0.0496543715925 0)
(0.965408253675 0.289214706635 0)
(0.961962856946 0.252656038307 0)
(0.823574387714 0.159021439228 0)
(0.698139365642 0.0959957288314 0)
(0.610225464838 0.0582481122866 0)
(0.54897150006 0.0362148521733 0)
(0.506588906364 0.0231612852408 0)
(0.47756729614 0.0151375165352 0)
(0.457745527955 0.0100177572534 0)
(0.44422850438 0.00665814383954 0)
(0.435053347684 0.00441555907557 0)
(0.428873170563 0.00290686839166 0)
(0.42475425573 0.00189106041737 0)
(0.42204670623 0.00121004668134 0)
(0.420297869535 0.000757164212754 0)
(0.419193261518 0.000459256322029 0)
(0.418515658318 0.000265855068022 0)
(0.418116513963 0.000142400036812 0)
(0.417895914334 6.61102821466e-05 0)
(0.417786867848 2.30939449783e-05 0)
(0.417745456519 1.40912157643e-06 0)
(0.417742181988 -1.01616007434e-05 0)
(0.417756782897 -1.3713274543e-05 0)
(0.417778744679 -1.32669433283e-05 0)
(0.41780304192 -1.08351216841e-05 0)
(0.417826415451 -7.49273359228e-06 0)
(0.417847172364 -3.87697675806e-06 0)
(0.417864714003 -3.575824978e-07 0)
(0.417879043415 2.86340967553e-06 0)
(0.417890474978 5.68186309131e-06 0)
(0.417899480885 8.03406995688e-06 0)
(0.417906555025 9.83480140738e-06 0)
(0.417911899811 1.1002425415e-05 0)
(0.417915750732 1.1854763757e-05 0)
(0.417918484132 1.26759291403e-05 0)
(0.41792037533 1.34310395248e-05 0)
(0.417921667475 1.41045546627e-05 0)
(0.417922551843 1.47206059048e-05 0)
(0.417923155023 1.53065071738e-05 0)
(0.417923547596 1.58768829397e-05 0)
(0.417923782022 1.6431614116e-05 0)
(0.417923901151 1.69756766956e-05 0)
(0.417923935577 1.75127210353e-05 0)
(0.417923907502 1.80461566048e-05 0)
(0.417923832318 1.85788578907e-05 0)
(0.41792372128 1.91124798745e-05 0)
(0.417923584819 1.96490903367e-05 0)
(0.417923434981 2.01906348687e-05 0)
(0.417923285443 2.07397259396e-05 0)
(0.417923151353 2.12987937744e-05 0)
(0.417923051834 2.1867751982e-05 0)
(0.417923012918 2.24466166049e-05 0)
(0.417923068518 2.30355726317e-05 0)
(0.417923263687 2.36340694477e-05 0)
(0.417923662169 2.42413350615e-05 0)
(0.417924355843 2.48570306499e-05 0)
(0.417925476903 2.54777900671e-05 0)
(0.417927221592 2.60912236062e-05 0)
(0.4179298674 2.66805295605e-05 0)
(0.417933803392 2.72144171276e-05 0)
(0.417939639388 2.7641704471e-05 0)
(0.417948477551 2.79201342071e-05 0)
(0.417961801028 2.82072412457e-05 0)
(0.41798175188 2.77379310631e-05 0)
(0.41801108786 2.5101904621e-05 0)
(0.418053421386 1.92536244042e-05 0)
(0.418114956343 9.38202945698e-06 0)
(0.418205810642 -6.04890857837e-06 0)
(0.418341588284 -2.95633838519e-05 0)
(0.418547183739 -6.48410022731e-05 0)
(0.418864489786 -0.00011606981956 0)
(0.419363089811 -0.000188214412248 0)
(0.420156435085 -0.000308000737595 0)
(0.421448160547 -0.000532972920994 0)
(0.423629846664 -0.000999926412545 0)
(0.427420055914 -0.00209049786658 0)
(0.434240680624 -0.00485608138044 0)
(0.448266146932 -0.0122528188492 0)
(0.474642493824 -0.0342382446161 0)
(0.478158872049 -0.098759547968 0)
(1.02222096457 0.238416183607 0)
(1.08213752733 0.295926647172 0)
(1.0344772234 0.239503060627 0)
(0.954615408195 0.174290159563 0)
(0.879992059964 0.12134546516 0)
(0.818614448409 0.0830993827362 0)
(0.771410874017 0.0567316675471 0)
(0.736634425726 0.0387409705087 0)
(0.711624479029 0.0264327900363 0)
(0.693916677353 0.0179731082518 0)
(0.681541475829 0.0121424515157 0)
(0.673000189403 0.00812491129118 0)
(0.667180728462 0.00536632340185 0)
(0.663271761533 0.00348444644832 0)
(0.660688593119 0.00221256276123 0)
(0.659014271952 0.00136338280023 0)
(0.657954594933 0.000805244801393 0)
(0.657304306536 0.000445918017179 0)
(0.656921892669 0.000221071026126 0)
(0.656710331428 8.55839171425e-05 0)
(0.656603470605 8.36036395705e-06 0)
(0.65656192413 -3.37171671574e-05 0)
(0.656558025361 -5.68516387189e-05 0)
(0.656571502085 -6.68709924756e-05 0)
(0.656593032061 -6.84790967449e-05 0)
(0.656616852151 -6.55586926576e-05 0)
(0.656639655736 -6.05486301542e-05 0)
(0.656659835543 -5.48594396861e-05 0)
(0.656676805348 -4.92761201498e-05 0)
(0.656690542515 -4.42058614561e-05 0)
(0.656701293011 -3.98427986098e-05 0)
(0.656709442293 -3.63055984761e-05 0)
(0.656715688236 -3.36993003471e-05 0)
(0.656720720187 -3.1860849946e-05 0)
(0.656724579045 -3.08181932504e-05 0)
(0.656727282851 -3.03132069538e-05 0)
(0.656729145269 -3.02593673132e-05 0)
(0.656730443891 -3.0568788937e-05 0)
(0.656731346479 -3.10948189351e-05 0)
(0.656731942311 -3.17548580441e-05 0)
(0.656732305349 -3.25197286335e-05 0)
(0.656732500659 -3.33542674404e-05 0)
(0.656732573055 -3.42338383817e-05 0)
(0.656732556218 -3.51398357149e-05 0)
(0.656732473678 -3.60566359445e-05 0)
(0.656732343115 -3.69744305463e-05 0)
(0.656732181169 -3.7885006532e-05 0)
(0.656732005479 -3.87819258817e-05 0)
(0.656731835277 -3.96604084821e-05 0)
(0.656731690016 -4.05148557613e-05 0)
(0.656731595109 -4.13424063713e-05 0)
(0.656731587949 -4.2139374251e-05 0)
(0.656731718022 -4.29042350044e-05 0)
(0.65673205249 -4.36406179864e-05 0)
(0.656732687381 -4.43624509762e-05 0)
(0.656733757881 -4.50994197358e-05 0)
(0.656735452442 -4.59100130647e-05 0)
(0.656738053061 -4.68898295782e-05 0)
(0.65674197005 -4.81641466692e-05 0)
(0.656747799101 -4.99531689183e-05 0)
(0.656756484758 -5.27760763567e-05 0)
(0.656769679456 -5.76068107326e-05 0)
(0.656788674868 -6.52795996e-05 0)
(0.656814919329 -7.66394406116e-05 0)
(0.656852295117 -9.33911885762e-05 0)
(0.656907513375 -0.000117920266253 0)
(0.656989938682 -0.000153435857583 0)
(0.657113369208 -0.000205226000343 0)
(0.657299626649 -0.000281809872742 0)
(0.657584106383 -0.000397062697785 0)
(0.658024936326 -0.000575331683168 0)
(0.658711302896 -0.000863876419309 0)
(0.659790246478 -0.00135275013401 0)
(0.66151927213 -0.00221503640569 0)
(0.664340460277 -0.00381320789685 0)
(0.668949414028 -0.00694591761445 0)
(0.676371746705 -0.0133515038728 0)
(0.688614831683 -0.0268403959464 0)
(0.705236944516 -0.0563119295091 0)
(0.700484879946 -0.113066492129 0)
(1.02251475361 0.170807146791 0)
(1.10138975451 0.276496470637 0)
(1.11752425746 0.266664791426 0)
(1.09214660342 0.219901692731 0)
(1.05187815854 0.168168843664 0)
(1.01020823408 0.123567395145 0)
(0.973494709189 0.0888375222123 0)
(0.943864583592 0.0630063740463 0)
(0.921142835781 0.0442232079152 0)
(0.90428411608 0.0307423972802 0)
(0.892074917401 0.0211562987653 0)
(0.883404562586 0.014395472743 0)
(0.877352724599 0.00966795170304 0)
(0.873197763208 0.00639384006609 0)
(0.870392988141 0.00415116722926 0)
(0.868534101822 0.00263449305149 0)
(0.867327708319 0.00162401949118 0)
(0.866564309431 0.00096267827995 0)
(0.866096556415 0.000539125112641 0)
(0.865822317992 0.000275156603457 0)
(0.865671477525 0.000117071577417 0)
(0.865595229774 2.87957942835e-05 0)
(0.865564174036 -1.93211113768e-05 0)
(0.8655613676 -4.12575397077e-05 0)
(0.865572712698 -4.7662287173e-05 0)
(0.86558972053 -4.55225725121e-05 0)
(0.865608032643 -3.91539607133e-05 0)
(0.865625374458 -3.11443215727e-05 0)
(0.865640661101 -2.29645949626e-05 0)
(0.865653525309 -1.53824079342e-05 0)
(0.865663999055 -8.72636204659e-06 0)
(0.86567228676 -3.04806446503e-06 0)
(0.865678640025 1.72855079877e-06 0)
(0.86568326471 5.45645560515e-06 0)
(0.865686582532 8.01962740123e-06 0)
(0.865688982142 9.77541663549e-06 0)
(0.865690617318 1.11304095575e-05 0)
(0.865691783417 1.22772727522e-05 0)
(0.865692654264 1.32485656035e-05 0)
(0.865693249654 1.41363505975e-05 0)
(0.865693617714 1.49327403785e-05 0)
(0.86569382284 1.56605300592e-05 0)
(0.865693903064 1.63354678495e-05 0)
(0.865693889593 1.69728794478e-05 0)
(0.865693803613 1.75873286543e-05 0)
(0.865693660655 1.81888598748e-05 0)
(0.865693477185 1.87855365357e-05 0)
(0.865693270987 1.9384049519e-05 0)
(0.865693064252 1.99912612232e-05 0)
(0.865692881228 2.06173897503e-05 0)
(0.865692753383 2.12476541009e-05 0)
(0.865692724127 2.18701665243e-05 0)
(0.865692847177 2.24672803093e-05 0)
(0.865693191323 2.30126429485e-05 0)
(0.86569385063 2.34715532198e-05 0)
(0.865694954339 2.3813505383e-05 0)
(0.865696686615 2.39838397845e-05 0)
(0.865699344255 2.38685034314e-05 0)
(0.865703333476 2.33229559018e-05 0)
(0.865709064479 2.19323528887e-05 0)
(0.865717038058 1.91416471485e-05 0)
(0.865728860039 1.42110494085e-05 0)
(0.865747109257 5.32426956189e-06 0)
(0.86577477506 -9.08456919551e-06 0)
(0.865815716646 -3.10155213294e-05 0)
(0.865875863445 -6.44462222555e-05 0)
(0.865964561475 -0.000116248316734 0)
(0.866096330596 -0.000197179765702 0)
(0.866293723105 -0.000324496767508 0)
(0.866591556535 -0.000526668811251 0)
(0.867043430854 -0.000852629868539 0)
(0.867734398544 -0.00138929292401 0)
(0.868800780854 -0.00228538378496 0)
(0.870455772891 -0.00381541862972 0)
(0.873018146882 -0.00650350984423 0)
(0.876886604035 -0.0113588196949 0)
(0.882383336934 -0.0202499736455 0)
(0.88969109345 -0.0364468380717 0)
(0.896364315147 -0.0654798837725 0)
(0.886532563963 -0.110019646301 0)
(1.01287874979 0.118961016387 0)
(1.08820670438 0.231806927765 0)
(1.1374136663 0.253106756147 0)
(1.15409086335 0.228992747402 0)
(1.14994210873 0.188368355664 0)
(1.13538466093 0.146579843768 0)
(1.11758896245 0.110150968047 0)
(1.1005950254 0.0808162265128 0)
(1.0861246031 0.0582265822461 0)
(1.07459096348 0.0413189915432 0)
(1.0657915108 0.028916026675 0)
(1.0592880362 0.0199601057897 0)
(1.05459981288 0.0135815650405 0)
(1.05129081605 0.00909744727135 0)
(1.04899989979 0.00598615743156 0)
(1.04744345904 0.00385696966984 0)
(1.04640658918 0.00242160133513 0)
(1.04573067838 0.00147015397 0)
(1.04530112755 0.000851706228433 0)
(1.04503663437 0.000459021171068 0)
(1.04488027519 0.00021676219342 0)
(1.04479266176 7.30234181656e-05 0)
(1.0447487989 -5.49832670656e-06 0)
(1.04473190109 -4.4002891813e-05 0)
(1.04472965161 -5.93807910771e-05 0)
(1.04473513727 -6.17153669746e-05 0)
(1.0447440874 -5.72431243264e-05 0)
(1.04475397378 -4.98034980412e-05 0)
(1.04476341618 -4.16469374398e-05 0)
(1.04477174379 -3.3993843276e-05 0)
(1.04477870656 -2.74313050386e-05 0)
(1.04478429112 -2.21617063947e-05 0)
(1.04478864471 -1.81426870587e-05 0)
(1.04479197945 -1.51573719582e-05 0)
(1.04479455062 -1.28258014608e-05 0)
(1.04479665323 -1.10282416131e-05 0)
(1.04479839664 -9.53697331138e-06 0)
(1.04479972435 -8.24612573241e-06 0)
(1.04480070735 -7.22631924095e-06 0)
(1.04480139678 -6.55639515518e-06 0)
(1.04480181565 -6.17519850045e-06 0)
(1.04480205005 -5.9648668242e-06 0)
(1.04480214422 -5.87407086756e-06 0)
(1.044802136 -5.85464437996e-06 0)
(1.0448020497 -5.86829735136e-06 0)
(1.04480190278 -5.89371741882e-06 0)
(1.04480171381 -5.92029049855e-06 0)
(1.04480150426 -5.94321146569e-06 0)
(1.04480130205 -5.96550498687e-06 0)
(1.04480111571 -6.00182371827e-06 0)
(1.04480096224 -6.03422704659e-06 0)
(1.04480088804 -6.05980349687e-06 0)
(1.04480094722 -6.08566052168e-06 0)
(1.04480121614 -6.12771802448e-06 0)
(1.0448018207 -6.2267478029e-06 0)
(1.04480292689 -6.51048477287e-06 0)
(1.04480472257 -7.23352193246e-06 0)
(1.04480751653 -8.66578236728e-06 0)
(1.04481161763 -1.13118865981e-05 0)
(1.04481750417 -1.5155762371e-05 0)
(1.04482617696 -2.0087859925e-05 0)
(1.04483878771 -2.63505518603e-05 0)
(1.04485665511 -3.61958935355e-05 0)
(1.04488207678 -5.26166653295e-05 0)
(1.04491852291 -7.98249893555e-05 0)
(1.04497115066 -0.00012406505244 0)
(1.04504756889 -0.00019510286086 0)
(1.0451591312 -0.00030851588107 0)
(1.04532298766 -0.000489467758871 0)
(1.04556500344 -0.000778974154272 0)
(1.04592385858 -0.00124433654813 0)
(1.04645740237 -0.00199716796709 0)
(1.0472497332 -0.00322795523627 0)
(1.04841376076 -0.00526738325061 0)
(1.05007673126 -0.00869212193798 0)
(1.05229521029 -0.0144956067104 0)
(1.0548250958 -0.0242843488304 0)
(1.05687673263 -0.0403674359405 0)
(1.05574448891 -0.0655829588345 0)
(1.04213173184 -0.0994324220307 0)
(1.00447483334 0.0814039895667 0)
(1.06917236985 0.181288529162 0)
(1.13080568259 0.216950409967 0)
(1.17375000112 0.210789149433 0)
(1.19865265376 0.183690073914 0)
(1.21019988924 0.149751683491 0)
(1.21350257566 0.116779147056 0)
(1.21251726808 0.0882206830646 0)
(1.20973101922 0.0650481575857 0)
(1.20651123933 0.0470209161741 0)
(1.20351918106 0.0334068155058 0)
(1.20101150299 0.0233557386489 0)
(1.19903450427 0.0160720189479 0)
(1.19753883403 0.0108795178383 0)
(1.19644137103 0.00723419146579 0)
(1.19565564477 0.00471352164247 0)
(1.1951049526 0.00299763255788 0)
(1.19472654411 0.0018491649705 0)
(1.19447156781 0.00109496522503 0)
(1.19430326173 0.000610616929447 0)
(1.19419462594 0.000307992776847 0)
(1.19412634399 0.000125775104157 0)
(1.19408529591 2.22297088241e-05 0)
(1.19406203774 -3.24458662089e-05 0)
(1.19404973759 -5.72651277095e-05 0)
(1.19404423914 -6.45917480136e-05 0)
(1.19404274145 -6.23715151371e-05 0)
(1.19404342626 -5.55194750324e-05 0)
(1.19404517792 -4.69457842352e-05 0)
(1.19404733686 -3.82630302181e-05 0)
(1.19404953148 -3.02731083818e-05 0)
(1.1940515689 -2.32798418069e-05 0)
(1.19405338127 -1.73062652257e-05 0)
(1.19405496486 -1.22787920353e-05 0)
(1.19405633554 -8.0906358013e-06 0)
(1.19405751172 -4.68754374588e-06 0)
(1.19405846502 -2.07650356209e-06 0)
(1.19405914174 -1.86501990114e-07 0)
(1.19405950199 1.13159016778e-06 0)
(1.19405962249 1.98945963857e-06 0)
(1.19405968349 2.66968752053e-06 0)
(1.19405972183 3.27256448789e-06 0)
(1.19405970999 3.79964763922e-06 0)
(1.19405966209 4.25950875891e-06 0)
(1.19405957476 4.66282580027e-06 0)
(1.19405944069 5.02685621574e-06 0)
(1.19405926347 5.36418350692e-06 0)
(1.19405905126 5.67819150985e-06 0)
(1.19405881281 5.96117573874e-06 0)
(1.19405859196 6.19623220502e-06 0)
(1.19405843919 6.40739678223e-06 0)
(1.19405838424 6.5869215022e-06 0)
(1.19405847482 6.70721326602e-06 0)
(1.19405876616 6.72750977566e-06 0)
(1.19405928224 6.58491545647e-06 0)
(1.19406000658 6.17984245633e-06 0)
(1.19406104552 5.38351633223e-06 0)
(1.19406254452 3.76981672746e-06 0)
(1.19406521226 9.82923073598e-07 0)
(1.19407007299 -3.30457241632e-06 0)
(1.1940775971 -9.87942459305e-06 0)
(1.1940877439 -2.00990985783e-05 0)
(1.19410131268 -3.59927752519e-05 0)
(1.19412029367 -6.04840533165e-05 0)
(1.19414681331 -9.81578925537e-05 0)
(1.1941837024 -0.000156333736685 0)
(1.19423496028 -0.000246657475111 0)
(1.19430622656 -0.000387609539961 0)
(1.1944053948 -0.000608649055422 0)
(1.19454325368 -0.000957104079028 0)
(1.19473385906 -0.00150947387171 0)
(1.19499399534 -0.00239002036735 0)
(1.19533849103 -0.00380193062996 0)
(1.19576461648 -0.00607805625931 0)
(1.19621205115 -0.00975709879791 0)
(1.19646108043 -0.015682631239 0)
(1.19592493413 -0.0250651603347 0)
(1.19344920934 -0.0393597362585 0)
(1.18669912687 -0.0598084997775 0)
(1.17015695985 -0.085100339055 0)
(0.998962324464 0.054431616678 0)
(1.05310956569 0.133401597545 0)
(1.11628267932 0.170777549502 0)
(1.17301271868 0.175143866215 0)
(1.21791246661 0.159583603873 0)
(1.25049859053 0.134951020999 0)
(1.27288493187 0.108411660804 0)
(1.28776725079 0.0838849782924 0)
(1.29745271754 0.0630565804656 0)
(1.30366079426 0.0462999301492 0)
(1.30759239175 0.0333205233384 0)
(1.31005375261 0.023549531669 0)
(1.31157367876 0.0163599142559 0)
(1.31249498359 0.0111713204706 0)
(1.31303867945 0.00749151108328 0)
(1.31334677519 0.00492448974152 0)
(1.31351019451 0.00316295892935 0)
(1.31358683072 0.00197475576174 0)
(1.31361321358 0.00118820111322 0)
(1.31361207023 0.00067863384382 0)
(1.31359723817 0.000357013286555 0)
(1.31357692187 0.000160759076283 0)
(1.31355593153 4.64740956915e-05 0)
(1.3135366394 -1.58647998491e-05 0)
(1.31351998442 -4.60535555281e-05 0)
(1.31350629874 -5.70645467524e-05 0)
(1.31349539747 -5.7321051541e-05 0)
(1.31348694349 -5.20849263901e-05 0)
(1.31348054908 -4.45258066637e-05 0)
(1.31347582772 -3.64676594174e-05 0)
(1.31347242865 -2.88827140268e-05 0)
(1.31347004957 -2.22252770852e-05 0)
(1.31346843085 -1.66443678659e-05 0)
(1.31346734521 -1.21489448578e-05 0)
(1.31346662764 -8.67338683993e-06 0)
(1.31346617993 -6.11595647489e-06 0)
(1.31346589979 -4.33948989958e-06 0)
(1.31346569831 -3.13696293177e-06 0)
(1.31346557292 -2.27762692238e-06 0)
(1.31346560928 -1.55806655586e-06 0)
(1.31346576857 -9.79129479896e-07 0)
(1.31346587431 -5.63743320717e-07 0)
(1.31346587523 -2.05535006482e-07 0)
(1.3134658004 1.26739622241e-07 0)
(1.31346567157 4.32601424082e-07 0)
(1.31346550214 7.20153300623e-07 0)
(1.31346529642 1.00054659428e-06 0)
(1.31346505802 1.28334324466e-06 0)
(1.31346479829 1.57815458871e-06 0)
(1.31346455264 1.89184884459e-06 0)
(1.31346434574 2.1737154696e-06 0)
(1.31346418492 2.38280530241e-06 0)
(1.31346410146 2.47348803882e-06 0)
(1.31346414834 2.38221841123e-06 0)
(1.313464411 2.02424342801e-06 0)
(1.313465013 1.32098305034e-06 0)
(1.313465896 2.04343305985e-07 0)
(1.31346720115 -1.48022822948e-06 0)
(1.31346935531 -4.00987765202e-06 0)
(1.31347252731 -8.11902243606e-06 0)
(1.31347695448 -1.50776400641e-05 0)
(1.31348287022 -2.64420739781e-05 0)
(1.3134905592 -4.38142530619e-05 0)
(1.31350050987 -7.03781701538e-05 0)
(1.31351304453 -0.000111165458492 0)
(1.31352825668 -0.000173923396586 0)
(1.31354577556 -0.000270736878422 0)
(1.3135642996 -0.000420564524852 0)
(1.3135806549 -0.000653222286727 0)
(1.31358795919 -0.00101592240642 0)
(1.31357218166 -0.00158364739638 0)
(1.31350592103 -0.00247541647784 0)
(1.31333501269 -0.00387842257942 0)
(1.31295197369 -0.00608491244416 0)
(1.31214693309 -0.00953917980167 0)
(1.31051473908 -0.0148824486525 0)
(1.30730238083 -0.0229424949483 0)
(1.30130081284 -0.0345589876579 0)
(1.29064325166 -0.0501683920997 0)
(1.27185934402 -0.068543093987 0)
(0.995736073241 0.0346338507433 0)
(1.04179514286 0.0905689107814 0)
(1.10222838832 0.121549556281 0)
(1.16491412167 0.129605828499 0)
(1.22202567517 0.122009266449 0)
(1.2695189409 0.106019940003 0)
(1.30680226824 0.0870975608943 0)
(1.33499539385 0.0686366885953 0)
(1.35574482374 0.0523698481931 0)
(1.37069622379 0.0389256276247 0)
(1.38128281657 0.0282980826933 0)
(1.38866274188 0.0201712854644 0)
(1.39373040078 0.0141175173148 0)
(1.39715667739 0.00970534153551 0)
(1.3994344222 0.00655059971114 0)
(1.40091974861 0.00433445851384 0)
(1.40186630073 0.00280414860323 0)
(1.40245232791 0.00176574703472 0)
(1.4028014323 0.00107419951777 0)
(1.40299813543 0.000623239884184 0)
(1.40309936221 0.000336414430963 0)
(1.4031428203 0.000159628443446 0)
(1.40315308487 5.51693815227e-05 0)
(1.40314559953 -2.99305727259e-06 0)
(1.40312984306 -3.21179244552e-05 0)
(1.40311144362 -4.38864260468e-05 0)
(1.40309340917 -4.57584615736e-05 0)
(1.40307726375 -4.24190213257e-05 0)
(1.40306360935 -3.67313525268e-05 0)
(1.40305251931 -3.0372860498e-05 0)
(1.4030437914 -2.4255882382e-05 0)
(1.40303710112 -1.88292348539e-05 0)
(1.40303208749 -1.42595085529e-05 0)
(1.40302840043 -1.05496759904e-05 0)
(1.403025743 -7.59858515847e-06 0)
(1.40302388235 -5.28191599831e-06 0)
(1.40302264051 -3.47629858176e-06 0)
(1.40302186734 -2.03841172175e-06 0)
(1.40302139782 -8.63339974167e-07 0)
(1.40302103711 7.0804512835e-08 0)
(1.40302071617 7.81688988346e-07 0)
(1.40302051541 1.27395716957e-06 0)
(1.40302042274 1.64554358408e-06 0)
(1.40302034692 1.96250590322e-06 0)
(1.40302025274 2.2632113222e-06 0)
(1.40302013319 2.56594295724e-06 0)
(1.40301998727 2.87953231212e-06 0)
(1.40301981823 3.20863935548e-06 0)
(1.40301963045 3.55423494629e-06 0)
(1.40301941878 3.90822522584e-06 0)
(1.40301919365 4.22845028793e-06 0)
(1.40301898848 4.48135850183e-06 0)
(1.40301883284 4.62875510457e-06 0)
(1.40301875134 4.61132371262e-06 0)
(1.4030187567 4.34030405056e-06 0)
(1.40301884675 3.67433596331e-06 0)
(1.40301905961 2.40670010142e-06 0)
(1.40301936571 4.22912726621e-07 0)
(1.40301999991 -2.72780497803e-06 0)
(1.40302118124 -7.78254657511e-06 0)
(1.40302272773 -1.55462406221e-05 0)
(1.40302431613 -2.73442228862e-05 0)
(1.4030254824 -4.50343742521e-05 0)
(1.40302548755 -7.16064423383e-05 0)
(1.40302284753 -0.000111653033195 0)
(1.40301483212 -0.000172205482706 0)
(1.40299664237 -0.000264139843858 0)
(1.40296010149 -0.000404335061665 0)
(1.40289128839 -0.00061885508409 0)
(1.40276651491 -0.000948306694089 0)
(1.40254577158 -0.00145600211083 0)
(1.40216274184 -0.00224036009236 0)
(1.40150595151 -0.00345040771459 0)
(1.40038716145 -0.00530980294308 0)
(1.39849322482 -0.00814125031306 0)
(1.39531120012 -0.0123793865933 0)
(1.39002833461 -0.0185349191071 0)
(1.38149699935 -0.0270452269259 0)
(1.368221959 -0.0379916221169 0)
(1.34781242619 -0.0504813503749 0)
(0.994011530678 0.0192357968324 0)
(1.03484763589 0.0523338297343 0)
(1.09199262953 0.0723631186671 0)
(1.15662420667 0.0791292264255 0)
(1.2203211771 0.0761045444817 0)
(1.2770194754 0.0673339732744 0)
(1.32424422162 0.0561509086745 0)
(1.36181577819 0.0447990187923 0)
(1.39068535826 0.0345303870198 0)
(1.41226080639 0.0258814424106 0)
(1.42801828195 0.0189465335587 0)
(1.43929890353 0.0135849905737 0)
(1.44722813866 0.00955654132683 0)
(1.45270419668 0.00660012097544 0)
(1.45641902531 0.00447419462754 0)
(1.45889151635 0.0029735172064 0)
(1.46050238806 0.00193277232984 0)
(1.46152579281 0.00122369778477 0)
(1.46215581648 0.00074955515222 0)
(1.46252764841 0.000439022999538 0)
(1.46273393162 0.000240526917061 0)
(1.46283707947 0.000117417951285 0)
(1.46287838635 4.40553790313e-05 0)
(1.46288462891 2.69645670937e-06 0)
(1.46287250702 -1.84398047942e-05 0)
(1.46285215775 -2.74348930111e-05 0)
(1.46282960855 -2.94366841412e-05 0)
(1.46280807255 -2.76892396099e-05 0)
(1.46278907728 -2.41900393538e-05 0)
(1.46277316787 -2.01212524562e-05 0)
(1.46276033457 -1.61295285748e-05 0)
(1.4627502835 -1.25385208028e-05 0)
(1.46274260499 -9.47394665944e-06 0)
(1.46273686655 -6.94671156303e-06 0)
(1.46273266982 -4.90245735151e-06 0)
(1.46272967192 -3.27263131923e-06 0)
(1.4627275836 -1.99389767228e-06 0)
(1.46272614806 -1.02539819646e-06 0)
(1.46272515278 -3.22181060485e-07 0)
(1.46272453305 2.02143946739e-07 0)
(1.46272417668 6.83975836897e-07 0)
(1.46272393298 1.15934570586e-06 0)
(1.46272376822 1.58276857183e-06 0)
(1.46272364402 1.96040971736e-06 0)
(1.46272353068 2.31328367608e-06 0)
(1.46272340901 2.65436690197e-06 0)
(1.46272326625 2.98915314027e-06 0)
(1.46272309568 3.3161108408e-06 0)
(1.46272289516 3.62657618551e-06 0)
(1.46272266311 3.90702319929e-06 0)
(1.46272240211 4.14892615905e-06 0)
(1.46272212064 4.32077393577e-06 0)
(1.46272182612 4.3717204195e-06 0)
(1.46272152818 4.22914135347e-06 0)
(1.46272124276 3.80124297138e-06 0)
(1.46272099433 2.97949410739e-06 0)
(1.46272073142 1.65332614548e-06 0)
(1.46272037346 -3.35000458851e-07 0)
(1.46271981285 -3.18288886463e-06 0)
(1.46271889942 -7.79479719434e-06 0)
(1.4627173593 -1.49488569993e-05 0)
(1.46271451722 -2.57379572155e-05 0)
(1.46270925843 -4.17123597461e-05 0)
(1.46269977848 -6.52566753764e-05 0)
(1.46268301937 -9.99756749416e-05 0)
(1.46265384993 -0.000151266681368 0)
(1.46260376421 -0.000227312620134 0)
(1.46251900532 -0.000340595340223 0)
(1.46237712535 -0.000509736507132 0)
(1.46214131297 -0.000763153738949 0)
(1.46175161845 -0.00114457460862 0)
(1.46111346215 -0.00172168308677 0)
(1.46007581114 -0.00259023844297 0)
(1.45839779098 -0.0038897388616 0)
(1.45570560462 -0.00581252542498 0)
(1.45143405855 -0.00860164922225 0)
(1.44476309229 -0.0125171425887 0)
(1.43462412888 -0.0177392653462 0)
(1.4197584597 -0.0242160210216 0)
(1.39832136373 -0.031401100117 0)
(0.993269666893 0.00617014085649 0)
(1.03158100096 0.0171020355235 0)
(1.08672182257 0.0239906402146 0)
(1.15174555384 0.026560660766 0)
(1.21823537926 0.0258180575815 0)
(1.27925776659 0.0230488886116 0)
(1.33140139406 0.0193656372103 0)
(1.37377603037 0.0155468661728 0)
(1.40691058414 0.0120449398718 0)
(1.43203318961 0.00906640979256 0)
(1.45060220757 0.00666060426688 0)
(1.46402991843 0.00479009975479 0)
(1.47355022277 0.00337843514213 0)
(1.48017569861 0.00233874366517 0)
(1.4847023569 0.00158891855087 0)
(1.48773628009 0.00105829309206 0)
(1.48972742616 0.000689467079419 0)
(1.49100286537 0.000437643203764 0)
(1.49179595449 0.000268891237417 0)
(1.49227033334 0.000158117287545 0)
(1.49253883244 8.71313632246e-05 0)
(1.49267791503 4.29818306936e-05 0)
(1.49273845379 1.65917775883e-05 0)
(1.49275363207 1.67043960256e-06 0)
(1.49274439859 -6.06350676686e-06 0)
(1.49272361329 -9.41024627463e-06 0)
(1.49269897159 -1.02179759685e-05 0)
(1.49267470218 -9.6570526029e-06 0)
(1.49265290145 -8.44585014124e-06 0)
(1.49263441228 -7.0024430021e-06 0)
(1.49261935715 -5.56675361073e-06 0)
(1.49260747325 -4.25792723083e-06 0)
(1.49259833247 -3.12329276306e-06 0)
(1.49259145892 -2.16892702603e-06 0)
(1.49258639851 -1.37844954752e-06 0)
(1.49258275032 -7.30362370904e-07 0)
(1.49258017788 -2.03135774482e-07 0)
(1.49257841131 2.24820124707e-07 0)
(1.49257724442 5.98812379165e-07 0)
(1.49257649868 9.70640895009e-07 0)
(1.49257602098 1.27753482053e-06 0)
(1.49257571893 1.56173831123e-06 0)
(1.49257553447 1.84174222708e-06 0)
(1.49257541534 2.12762590317e-06 0)
(1.49257532174 2.42610799463e-06 0)
(1.49257522748 2.73943759854e-06 0)
(1.49257511514 3.06742644099e-06 0)
(1.49257497343 3.40682989058e-06 0)
(1.49257479413 3.74983078602e-06 0)
(1.4925745694 4.08158494388e-06 0)
(1.49257429315 4.38233454098e-06 0)
(1.49257396185 4.61950337747e-06 0)
(1.49257356849 4.74643130391e-06 0)
(1.49257309967 4.69945211849e-06 0)
(1.4925725333 4.39264674791e-06 0)
(1.49257184306 3.70651546288e-06 0)
(1.49257101153 2.48126436476e-06 0)
(1.49256990131 6.61368034857e-07 0)
(1.49256810084 -2.0170930646e-06 0)
(1.49256531745 -6.18465540101e-06 0)
(1.49256115642 -1.23740676579e-05 0)
(1.4925545896 -2.13611206422e-05 0)
(1.49254400764 -3.42370336163e-05 0)
(1.49252687145 -5.25571626097e-05 0)
(1.49249906904 -7.85251380808e-05 0)
(1.49245390875 -0.000115180549848 0)
(1.4923805149 -0.000166895666387 0)
(1.49226181302 -0.000240184111659 0)
(1.49207045649 -0.000343563179 0)
(1.4917618784 -0.000489565716228 0)
(1.49126378245 -0.000698317245364 0)
(1.49046741428 -0.00100362632517 0)
(1.48920346839 -0.00143801846667 0)
(1.48720618974 -0.00204896156015 0)
(1.48407722903 -0.00289780325471 0)
(1.47923693199 -0.00405203516241 0)
(1.47187872108 -0.00556593114713 0)
(1.46098946531 -0.00744098093846 0)
(1.44542252757 -0.00958313223155 0)
(1.42356930385 -0.0117438816397 0)
(0.99327046491 -0.00616841115102 0)
(1.03158098455 -0.0171003860693 0)
(1.08672175818 -0.0239897697109 0)
(1.15174559401 -0.0265602517443 0)
(1.21823545991 -0.0258179943047 0)
(1.27925787127 -0.023049107771 0)