/*--------------------------------*- C++ -*----------------------------------*\
| =========                 |                                                 |
| \\      /  F ield         | OpenFOAM: The Open Source CFD Toolbox           |
|  \\    /   O peration     | Version:  2106                                  |
|   \\  /    A nd           | Website:  www.openfoam.com                      |
|    \\/     M anipulation  |                                                 |
\*---------------------------------------------------------------------------*/
FoamFile
{
    version     2.0;
    format      ascii;
    arch        "LSB;label=32;scalar=64";
    class       volScalarField;
    location    "0.46";
    object      p;
}
// * * * * * * * * * * * * * * * * * * * * * * * * * * * * * * * * * * * * * //

dimensions      [0 2 -2 0 0 0 0];

internalField   nonuniform List<scalar> 
9600
(
2.27263115375
-0.625374243257
-1.52960994405
-1.91522131366
-2.13455125065
-2.27449382845
-2.37839951405
-2.46594914745
-2.5454482085
-2.62083884841
-2.69421282378
-2.76672168594
-2.83899492828
-2.91136331584
-2.98398363809
-3.05691172312
-3.13014763114
-3.2036628988
-3.27741740414
-3.35136806875
-3.42547428523
-3.49970150627
-3.5740193602
-3.64840363999
-3.72283500087
-3.79729843484
-3.87178224633
-3.94627758912
-4.02077758895
-4.09527699069
-4.16977171274
-4.24425849588
-4.31873460374
-4.39319774023
-4.46764589393
-4.54207715085
-4.61648952501
-4.69088101802
-4.76524966866
-4.83959331623
-4.913909708
-4.98819646848
-5.06245093198
-5.136670295
-5.21085144879
-5.28499113215
-5.35908583836
-5.43313178992
-5.50712485908
-5.58106064654
-5.6549345253
-5.728741428
-5.80247583431
-5.87613192028
-5.9497034927
-6.02318389653
-6.09656593796
-6.16984204373
-6.24300405284
-6.31604322943
-6.38895016998
-6.46171500086
-6.53432730069
-6.60677596441
-6.67904904626
-6.75113379944
-6.82301679519
-6.89468379585
-6.96611969433
-7.03730841937
-7.10823302745
-7.17887561608
-7.24921724689
-7.3192378858
-7.38891638121
-7.45823048726
-7.52715675399
-7.59567046316
-7.66374558706
-7.73135483584
-7.79846962148
-7.8650599013
-7.93109405215
-7.99653890831
-8.0613598421
-8.125520707
-8.18898363352
-8.25170901824
-8.31365562176
-8.3747805293
-8.43503899745
-8.49438432277
-8.55276805487
-8.61013992621
-8.66644771976
-8.72163712317
-8.77565200452
-8.82843436875
-8.87992409009
-8.93005893548
-8.97877479412
-9.0260058039
-9.0716837961
-9.11573857927
-9.15809808776
-9.19868856906
-9.23743406575
-9.27425640893
-9.30907584744
-9.34181101753
-9.3723790341
-9.40069457994
-9.42667087645
-9.45021966855
-9.47125120429
-9.4896740677
-9.50539543343
-9.51832166903
-9.52835764053
-9.53540721479
-9.53937304489
-9.54015733019
-9.53766110375
-9.53178454797
-9.5224275622
-9.50949061107
-9.4928722583
-9.47247025884
-9.44818253746
-9.41990707015
-9.38754171704
-9.35098307043
-9.31012758111
-9.26487145372
-9.21511020566
-9.16073731626
-9.10164432597
-9.03772132361
-8.96885527911
-8.89492877078
-8.81581806743
-8.7313928138
-8.64151310187
-8.54602605247
-8.44476177928
-8.33752930791
-8.2241090819
-8.10424358736
-7.97762357602
-7.84387066339
-7.70250843789
-7.55291816248
-7.3942655962
-7.22537382122
-7.04451116197
-6.84907317647
-6.63509903618
-6.39676084919
-6.13468181467
-5.90864838898
0.361087063485
-0.821261024874
-1.42993657466
-1.7839627719
-2.02657872432
-2.19714111295
-2.32521317532
-2.4297162012
-2.52079146387
-2.60407040359
-2.682843483
-2.75906063398
-2.83388136447
-2.90799362889
-2.98179957866
-3.05552596212
-3.12929265818
-3.20315515756
-3.27713231062
-3.35122213546
-3.42541318417
-3.49968884451
-3.57403253979
-3.64842896479
-3.72286436959
-3.79732737421
-3.87180855332
-3.94630043908
-4.0207969267
-4.09529312165
-4.16978507886
-4.24426963273
-4.31874407857
-4.39320605571
-4.46765343994
-4.54208423105
-4.61649642253
-4.69088795761
-4.7652568515
-4.83960096705
-4.91391794351
-4.9882053382
-5.06246057436
-5.13668076145
-5.21086281742
-5.28500347312
-5.35909918761
-5.43314621341
-5.5071404805
-5.58107754105
-5.65495274529
-5.72876108411
-5.80249707468
-5.87615485124
-5.94972821185
-6.02321057305
-6.09659474032
-6.16987306026
-6.24303736875
-6.31607899886
-6.38898860169
-6.46175627659
-6.53437158218
-6.60682343021
-6.67909992896
-6.75118831934
-6.8230751417
-6.89474616436
-6.96618633375
-7.03737960203
-7.1083090028
-7.17895663102
-7.24930357364
-7.31932984422
-7.38901429589
-7.45833465872
-7.52726748602
-7.59578810411
-7.66387051419
-7.73148740661
-7.79861018174
-7.86520882445
-7.93125174852
-7.99670578959
-8.06153629924
-8.1257071593
-8.18918055448
-8.25191687087
-8.31387481753
-8.3750114988
-8.43528228553
-8.49464048195
-8.553037515
-8.61042308054
-8.66674512166
-8.72194938861
-8.77597960849
-8.82877773606
-8.88028378612
-8.93043560565
-8.97916889232
-9.02641775138
-9.07211421821
-9.11618820723
-9.15856744134
-9.19917800741
-9.23794410949
-9.27478768433
-9.30962891658
-9.34238613701
-9.37297646508
-9.40131469718
-9.42731410736
-9.45088629873
-9.47194153387
-9.49038857993
-9.50613452726
-9.5190857138
-9.52914700918
-9.53622234143
-9.54021427179
-9.54102505893
-9.53855605351
-9.5327076201
-9.52337907621
-9.51046917923
-9.49387809594
-9.47350448365
-9.44924661031
-9.421002627
-9.3886713165
-9.35215044689
-9.31133715346
-9.26612818134
-9.2164204722
-9.16210991524
-9.10309025817
-9.03925380017
-8.9704905821
-8.89668783855
-8.81772723388
-8.73348469249
-8.64382848291
-8.54861675645
-8.44769347046
-8.34088531754
-8.22799622408
-8.10880084329
-7.98303399714
-7.85037934979
-7.71045229494
-7.56277704463
-7.40675703889
-7.24163506836
-7.06646338608
-6.88014607141
-6.68163403179
-6.46970559229
-6.24419423942
-6.02578150799
-0.614754669248
-1.09611871945
-1.48737650337
-1.77899394203
-2.00056790288
-2.16850296302
-2.30060463392
-2.41039380708
-2.50625222199
-2.59339716687
-2.67513958455
-2.75357405875
-2.83002125009
-2.90531067752
-2.97995855966
-3.05428024683
-3.12846305535
-3.202612816
-3.27678562782
-3.35100673867
-3.42528414919
-3.49961570311
-3.57399462394
-3.64841254493
-3.72286052745
-3.79733043047
-3.8718149872
-3.94630815509
-4.02080477541
-4.09530054892
-4.1697918346
-4.24427564864
-4.31874942708
-4.39321088646
-4.46765789831
-4.54208842195
-4.61650046804
-4.69089192705
-4.76526078376
-4.83960495021
-4.91392207259
-4.98820965378
-5.0624650813
-5.1366855449
-5.21086796106
-5.28500901259
-5.35910515094
-5.4331526641
-5.50714751334
-5.58108521959
-5.65496106511
-5.72877003852
-5.80250674369
-5.87616530817
-5.94973947206
-6.0232226663
-6.0966077723
-6.16988711335
-6.24305245417
-6.31609513589
-6.38900592214
-6.46177493687
-6.53439166044
-6.60684493963
-6.67912293259
-6.75121293319
-6.82310147086
-6.8947742878
-6.96621634747
-7.03741166259
-7.10834326188
-7.1789932
-7.24934253643
-7.31937131231
-7.38905841699
-7.45838157674
-7.52731733312
-7.59584103483
-7.66392672995
-7.73154709767
-7.79867347654
-7.86527583315
-7.9313226378
-7.99678077176
-8.06161556039
-8.12579085616
-8.18926887768
-8.25201005783
-8.31397308992
-8.37511502407
-8.43539124875
-8.49475513335
-8.55315809298
-8.61054972576
-8.66687799077
-8.72208875095
-8.77612569718
-8.82893068069
-8.88044375896
-8.93060293895
-8.97934377598
-9.02660019133
-9.07230429283
-9.11638622551
-9.15877369475
-9.19939252496
-9.23816693682
-9.27501907293
-9.30986927217
-9.34263573634
-9.37323554168
-9.40158385013
-9.42759379927
-9.45117685258
-9.47224319182
-9.49070182842
-9.50645992322
-9.51942373637
-9.52949813322
-9.5365872473
-9.54059367178
-9.54141948876
-9.53896623353
-9.53313482421
-9.52382522455
-9.51093680514
-9.4943693705
-9.47402191827
-9.44979304057
-9.42158082691
-9.38928450602
-9.35280301918
-9.31203468733
-9.2668770124
-9.21722779455
-9.16298498028
-9.10404496707
-9.04030273895
-8.97165123181
-8.89798193283
-8.81918212294
-8.7351343654
-8.64571495488
-8.55079284835
-8.45022619561
-8.34385955861
-8.23152006011
-8.11301346636
-7.98811746862
-7.85657474001
-7.7180850002
-7.57229609243
-7.41880004908
-7.25713339454
-7.08680810919
-6.90741655888
-6.7189008596
-6.52165373991
-6.31660175449
-6.11184945102
-1.16621330965
-1.35255837695
-1.59500400808
-1.81747233327
-2.00466386776
-2.15869118547
-2.28712820183
-2.39741936107
-2.49521388017
-2.58457404173
-2.66834537342
-2.74847206274
-2.82626186236
-2.90258386336
-2.97800855336
-3.05290451065
-3.12750561575
-3.20195593877
-3.27634186096
-3.35071207909
-3.42509226953
-3.49949364766
-3.57391966205
-3.64836832787
-3.72283609967
-3.79731841145
-3.8718104664
-3.94630794632
-4.02080686216
-4.09530374055
-4.16979544784
-4.24427929064
-4.31875290569
-4.39321411494
-4.46766087749
-4.54209120077
-4.61650312948
-4.69089455704
-4.76526339456
-4.83960754919
-4.91392475964
-4.98821250947
-5.0624681157
-5.13668877652
-5.21087142649
-5.28501273682
-5.35910913084
-5.43315684637
-5.50715191934
-5.58108995534
-5.65496616504
-5.7287754835
-5.8025125833
-5.87617165409
-5.9497463761
-6.02323010187
-6.09661575612
-6.16989571263
-6.24306170043
-6.31610502053
-6.3890165201
-6.46178639157
-6.53440406728
-6.6068582758
-6.67913716574
-6.75122810897
-6.82311765871
-6.89479153641
-6.96623470355
-7.03743122471
-7.10836414822
-7.17901549511
-7.24936627774
-7.3193965406
-7.3890852191
-7.45841005681
-7.52734757822
-7.5958731249
-7.66396078291
-7.73158324375
-7.79871180027
-7.86531638463
-7.93136551295
-7.9968261258
-8.06166351947
-8.12584147239
-8.18932222089
-8.25206630118
-8.31403243718
-8.37517759258
-8.43545710233
-8.49482441209
-8.55323100627
-8.61062639818
-8.6669584698
-8.72217320393
-8.7762143741
-8.82902373561
-8.88054124652
-8.930705105
-8.97945109129
-9.02671290006
-9.07242247015
-9.11651008542
-9.15890362467
-9.1995287048
-9.23830946668
-9.27516817363
-9.3100253407
-9.34279906943
-9.3734060466
-9.4017613777
-9.42777856462
-9.45136919636
-9.47244327989
-9.49090990306
-9.50667639364
-9.51964900169
-9.52973252484
-9.53683128639
-9.54084813162
-9.54168508247
-9.53924354807
-9.53342470882
-9.52412912114
-9.51125609784
-9.49470541273
-9.47437667944
-9.4501695482
-9.42198276406
-9.38971581098
-9.35326844087
-9.31254044533
-9.26743093633
-9.21783897786
-9.16366431283
-9.10480603682
-9.04116252031
-8.97263019487
-8.89910499121
-8.82048008824
-8.73664555071
-8.64748663411
-8.55288354973
-8.45270929448
-8.3468273416
-8.23508933636
-8.11733275538
-7.9933781664
-7.86302579898
-7.72605466113
-7.5822221364
-7.43127348548
-7.27295793289
-7.10707002051
-6.9335308439
-6.75254630898
-6.56466725407
-6.37068869187
-6.17367716174
-1.50355691802
-1.55532087832
-1.69921468492
-1.86350728501
-2.01784104606
-2.15589879693
-2.27805198064
-2.38684084146
-2.48528503393
-2.57611516978
-2.66152295104
-2.74316092894
-2.82223097158
-2.89958485349
-2.9758143632
-3.05132306643
-3.12638183057
-3.20116846761
-3.27579792476
-3.35034208064
-3.42484481744
-3.49933144995
-3.57381577521
-3.64830360304
-3.72279732453
-3.79729651308
-3.87179924529
-3.94630326488
-4.02080601417
-4.09530502574
-4.16979782856
-4.24428214686
-4.31875591515
-4.3932170891
-4.46766373007
-4.54209389335
-4.61650569059
-4.6908970995
-4.76526596262
-4.83961013963
-4.91392739971
-4.98821529608
-5.06247110888
-5.13669196659
-5.21087484922
-5.28501645437
-5.35911319956
-5.43316128306
-5.5071567575
-5.58109525526
-5.65497196359
-5.72878178613
-5.80251935743
-5.87617893649
-5.94975423245
-6.02323858106
-6.09662483306
-6.16990541492
-6.24307211923
-6.31611621143
-6.38902851963
-6.46179926289
-6.53441790708
-6.60687313881
-6.67915306319
-6.75124509352
-6.82313582943
-6.89481099374
-6.96625549744
-7.03745341221
-7.10838781626
-7.17904074133
-7.24939317614
-7.31942514686
-7.38911562567
-7.45844241524
-7.52738204203
-7.59590977658
-7.66399967496
-7.73162448499
-7.79875553656
-7.86536270583
-7.93141447833
-7.99687786853
-8.06171822614
-8.12589926664
-8.18938316291
-8.25213049972
-8.31410009091
-8.37524887136
-8.43553207494
-8.49490315387
-8.5533137068
-8.61071324656
-8.66704950015
-8.72226847069
-8.77631409774
-8.829128156
-8.88065037762
-8.93081887904
-8.97956962394
-9.02683643523
-9.07255104549
-9.11664361453
-9.15904228251
-9.19967271363
-9.23845894009
-9.27532313492
-9.31018595225
-9.34296562984
-9.3735787411
-9.40194033308
-9.42796401337
-9.45156155743
-9.47264283481
-9.49111687016
-9.50689113929
-9.51987204678
-9.52996430886
-9.53707219699
-9.5410988735
-9.54194664676
-9.53951689626
-9.53371073485
-9.52442926717
-9.51157237054
-9.49503981905
-9.47473125399
-9.45054723174
-9.42238762589
-9.39015249803
-9.35374213846
-9.31305747833
-9.26799958484
-9.21846938813
-9.1643685411
-9.10559863637
-9.04206165692
-8.97365809029
-8.90028863845
-8.82185241718
-8.73824730339
-8.64936825633
-8.55510710353
-8.45535171599
-8.34998426207
-8.23888074969
-8.1219092916
-7.99893064561
-7.8697970377
-7.73435589106
-7.59245345921
-7.4439487526
-7.28873294878
-7.12676245925
-6.95810732308
-6.78301127077
-6.60186198932
-6.41497703371
-6.22304252603
-1.70763015572
-1.70265283938
-1.78662804119
-1.90741607065
-2.03405956164
-2.1567397777
-2.27163611229
-2.37783262806
-2.47611591709
-2.56790510243
-2.65466610799
-2.73768123585
-2.81798537148
-2.89637213722
-2.97342965238
-3.04958221409
-3.12513013187
-3.20028142196
-3.27517828056
-3.34991562376
-3.42455596152
-3.49913922267
-3.57369014772
-3.64822394879
-3.72274822516
-3.79726754963
-3.87178326245
-3.94629543368
-4.02080314561
-4.09530504524
-4.16979942245
-4.24428448418
-4.3187585445
-4.39321979718
-4.46766642602
-4.54209649975
-4.61650815864
-4.6908994708
-4.76526833011
-4.83961252115
-4.91392979554
-4.98821776919
-5.06247373968
-5.13669475386
-5.21087778032
-5.28501956386
-5.35911655848
-5.43316489798
-5.50716057734
-5.58109927819
-5.65497626964
-5.728786436
-5.80252434218
-5.87618429509
-5.94976006248
-6.02324490464
-6.09663161744
-6.16991265537
-6.24307992038
-6.31612467801
-6.38903767592
-6.46180909111
-6.53442844832
-6.60688444694
-6.6791651319
-6.75125793225
-6.82314951272
-6.89482562646
-6.96627113177
-7.03747008517
-7.10840558759
-7.17905967704
-7.24941331281
-7.31944650623
-7.3891382756
-7.45846646886
-7.52740761024
-7.59593692522
-7.66402845669
-7.73165498393
-7.79878786976
-7.8653969662
-7.93145071681
-7.99691615037
-8.06175866608
-8.12594198003
-8.18942822025
-8.25217799273
-8.31415017366
-8.37530168471
-8.43558767436
-8.49496158771
-8.55337514318
-8.61077791471
-8.66711749602
-8.72233982843
-8.77638898852
-8.82920689212
-8.88073312345
-8.93090562055
-8.97966048014
-9.02693174544
-9.07265107497
-9.11674828851
-9.15915166626
-9.19978715548
-9.23857872909
-9.27544828838
-9.31031646693
-9.34310176988
-9.37372082338
-9.40208850488
-9.42811831684
-9.45172226166
-9.47281031764
-9.49129143651
-9.5070731053
-9.52006197204
-9.53016283179
-9.53727979994
-9.54131613171
-9.54217451363
-9.5397566915
-9.53396361576
-9.5246965381
-9.51185595318
-9.49534220569
-9.4750550658
-9.45089544106
-9.42276421097
-9.39056245175
-9.35419130501
-9.31355264826
-9.26854925833
-9.21908411427
-9.16506105323
-9.10638400577
-9.04295836883
-8.9746888329
-8.90148110452
-8.82324017345
-8.73987126851
-8.65127880564
-8.55736592097
-8.4580347587
-8.3531847551
-8.24271415603
-8.12651840095
-8.00449307991
-7.87653366194
-7.74254125593
-7.60242797827
-7.45612934563
-7.30362150753
-7.14494097077
-6.9802083041
-6.80963509461
-6.6334600086
-6.45173921617
-6.26437022193
-1.83075896115
-1.80530306176
-1.85466345512
-1.94482198574
-2.04974663887
-2.15906965739
-2.26690624286
-2.37013007895
-2.46780413779
-2.56019462187
-2.64806608659
-2.73231001627
-2.81376536313
-2.89314332832
-2.97101129654
-3.04780334575
-3.12384259838
-3.19936346676
-3.274533361
-3.34946924345
-3.42425181673
-3.49893555238
-3.57355649263
-3.64813828086
-3.72269474218
-3.79723544351
-3.87176504658
-3.94628602557
-4.02079916544
-4.09530427978
-4.16980048944
-4.24428646828
-4.31876087979
-4.39322220967
-4.46766882479
-4.54209886009
-4.61651041754
-4.69090160269
-4.76527038846
-4.8396145832
-4.91393188117
-4.98821988315
-5.06247595476
-5.13669710323
-5.21088023748
-5.28502213098
-5.35911933298
-5.43316796474
-5.5071639136
-5.58110284216
-5.65498013234
-5.72879067364
-5.80252896107
-5.87618925451
-5.94976535801
-6.02325058604
-6.09663771668
-6.16991914475
-6.24308684538
-6.31613214391
-6.38904574096
-6.46181773265
-6.53443767144
-6.60689433229
-6.67917573148
-6.7512692458
-6.82316156038
-6.89483851181
-6.96628494547
-7.0374848498
-7.10842130856
-7.17907640567
-7.2494311332
-7.31946547654
-7.38915843908
-7.45848788837
-7.52743037855
-7.59596112029
-7.66405412572
-7.731682176
-7.79881667824
-7.86542749816
-7.93148301987
-7.99695023774
-8.0617946055
-8.12597991274
-8.1894682561
-8.25222017149
-8.31419455488
-8.37534839406
-8.43563681695
-8.49501316343
-8.55342916872
-8.61083457258
-8.66717697017
-8.72240214197
-8.77645411746
-8.82927500157
-8.88080443004
-8.93098013642
-8.9797381276
-9.02701263798
-9.07273556036
-9.11683646294
-9.15924341787
-9.19988264276
-9.2386783224
-9.27555217352
-9.3104245753
-9.34321423283
-9.37383802717
-9.40221078979
-9.42824572062
-9.45185490411
-9.47294859451
-9.49143581403
-9.50722391624
-9.52021961158
-9.53032794684
-9.53745311326
-9.54149832554
-9.54236637306
-9.53995949168
-9.53417882474
-9.52492558251
-9.51210052032
-9.49560476351
-9.47533864489
-9.45120332793
-9.42310032414
-9.3909316634
-9.35459968203
-9.31400737011
-9.26905897791
-9.21965933336
-9.16571459602
-9.1071311117
-9.04381745977
-8.97568229849
-8.90263623821
-8.82459011953
-8.74145600571
-8.65314698612
-8.55957652045
-8.4606599439
-8.35631220407
-8.2464509704
-8.1309949106
-8.00986827343
-7.88300109656
-7.75033484895
-7.61182857782
-7.46746740362
-7.317276933
-7.16133175171
-6.99976610181
-6.83276078119
-6.66049169109
-6.48298745026
-6.3001138023
-1.90480145302
-1.87375092996
-1.90368301025
-1.97345486085
-2.06262242944
-2.16149996738
-2.26337911079
-2.3638514774
-2.46077825831
-2.55352458281
-2.64226173919
-2.72752807561
-2.8099731941
-2.89022090505
-2.96880996087
-3.04617669476
-3.1226607764
-3.19851815063
-3.2739377731
-3.34905591383
-3.42396944283
-3.49874590824
-3.57343161247
-3.64805808709
-3.72264439907
-3.79720500606
-3.87174761199
-3.94627687766
-4.02079512242
-4.09530323601
-4.16980116939
-4.24428807482
-4.3187628888
-4.39322430381
-4.46767086781
-4.54210084894
-4.6165123401
-4.69090342287
-4.76527212055
-4.83961629255
-4.91393361749
-4.98822163611
-5.06247774904
-5.1366989956
-5.21088224158
-5.28502421571
-5.35912153645
-5.43317038696
-5.50716658362
-5.58110568062
-5.65498311119
-5.72879387752
-5.80253248001
-5.87619306815
-5.94976943349
-6.02325496083
-6.09664245318
-6.16992424603
-6.24309230661
-6.31613800835
-6.38905207438
-6.46182453651
-6.53444490948
-6.6069020507
-6.67918401734
-6.75127812807
-6.82317101001
-6.89484857285
-6.96629572608
-7.03749639434
-7.10843357459
-7.17908937831
-7.24944490434
-7.31948015586
-7.38917406266
-7.45850445324
-7.52744793567
-7.59597976098
-7.66407390832
-7.73170311798
-7.79883882963
-7.86545096159
-7.93150786588
-7.99697647822
-8.06182226541
-8.12600909599
-8.1894990708
-8.25225263649
-8.31422866833
-8.37538424896
-8.4356745825
-8.49505291088
-8.55347085382
-8.61087827316
-8.66722290836
-8.72245046969
-8.77650477679
-8.82932795886
-8.88085986265
-8.93103823799
-8.97979892582
-9.02707605576
-9.07280174511
-9.11690567519
-9.1593156624
-9.19995784326
-9.23875665161
-9.27563396467
-9.31050992879
-9.34330314671
-9.37393066131
-9.40230747233
-9.42834662034
-9.45196013394
-9.4730584487
-9.4915507894
-9.50734442988
-9.52034596545
-9.53046064857
-9.53759293847
-9.54164617679
-9.54252304716
-9.54012604076
-9.53435671138
-9.52511654978
-9.51230637632
-9.49582771392
-9.47558163677
-9.45146985665
-9.42339446402
-9.39125824838
-9.35496472579
-9.31441810636
-9.26952407449
-9.22018908074
-9.16632153979
-9.10783035648
-9.04462720609
-8.97662441094
-8.90373700213
-8.82588140645
-8.74297616767
-8.65494238054
-8.56170263764
-8.46318398273
-8.35931507101
-8.25003038926
-8.13526827265
-8.014976032
-7.88911114785
-7.75764565618
-7.62057293039
-7.4779122296
-7.32972151381
-7.17609992585
-7.01719485357
-6.8531862391
-6.68426219126
-6.51054602816
-6.332115211
-1.94703511581
-1.91546954899
-1.93511576811
-1.99256188316
-2.07157421908
-2.16335347277
-2.26097124821
-2.35935883668
-2.45564047961
-2.54857436856
-2.63790687489
-2.72391075791
-2.80708666942
-2.88798580498
-2.96712014858
-3.04492442046
-3.1217488648
-3.19786469396
-3.27347666054
-3.34873548478
-3.42375026874
-3.49859851025
-3.57333419679
-3.64799430494
-3.72260491351
-3.79718115172
-3.87173388575
-3.94626965409
-4.02079194128
-4.09530239798
-4.16980162173
-4.24428923581
-4.31876440906
-4.39322592837
-4.46767244419
-4.54210235244
-4.61651379174
-4.69090481977
-4.76527345658
-4.83961760535
-4.91393496695
-4.98822300212
-5.06247910391
-5.13670038938
-5.21088374393
-5.28502582553
-5.35912321744
-5.43317218194
-5.50716857211
-5.58110787472
-5.65498544611
-5.7287963756
-5.80253520184
-5.87619602248
-5.94977258746
-6.02325829528
-6.09664603156
-6.16992811816
-6.24309645812
-6.31614243114
-6.389056817
-6.4618296358
-6.53445033635
-6.60690780741
-6.67919018239
-6.75128478068
-6.82317813457
-6.89485613582
-6.96630377908
-7.03750501477
-7.10844276807
-7.17909910365
-7.24945518777
-7.31949109886
-7.38918573857
-7.45851685207
-7.52746104884
-7.59599365306
-7.6640886608
-7.73171874382
-7.79885531354
-7.86546836251
-7.93152628109
-7.99699594499
-8.06184277694
-8.12603070239
-8.18952187102
-8.25227665992
-8.3142538782
-8.37541065855
-8.43570231777
-8.49508210415
-8.55350149
-8.61091031286
-8.66725646587
-8.72248574863
-8.77654179543
-8.82936659719
-8.88090015921
-8.93108039435
-8.97984309167
-9.02712216125
-9.07284977892
-9.11695584637
-9.15936816415
-9.20001259884
-9.23881361901
-9.27569338645
-9.31057206054
-9.34336806418
-9.37399836861
-9.40237817544
-9.42842060142
-9.45203762214
-9.47313966221
-9.49163609047
-9.5074342503
-9.52044067914
-9.53056074873
-9.53769911026
-9.54175937057
-9.54264418248
-9.54025611008
-9.53449704481
-9.52526892928
-9.51247278946
-9.49601037812
-9.47578338228
-9.45169412906
-9.42364540122
-9.39154074061
-9.35528473105
-9.31478274629
-9.26994191453
-9.22067024787
-9.16687824509
-9.10847733576
-9.04538222427
-8.97750882207
-8.904776159
-8.82710571524
-8.74442202909
-8.65665374609
-8.56373178922
-8.46559346643
-8.36217940644
-8.25343861296
-8.13932655576
-8.01980963477
-7.8948677685
-7.76449734984
-7.62871900181
-7.48757935032
-7.34116302042
-7.18959393276
-7.03304404453
-6.8717223212
-6.70587321126
-6.53575316993
-6.36167275175
-1.96628403965
-1.93518599115
-1.9504102014
-2.00207885828
-2.07613534405
-2.16433697935
-2.2597412988
-2.35701001046
-2.45292201704
-2.54593276193
-2.63556808572
-2.72195859665
-2.80552311915
-2.88677171696
-2.96620028169
-3.04424159062
-3.12125097017
-3.19750756625
-3.27322446585
-3.34856014001
-3.42363027922
-3.4985177946
-3.57328096773
-3.64796028434
-3.72258339963
-3.7971680829
-3.87172635998
-3.94626569127
-4.0207902456
-4.09530203782
-4.16980194891
-4.24428990877
-4.31876527723
-4.39322689973
-4.46767340879
-4.54210327238
-4.61651468766
-4.6909057
-4.76527432083
-4.83961847524
-4.91393587874
-4.98822393583
-5.06248000858
-5.13670127389
-5.21088469656
-5.28502691395
-5.35912439302
-5.43317339143
-5.50716985995
-5.58110933015
-5.65498705834
-5.72879807464
-5.80253700343
-5.87619798745
-5.94977471287
-6.02326054732
-6.09664843131
-6.16993070462
-6.24309923272
-6.31614537474
-6.38905995028
-6.46183301539
-6.53445396
-6.60691164162
-6.67919424822
-6.75128916021
-6.82318286442
-6.8948611663
-6.96630907897
-7.03751062715
-7.10844875389
-7.17910546756
-7.24946191434
-7.31949822687
-7.38919334209
-7.45852495358
-7.52746961539
-7.59600268077
-7.66409820474
-7.73172884227
-7.79886594554
-7.86547954193
-7.93153809484
-7.99700845484
-8.06185594929
-8.12604450066
-8.18953636392
-8.25229193427
-8.31426993759
-8.37542745525
-8.43571987672
-8.49510055315
-8.55352089206
-8.61093062233
-8.66727764957
-8.72250790674
-8.77656503507
-8.82939088801
-8.88092546256
-8.93110678205
-8.97987072217
-9.02715102145
-9.07287979769
-9.11698708992
-9.15940087221
-9.20004684832
-9.23884928752
-9.27573052909
-9.31061094047
-9.34340886793
-9.37404106753
-9.40242286539
-9.42846757897
-9.45208720673
-9.47319204267
-9.49169148748
-9.50749309308
-9.5205034517
-9.53062796845
-9.53777136259
-9.54183750327
-9.54272918518
-9.54034909925
-9.53459931043
-9.52538211556
-9.51259892887
-9.49615178033
-9.47594286003
-9.45187509768
-9.42385201866
-9.39177789251
-9.35555827622
-9.31509963925
-9.270310584
-9.22110081449
-9.16738280783
-9.10907032457
-9.0460808342
-8.97833379609
-8.90575216696
-8.82826214986
-8.74579371871
-8.65828254581
-8.56566745091
-8.46789505497
-8.3649168056
-8.25669432544
-8.14319843901
-8.02441240042
-7.90033573409
-7.77098594581
-7.63640755962
-7.49667282094
-7.35189313782
-7.20222137192
-7.04786396468
-6.88907706733
-6.72617750567
-6.55954697394
-6.3896769362
-1.96628401648
-1.9351865991
-1.95040972287
-2.0020788677
-2.07613559561
-2.16433692035
-2.25974124758
-2.35701006927
-2.45292207034
-2.54593276513
-2.63556810876
-2.72195862063
-2.80552314132
-2.88677176775
-2.96620034728
-3.0442416504
-3.12125099517
-3.1975076008
-3.27322452333
-3.34856023662
-3.42363038277
-3.49851789752
-3.57328104019
-3.64796032376
-3.72258347114
-3.79716819452
-3.87172649598
-3.9462658131
-4.02079038862
-4.09530223578
-4.16980215675
-4.24429008767
-4.31876544547
-4.39322711827
-4.4676736713
-4.54210353682
-4.61651496135
-4.69090600728
-4.76527467359
-4.83961886266
-4.91393630301
-4.98822439925
-5.0624804674
-5.13670169552
-5.2108851274
-5.28502744127
-5.35912502488
-5.43317406964
-5.50717055292
-5.58111008291
-5.65498790684
-5.72879898604
-5.80253792976
-5.87619895369
-5.94977577437
-6.02326170209
-6.09664965451
-6.16993201667
-6.24310065371
-6.31614687106
-6.38906148841
-6.46183464177
-6.53445573432
-6.60691355735
-6.67919626709
-6.75129129267
-6.82318516562
-6.89486363543
-6.96631165529
-7.03751327819
-7.10845152633
-7.17910842616
-7.24946507478
-7.31950157336
-7.38919689173
-7.4585287421
-7.52747362334
-7.59600684283
-7.66410251002
-7.73173336685
-7.79887072759
-7.86548454577
-7.93154332215
-7.99701397686
-8.06186177914
-8.12605054571
-8.18954259452
-8.25229843485
-8.31427678238
-8.37543461376
-8.43572728985
-8.49510827196
-8.55352900828
-8.61093913224
-8.66728643892
-8.72251695293
-8.7765744725
-8.8294007784
-8.88093572764
-8.93111736251
-8.97988172759
-9.02716254839
-9.07289180316
-9.11699952578
-9.15941383552
-9.20006049808
-9.23886360121
-9.27574546026
-9.31062660031
-9.34342546143
-9.37405865921
-9.40244152938
-9.42848754924
-9.45210880946
-9.47321548192
-9.49171689037
-9.50752081867
-9.52053404785
-9.53066204877
-9.53780946526
-9.54188037405
-9.54277782566
-9.54040468566
-9.53466313974
-9.52545574988
-9.51268436577
-9.49625136646
-9.47605946252
-9.4520121596
-9.42401367987
-9.39196898756
-9.35578463754
-9.31536822094
-9.27062969894
-9.22148048774
-9.16783508914
-9.10960964871
-9.04672415913
-8.97910137185
-8.90666816265
-8.82935547561
-8.74709848125
-8.65983932806
-8.5675244345
-8.47010920961
-8.36755553397
-8.2598365753
-8.14693728966
-8.02885673164
-7.90561277967
-7.77724297396
-7.64381437091
-7.50542499046
-7.36221463584
-7.21436893593
-7.06213310496
-6.90581526002
-6.74580133819
-6.58257003548
-6.41672882082
-1.94703511745
-1.91547126924
-1.93511450573
-1.99256187536
-2.07157483136
-2.16335334518
-2.26097119764
-2.35935899519
-2.45564060704
-2.54857440434
-2.63790696744
-2.72391085758
-2.80708676672
-2.88798595742
-2.96712031381
-3.04492458246
-3.12174895556
-3.19786482635
-3.27347684805
-3.34873577167
-3.42375057449
-3.49859882044
-3.57333443703
-3.6479944556
-3.72260512205
-3.79718145136
-3.87173428162
-3.94627005685
-4.02079240477
-4.09530296268
-4.16980219243
-4.24428976463
-4.31876495025
-4.39322659409
-4.46767320715
-4.54210314015
-4.61651462833
-4.69090575616
-4.76527450521
-4.83961874657
-4.91393621665
-4.98822435514
-5.0624804641
-5.13670170309
-5.21088511625
-5.28502743327
-5.35912506086
-5.43317413278
-5.50717061077
-5.58111013663
-5.65498799282
-5.72879910037
-5.80253801792
-5.87619899757
-5.94977580917
-6.02326174073
-6.09664967691
-6.16993203052
-6.24310068812
-6.31614691754
-6.38906149441
-6.46183459763
-6.53445568696
-6.60691352462
-6.67919620129
-6.75129115511
-6.82318499619
-6.89486347831
-6.96631148479
-7.03751302781
-7.1084511761
-7.1791080213
-7.249464659
-7.31950113449
-7.38919639161
-7.45852817599
-7.52747300165
-7.59600613882
-7.66410167534
-7.73173241616
-7.79886969915
-7.86548340315
-7.93154198838
-7.9970124527
-8.06186013674
-8.12604877655
-8.18954063381
-8.25229626076
-8.31427443346
-8.37543210461
-8.43572456511
-8.49510530816
-8.55352582839
-8.61093574822
-8.66728279347
-8.72251297021
-8.77657016799
-8.82939621259
-8.88093090247
-8.93111217716
-8.97987614012
-9.02715668563
-9.07288571763
-9.1169931223
-9.15940707151
-9.20005349532
-9.23885644162
-9.2757381146
-9.3106190389
-9.34341782607
-9.37405110206
-9.40243415473
-9.42848049377
-9.45210230586
-9.47320978187
-9.49171216944
-9.50751738281
-9.52053236619
-9.53066278894
-9.53781322159
-9.54188780181
-9.54278985943
-9.5404225403
-9.53468817396
-9.52548948012
-9.51272874964
-9.49630879985
-9.47613286681
-9.45210496782
-9.4241299824
-9.39211358836
-9.35596338322
-9.31558822189
-9.27089937038
-9.22180983199
-9.16823602446
-9.11009662237
-9.0473142542
-8.97981486857
-8.9075291636
-8.83039280167
-8.74834624251
-8.66133782935
-8.56932149399
-8.47226114393
-8.37012912193
-8.2629099758
-8.15060215926
-8.03322011336
-7.9107995623
-7.78339829271
-7.65110545255
-7.51404496419
-7.37238539859
-7.22634625233
-7.07621072926
-6.92233361647
-6.76515585236
-6.6052200055
-6.44319361289
-1.9048013969
-1.87375317175
-1.90368140829
-1.97345487303
-2.0626231277
-2.16149983821
-2.26337916978
-2.36385167462
-2.4607783987
-2.55352464338
-2.64226187278
-2.72752826912
-2.80997342487
-2.89022117088
-2.96881017472
-3.04617691436
-3.12266093462
-3.19851839078
-3.27393808167
-3.34905636251
-3.42396992824
-3.49874640713
-3.57343204266
-3.64805840701
-3.72264475441
-3.79720544139
-3.87174823302
-3.94627761643
-4.02079595946
-4.09530411452
-4.16980202135
-4.24428895846
-4.31876387313
-4.39322543972
-4.46767210092