/*--------------------------------*- C++ -*----------------------------------*\
| =========                 |                                                 |
| \\      /  F ield         | OpenFOAM: The Open Source CFD Toolbox           |
|  \\    /   O peration     | Version:  2106                                  |
|   \\  /    A nd           | Website:  www.openfoam.com                      |
|    \\/     M anipulation  |                                                 |
\*---------------------------------------------------------------------------*/
FoamFile
{
    version     2.0;
    format      ascii;
    arch        "LSB;label=32;scalar=64";
    class       volScalarField;
    location    "0.48";
    object      p;
}
// * * * * * * * * * * * * * * * * * * * * * * * * * * * * * * * * * * * * * //

dimensions      [0 2 -2 0 0 0 0];

internalField   nonuniform List<scalar> 
9600
(
2.27407242314
-0.623939034801
-1.52816842472
-1.91377952542
-2.13311065501
-2.27305350689
-2.37695885004
-2.46450877089
-2.54400836137
-2.61939872917
-2.69277273761
-2.76528140411
-2.83755450892
-2.90992294477
-2.98254329766
-3.05547136118
-3.12870713539
-3.20222229434
-3.27597660244
-3.34992724219
-3.42403347079
-3.49826083995
-3.57257884529
-3.64696324418
-3.72139475541
-3.79585828208
-3.87034216558
-3.94483746831
-4.01933736239
-4.09383662995
-4.16833123248
-4.24281796282
-4.31729417148
-4.3917575424
-4.46620594047
-4.54063732949
-4.61504972408
-4.68944115716
-4.76380964819
-4.8381531539
-4.91246949798
-4.98675629751
-5.0610109422
-5.13523057343
-5.20941208245
-5.28355214303
-5.35764719493
-5.43169341501
-5.50568670595
-5.57962266166
-5.65349657544
-5.72730342809
-5.801037878
-5.87469416807
-5.94826609529
-6.02174696667
-6.0951295735
-6.16840619836
-6.2415686306
-6.31460814651
-6.38751549067
-6.46028082906
-6.53289368374
-6.60534286834
-6.67761645434
-6.74970174879
-6.82158527102
-6.89325273876
-6.96468904488
-7.03587821202
-7.10680333324
-7.17744651889
-7.24778882806
-7.31781021942
-7.3874895008
-7.45680431315
-7.52573112788
-7.59424524573
-7.66232076
-7.72993047206
-7.79704578781
-7.86363662351
-7.92967134988
-7.99511678702
-8.05993822875
-8.12409944923
-8.18756265888
-8.25028841694
-8.31223554201
-8.37336105079
-8.43362012669
-8.49296610767
-8.55135048432
-8.60872289723
-8.66503111892
-8.72022101274
-8.77423646039
-8.82701929057
-8.87850930283
-8.9286443535
-8.97736038384
-9.02459140653
-9.07026943999
-9.11432444915
-9.1566843657
-9.19727503914
-9.23602037391
-9.27284245856
-9.30766161566
-9.34039643176
-9.37096373146
-9.39927856845
-9.42525426643
-9.44880247226
-9.46983331488
-9.48825548948
-9.50397637781
-9.51690204769
-9.52693735642
-9.53398604412
-9.53795086192
-9.5387337276
-9.53623583
-9.53035768069
-9.52099935289
-9.50806112138
-9.49144142571
-9.47103830376
-9.44674975712
-9.41847357476
-9.38610725832
-9.349547878
-9.30869194301
-9.26343532339
-9.21367305002
-9.15929895158
-9.10020518142
-9.03628158746
-8.96741484321
-8.89348736421
-8.81437593579
-8.72994987574
-8.64006874459
-8.54457951551
-8.44331269
-8.33607697844
-8.22265239253
-8.10278101007
-7.97615396314
-7.8423924849
-7.70101949319
-7.55141535094
-7.39274497461
-7.22383128885
-7.04294033383
-6.84746631626
-6.63344601812
-6.3950517066
-6.13290276933
-5.90663776843
0.362532232552
-0.819824477697
-1.42849668
-1.78252126035
-2.02513763008
-2.19570084767
-2.32377280567
-2.42827576354
-2.51935157997
-2.60263023561
-2.68140328889
-2.7576203554
-2.83244092054
-2.90655320675
-2.9803592388
-3.05408563497
-3.12785213839
-3.20171453527
-3.27569150385
-3.34978133584
-3.42397241199
-3.49824822348
-3.57259209159
-3.64698861457
-3.7214241497
-3.79588723318
-3.87036847272
-3.94486028437
-4.01935661132
-4.09385264373
-4.16834452796
-4.24282910138
-4.31730368167
-4.3917658885
-4.46621351066
-4.54064444047
-4.61505664051
-4.68944811249
-4.76381685579
-4.83816080234
-4.91247773874
-4.98676523907
-5.06102064138
-5.13524107293
-5.20942344386
-5.28356443844
-5.35766050245
-5.43170780583
-5.50570226089
-5.57963948197
-5.65351476136
-5.72732309369
-5.80105913324
-5.8747171341
-5.94829089121
-6.02177371054
-6.09515838032
-6.16843719263
-6.24160195366
-6.31464395073
-6.38755394107
-6.46032210519
-6.53293796654
-6.60539034075
-6.67766730486
-6.74975617899
-6.82164350297
-6.89331501672
-6.96475562585
-7.03594935715
-7.1068793136
-7.1775276023
-7.24787528073
-7.31790230466
-7.38758749289
-7.45690850575
-7.52584184365
-7.5943628377
-7.66244560423
-7.73006295832
-7.79718630591
-7.86378555111
-7.92982905479
-7.99528364672
-8.06011465154
-8.12428587855
-8.1877595587
-8.25049625423
-8.31245478011
-8.37359215072
-8.43386354699
-8.49322230474
-8.55161991981
-8.60900605527
-8.6653285221
-8.72053320829
-8.77456398192
-8.82736264466
-8.87886899464
-8.92902091378
-8.97775437271
-9.02500338731
-9.07069997923
-9.11477411774
-9.15715368616
-9.19776450744
-9.23653048425
-9.27337371223
-9.30821450986
-9.34097145758
-9.37156127107
-9.39989880535
-9.42589750715
-9.44946908899
-9.47052368524
-9.48897000152
-9.50471540905
-9.51766600142
-9.52772666697
-9.53480113154
-9.53879213944
-9.53960166747
-9.53713099827
-9.53128072452
-9.52195068125
-9.50903968024
-9.49244720787
-9.4720722957
-9.44781345909
-9.41956898802
-9.38723696881
-9.3507151833
-9.30990104104
-9.26469154111
-9.21498309958
-9.16067128731
-9.10165045123
-9.03781312266
-8.96904929077
-8.89524554751
-8.81628389806
-8.73204020221
-8.64238235121
-8.54716797413
-8.44624129183
-8.33942895143
-8.22653467794
-8.10733235123
-7.9815568775
-7.84889163495
-7.70895125313
-7.5612587905
-7.40521582995
-7.24006494726
-7.06485533239
-6.87848729749
-6.67990418476
-6.46787445999
-6.24221662749
-6.02355743223
-0.613309663468
-1.09467981773
-1.48593708744
-1.77755319559
-1.99912669118
-2.16706255599
-2.29916443667
-2.40895329035
-2.50481210863
-2.59195689234
-2.67369919057
-2.75213370241
-2.8285808685
-2.90387031616
-2.97851822302
-3.05283990234
-3.1270224772
-3.20117214659
-3.27534483795
-3.34956603656
-3.42384354693
-3.49817524727
-3.57255430635
-3.64697226747
-3.72142030401
-3.79589020805
-3.87037477302
-3.94486785983
-4.01936433351
-4.09385994992
-4.16835119554
-4.24283510049
-4.31730907525
-4.39177077751
-4.46621800815
-4.54064865818
-4.61506068484
-4.68945208662
-4.76382085621
-4.83816489698
-4.9124819651
-4.98676962002
-5.06102521419
-5.13524587745
-5.20942852192
-5.28356985076
-5.35766632817
-5.43171414935
-5.50570919053
-5.57964705472
-5.65352301361
-5.72733207326
-5.80106887839
-5.87472767631
-5.94830225794
-6.02178593089
-6.09517149145
-6.16845125128
-6.24161702817
-6.31466012202
-6.38757130029
-6.46034073689
-6.53295794376
-6.60541173381
-6.67769019341
-6.74978066168
-6.82166970657
-6.89334308913
-6.96478571159
-7.03598156721
-7.10691373989
-7.17756432185
-7.2479143695
-7.31794385413
-7.38763161889
-7.45695535647
-7.52589159791
-7.59441568888
-7.66250174221
-7.73012255729
-7.7972495197
-7.86385252036
-7.92989992524
-7.99535858882
-8.06019386721
-8.12436958839
-8.18784798098
-8.25058959173
-8.31255321757
-8.37369585705
-8.43397268138
-8.49333702893
-8.55174041425
-8.60913253624
-8.66546124112
-8.7206724161
-8.77470990126
-8.82751549009
-8.8790289816
-8.92918821817
-8.97792912861
-9.02518576749
-9.07089015625
-9.11497225722
-9.15735992872
-9.19797899292
-9.23675339067
-9.27360524514
-9.30845491596
-9.34122098616
-9.37182027057
-9.40016795857
-9.42617717738
-9.44975959864
-9.47082542051
-9.48928339553
-9.50504091585
-9.51800410209
-9.52807786418
-9.53516598782
-9.53917131124
-9.53999590505
-9.53754117826
-9.53170797657
-9.52239665193
-9.50950707926
-9.49293847435
-9.47258972524
-9.44835961828
-9.42014687711
-9.38785010527
-9.35136777949
-9.31059825168
-9.26543967399
-9.21578986141
-9.16154611244
-9.10260490967
-9.03886147851
-8.97020922992
-8.89653898332
-8.81773796519
-8.73368869128
-8.64426755524
-8.54934290666
-8.44877265056
-8.34240125108
-8.23005591271
-8.11154184078
-7.98663640174
-7.85508191945
-7.71657732467
-7.57076971224
-7.41724864526
-7.25554987817
-7.08518253341
-6.90573521408
-6.71714280994
-6.51978821039
-6.31458596599
-6.10962286406
-1.16477027145
-1.35111804363
-1.59356429322
-1.81603224692
-2.00322283038
-2.15725060562
-2.28568802609
-2.39597879355
-2.49377350714
-2.58313362437
-2.66690482689
-2.74703159996
-2.82482147511
-2.90114355719
-2.97656823615
-3.05146415448
-3.12606500285
-3.20051524197
-3.27490111532
-3.34927150945
-3.42365187317
-3.49805339264
-3.57247949077
-3.64692810767
-3.72139582271
-3.79587804531
-3.87037006587
-3.94486747571
-4.01936630655
-4.09386307753
-4.16835477138
-4.24283873588
-4.31731257318
-4.39177405335
-4.46622104813
-4.54065149532
-4.61506338204
-4.689454724
-4.76382351055
-4.83816762821
-4.91248480388
-4.98677257998
-5.06102829464
-5.1352490832
-5.20943187631
-5.28357339003
-5.35767009448
-5.43171817913
-5.50571353431
-5.57965173679
-5.65352810303
-5.72733761875
-5.8010749112
-5.8747342154
-5.94830930333
-6.0217934726
-6.09517954632
-6.16845985504
-6.24162623787
-6.31467002099
-6.38758195655
-6.46035218771
-6.53297021164
-6.60542484574
-6.67770419829
-6.74979563795
-6.82168575508
-6.89336030896
-6.96480418474
-7.03600136704
-7.10693488405
-7.17758681275
-7.2479382254
-7.31796912457
-7.38765838912
-7.45698374326
-7.52592173494
-7.59444770786
-7.66253575701
-7.73015865696
-7.79728777585
-7.86389300629
-7.92994273637
-7.99540385107
-8.06024172731
-8.12442019444
-8.18790146806
-8.25064607584
-8.31261279376
-8.37375860333
-8.4340386718
-8.49340635571
-8.55181320981
-8.60920897701
-8.66554152261
-8.72075672131
-8.77479840163
-8.82760836849
-8.8791264424
-8.92929051838
-8.97803656121
-9.02529855337
-9.07100850394
-9.11509633685
-9.15748991464
-9.19811510736
-9.23689591061
-9.2737544646
-9.30861110984
-9.34138433079
-9.37199083092
-9.40034562294
-9.42636205856
-9.44995191714
-9.47102544553
-9.489491459
-9.50525739236
-9.51822937641
-9.52831233826
-9.53541014177
-9.53942573785
-9.54026130003
-9.53781837577
-9.53199796569
-9.52270056376
-9.50982615064
-9.49327434291
-9.47294457192
-9.44873622161
-9.42054863814
-9.38828113847
-9.35183309947
-9.3111039882
-9.26599331324
-9.21640056551
-9.16222507559
-9.10336578006
-9.03972095
-8.97118777446
-8.89766169992
-8.8190357048
-8.73519956698
-8.64603882823
-8.55143336248
-8.45125569154
-8.34536901906
-8.23362496149
-8.11586085591
-7.99189669018
-7.86153231334
-7.72454570714
-7.58069401863
-7.42972030167
-7.27137239901
-7.10544236105
-6.93184831128
-6.75079143169
-6.56281585456
-6.36871122315
-6.17154211847
-1.50211580024
-1.55388024842
-1.69777437652
-1.86206756467
-2.01640030965
-2.15445805422
-2.27661172898
-2.38540021001
-2.48384440199
-2.57467460296
-2.66008237056
-2.74172050345
-2.82079063349
-2.89814457109
-2.97437399641
-3.04988262546
-3.12494116566
-3.19972779124
-3.27435728993
-3.34890168051
-3.42340462374
-3.49789137113
-3.57237569854
-3.64686337459
-3.72135694307
-3.79585597164
-3.87035865622
-3.94486263808
-4.01936537197
-4.09386434129
-4.16835717108
-4.24284163393
-4.31731560596
-4.39177702964
-4.46622388926
-4.54065419769
-4.61506599092
-4.68945730486
-4.763826123
-4.83817031667
-4.91248759517
-4.98677548145
-5.06103131095
-5.13525223279
-5.20943520573
-5.28357696606
-5.35767399702
-5.43172248145
-5.50571829111
-5.57965699303
-5.65353388506
-5.72734392927
-5.8010817632
-5.8747416101
-5.94831725073
-6.02180198633
-6.09518865357
-6.16846960275
-6.24163669017
-6.31468124394
-6.38759400565
-6.46036509954
-6.53298401283
-6.60543957598
-6.67771992982
-6.74981247747
-6.82170382731
-6.89337973571
-6.96482505569
-7.03602372555
-7.10695875539
-7.17761222294
-7.24796522231
-7.3179977887
-7.38768883313
-7.45701609997
-7.52595613889
-7.59448427989
-7.66257459634
-7.73019984607
-7.7973313972
-7.86393916238
-7.9299915597
-7.99545549765
-8.0602963586
-8.12447796167
-8.18796250439
-8.25071049474
-8.31268068963
-8.37383005697
-8.4341137651
-8.49348518794
-8.5518959115
-8.60929570522
-8.66563243456
-8.72085196129
-8.77489810672
-8.82771266998
-8.87923546216
-8.92940433291
-8.9781552071
-9.02542211003
-9.07113703938
-9.1152299063
-9.15762859232
-9.19825901929
-9.23704524512
-9.27390942713
-9.30877188218
-9.34155104752
-9.37216365488
-9.40052474994
-9.42654772616
-9.45014438359
-9.47122499221
-9.48969841483
-9.50547215062
-9.51845236861
-9.52854403043
-9.53565106832
-9.53967653671
-9.5405227686
-9.53809150178
-9.53228395043
-9.52300081945
-9.51014235455
-9.49360851693
-9.47329918773
-9.44911427058
-9.42095373664
-9.38871771585
-9.35230659017
-9.31162102318
-9.26656198938
-9.21703078938
-9.1629289595
-9.1041581398
-9.04061990751
-8.97221545402
-8.89884514541
-8.82040809668
-8.73680170055
-8.64792096002
-8.55365758967
-8.45389897096
-8.34852711814
-8.23741772872
-8.12043910971
-7.99745127602
-7.86830621326
-7.73285007356
-7.59092907746
-7.44240088292
-7.28715501275
-7.12514607761
-6.95644175829
-6.78128372539
-6.60005599718
-6.41307582629
-6.22103303373
-1.70619013344
-1.70121266007
-1.7851871803
-1.90597636943
-2.03261920064
-2.15529893991
-2.27019573753
-2.37639199891
-2.47467515758
-2.56646442399
-2.65322549729
-2.73624084424
-2.81654509404
-2.8949318903
-2.97198922773
-3.0481416641
-3.12368939529
-3.19884075746
-3.27373775916
-3.34847540113
-3.42311594911
-3.49769925157
-3.57225007502
-3.64678364705
-3.72130774158
-3.79582689672
-3.87034258905
-3.94485475648
-4.01936247791
-4.09386435878
-4.16835878165
-4.2428440254
-4.31731829984
-4.39177976349
-4.46622654011
-4.54065673353
-4.61506843715
-4.68945970794
-4.76382853007
-4.83817276201
-4.91249009986
-4.98677805526
-5.06103396267
-5.13525497977
-5.20943808149
-5.28358001587
-5.35767725481
-5.43172597746
-5.50572204178
-5.57966102708
-5.653538235
-5.72734863855
-5.80108686552
-5.8747471278
-5.94832318434
-6.02180834434
-6.09519545748
-6.16847689567
-6.24164453082
-6.31468968873
-6.38760309865
-6.46037486785
-6.53299447277
-6.60545075074
-6.67773187004
-6.74982526092
-6.8217175458
-6.89339446363
-6.96484083541
-7.036040561
-7.10697663664
-7.17763115361
-7.24798524475
-7.31801899553
-7.38771135539
-7.45704007495
-7.52598168086
-7.59451146884
-7.66260348338
-7.73023046986
-7.79736380421
-7.86397342248
-7.93002777072
-7.99549377602
-8.06033682229
-8.12452071639
-8.18800763836
-8.25075808246
-8.31273080381
-8.37388278241
-8.43416920917
-8.49354348863
-8.55195723298
-8.60936021461
-8.66570028345
-8.72092329145
-8.7749730652
-8.82779140738
-8.87931812016
-8.92949107274
-8.97824619595
-9.02551750172
-9.07123695354
-9.11533447232
-9.157737968
-9.19837341225
-9.23716487655
-9.27403449706
-9.30890253181
-9.34168741229
-9.37230586319
-9.40067296563
-9.42670214482
-9.45030522771
-9.4713925418
-9.48987300755
-9.50565418117
-9.51864229314
-9.52874237583
-9.53585844446
-9.53989367435
-9.54075057243
-9.53833107494
-9.53253660819
-9.52326810588
-9.51042611087
-9.49391097376
-9.47362302893
-9.44946271083
-9.42133066768
-9.38912787843
-9.35275574891
-9.31211619714
-9.26711173432
-9.21764548591
-9.16362119674
-9.10494325291
-9.0415165761
-8.97324637603
-8.90003793408
-8.82179642556
-8.73842669984
-8.64983297309
-8.55591834962
-8.45658432176
-8.35173050206
-8.24125459055
-8.12505251203
-8.00301900978
-7.8750494695
-7.74104380174
-7.60091391556
-7.45459491601
-7.30206133354
-7.14334896711
-6.97857634836
-6.80795517607
-6.63172225435
-6.44993681067
-6.26250141449
-1.82931902428
-1.8038635706
-1.85322231174
-1.94338196114
-2.04830659424
-2.15762888628
-2.26546574018
-2.36868944321
-2.46636335987
-2.55875394336
-2.64662553594
-2.73086968835
-2.81232511475
-2.89170307165
-2.96957078958
-3.04636267791
-3.12240178322
-3.19792280818
-3.2730929391
-3.34802915022
-3.42281190182
-3.49749559329
-3.57211633765
-3.64669784481
-3.72125416066
-3.79579475797
-3.87032440664
-3.94484541967
-4.01935857091
-4.09386364993
-4.1683598503
-4.24284599415
-4.31732064803
-4.39178219964
-4.46622891716
-4.54065900114
-4.61507060057
-4.68946180528
-4.76383060526
-4.83817485185
-4.91249222858
-4.98678023743
-5.06103621296
-5.13525732081
-5.20944054726
-5.28358264026
-5.35768006772
-5.43172899863
-5.50572530256
-5.57966456643
-5.6535420881
-5.7273528402
-5.801091427
-5.87475204676
-5.9483284598
-6.02181397799
-6.09520146972
-6.16848333557
-6.24165146175
-6.31469716301
-6.38761115203
-6.46038352095
-6.53300374157
-6.60546065989
-6.67774246254
-6.74983660155
-6.82172970205
-6.8934074893
-6.96485475521
-7.03605538028
-7.10699236534
-7.17764782613
-7.24800293154
-7.31803780069
-7.38773139676
-7.45706145675
-7.52600447567
-7.59453571866
-7.66262921753
-7.73025772604
-7.79739264079
-7.86400391932
-7.93006002139
-7.99552787488
-8.06037285354
-8.12455874922
-8.18804772886
-8.25080028255
-8.31277517484
-8.37392940691
-8.43421819244
-8.49359494778
-8.55201127793
-8.60941693643
-8.66575975956
-8.7209855996
-8.7750382911
-8.82785962952
-8.87938942097
-8.92956553375
-8.97832390841
-9.0255985434
-9.07132139582
-9.11542242008
-9.1578295814
-9.19846890292
-9.23726443629
-9.27413829943
-9.30901072651
-9.34180015799
-9.37242333341
-9.40079533011
-9.4268295895
-9.4504379855
-9.47153091437
-9.4900173524
-9.50580490385
-9.51879986885
-9.5289073688
-9.53603151163
-9.54007560896
-9.54094232901
-9.53853380755
-9.53275167848
-9.52349711274
-9.51067096262
-9.49417395745
-9.47390688694
-9.4497707708
-9.42166698687
-9.38949735812
-9.35316429899
-9.31257100025
-9.26762151677
-9.21822077755
-9.16427469946
-9.10569033741
-9.04237585618
-8.97424039288
-8.90119398745
-8.82314758458
-8.74001307238
-8.65170326673
-8.55813177075
-8.45921296686
-8.35486226711
-8.24499661438
-8.12953546165
-8.00840224745
-7.88152691369
-7.74885017481
-7.61033049662
-7.46595341918
-7.31574302056
-7.15977437242
-6.99818013682
-6.83114295001
-6.65883706006
-6.48129563414
-6.29839013851
-1.90336088986
-1.87231192235
-1.90224200637
-1.97201446162
-2.06118255899
-2.16005934431
-2.26193855227
-2.36241087098
-2.45933753748
-2.55208396985
-2.64082128727
-2.72608782553
-2.8085329548
-2.8887806052
-2.96736936676
-3.04473593032
-3.12121991448
-3.19707751065
-3.27249740811
-3.347615848
-3.42252950591
-3.49730587503
-3.57199135977
-3.64661755694
-3.7212037973
-3.7957643873
-3.87030707767
-3.94483637719
-4.01935462051
-4.09386270083
-4.16836057702
-4.24284758227
-4.31732261448
-4.39178426733
-4.46623093887
-4.5406609141
-4.6150724011
-4.68946352382
-4.76383228963
-4.83817654512
-4.91249396016
-4.98678202519
-5.06103807087
-5.13525927065
-5.209442612
-5.28358483699
-5.35768240206
-5.43173146979
-5.50572791775
-5.57966734516
-5.65354506494
-5.72735605901
-5.80109492747
-5.87475584726
-5.94833255736
-6.02181836688
-6.09520616015
-6.16848836254
-6.24165687369
-6.31470300999
-6.38761747206
-6.46039033687
-6.53301106603
-6.60546850422
-6.67775084582
-6.74984555559
-6.82173926256
-6.89341767828
-6.96486557855
-7.03606684361
-7.10700449303
-7.17766067463
-7.24801658636
-7.31805235998
-7.38774694842
-7.45707805983
-7.52602215655
-7.59455448569
-7.6626490852
-7.73027873196
-7.7974148476
-7.86402740421
-7.9300848607
-7.99555413145
-8.06040057291
-8.12458796591
-8.18807847948
-8.2508326194
-8.31280917437
-8.37396516964
-8.43425583433
-8.49363458219
-8.55205299752
-8.60946081119
-8.66580584526
-8.72103395592
-8.77508898248
-8.8279127221
-8.87944498547
-8.9296236482
-8.9783846511
-9.02566197901
-9.0713875966
-9.11549148687
-9.15790163901
-9.19854409152
-9.23734289127
-9.27422014735
-9.30909609817
-9.34188919693
-9.37251619121
-9.40089215209
-9.42693054525
-9.45054330256
-9.47164088068
-9.49013230625
-9.50592523281
-9.51892604077
-9.52903995069
-9.53617119369
-9.54022321685
-9.54109885884
-9.53870042829
-9.53292974824
-9.52368823113
-9.51087703826
-9.49439728465
-9.47415024531
-9.45003754651
-9.42196128744
-9.38982413871
-9.35352953243
-9.31298188004
-9.26808669023
-9.21875067053
-9.16488191013
-9.10639003413
-9.04318626046
-8.97518343086
-8.90229608783
-8.82444063351
-8.74153552856
-8.65350144608
-8.56026145968
-8.46174147148
-8.35787080111
-8.24858300723
-8.13381731756
-8.01352052316
-7.88764992187
-7.75617746729
-7.61909553592
-7.47642450078
-7.32822093881
-7.17458505989
-7.01566299076
-6.85163826455
-6.68269752584
-6.50896797111
-6.33053306514
-1.94559374742
-1.91403052586
-1.93367512507
-1.99112116634
-2.07013440454
-2.16191305023
-2.25953069124
-2.35791827741
-2.45419986278
-2.54713384969
-2.63646649815
-2.72247055446
-2.80564640689
-2.8865454273
-2.96567947579
-3.04348361624
-3.1203080178
-3.19642408514
-3.27203630892
-3.34729536203
-3.42231020712
-3.49715832115
-3.57189383743
-3.64655374596
-3.72116438561
-3.79574070751
-3.87029353703
-3.94482927441
-4.01935147078
-4.09386188496
-4.16836107486
-4.24284876774
-4.31732410965
-4.39178584681
-4.46623247659
-4.54066235251
-4.61507373563
-4.68946478668
-4.76383352756
-4.83817779958
-4.91249525918
-4.9867833873
-5.06103950921
-5.13526080343
-5.20944424658
-5.28358657107
-5.35768422579
-5.43173337101
-5.50572989903
-5.57966943626
-5.65354731021
-5.72735850197
-5.80109759471
-5.87475873746
-5.94833565378
-6.02182166092
-6.09520966235
-6.16849210514
-6.24166090464
-6.31470738006
-6.3876222206
-6.4603954839
-6.53301661798
-6.60547446095
-6.67775721234
-6.74985234442
-6.82174648438
-6.89342533524
-6.96487366831
-7.03607537157
-7.10701349151
-7.17767020905
-7.24802674225
-7.31806321806
-7.38775856233
-7.45709045075
-7.52603532635
-7.59456843932
-7.66266384855
-7.73029435498
-7.79743139382
-7.86404493516
-7.93010342148
-7.99557374312
-8.06042123535
-8.12460967231
-8.18810123891
-8.25085647496
-8.3128342032
-8.37399146611
-8.43428349033
-8.49366367413
-8.55208358189
-8.60949292469
-8.66583951538
-8.72106922657
-8.77512590676
-8.82795136102
-8.87948540452
-8.92966591043
-8.9784288063
-9.02570808054
-9.07143570671
-9.11554168214
-9.15795401472
-9.19859875203
-9.23739993398
-9.2742796845
-9.30915825867
-9.34195412475
-9.37258402525
-9.40096303578
-9.42700464442
-9.4506208322
-9.47172211027
-9.49021755546
-9.50601488443
-9.51902056046
-9.52913990573
-9.53627728359
-9.54033628906
-9.54121991848
-9.5388306406
-9.53307044504
-9.52384096772
-9.51104369518
-9.49458017795
-9.47435221231
-9.45026200767
-9.42221234336
-9.39010674563
-9.35384967604
-9.31334670591
-9.26850470821
-9.21923211578
-9.16543913908
-9.10703788629
-9.04394248619
-8.97606925578
-8.90333694211
-8.82566705477
-8.74298415976
-8.65521615737
-8.56229473068
-8.46415603425
-8.36074158563
-8.25199940754
-8.13788562188
-8.0183664992
-7.8934216817
-7.76304819302
-7.62726532573
-7.48612118534
-7.33969963281
-7.18812598618
-7.03157044976
-6.87024666234
-6.70439870886
-6.5342853148
-6.3602223631
-1.96484212596
-1.93374649489
-1.94897001311
-2.00063795998
-2.07469546975
-2.16289679358
-2.25830081532
-2.35556947535
-2.45148148007
-2.54449232308
-2.6341277435
-2.72051840931
-2.80408282781
-2.88533126319
-2.96475955401
-3.04280079275
-3.11981018475
-3.19606699508
-3.27178409194
-3.34711990059
-3.42219003798
-3.49707742093
-3.57184051318
-3.64651974165
-3.72114297977
-3.79572782428
-3.8702862045
-3.94482544242
-4.01934978028
-4.09386147052
-4.1683614001
-4.24284949883
-4.31732502868
-4.39178681179
-4.46623340017
-4.54066319833
-4.61507451192
-4.68946553038
-4.76383428134
-4.83817859518
-4.91249611329
-4.98678430519
-5.06104049972
-5.13526187133
-5.20944539133
-5.28358777596
-5.35768546879
-5.43173463987
-5.50573120097
-5.57967080147
-5.65354878923
-5.72736013961
-5.80109940733
-5.87476071406
-5.94833776627
-6.02182388525
-6.09521200042
-6.16849458
-6.24166356172
-6.31471027308
-6.38762538881
-6.46039894139
-6.53302035616
-6.60547846798
-6.67776147956
-6.74985686526
-6.82175125235
-6.8934303448
-6.96487892249
-7.03608089339
-7.10701932875
-7.17767642873
-7.2480334091
-7.31807037296
-7.3877662114
-7.45709857363
-7.52604390339
-7.59457747562
-7.66267337978
-7.7303044356
-7.79744207915
-7.86405626486
-7.93011540931
-7.99558637646
-8.06043448596
-8.12462351709
-8.18811568411
-8.2508715686
-8.31285002421
-8.37400809665
-8.43430099329
-8.49368208923
-8.55210293087
-8.60951321454
-8.66586076163
-8.72109144728
-8.77514912969
-8.8279756268
-8.87951076241
-8.92969240657
-8.97845649048
-9.02573696824
-9.07146582175
-9.11557306594
-9.15798673408
-9.19863286684
-9.23743553227
-9.27431686902
-9.30919714526
-9.34199483843
-9.37262670499
-9.40100784075
-9.4270517567
-9.4506704511
-9.47177446678
-9.49027293887
-9.50607367394
-9.5190832233
-9.52920701288
-9.53634952254
-9.540414497
-9.54130508378
-9.53892389271
-9.53317308176
-9.52395453201
-9.5111700772
-9.49472171703
-9.47451177553
-9.45044304221
-9.42241896157
-9.39034387723
-9.35412324626
-9.31366380241
-9.2688737934
-9.21966330543
-9.16594452843
-9.10763194775
-9.04464253206
-8.97689595951
-8.90431498063
-8.82682588971
-8.74435893134
-8.65684874999
-8.56423500201
-8.46646316459
-8.36348575375
-8.25526375199
-8.14176824713
-8.02298262187
-7.89890592389
-7.76955697722
-7.63497896841
-7.49524544966
-7.35046751326
-7.20080045209
-7.04644841274
-6.88767167292
-6.72478793972
-6.55818041744
-6.38834426684
-1.96484204496
-1.93374639054
-1.94896999077
-2.00063799937
-2.07469555133
-2.16289686379
-2.25830087196
-2.35556953193
-2.45148153455
-2.54449237423
-2.63412778824
-2.72051844033
-2.80408284906
-2.88533129364
-2.96475961491
-3.04280089281
-3.1198103018
-3.19606708593
-3.27178412216
-3.34711986176
-3.42218995804
-3.4970773573
-3.57184052321
-3.64651985225
-3.72114317807
-3.79572806491
-3.87028643371
-3.94482562887
-4.01934993293
-4.09386162554
-4.16836159347
-4.24284973916
-4.31732529556
-4.39178706884
-4.46623361932
-4.54066337539
-4.61507467266
-4.68946571675
-4.76383452808
-4.83817891758
-4.91249650665
-4.98678476136
-5.06104101697
-5.1352624478
-5.20944601637
-5.28358843025
-5.35768612896
-5.43173529449
-5.50573185695
-5.57967148692
-5.65354954688
-5.72736100177
-5.80110037598
-5.8747617639
-5.94833886693
-6.02182501453
-6.09521315285
-6.16849577814
-6.24166484454
-6.31471168331
-6.38762695455
-6.46040066839
-6.53302223181
-6.60548047476
-6.67776360553
-6.74985909987
-6.82175358295
-6.8934327587
-6.9648814208
-7.03608349821
-7.10702207822
-7.17767936358
-7.24803656287
-7.31807375207
-7.38776979078
-7.45710231972
-7.52604780102
-7.59458154344
-7.66267766178
-7.7303089819
-7.79744692737
-7.86406142607
-7.93012086169
-7.99559207211
-8.06044037233
-8.12462956359
-8.18812189757
-8.25087798881
-8.31285670635
-8.37401509055
-8.43430832442
-8.49368976041
-8.55211093149
-8.60952153991
-8.66586942701
-8.7211004835
-8.77515855975
-8.82798546535
-8.87952103493
-8.92970313349
-8.97846766858
-9.02574859323
-9.07147791311
-9.11558563601
-9.1579997992
-9.19864645193
-9.23744970358
-9.27433170789
-9.30921275262
-9.34201132845
-9.37264421164
-9.40102652816
-9.42707181068
-9.45069206695
-9.4717978541
-9.49029836761
-9.50610150431
-9.51911390991
-9.52924111432
-9.53638772568
-9.54045762026
-9.54135405662
-9.53897977734
-9.53323716048
-9.52402838842
-9.51125564607
-9.49482135568
-9.47462835807
-9.4505800326
-9.42258049417
-9.39053487697
-9.35434959944
-9.31393256766
-9.26919342599
-9.22004387692
-9.16639801185
-9.10817261124
-9.04528740108
-8.97766535971
-8.90523317755
-8.82792178483
-8.74566685613
-8.65840944715
-8.5660967652
-8.46868311251
-8.36613136825
-8.25841460141
-8.1455178113
-8.02744032171
-7.90419925297
-7.77583386591
-7.64241042348
-7.50402804865
-7.36082584205
-7.21299249652
-7.06077154925
-6.90447418393
-6.74448745291
-6.58129183607
-6.41549679146
-1.94559353513
-1.91403022953
-1.93367506636
-1.99112126783
-2.0701346227
-2.16191324283
-2.25953085075
-2.3579184351
-2.45420001543
-2.54713399997
-2.63646663364
-2.7224706531
-2.80564648046
-2.88654552574
-2.96567965842
-3.04348390591
-3.12030835556
-3.19642435391
-3.27203640786
-3.34729526496
-3.42230999338
-3.4971581532
-3.57189387639
-3.64655406858
-3.72116495501
-3.79574139477
-3.87029419496
-3.94482982403
-4.01935194029
-4.09386237253
-4.16836167266
-4.24284949507
-4.31732490213
-4.39178660282
-4.46623312006
-4.54066288169
-4.61507423047
-4.68946536634
-4.76383428813
-4.83817878145
-4.91249644779
-4.98678475561
-5.06104104747
-5.13526250386
-5.20944609089
-5.2835885108
-5.35768619298
-5.4317353266
-5.50573186355
-5.57967149213
-5.65354958084
-5.72736108572
-5.80110050451
-5.87476190946
-5.94833898784
-6.02182507659
-6.09521314278
-6.16849570941
-6.24166475194
-6.31471160126
-6.38762690357
-6.46040064941
-6.53302223294
-6.60548047944
-6.67776359726
-6.7498590608
-6.82175349235
-6.89343260066
-6.96488119318
-7.03608321473
-7.10702176048
-7.177679027
-7.24803620132
-7.31807333554
-7.38776927675
-7.457101675
-7.52604702311
-7.59458066116
-7.66267671805
-7.73030801282
-7.79744594634
-7.86406041309
-7.93011976164
-7.99559081067
-8.06043888715
-8.12462782941
-8.18811992303
-8.25087579111
-8.31285429532
-8.37401246528
-8.43430547351
-8.49368666723
-8.55210758056
-8.60951793219
-8.66586556677
-8.72109637933
-8.77515421036
-8.82798087165
-8.87951619358
-8.92969803122
-8.97846229754
-9.02574294338
-9.07147196234
-9.11557936729
-9.15799318573
-9.19863948766
-9.23744240376
-9.27432414068
-9.30920501928
-9.34200355602
-9.37263653449
-9.40101909085
-9.42706477264
-9.45068560388
-9.471792176
-9.49029374736
-9.50609827871
-9.5191125026
-9.52924206485
-9.53639169893
-9.54046538694
-9.54136649354
-9.5389979291
-9.5332623259
-9.52406217756
-9.51130002837
-9.49487872677
-9.47470159956
-9.45067260024
-9.42269653736
-9.39067937072
-9.35452847876
-9.31415290554
-9.26946365703
-9.22037406329
-9.16680016879
-9.1086610641
-9.04587919149
-8.978380788
-8.90609644923
-8.82896169578
-8.74691759414
-8.65991155385
-8.56789823477
-8.47084062196
-8.36871167511
-8.26149619477
-8.14919278765
-8.03181637072
-7.90940168784
-7.78200790656
-7.64972415211
-7.5126755896
-7.37103001831
-7.22500950035
-7.07489622689
-6.92104781158
-6.76390576445
-6.60401475199
-6.44204323221
-1.90336062576
-1.87231147818
-1.90224193822
-1.97201459065
-2.06118284758
-2.16005960875
-2.26193877519
-2.36241109137
-2.45933777143
-2.55208422659
-2.64082153332
-2.72608801639
-2.80853310392
-2.88878078133
-2.96736965729
-3.04473637669
-3.12122043894
-3.19707794502
-3.27249759848
-3.3476157517
-3.42252923663
-3.49730566709
-3.57199144961
-3.64661806108
-3.72120465977
-3.79576542475
-3.87030809144
-3.94483727164
-4.01935544075
-4.09386357662
-4.16836161923
-4.24284879964
-4.31732390171