/*--------------------------------*- C++ -*----------------------------------*\
| =========                 |                                                 |
| \\      /  F ield         | OpenFOAM: The Open Source CFD Toolbox           |
|  \\    /   O peration     | Version:  2106                                  |
|   \\  /    A nd           | Website:  www.openfoam.com                      |
|    \\/     M anipulation  |                                                 |
\*---------------------------------------------------------------------------*/
FoamFile
{
    version     2.0;
    format      ascii;
    arch        "LSB;label=32;scalar=64";
    class       surfaceScalarField;
    location    "0.48";
    object      phi;
}
// * * * * * * * * * * * * * * * * * * * * * * * * * * * * * * * * * * * * * //

dimensions      [0 3 -1 0 0 0 0];

oriented        oriented;

internalField   nonuniform List<scalar> 
18840
(
3.37543045884e-05
1.62456954088e-05
2.25359622613e-05
1.12183419356e-05
1.6302378145e-05
6.23358444164e-06
1.28098251332e-05
3.49255290492e-06
1.08065801781e-05
2.0032451139e-06
9.6047692987e-06
1.20181086101e-06
8.85167878646e-06
7.53090551223e-07
8.36503097325e-06
4.86647828084e-07
8.04518637926e-06
3.19844539027e-07
7.83374218507e-06
2.11444129103e-07
7.69428222367e-06
1.39459931696e-07
7.6030805444e-06
9.1201648429e-08
7.54426565039e-06
5.88148672605e-08
7.50707740013e-06
3.71882499609e-08
7.48418947301e-06
2.28879234597e-08
7.47062396367e-06
1.35655021698e-08
7.46302142963e-06
7.60251232149e-09
7.45913868783e-06
3.88273762606e-09
7.45749899145e-06
1.63971363568e-09
7.45714593908e-06
3.53074985868e-10
7.45748332279e-06
-3.37337960405e-10
7.45813442851e-06
-6.51046241722e-10
7.4588864573e-06
-7.51988072572e-10
7.45962018189e-06
-7.3369350757e-10
7.46027668288e-06
-6.56476304326e-10
7.46083317232e-06
-5.56495741767e-10
7.46128735945e-06
-4.54221314173e-10
7.46164757469e-06
-3.60261943353e-10
7.46192674066e-06
-2.79225247929e-10
7.46213893018e-06
-2.12244384195e-10
7.46229750003e-06
-1.58598170716e-10
7.46241418348e-06
-1.16687608013e-10
7.46249880835e-06
-8.46102390535e-11
7.46255933223e-06
-6.04946246982e-11
7.46260201927e-06
-4.2659923502e-11
7.46263170319e-06
-2.96706229098e-11
7.46265205385e-06
-2.03484801305e-11
7.46266580602e-06
-1.37546630095e-11
7.46267496425e-06
-9.15505659708e-12
7.46268097586e-06
-5.99030555253e-12
7.46268487497e-06
-3.857681944e-12
7.46268742175e-06
-2.49126528739e-12
7.46268902445e-06
-1.55473691754e-12
7.46268996218e-06
-9.11862459805e-13
7.46269052404e-06
-5.65289650414e-13
7.46269087509e-06
-3.80829418178e-13
7.46269111788e-06
-2.84444603122e-13
7.46269130926e-06
-2.40786084238e-13
7.46269148252e-06
-2.32120573806e-13
7.46269167187e-06
-2.47419835406e-13
7.46269189615e-06
-2.73930233515e-13
7.46269217455e-06
-2.99082054693e-13
7.46269250576e-06
-3.23625080443e-13
7.4626928874e-06
-3.42340852504e-13
7.46269330694e-06
-3.58624715372e-13
7.46269375422e-06
-3.7833295451e-13
7.46269421804e-06
-4.06703003944e-13
7.46269469953e-06
-4.43333026694e-13
7.46269520216e-06
-4.83997844158e-13
7.46269573612e-06
-5.26176011574e-13
7.46269630948e-06
-5.66783444865e-13
7.4626969229e-06
-6.03508537122e-13
7.4626975679e-06
-6.40917309588e-13
7.4626982363e-06
-6.8339093594e-13
7.46269892586e-06
-7.31547661475e-13
7.4626996391e-06
-7.82087909485e-13
7.46270038307e-06
-8.30263697327e-13
7.46270116523e-06
-8.71163402564e-13
7.46270199338e-06
-9.03068825487e-13
7.46270287148e-06
-9.26663741908e-13
7.46270380213e-06
-9.40519760407e-13
7.46270478044e-06
-9.51222927519e-13
7.46270580015e-06
-9.647273511e-13
7.46270685089e-06
-9.89981507759e-13
7.46270792561e-06
-1.03247419788e-12
7.46270902566e-06
-1.09351145451e-12
7.46271016477e-06
-1.16506645233e-12
7.46271136138e-06
-1.23456548218e-12
7.46271262566e-06
-1.29329216908e-12
7.46271395175e-06
-1.33890199251e-12
7.46271532132e-06
-1.37580924353e-12
7.46271671584e-06
-1.41354657808e-12
7.46271812898e-06
-1.4605956567e-12
7.4627195711e-06
-1.51811277449e-12
7.46272106124e-06
-1.57939432371e-12
7.46272261503e-06
-1.63499548606e-12
7.46272423833e-06
-1.67974783058e-12
7.46272592912e-06
-1.71500208964e-12
7.46272768304e-06
-1.74525538795e-12
7.46272949586e-06
-1.77588051366e-12
7.46273136269e-06
-1.81428929506e-12
7.46273328123e-06
-1.86970156386e-12
7.46273525696e-06
-1.94866616515e-12
7.46273730547e-06
-2.04833096832e-12
7.46273944908e-06
-2.15564418582e-12
7.46274170207e-06
-2.26067183988e-12
7.46274406202e-06
-2.37091023948e-12
7.46274653038e-06
-2.50310452806e-12
7.46274913421e-06
-2.6667660054e-12
7.46275191319e-06
-2.86714458284e-12
7.46275494646e-06
-3.13089368661e-12
7.46275829148e-06
-3.43501106727e-12
7.46276198942e-06
-3.77519026065e-12
7.46276612808e-06
-4.16530431108e-12
7.46277077002e-06
-4.66150833745e-12
7.46277602833e-06
-5.30103846893e-12
7.46278208058e-06
-6.10172021873e-12
7.46278914194e-06
-7.08916769327e-12
7.462797457e-06
-8.307335837e-12
7.46280731271e-06
-9.80503789362e-12
7.46281909574e-06
-1.16607085579e-11
7.46283323495e-06
-1.39979384847e-11
7.46285028517e-06
-1.69363059678e-11
7.46287094929e-06
-2.0580475131e-11
7.46289609658e-06
-2.50905625023e-11
7.46292681278e-06
-3.06792617925e-11
7.46296442613e-06
-3.76161674343e-11
7.46301061194e-06
-4.62010824359e-11
7.46306743117e-06
-5.68061846456e-11
7.46313740736e-06
-6.99266119563e-11
7.46322366526e-06
-8.61809137193e-11
7.46333009559e-06
-1.06325382278e-10
7.46346159732e-06
-1.3136777856e-10
7.46362475585e-06
-1.62995498542e-10
7.46383024185e-06
-2.0529718157e-10
7.4640812575e-06
-2.50826639973e-10
7.46439026021e-06
-3.08800229047e-10
7.46477244993e-06
-3.82015967522e-10
7.46524565007e-06
-4.73058954815e-10
7.46583166541e-06
-5.85865596278e-10
7.46655742698e-06
-7.25566067862e-10
7.46745627614e-06
-8.98619124807e-10
7.468569572e-06
-1.11305644229e-09
7.46994864774e-06
-1.37885348254e-09
7.47165721555e-06
-1.70840715567e-09
7.47377440623e-06
-2.11710058712e-09
7.47639856849e-06
-2.62408455662e-09
7.47965199269e-06
-3.25333014159e-09
7.48368691707e-06
-4.03485301558e-09
7.48869317424e-06
-5.00622112679e-09
7.49490786617e-06
-6.21465298381e-09
7.50262772121e-06
-7.71980379255e-09
7.51222510341e-06
-9.59732156772e-09
7.52416886416e-06
-1.19436563084e-08
7.53905168816e-06
-1.48826951328e-08
7.55762664032e-06
-1.85748631892e-08
7.58085673786e-06
-2.32300091389e-08
7.60998302122e-06
-2.91261307889e-08
7.64662046721e-06
-3.66372613616e-08
7.69289775104e-06
-4.62771149711e-08
7.75167049516e-06
-5.87726227479e-08
7.82687320239e-06
-7.52026637987e-08
7.92417616503e-06
-9.73029268461e-08
8.05243184947e-06
-1.28255450899e-07
8.22740984951e-06
-1.74977663512e-07
8.48237605488e-06
-2.54966160535e-07
8.89945325495e-06
-4.17077343075e-07
9.70911404484e-06
-8.09661011941e-07
1.16183554387e-05
-1.90924157868e-06
-5.16418973908e-06
1.67825454825e-05
5.01388820857e-05
1.61068137491e-05
4.41591291702e-05
1.71980943352e-05
3.77598738984e-05
1.26328400822e-05
3.26495144919e-05
8.60291215815e-06
2.89465822451e-05
5.70617753695e-06
2.63676032918e-05
3.7807898472e-06
2.45938853706e-05
2.52680844005e-06
2.33783984484e-05
1.70213471017e-06
2.25473239465e-05
1.15091898721e-06
2.19811569345e-05
7.7761105656e-07
2.15978045581e-05
5.22812246348e-07
2.13405416202e-05
3.48464563883e-07
2.11699442009e-05
2.29412282062e-07
2.10585365546e-05
1.48595902877e-07
2.09871855293e-05
9.42389314034e-08
2.09426220365e-05
5.81289766392e-08
2.09157075227e-05
3.45170078646e-08
2.09002077321e-05
1.93825417993e-08
2.08919202765e-05
9.92724226987e-09
2.08880551472e-05
4.21828227924e-09
2.08867854784e-05
9.3239271647e-10
2.08869504906e-05
-8.15990388584e-10
2.08878288263e-05
-1.63027894793e-09
2.08889873503e-05
-1.89221195527e-09
2.08901807853e-05
-1.84992293196e-09
2.08912813509e-05
-1.65710663186e-09
2.08922328074e-05
-1.40576147828e-09
2.08930204677e-05
-1.14800204446e-09
2.08936520487e-05
-9.10864806826e-10
2.08941459219e-05
-7.06153525656e-10
2.08945241853e-05
-5.36858586603e-10
2.08948087585e-05
-4.01225148225e-10
2.08950194327e-05
-2.9524279095e-10
2.08951731014e-05
-2.14130648837e-10
2.08952836203e-05
-1.5316326117e-10
2.08953620193e-05
-1.08073042147e-10
2.0895416882e-05
-7.52175031734e-11
2.08954547529e-05
-5.16100268237e-11
2.08954805231e-05
-3.48733348795e-11
2.08954977791e-05
-2.31656388003e-11
2.08955090967e-05
-1.5090889344e-11
2.08955162838e-05
-9.61149771739e-12
2.0895520748e-05
-5.97782800167e-12
2.08955234814e-05
-3.64476666766e-12
2.08955250694e-05
-2.18676289229e-12
2.08955259079e-05
-1.27965186233e-12
2.08955263021e-05
-7.50169726824e-13
2.08955265251e-05
-5.49148513199e-13
2.08955266544e-05
-4.44738063483e-13
2.08955267444e-05
-3.98609724265e-13
2.08955268435e-05
-3.9558278232e-13
2.0895526981e-05
-4.13489174678e-13
2.08955271679e-05
-4.44492179299e-13
2.08955274031e-05
-4.87136044682e-13
2.0895527675e-05
-5.41296162578e-13
2.08955279698e-05
-6.06631488971e-13
2.08955282832e-05
-6.83278200799e-13
2.08955286189e-05
-7.64136250473e-13
2.08955289809e-05
-8.46949805589e-13
2.08955293768e-05
-9.28835824766e-13
2.08955298101e-05
-1.00543921562e-12
2.0895530275e-05
-1.08019582336e-12
2.08955307617e-05
-1.16054803459e-12
2.08955312652e-05
-1.2488516659e-12
2.08955317853e-05
-1.34065804932e-12
2.08955323253e-05
-1.42789311715e-12
2.0895532894e-05
-1.49925281794e-12
2.08955334959e-05
-1.54605264848e-12
2.08955341372e-05
-1.56949744664e-12
2.08955348234e-05
-1.5879622999e-12
2.08955355527e-05
-1.61257822808e-12
2.08955363206e-05
-1.6546558185e-12
2.0895537118e-05
-1.71989770495e-12
2.08955379333e-05
-1.8067841937e-12
2.08955387617e-05
-1.91071367822e-12
2.08955396131e-05
-2.02243431668e-12
2.08955405068e-05
-2.1304826439e-12
2.08955414598e-05
-2.22782313266e-12
2.08955424784e-05
-2.31508266941e-12
2.08955435537e-05
-2.39965925708e-12
2.0895544666e-05
-2.49144283268e-12
2.08955457989e-05
-2.59650541341e-12
2.08955469507e-05
-2.71235605849e-12
2.08955481367e-05
-2.82863544763e-12
2.08955493807e-05
-2.93397964322e-12
2.08955507015e-05
-3.02403984874e-12
2.08955521075e-05
-3.1041998571e-12
2.08955535999e-05
-3.18523682806e-12
2.08955551792e-05
-3.27841965038e-12
2.08955568473e-05
-3.39537666669e-12
2.08955586069e-05
-3.54795041057e-12
2.08955604671e-05
-3.74522550286e-12
2.08955624518e-05
-3.98909342587e-12
2.08955646009e-05
-4.27008281671e-12
2.08955669593e-05
-4.57685885131e-12
2.08955695595e-05
-4.91721237246e-12
2.08955724249e-05
-5.3155945044e-12
2.08955756003e-05
-5.78966345197e-12
2.089557918e-05
-6.35496338599e-12
2.08955832823e-05
-7.04896163295e-12
2.08955879974e-05
-7.89998266267e-12
2.08955934879e-05
-8.92534705274e-12
2.08955999004e-05
-1.01738832459e-11
2.08956074289e-05
-1.17002356072e-11
2.08956163178e-05
-1.35939964707e-11
2.08956269017e-05
-1.59439353515e-11
2.08956395918e-05
-1.88287886288e-11
2.08956548705e-05
-2.23481784054e-11
2.08956732712e-05
-2.6592694891e-11
2.08956952387e-05
-3.16103103116e-11
2.08957215125e-05
-3.76680780419e-11
2.08957547177e-05
-4.69469260007e-11
2.08957957365e-05
-5.77112513643e-11
2.08958462609e-05
-7.08946260021e-11
2.0895908511e-05
-8.71657084568e-11
2.08959852819e-05
-1.07301470761e-10
2.089608005e-05
-1.3224346292e-10
2.08961971341e-05
-1.6312222801e-10
2.08963418477e-05
-2.01349682703e-10
2.08965207404e-05
-2.4866874452e-10
2.08967419103e-05
-3.07212195262e-10
2.08970153454e-05
-3.79611355109e-10
2.08973532853e-05
-4.6914027651e-10
2.08977704373e-05
-5.79953940341e-10
2.08982829107e-05
-7.17562548113e-10
2.08989212718e-05
-8.8899062513e-10
2.08997145295e-05
-1.10191568049e-09
2.09006984528e-05
-1.36575171437e-09
2.09019181092e-05
-1.69241995327e-09
2.09034295275e-05
-2.09689030527e-09
2.09053022148e-05
-2.59782164287e-09
2.09076223717e-05
-3.21836520101e-09
2.09104969016e-05
-3.98722541551e-09
2.0914058421e-05
-4.94006561738e-09
2.09184715056e-05
-6.12122262696e-09
2.09239404708e-05
-7.58583326438e-09
2.09307191376e-05
-9.40258718695e-09
2.09391231391e-05
-1.16572432162e-08
2.09495454178e-05
-1.44570577309e-08
2.09624757794e-05
-1.79364798026e-08
2.09785258208e-05
-2.22645779393e-08
2.09984608841e-05
-2.76547324854e-08
2.10232411977e-05
-3.43774584715e-08
2.10540754889e-05
-4.27777340433e-08
2.10924916701e-05
-5.32986773284e-08
2.11404313375e-05
-6.65144079584e-08
2.12003785225e-05
-8.31770727656e-08
2.12755388287e-05
-1.042861858e-07
2.13700961705e-05
-1.31194319875e-07
2.14895956562e-05
-1.657764808e-07
2.16415431462e-05
-2.10720102505e-07
2.18364032002e-05
-2.70062643089e-07
2.20893770521e-05
-3.50276737491e-07
2.24237817216e-05
-4.62660178159e-07
2.28777982362e-05
-6.28994244192e-07
2.35182069859e-05
-8.95375054001e-07
2.44664171217e-05
-1.36528735296e-06
2.59341705232e-05
-2.27741438812e-06
2.82106666226e-05
-4.18573794356e-06
-8.19843022195e-06
3.12449071321e-05
5.35844269926e-05
1.25223871291e-05
5.29166006724e-05
1.78659201544e-05
4.96393016148e-05
1.59101394244e-05
4.58382170606e-05
1.24039965606e-05
4.24428747355e-05
9.10151997267e-06
3.97331594721e-05
6.49050513338e-06
3.76912454922e-05
4.56872237234e-06
3.62011671557e-05
3.19221300906e-06
3.51355937571e-05
2.21649237437e-06
3.43848446679e-05
1.52836011521e-06
3.38626591071e-05
1.04499778233e-06
3.35040067617e-05
7.07116915551e-07
3.32609627814e-05
4.72456288539e-07
3.30987207856e-05
3.10837899893e-07
3.29922908026e-05
2.00668887366e-07
3.29239196515e-05
1.26500119863e-07
3.28811297657e-05
7.73069025436e-08
3.28552511792e-05
4.52611378554e-08
3.28403346994e-05
2.48437647798e-08
3.28323547938e-05
1.21982395569e-08
3.28286288991e-05
4.65831004465e-09
3.28274049693e-05
4.07958597602e-10
3.28275644195e-05
-1.78971281492e-09
3.28284104915e-05
-2.73829779171e-09
3.28295266109e-05
-2.96606944733e-09
3.2830676289e-05
-2.80681613509e-09
3.28317364218e-05
-2.46594129334e-09
3.28326528905e-05
-2.06451110336e-09
3.28334115556e-05
-1.66954704817e-09
3.28340198547e-05
-1.31445444383e-09
3.28344955061e-05
-1.01249074688e-09
3.28348597919e-05
-7.65469624149e-10
3.28351338136e-05
-5.69223792857e-10
3.28353366399e-05
-4.16932531579e-10
3.28354845459e-05
-3.01062898822e-10
3.28355908763e-05
-2.14414292875e-10
3.28356662586e-05
-1.50617321448e-10
3.28357189608e-05
-1.04316287898e-10
3.28357552791e-05
-7.11729327856e-11
3.28357799252e-05
-4.7773059073e-11
3.28357963733e-05
-3.14960247056e-11
3.28358071563e-05
-2.03630260755e-11
3.2835814081e-05
-1.28940220093e-11
3.28358184152e-05
-7.99208620998e-12
3.28358210637e-05
-4.8537683928e-12
3.28358226677e-05
-2.89979737789e-12
3.28358236114e-05
-1.71980320777e-12
3.28358240563e-05
-1.02938025769e-12
3.28358241951e-05
-6.28872839237e-13
3.28358242262e-05
-4.58836635051e-13
3.28358242337e-05
-4.13811044717e-13
3.28358242563e-05
-4.18976832351e-13
3.28358243157e-05
-4.60123376011e-13
3.28358244145e-05
-5.25468989767e-13
3.2835824542e-05
-6.13610585056e-13
3.28358247011e-05
-7.19211590629e-13
3.28358248831e-05
-8.33796271086e-13
3.2835825086e-05
-9.50418112778e-13
3.28358253097e-05
-1.06157083665e-12
3.28358255625e-05
-1.1766178917e-12
3.28358258424e-05
-1.28910577432e-12
3.28358261435e-05
-1.40432384223e-12
3.28358264599e-05
-1.52512052799e-12
3.28358267907e-05
-1.6477454538e-12
3.28358271387e-05
-1.76366563285e-12
3.28358275056e-05
-1.86441145734e-12
3.28358278928e-05
-1.94133397266e-12
3.28358283006e-05
-1.98957398519e-12
3.2835828728e-05
-2.00626361585e-12
3.2835829184e-05
-2.03726170791e-12
3.2835829667e-05
-2.08269317663e-12
3.2835830177e-05
-2.15530435517e-12
3.28358307095e-05
-2.25568457349e-12
3.28358312554e-05
-2.3780073837e-12
3.2835831811e-05
-2.51197873768e-12
3.28358323856e-05
-2.64643903159e-12
3.28358329965e-05
-2.7752070958e-12
3.28358336572e-05
-2.89853556754e-12
3.28358343706e-05
-3.02176171405e-12
3.28358351267e-05
-3.15313034396e-12
3.28358359093e-05
-3.29873677758e-12
3.28358367092e-05
-3.45807906726e-12
3.28358375308e-05
-3.62303394895e-12
3.28358383898e-05
-3.7813629647e-12
3.2835839306e-05
-3.92479622188e-12
3.28358402938e-05
-4.05529002848e-12
3.28358413613e-05
-4.18409883522e-12
3.28358425134e-05
-4.32743530535e-12
3.28358437547e-05
-4.50265888773e-12
3.28358450919e-05
-4.72604156785e-12
3.28358465368e-05
-5.01097049539e-12
3.28358481118e-05
-5.36429298434e-12
3.28358498569e-05
-5.78460802708e-12
3.28358518226e-05
-6.26670596977e-12
3.2835854054e-05
-6.81560410957e-12
3.28358565873e-05
-7.45593382656e-12
3.28358594643e-05
-8.21792489859e-12
3.28358627379e-05
-9.12152347329e-12
3.28358664709e-05
-1.01694947435e-11
3.28358706993e-05
-1.13725554213e-11
3.28358759483e-05
-1.3256059854e-11
3.28358823227e-05
-1.53676773259e-11
3.28358900193e-05
-1.79146717233e-11
3.28358993067e-05
-2.10489892225e-11
3.28359105564e-05
-2.49279001751e-11
3.28359242677e-05
-2.97250414699e-11
3.2835941057e-05
-3.56501389561e-11
3.2835961709e-05
-4.29729488986e-11
3.28359872219e-05
-5.20295703937e-11
3.28360189862e-05
-6.32767729878e-11
3.2836058604e-05
-7.72615149538e-11
3.2836106361e-05
-9.46895453913e-11
3.28361649611e-05
-1.16284179314e-10
3.28362371194e-05
-1.43005684534e-10
3.28363260826e-05
-1.76086552565e-10
3.28364358599e-05
-2.17044494324e-10
3.28365714291e-05
-2.67749338597e-10
3.2836738936e-05
-3.30516929905e-10
3.28369459659e-05
-4.08221734492e-10
3.28372019061e-05
-5.04416761409e-10
3.28375183879e-05
-6.23483687613e-10
3.28379098387e-05
-7.70844751846e-10
3.28383941744e-05
-9.53246453608e-10
3.28389936508e-05
-1.17919890599e-09
3.2839735732e-05
-1.45940504042e-09
3.28406537717e-05
-1.80682484073e-09
3.28417898147e-05
-2.23779270301e-09
3.28431962292e-05
-2.77198273735e-09
3.28449377776e-05
-3.43370896958e-09
3.28470945304e-05
-4.25332122401e-09
3.28497656342e-05
-5.26857304613e-09
3.28530739479e-05
-6.52632350508e-09
3.28571717529e-05
-8.08472921999e-09
3.28622479232e-05
-1.00160103164e-08
3.2868536829e-05
-1.24099224006e-08
3.28763293516e-05
-1.5378139225e-08
3.28859867091e-05
-1.90597626781e-08
3.28979578902e-05
-2.36282896507e-08
3.29128015282e-05
-2.93005563462e-08
3.29312134336e-05
-3.634823998e-08
3.29540616307e-05
-4.51126583532e-08
3.2982431115e-05
-5.6024096163e-08
3.30176812035e-05
-6.96274118403e-08
3.3061519959e-05
-8.66163818982e-08
3.31161018547e-05
-1.07880482096e-07
3.31841573335e-05
-1.34569803847e-07
3.32691678232e-05
-1.68187473113e-07
3.337560708e-05
-2.10725266728e-07
3.35092823795e-05
-2.64869389061e-07
3.36778324455e-05
-3.34326434703e-07
3.38914802018e-05
-4.24367867606e-07
3.41642151202e-05
-5.4279741421e-07
3.45157037536e-05
-7.01765046224e-07
3.49744049593e-05
-9.21361204985e-07
3.55824300978e-05
-1.23701938083e-06
3.64019749578e-05
-1.71492010005e-06
3.75192342453e-05
-2.48254686322e-06
3.90246209917e-05
-3.78280113484e-06
4.08921305568e-05
-6.05324775037e-06
-9.91535486243e-06
4.26090558651e-05
5.35705203273e-05
8.95186707237e-06
5.55863054775e-05
1.5850134511e-05
5.52410589777e-05
1.62553862094e-05
5.35976158334e-05
1.40474395613e-05
5.15429059974e-05
1.11562298319e-05
4.95819405768e-05
8.45147058006e-06
4.79262513614e-05
6.22441157291e-06
4.66200400032e-05
4.49842433181e-06
4.56322341002e-05
3.20429826649e-06
4.49066879387e-05
2.25390629004e-06
4.43854426096e-05
1.56624314817e-06
4.40178332881e-05
1.07472625836e-06
4.37629128154e-05
7.27376792558e-07
4.35890453389e-05
4.84705382391e-07
4.34725021057e-05
3.17212092296e-07
4.33958690861e-05
2.03133126508e-07
4.33465910782e-05
1.2658492594e-07
4.33157569603e-05
7.60952642567e-08
4.32971355185e-05
4.34652219395e-08
4.32864339341e-05
2.28998403398e-08
4.32807406029e-05
1.03516222942e-08
4.32781178412e-05
3.03069157721e-09
4.32772911648e-05
-9.63051539671e-10
4.32774556813e-05
-2.90283685737e-09
4.32781070959e-05
-3.61750561799e-09
4.32789451239e-05
-3.64484705832e-09
4.32798001056e-05
-3.32092125474e-09
4.32805844401e-05
-2.84883842918e-09
4.32812602526e-05
-2.3453355018e-09
4.32818183756e-05
-1.87254481902e-09
4.32822650671e-05
-1.4591453687e-09
4.32826138307e-05
-1.11419208958e-09
4.32828805777e-05
-8.35941694939e-10
4.32830809759e-05
-6.17325207839e-10
4.3283229127e-05
-4.49228046446e-10
4.32833370293e-05
-3.22342548507e-10
4.32834145068e-05
-2.28121244987e-10
4.32834693715e-05
-1.59195392387e-10
4.32835076853e-05
-1.09485862404e-10
4.32835340547e-05
-7.4132704159e-11
4.32835519225e-05
-4.93492890214e-11
4.3283563819e-05
-3.22465009451e-11
4.32835715787e-05
-2.06448809361e-11
4.32835765196e-05
-1.29245617875e-11
4.32835795744e-05
-7.89285716752e-12
4.32835813866e-05
-4.68702511155e-12
4.32835824017e-05
-2.70588118149e-12
4.32835829432e-05
-1.54361204605e-12
4.32835832412e-05
-9.05400451639e-13
4.32835833575e-05
-5.78579410879e-13
4.32835833805e-05
-4.48231868744e-13
4.32835833696e-05
-4.08051045632e-13
4.32835833487e-05
-4.3443162555e-13
4.32835833288e-05
-5.0790104471e-13
4.32835833128e-05
-6.18860115586e-13
4.32835832923e-05
-7.43924152627e-13
4.32835832769e-05
-8.74020845557e-13
4.32835832731e-05
-9.97612344319e-13
4.32835832899e-05
-1.10857047128e-12
4.32835833255e-05
-1.21145725677e-12
4.32835833769e-05
-1.31393710063e-12
4.32835834358e-05
-1.42593144396e-12
4.32835835003e-05
-1.55348034144e-12
4.32835835717e-05
-1.69099392462e-12
4.32835836497e-05
-1.82379697893e-12
4.32835837368e-05
-1.93670703929e-12
4.32835838359e-05
-2.01944188524e-12
4.32835839425e-05
-2.07153794868e-12
4.32835840511e-05
-2.10522364118e-12
4.32835841544e-05
-2.15123732016e-12
4.3283584262e-05
-2.22376515187e-12
4.32835843808e-05
-2.32956370464e-12
4.32835845105e-05
-2.46294302246e-12
4.32835846448e-05
-2.60876170665e-12
4.32835847802e-05
-2.74990350778e-12
4.32835849233e-05
-2.87586992941e-12
4.32835850877e-05
-2.98838458945e-12
4.32835852847e-05
-3.09807335747e-12
4.32835855157e-05
-3.21859714203e-12
4.32835857727e-05
-3.36180544662e-12
4.32835860446e-05
-3.53184575583e-12
4.32835863277e-05
-3.7229640228e-12
4.32835866303e-05
-3.92278468409e-12
4.32835869681e-05
-4.11980900642e-12
4.32835873567e-05
-4.31063784313e-12
4.32835878067e-05
-4.50287695824e-12
4.32835883255e-05
-4.71116482e-12
4.32835889205e-05
-4.95398231631e-12
4.32835896007e-05
-5.25018315071e-12
4.328359038e-05
-5.61526586348e-12
4.328359128e-05
-6.05982065836e-12
4.32835923365e-05
-6.58438458751e-12
4.32835936028e-05
-7.185602103e-12
4.3283595136e-05
-7.87574762212e-12
4.32835969819e-05
-8.68933266551e-12
4.32835991887e-05
-9.67126454344e-12
4.32836018296e-05
-1.08655783225e-11
4.32836050172e-05
-1.23189689314e-11
4.3283608932e-05
-1.40954291256e-11
4.3283613869e-05
-1.62837678326e-11
4.32836196979e-05
-1.89861547373e-11
4.32836267614e-05
-2.22984034601e-11
4.32836353503e-05
-2.63890849859e-11
4.32836458053e-05
-3.14518711447e-11
4.32836585727e-05
-3.77085421605e-11
4.32836742314e-05
-4.54231145612e-11
4.32836934732e-05
-5.49275729255e-11
4.32837171639e-05
-6.66588143207e-11
4.32837463293e-05
-8.11703280478e-11
4.32837822659e-05
-9.91732449221e-11
4.32838265941e-05
-1.21563220301e-10
4.32838813904e-05
-1.49449218426e-10
4.32839491076e-05
-1.8393168013e-10
4.32840327522e-05
-2.26561775179e-10
4.32841360776e-05
-2.79322586848e-10
4.32842637523e-05
-3.44643041229e-10
4.32844215759e-05
-4.25497011411e-10
4.32846167145e-05
-5.25566017725e-10
4.32848580316e-05
-6.49419566424e-10
4.32851565018e-05
-8.02735417624e-10
4.32855257192e-05
-9.9254238694e-10
4.32859825569e-05
-1.22751889895e-09
4.3286547928e-05
-1.51844234593e-09
4.32872476983e-05
-1.87877564957e-09
4.32881138072e-05
-2.32532189687e-09
4.3289185876e-05
-2.87869630048e-09
4.32905128497e-05
-3.56455573362e-09
4.32921554721e-05
-4.41436009493e-09
4.32941890718e-05
-5.46702147036e-09
4.32967069345e-05
-6.7708751872e-09
4.32998246083e-05
-8.38591631385e-09
4.33036852528e-05
-1.03866179714e-08
4.33084662662e-05
-1.28654328918e-08
4.33143876001e-05
-1.59371159572e-08
4.33217220741e-05
-1.97442158234e-08
4.333080815e-05
-2.44640358193e-08
4.33420659182e-05
-3.03173325468e-08
4.33560171391e-05
-3.75792857081e-08
4.33733103419e-05
-4.65935282419e-08
4.33947523715e-05
-5.77900916926e-08
4.34213482792e-05
-7.17084656023e-08
4.34543519251e-05
-8.902766173e-08
4.34953303813e-05
-1.10605796781e-07
4.35462467558e-05
-1.37532749053e-07
4.36095676813e-05
-1.7120141549e-07
4.36884037906e-05
-2.13405862201e-07
4.37866958293e-05
-2.66479449055e-07
4.39094652307e-05
-3.33494631716e-07
4.40631567876e-05
-4.18560900501e-07
4.42561153374e-05
-5.27284970299e-07
4.44992589189e-05
-6.67511543861e-07
4.48070304485e-05
-8.50568983046e-07
4.51987132409e-05
-1.09344776621e-06
4.5700080983e-05
-1.4227289346e-06
4.63448250868e-05
-1.88176327796e-06
4.71734733504e-05
-2.54356820053e-06
4.82228982964e-05
-3.53197191841e-06
4.94886948316e-05
-5.04859750471e-06
5.08214877449e-05
-7.38604107371e-06
-1.08325073607e-05
5.17386399153e-05
5.27606087667e-05
6.19125856279e-06
5.57402404294e-05
1.28705023346e-05
5.73124120596e-05
1.46832148221e-05
5.76111979174e-05
1.37486535855e-05
5.7133868619e-05
1.16335591277e-05
5.63199841968e-05
9.26535503792e-06
5.54496451188e-05
7.09475066237e-06
5.46637030708e-05
5.28436637214e-06
5.40144132335e-05
3.85358811732e-06
5.35068427004e-05
2.76147685989e-06
5.31248782738e-05
1.94820764721e-06
5.28455242884e-05
1.35408027051e-06
5.26458881255e-05
9.27012968222e-07
5.25060755023e-05
6.24518011758e-07
5.24099978487e-05
4.13289727141e-07
5.23452163186e-05
2.6791464403e-07
5.23024113914e-05
1.69389871961e-07
5.22747665239e-05
1.03740137433e-07
5.22573943456e-05
6.0837383005e-08
5.22468522886e-05
3.34418744138e-08
5.22407560191e-05
1.64478422987e-08
5.22374829963e-05
6.30365010174e-09
5.22359417643e-05
5.78142555797e-10
5.22354264794e-05
-2.3875678306e-09
5.22354784324e-05
-3.66945713603e-09
5.22358133213e-05
-3.97970434377e-09
5.22362606323e-05
-3.76818992923e-09
5.22367234955e-05
-3.31166668889e-09
5.22371513556e-05
-2.7731569554e-09
5.22375218063e-05
-2.24295111891e-09
5.22378287953e-05
-1.76609192897e-09
5.22380751347e-05
-1.36049343673e-09
5.22382678622e-05
-1.02864564124e-09
5.22384155096e-05
-7.6497492021e-10
5.2238526587e-05
-5.6033227034e-10
5.22386088074e-05
-4.0460426369e-10
5.22386687644e-05
-2.88121323973e-10
5.22387118714e-05
-2.02337573646e-10
5.22387424392e-05
-1.4007539335e-10
5.22387638117e-05
-9.55210903676e-11
5.22387785345e-05
-6.40893074364e-11
5.22387885185e-05
-4.22439042782e-11
5.22387951769e-05
-2.7301497541e-11
5.22387995407e-05
-1.7260531765e-11
5.2238802349e-05
-1.06531724714e-11
5.2238804124e-05
-6.4035092001e-12
5.22388052091e-05
-3.73856018621e-12
5.22388058155e-05
-2.11071622533e-12
5.22388060881e-05
-1.15374023445e-12
5.22388061486e-05
-6.29733040069e-13
5.22388060895e-05
-3.76418990632e-13
5.22388059853e-05
-2.90043758064e-13
5.22388058752e-05
-3.16714035831e-13
5.22388057712e-05
-4.07087011733e-13
5.22388056752e-05
-5.34928020146e-13
5.22388055868e-05
-6.77449851506e-13
5.22388055051e-05
-8.17194782821e-13
5.22388054299e-05
-9.45215211931e-13
5.22388053601e-05
-1.05847706872e-12
5.22388052914e-05
-1.16271657908e-12
5.22388052213e-05
-1.26614530062e-12
5.22388051503e-05
-1.37591054574e-12
5.22388050813e-05
-1.49374525413e-12
5.2238805021e-05
-1.61768908527e-12
5.22388049719e-05
-1.73948821348e-12
5.22388049313e-05
-1.8478360196e-12
5.22388048892e-05
-1.93168948504e-12
5.22388048352e-05
-1.99547970959e-12
5.2238804761e-05
-2.05224912994e-12
5.22388046672e-05
-2.11818993862e-12
5.22388045671e-05
-2.20167389297e-12
5.22388044713e-05
-2.30379372203e-12
5.22388043804e-05
-2.41992301248e-12
5.22388042895e-05
-2.54260226715e-12
5.2238804194e-05
-2.66505125897e-12
5.22388040962e-05
-2.78580299364e-12
5.22388040055e-05
-2.90977446684e-12
5.22388039321e-05
-3.04526327987e-12
5.22388038792e-05
-3.19953234201e-12
5.22388038424e-05
-3.37520590952e-12
5.22388038136e-05
-3.56844987253e-12
5.22388037906e-05
-3.77068408217e-12
5.22388037806e-05
-3.97328717263e-12
5.22388037954e-05
-4.17305220185e-12
5.22388038451e-05
-4.3757019519e-12
5.22388039352e-05
-4.59508654352e-12
5.22388040697e-05
-4.84917909872e-12
5.22388042558e-05
-5.15660373174e-12
5.22388045046e-05
-5.53334803531e-12
5.22388048332e-05
-5.9920898513e-12
5.22388052669e-05
-6.54336231922e-12
5.22388058431e-05
-7.19389296165e-12
5.22388066132e-05
-7.95472455529e-12
5.22388076301e-05
-8.85578567177e-12
5.22388089372e-05
-9.94428865336e-12
5.22388105827e-05
-1.12763089992e-11
5.22388126386e-05
-1.291030823e-11
5.22388152039e-05
-1.4913453243e-11
5.22388184127e-05
-1.73732523145e-11
5.22388224387e-05
-2.03918100252e-11
5.22388275518e-05
-2.4142513105e-11
5.22388339789e-05
-2.87569125164e-11
5.22388420026e-05
-3.44529770822e-11
5.223885199e-05
-4.14916624986e-11
5.22388644153e-05
-5.01845195145e-11
5.22388798815e-05
-6.09071171649e-11
5.22388991014e-05
-7.41472891232e-11
5.22389229803e-05
-9.05221818357e-11
5.22389525886e-05
-1.10809537317e-10
5.22389893141e-05
-1.35935607399e-10
5.22390348219e-05
-1.67075932466e-10
5.22390911145e-05
-2.05684555511e-10
5.22391607538e-05
-2.53467499915e-10
5.2239246889e-05
-3.12601972157e-10
5.22393534376e-05
-3.85793183823e-10
5.22394852648e-05
-4.76387305688e-10
5.22396483946e-05
-5.88518276698e-10
5.22398502632e-05
-7.27298722574e-10
5.22401000563e-05
-8.9905817457e-10
5.22404091737e-05
-1.11169684226e-09
5.22407917583e-05
-1.37497811477e-09
5.22412653251e-05
-1.70092883842e-09
5.22418515602e-05
-2.1044989482e-09
5.22425772592e-05
-2.60428302453e-09
5.22434755346e-05
-3.22340100472e-09
5.22445874767e-05
-3.99042488005e-09
5.2245963893e-05
-4.94072116741e-09
5.2247667731e-05
-6.11792395055e-09
5.22497770255e-05
-7.57603101838e-09
5.22523884387e-05
-9.38199311129e-09
5.22556216697e-05
-1.16188524678e-08
5.22596249865e-05
-1.43896558805e-08
5.22645820903e-05
-1.78222812358e-08
5.22707206319e-05
-2.20754195971e-08
5.22783227718e-05
-2.73461346089e-08
5.22877383192e-05
-3.38793743556e-08
5.22994010983e-05
-4.19798866411e-08
5.23138493129e-05
-5.20272555338e-08
5.23317509938e-05
-6.44949839865e-08
5.23539358528e-05
-7.99747756727e-08
5.23814351865e-05
-9.92076694466e-08
5.24155320427e-05
-1.23124398308e-07
5.24578244266e-05
-1.52898091869e-07
5.25103053816e-05
-1.90013739115e-07
5.25754650808e-05
-2.36361218204e-07
5.26564211668e-05
-2.94361934797e-07
5.27570860089e-05
-3.67144171416e-07
5.28823828287e-05
-4.5879140785e-07
5.30385251658e-05
-5.74703304528e-07
5.32333753526e-05
-7.22135215996e-07
5.34768927788e-05
-9.11028934598e-07
5.37816548212e-05
-1.15533083798e-06
5.4163342018e-05
-1.47513483094e-06