/*--------------------------------*- C++ -*----------------------------------*\
| =========                 |                                                 |
| \\      /  F ield         | OpenFOAM: The Open Source CFD Toolbox           |
|  \\    /   O peration     | Version:  v1706                                 |
|   \\  /    A nd           | Web:      www.OpenFOAM.com                      |
|    \\/     M anipulation  |                                                 |
\*---------------------------------------------------------------------------*/
FoamFile
{
    version     2.0;
    format      ascii;
    class       volVectorField;
    location    "0";
    object      B;
}
// * * * * * * * * * * * * * * * * * * * * * * * * * * * * * * * * * * * * * //

dimensions      [1 0 -2 0 0 -1 0];


internalField   nonuniform List<vector> 
160000
(
(-0.0157026 0.0314014 0)
(-0.0157026 0.094099 0)
(-0.0157026 0.156425 0)
(-0.0157026 0.218134 0)
(-0.0157026 0.278982 0)
(-0.0157026 0.338729 0)
(-0.0157026 0.39714 0)
(-0.0157026 0.453982 0)
(-0.0157026 0.509034 0)
(-0.0157026 0.562076 0)
(-0.0157026 0.6129 0)
(-0.0157026 0.661305 0)
(-0.0157026 0.707101 0)
(-0.0157026 0.750105 0)
(-0.0157026 0.79015 0)
(-0.0157026 0.827076 0)
(-0.0157026 0.860738 0)
(-0.0157026 0.891003 0)
(-0.0157026 0.917751 0)
(-0.0157026 0.940878 0)
(-0.0157026 0.960291 0)
(-0.0157026 0.975915 0)
(-0.0157026 0.987687 0)
(-0.0157026 0.995561 0)
(-0.0157026 0.999506 0)
(-0.0157026 0.999507 0)
(-0.0157026 0.995563 0)
(-0.0157026 0.98769 0)
(-0.0157026 0.975919 0)
(-0.0157026 0.960296 0)
(-0.0157026 0.940883 0)
(-0.0157026 0.917758 0)
(-0.0157026 0.89101 0)
(-0.0157026 0.860746 0)
(-0.0157026 0.827085 0)
(-0.0157026 0.79016 0)
(-0.0157026 0.750116 0)
(-0.0157026 0.707112 0)
(-0.0157026 0.661318 0)
(-0.0157026 0.612913 0)
(-0.0157026 0.56209 0)
(-0.0157026 0.509048 0)
(-0.0157026 0.453997 0)
(-0.0157026 0.397155 0)
(-0.0157026 0.338745 0)
(-0.0157026 0.278998 0)
(-0.0157026 0.21815 0)
(-0.0157026 0.156442 0)
(-0.0157026 0.0941154 0)
(-0.0157026 0.0314178 0)
(-0.0157026 -0.0314037 0)
(-0.0157026 -0.0941014 0)
(-0.0157026 -0.156428 0)
(-0.0157026 -0.218137 0)
(-0.0157026 -0.278985 0)
(-0.0157026 -0.338732 0)
(-0.0157026 -0.397142 0)
(-0.0157026 -0.453985 0)
(-0.0157026 -0.509036 0)
(-0.0157026 -0.562078 0)
(-0.0157026 -0.612902 0)
(-0.0157026 -0.661307 0)
(-0.0157026 -0.707102 0)
(-0.0157026 -0.750107 0)
(-0.0157026 -0.790151 0)
(-0.0157026 -0.827077 0)
(-0.0157026 -0.860739 0)
(-0.0157026 -0.891004 0)
(-0.0157026 -0.917752 0)
(-0.0157026 -0.940879 0)
(-0.0157026 -0.960292 0)
(-0.0157026 -0.975915 0)
(-0.0157026 -0.987687 0)
(-0.0157026 -0.995561 0)
(-0.0157026 -0.999506 0)
(-0.0157026 -0.999507 0)
(-0.0157026 -0.995563 0)
(-0.0157026 -0.987689 0)
(-0.0157026 -0.975918 0)
(-0.0157026 -0.960295 0)
(-0.0157026 -0.940883 0)
(-0.0157026 -0.917757 0)
(-0.0157026 -0.891009 0)
(-0.0157026 -0.860745 0)
(-0.0157026 -0.827084 0)
(-0.0157026 -0.790158 0)
(-0.0157026 -0.750115 0)
(-0.0157026 -0.707111 0)
(-0.0157026 -0.661316 0)
(-0.0157026 -0.612911 0)
(-0.0157026 -0.562088 0)
(-0.0157026 -0.509046 0)
(-0.0157026 -0.453995 0)
(-0.0157026 -0.397152 0)
(-0.0157026 -0.338743 0)
(-0.0157026 -0.278996 0)
(-0.0157026 -0.218148 0)
(-0.0157026 -0.156439 0)
(-0.0157026 -0.0941131 0)
(-0.0157026 -0.0314155 0)
(-0.0157026 0.0314061 0)
(-0.0157026 0.0941037 0)
(-0.0157026 0.15643 0)
(-0.0157026 0.218139 0)
(-0.0157026 0.278987 0)
(-0.0157026 0.338734 0)
(-0.0157026 0.397144 0)
(-0.0157026 0.453987 0)
(-0.0157026 0.509038 0)
(-0.0157026 0.56208 0)
(-0.0157026 0.612904 0)
(-0.0157026 0.661309 0)
(-0.0157026 0.707104 0)
(-0.0157026 0.750108 0)
(-0.0157026 0.790153 0)
(-0.0157026 0.827078 0)
(-0.0157026 0.86074 0)
(-0.0157026 0.891005 0)
(-0.0157026 0.917753 0)
(-0.0157026 0.940879 0)
(-0.0157026 0.960293 0)
(-0.0157026 0.975916 0)
(-0.0157026 0.987688 0)
(-0.0157026 0.995562 0)
(-0.0157026 0.999506 0)
(-0.0157026 0.999507 0)
(-0.0157026 0.995562 0)
(-0.0157026 0.987689 0)
(-0.0157026 0.975917 0)
(-0.0157026 0.960295 0)
(-0.0157026 0.940882 0)
(-0.0157026 0.917756 0)
(-0.0157026 0.891008 0)
(-0.0157026 0.860744 0)
(-0.0157026 0.827082 0)
(-0.0157026 0.790157 0)
(-0.0157026 0.750113 0)
(-0.0157026 0.707109 0)
(-0.0157026 0.661314 0)
(-0.0157026 0.612909 0)
(-0.0157026 0.562086 0)
(-0.0157026 0.509044 0)
(-0.0157026 0.453993 0)
(-0.0157026 0.39715 0)
(-0.0157026 0.33874 0)
(-0.0157026 0.278994 0)
(-0.0157026 0.218146 0)
(-0.0157026 0.156437 0)
(-0.0157026 0.0941107 0)
(-0.0157026 0.0314131 0)
(-0.0157026 -0.0314084 0)
(-0.0157026 -0.094106 0)
(-0.0157026 -0.156432 0)
(-0.0157026 -0.218141 0)
(-0.0157026 -0.278989 0)
(-0.0157026 -0.338736 0)
(-0.0157026 -0.397146 0)
(-0.0157026 -0.453989 0)
(-0.0157026 -0.50904 0)
(-0.0157026 -0.562082 0)
(-0.0157026 -0.612906 0)
(-0.0157026 -0.661311 0)
(-0.0157026 -0.707106 0)
(-0.0157026 -0.75011 0)
(-0.0157026 -0.790154 0)
(-0.0157026 -0.82708 0)
(-0.0157026 -0.860741 0)
(-0.0157026 -0.891006 0)
(-0.0157026 -0.917754 0)
(-0.0157026 -0.94088 0)
(-0.0157026 -0.960293 0)
(-0.0157026 -0.975916 0)
(-0.0157026 -0.987688 0)
(-0.0157026 -0.995562 0)
(-0.0157026 -0.999507 0)
(-0.0157026 -0.999507 0)
(-0.0157026 -0.995562 0)
(-0.0157026 -0.987689 0)
(-0.0157026 -0.975917 0)
(-0.0157026 -0.960294 0)
(-0.0157026 -0.940881 0)
(-0.0157026 -0.917755 0)
(-0.0157026 -0.891007 0)
(-0.0157026 -0.860742 0)
(-0.0157026 -0.827081 0)
(-0.0157026 -0.790155 0)
(-0.0157026 -0.750111 0)
(-0.0157026 -0.707107 0)
(-0.0157026 -0.661312 0)
(-0.0157026 -0.612907 0)
(-0.0157026 -0.562084 0)
(-0.0157026 -0.509042 0)
(-0.0157026 -0.453991 0)
(-0.0157026 -0.397148 0)
(-0.0157026 -0.338738 0)
(-0.0157026 -0.278991 0)
(-0.0157026 -0.218143 0)
(-0.0157026 -0.156435 0)
(-0.0157026 -0.0941084 0)
(-0.0157026 -0.0314108 0)
(-0.0157026 0.0314108 0)
(-0.0157026 0.0941084 0)
(-0.0157026 0.156435 0)
(-0.0157026 0.218143 0)
(-0.0157026 0.278991 0)
(-0.0157026 0.338738 0)
(-0.0157026 0.397148 0)
(-0.0157026 0.453991 0)
(-0.0157026 0.509042 0)
(-0.0157026 0.562084 0)
(-0.0157026 0.612907 0)
(-0.0157026 0.661312 0)
(-0.0157026 0.707107 0)
(-0.0157026 0.750111 0)
(-0.0157026 0.790155 0)
(-0.0157026 0.827081 0)
(-0.0157026 0.860742 0)
(-0.0157026 0.891007 0)
(-0.0157026 0.917755 0)
(-0.0157026 0.940881 0)
(-0.0157026 0.960294 0)
(-0.0157026 0.975917 0)
(-0.0157026 0.987689 0)
(-0.0157026 0.995562 0)
(-0.0157026 0.999507 0)
(-0.0157026 0.999507 0)
(-0.0157026 0.995562 0)
(-0.0157026 0.987688 0)
(-0.0157026 0.975916 0)
(-0.0157026 0.960293 0)
(-0.0157026 0.94088 0)
(-0.0157026 0.917754 0)
(-0.0157026 0.891006 0)
(-0.0157026 0.860741 0)
(-0.0157026 0.82708 0)
(-0.0157026 0.790154 0)
(-0.0157026 0.75011 0)
(-0.0157026 0.707106 0)
(-0.0157026 0.661311 0)
(-0.0157026 0.612906 0)
(-0.0157026 0.562082 0)
(-0.0157026 0.50904 0)
(-0.0157026 0.453989 0)
(-0.0157026 0.397146 0)
(-0.0157026 0.338736 0)
(-0.0157026 0.278989 0)
(-0.0157026 0.218141 0)
(-0.0157026 0.156432 0)
(-0.0157026 0.094106 0)
(-0.0157026 0.0314084 0)
(-0.0157026 -0.0314131 0)
(-0.0157026 -0.0941107 0)
(-0.0157026 -0.156437 0)
(-0.0157026 -0.218146 0)
(-0.0157026 -0.278994 0)
(-0.0157026 -0.33874 0)
(-0.0157026 -0.39715 0)
(-0.0157026 -0.453993 0)
(-0.0157026 -0.509044 0)
(-0.0157026 -0.562086 0)
(-0.0157026 -0.612909 0)
(-0.0157026 -0.661314 0)
(-0.0157026 -0.707109 0)
(-0.0157026 -0.750113 0)
(-0.0157026 -0.790157 0)
(-0.0157026 -0.827082 0)
(-0.0157026 -0.860744 0)
(-0.0157026 -0.891008 0)
(-0.0157026 -0.917756 0)
(-0.0157026 -0.940882 0)
(-0.0157026 -0.960295 0)
(-0.0157026 -0.975917 0)
(-0.0157026 -0.987689 0)
(-0.0157026 -0.995562 0)
(-0.0157026 -0.999507 0)
(-0.0157026 -0.999506 0)
(-0.0157026 -0.995562 0)
(-0.0157026 -0.987688 0)
(-0.0157026 -0.975916 0)
(-0.0157026 -0.960293 0)
(-0.0157026 -0.940879 0)
(-0.0157026 -0.917753 0)
(-0.0157026 -0.891005 0)
(-0.0157026 -0.86074 0)
(-0.0157026 -0.827078 0)
(-0.0157026 -0.790153 0)
(-0.0157026 -0.750108 0)
(-0.0157026 -0.707104 0)
(-0.0157026 -0.661309 0)
(-0.0157026 -0.612904 0)
(-0.0157026 -0.56208 0)
(-0.0157026 -0.509038 0)
(-0.0157026 -0.453987 0)
(-0.0157026 -0.397144 0)
(-0.0157026 -0.338734 0)
(-0.0157026 -0.278987 0)
(-0.0157026 -0.218139 0)
(-0.0157026 -0.15643 0)
(-0.0157026 -0.0941037 0)
(-0.0157026 -0.0314061 0)
(-0.0157026 0.0314155 0)
(-0.0157026 0.0941131 0)
(-0.0157026 0.156439 0)
(-0.0157026 0.218148 0)
(-0.0157026 0.278996 0)
(-0.0157026 0.338743 0)
(-0.0157026 0.397152 0)
(-0.0157026 0.453995 0)
(-0.0157026 0.509046 0)
(-0.0157026 0.562088 0)
(-0.0157026 0.612911 0)
(-0.0157026 0.661316 0)
(-0.0157026 0.707111 0)
(-0.0157026 0.750115 0)
(-0.0157026 0.790158 0)
(-0.0157026 0.827084 0)
(-0.0157026 0.860745 0)
(-0.0157026 0.891009 0)
(-0.0157026 0.917757 0)
(-0.0157026 0.940883 0)
(-0.0157026 0.960295 0)
(-0.0157026 0.975918 0)
(-0.0157026 0.987689 0)
(-0.0157026 0.995563 0)
(-0.0157026 0.999507 0)
(-0.0157026 0.999506 0)
(-0.0157026 0.995561 0)
(-0.0157026 0.987687 0)
(-0.0157026 0.975915 0)
(-0.0157026 0.960292 0)
(-0.0157026 0.940879 0)
(-0.0157026 0.917752 0)
(-0.0157026 0.891004 0)
(-0.0157026 0.860739 0)
(-0.0157026 0.827077 0)
(-0.0157026 0.790151 0)
(-0.0157026 0.750107 0)
(-0.0157026 0.707102 0)
(-0.0157026 0.661307 0)
(-0.0157026 0.612902 0)
(-0.0157026 0.562078 0)
(-0.0157026 0.509036 0)
(-0.0157026 0.453985 0)
(-0.0157026 0.397142 0)
(-0.0157026 0.338732 0)
(-0.0157026 0.278985 0)
(-0.0157026 0.218137 0)
(-0.0157026 0.156428 0)
(-0.0157026 0.0941014 0)
(-0.0157026 0.0314037 0)
(-0.0157026 -0.0314178 0)
(-0.0157026 -0.0941154 0)
(-0.0157026 -0.156442 0)
(-0.0157026 -0.21815 0)
(-0.0157026 -0.278998 0)
(-0.0157026 -0.338745 0)
(-0.0157026 -0.397155 0)
(-0.0157026 -0.453997 0)
(-0.0157026 -0.509048 0)
(-0.0157026 -0.56209 0)
(-0.0157026 -0.612913 0)
(-0.0157026 -0.661318 0)
(-0.0157026 -0.707112 0)
(-0.0157026 -0.750116 0)
(-0.0157026 -0.79016 0)
(-0.0157026 -0.827085 0)
(-0.0157026 -0.860746 0)
(-0.0157026 -0.89101 0)
(-0.0157026 -0.917758 0)
(-0.0157026 -0.940883 0)
(-0.0157026 -0.960296 0)
(-0.0157026 -0.975919 0)
(-0.0157026 -0.98769 0)
(-0.0157026 -0.995563 0)
(-0.0157026 -0.999507 0)
(-0.0157026 -0.999506 0)
(-0.0157026 -0.995561 0)
(-0.0157026 -0.987687 0)
(-0.0157026 -0.975915 0)
(-0.0157026 -0.960291 0)
(-0.0157026 -0.940878 0)
(-0.0157026 -0.917751 0)
(-0.0157026 -0.891003 0)
(-0.0157026 -0.860738 0)
(-0.0157026 -0.827076 0)
(-0.0157026 -0.79015 0)
(-0.0157026 -0.750105 0)
(-0.0157026 -0.707101 0)
(-0.0157026 -0.661305 0)
(-0.0157026 -0.6129 0)
(-0.0157026 -0.562076 0)
(-0.0157026 -0.509034 0)
(-0.0157026 -0.453982 0)
(-0.0157026 -0.39714 0)
(-0.0157026 -0.338729 0)
(-0.0157026 -0.278982 0)
(-0.0157026 -0.218134 0)
(-0.0157026 -0.156425 0)
(-0.0157026 -0.094099 0)
(-0.0157026 -0.0314014 0)
(-0.0471018 0.0314014 0)
(-0.0471018 0.094099 0)
(-0.0471018 0.156425 0)
(-0.0471018 0.218134 0)
(-0.0471018 0.278982 0)
(-0.0471018 0.338729 0)
(-0.0471018 0.39714 0)
(-0.0471018 0.453982 0)
(-0.0471018 0.509034 0)
(-0.0471018 0.562076 0)
(-0.0471018 0.6129 0)
(-0.0471018 0.661305 0)
(-0.0471018 0.707101 0)
(-0.0471018 0.750105 0)
(-0.0471018 0.79015 0)
(-0.0471018 0.827076 0)
(-0.0471018 0.860738 0)
(-0.0471018 0.891003 0)
(-0.0471018 0.917751 0)
(-0.0471018 0.940878 0)
(-0.0471018 0.960291 0)
(-0.0471018 0.975915 0)
(-0.0471018 0.987687 0)
(-0.0471018 0.995561 0)
(-0.0471018 0.999506 0)
(-0.0471018 0.999507 0)
(-0.0471018 0.995563 0)
(-0.0471018 0.98769 0)
(-0.0471018 0.975919 0)
(-0.0471018 0.960296 0)
(-0.0471018 0.940883 0)
(-0.0471018 0.917758 0)
(-0.0471018 0.89101 0)
(-0.0471018 0.860746 0)
(-0.0471018 0.827085 0)
(-0.0471018 0.79016 0)
(-0.0471018 0.750116 0)
(-0.0471018 0.707112 0)
(-0.0471018 0.661318 0)
(-0.0471018 0.612913 0)
(-0.0471018 0.56209 0)
(-0.0471018 0.509048 0)
(-0.0471018 0.453997 0)
(-0.0471018 0.397155 0)
(-0.0471018 0.338745 0)
(-0.0471018 0.278998 0)
(-0.0471018 0.21815 0)
(-0.0471018 0.156442 0)
(-0.0471018 0.0941154 0)
(-0.0471018 0.0314178 0)
(-0.0471018 -0.0314037 0)
(-0.0471018 -0.0941014 0)
(-0.0471018 -0.156428 0)
(-0.0471018 -0.218137 0)
(-0.0471018 -0.278985 0)
(-0.0471018 -0.338732 0)
(-0.0471018 -0.397142 0)
(-0.0471018 -0.453985 0)
(-0.0471018 -0.509036 0)
(-0.0471018 -0.562078 0)
(-0.0471018 -0.612902 0)
(-0.0471018 -0.661307 0)
(-0.0471018 -0.707102 0)
(-0.0471018 -0.750107 0)
(-0.0471018 -0.790151 0)
(-0.0471018 -0.827077 0)
(-0.0471018 -0.860739 0)
(-0.0471018 -0.891004 0)
(-0.0471018 -0.917752 0)
(-0.0471018 -0.940879 0)
(-0.0471018 -0.960292 0)
(-0.0471018 -0.975915 0)
(-0.0471018 -0.987687 0)
(-0.0471018 -0.995561 0)
(-0.0471018 -0.999506 0)
(-0.0471018 -0.999507 0)
(-0.0471018 -0.995563 0)
(-0.0471018 -0.987689 0)
(-0.0471018 -0.975918 0)
(-0.0471018 -0.960295 0)
(-0.0471018 -0.940883 0)
(-0.0471018 -0.917757 0)
(-0.0471018 -0.891009 0)
(-0.0471018 -0.860745 0)
(-0.0471018 -0.827084 0)
(-0.0471018 -0.790158 0)
(-0.0471018 -0.750115 0)
(-0.0471018 -0.707111 0)
(-0.0471018 -0.661316 0)
(-0.0471018 -0.612911 0)
(-0.0471018 -0.562088 0)
(-0.0471018 -0.509046 0)
(-0.0471018 -0.453995 0)
(-0.0471018 -0.397152 0)
(-0.0471018 -0.338743 0)
(-0.0471018 -0.278996 0)
(-0.0471018 -0.218148 0)
(-0.0471018 -0.156439 0)
(-0.0471018 -0.0941131 0)
(-0.0471018 -0.0314155 0)
(-0.0471018 0.0314061 0)
(-0.0471018 0.0941037 0)
(-0.0471018 0.15643 0)
(-0.0471018 0.218139 0)
(-0.0471018 0.278987 0)
(-0.0471018 0.338734 0)
(-0.0471018 0.397144 0)
(-0.0471018 0.453987 0)
(-0.0471018 0.509038 0)
(-0.0471018 0.56208 0)
(-0.0471018 0.612904 0)
(-0.0471018 0.661309 0)
(-0.0471018 0.707104 0)
(-0.0471018 0.750108 0)
(-0.0471018 0.790153 0)
(-0.0471018 0.827078 0)
(-0.0471018 0.86074 0)
(-0.0471018 0.891005 0)
(-0.0471018 0.917753 0)
(-0.0471018 0.940879 0)
(-0.0471018 0.960293 0)
(-0.0471018 0.975916 0)
(-0.0471018 0.987688 0)
(-0.0471018 0.995562 0)
(-0.0471018 0.999506 0)
(-0.0471018 0.999507 0)
(-0.0471018 0.995562 0)
(-0.0471018 0.987689 0)
(-0.0471018 0.975917 0)
(-0.0471018 0.960295 0)
(-0.0471018 0.940882 0)
(-0.0471018 0.917756 0)
(-0.0471018 0.891008 0)
(-0.0471018 0.860744 0)
(-0.0471018 0.827082 0)
(-0.0471018 0.790157 0)
(-0.0471018 0.750113 0)
(-0.0471018 0.707109 0)
(-0.0471018 0.661314 0)
(-0.0471018 0.612909 0)
(-0.0471018 0.562086 0)
(-0.0471018 0.509044 0)
(-0.0471018 0.453993 0)
(-0.0471018 0.39715 0)
(-0.0471018 0.33874 0)
(-0.0471018 0.278994 0)
(-0.0471018 0.218146 0)
(-0.0471018 0.156437 0)
(-0.0471018 0.0941107 0)
(-0.0471018 0.0314131 0)
(-0.0471018 -0.0314084 0)
(-0.0471018 -0.094106 0)
(-0.0471018 -0.156432 0)
(-0.0471018 -0.218141 0)
(-0.0471018 -0.278989 0)
(-0.0471018 -0.338736 0)
(-0.0471018 -0.397146 0)
(-0.0471018 -0.453989 0)
(-0.0471018 -0.50904 0)
(-0.0471018 -0.562082 0)
(-0.0471018 -0.612906 0)
(-0.0471018 -0.661311 0)
(-0.0471018 -0.707106 0)
(-0.0471018 -0.75011 0)
(-0.0471018 -0.790154 0)
(-0.0471018 -0.82708 0)
(-0.0471018 -0.860741 0)
(-0.0471018 -0.891006 0)
(-0.0471018 -0.917754 0)
(-0.0471018 -0.94088 0)
(-0.0471018 -0.960293 0)
(-0.0471018 -0.975916 0)
(-0.0471018 -0.987688 0)
(-0.0471018 -0.995562 0)
(-0.0471018 -0.999507 0)
(-0.0471018 -0.999507 0)
(-0.0471018 -0.995562 0)
(-0.0471018 -0.987689 0)
(-0.0471018 -0.975917 0)
(-0.0471018 -0.960294 0)
(-0.0471018 -0.940881 0)
(-0.0471018 -0.917755 0)
(-0.0471018 -0.891007 0)
(-0.0471018 -0.860742 0)
(-0.0471018 -0.827081 0)
(-0.0471018 -0.790155 0)
(-0.0471018 -0.750111 0)
(-0.0471018 -0.707107 0)
(-0.0471018 -0.661312 0)
(-0.0471018 -0.612907 0)
(-0.0471018 -0.562084 0)
(-0.0471018 -0.509042 0)
(-0.0471018 -0.453991 0)
(-0.0471018 -0.397148 0)
(-0.0471018 -0.338738 0)
(-0.0471018 -0.278991 0)
(-0.0471018 -0.218143 0)
(-0.0471018 -0.156435 0)
(-0.0471018 -0.0941084 0)
(-0.0471018 -0.0314108 0)
(-0.0471018 0.0314108 0)
(-0.0471018 0.0941084 0)
(-0.0471018 0.156435 0)
(-0.0471018 0.218143 0)
(-0.0471018 0.278991 0)
(-0.0471018 0.338738 0)
(-0.0471018 0.397148 0)
(-0.0471018 0.453991 0)
(-0.0471018 0.509042 0)
(-0.0471018 0.562084 0)
(-0.0471018 0.612907 0)
(-0.0471018 0.661312 0)
(-0.0471018 0.707107 0)
(-0.0471018 0.750111 0)
(-0.0471018 0.790155 0)
(-0.0471018 0.827081 0)
(-0.0471018 0.860742 0)
(-0.0471018 0.891007 0)
(-0.0471018 0.917755 0)
(-0.0471018 0.940881 0)
(-0.0471018 0.960294 0)
(-0.0471018 0.975917 0)
(-0.0471018 0.987689 0)
(-0.0471018 0.995562 0)
(-0.0471018 0.999507 0)
(-0.0471018 0.999507 0)
(-0.0471018 0.995562 0)
(-0.0471018 0.987688 0)
(-0.0471018 0.975916 0)
(-0.0471018 0.960293 0)
(-0.0471018 0.94088 0)
(-0.0471018 0.917754 0)
(-0.0471018 0.891006 0)
(-0.0471018 0.860741 0)
(-0.0471018 0.82708 0)
(-0.0471018 0.790154 0)
(-0.0471018 0.75011 0)
(-0.0471018 0.707106 0)
(-0.0471018 0.661311 0)
(-0.0471018 0.612906 0)
(-0.0471018 0.562082 0)
(-0.0471018 0.50904 0)
(-0.0471018 0.453989 0)
(-0.0471018 0.397146 0)
(-0.0471018 0.338736 0)
(-0.0471018 0.278989 0)
(-0.0471018 0.218141 0)
(-0.0471018 0.156432 0)
(-0.0471018 0.094106 0)
(-0.0471018 0.0314084 0)
(-0.0471018 -0.0314131 0)
(-0.0471018 -0.0941107 0)
(-0.0471018 -0.156437 0)
(-0.0471018 -0.218146 0)
(-0.0471018 -0.278994 0)
(-0.0471018 -0.33874 0)
(-0.0471018 -0.39715 0)
(-0.0471018 -0.453993 0)
(-0.0471018 -0.509044 0)
(-0.0471018 -0.562086 0)
(-0.0471018 -0.612909 0)
(-0.0471018 -0.661314 0)
(-0.0471018 -0.707109 0)
(-0.0471018 -0.750113 0)
(-0.0471018 -0.790157 0)
(-0.0471018 -0.827082 0)
(-0.0471018 -0.860744 0)
(-0.0471018 -0.891008 0)
(-0.0471018 -0.917756 0)
(-0.0471018 -0.940882 0)
(-0.0471018 -0.960295 0)
(-0.0471018 -0.975917 0)
(-0.0471018 -0.987689 0)
(-0.0471018 -0.995562 0)
(-0.0471018 -0.999507 0)
(-0.0471018 -0.999506 0)
(-0.0471018 -0.995562 0)
(-0.0471018 -0.987688 0)
(-0.0471018 -0.975916 0)
(-0.0471018 -0.960293 0)
(-0.0471018 -0.940879 0)
(-0.0471018 -0.917753 0)
(-0.0471018 -0.891005 0)
(-0.0471018 -0.86074 0)
(-0.0471018 -0.827078 0)
(-0.0471018 -0.790153 0)
(-0.0471018 -0.750108 0)
(-0.0471018 -0.707104 0)
(-0.0471018 -0.661309 0)
(-0.0471018 -0.612904 0)
(-0.0471018 -0.56208 0)
(-0.0471018 -0.509038 0)
(-0.0471018 -0.453987 0)
(-0.0471018 -0.397144 0)
(-0.0471018 -0.338734 0)
(-0.0471018 -0.278987 0)
(-0.0471018 -0.218139 0)
(-0.0471018 -0.15643 0)
(-0.0471018 -0.0941037 0)
(-0.0471018 -0.0314061 0)
(-0.0471018 0.0314155 0)
(-0.0471018 0.0941131 0)
(-0.0471018 0.156439 0)
(-0.0471018 0.218148 0)
(-0.0471018 0.278996 0)
(-0.0471018 0.338743 0)
(-0.0471018 0.397152 0)
(-0.0471018 0.453995 0)
(-0.0471018 0.509046 0)
(-0.0471018 0.562088 0)
(-0.0471018 0.612911 0)
(-0.0471018 0.661316 0)
(-0.0471018 0.707111 0)
(-0.0471018 0.750115 0)
(-0.0471018 0.790158 0)
(-0.0471018 0.827084 0)
(-0.0471018 0.860745 0)
(-0.0471018 0.891009 0)
(-0.0471018 0.917757 0)
(-0.0471018 0.940883 0)
(-0.0471018 0.960295 0)
(-0.0471018 0.975918 0)
(-0.0471018 0.987689 0)
(-0.0471018 0.995563 0)
(-0.0471018 0.999507 0)
(-0.0471018 0.999506 0)
(-0.0471018 0.995561 0)
(-0.0471018 0.987687 0)
(-0.0471018 0.975915 0)
(-0.0471018 0.960292 0)
(-0.0471018 0.940879 0)
(-0.0471018 0.917752 0)
(-0.0471018 0.891004 0)
(-0.0471018 0.860739 0)
(-0.0471018 0.827077 0)
(-0.0471018 0.790151 0)
(-0.0471018 0.750107 0)
(-0.0471018 0.707102 0)
(-0.0471018 0.661307 0)
(-0.0471018 0.612902 0)
(-0.0471018 0.562078 0)
(-0.0471018 0.509036 0)
(-0.0471018 0.453985 0)
(-0.0471018 0.397142 0)
(-0.0471018 0.338732 0)
(-0.0471018 0.278985 0)
(-0.0471018 0.218137 0)
(-0.0471018 0.156428 0)
(-0.0471018 0.0941014 0)
(-0.0471018 0.0314037 0)
(-0.0471018 -0.0314178 0)
(-0.0471018 -0.0941154 0)
(-0.0471018 -0.156442 0)
(-0.0471018 -0.21815 0)
(-0.0471018 -0.278998 0)
(-0.0471018 -0.338745 0)
(-0.0471018 -0.397155 0)
(-0.0471018 -0.453997 0)
(-0.0471018 -0.509048 0)
(-0.0471018 -0.56209 0)
(-0.0471018 -0.612913 0)
(-0.0471018 -0.661318 0)
(-0.0471018 -0.707112 0)
(-0.0471018 -0.750116 0)
(-0.0471018 -0.79016 0)
(-0.0471018 -0.827085 0)
(-0.0471018 -0.860746 0)
(-0.0471018 -0.89101 0)
(-0.0471018 -0.917758 0)
(-0.0471018 -0.940883 0)
(-0.0471018 -0.960296 0)
(-0.0471018 -0.975919 0)
(-0.0471018 -0.98769 0)
(-0.0471018 -0.995563 0)
(-0.0471018 -0.999507 0)
(-0.0471018 -0.999506 0)
(-0.0471018 -0.995561 0)
(-0.0471018 -0.987687 0)
(-0.0471018 -0.975915 0)
(-0.0471018 -0.960291 0)
(-0.0471018 -0.940878 0)
(-0.0471018 -0.917751 0)
(-0.0471018 -0.891003 0)
(-0.0471018 -0.860738 0)
(-0.0471018 -0.827076 0)
(-0.0471018 -0.79015 0)
(-0.0471018 -0.750105 0)
(-0.0471018 -0.707101 0)
(-0.0471018 -0.661305 0)
(-0.0471018 -0.6129 0)
(-0.0471018 -0.562076 0)
(-0.0471018 -0.509034 0)
(-0.0471018 -0.453982 0)
(-0.0471018 -0.39714 0)
(-0.0471018 -0.338729 0)
(-0.0471018 -0.278982 0)
(-0.0471018 -0.218134 0)
(-0.0471018 -0.156425 0)
(-0.0471018 -0.094099 0)
(-0.0471018 -0.0314014 0)
(-0.0784545 0.0314014 0)
(-0.0784545 0.094099 0)
(-0.0784545 0.156425 0)
(-0.0784545 0.218134 0)
(-0.0784545 0.278982 0)
(-0.0784545 0.338729 0)
(-0.0784545 0.39714 0)
(-0.0784545 0.453982 0)
(-0.0784545 0.509034 0)
(-0.0784545 0.562076 0)
(-0.0784545 0.6129 0)
(-0.0784545 0.661305 0)
(-0.0784545 0.707101 0)
(-0.0784545 0.750105 0)
(-0.0784545 0.79015 0)
(-0.0784545 0.827076 0)
(-0.0784545 0.860738 0)
(-0.0784545 0.891003 0)
(-0.0784545 0.917751 0)
(-0.0784545 0.940878 0)
(-0.0784545 0.960291 0)
(-0.0784545 0.975915 0)
(-0.0784545 0.987687 0)
(-0.0784545 0.995561 0)
(-0.0784545 0.999506 0)
(-0.0784545 0.999507 0)
(-0.0784545 0.995563 0)
(-0.0784545 0.98769 0)
(-0.0784545 0.975919 0)
(-0.0784545 0.960296 0)
(-0.0784545 0.940883 0)
(-0.0784545 0.917758 0)
(-0.0784545 0.89101 0)
(-0.0784545 0.860746 0)
(-0.0784545 0.827085 0)
(-0.0784545 0.79016 0)
(-0.0784545 0.750116 0)
(-0.0784545 0.707112 0)
(-0.0784545 0.661318 0)
(-0.0784545 0.612913 0)
(-0.0784545 0.56209 0)
(-0.0784545 0.509048 0)
(-0.0784545 0.453997 0)
(-0.0784545 0.397155 0)
(-0.0784545 0.338745 0)
(-0.0784545 0.278998 0)
(-0.0784545 0.21815 0)
(-0.0784545 0.156442 0)
(-0.0784545 0.0941154 0)
(-0.0784545 0.0314178 0)
(-0.0784545 -0.0314037 0)
(-0.0784545 -0.0941014 0)
(-0.0784545 -0.156428 0)
(-0.0784545 -0.218137 0)
(-0.0784545 -0.278985 0)
(-0.0784545 -0.338732 0)
(-0.0784545 -0.397142 0)
(-0.0784545 -0.453985 0)
(-0.0784545 -0.509036 0)
(-0.0784545 -0.562078 0)
(-0.0784545 -0.612902 0)
(-0.0784545 -0.661307 0)
(-0.0784545 -0.707102 0)
(-0.0784545 -0.750107 0)
(-0.0784545 -0.790151 0)
(-0.0784545 -0.827077 0)
(-0.0784545 -0.860739 0)
(-0.0784545 -0.891004 0)
(-0.0784545 -0.917752 0)
(-0.0784545 -0.940879 0)
(-0.0784545 -0.960292 0)
(-0.0784545 -0.975915 0)
(-0.0784545 -0.987687 0)
(-0.0784545 -0.995561 0)
(-0.0784545 -0.999506 0)
(-0.0784545 -0.999507 0)
(-0.0784545 -0.995563 0)
(-0.0784545 -0.987689 0)
(-0.0784545 -0.975918 0)
(-0.0784545 -0.960295 0)
(-0.0784545 -0.940883 0)
(-0.0784545 -0.917757 0)
(-0.0784545 -0.891009 0)
(-0.0784545 -0.860745 0)
(-0.0784545 -0.827084 0)
(-0.0784545 -0.790158 0)
(-0.0784545 -0.750115 0)
(-0.0784545 -0.707111 0)
(-0.0784545 -0.661316 0)
(-0.0784545 -0.612911 0)
(-0.0784545 -0.562088 0)
(-0.0784545 -0.509046 0)
(-0.0784545 -0.453995 0)
(-0.0784545 -0.397152 0)
(-0.0784545 -0.338743 0)
(-0.0784545 -0.278996 0)
(-0.0784545 -0.218148 0)
(-0.0784545 -0.156439 0)
(-0.0784545 -0.0941131 0)
(-0.0784545 -0.0314155 0)
(-0.0784545 0.0314061 0)
(-0.0784545 0.0941037 0)
(-0.0784545 0.15643 0)
(-0.0784545 0.218139 0)
(-0.0784545 0.278987 0)
(-0.0784545 0.338734 0)
(-0.0784545 0.397144 0)
(-0.0784545 0.453987 0)
(-0.0784545 0.509038 0)
(-0.0784545 0.56208 0)
(-0.0784545 0.612904 0)
(-0.0784545 0.661309 0)
(-0.0784545 0.707104 0)
(-0.0784545 0.750108 0)
(-0.0784545 0.790153 0)
(-0.0784545 0.827078 0)
(-0.0784545 0.86074 0)
(-0.0784545 0.891005 0)
(-0.0784545 0.917753 0)
(-0.0784545 0.940879 0)
(-0.0784545 0.960293 0)
(-0.0784545 0.975916 0)
(-0.0784545 0.987688 0)
(-0.0784545 0.995562 0)
(-0.0784545 0.999506 0)
(-0.0784545 0.999507 0)
(-0.0784545 0.995562 0)
(-0.0784545 0.987689 0)
(-0.0784545 0.975917 0)
(-0.0784545 0.960295 0)
(-0.0784545 0.940882 0)
(-0.0784545 0.917756 0)
(-0.0784545 0.891008 0)
(-0.0784545 0.860744 0)
(-0.0784545 0.827082 0)
(-0.0784545 0.790157 0)
(-0.0784545 0.750113 0)
(-0.0784545 0.707109 0)
(-0.0784545 0.661314 0)
(-0.0784545 0.612909 0)
(-0.0784545 0.562086 0)
(-0.0784545 0.509044 0)
(-0.0784545 0.453993 0)
(-0.0784545 0.39715 0)
(-0.0784545 0.33874 0)
(-0.0784545 0.278994 0)
(-0.0784545 0.218146 0)
(-0.0784545 0.156437 0)
(-0.0784545 0.0941107 0)
(-0.0784545 0.0314131 0)
(-0.0784545 -0.0314084 0)
(-0.0784545 -0.094106 0)
(-0.0784545 -0.156432 0)
(-0.0784545 -0.218141 0)
(-0.0784545 -0.278989 0)
(-0.0784545 -0.338736 0)
(-0.0784545 -0.397146 0)
(-0.0784545 -0.453989 0)
(-0.0784545 -0.50904 0)
(-0.0784545 -0.562082 0)
(-0.0784545 -0.612906 0)
(-0.0784545 -0.661311 0)
(-0.0784545 -0.707106 0)
(-0.0784545 -0.75011 0)
(-0.0784545 -0.790154 0)
(-0.0784545 -0.82708 0)
(-0.0784545 -0.860741 0)
(-0.0784545 -0.891006 0)
(-0.0784545 -0.917754 0)
(-0.0784545 -0.94088 0)
(-0.0784545 -0.960293 0)
(-0.0784545 -0.975916 0)
(-0.0784545 -0.987688 0)
(-0.0784545 -0.995562 0)
(-0.0784545 -0.999507 0)
(-0.0784545 -0.999507 0)
(-0.0784545 -0.995562 0)
(-0.0784545 -0.987689 0)
(-0.0784545 -0.975917 0)
(-0.0784545 -0.960294 0)
(-0.0784545 -0.940881 0)
(-0.0784545 -0.917755 0)
(-0.0784545 -0.891007 0)
(-0.0784545 -0.860742 0)
(-0.0784545 -0.827081 0)
(-0.0784545 -0.790155 0)
(-0.0784545 -0.750111 0)
(-0.0784545 -0.707107 0)
(-0.0784545 -0.661312 0)
(-0.0784545 -0.612907 0)
(-0.0784545 -0.562084 0)
(-0.0784545 -0.509042 0)
(-0.0784545 -0.453991 0)
(-0.0784545 -0.397148 0)
(-0.0784545 -0.338738 0)
(-0.0784545 -0.278991 0)
(-0.0784545 -0.218143 0)
(-0.0784545 -0.156435 0)
(-0.0784545 -0.0941084 0)
(-0.0784545 -0.0314108 0)
(-0.0784545 0.0314108 0)
(-0.0784545 0.0941084 0)
(-0.0784545 0.156435 0)
(-0.0784545 0.218143 0)
(-0.0784545 0.278991 0)
(-0.0784545 0.338738 0)
(-0.0784545 0.397148 0)
(-0.0784545 0.453991 0)
(-0.0784545 0.509042 0)
(-0.0784545 0.562084 0)
(-0.0784545 0.612907 0)
(-0.0784545 0.661312 0)
(-0.0784545 0.707107 0)
(-0.0784545 0.750111 0)
(-0.0784545 0.790155 0)
(-0.0784545 0.827081 0)
(-0.0784545 0.860742 0)
(-0.0784545 0.891007 0)
(-0.0784545 0.917755 0)
(-0.0784545 0.940881 0)
(-0.0784545 0.960294 0)
(-0.0784545 0.975917 0)
(-0.0784545 0.987689 0)
(-0.0784545 0.995562 0)
(-0.0784545 0.999507 0)
(-0.0784545 0.999507 0)
(-0.0784545 0.995562 0)
(-0.0784545 0.987688 0)
(-0.0784545 0.975916 0)
(-0.0784545 0.960293 0)
(-0.0784545 0.94088 0)
(-0.0784545 0.917754 0)
(-0.0784545 0.891006 0)
(-0.0784545 0.860741 0)
(-0.0784545 0.82708 0)
(-0.0784545 0.790154 0)
(-0.0784545 0.75011 0)
(-0.0784545 0.707106 0)
(-0.0784545 0.661311 0)
(-0.0784545 0.612906 0)
(-0.0784545 0.562082 0)
(-0.0784545 0.50904 0)
(-0.0784545 0.453989 0)
(-0.0784545 0.397146 0)
(-0.0784545 0.338736 0)
(-0.0784545 0.278989 0)
(-0.0784545 0.218141 0)
(-0.0784545 0.156432 0)
(-0.0784545 0.094106 0)
(-0.0784545 0.0314084 0)
(-0.0784545 -0.0314131 0)
(-0.0784545 -0.0941107 0)
(-0.0784545 -0.156437 0)
(-0.0784545 -0.218146 0)
(-0.0784545 -0.278994 0)
(-0.0784545 -0.33874 0)
(-0.0784545 -0.39715 0)
(-0.0784545 -0.453993 0)
(-0.0784545 -0.509044 0)
(-0.0784545 -0.562086 0)
(-0.0784545 -0.612909 0)
(-0.0784545 -0.661314 0)
(-0.0784545 -0.707109 0)
(-0.0784545 -0.750113 0)
(-0.0784545 -0.790157 0)
(-0.0784545 -0.827082 0)
(-0.0784545 -0.860744 0)
(-0.0784545 -0.891008 0)
(-0.0784545 -0.917756 0)
(-0.0784545 -0.940882 0)
(-0.0784545 -0.960295 0)
(-0.0784545 -0.975917 0)
(-0.0784545 -0.987689 0)
(-0.0784545 -0.995562 0)
(-0.0784545 -0.999507 0)
(-0.0784545 -0.999506 0)
(-0.0784545 -0.995562 0)
(-0.0784545 -0.987688 0)
(-0.0784545 -0.975916 0)
(-0.0784545 -0.960293 0)
(-0.0784545 -0.940879 0)
(-0.0784545 -0.917753 0)
(-0.0784545 -0.891005 0)
(-0.0784545 -0.86074 0)
(-0.0784545 -0.827078 0)
(-0.0784545 -0.790153 0)
(-0.0784545 -0.750108 0)
(-0.0784545 -0.707104 0)
(-0.0784545 -0.661309 0)
(-0.0784545 -0.612904 0)
(-0.0784545 -0.56208 0)
(-0.0784545 -0.509038 0)
(-0.0784545 -0.453987 0)
(-0.0784545 -0.397144 0)
(-0.0784545 -0.338734 0)
(-0.0784545 -0.278987 0)
(-0.0784545 -0.218139 0)
(-0.0784545 -0.15643 0)
(-0.0784545 -0.0941037 0)
(-0.0784545 -0.0314061 0)
(-0.0784545 0.0314155 0)
(-0.0784545 0.0941131 0)
(-0.0784545 0.156439 0)
(-0.0784545 0.218148 0)
(-0.0784545 0.278996 0)
(-0.0784545 0.338743 0)
(-0.0784545 0.397152 0)
(-0.0784545 0.453995 0)
(-0.0784545 0.509046 0)
(-0.0784545 0.562088 0)
(-0.0784545 0.612911 0)
(-0.0784545 0.661316 0)
(-0.0784545 0.707111 0)
(-0.0784545 0.750115 0)
(-0.0784545 0.790158 0)
(-0.0784545 0.827084 0)
(-0.0784545 0.860745 0)
(-0.0784545 0.891009 0)
(-0.0784545 0.917757 0)
(-0.0784545 0.940883 0)
(-0.0784545 0.960295 0)
(-0.0784545 0.975918 0)
(-0.0784545 0.987689 0)
(-0.0784545 0.995563 0)
(-0.0784545 0.999507 0)
(-0.0784545 0.999506 0)
(-0.0784545 0.995561 0)
(-0.0784545 0.987687 0)
(-0.0784545 0.975915 0)
(-0.0784545 0.960292 0)
(-0.0784545 0.940879 0)
(-0.0784545 0.917752 0)
(-0.0784545 0.891004 0)
(-0.0784545 0.860739 0)
(-0.0784545 0.827077 0)
(-0.0784545 0.790151 0)
(-0.0784545 0.750107 0)
(-0.0784545 0.707102 0)
(-0.0784545 0.661307 0)
(-0.0784545 0.612902 0)
(-0.0784545 0.562078 0)
(-0.0784545 0.509036 0)
(-0.0784545 0.453985 0)
(-0.0784545 0.397142 0)
(-0.0784545 0.338732 0)
(-0.0784545 0.278985 0)
(-0.0784545 0.218137 0)
(-0.0784545 0.156428 0)
(-0.0784545 0.0941014 0)
(-0.0784545 0.0314037 0)
(-0.0784545 -0.0314178 0)
(-0.0784545 -0.0941154 0)
(-0.0784545 -0.156442 0)
(-0.0784545 -0.21815 0)
(-0.0784545 -0.278998 0)
(-0.0784545 -0.338745 0)
(-0.0784545 -0.397155 0)
(-0.0784545 -0.453997 0)
(-0.0784545 -0.509048 0)
(-0.0784545 -0.56209 0)
(-0.0784545 -0.612913 0)
(-0.0784545 -0.661318 0)
(-0.0784545 -0.707112 0)
(-0.0784545 -0.750116 0)
(-0.0784545 -0.79016 0)
(-0.0784545 -0.827085 0)
(-0.0784545 -0.860746 0)
(-0.0784545 -0.89101 0)
(-0.0784545 -0.917758 0)
(-0.0784545 -0.940883 0)
(-0.0784545 -0.960296 0)
(-0.0784545 -0.975919 0)
(-0.0784545 -0.98769 0)
(-0.0784545 -0.995563 0)
(-0.0784545 -0.999507 0)
(-0.0784545 -0.999506 0)
(-0.0784545 -0.995561 0)
(-0.0784545 -0.987687 0)
(-0.0784545 -0.975915 0)
(-0.0784545 -0.960291 0)
(-0.0784545 -0.940878 0)
(-0.0784545 -0.917751 0)
(-0.0784545 -0.891003 0)
(-0.0784545 -0.860738 0)
(-0.0784545 -0.827076 0)
(-0.0784545 -0.79015 0)
(-0.0784545 -0.750105 0)
(-0.0784545 -0.707101 0)
(-0.0784545 -0.661305 0)
(-0.0784545 -0.6129 0)