/*--------------------------------*- C++ -*----------------------------------*\
| =========                 |                                                 |
| \\      /  F ield         | OpenFOAM: The Open Source CFD Toolbox           |
|  \\    /   O peration     | Version:  v1706                                 |
|   \\  /    A nd           | Web:      www.OpenFOAM.com                      |
|    \\/     M anipulation  |                                                 |
\*---------------------------------------------------------------------------*/
FoamFile
{
    version     2.0;
    format      ascii;
    class       volVectorField;
    location    "0";
    object      U;
}
// * * * * * * * * * * * * * * * * * * * * * * * * * * * * * * * * * * * * * //

dimensions      [0 1 -1 0 0 0 0];


internalField   nonuniform List<vector> 
160000
(
(-0.0157026 0.0157026 0)
(-0.0157026 0.0471018 0)
(-0.0157026 0.0784545 0)
(-0.0157026 0.10973 0)
(-0.0157026 0.140897 0)
(-0.0157026 0.171925 0)
(-0.0157026 0.202783 0)
(-0.0157026 0.233441 0)
(-0.0157026 0.263869 0)
(-0.0157026 0.294036 0)
(-0.0157026 0.323913 0)
(-0.0157026 0.353471 0)
(-0.0157026 0.382679 0)
(-0.0157026 0.41151 0)
(-0.0157026 0.439935 0)
(-0.0157026 0.467926 0)
(-0.0157026 0.495455 0)
(-0.0157026 0.522495 0)
(-0.0157026 0.549019 0)
(-0.0157026 0.575002 0)
(-0.0157026 0.600417 0)
(-0.0157026 0.625239 0)
(-0.0157026 0.649445 0)
(-0.0157026 0.673009 0)
(-0.0157026 0.69591 0)
(-0.0157026 0.718123 0)
(-0.0157026 0.739628 0)
(-0.0157026 0.760403 0)
(-0.0157026 0.780428 0)
(-0.0157026 0.799682 0)
(-0.0157026 0.818147 0)
(-0.0157026 0.835805 0)
(-0.0157026 0.852638 0)
(-0.0157026 0.86863 0)
(-0.0157026 0.883764 0)
(-0.0157026 0.898026 0)
(-0.0157026 0.911402 0)
(-0.0157026 0.923878 0)
(-0.0157026 0.935443 0)
(-0.0157026 0.946084 0)
(-0.0157026 0.955792 0)
(-0.0157026 0.964556 0)
(-0.0157026 0.972369 0)
(-0.0157026 0.979222 0)
(-0.0157026 0.985109 0)
(-0.0157026 0.990023 0)
(-0.0157026 0.993961 0)
(-0.0157026 0.996917 0)
(-0.0157026 0.99889 0)
(-0.0157026 0.999877 0)
(-0.0157026 0.999877 0)
(-0.0157026 0.99889 0)
(-0.0157026 0.996918 0)
(-0.0157026 0.993961 0)
(-0.0157026 0.990024 0)
(-0.0157026 0.98511 0)
(-0.0157026 0.979223 0)
(-0.0157026 0.972371 0)
(-0.0157026 0.964558 0)
(-0.0157026 0.955794 0)
(-0.0157026 0.946086 0)
(-0.0157026 0.935445 0)
(-0.0157026 0.923881 0)
(-0.0157026 0.911405 0)
(-0.0157026 0.898029 0)
(-0.0157026 0.883767 0)
(-0.0157026 0.868633 0)
(-0.0157026 0.852642 0)
(-0.0157026 0.835809 0)
(-0.0157026 0.818151 0)
(-0.0157026 0.799686 0)
(-0.0157026 0.780432 0)
(-0.0157026 0.760408 0)
(-0.0157026 0.739633 0)
(-0.0157026 0.718128 0)
(-0.0157026 0.695915 0)
(-0.0157026 0.673015 0)
(-0.0157026 0.64945 0)
(-0.0157026 0.625245 0)
(-0.0157026 0.600422 0)
(-0.0157026 0.575008 0)
(-0.0157026 0.549025 0)
(-0.0157026 0.522501 0)
(-0.0157026 0.495461 0)
(-0.0157026 0.467932 0)
(-0.0157026 0.439942 0)
(-0.0157026 0.411517 0)
(-0.0157026 0.382686 0)
(-0.0157026 0.353477 0)
(-0.0157026 0.32392 0)
(-0.0157026 0.294043 0)
(-0.0157026 0.263876 0)
(-0.0157026 0.233448 0)
(-0.0157026 0.20279 0)
(-0.0157026 0.171932 0)
(-0.0157026 0.140904 0)
(-0.0157026 0.109737 0)
(-0.0157026 0.0784615 0)
(-0.0157026 0.0471088 0)
(-0.0157026 0.0157097 0)
(-0.0157026 -0.015705 0)
(-0.0157026 -0.0471041 0)
(-0.0157026 -0.0784568 0)
(-0.0157026 -0.109732 0)
(-0.0157026 -0.140899 0)
(-0.0157026 -0.171927 0)
(-0.0157026 -0.202785 0)
(-0.0157026 -0.233443 0)
(-0.0157026 -0.263871 0)
(-0.0157026 -0.294038 0)
(-0.0157026 -0.323915 0)
(-0.0157026 -0.353473 0)
(-0.0157026 -0.382682 0)
(-0.0157026 -0.411513 0)
(-0.0157026 -0.439937 0)
(-0.0157026 -0.467928 0)
(-0.0157026 -0.495457 0)
(-0.0157026 -0.522497 0)
(-0.0157026 -0.549021 0)
(-0.0157026 -0.575004 0)
(-0.0157026 -0.600419 0)
(-0.0157026 -0.625241 0)
(-0.0157026 -0.649447 0)
(-0.0157026 -0.673011 0)
(-0.0157026 -0.695912 0)
(-0.0157026 -0.718125 0)
(-0.0157026 -0.73963 0)
(-0.0157026 -0.760405 0)
(-0.0157026 -0.780429 0)
(-0.0157026 -0.799684 0)
(-0.0157026 -0.818149 0)
(-0.0157026 -0.835806 0)
(-0.0157026 -0.852639 0)
(-0.0157026 -0.868631 0)
(-0.0157026 -0.883765 0)
(-0.0157026 -0.898027 0)
(-0.0157026 -0.911403 0)
(-0.0157026 -0.923879 0)
(-0.0157026 -0.935444 0)
(-0.0157026 -0.946085 0)
(-0.0157026 -0.955793 0)
(-0.0157026 -0.964557 0)
(-0.0157026 -0.97237 0)
(-0.0157026 -0.979223 0)
(-0.0157026 -0.985109 0)
(-0.0157026 -0.990023 0)
(-0.0157026 -0.993961 0)
(-0.0157026 -0.996917 0)
(-0.0157026 -0.99889 0)
(-0.0157026 -0.999877 0)
(-0.0157026 -0.999877 0)
(-0.0157026 -0.99889 0)
(-0.0157026 -0.996917 0)
(-0.0157026 -0.993961 0)
(-0.0157026 -0.990024 0)
(-0.0157026 -0.98511 0)
(-0.0157026 -0.979223 0)
(-0.0157026 -0.97237 0)
(-0.0157026 -0.964558 0)
(-0.0157026 -0.955793 0)
(-0.0157026 -0.946086 0)
(-0.0157026 -0.935444 0)
(-0.0157026 -0.92388 0)
(-0.0157026 -0.911404 0)
(-0.0157026 -0.898028 0)
(-0.0157026 -0.883766 0)
(-0.0157026 -0.868632 0)
(-0.0157026 -0.852641 0)
(-0.0157026 -0.835808 0)
(-0.0157026 -0.81815 0)
(-0.0157026 -0.799685 0)
(-0.0157026 -0.780431 0)
(-0.0157026 -0.760406 0)
(-0.0157026 -0.739632 0)
(-0.0157026 -0.718127 0)
(-0.0157026 -0.695913 0)
(-0.0157026 -0.673013 0)
(-0.0157026 -0.649448 0)
(-0.0157026 -0.625243 0)
(-0.0157026 -0.600421 0)
(-0.0157026 -0.575006 0)
(-0.0157026 -0.549023 0)
(-0.0157026 -0.522499 0)
(-0.0157026 -0.495459 0)
(-0.0157026 -0.46793 0)
(-0.0157026 -0.439939 0)
(-0.0157026 -0.411515 0)
(-0.0157026 -0.382684 0)
(-0.0157026 -0.353475 0)
(-0.0157026 -0.323918 0)
(-0.0157026 -0.294041 0)
(-0.0157026 -0.263873 0)
(-0.0157026 -0.233446 0)
(-0.0157026 -0.202787 0)
(-0.0157026 -0.171929 0)
(-0.0157026 -0.140901 0)
(-0.0157026 -0.109734 0)
(-0.0157026 -0.0784592 0)
(-0.0157026 -0.0471065 0)
(-0.0157026 -0.0157073 0)
(-0.0157026 0.0157073 0)
(-0.0157026 0.0471065 0)
(-0.0157026 0.0784592 0)
(-0.0157026 0.109734 0)
(-0.0157026 0.140901 0)
(-0.0157026 0.171929 0)
(-0.0157026 0.202787 0)
(-0.0157026 0.233446 0)
(-0.0157026 0.263873 0)
(-0.0157026 0.294041 0)
(-0.0157026 0.323918 0)
(-0.0157026 0.353475 0)
(-0.0157026 0.382684 0)
(-0.0157026 0.411515 0)
(-0.0157026 0.439939 0)
(-0.0157026 0.46793 0)
(-0.0157026 0.495459 0)
(-0.0157026 0.522499 0)
(-0.0157026 0.549023 0)
(-0.0157026 0.575006 0)
(-0.0157026 0.600421 0)
(-0.0157026 0.625243 0)
(-0.0157026 0.649448 0)
(-0.0157026 0.673013 0)
(-0.0157026 0.695913 0)
(-0.0157026 0.718127 0)
(-0.0157026 0.739632 0)
(-0.0157026 0.760406 0)
(-0.0157026 0.780431 0)
(-0.0157026 0.799685 0)
(-0.0157026 0.81815 0)
(-0.0157026 0.835808 0)
(-0.0157026 0.852641 0)
(-0.0157026 0.868632 0)
(-0.0157026 0.883766 0)
(-0.0157026 0.898028 0)
(-0.0157026 0.911404 0)
(-0.0157026 0.92388 0)
(-0.0157026 0.935444 0)
(-0.0157026 0.946086 0)
(-0.0157026 0.955793 0)
(-0.0157026 0.964558 0)
(-0.0157026 0.97237 0)
(-0.0157026 0.979223 0)
(-0.0157026 0.98511 0)
(-0.0157026 0.990024 0)
(-0.0157026 0.993961 0)
(-0.0157026 0.996917 0)
(-0.0157026 0.99889 0)
(-0.0157026 0.999877 0)
(-0.0157026 0.999877 0)
(-0.0157026 0.99889 0)
(-0.0157026 0.996917 0)
(-0.0157026 0.993961 0)
(-0.0157026 0.990023 0)
(-0.0157026 0.985109 0)
(-0.0157026 0.979223 0)
(-0.0157026 0.97237 0)
(-0.0157026 0.964557 0)
(-0.0157026 0.955793 0)
(-0.0157026 0.946085 0)
(-0.0157026 0.935444 0)
(-0.0157026 0.923879 0)
(-0.0157026 0.911403 0)
(-0.0157026 0.898027 0)
(-0.0157026 0.883765 0)
(-0.0157026 0.868631 0)
(-0.0157026 0.852639 0)
(-0.0157026 0.835806 0)
(-0.0157026 0.818149 0)
(-0.0157026 0.799684 0)
(-0.0157026 0.780429 0)
(-0.0157026 0.760405 0)
(-0.0157026 0.73963 0)
(-0.0157026 0.718125 0)
(-0.0157026 0.695912 0)
(-0.0157026 0.673011 0)
(-0.0157026 0.649447 0)
(-0.0157026 0.625241 0)
(-0.0157026 0.600419 0)
(-0.0157026 0.575004 0)
(-0.0157026 0.549021 0)
(-0.0157026 0.522497 0)
(-0.0157026 0.495457 0)
(-0.0157026 0.467928 0)
(-0.0157026 0.439937 0)
(-0.0157026 0.411513 0)
(-0.0157026 0.382682 0)
(-0.0157026 0.353473 0)
(-0.0157026 0.323915 0)
(-0.0157026 0.294038 0)
(-0.0157026 0.263871 0)
(-0.0157026 0.233443 0)
(-0.0157026 0.202785 0)
(-0.0157026 0.171927 0)
(-0.0157026 0.140899 0)
(-0.0157026 0.109732 0)
(-0.0157026 0.0784568 0)
(-0.0157026 0.0471041 0)
(-0.0157026 0.015705 0)
(-0.0157026 -0.0157097 0)
(-0.0157026 -0.0471088 0)
(-0.0157026 -0.0784615 0)
(-0.0157026 -0.109737 0)
(-0.0157026 -0.140904 0)
(-0.0157026 -0.171932 0)
(-0.0157026 -0.20279 0)
(-0.0157026 -0.233448 0)
(-0.0157026 -0.263876 0)
(-0.0157026 -0.294043 0)
(-0.0157026 -0.32392 0)
(-0.0157026 -0.353477 0)
(-0.0157026 -0.382686 0)
(-0.0157026 -0.411517 0)
(-0.0157026 -0.439942 0)
(-0.0157026 -0.467932 0)
(-0.0157026 -0.495461 0)
(-0.0157026 -0.522501 0)
(-0.0157026 -0.549025 0)
(-0.0157026 -0.575008 0)
(-0.0157026 -0.600422 0)
(-0.0157026 -0.625245 0)
(-0.0157026 -0.64945 0)
(-0.0157026 -0.673015 0)
(-0.0157026 -0.695915 0)
(-0.0157026 -0.718128 0)
(-0.0157026 -0.739633 0)
(-0.0157026 -0.760408 0)
(-0.0157026 -0.780432 0)
(-0.0157026 -0.799686 0)
(-0.0157026 -0.818151 0)
(-0.0157026 -0.835809 0)
(-0.0157026 -0.852642 0)
(-0.0157026 -0.868633 0)
(-0.0157026 -0.883767 0)
(-0.0157026 -0.898029 0)
(-0.0157026 -0.911405 0)
(-0.0157026 -0.923881 0)
(-0.0157026 -0.935445 0)
(-0.0157026 -0.946086 0)
(-0.0157026 -0.955794 0)
(-0.0157026 -0.964558 0)
(-0.0157026 -0.972371 0)
(-0.0157026 -0.979223 0)
(-0.0157026 -0.98511 0)
(-0.0157026 -0.990024 0)
(-0.0157026 -0.993961 0)
(-0.0157026 -0.996918 0)
(-0.0157026 -0.99889 0)
(-0.0157026 -0.999877 0)
(-0.0157026 -0.999877 0)
(-0.0157026 -0.99889 0)
(-0.0157026 -0.996917 0)
(-0.0157026 -0.993961 0)
(-0.0157026 -0.990023 0)
(-0.0157026 -0.985109 0)
(-0.0157026 -0.979222 0)
(-0.0157026 -0.972369 0)
(-0.0157026 -0.964556 0)
(-0.0157026 -0.955792 0)
(-0.0157026 -0.946084 0)
(-0.0157026 -0.935443 0)
(-0.0157026 -0.923878 0)
(-0.0157026 -0.911402 0)
(-0.0157026 -0.898026 0)
(-0.0157026 -0.883764 0)
(-0.0157026 -0.86863 0)
(-0.0157026 -0.852638 0)
(-0.0157026 -0.835805 0)
(-0.0157026 -0.818147 0)
(-0.0157026 -0.799682 0)
(-0.0157026 -0.780428 0)
(-0.0157026 -0.760403 0)
(-0.0157026 -0.739628 0)
(-0.0157026 -0.718123 0)
(-0.0157026 -0.69591 0)
(-0.0157026 -0.673009 0)
(-0.0157026 -0.649445 0)
(-0.0157026 -0.625239 0)
(-0.0157026 -0.600417 0)
(-0.0157026 -0.575002 0)
(-0.0157026 -0.549019 0)
(-0.0157026 -0.522495 0)
(-0.0157026 -0.495455 0)
(-0.0157026 -0.467926 0)
(-0.0157026 -0.439935 0)
(-0.0157026 -0.41151 0)
(-0.0157026 -0.382679 0)
(-0.0157026 -0.353471 0)
(-0.0157026 -0.323913 0)
(-0.0157026 -0.294036 0)
(-0.0157026 -0.263869 0)
(-0.0157026 -0.233441 0)
(-0.0157026 -0.202783 0)
(-0.0157026 -0.171925 0)
(-0.0157026 -0.140897 0)
(-0.0157026 -0.10973 0)
(-0.0157026 -0.0784545 0)
(-0.0157026 -0.0471018 0)
(-0.0157026 -0.0157026 0)
(-0.0471018 0.0157026 0)
(-0.0471018 0.0471018 0)
(-0.0471018 0.0784545 0)
(-0.0471018 0.10973 0)
(-0.0471018 0.140897 0)
(-0.0471018 0.171925 0)
(-0.0471018 0.202783 0)
(-0.0471018 0.233441 0)
(-0.0471018 0.263869 0)
(-0.0471018 0.294036 0)
(-0.0471018 0.323913 0)
(-0.0471018 0.353471 0)
(-0.0471018 0.382679 0)
(-0.0471018 0.41151 0)
(-0.0471018 0.439935 0)
(-0.0471018 0.467926 0)
(-0.0471018 0.495455 0)
(-0.0471018 0.522495 0)
(-0.0471018 0.549019 0)
(-0.0471018 0.575002 0)
(-0.0471018 0.600417 0)
(-0.0471018 0.625239 0)
(-0.0471018 0.649445 0)
(-0.0471018 0.673009 0)
(-0.0471018 0.69591 0)
(-0.0471018 0.718123 0)
(-0.0471018 0.739628 0)
(-0.0471018 0.760403 0)
(-0.0471018 0.780428 0)
(-0.0471018 0.799682 0)
(-0.0471018 0.818147 0)
(-0.0471018 0.835805 0)
(-0.0471018 0.852638 0)
(-0.0471018 0.86863 0)
(-0.0471018 0.883764 0)
(-0.0471018 0.898026 0)
(-0.0471018 0.911402 0)
(-0.0471018 0.923878 0)
(-0.0471018 0.935443 0)
(-0.0471018 0.946084 0)
(-0.0471018 0.955792 0)
(-0.0471018 0.964556 0)
(-0.0471018 0.972369 0)
(-0.0471018 0.979222 0)
(-0.0471018 0.985109 0)
(-0.0471018 0.990023 0)
(-0.0471018 0.993961 0)
(-0.0471018 0.996917 0)
(-0.0471018 0.99889 0)
(-0.0471018 0.999877 0)
(-0.0471018 0.999877 0)
(-0.0471018 0.99889 0)
(-0.0471018 0.996918 0)
(-0.0471018 0.993961 0)
(-0.0471018 0.990024 0)
(-0.0471018 0.98511 0)
(-0.0471018 0.979223 0)
(-0.0471018 0.972371 0)
(-0.0471018 0.964558 0)
(-0.0471018 0.955794 0)
(-0.0471018 0.946086 0)
(-0.0471018 0.935445 0)
(-0.0471018 0.923881 0)
(-0.0471018 0.911405 0)
(-0.0471018 0.898029 0)
(-0.0471018 0.883767 0)
(-0.0471018 0.868633 0)
(-0.0471018 0.852642 0)
(-0.0471018 0.835809 0)
(-0.0471018 0.818151 0)
(-0.0471018 0.799686 0)
(-0.0471018 0.780432 0)
(-0.0471018 0.760408 0)
(-0.0471018 0.739633 0)
(-0.0471018 0.718128 0)
(-0.0471018 0.695915 0)
(-0.0471018 0.673015 0)
(-0.0471018 0.64945 0)
(-0.0471018 0.625245 0)
(-0.0471018 0.600422 0)
(-0.0471018 0.575008 0)
(-0.0471018 0.549025 0)
(-0.0471018 0.522501 0)
(-0.0471018 0.495461 0)
(-0.0471018 0.467932 0)
(-0.0471018 0.439942 0)
(-0.0471018 0.411517 0)
(-0.0471018 0.382686 0)
(-0.0471018 0.353477 0)
(-0.0471018 0.32392 0)
(-0.0471018 0.294043 0)
(-0.0471018 0.263876 0)
(-0.0471018 0.233448 0)
(-0.0471018 0.20279 0)
(-0.0471018 0.171932 0)
(-0.0471018 0.140904 0)
(-0.0471018 0.109737 0)
(-0.0471018 0.0784615 0)
(-0.0471018 0.0471088 0)
(-0.0471018 0.0157097 0)
(-0.0471018 -0.015705 0)
(-0.0471018 -0.0471041 0)
(-0.0471018 -0.0784568 0)
(-0.0471018 -0.109732 0)
(-0.0471018 -0.140899 0)
(-0.0471018 -0.171927 0)
(-0.0471018 -0.202785 0)
(-0.0471018 -0.233443 0)
(-0.0471018 -0.263871 0)
(-0.0471018 -0.294038 0)
(-0.0471018 -0.323915 0)
(-0.0471018 -0.353473 0)
(-0.0471018 -0.382682 0)
(-0.0471018 -0.411513 0)
(-0.0471018 -0.439937 0)
(-0.0471018 -0.467928 0)
(-0.0471018 -0.495457 0)
(-0.0471018 -0.522497 0)
(-0.0471018 -0.549021 0)
(-0.0471018 -0.575004 0)
(-0.0471018 -0.600419 0)
(-0.0471018 -0.625241 0)
(-0.0471018 -0.649447 0)
(-0.0471018 -0.673011 0)
(-0.0471018 -0.695912 0)
(-0.0471018 -0.718125 0)
(-0.0471018 -0.73963 0)
(-0.0471018 -0.760405 0)
(-0.0471018 -0.780429 0)
(-0.0471018 -0.799684 0)
(-0.0471018 -0.818149 0)
(-0.0471018 -0.835806 0)
(-0.0471018 -0.852639 0)
(-0.0471018 -0.868631 0)
(-0.0471018 -0.883765 0)
(-0.0471018 -0.898027 0)
(-0.0471018 -0.911403 0)
(-0.0471018 -0.923879 0)
(-0.0471018 -0.935444 0)
(-0.0471018 -0.946085 0)
(-0.0471018 -0.955793 0)
(-0.0471018 -0.964557 0)
(-0.0471018 -0.97237 0)
(-0.0471018 -0.979223 0)
(-0.0471018 -0.985109 0)
(-0.0471018 -0.990023 0)
(-0.0471018 -0.993961 0)
(-0.0471018 -0.996917 0)
(-0.0471018 -0.99889 0)
(-0.0471018 -0.999877 0)
(-0.0471018 -0.999877 0)
(-0.0471018 -0.99889 0)
(-0.0471018 -0.996917 0)
(-0.0471018 -0.993961 0)
(-0.0471018 -0.990024 0)
(-0.0471018 -0.98511 0)
(-0.0471018 -0.979223 0)
(-0.0471018 -0.97237 0)
(-0.0471018 -0.964558 0)
(-0.0471018 -0.955793 0)
(-0.0471018 -0.946086 0)
(-0.0471018 -0.935444 0)
(-0.0471018 -0.92388 0)
(-0.0471018 -0.911404 0)
(-0.0471018 -0.898028 0)
(-0.0471018 -0.883766 0)
(-0.0471018 -0.868632 0)
(-0.0471018 -0.852641 0)
(-0.0471018 -0.835808 0)
(-0.0471018 -0.81815 0)
(-0.0471018 -0.799685 0)
(-0.0471018 -0.780431 0)
(-0.0471018 -0.760406 0)
(-0.0471018 -0.739632 0)
(-0.0471018 -0.718127 0)
(-0.0471018 -0.695913 0)
(-0.0471018 -0.673013 0)
(-0.0471018 -0.649448 0)
(-0.0471018 -0.625243 0)
(-0.0471018 -0.600421 0)
(-0.0471018 -0.575006 0)
(-0.0471018 -0.549023 0)
(-0.0471018 -0.522499 0)
(-0.0471018 -0.495459 0)
(-0.0471018 -0.46793 0)
(-0.0471018 -0.439939 0)
(-0.0471018 -0.411515 0)
(-0.0471018 -0.382684 0)
(-0.0471018 -0.353475 0)
(-0.0471018 -0.323918 0)
(-0.0471018 -0.294041 0)
(-0.0471018 -0.263873 0)
(-0.0471018 -0.233446 0)
(-0.0471018 -0.202787 0)
(-0.0471018 -0.171929 0)
(-0.0471018 -0.140901 0)
(-0.0471018 -0.109734 0)
(-0.0471018 -0.0784592 0)
(-0.0471018 -0.0471065 0)
(-0.0471018 -0.0157073 0)
(-0.0471018 0.0157073 0)
(-0.0471018 0.0471065 0)
(-0.0471018 0.0784592 0)
(-0.0471018 0.109734 0)
(-0.0471018 0.140901 0)
(-0.0471018 0.171929 0)
(-0.0471018 0.202787 0)
(-0.0471018 0.233446 0)
(-0.0471018 0.263873 0)
(-0.0471018 0.294041 0)
(-0.0471018 0.323918 0)
(-0.0471018 0.353475 0)
(-0.0471018 0.382684 0)
(-0.0471018 0.411515 0)
(-0.0471018 0.439939 0)
(-0.0471018 0.46793 0)
(-0.0471018 0.495459 0)
(-0.0471018 0.522499 0)
(-0.0471018 0.549023 0)
(-0.0471018 0.575006 0)
(-0.0471018 0.600421 0)
(-0.0471018 0.625243 0)
(-0.0471018 0.649448 0)
(-0.0471018 0.673013 0)
(-0.0471018 0.695913 0)
(-0.0471018 0.718127 0)
(-0.0471018 0.739632 0)
(-0.0471018 0.760406 0)
(-0.0471018 0.780431 0)
(-0.0471018 0.799685 0)
(-0.0471018 0.81815 0)
(-0.0471018 0.835808 0)
(-0.0471018 0.852641 0)
(-0.0471018 0.868632 0)
(-0.0471018 0.883766 0)
(-0.0471018 0.898028 0)
(-0.0471018 0.911404 0)
(-0.0471018 0.92388 0)
(-0.0471018 0.935444 0)
(-0.0471018 0.946086 0)
(-0.0471018 0.955793 0)
(-0.0471018 0.964558 0)
(-0.0471018 0.97237 0)
(-0.0471018 0.979223 0)
(-0.0471018 0.98511 0)
(-0.0471018 0.990024 0)
(-0.0471018 0.993961 0)
(-0.0471018 0.996917 0)
(-0.0471018 0.99889 0)
(-0.0471018 0.999877 0)
(-0.0471018 0.999877 0)
(-0.0471018 0.99889 0)
(-0.0471018 0.996917 0)
(-0.0471018 0.993961 0)
(-0.0471018 0.990023 0)
(-0.0471018 0.985109 0)
(-0.0471018 0.979223 0)
(-0.0471018 0.97237 0)
(-0.0471018 0.964557 0)
(-0.0471018 0.955793 0)
(-0.0471018 0.946085 0)
(-0.0471018 0.935444 0)
(-0.0471018 0.923879 0)
(-0.0471018 0.911403 0)
(-0.0471018 0.898027 0)
(-0.0471018 0.883765 0)
(-0.0471018 0.868631 0)
(-0.0471018 0.852639 0)
(-0.0471018 0.835806 0)
(-0.0471018 0.818149 0)
(-0.0471018 0.799684 0)
(-0.0471018 0.780429 0)
(-0.0471018 0.760405 0)
(-0.0471018 0.73963 0)
(-0.0471018 0.718125 0)
(-0.0471018 0.695912 0)
(-0.0471018 0.673011 0)
(-0.0471018 0.649447 0)
(-0.0471018 0.625241 0)
(-0.0471018 0.600419 0)
(-0.0471018 0.575004 0)
(-0.0471018 0.549021 0)
(-0.0471018 0.522497 0)
(-0.0471018 0.495457 0)
(-0.0471018 0.467928 0)
(-0.0471018 0.439937 0)
(-0.0471018 0.411513 0)
(-0.0471018 0.382682 0)
(-0.0471018 0.353473 0)
(-0.0471018 0.323915 0)
(-0.0471018 0.294038 0)
(-0.0471018 0.263871 0)
(-0.0471018 0.233443 0)
(-0.0471018 0.202785 0)
(-0.0471018 0.171927 0)
(-0.0471018 0.140899 0)
(-0.0471018 0.109732 0)
(-0.0471018 0.0784568 0)
(-0.0471018 0.0471041 0)
(-0.0471018 0.015705 0)
(-0.0471018 -0.0157097 0)
(-0.0471018 -0.0471088 0)
(-0.0471018 -0.0784615 0)
(-0.0471018 -0.109737 0)
(-0.0471018 -0.140904 0)
(-0.0471018 -0.171932 0)
(-0.0471018 -0.20279 0)
(-0.0471018 -0.233448 0)
(-0.0471018 -0.263876 0)
(-0.0471018 -0.294043 0)
(-0.0471018 -0.32392 0)
(-0.0471018 -0.353477 0)
(-0.0471018 -0.382686 0)
(-0.0471018 -0.411517 0)
(-0.0471018 -0.439942 0)
(-0.0471018 -0.467932 0)
(-0.0471018 -0.495461 0)
(-0.0471018 -0.522501 0)
(-0.0471018 -0.549025 0)
(-0.0471018 -0.575008 0)
(-0.0471018 -0.600422 0)
(-0.0471018 -0.625245 0)
(-0.0471018 -0.64945 0)
(-0.0471018 -0.673015 0)
(-0.0471018 -0.695915 0)
(-0.0471018 -0.718128 0)
(-0.0471018 -0.739633 0)
(-0.0471018 -0.760408 0)
(-0.0471018 -0.780432 0)
(-0.0471018 -0.799686 0)
(-0.0471018 -0.818151 0)
(-0.0471018 -0.835809 0)
(-0.0471018 -0.852642 0)
(-0.0471018 -0.868633 0)
(-0.0471018 -0.883767 0)
(-0.0471018 -0.898029 0)
(-0.0471018 -0.911405 0)
(-0.0471018 -0.923881 0)
(-0.0471018 -0.935445 0)
(-0.0471018 -0.946086 0)
(-0.0471018 -0.955794 0)
(-0.0471018 -0.964558 0)
(-0.0471018 -0.972371 0)
(-0.0471018 -0.979223 0)
(-0.0471018 -0.98511 0)
(-0.0471018 -0.990024 0)
(-0.0471018 -0.993961 0)
(-0.0471018 -0.996918 0)
(-0.0471018 -0.99889 0)
(-0.0471018 -0.999877 0)
(-0.0471018 -0.999877 0)
(-0.0471018 -0.99889 0)
(-0.0471018 -0.996917 0)
(-0.0471018 -0.993961 0)
(-0.0471018 -0.990023 0)
(-0.0471018 -0.985109 0)
(-0.0471018 -0.979222 0)
(-0.0471018 -0.972369 0)
(-0.0471018 -0.964556 0)
(-0.0471018 -0.955792 0)
(-0.0471018 -0.946084 0)
(-0.0471018 -0.935443 0)
(-0.0471018 -0.923878 0)
(-0.0471018 -0.911402 0)
(-0.0471018 -0.898026 0)
(-0.0471018 -0.883764 0)
(-0.0471018 -0.86863 0)
(-0.0471018 -0.852638 0)
(-0.0471018 -0.835805 0)
(-0.0471018 -0.818147 0)
(-0.0471018 -0.799682 0)
(-0.0471018 -0.780428 0)
(-0.0471018 -0.760403 0)
(-0.0471018 -0.739628 0)
(-0.0471018 -0.718123 0)
(-0.0471018 -0.69591 0)
(-0.0471018 -0.673009 0)
(-0.0471018 -0.649445 0)
(-0.0471018 -0.625239 0)
(-0.0471018 -0.600417 0)
(-0.0471018 -0.575002 0)
(-0.0471018 -0.549019 0)
(-0.0471018 -0.522495 0)
(-0.0471018 -0.495455 0)
(-0.0471018 -0.467926 0)
(-0.0471018 -0.439935 0)
(-0.0471018 -0.41151 0)
(-0.0471018 -0.382679 0)
(-0.0471018 -0.353471 0)
(-0.0471018 -0.323913 0)
(-0.0471018 -0.294036 0)
(-0.0471018 -0.263869 0)
(-0.0471018 -0.233441 0)
(-0.0471018 -0.202783 0)
(-0.0471018 -0.171925 0)
(-0.0471018 -0.140897 0)
(-0.0471018 -0.10973 0)
(-0.0471018 -0.0784545 0)
(-0.0471018 -0.0471018 0)
(-0.0471018 -0.0157026 0)
(-0.0784545 0.0157026 0)
(-0.0784545 0.0471018 0)
(-0.0784545 0.0784545 0)
(-0.0784545 0.10973 0)
(-0.0784545 0.140897 0)
(-0.0784545 0.171925 0)
(-0.0784545 0.202783 0)
(-0.0784545 0.233441 0)
(-0.0784545 0.263869 0)
(-0.0784545 0.294036 0)
(-0.0784545 0.323913 0)
(-0.0784545 0.353471 0)
(-0.0784545 0.382679 0)
(-0.0784545 0.41151 0)
(-0.0784545 0.439935 0)
(-0.0784545 0.467926 0)
(-0.0784545 0.495455 0)
(-0.0784545 0.522495 0)
(-0.0784545 0.549019 0)
(-0.0784545 0.575002 0)
(-0.0784545 0.600417 0)
(-0.0784545 0.625239 0)
(-0.0784545 0.649445 0)
(-0.0784545 0.673009 0)
(-0.0784545 0.69591 0)
(-0.0784545 0.718123 0)
(-0.0784545 0.739628 0)
(-0.0784545 0.760403 0)
(-0.0784545 0.780428 0)
(-0.0784545 0.799682 0)
(-0.0784545 0.818147 0)
(-0.0784545 0.835805 0)
(-0.0784545 0.852638 0)
(-0.0784545 0.86863 0)
(-0.0784545 0.883764 0)
(-0.0784545 0.898026 0)
(-0.0784545 0.911402 0)
(-0.0784545 0.923878 0)
(-0.0784545 0.935443 0)
(-0.0784545 0.946084 0)
(-0.0784545 0.955792 0)
(-0.0784545 0.964556 0)
(-0.0784545 0.972369 0)
(-0.0784545 0.979222 0)
(-0.0784545 0.985109 0)
(-0.0784545 0.990023 0)
(-0.0784545 0.993961 0)
(-0.0784545 0.996917 0)
(-0.0784545 0.99889 0)
(-0.0784545 0.999877 0)
(-0.0784545 0.999877 0)
(-0.0784545 0.99889 0)
(-0.0784545 0.996918 0)
(-0.0784545 0.993961 0)
(-0.0784545 0.990024 0)
(-0.0784545 0.98511 0)
(-0.0784545 0.979223 0)
(-0.0784545 0.972371 0)
(-0.0784545 0.964558 0)
(-0.0784545 0.955794 0)
(-0.0784545 0.946086 0)
(-0.0784545 0.935445 0)
(-0.0784545 0.923881 0)
(-0.0784545 0.911405 0)
(-0.0784545 0.898029 0)
(-0.0784545 0.883767 0)
(-0.0784545 0.868633 0)
(-0.0784545 0.852642 0)
(-0.0784545 0.835809 0)
(-0.0784545 0.818151 0)
(-0.0784545 0.799686 0)
(-0.0784545 0.780432 0)
(-0.0784545 0.760408 0)
(-0.0784545 0.739633 0)
(-0.0784545 0.718128 0)
(-0.0784545 0.695915 0)
(-0.0784545 0.673015 0)
(-0.0784545 0.64945 0)
(-0.0784545 0.625245 0)
(-0.0784545 0.600422 0)
(-0.0784545 0.575008 0)
(-0.0784545 0.549025 0)
(-0.0784545 0.522501 0)
(-0.0784545 0.495461 0)
(-0.0784545 0.467932 0)
(-0.0784545 0.439942 0)
(-0.0784545 0.411517 0)
(-0.0784545 0.382686 0)
(-0.0784545 0.353477 0)
(-0.0784545 0.32392 0)
(-0.0784545 0.294043 0)
(-0.0784545 0.263876 0)
(-0.0784545 0.233448 0)
(-0.0784545 0.20279 0)
(-0.0784545 0.171932 0)
(-0.0784545 0.140904 0)
(-0.0784545 0.109737 0)
(-0.0784545 0.0784615 0)
(-0.0784545 0.0471088 0)
(-0.0784545 0.0157097 0)
(-0.0784545 -0.015705 0)
(-0.0784545 -0.0471041 0)
(-0.0784545 -0.0784568 0)
(-0.0784545 -0.109732 0)
(-0.0784545 -0.140899 0)
(-0.0784545 -0.171927 0)
(-0.0784545 -0.202785 0)
(-0.0784545 -0.233443 0)
(-0.0784545 -0.263871 0)
(-0.0784545 -0.294038 0)
(-0.0784545 -0.323915 0)
(-0.0784545 -0.353473 0)
(-0.0784545 -0.382682 0)
(-0.0784545 -0.411513 0)
(-0.0784545 -0.439937 0)
(-0.0784545 -0.467928 0)
(-0.0784545 -0.495457 0)
(-0.0784545 -0.522497 0)
(-0.0784545 -0.549021 0)
(-0.0784545 -0.575004 0)
(-0.0784545 -0.600419 0)
(-0.0784545 -0.625241 0)
(-0.0784545 -0.649447 0)
(-0.0784545 -0.673011 0)
(-0.0784545 -0.695912 0)
(-0.0784545 -0.718125 0)
(-0.0784545 -0.73963 0)
(-0.0784545 -0.760405 0)
(-0.0784545 -0.780429 0)
(-0.0784545 -0.799684 0)
(-0.0784545 -0.818149 0)
(-0.0784545 -0.835806 0)
(-0.0784545 -0.852639 0)
(-0.0784545 -0.868631 0)
(-0.0784545 -0.883765 0)
(-0.0784545 -0.898027 0)
(-0.0784545 -0.911403 0)
(-0.0784545 -0.923879 0)
(-0.0784545 -0.935444 0)
(-0.0784545 -0.946085 0)
(-0.0784545 -0.955793 0)
(-0.0784545 -0.964557 0)
(-0.0784545 -0.97237 0)
(-0.0784545 -0.979223 0)
(-0.0784545 -0.985109 0)
(-0.0784545 -0.990023 0)
(-0.0784545 -0.993961 0)
(-0.0784545 -0.996917 0)
(-0.0784545 -0.99889 0)
(-0.0784545 -0.999877 0)
(-0.0784545 -0.999877 0)
(-0.0784545 -0.99889 0)
(-0.0784545 -0.996917 0)
(-0.0784545 -0.993961 0)
(-0.0784545 -0.990024 0)
(-0.0784545 -0.98511 0)
(-0.0784545 -0.979223 0)
(-0.0784545 -0.97237 0)
(-0.0784545 -0.964558 0)
(-0.0784545 -0.955793 0)
(-0.0784545 -0.946086 0)
(-0.0784545 -0.935444 0)
(-0.0784545 -0.92388 0)
(-0.0784545 -0.911404 0)
(-0.0784545 -0.898028 0)
(-0.0784545 -0.883766 0)
(-0.0784545 -0.868632 0)
(-0.0784545 -0.852641 0)
(-0.0784545 -0.835808 0)
(-0.0784545 -0.81815 0)
(-0.0784545 -0.799685 0)
(-0.0784545 -0.780431 0)
(-0.0784545 -0.760406 0)
(-0.0784545 -0.739632 0)
(-0.0784545 -0.718127 0)
(-0.0784545 -0.695913 0)
(-0.0784545 -0.673013 0)
(-0.0784545 -0.649448 0)
(-0.0784545 -0.625243 0)
(-0.0784545 -0.600421 0)
(-0.0784545 -0.575006 0)
(-0.0784545 -0.549023 0)
(-0.0784545 -0.522499 0)
(-0.0784545 -0.495459 0)
(-0.0784545 -0.46793 0)
(-0.0784545 -0.439939 0)
(-0.0784545 -0.411515 0)
(-0.0784545 -0.382684 0)
(-0.0784545 -0.353475 0)
(-0.0784545 -0.323918 0)
(-0.0784545 -0.294041 0)
(-0.0784545 -0.263873 0)
(-0.0784545 -0.233446 0)
(-0.0784545 -0.202787 0)
(-0.0784545 -0.171929 0)
(-0.0784545 -0.140901 0)
(-0.0784545 -0.109734 0)
(-0.0784545 -0.0784592 0)
(-0.0784545 -0.0471065 0)
(-0.0784545 -0.0157073 0)
(-0.0784545 0.0157073 0)
(-0.0784545 0.0471065 0)
(-0.0784545 0.0784592 0)
(-0.0784545 0.109734 0)
(-0.0784545 0.140901 0)
(-0.0784545 0.171929 0)
(-0.0784545 0.202787 0)
(-0.0784545 0.233446 0)
(-0.0784545 0.263873 0)
(-0.0784545 0.294041 0)
(-0.0784545 0.323918 0)
(-0.0784545 0.353475 0)
(-0.0784545 0.382684 0)
(-0.0784545 0.411515 0)
(-0.0784545 0.439939 0)
(-0.0784545 0.46793 0)
(-0.0784545 0.495459 0)
(-0.0784545 0.522499 0)
(-0.0784545 0.549023 0)
(-0.0784545 0.575006 0)
(-0.0784545 0.600421 0)
(-0.0784545 0.625243 0)
(-0.0784545 0.649448 0)
(-0.0784545 0.673013 0)
(-0.0784545 0.695913 0)
(-0.0784545 0.718127 0)
(-0.0784545 0.739632 0)
(-0.0784545 0.760406 0)
(-0.0784545 0.780431 0)
(-0.0784545 0.799685 0)
(-0.0784545 0.81815 0)
(-0.0784545 0.835808 0)
(-0.0784545 0.852641 0)
(-0.0784545 0.868632 0)
(-0.0784545 0.883766 0)
(-0.0784545 0.898028 0)
(-0.0784545 0.911404 0)
(-0.0784545 0.92388 0)
(-0.0784545 0.935444 0)
(-0.0784545 0.946086 0)
(-0.0784545 0.955793 0)
(-0.0784545 0.964558 0)
(-0.0784545 0.97237 0)
(-0.0784545 0.979223 0)
(-0.0784545 0.98511 0)
(-0.0784545 0.990024 0)
(-0.0784545 0.993961 0)
(-0.0784545 0.996917 0)
(-0.0784545 0.99889 0)
(-0.0784545 0.999877 0)
(-0.0784545 0.999877 0)
(-0.0784545 0.99889 0)
(-0.0784545 0.996917 0)
(-0.0784545 0.993961 0)
(-0.0784545 0.990023 0)
(-0.0784545 0.985109 0)
(-0.0784545 0.979223 0)
(-0.0784545 0.97237 0)
(-0.0784545 0.964557 0)
(-0.0784545 0.955793 0)
(-0.0784545 0.946085 0)
(-0.0784545 0.935444 0)
(-0.0784545 0.923879 0)
(-0.0784545 0.911403 0)
(-0.0784545 0.898027 0)
(-0.0784545 0.883765 0)
(-0.0784545 0.868631 0)
(-0.0784545 0.852639 0)
(-0.0784545 0.835806 0)
(-0.0784545 0.818149 0)
(-0.0784545 0.799684 0)
(-0.0784545 0.780429 0)
(-0.0784545 0.760405 0)
(-0.0784545 0.73963 0)
(-0.0784545 0.718125 0)
(-0.0784545 0.695912 0)
(-0.0784545 0.673011 0)
(-0.0784545 0.649447 0)
(-0.0784545 0.625241 0)
(-0.0784545 0.600419 0)
(-0.0784545 0.575004 0)
(-0.0784545 0.549021 0)
(-0.0784545 0.522497 0)
(-0.0784545 0.495457 0)
(-0.0784545 0.467928 0)
(-0.0784545 0.439937 0)
(-0.0784545 0.411513 0)
(-0.0784545 0.382682 0)
(-0.0784545 0.353473 0)
(-0.0784545 0.323915 0)
(-0.0784545 0.294038 0)
(-0.0784545 0.263871 0)
(-0.0784545 0.233443 0)
(-0.0784545 0.202785 0)
(-0.0784545 0.171927 0)
(-0.0784545 0.140899 0)
(-0.0784545 0.109732 0)
(-0.0784545 0.0784568 0)
(-0.0784545 0.0471041 0)
(-0.0784545 0.015705 0)
(-0.0784545 -0.0157097 0)
(-0.0784545 -0.0471088 0)
(-0.0784545 -0.0784615 0)
(-0.0784545 -0.109737 0)
(-0.0784545 -0.140904 0)
(-0.0784545 -0.171932 0)
(-0.0784545 -0.20279 0)
(-0.0784545 -0.233448 0)
(-0.0784545 -0.263876 0)
(-0.0784545 -0.294043 0)
(-0.0784545 -0.32392 0)
(-0.0784545 -0.353477 0)
(-0.0784545 -0.382686 0)
(-0.0784545 -0.411517 0)
(-0.0784545 -0.439942 0)
(-0.0784545 -0.467932 0)
(-0.0784545 -0.495461 0)
(-0.0784545 -0.522501 0)
(-0.0784545 -0.549025 0)
(-0.0784545 -0.575008 0)
(-0.0784545 -0.600422 0)
(-0.0784545 -0.625245 0)
(-0.0784545 -0.64945 0)
(-0.0784545 -0.673015 0)
(-0.0784545 -0.695915 0)
(-0.0784545 -0.718128 0)
(-0.0784545 -0.739633 0)
(-0.0784545 -0.760408 0)
(-0.0784545 -0.780432 0)
(-0.0784545 -0.799686 0)
(-0.0784545 -0.818151 0)
(-0.0784545 -0.835809 0)
(-0.0784545 -0.852642 0)
(-0.0784545 -0.868633 0)
(-0.0784545 -0.883767 0)
(-0.0784545 -0.898029 0)
(-0.0784545 -0.911405 0)
(-0.0784545 -0.923881 0)
(-0.0784545 -0.935445 0)
(-0.0784545 -0.946086 0)
(-0.0784545 -0.955794 0)
(-0.0784545 -0.964558 0)
(-0.0784545 -0.972371 0)
(-0.0784545 -0.979223 0)
(-0.0784545 -0.98511 0)
(-0.0784545 -0.990024 0)
(-0.0784545 -0.993961 0)
(-0.0784545 -0.996918 0)
(-0.0784545 -0.99889 0)
(-0.0784545 -0.999877 0)
(-0.0784545 -0.999877 0)
(-0.0784545 -0.99889 0)
(-0.0784545 -0.996917 0)
(-0.0784545 -0.993961 0)
(-0.0784545 -0.990023 0)
(-0.0784545 -0.985109 0)
(-0.0784545 -0.979222 0)
(-0.0784545 -0.972369 0)
(-0.0784545 -0.964556 0)
(-0.0784545 -0.955792 0)
(-0.0784545 -0.946084 0)
(-0.0784545 -0.935443 0)
(-0.0784545 -0.923878 0)
(-0.0784545 -0.911402 0)
(-0.0784545 -0.898026 0)
(-0.0784545 -0.883764 0)
(-0.0784545 -0.86863 0)
(-0.0784545 -0.852638 0)
(-0.0784545 -0.835805 0)
(-0.0784545 -0.818147 0)
(-0.0784545 -0.799682 0)
(-0.0784545 -0.780428 0)
(-0.0784545 -0.760403 0)
(-0.0784545 -0.739628 0)
(-0.0784545 -0.718123 0)
(-0.0784545 -0.69591 0)
(-0.0784545 -0.673009 0)
(-0.0784545 -0.649445 0)
(-0.0784545 -0.625239 0)
(-0.0784545 -0.600417 0)
(-0.0784545 -0.575002 0)
(-0.0784545 -0.549019 0)
(-0.0784545 -0.522495 0)
(-0.0784545 -0.495455 0)
(-0.0784545 -0.467926 0)
(-0.0784545 -0.439935 0)
(-0.0784545 -0.41151 0)
(-0.0784545 -0.382679 0)
(-0.0784545 -0.353471 0)
(-0.0784545 -0.323913 0)
(-0.0784545 -0.294036 0)