/*--------------------------------*- C++ -*----------------------------------*\
| =========                 |                                                 |
| \\      /  F ield         | OpenFOAM: The Open Source CFD Toolbox           |
|  \\    /   O peration     | Version:  2106                                  |
|   \\  /    A nd           | Website:  www.openfoam.com                      |
|    \\/     M anipulation  |                                                 |
\*---------------------------------------------------------------------------*/
FoamFile
{
    version     2.0;
    format      ascii;
    arch        "LSB;label=32;scalar=64";
    class       surfaceScalarField;
    location    "0.045";
    object      phi;
}
// * * * * * * * * * * * * * * * * * * * * * * * * * * * * * * * * * * * * * //

dimensions      [0 3 -1 0 0 0 0];

oriented        oriented;

internalField   nonuniform List<scalar> 
799
(
1.88162e-32
4.76278e-32
6.17953e-32
5.19211e-32
2.76493e-32
-3.82071e-32
-9.68133e-32
-1.4192e-31
-1.51206e-31
-1.12683e-31
-5.61343e-32
6.88116e-33
4.60788e-32
5.65283e-32
3.56325e-32
-2.92171e-33
-5.31602e-32
-1.04876e-31
-1.44229e-31
-1.71248e-31
-1.62145e-31
-1.25089e-31
-6.29689e-32
8.73289e-33
5.02397e-32
6.02333e-32
1.94391e-32
-5.03375e-32
-1.15808e-31
-1.67609e-31
-1.69692e-31
-1.41651e-31
-9.46045e-32
-3.88692e-32
-1.33223e-32
-1.61173e-33
-1.82055e-32
-5.55272e-32
-8.48553e-32
-1.21024e-31
-1.29491e-31
-1.1653e-31
-9.26056e-32
-4.5455e-32
-1.9792e-32
-9.08422e-33
-2.45996e-32
-7.31833e-32
-1.12777e-31
-1.48725e-31
-1.50333e-31
-1.1618e-31
-7.27038e-32
-1.81159e-32
6.57224e-33
6.78119e-34
-3.21706e-32
-9.10198e-32
-1.36196e-31
-1.61125e-31
-1.47756e-31
-9.44142e-32
-3.21303e-32
2.29718e-32
3.59457e-32
-4.65157e-33
-7.83056e-32
-1.61694e-31
-2.07e-31
-1.89364e-31
-1.17873e-31
-1.60138e-32
6.05363e-32
7.71756e-32
3.02025e-32
-6.34642e-32
-1.49861e-31
-1.94374e-31
-1.82741e-31
-1.23362e-31
-5.69929e-32
-7.85851e-33
7.63564e-33
-7.24255e-33
-3.12353e-32
-5.70512e-32
-7.65046e-32
-9.45218e-32
-1.14706e-31
-1.26853e-31
-1.24774e-31
-9.3543e-32
-4.08833e-32
1.26179e-32
4.53707e-32
2.65628e-32
-3.19505e-32
-1.13652e-31
-1.82941e-31
-1.96234e-31
-1.6089e-31
-7.50511e-32
1.58381e-32
6.91334e-32
7.82274e-32
2.03332e-32
-5.88731e-32
-1.32601e-31
-1.76466e-31
-1.5941e-31
-1.15522e-31
-5.27165e-32
-6.02906e-33
2.597e-33
-8.80812e-33
-3.93928e-32
-5.62041e-32
-5.36799e-32
-4.09183e-32
-2.70037e-32
-3.69046e-32
-6.73773e-32
-1.08891e-31
-1.39691e-31
-1.38252e-31
-1.03559e-31
-4.41708e-32
1.53066e-32
5.31333e-32
5.85075e-32
2.85746e-32
-2.37928e-32
-8.47447e-32
-1.40065e-31
-1.71928e-31
-1.74663e-31
-1.40946e-31
-7.68081e-32
-3.06941e-33
6.17053e-32
8.69879e-32
6.4418e-32
1.20314e-33
-8.30014e-32
-1.47853e-31
-1.74366e-31
-1.50888e-31
-9.06662e-32
-2.79655e-32
1.53142e-32
1.60646e-32
-1.85416e-32
-6.55867e-32
-1.02721e-31
-1.03292e-31
-7.04394e-32
-1.96821e-32
2.19932e-32
2.47602e-32
-1.53247e-32
-8.6484e-32
-1.5337e-31
-1.80356e-31
-1.49496e-31
-6.93581e-32
1.99442e-32
7.79731e-32
6.9997e-32
3.43056e-33
-8.65976e-32
-1.57434e-31
-1.64403e-31
-1.18088e-31
-4.07005e-32
2.19014e-32
2.82344e-32
-7.81845e-33
-7.67844e-32
-1.26485e-31
-1.28748e-31
-9.26147e-32
-2.17634e-32
2.75694e-32
4.08747e-32
1.16579e-32
-5.58625e-32
-1.11984e-31
-1.48604e-31
-1.41095e-31
-9.42231e-32
-3.90843e-32
1.66211e-32
3.94003e-32
3.05888e-32
-1.26013e-33
-5.01336e-32
-8.8093e-32
-1.12708e-31
-1.16913e-31
-9.9763e-32
-7.38135e-32
-3.89286e-32
-5.85604e-33
1.59198e-32
2.23664e-32
3.01453e-33
-3.68627e-32
-8.34214e-32
-1.20213e-31
-1.23521e-31
-8.97032e-32
-3.18039e-32
2.52026e-32
4.60342e-32
1.73423e-32
-5.0679e-32
-1.26168e-31
-1.6363e-31
-1.3784e-31
-5.54517e-32
4.72733e-32
1.13836e-31
1.03802e-31
1.7143e-32
-1.12077e-31
-2.16932e-31
-2.42005e-31
-1.75127e-31
-3.90452e-32
9.47843e-32
1.63047e-31
1.37811e-31
2.41295e-32
-1.12614e-31
-2.12843e-31
-2.3461e-31
-1.65415e-31
-5.34664e-32
5.53675e-32
1.12537e-31
9.37841e-32
2.37017e-32
-6.8673e-32
-1.3824e-31
-1.5631e-31
-1.25663e-31
-6.3345e-32
-3.67657e-33
2.43104e-32
1.11839e-32
-2.88227e-32
-7.15724e-32
-8.6555e-32
-6.30652e-32
-1.99394e-32
2.0814e-32
2.30841e-32
-2.0615e-32
-8.57249e-32
-1.44514e-31
-1.53427e-31
-1.04742e-31
-2.43299e-32
5.52126e-32
8.7034e-32
5.8777e-32
-7.12773e-33
-8.30948e-32
-1.27087e-31
-1.24777e-31
-9.38424e-32
-4.68931e-32
-1.46813e-32
-4.07229e-33
-1.08399e-33
-8.46751e-33
-8.04753e-33
-6.82351e-33
-1.45212e-32
-2.09709e-32
-3.40266e-32
-3.72923e-32
-2.90605e-32
-2.07218e-32
-1.32543e-32
-1.9983e-32
-3.00014e-32
-2.69363e-32
9.90048e-34
5.5485e-32
1.12838e-31
1.41873e-31
1.18177e-31
4.9329e-32
-3.28312e-32
-7.66447e-32
-4.71657e-32
4.91413e-32
1.78751e-31
2.75476e-31
3.01044e-31
2.52948e-31
1.63445e-31
9.99979e-32
9.70793e-32
1.66491e-31
2.77596e-31
3.74747e-31
4.31892e-31
4.35223e-31
4.15703e-31
4.12602e-31
4.43918e-31
5.18606e-31
6.0481e-31
6.77372e-31
7.24194e-31
7.44867e-31
7.7335e-31
8.27361e-31
9.18256e-31
1.04002e-30
1.15785e-30
1.25789e-30
1.32579e-30
1.37334e-30
1.43581e-30
1.52785e-30
1.67197e-30
1.8523e-30
2.03698e-30
2.2064e-30
2.32841e-30
2.42104e-30
2.5093e-30
2.6239e-30
2.80731e-30
3.04758e-30
3.33189e-30
3.61683e-30
3.84991e-30
4.01656e-30
4.11976e-30
4.16294e-30
4.36494e-30
4.67526e-30
5.81165e-30
8.01099e-30
1.14026e-29
1.80554e-29
2.05149e-29
2.30792e-29
5.78534e-30
-3.71864e-29
-8.87783e-29
-1.94585e-28
-1.85434e-28
-1.24846e-28
1.62975e-28
8.07011e-28
1.17219e-27
1.81449e-27
1.05271e-27
-7.6533e-28
-3.04079e-27
-7.54734e-27
-7.21789e-27
-5.9357e-27
1.74351e-27
1.68714e-26
2.26629e-26
3.30435e-26
1.66429e-26
-1.36166e-26
-4.1013e-26
-9.05015e-26
-7.13284e-26
-4.2201e-26
3.15639e-26
1.54618e-25
1.62729e-25
1.91991e-25
5.43045e-26
-1.45607e-25
-2.41569e-25
-4.15718e-25
-2.36531e-25
-3.16505e-26
2.19147e-25
5.89188e-25
4.55149e-25
3.83027e-25
-3.70915e-26
-5.44009e-25
-5.80057e-25
-7.54259e-25
-2.54586e-25
2.2362e-25
5.06841e-25
9.15285e-25
5.06851e-25
2.23636e-25
-2.54572e-25
-7.54255e-25
-5.80062e-25
-5.44022e-25
-3.71055e-26
3.83018e-25
4.55147e-25
5.89192e-25
2.19154e-25
-3.16446e-26
-2.36529e-25
-4.1572e-25
-2.41574e-25
-1.45612e-25
5.4301e-26
1.91989e-25
1.62729e-25
1.54619e-25
3.15644e-26
-4.22011e-26
-7.1329e-26
-9.0502e-26
-4.10138e-26
-1.36173e-26
1.66421e-26
3.30427e-26
2.26621e-26
1.68707e-26
1.74295e-27
-5.93617e-27
-7.21826e-27
-7.54766e-27
-3.04113e-27
-7.65689e-28
1.0523e-27
1.81405e-27
1.17174e-27
8.06576e-28
1.62612e-28
-1.25128e-28
-1.85615e-28
-1.94699e-28
-8.8893e-29
-3.73464e-29
5.51852e-30
2.27286e-29
2.01303e-29
1.77102e-29
1.11834e-29
7.92618e-30
5.84464e-30
4.75335e-30
4.39975e-30
4.11035e-30
3.95352e-30
3.77112e-30
3.58544e-30
3.38754e-30
3.19677e-30
3.02213e-30
2.87749e-30
2.75502e-30
2.6311e-30
2.48459e-30
2.30102e-30
2.08932e-30
1.88486e-30
1.71454e-30
1.60492e-30
1.54905e-30
1.51741e-30
1.48411e-30
1.41314e-30
1.30657e-30
1.17199e-30
1.02974e-30
9.11332e-31
8.22675e-31
7.7742e-31
7.64144e-31
7.63002e-31
7.56896e-31
7.18766e-31
6.43888e-31
5.42191e-31
4.36213e-31
3.60218e-31
3.36681e-31
3.59351e-31
4.09625e-31
4.44321e-31
4.28441e-31
3.63017e-31
2.54783e-31
1.54974e-31
9.98286e-32
9.98655e-32
1.59785e-31
2.27707e-31
2.72863e-31
2.67919e-31
1.99871e-31
1.08273e-31
1.87353e-32
-2.71124e-32
-7.55627e-33
5.92667e-32
1.4929e-31
2.13217e-31
2.14228e-31
1.47033e-31
3.17959e-32
-8.12009e-32
-1.36879e-31
-1.10503e-31
-1.01649e-32
1.1714e-31
2.06303e-31
2.18121e-31
1.43241e-31
2.02087e-32
-9.32722e-32
-1.49263e-31
-1.26844e-31
-4.87531e-32
4.75614e-32
1.14024e-31
1.30849e-31
9.8816e-32
3.62519e-32
-2.06496e-32
-6.04114e-32
-6.3554e-32
-4.02824e-32
-5.43022e-33
3.26552e-32
4.48621e-32
4.16859e-32
1.656e-32
-1.38366e-32
-2.37262e-32
-2.27741e-32
6.72721e-33
3.28933e-32
3.9632e-32
2.83751e-32
-1.663e-32
-5.18993e-32
-6.836e-32
-5.40953e-32
-2.21482e-33
4.33041e-32
7.53031e-32
7.16363e-32
3.34721e-32
-5.59122e-33
-4.09245e-32
-5.14693e-32
-4.52744e-32
-4.24314e-32
-3.85412e-32
-4.03452e-32
-2.70399e-32
1.4732e-32
6.82891e-32
1.19077e-31
1.22655e-31
6.04411e-32
-4.64345e-32
-1.65832e-31
-2.23861e-31
-1.87188e-31
-6.44714e-32
1.06271e-31
2.28581e-31
2.52103e-31
1.56981e-31
-2.60042e-32
-1.95588e-31
-2.8887e-31
-2.51338e-31
-9.7747e-32
8.58972e-32
2.32125e-31
2.58025e-31
1.60293e-31
-4.5564e-33
-1.72779e-31
-2.48675e-31
-2.14898e-31
-9.38263e-32
6.16256e-32
1.62395e-31
1.85082e-31
1.22361e-31
1.14803e-32
-8.29008e-32
-1.40925e-31
-1.37192e-31
-9.27854e-32
-3.72133e-32
2.03005e-32
5.2778e-32
7.02957e-32
6.94508e-32
4.88101e-32
2.1116e-32
-2.01011e-32
-5.59184e-32
-8.17693e-32
-9.08832e-32
-7.71467e-32
-5.08521e-32
-1.14796e-32
2.59369e-32
5.83715e-32
7.37281e-32
6.58096e-32
3.82147e-32
-1.21339e-32
-5.81255e-32
-9.51225e-32
-1.04822e-31
-8.09583e-32
-4.53459e-32
5.97114e-33
4.13774e-32
5.89365e-32
6.11423e-32
3.54198e-32
7.83011e-33
-2.98324e-32
-6.32768e-32
-7.78166e-32
-8.10847e-32
-5.53095e-32
-1.83659e-32
2.07459e-32
5.22424e-32
5.53885e-32
3.95126e-32
4.21899e-33
-3.46066e-32
-6.12498e-32
-7.24496e-32
-6.06321e-32
-3.46697e-32
-2.26964e-33
2.54554e-32
3.87232e-32
3.28886e-32
1.26088e-32
-1.22357e-32
-3.12994e-32
-3.15236e-32
-2.29705e-32
-9.19932e-33
-4.79545e-33
-1.77908e-32
-2.88513e-32
-3.5723e-32
-1.5582e-32
2.38078e-32
5.71595e-32
7.13e-32
3.67115e-32
-2.46728e-32
-8.69091e-32
-1.17023e-31
-8.48447e-32
-1.3978e-32
7.08201e-32
1.1925e-31
1.05049e-31
4.08207e-32
-4.86553e-32
-1.07277e-31
-1.12662e-31
-6.23023e-32
1.79172e-32
7.75586e-32
9.54103e-32
5.79912e-32
-8.12201e-33
-6.3005e-32
-8.36155e-32
-5.15638e-32
7.67108e-33
6.30998e-32
8.7714e-32
6.04449e-32
2.37036e-33
-6.18773e-32
-1.01362e-31
-9.03728e-32
-4.10043e-32
3.03289e-32
9.28434e-32
1.15208e-31
9.74039e-32
4.12962e-32
-3.04365e-32
-8.66563e-32
-1.17796e-31
-1.0679e-31
-6.09211e-32
1.62627e-33
7.07937e-32
1.15952e-31
1.28039e-31
1.0067e-31
3.3533e-32
-4.46981e-32
-1.15196e-31
-1.46309e-31
-1.20956e-31
-4.968e-32
4.889e-32
1.29669e-31
1.5962e-31
1.25316e-31
3.66312e-32
-6.33541e-32
-1.31974e-31
-1.37999e-31
-7.78877e-32
1.62013e-32
1.00575e-31
1.36334e-31
1.05725e-31
2.97707e-32
-5.49868e-32
-1.07778e-31
-9.9047e-32
-4.19484e-32
4.03527e-32
1.05526e-31
1.17545e-31
8.32423e-32
9.16246e-33
-5.93994e-32
-8.79872e-32
-7.54032e-32
-1.31595e-32
5.17872e-32
9.46324e-32
1.0315e-31
6.07149e-32
9.54389e-33
-3.87618e-32
-6.11347e-32
-4.15249e-32
-8.37629e-33
3.67627e-32
6.75708e-32
7.32184e-32
6.51732e-32
4.08638e-32
1.89636e-32
6.00198e-33
-1.1044e-33
1.0792e-33
3.68104e-33
2.0448e-33
3.398e-33
3.70516e-33
1.37223e-32
3.67762e-32
6.09376e-32
9.03562e-32
9.91983e-32
8.55175e-32
5.06971e-32
-7.05315e-33
-5.03781e-32
-7.5847e-32
-6.06297e-32
-6.76408e-33
5.77719e-32
1.21473e-31
1.45441e-31
1.30671e-31
7.92919e-32
1.60883e-32
-3.24783e-32
-5.2541e-32
-3.07931e-32
3.86691e-34
4.96559e-32
7.05507e-32
7.17003e-32
6.51987e-32
2.09044e-32
1.20318e-32
-1.99198e-32
-2.56015e-32
-5.15626e-33
)
;

boundaryField
{
    left
    {
        type            calculated;
        value           uniform 0;
    }
    right
    {
        type            calculated;
        value           uniform 0;
    }
    empty
    {
        type            empty;
        value           nonuniform List<scalar> 0();
    }
}


// ************************************************************************* //
