/*--------------------------------*- C++ -*----------------------------------*\
| =========                 |                                                 |
| \\      /  F ield         | OpenFOAM: The Open Source CFD Toolbox           |
|  \\    /   O peration     | Version:  2106                                  |
|   \\  /    A nd           | Website:  www.openfoam.com                      |
|    \\/     M anipulation  |                                                 |
\*---------------------------------------------------------------------------*/
FoamFile
{
    version     2.0;
    format      ascii;
    arch        "LSB;label=32;scalar=64";
    class       volScalarField;
    location    "0.4";
    object      p;
}
// * * * * * * * * * * * * * * * * * * * * * * * * * * * * * * * * * * * * * //

dimensions      [0 2 -2 0 0 0 0];

internalField   nonuniform List<scalar> 
9600
(
2.26707034348
-0.630934528387
-1.5351703643
-1.92078278173
-2.14011376337
-2.2800553519
-2.38396093015
-2.47151143617
-2.55101007327
-2.62640006881
-2.69977454127
-2.77228335524
-2.84455629144
-2.9169249607
-2.98954559482
-3.06247365985
-3.13570960014
-3.20922493463
-3.28297950009
-3.35693025695
-3.43103634455
-3.50526350366
-3.57958136091
-3.65396589768
-3.72839757838
-3.80286110323
-3.87734494827
-3.95184018493
-4.02634002166
-4.1008391781
-4.17533373119
-4.24982067656
-4.32429714206
-4.39876063042
-4.47320899342
-4.54764019884
-4.62205229504
-4.69644340082
-4.77081168896
-4.84515514917
-4.91947155524
-4.99375851534
-5.06801329727
-5.14223294268
-5.21641440851
-5.29055447178
-5.36464951608
-5.43869555034
-5.51268851953
-5.58662416432
-5.66049784761
-5.73430453256
-5.80803881711
-5.88169503322
-5.95526694484
-6.02874769162
-6.10212992895
-6.17540595873
-6.24856782047
-6.32160691395
-6.39451387573
-6.46727872618
-6.5398909932
-6.61233958805
-6.68461255545
-6.75669715873
-6.82858004704
-6.90024712617
-6.97168324091
-7.04287214886
-7.11379672719
-7.18443907295
-7.25478038416
-7.32480073087
-7.39447899312
-7.46379288142
-7.53271896852
-7.60123260812
-7.66930771533
-7.73691678994
-7.8040312275
-7.8706212666
-7.93665545172
-8.00210042315
-8.06692131232
-8.13108202293
-8.19454473007
-8.25726960637
-8.3192154123
-8.38033949003
-8.44059731771
-8.49994224627
-8.55832560968
-8.61569702517
-8.67200403519
-8.72719250698
-8.78120654382
-8.83398795837
-8.88547669611
-8.9356107345
-8.98432629298
-9.03155722303
-9.0772350105
-9.12128964203
-9.16364902381
-9.20423929087
-9.24298460099
-9.27980697766
-9.31462670389
-9.3473620941
-9.37792996373
-9.40624537651
-9.43222153092
-9.45577045014
-9.47680237909
-9.49522590292
-9.51094815872
-9.52387516362
-9.53391197999
-9.54096235721
-9.5449290693
-9.54571389991
-9.54321805036
-9.53734203514
-9.52798587228
-9.51505010355
-9.4984325025
-9.4780314295
-9.45374490793
-9.4254706038
-9.39310630498
-9.35654872169
-9.31569443361
-9.27043931668
-9.22067907294
-9.16630763721
-9.10721635559
-9.04329582728
-8.9744326445
-8.90050952476
-8.82140350456
-8.73698376815
-8.64711147486
-8.55163303412
-8.45037964583
-8.34316136056
-8.22975829562
-8.10991495306
-7.98332268382
-7.84960468392
-7.70828672123
-7.55875127334
-7.4001681985
-7.2313641268
-7.05061163387
-6.8553129349
-6.64151316174
-6.40338769653
-6.14156948238
-5.91639331867
0.355525938098
-0.826822194445
-1.43549716004
-1.78952346251
-2.03214124947
-2.20270334186
-2.33077438206
-2.43527807405
-2.52635351174
-2.60963153785
-2.68840488145
-2.76462242575
-2.83944286788
-2.91355515619
-2.98736150655
-3.06108799285
-3.13485468974
-3.20871720756
-3.28269434508
-3.35678431162
-3.43097530633
-3.50525094754
-3.57959459538
-3.65399119508
-3.72842700261
-3.80289014362
-3.87737126372
-3.95186290076
-4.02635919735
-4.10085524654
-4.17534707733
-4.2498318017
-4.32430667817
-4.39876906879
-4.47321663097
-4.5476472632
-4.62205907292
-4.6964502217
-4.77081884857
-4.84516285325
-4.91947988088
-4.99376749379
-5.06802304373
-5.14224354567
-5.21642586406
-5.29056676121
-5.36466275698
-5.4387099114
-5.5127040811
-5.58664094605
-5.66051593751
-5.73432413595
-5.80806009748
-5.88171805321
-5.95529174241
-6.02877437491
-6.10215869356
-6.17543696814
-6.24860116947
-6.32164273919
-6.39455238606
-6.46732010894
-6.53993535121
-6.61238704115
-6.68466334697
-6.75675157856
-6.82863832057
-6.90030944803
-6.97174984859
-7.04294331197
-7.11387270362
-7.18452010736
-7.25486674174
-7.32489271021
-7.39457693122
-7.46389712634
-7.53282979546
-7.60135026519
-7.66943258482
-7.73704933892
-7.80417179974
-7.87077013919
-7.93681307286
-8.00226735698
-8.06709791946
-8.13126850044
-8.194741498
-8.25747726987
-8.31943448754
-8.38057042195
-8.44084061843
-8.50019845472
-8.5585950889
-8.6159801632
-8.67230139165
-8.72750462842
-8.78153399419
-8.83433129059
-8.88583647376
-8.93598743967
-8.9847203504
-9.03196926689
-9.07766563367
-9.12173937871
-9.16411839706
-9.20472876387
-9.24349468256
-9.28033818199
-9.31517960531
-9.34793714889
-9.37852741422
-9.40686553747
-9.43286481325
-9.45643715945
-9.47749281212
-9.49594043969
-9.51168727934
-9.52463925144
-9.53470134586
-9.54177732373
-9.54577012794
-9.54658167745
-9.54411317402
-9.5382652316
-9.52893736726
-9.51602847557
-9.49943810462
-9.4790652769
-9.45480866906
-9.42656618426
-9.39423623913
-9.35771645492
-9.31690430076
-9.27169648532
-9.22199005336
-9.16768141094
-9.10866386368
-9.04483044324
-8.97607106961
-8.9022725684
-8.82331770583
-8.73908180249
-8.64943469386
-8.55423370356
-8.45332330562
-8.34653232478
-8.23366424555
-8.11449570235
-7.9887625917
-7.85615056288
-7.71627836237
-7.56867144755
-7.41273852646
-7.24772923871
-7.07270376026
-6.88658124441
-6.68833584725
-6.47678742508
-6.25182295347
-6.0343291025
-0.620315370965
-1.10168034729
-1.49293809605
-1.78455445533
-2.00612977684
-2.17406552581
-2.30616599484
-2.41595515741
-2.51181414309
-2.59895842173
-2.68070067898
-2.7591357194
-2.83558297824
-2.91087232551
-2.98552046261
-3.05984227633
-3.13402509166
-3.20817489405
-3.28234763955
-3.3565688871
-3.43084634592
-3.50517801305
-3.57955694018
-3.65397487586
-3.72842310379
-3.80289309862
-3.87737758159
-3.95187044775
-4.02636682968
-4.10086256542
-4.1753538949
-4.24983793396
-4.32431211401
-4.39877391759
-4.47322102121
-4.54765132722
-4.6220629676
-4.69645409716
-4.77082282201
-4.84516702423
-4.91948427287
-4.99377202489
-5.06802770778
-5.14224844881
-5.21643106421
-5.29057221952
-5.36466851462
-5.43871616709
-5.51271098177
-5.58664851198
-5.66052415008
-5.73433305563
-5.80806982505
-5.88172861654
-5.95530308871
-6.02878649303
-6.10217171678
-6.17545105876
-6.24861635731
-6.32165899743
-6.39456977824
-6.46733879842
-6.5399554311
-6.61240849477
-6.68468621797
-6.7567760447
-6.82866457114
-6.90033756264
-6.97177985578
-7.04297531046
-7.11390688341
-7.18455665117
-7.25490575758
-7.32493426892
-7.3946211428
-7.46394416532
-7.53287980461
-7.60140329299
-7.66948874687
-7.73710895297
-7.80423516736
-7.87083729688
-7.93688398102
-8.0023422381
-8.06717712789
-8.13135217698
-8.19482971788
-8.25757031064
-8.31953269032
-8.38067399873
-8.44094967625
-8.50031315437
-8.55871559507
-8.61610666275
-8.67243422266
-8.72764403202
-8.78168008755
-8.83448425295
-8.8859966171
-8.93615502846
-8.98489533597
-9.03215167913
-9.07785568309
-9.12193731783
-9.16432450012
-9.20494315641
-9.24371749453
-9.2805696001
-9.31541985468
-9.3481865206
-9.3787862717
-9.40713449756
-9.43314445553
-9.45672782223
-9.47779469162
-9.49625382417
-9.51201269365
-9.52497729974
-9.53505257281
-9.54214226022
-9.54614941097
-9.54697606799
-9.54452352848
-9.53869269413
-9.52938365384
-9.51649628991
-9.49992980544
-9.47958311425
-9.4553553064
-9.42714468933
-9.39485003637
-9.35836971051
-9.31760238499
-9.27244592736
-9.22279815322
-9.16855748177
-9.10961977599
-9.04588066227
-8.97723345821
-8.90356886192
-8.8247753199
-8.7407346942
-8.65132501783
-8.55641497627
-8.45586238821
-8.3495143475
-8.23719783322
-8.11872044569
-7.99386129321
-7.86236480033
-7.72393463713
-7.5782205099
-7.42481969196
-7.26327645536
-7.09311149671
-6.9139335126
-6.72570717966
-6.52886306487
-6.32437257505
-6.12041078325
-1.17177378278
-1.35811959982
-1.60056645483
-1.82303335553
-2.01022507009
-2.16425362064
-2.29268979409
-2.4029803355
-2.50077547159
-2.59013542909
-2.67390639873
-2.75403355142
-2.83182367105
-2.90814566906
-2.98357047624
-3.05846650264
-3.13306757499
-3.20751799732
-3.28190392106
-3.35627430215
-3.43065457722
-3.50505612777
-3.5794822314
-3.65393081634
-3.72839860904
-3.80288087161
-3.87737285375
-3.95187008096
-4.02636876624
-4.10086568552
-4.17535761745
-4.24984176971
-4.32431569677
-4.39877709292
-4.47322383588
-4.54765393185
-4.62206551026
-4.69645668358
-4.77082549928
-4.84516984747
-4.91948729857
-4.99377521001
-5.06803093704
-5.14225170883
-5.2164344463
-5.29057577351
-5.36467222357
-5.43872006368
-5.51271518623
-5.58665316227
-5.66052924961
-5.73433857183
-5.80807577783
-5.8817350455
-5.95531002011
-6.02879391968
-6.1021796788
-6.17545970667
-6.24862579061
-6.32166917581
-6.39458064671
-6.46735040644
-6.53996786676
-6.61242175386
-6.68470025789
-6.75679096986
-6.82868057475
-6.90035473835
-6.97179819292
-7.04299482761
-7.11392770506
-7.18457892637
-7.25492956063
-7.32495961266
-7.39464803806
-7.46397269536
-7.53291012894
-7.60143552016
-7.66952289956
-7.7371451397
-7.80427361388
-7.87087808731
-7.93692698032
-8.00238743794
-8.06722482199
-8.13140260845
-8.19488292806
-8.25762642176
-8.31959195458
-8.38073658483
-8.44101557421
-8.50038238944
-8.55878832992
-8.61618307542
-8.67251458264
-8.72772856503
-8.78176888957
-8.83457742114
-8.88609433582
-8.93625763335
-8.98500304742
-9.03226457577
-9.0779739929
-9.12206129617
-9.16445447212
-9.20507935235
-9.24386010354
-9.28071884511
-9.31557597846
-9.34834979778
-9.37895669886
-9.40731198817
-9.43332926484
-9.45692027582
-9.47799498033
-9.49646202469
-9.51222905233
-9.5252023119
-9.53528682916
-9.54238633898
-9.54640386097
-9.54724162481
-9.54480094857
-9.5389827897
-9.52968741255
-9.51681503644
-9.5002653975
-9.47993776311
-9.45573172859
-9.42754636036
-9.39528108453
-9.35883500967
-9.31810799632
-9.27299971423
-9.22340930494
-9.16923700292
-9.11038135836
-9.0467409229
-8.97821303565
-8.90469284061
-8.82607467179
-8.74224763535
-8.6530983757
-8.55850784879
-8.45834826623
-8.35248532558
-8.24077073225
-8.12304396082
-7.99912738462
-7.86882232024
-7.73191154072
-7.58815497949
-7.43730268762
-7.27911091341
-7.11338221351
-6.94005178973
-6.75934128061
-6.57182458734
-6.37831682963
-6.18189512125
-1.50911783258
-1.560881342
-1.70477716308
-1.86906909644
-2.02340186234
-2.16146080005
-2.28361382494
-2.39240169313
-2.49084623952
-2.58167663314
-2.667084132
-2.74872239982
-2.82779280855
-2.90514674541
-2.98137622659
-3.05688492914
-3.13194366201
-3.20673050094
-3.28136009213
-3.35590447176
-3.43040729785
-3.50489405362
-3.57937847829
-3.65386618527
-3.72835976986
-3.80285874771
-3.8773613744
-3.95186525344
-4.0263678769
-4.10086699872
-4.17536014293
-4.24984482491
-4.3243187859
-4.39877995005
-4.47322642809
-4.54765637374
-4.6220679433
-4.69645922227
-4.77082818047
-4.84517267047
-4.91949028003
-4.99377832691
-5.06803410378
-5.14225488844
-5.21643774009
-5.29057933598
-5.36467612963
-5.43872434858
-5.51271991885
-5.58665842842
-5.66053508888
-5.73434493894
-5.80808265575
-5.88174241567
-5.95531793113
-6.02880241097
-6.10218875556
-6.17546941193
-6.24863621754
-6.32168040902
-6.39459270207
-6.46736329372
-6.53998166285
-6.61243655338
-6.68471611848
-6.75680793158
-6.82869872006
-6.9003741563
-6.97181893802
-7.04301694911
-7.1139513001
-7.18460412511
-7.25495647191
-7.32498831752
-7.39467859989
-7.46400519014
-7.53294468894
-7.60147229906
-7.66956197441
-7.73718652322
-7.80431739101
-7.87092441622
-7.93697593485
-8.00243904299
-8.0672792776
-8.13146018709
-8.19494374004
-8.25769054134
-8.31965956662
-8.38080784319
-8.4410904735
-8.50046098216
-8.55887088698
-8.61626980769
-8.67260559734
-8.72782397772
-8.78186883685
-8.83468203782
-8.88620364286
-8.93637167167
-8.98512186215
-9.03238820692
-9.07810253223
-9.12219477398
-9.16459301184
-9.20522315789
-9.24400935013
-9.2808736483
-9.31573640715
-9.34851614045
-9.37912926658
-9.40749094459
-9.43351478254
-9.45711263812
-9.47819454547
-9.49666906224
-9.51244378984
-9.52542514265
-9.53551836866
-9.54262724155
-9.54665469484
-9.54750316085
-9.54507416763
-9.53926885161
-9.52998759768
-9.5171308864
-9.50059912242
-9.48029196433
-9.45610935729
-9.42795105248
-9.39571730308
-9.35930820254
-9.31862458342
-9.27356785721
-9.22403907134
-9.16994052067
-9.11117351549
-9.0476395155
-8.97924011932
-8.90587557452
-8.8274463051
-8.74384902731
-8.65497914886
-8.56073014719
-8.46098926991
-8.3556404207
-8.24455953544
-8.12761673502
-8.00467493538
-7.87558696794
-7.74020343574
-7.59837322081
-7.44995926891
-7.29485835089
-7.13303330249
-6.96456419819
-6.78970362369
-6.60884971667
-6.42232295872
-6.23079384899
-1.71319195437
-1.70821288361
-1.79218981827
-1.91297851375
-2.03962044718
-2.16230121895
-2.27719810462
-2.38339369559
-2.4816769074
-2.57346656296
-2.66022747526
-2.74324273074
-2.82354715058
-2.9019340446
-2.97899146565
-3.05514396604
-3.13069182404
-3.20584336329
-3.28074048469
-3.35547816736
-3.43011864872
-3.50470194623
-3.57925288312
-3.65378652961
-3.72831062585
-3.8028296518
-3.87734521285
-3.9518573514
-4.02636509688
-4.10086716784
-4.17536187748
-4.24984726929
-4.32432143742
-4.3987825507
-4.47322887635
-4.5476586905
-4.62207022184
-4.69646158087
-4.7708306852
-4.84517528264
-4.91949294517
-4.9937810295
-5.06803683576
-5.14225765111
-5.21644058697
-5.29058237178
-5.36467940922
-5.43872786461
-5.51272365306
-5.58666241968
-5.66053942251
-5.73434961835
-5.80808765785
-5.88174773618
-5.95532363658
-6.02880860796
-6.1021954842
-6.17547667773
-6.24864406754
-6.32168892835
-6.39460191771
-6.46737316149
-6.53999218337
-6.61244781667
-6.68472821307
-6.75682086546
-6.82871248478
-6.90038880896
-6.97183456784
-7.04303360447
-7.11396899081
-7.18462289676
-7.25497642195
-7.32500955649
-7.39470120371
-7.46402920928
-7.53297022987
-7.60149953569
-7.66959101624
-7.73721733807
-7.80434995158
-7.87095884759
-7.93701237732
-8.00247746121
-8.06731964508
-8.13150270697
-8.19498865778
-8.25773795368
-8.31970951291
-8.38086045175
-8.44114585756
-8.50051916796
-8.55893205133
-8.61633419673
-8.67267337889
-8.72789530749
-8.78194390649
-8.83476109212
-8.88628673906
-8.93645881341
-8.98521316228
-9.03248383456
-9.07820270317
-9.12229955874
-9.1647025002
-9.20533761477
-9.24412904179
-9.28099872208
-9.31586682465
-9.3486520705
-9.37927114457
-9.40763905445
-9.43366918595
-9.45727338865
-9.47836194087
-9.4968435755
-9.51262582153
-9.52561507422
-9.53571674047
-9.54283479023
-9.54687210616
-9.54773110934
-9.5453136708
-9.53952134459
-9.53025477643
-9.51741438489
-9.50090103969
-9.48061517581
-9.45645719681
-9.4283273533
-9.39612668496
-9.35975660116
-9.31911905447
-9.27411682651
-9.22465283074
-9.17063154827
-9.1119573475
-9.04853471835
-8.98026911044
-8.90706582397
-8.82883133877
-8.74547014969
-8.65688613963
-8.56298423633
-8.46366629892
-8.35883338693
-8.24838352807
-8.13221369871
-8.01022151856
-7.88230289745
-7.74836166275
-7.60831200971
-7.46209228412
-7.30968258699
-7.15112358123
-6.98654166061
-6.81615148698
-6.64019296269
-6.45871728441
-6.27159938789
-1.83632139395
-1.81086338539
-1.86022418573
-1.95038457378
-2.05530800043
-2.16463074288
-2.27246820567
-2.37569152808
-2.47336514101
-2.56575604924
-2.65362763612
-2.73787161039
-2.81932704626
-2.89870512991
-2.97657300176
-3.05336500293
-3.129404203
-3.20492532975
-3.28009555227
-3.3550318487
-3.42981463281
-3.50449836263
-3.57911921197
-3.65370078551
-3.72825708421
-3.80279751119
-3.87732695426
-3.9518479715
-4.02636130539
-4.10086665458
-4.17536307725
-4.24984922436
-4.3243236517
-4.39878481358
-4.47323107819
-4.54766079746
-4.62207227631
-4.69646368343
-4.77083290056
-4.84517755244
-4.91949518299
-4.99378323934
-5.06803909056
-5.14226001277
-5.21644307024
-5.29058500128
-5.36468222674
-5.43873091988
-5.51272697219
-5.58666601494
-5.66054333912
-5.73435389312
-5.80809225815
-5.88175261964
-5.9553287948
-6.02881411515
-6.10220141998
-6.1754830728
-6.2486509297
-6.32169631257
-6.39460991319
-6.46738180653
-6.54000146887
-6.61245777575
-6.68473893211
-6.75683238699
-6.82872477443
-6.90040184665
-6.97184841843
-7.04304835595
-7.11398467081
-7.18463951468
-7.25499404816
-7.32502833203
-7.39472126702
-7.46405062214
-7.53299300831
-7.60152374985
-7.66961678798
-7.73724472264
-7.80437891962
-7.870989426
-7.9370447099
-8.00251164876
-8.06735567375
-8.13154062864
-8.19502863614
-8.25778011843
-8.3197538619
-8.38090697486
-8.44119468152
-8.50057041946
-8.55898584952
-8.61639067884
-8.67273267337
-8.72795756318
-8.78200920951
-8.83482956543
-8.8863584378
-8.93653367534
-8.98529118145
-9.03256506838
-9.0782873472
-9.12238775759
-9.16479428044
-9.20543311777
-9.2442285058
-9.28110239601
-9.31597476655
-9.3487643458
-9.37938813082
-9.4077611773
-9.43379664264
-9.45740618327
-9.47850020109
-9.4969877734
-9.51277655093
-9.52577280749
-9.53588187099
-9.54300800815
-9.54705428118
-9.54792309941
-9.54551637197
-9.53973603921
-9.5304833897
-9.51765886669
-9.50116343349
-9.48089825611
-9.45676444499
-9.42866288426
-9.39649517421
-9.36016394249
-9.31957260659
-9.27462532371
-9.22522667364
-9.17128302927
-9.11270184256
-9.04939107515
-8.98125973111
-8.90821760305
-8.83017671192
-8.74704932653
-8.65874774292
-8.56518667906
-8.46628105167
-8.36194751595
-8.25210371516
-8.1366693038
-8.01556994497
-7.88873596299
-7.75611112712
-7.61765567136
-7.47335651041
-7.32324148794
-7.1673868579
-7.00592933848
-6.83904932682
-6.66691795489
-6.48955407195
-6.30680375417
-1.9103637149
-1.87931213813
-1.90924294635
-1.97901711825
-2.06818442992
-2.16706103325
-2.26894091861
-2.36941331008
-2.46633946625
-2.55908594794
-2.64782333136
-2.73308976373
-2.81553481081
-2.89578256906
-2.97437154396
-3.05173826798
-3.12822233856
-3.20407997128
-3.27949993567
-3.35461848692
-3.42953225683
-3.50430873057
-3.57899431936
-3.65362054422
-3.72820672261
-3.80276714243
-3.87730961491
-3.95183890889
-4.02635740457
-4.10086581133
-4.17536387855
-4.24985078403
-4.32432548453
-4.39878671375
-4.47323295154
-4.54766260791
-4.62207405198
-4.69646547974
-4.7708347478
-4.84517939248
-4.91949694968
-4.993784977
-5.06804090838
-5.14226198225
-5.21644517162
-5.29058719943
-5.36468453668
-5.43873339655
-5.51272966545
-5.58666890959
-5.66054641474
-5.73435715226
-5.8080957365
-5.88175633818
-5.95533274796
-6.028818346
-6.10220599867
-6.17548803476
-6.24865625983
-6.32170201349
-6.39461607259
-6.4673885311
-6.54000878942
-6.61246566884
-6.6847474187
-6.75684151965
-6.82873454182
-6.90041217606
-6.97185928146
-7.04305980998
-7.11399678454
-7.18465233297
-7.25500763225
-7.32504278911
-7.39473671473
-7.4640671255
-7.53301057081
-7.60154238804
-7.6696366055
-7.73726584772
-7.80440137815
-7.87101315773
-7.93706971614
-8.00253801172
-8.06738343795
-8.13156982561
-8.19505935577
-8.25781246818
-8.31978787201
-8.38094261552
-8.44123205836
-8.5006097106
-8.55902718348
-8.61643417388
-8.67277847351
-8.72800587661
-8.78206009169
-8.83488296233
-8.88641437243
-8.93659217116
-8.98535226148
-9.03262871262
-9.07835367194
-9.1224570006
-9.16486652614
-9.20550835497
-9.24430678303
-9.28118397201
-9.31605990451
-9.34885310498
-9.37948064472
-9.40785770596
-9.43389746768
-9.45751149517
-9.4786101173
-9.49710261172
-9.51289689697
-9.52589921207
-9.53601467495
-9.54314768509
-9.54720177998
-9.54807959852
-9.54568297203
-9.53991377871
-9.53067394923
-9.51786444733
-9.50138621728
-9.48114081766
-9.45703013962
-9.42895609828
-9.39682088909
-9.36052784208
-9.31998179544
-9.27508853999
-9.22575452522
-9.1718877203
-9.11339802772
-9.05019709041
-8.9821976596
-8.90931369519
-8.83146193954
-8.74856171598
-8.66053379786
-8.56730154042
-8.4687910201
-8.3649324403
-8.25566050475
-8.14091425405
-8.02064179156
-7.89480065671
-7.76336457734
-7.62632703897
-7.48370829564
-7.33556670967
-7.1820013571
-7.02315889191
-6.85921747061
-6.69035834646
-6.51669203576
-6.33828157414
-1.95259644217
-1.92103178413
-1.9406755195
-1.99812347419
-2.07713675647
-2.16891488651
-2.26653281357
-2.36492081737
-2.46120196764
-2.55413573
-2.643468354
-2.72947243276
-2.81264824943
-2.8935473669
-2.97268164504
-3.05048596163
-3.12731045177
-3.20342651693
-3.27903880268
-3.35429799806
-3.42931299788
-3.50416125461
-3.57889687644
-3.65355676792
-3.72816727574
-3.80274342992
-3.87729609912
-3.9518318394
-4.02635427162
-4.10086498372
-4.17536433335
-4.24985189908
-4.32432686591
-4.39878816081
-4.47323439093
-4.54766403104
-4.62207547556
-4.69646689731
-4.77083614192
-4.84518073762
-4.91949824261
-4.99378628862
-5.06804232464
-5.14226352977
-5.21644680462
-5.29058888223
-5.36468628692
-5.43873525504
-5.51273167346
-5.5866710796
-5.66054874992
-5.73435965248
-5.80809839867
-5.8817591771
-5.95533577168
-6.02882157184
-6.10220945397
-6.17549173552
-6.24866021573
-6.32170623787
-6.39462063199
-6.46739353248
-6.54001429772
-6.61247166074
-6.68475386229
-6.75684844308
-6.82874196669
-6.90042003034
-6.97186746193
-7.04306832008
-7.1140057308
-7.18466182823
-7.25501775622
-7.32505360112
-7.39474826323
-7.46407944134
-7.53302367387
-7.60155630008
-7.66965137783
-7.73728156844
-7.80441811001
-7.87103087358
-7.9370883569
-8.00255760488
-8.06740405201
-8.13159148872
-8.19508207398
-8.25783628184
-8.31981285583
-8.38096877485
-8.44125943741
-8.50063846189
-8.5590574492
-8.61646606182
-8.67281204603
-8.72804126852
-8.78209736229
-8.83492196974
-8.88645506493
-8.93663463764
-8.98539664149
-9.03267499086
-9.07840181603
-9.12250720375
-9.16491897793
-9.20556308076
-9.24436371901
-9.28124324942
-9.31612191642
-9.34891805239
-9.37954850905
-9.40792848212
-9.43397135323
-9.45758887872
-9.4786912949
-9.49718781411
-9.51298651011
-9.52599382967
-9.53611482857
-9.54325380123
-9.54731457797
-9.54820027866
-9.54581294901
-9.54005416654
-9.53082609679
-9.51803051753
-9.501568647
-9.4813422103
-9.45725355797
-9.42920579594
-9.39710218949
-9.36084655028
-9.32034472911
-9.27550406185
-9.22623319419
-9.1724419428
-9.11404193688
-9.05094804679
-8.98307690868
-8.91034685994
-8.83267900238
-8.74999836325
-8.66223373042
-8.56931667668
-8.47118320439
-8.3677751827
-8.25904169046
-8.14493872971
-8.0254329428
-7.90050400714
-7.77014932942
-7.63438867499
-7.49326925691
-7.34687478881
-7.19532793307
-7.03879700065
-6.87748794497
-6.71163958666
-6.54149466839
-6.36735387152
-1.97184403991
-1.94074884551
-1.95597051815
-2.00763975884
-2.08169801935
-2.16989898533
-2.26530271206
-2.36257181116
-2.45848362313
-2.55149416307
-2.64112943292
-2.7275202148
-2.81108471127
-2.89233325876
-2.97176175851
-3.04980315586
-3.12681264012
-3.20306943833
-3.27878659672
-3.35412257484
-3.42919287991
-3.5040804046
-3.57884360087
-3.65352280288
-3.72814583748
-3.80273045939
-3.8772887281
-3.95182802353
-4.02635258787
-4.10086451065
-4.17536454667
-4.24985252624
-4.3243276883
-4.39878903414
-4.47323528513
-4.54766496826
-4.62207645645
-4.69646785173
-4.77083701375
-4.8451815485
-4.91949905668
-4.99378717623
-5.06804331459
-5.14226459938
-5.21644791565
-5.29059003041
-5.36468749809
-5.43873653441
-5.51273302119
-5.58667250859
-5.66055029035
-5.7343613239
-5.80810018989
-5.8817610986
-5.95533784868
-6.02882380214
-6.10221179594
-6.17549415517
-6.24866275334
-6.32170897384
-6.39462362233
-6.46739681285
-6.54001791486
-6.6124756362
-6.68475816973
-6.75685306753
-6.82874691919
-6.90042527296
-6.97187290016
-7.04307392719
-7.11401160213
-7.18466808114
-7.25502444281
-7.3250607212
-7.39475581177
-7.46408743066
-7.53303214434
-7.60156530274
-7.66966093477
-7.73729167871
-7.80442879212
-7.87104216081
-7.93710025352
-8.00257013362
-8.06741726061
-8.13160538538
-8.19509661621
-8.2578514311
-8.31982868469
-8.38098534972
-8.44127676414
-8.50065662829
-8.55907660953
-8.61648636195
-8.67283345313
-8.72806370442
-8.78212085352
-8.83494643748
-8.88648045045
-8.93666102834
-8.98542425116
-9.03270392087
-9.07843194627
-9.12253855097
-9.16495170102
-9.20559730551
-9.24439944339
-9.28128045805
-9.31616085496
-9.34895897041
-9.37959144332
-9.40797337481
-9.4340182642
-9.45763819404
-9.47874350269
-9.49724319076
-9.51304520421
-9.52605628084
-9.53618178923
-9.54332594478
-9.54739252273
-9.54828492322
-9.54590574884
-9.54015653238
-9.53093921814
-9.51815624647
-9.501709537
-9.48150124883
-9.45743384571
-9.42941114894
-9.39733782601
-9.36111851016
-9.32065993554
-9.27587056813
-9.22666102033
-9.17294354182
-9.11463151824
-9.05164244302
-8.98389638345
-8.91131607799
-8.83382738326
-8.75136007136
-8.66384998719
-8.57123664596
-8.47346540932
-8.37048877283
-8.26226784467
-8.14877382238
-8.02998975775
-7.90591472259
-7.77656676837
-7.6419886235
-7.5022523741
-7.35746738427
-7.20778543823
-7.05340788246
-6.89458615706
-6.73163342136
-6.56491807387
-6.39492553556
-1.97184295947
-1.94074935137
-1.95597116337
-2.00763944966
-2.08169787137
-2.16989937085
-2.26530270138
-2.36257151901
-2.45848353492
-2.55149418966
-2.64112938404
-2.72752016908
-2.81108479454
-2.89233341159
-2.97176191682
-3.04980329083
-3.12681278803
-3.20306958348
-3.27878667622
-3.354122594
-3.42919286063
-3.50408037635
-3.57884361063
-3.65352291277
-3.72814600818
-3.80273060292
-3.87728886098
-3.95182816899
-4.02635272144
-4.10086459342
-4.17536459711
-4.24985263176
-4.3243278694
-4.39878925206
-4.47323555243
-4.5476653247
-4.62207689434
-4.69646827969
-4.77083735766
-4.84518185243
-4.91949940194
-4.99378760453
-5.06804379987
-5.1422650996
-5.2164484359
-5.29059058871
-5.36468810828
-5.4387371662
-5.51273366288
-5.58667319202
-5.66055106144
-5.73436221062
-5.80810117293
-5.88176217096
-5.95533902566
-6.02882506261
-6.10221306207
-6.1754953641
-6.24866394381
-6.32171025735
-6.3946250466
-6.46739834652
-6.54001957279
-6.61247750503
-6.68476028127
-6.75685535814
-6.82874932373
-6.90042778132
-6.9718755035
-7.0430766193
-7.11401444388
-7.18467116019
-7.25502776113
-7.32506421934
-7.39475945194
-7.46409120178
-7.53303606762
-7.60156941888
-7.66966526418
-7.73729618849
-7.80443345615
-7.87104703346
-7.93710538844
-8.00257553471
-8.06742294009
-8.13161137416
-8.19510291068
-8.25785794541
-8.31983541237
-8.38099237569
-8.44128410378
-8.50066430629
-8.55908469862
-8.61649498028
-8.67284255426
-8.72807305992
-8.78213041838
-8.83495626462
-8.88649057274
-8.93667146414
-8.98543511953
-9.03271540803
-9.07844400651
-9.12255109072
-9.16496475767
-9.20561101337
-9.24441394352
-9.28129568839
-9.31617680636
-9.3489757679
-9.3796092207
-9.40799223947
-9.43403823844
-9.45765947562
-9.47876659441
-9.49726854389
-9.51307298934
-9.52608666414
-9.5362153981
-9.54336369293
-9.54743522249
-9.54833330375
-9.54596102924
-9.54022031553
-9.5310128737
-9.51824140717
-9.50180850688
-9.48161718376
-9.45757024691
-9.42957169691
-9.39752739136
-9.36134312549
-9.32092681161
-9.27618788803
-9.22703823076
-9.17339272685
-9.11516709599
-9.05228136948
-8.98465852568
-8.91222512571
-8.83491231483
-8.75265460758
-8.66539412378
-8.57307790668
-8.47566013225
-8.37310372509
-8.26538056133
-8.15247591667
-8.03438834638
-7.91113487449
-7.78275345021
-7.64930849989
-7.51089782375
-7.36765775895
-7.21977287328
-7.06748342698
-6.91109164628
-6.75098145234
-6.58761934956
-6.42160940796
-1.95259378116
-1.92103308092
-1.94067703445
-1.99812279389
-2.07713641375
-2.16891576606
-2.26653272712
-2.36492011797
-2.4612017704
-2.55413578508
-2.64346824812
-2.72947235941
-2.81264849547
-2.89354779454
-2.97268210442
-3.05048636483
-3.12731086908
-3.20342691474
-3.27903902019
-3.35429804306
-3.42931295618
-3.50416122424
-3.57889693899
-3.65355704062
-3.72816769243
-3.80274383464
-3.87729653552
-3.95183231401
-4.02635469989
-4.10086527886
-4.17536452949
-4.24985222497
-4.32432739859
-4.39878882037
-4.4732351993
-4.54766507351
-4.62207673636
-4.69646814976
-4.7708372032
-4.84518171164
-4.91949932462
-4.99378758012
-5.06804377716
-5.14226505891
-5.2164484082
-5.2905905851
-5.36468810845
-5.43873713648
-5.51273361235
-5.58667317441
-5.66055110084
-5.73436230873
-5.80810131647
-5.88176234848
-5.95533923236
-6.02882526124
-6.10221319614
-6.17549538541
-6.24866386813
-6.32171014645
-6.39462491401
-6.46739813274
-6.54001927123
-6.61247724086
-6.68476015764
-6.75685530989
-6.82874922188
-6.90042761288
-6.97187533959
-7.04307648127
-7.11401431269
-7.18467103814
-7.25502763594
-7.32506402296
-7.39475912743
-7.46409073069
-7.5330354249
-7.60156858533
-7.66966425729
-7.73729502261
-7.80443211912
-7.87104557511
-7.93710387784
-8.00257394187
-8.06742119495
-8.1316094884
-8.1951009608
-8.25785587364
-8.31983309714
-8.38098985496
-8.44128145966
-8.50066156203
-8.55908177814
-8.61649183664
-8.672839158
-8.72806920311
-8.78212601738
-8.8349514232
-8.88648542637
-8.93666604294
-8.98542939246
-9.03270950918
-9.07843794798
-9.12254477702
-9.1649581558
-9.2056041707
-9.24440702882
-9.28128871962
-9.31616968037
-9.34896844443
-9.37960176683
-9.40798493184
-9.43403126642
-9.45765287276
-9.47876054839
-9.49726353206
-9.51306950261
-9.52608496623
-9.53621582318
-9.54336696448
-9.54744235179
-9.54834514119
-9.54597852736
-9.54024501741
-9.53104645918
-9.5182856834
-9.50186553581
-9.48168982877
-9.457662272
-9.4296870299
-9.39767076862
-9.36152035103
-9.32114507342
-9.27645581601
-9.2273653614
-9.17379083348
-9.11565048964
-9.05286711923
-8.98536680439
-8.91307936831
-8.8359413207
-8.75389234229
-8.66688049752
-8.57486014748
-8.4777936527
-8.37565469461
-8.26842590147
-8.15610601589
-8.03870879314
-7.91626847599
-7.78884355461
-7.65651972242
-7.51942086425
-7.37771121159
-7.23160893299
-7.08139286712
-6.92741125145
-6.77010447829
-6.61000490887
-6.44777739089
-1.91036088753
-1.87931367634
-1.90924427549
-1.979016633
-2.0681841552
-2.16706179045
-2.26894067913
-2.36941263469
-2.46633930513
-2.5590859836
-2.64782327737
-2.73308981436
-2.81553519566
-2.89578315852
-2.97437222201
-3.05173889649
-3.12822296309
-3.20408055869
-3.27950027635
-3.35461855956
-3.42953222104
-3.50430877065
-3.57899447693
-3.65362088562
-3.72820724423
-3.80276778257
-3.87731041341
-3.95183975618
-4.02635816957
-4.10086641904
-4.17536434079
-4.24985135732
-4.32432631209
-4.3987877639