/*--------------------------------*- C++ -*----------------------------------*\
| =========                 |                                                 |
| \\      /  F ield         | OpenFOAM: The Open Source CFD Toolbox           |
|  \\    /   O peration     | Version:  2106                                  |
|   \\  /    A nd           | Website:  www.openfoam.com                      |
|    \\/     M anipulation  |                                                 |
\*---------------------------------------------------------------------------*/
FoamFile
{
    version     2.0;
    format      ascii;
    arch        "LSB;label=32;scalar=64";
    class       surfaceScalarField;
    location    "0.31";
    object      phi;
}
// * * * * * * * * * * * * * * * * * * * * * * * * * * * * * * * * * * * * * //

dimensions      [0 3 -1 0 0 0 0];

oriented        oriented;

internalField   nonuniform List<scalar> 
22100
(
3.38461203508e-05
1.61538797028e-05
2.24572097553e-05
1.13889104703e-05
1.62585527603e-05
6.19865691233e-06
1.27977755778e-05
3.46077702405e-06
1.08046414793e-05
1.9931338987e-06
9.60458821399e-06
1.20005300857e-06
8.85132026744e-06
7.53267713438e-07
8.36435133924e-06
4.8696876329e-07
8.04433339258e-06
3.20017856496e-07
7.83283852887e-06
2.11494820201e-07
7.69339523128e-06
1.39443239355e-07
7.60223812292e-06
9.11569838775e-08
7.54347504292e-06
5.87628672564e-08
7.5063378079e-06
3.71369795078e-08
7.48349800267e-06
2.28395636075e-08
7.46997691678e-06
1.3520894337e-08
7.46241205458e-06
7.5647386987e-09
7.4585437589e-06
3.8681918008e-09
7.45682443623e-06
1.71920050803e-09
7.45641744586e-06
4.0681777346e-10
7.45676688622e-06
-3.49661122259e-10
7.45745269614e-06
-6.86064266838e-10
7.45821072079e-06
-7.58269215349e-10
7.45893577462e-06
-7.25239116644e-10
7.4595798884e-06
-6.44229957733e-10
7.46012365762e-06
-5.43834137575e-10
7.46056561871e-06
-4.42006360528e-10
7.4609142217e-06
-3.48653405917e-10
7.4611823848e-06
-2.6822645737e-10
7.46138422713e-06
-2.01901309951e-10
7.46153314234e-06
-1.48949299341e-10
7.46164083015e-06
-1.07672543145e-10
7.46171701326e-06
-7.61176735695e-11
7.46176978957e-06
-5.26844975284e-11
7.46180306189e-06
-3.31974896329e-11
7.46182180086e-06
-1.87078887594e-11
7.46183078075e-06
-8.99275575886e-12
7.46183344766e-06
-2.73339346528e-12
7.46183176923e-06
1.56303727431e-12
7.46182693882e-06
4.72218650175e-12
7.46181993072e-06
6.96501336063e-12
7.46181133736e-06
8.61983588757e-12
7.46180149268e-06
9.91685261852e-12
7.46179053496e-06
1.1034044821e-11
7.46177845937e-06
1.21287482606e-11
7.46176515659e-06
1.33362879192e-11
7.46175041894e-06
1.47712355908e-11
7.46173393018e-06
1.65314340722e-11
7.46171527441e-06
1.87233021811e-11
7.46169391672e-06
2.14624482255e-11
7.46166923577e-06
2.48111578329e-11
7.46164051083e-06
2.88448597838e-11
7.46160693294e-06
3.36391983031e-11
7.4615676619e-06
3.92709190578e-11
7.46152184403e-06
4.57770616271e-11
7.46146865439e-06
5.31239562143e-11
7.46140741919e-06
6.11527900239e-11
7.46133802332e-06
6.9303932335e-11
7.46126119389e-06
7.67577739981e-11
7.4611793922e-06
8.17709379856e-11
7.46109892893e-06
8.04701862972e-11
7.46103195064e-06
6.6998075319e-11
7.46098613213e-06
4.58273387326e-11
7.46098071873e-06
5.44639732666e-12
7.46105160277e-06
-7.07818209781e-11
7.46125691812e-06
-2.05262446386e-10
7.46169110261e-06
-4.34216920849e-10
7.46250419559e-06
-8.13191568964e-10
7.46393141227e-06
-1.42739465881e-09
7.46632824312e-06
-2.39710833407e-09
7.47014428152e-06
-3.81635443029e-09
7.4765901609e-06
-6.44619568475e-09
7.48735804006e-06
-1.07681668489e-08
7.50553020149e-06
-1.81723629693e-08
7.53871393367e-06
-3.31838348659e-08
7.60793012692e-06
-6.92161721956e-08
7.77460247179e-06
-1.66672300398e-07
8.22955088386e-06
-4.54948354372e-07
9.69731622745e-06
-1.4677647509e-06
-5.45200681462e-06
1.51493234793e-05
5.02175948277e-05
1.59362847309e-05
4.42441114463e-05
1.73623936079e-05
3.77795011638e-05
1.26632669409e-05
3.26461434181e-05
8.5941343971e-06
2.89380910145e-05
5.70118592586e-06
2.63596203217e-05
3.77852335077e-06
2.45875156789e-05
2.5253720913e-06
2.3373473473e-05
1.70101080752e-06
2.25435243305e-05
1.14996689628e-06
2.19782155512e-05
7.76803472124e-07
2.15955128652e-05
5.2214568572e-07
2.13387360719e-05
3.47933430481e-07
2.11684942772e-05
2.29004257261e-07
2.10573364026e-05
1.48294463591e-07
2.09861482735e-05
9.40273818039e-08
2.09416757289e-05
5.79932019946e-08
2.09147937682e-05
3.44464917704e-08
2.08992944984e-05
1.9367221073e-08
2.08910705271e-05
9.94285838796e-09
2.08872699772e-05
4.20698303307e-09
2.08862006678e-05
7.19238659755e-10
2.08864461167e-05
-9.31871657638e-10
2.08873173237e-05
-1.62973450465e-09
2.08884566456e-05
-1.86471374548e-09
2.08896298308e-05
-1.81749784046e-09
2.08907126917e-05
-1.62675511029e-09
2.08916501577e-05
-1.37953990029e-09
2.08924275562e-05
-1.1261313461e-09
2.08930526642e-05
-8.93407914984e-10
2.08935447366e-05
-6.93992860843e-10
2.08939285745e-05
-5.32743258046e-10
2.08942301373e-05
-4.09138297613e-10
2.08944411813e-05
-2.87033652131e-10
2.08945883166e-05
-1.99701020189e-10
2.08946887188e-05
-1.33536434067e-10
2.08947540637e-05
-8.40767510952e-11
2.0894794523e-05
-4.95567342697e-11
2.08948182852e-05
-2.66398358833e-11
2.08948302009e-05
-1.04782989468e-11
2.08948332592e-05
1.61660470628e-12
2.08948299112e-05
1.03736278881e-11
2.0894821809e-05
1.68562932757e-11
2.0894810052e-05
2.1810340026e-11
2.08947953214e-05
2.58563400939e-11
2.08947779884e-05
2.95271314984e-11
2.08947582028e-05
3.3196298799e-11
2.08947359535e-05
3.71309507323e-11
2.08947111189e-05
4.15264557335e-11
2.0894683498e-05
4.65483038394e-11
2.08946528178e-05
5.23659143818e-11
2.08946188452e-05
5.89634584757e-11
2.08945814175e-05
6.63453432386e-11
2.08945405422e-05
7.44749770479e-11
2.08944965477e-05
8.31743544409e-11
2.08944503051e-05
9.19333820632e-11
2.08944035958e-05
9.97534889269e-11
2.0894359706e-05
1.04961985367e-10
2.08943245949e-05
1.04329962292e-10
2.08943077579e-05
9.35380041612e-11
2.08943244702e-05
6.50337325735e-11
2.08944016184e-05
3.30156085737e-12
2.08945880096e-05
-1.19377642686e-10
2.08949520386e-05
-3.18069051564e-10
2.08956122308e-05
-6.54545849882e-10
2.0896676631e-05
-1.13506459228e-09
2.08983218385e-05
-1.85055268001e-09
2.09009056641e-05
-3.01828453513e-09
2.09049759685e-05
-4.88388238738e-09
2.09114018696e-05
-7.85384383533e-09
2.0921607061e-05
-1.2602894962e-08
2.09380817185e-05
-2.02915445339e-08
2.09649719733e-05
-3.33368468376e-08
2.10092175459e-05
-5.5013961225e-08
2.10839922894e-05
-9.29471699009e-08
2.12152242617e-05
-1.64415721492e-07
2.14558254951e-05
-3.09817293614e-07
2.19136617301e-05
-6.24508811376e-07
2.28006700036e-05
-1.34195777912e-06
2.44447175888e-05
-3.1118130945e-06
-7.03873827355e-06
2.60314537757e-05
5.35171052925e-05
1.24191793676e-05
5.29349681259e-05
1.79445305557e-05
4.96538397541e-05
1.59443950793e-05
4.58401808142e-05
1.24077930267e-05
4.24400915075e-05
9.10127490641e-06
3.97291712427e-05
6.48944330258e-06
3.76873045289e-05
4.56723857486e-06
3.61976615437e-05
3.19065364638e-06
3.51326107839e-05
2.21501753161e-06
3.43823655864e-05
1.52704850606e-06
3.38606243925e-05
1.043886625e-06
3.35023438701e-05
7.06213610628e-07
3.3259598659e-05
4.71749103513e-07
3.30975880683e-05
3.10304734897e-07
3.29913317514e-05
2.00283445958e-07
3.29230896699e-05
1.26235092748e-07
3.28804015052e-05
7.71344562709e-08
3.28546161194e-05
4.51523673967e-08
3.28397887231e-05
2.47699397044e-08
3.28318618745e-05
1.21334618343e-08
3.28279920769e-05
4.58867414766e-09
3.28269931393e-05
6.6779431822e-11
3.28271736839e-05
-1.81046637033e-09
3.28280219009e-05
-2.7130519661e-09
3.28291374856e-05
-2.93318663591e-09
3.28302845436e-05
-2.77392344804e-09
3.28313403217e-05
-2.43543831051e-09
3.28322505176e-05
-2.0364452906e-09
3.28330002889e-05
-1.64328319271e-09
3.28335957494e-05
-1.28951008641e-09
3.28340518505e-05
-9.88833992518e-10
3.28343867317e-05
-7.43943895483e-10
3.28346530205e-05
-5.53212226999e-10
3.28348692837e-05
-4.15865324664e-10
3.28350163342e-05
-2.80544894622e-10
3.28351153532e-05
-1.83129335877e-10
3.28351809501e-05
-1.15249297885e-10
3.28352225641e-05
-6.83772091469e-11
3.28352471139e-05
-3.51318244228e-11
3.28352586196e-05
-9.92118045753e-12
3.28352606606e-05
8.37417654593e-12
3.28352557217e-05
2.18795350299e-11
3.28352455946e-05
3.20296565976e-11
3.28352314826e-05
4.00445743482e-11
3.28352141394e-05
4.69352551586e-11
3.28351940401e-05
5.33832151171e-11
3.28351714791e-05
5.98185965501e-11
3.28351466533e-05
6.65108570733e-11
3.28351196707e-05
7.36959128022e-11
3.28350905277e-05
8.16321039907e-11
3.28350595307e-05
9.00060961191e-11
3.28350272837e-05
9.8573584405e-11
3.28349948275e-05
1.06892534955e-10
3.28349639357e-05
1.14024631108e-10
3.2834937596e-05
1.18223201047e-10
3.28349204958e-05
1.1679683831e-10
3.28349196048e-05
1.05806263768e-10
3.28349464047e-05
7.74872385993e-11
3.28350182208e-05
2.16893208768e-11
3.28351647929e-05
-8.15962824466e-11
3.28354375342e-05
-2.69502553138e-10
3.28359254485e-05
-6.07283297112e-10
3.28366424856e-05
-1.03498437134e-09
3.28376840591e-05
-1.69595330299e-09
3.28393082761e-05
-2.75919252866e-09
3.28418908357e-05
-4.4331079692e-09
3.28459356039e-05
-7.06316161567e-09
3.28522568559e-05
-1.12053970763e-08
3.28621674102e-05
-1.77648069672e-08
3.28778314342e-05
-2.82674295417e-08
3.29029090685e-05
-4.53697071778e-08
3.29427508597e-05
-7.31790702177e-08
3.30071853627e-05
-1.19448778522e-07
3.31131935796e-05
-1.98955515038e-07
3.32897865624e-05
-3.41008587033e-07
3.35851658551e-05
-6.0519630907e-07
3.40704094911e-05
-1.10975180987e-06
3.48116539433e-05
-2.08320145919e-06
3.56727012602e-05
-3.97286323309e-06
-7.10721354051e-06
3.57411680577e-05
5.35105664032e-05
8.90861289493e-06
5.55742220264e-05
1.5880874752e-05
5.52424821357e-05
1.62761347616e-05
5.35977853445e-05
1.40524895398e-05
5.15418468289e-05
1.11572131278e-05
4.95802788102e-05
8.45101103282e-06
4.79243496028e-05
6.22316756216e-06
4.66181376134e-05
4.49686548628e-06
4.56304647152e-05
3.20269028815e-06
4.49051156391e-05
2.25239739271e-06
4.43840882677e-05
1.56491374709e-06
4.40166918787e-05
1.07360969356e-06
4.37619651267e-05
7.26475539689e-07
4.35882662877e-05
4.84003310191e-07
4.34718667294e-05
3.16682792155e-07
4.33953564779e-05
2.02745151683e-07
4.33461860063e-05
1.26304709195e-07
4.33154481683e-05
7.58899331276e-08
4.32969115466e-05
4.33062445024e-08
4.32862852141e-05
2.27594678709e-08
4.32806821431e-05
1.01914739575e-08
4.32778743067e-05
2.87443469788e-09
4.32770463695e-05
-9.8264706053e-10
4.32772641532e-05
-2.93094251261e-09
4.32779515895e-05
-3.62074685846e-09
4.32788145526e-05
-3.63701906182e-09
4.32796872729e-05
-3.308288924e-09
4.32804846332e-05
-2.83392791095e-09
4.32811702891e-05
-2.32904598319e-09
4.32817360485e-05
-1.85533424437e-09
4.32821887636e-05
-1.44154167824e-09
4.32825411298e-05
-1.0962420456e-09
4.32828028645e-05
-8.14856873769e-10
4.32829782102e-05
-5.91141585606e-10
4.32831112188e-05
-4.13522748169e-10
4.32831965159e-05
-2.68435957078e-10
4.32832504223e-05
-1.69209526737e-10
4.32832900931e-05
-1.08139031913e-10
4.32833143817e-05
-5.95101316175e-11
4.32833263365e-05
-2.19128523208e-11
4.32833293915e-05
5.3323934771e-12
4.32833255064e-05
2.58257493196e-11
4.32833163559e-05
4.12521425465e-11
4.32833030953e-05
5.33862491925e-11
4.32832863838e-05
6.37642893899e-11
4.32832666503e-05
7.32714491682e-11
4.32832442152e-05
8.24197910653e-11
4.3283219357e-05
9.15111824015e-11
4.32831924218e-05
1.00709302998e-10
4.32831640057e-05
1.10047917775e-10
4.32831347735e-05
1.19197623546e-10
4.32831057194e-05
1.27612602381e-10
4.32830783162e-05
1.34337370921e-10
4.32830546437e-05
1.37765744842e-10
4.32830376069e-05
1.35311862644e-10
4.3283031645e-05
1.22771851738e-10
4.32830447267e-05
9.27030980284e-11
4.32830888779e-05
3.32629532425e-11
4.3283183354e-05
-7.28984145528e-11
4.32833449951e-05
-2.43360801395e-10
4.32835858194e-05
-5.1038325822e-10
4.328402913e-05
-1.05049527443e-09
4.32848003505e-05
-1.80602546933e-09
4.32860535861e-05
-2.94905493499e-09
4.32879963797e-05
-4.70193208241e-09
4.32909785382e-05
-7.41527958922e-09
4.32955595249e-05
-1.16442963262e-08
4.33026178195e-05
-1.82639866894e-08
4.33135353732e-05
-2.86827701103e-08
4.33304698247e-05
-4.52023583521e-08
4.33567298757e-05
-7.16302107473e-08
4.33978850164e-05
-1.14334575705e-07
4.34627848166e-05
-1.84348843641e-07
4.35651502361e-05
-3.01321061383e-07
4.37249298385e-05
-5.00788229592e-07
4.39667091222e-05
-8.4697580879e-07
4.4307135735e-05
-1.45017849185e-06
4.47074793628e-05
-2.48354377485e-06
4.49267823729e-05
-4.19216495446e-06
-6.57798678604e-06
4.43975517419e-05
5.27351379209e-05
6.17347489436e-06
5.57309341922e-05
1.28850783099e-05
5.73114738243e-05
1.46955949194e-05
5.76109910707e-05
1.375297201e-05
5.71335216702e-05
1.16346822341e-05
5.6319466968e-05
9.2650654528e-06
5.54489867135e-05
7.09364759596e-06
5.46629761491e-05
5.28287588698e-06
5.40136806036e-05
3.85198567519e-06
5.35061492619e-05
2.7599285362e-06
5.31242532983e-05
1.94680946484e-06
5.2844983684e-05
1.35287903318e-06
5.26454373801e-05
9.26021581583e-07
5.25057131076e-05
6.2372734577e-07
5.24097183401e-05
4.12677344612e-07
5.23450123363e-05
2.67450930119e-07
5.23022745015e-05
1.69042286031e-07
5.2274687289e-05
1.03476835408e-07
5.22573626642e-05
6.06305337074e-08
5.22468538913e-05
3.32679429819e-08
5.22407541086e-05
1.62910460338e-08
5.22374451298e-05
6.18327376714e-09
5.22359463073e-05
5.16054108746e-10
5.22354381329e-05
-2.42290674776e-09
5.22355028088e-05
-3.68558168194e-09
5.22358479681e-05
-3.98233786074e-09
5.22363018998e-05
-3.76237346164e-09
5.22367679646e-05
-3.30014371318e-09
5.22371950744e-05
-2.75628961041e-09
5.22375605306e-05
-2.22087128138e-09
5.22378576484e-05
-1.73865498448e-09
5.22380892042e-05
-1.3277314467e-09
5.22382654537e-05
-9.91024015028e-10
5.22383982912e-05
-7.23905451021e-10
5.22384986025e-05
-5.13788674577e-10
5.22385831582e-05
-3.52990515519e-10
5.22386485614e-05
-2.34658790349e-10
5.22386907086e-05
-1.50375592787e-10
5.22387233062e-05
-9.22037281232e-11
5.22387386122e-05
-3.72771247017e-11
5.22387438091e-05
1.27204565339e-13
5.22387414682e-05
2.81914073106e-11
5.22387335338e-05
4.92470384521e-11
5.22387213375e-05
6.56954294055e-11
5.22387057413e-05
7.95375868057e-11
5.22386872895e-05
9.19331176916e-11
5.22386664358e-05
1.03452668378e-10
5.22386438651e-05
1.1416138794e-10
5.22386204655e-05
1.24078625503e-10
5.22385944208e-05
1.36007738368e-10
5.22385674875e-05
1.46081304426e-10
5.22385407941e-05
1.54345967307e-10
5.22385158923e-05
1.59348441476e-10
5.22384953131e-05
1.58461513009e-10
5.22384842825e-05
1.4643244678e-10
5.22384929622e-05
1.1414370866e-10
5.22385235716e-05
6.20734368846e-11
5.22385990496e-05
-4.23182728643e-11
5.22387185155e-05
-1.92560094507e-10
5.22389117989e-05
-4.36804337104e-10
5.22392488752e-05
-8.47476138234e-10
5.22397652262e-05
-1.56671621441e-09
5.22405366123e-05
-2.57725005648e-09
5.22416954696e-05
-4.1077903476e-09
5.22434449834e-05
-6.4513748762e-09
5.22460863537e-05
-1.00566720313e-08
5.22500713282e-05
-1.56294614621e-08
5.22560908968e-05
-2.42839096057e-08
5.22652037632e-05
-3.7796079285e-08
5.2279027211e-05
-5.90262315135e-08
5.23000189507e-05
-9.2622330282e-08
5.23318945404e-05
-1.46210527586e-07
5.23799973914e-05
-2.32451966579e-07
5.24512536861e-05
-3.72577487956e-07
5.25525269423e-05
-6.02061653942e-07
5.26843622174e-05
-9.78811478908e-07
5.282453455e-05
-1.59035111304e-06
5.28915587897e-05
-2.55056745934e-06
5.26729713814e-05
-3.97357576522e-06
-5.76904768402e-06
5.18640302314e-05
5.19834863804e-05
4.1899884433e-06
5.50586636907e-05
9.8099008159e-06
5.76386127016e-05
1.21156456842e-05
5.93259023732e-05
1.20656820444e-05
6.02280141475e-05
1.07325701636e-05
6.05929250963e-05
8.90015423223e-06
6.06482818414e-05
7.03829064479e-06
6.05531872515e-05
5.3779703199e-06
6.04029525408e-05
4.00222022668e-06
6.02479118628e-05
2.91496902301e-06
6.01107861212e-05
2.08393498104e-06
5.99990263576e-05
1.46463855197e-06
5.9912510943e-05
1.01253676795e-06
5.98479188162e-05
6.88319252735e-07
5.98010150124e-05
4.59580920846e-07
5.97677301005e-05
3.00735581282e-07
5.97445884484e-05
1.92183633664e-07
5.97288095809e-05
1.19255369085e-07
5.97182611165e-05
7.11786822848e-08
5.97113546537e-05
4.01741621821e-08
5.97069350873e-05
2.07104450949e-08
5.97042009946e-05
8.91722329644e-09
5.97025917602e-05
2.12512633917e-09
5.970168702e-05
-1.51834718837e-09
5.97012285281e-05
-3.22727159462e-09
5.97010388289e-05
-3.79281356795e-09
5.97010023884e-05
-3.72610521708e-09
5.97010465429e-05
-3.34447013453e-09
5.97011275878e-05
-2.83746435963e-09
5.97012198748e-05
-2.31320265037e-09
5.97013095151e-05
-1.82826978581e-09
5.9701389873e-05
-1.40802777689e-09
5.97014595163e-05
-1.06058699875e-09
5.9701519041e-05
-7.83345541517e-10
5.97015692416e-05
-5.63911440845e-10
5.97016089803e-05
-3.92676553052e-10
5.97016366601e-05
-2.62341909204e-10
5.97016518095e-05
-1.65597858285e-10
5.97016500234e-05
-9.05167773354e-11
5.97016418899e-05
-2.92442902839e-11
5.9701635272e-05
6.68626131924e-12
5.97016260781e-05
3.73798799266e-11
5.97016157951e-05
5.95968501271e-11
5.97016044011e-05
7.72508671392e-11
5.97015908107e-05
9.33566473663e-11
5.9701574816e-05
1.08143374049e-10
5.97015564264e-05
1.21959753239e-10
5.97015355974e-05
1.34977263543e-10
5.97015124123e-05
1.47166182514e-10
5.97014900603e-05
1.58275335296e-10
5.97014685488e-05
1.67611808222e-10
5.9701449132e-05
1.7389493634e-10
5.97014334448e-05
1.752157201e-10
5.97014230405e-05
1.69044491562e-10
5.97014171323e-05
1.524786919e-10
5.97014081138e-05
1.23207021992e-10
5.97014124449e-05
5.76577025317e-11
5.97014241171e-05
-5.41618453591e-11
5.97015059321e-05
-2.74561948492e-10
5.97016934871e-05
-6.24452245237e-10
5.97019922409e-05
-1.14618546002e-09
5.97023777381e-05
-1.95210592585e-09
5.97029541564e-05
-3.15355790102e-09
5.97038039544e-05
-4.95749566607e-09
5.97050409454e-05
-7.6883285091e-09
5.97068299503e-05
-1.18457515022e-08
5.97094087956e-05
-1.82085107764e-08
5.97131211368e-05
-2.79966169433e-08
5.97184563201e-05
-4.31316623013e-08
5.97260946228e-05
-6.66648565921e-08
5.97369368964e-05
-1.0346490388e-07
5.97520446965e-05
-1.61318686146e-07
5.97722544721e-05
-2.52661949543e-07
5.97969731811e-05
-3.97296081844e-07
5.98210420544e-05
-6.26130454588e-07
5.98275835056e-05
-9.85353176312e-07
5.97745544887e-05
-1.53732223054e-06
5.95740294167e-05
-2.35004249682e-06
5.9068177592e-05
-3.4677224614e-06
-4.79763368423e-06
5.80967628506e-05
5.14373052811e-05
2.75268308582e-06
5.42658202577e-05
6.98138560667e-06
5.72496426719e-05
9.13182301104e-06
5.97900267325e-05
9.52529767529e-06
6.17201269573e-05
8.80246965467e-06
6.30883016633e-05
7.53197927374e-06
6.40167150383e-05
6.10987708162e-06
6.46292346875e-05
4.76545052843e-06
6.50258014917e-05
3.60565327707e-06
6.52790758844e-05
2.66169445564e-06
6.5438970722e-05
1.9240399428e-06
6.55386873317e-05
1.36492173494e-06
6.55999256504e-05
9.51298233167e-07
6.56367402521e-05
6.51504429889e-07
6.56581911348e-05
4.38129794885e-07
6.56700991162e-05
2.88827304506e-07
6.56761880836e-05
1.86094313031e-07
6.56788241259e-05
1.16618974941e-07
6.56794943428e-05
7.05081705199e-08
6.56791179788e-05
4.05503148159e-08
6.56782504736e-05
2.1577796958e-08
6.56772194511e-05
9.94808595002e-09
6.56762100737e-05
3.13430437002e-09
6.56753006593e-05
-6.09148974336e-10
6.5674531858e-05
-2.45867788954e-09
6.56739034185e-05
-3.16457537394e-09
6.567340447e-05
-3.22734533863e-09
6.56730175533e-05
-2.95770062937e-09
6.56727236869e-05
-2.5436732102e-09
6.5672504709e-05
-2.09421812763e-09
6.56723444841e-05
-1.66799278326e-09
6.56722293208e-05
-1.29280857253e-09
6.56721470905e-05
-9.78301037185e-10
6.56720871909e-05
-7.23362489594e-10
6.56720438343e-05
-5.20462256967e-10
6.56720127538e-05
-3.6152998766e-10
6.56719877771e-05
-2.37376359537e-10
6.56719662382e-05
-1.44140753255e-10
6.56719512623e-05
-7.56682072725e-11
6.56719494928e-05
-2.76023465698e-11
6.56719479618e-05
8.12856917641e-12
6.56719406701e-05
4.46655776253e-11
6.5671930751e-05
6.96292029157e-11
6.56719184821e-05
8.97444868889e-11
6.567190469e-05
1.07404102301e-10
6.56718893281e-05
1.23692198136e-10
6.56718722044e-05
1.39141808513e-10
6.56718532529e-05
1.53868496215e-10
6.56718330751e-05
1.67249534949e-10
6.56718137659e-05
1.77559138299e-10
6.56717942563e-05
1.87208122509e-10
6.56717750623e-05
1.93269499264e-10
6.56717572612e-05
1.93225918218e-10
6.56717427098e-05
1.83772587889e-10
6.56717350686e-05
1.60211291763e-10
6.56717417429e-05
1.16519417596e-10
6.56717486092e-05
5.0687540145e-11
6.56717797805e-05
-8.55052668293e-11
6.56718473119e-05
-3.42241124112e-10
6.56719445364e-05
-7.21707913976e-10
6.56720937751e-05
-1.29533892994e-09
6.56723017663e-05
-2.15998436668e-09
6.56725849169e-05
-3.43660603442e-09
6.56729597143e-05
-5.33225470498e-09
6.56734369831e-05
-8.16566138864e-09
6.5674014221e-05
-1.24231526848e-08
6.56746611764e-05
-1.88557369296e-08
6.56752920572e-05
-2.86278771451e-08
6.56757056674e-05
-4.3545682437e-08
6.56754742017e-05
-6.64337455011e-08
6.56737283539e-05
-1.01719388713e-07
6.56687339284e-05
-1.56324630061e-07
6.5656956271e-05
-2.40884515987e-07
6.56312668002e-05
-3.71606535107e-07
6.55775147654e-05
-5.7237824359e-07
6.54684688596e-05
-8.76307300558e-07
6.52549667636e-05
-1.32381997739e-06
6.48569706707e-05
-1.952046642e-06
6.41620279154e-05
-2.77277853697e-06
-3.71556198273e-06
6.30799562557e-05
5.10850422678e-05
1.66764071242e-06
5.36118442053e-05
4.45458336683e-06
5.66873158679e-05
6.05635104452e-06
5.96894456035e-05
6.52316761854e-06
6.22997259854e-05
6.19218900808e-06
6.4413687351e-05
5.41801768392e-06
6.60471833504e-05
4.47638091916e-06
6.7268614778e-05
3.54401896223e-06
6.81598936995e-05
2.71437421849e-06
6.87977601778e-05
2.02382782065e-06
6.92467444341e-05
1.47505550307e-06
6.95579631655e-05
1.05370280634e-06
6.97704297624e-05
7.38831430055e-07
6.99131727605e-05
5.08761197603e-07
7.00073838176e-05
3.43918468652e-07
7.00682933328e-05
2.27917466653e-07
7.01066953206e-05
1.47691961611e-07
7.01301376192e-05
9.31763291273e-08
7.01438268032e-05
5.68187082223e-08
7.01513030204e-05
3.30738875434e-08
7.01549356385e-05
1.79450039243e-08
7.0156283541e-05
8.59999519142e-09
7.01563555136e-05
3.06210407266e-09
7.01557635347e-05
-1.74130849587e-11
7.01549027527e-05
-1.59812940453e-09
7.01539792593e-05
-2.24130113006e-09
7.01531107846e-05
-2.35903924203e-09
7.01523509913e-05
-2.19799745136e-09
7.01517170715e-05
-1.9097668857e-09
7.01512061543e-05
-1.58325889305e-09
7.01508052811e-05
-1.26707328757e-09
7.01504974945e-05
-9.84991099563e-10
7.01502651902e-05
-7.4594648822e-10
7.01500922109e-05
-5.5031437343e-10
7.01499655586e-05
-3.93718272292e-10
7.01498745387e-05
-2.70441255656e-10
7.01498120024e-05
-1.74845165011e-10
7.01497704849e-05
-1.02708821737e-10
7.01497419464e-05
-4.72669555416e-11
7.0149711956e-05
2.23812088925e-12
7.01496886105e-05
3.13676197004e-11
7.0149675714e-05
5.75610228187e-11
7.01496654319e-05
8.00470790405e-11
7.01496558265e-05
9.95866991809e-11
7.01496460817e-05
1.17395626538e-10
7.01496357481e-05
1.34190637531e-10
7.0149624657e-05
1.50277328856e-10
7.01496128628e-05
1.65623011282e-10
7.01496002221e-05
1.79862973788e-10
7.0149585439e-05
1.92398875118e-10
7.01495704743e-05
2.02326208963e-10
7.01495560957e-05
2.07849658802e-10
7.01495430138e-05
2.0650742651e-10
7.01495317903e-05
1.95156391086e-10
7.0149521983e-05
1.700816988e-10
7.01495110318e-05
1.2743695407e-10
7.01495024371e-05
5.91769445063e-11
7.01494926131e-05
-7.57891258855e-11
7.01495017264e-05
-3.51412023241e-10
7.01495234046e-05
-7.43342256975e-10
7.0149545313e-05
-1.31714737768e-09
7.01495456199e-05
-2.16017515216e-09
7.01494973149e-05
-3.38824018011e-09
7.01493470247e-05
-5.18200067248e-09
7.01489956507e-05
-7.8144289722e-09
7.01482677937e-05
-1.16955491725e-08
7.01468617497e-05
-1.74500663249e-08
7.01442657057e-05
-2.60322698957e-08
7.01396049658e-05
-3.8885337882e-08
7.01313978394e-05
-5.82269405468e-08
7.01171549049e-05
-8.74767779062e-08
7.00927209501e-05
-1.31891062501e-07
7.00510053671e-05
-1.99169208689e-07
6.99800345135e-05
-3.00635540673e-07
6.98598429388e-05
-4.52186518039e-07
6.96579878374e-05
-6.74452186694e-07
6.93245601579e-05
-9.90392022558e-07
6.87900161802e-05
-1.41750290015e-06
6.79717775446e-05
-1.9545391875e-06
-2.55555016284e-06
6.68117660026e-05
5.08804130877e-05
7.87227476309e-07
5.31704657872e-05
2.16453031227e-06
5.62177490807e-05
3.00906742715e-06
5.94382688223e-05
3.30264756783e-06
6.24449684345e-05
3.18548916314e-06
6.50382516675e-05
2.82473425803e-06
6.71548650895e-05
2.359767362e-06
6.88135634346e-05
1.88532048914e-06
7.00731692674e-05
1.45476824107e-06
7.10056660441e-05
1.09133087831e-06
7.16812621419e-05
7.9945922748e-07
7.21614213115e-05
5.73543456081e-07
7.24966020538e-05
4.03650493474e-07
7.27264783999e-05
2.78884616367e-07
7.28812770532e-05
1.89119519629e-07
7.29834665285e-05
1.25727641359e-07
7.3049410026e-05
8.17481018741e-08
7.30908118834e-05
5.17741437237e-08
7.31159056438e-05
3.17246891317e-08
7.313039003e-05
1.85892985394e-08
7.3138144629e-05
1.01902134047e-08
7.31417649214e-05
4.97948008051e-09
7.31429524426e-05
1.87431278227e-09
7.31428058759e-05
1.28863254498e-10
7.31419824928e-05
-7.7501357764e-10
7.3140899492e-05
-1.15851397059e-09
7.31397846059e-05
-1.24426758097e-09
7.31387572328e-05
-1.17063590514e-09
7.31378697878e-05
-1.02227566314e-09
7.31371361485e-05
-8.49572726258e-10
7.31365489141e-05
-6.79818920841e-10
7.3136090711e-05
-5.26795692378e-10
7.31357407123e-05
-3.9594011024e-10
7.31354783092e-05
-2.87857909549e-10
7.31352851511e-05
-2.0045867944e-10
7.31351455541e-05
-1.30760027057e-10
7.31350462115e-05
-7.54886121294e-11
7.3134974578e-05
-3.11472472008e-11
7.31349213695e-05
5.80516225641e-12
7.31348915269e-05
3.1924221448e-11
7.31348683702e-05
5.44180504461e-11
7.31348516287e-05
7.4314658351e-11
7.31348394255e-05
9.23829164995e-11
7.31348299201e-05
1.09291346258e-10
7.31348217834e-05
1.25721263106e-10
7.31348140668e-05
1.42010794963e-10
7.31348061388e-05
1.58214223127e-10
7.31347976012e-05
1.74108275284e-10
7.31347882529e-05
1.89170347233e-10
7.31347781243e-05
2.02575136518e-10
7.3134767275e-05
2.13308839181e-10
7.31347557314e-05
2.19567332048e-10
7.31347435679e-05
2.18826609045e-10
7.31347309896e-05
2.07828542285e-10
7.31347185223e-05
1.82544697893e-10
7.31347072497e-05
1.38676477649e-10
7.31346921507e-05
7.42385547221e-11
7.31346685316e-05
-5.21603924358e-11
7.3134626436e-05
-3.09256595341e-10
7.31345598004e-05
-6.76584239751e-10
7.31344449393e-05
-1.20217007146e-09
7.31342384507e-05
-1.95361828233e-09
7.31338721427e-05
-3.02198337393e-09
7.31332310086e-05
-4.54098769545e-09
7.31321219213e-05
-6.70553390789e-09
7.31302227158e-05
-9.79669538346e-09
7.31270060728e-05
-1.42338857395e-08
7.31216165508e-05
-2.06431592845e-08
7.31126405104e-05
-2.99095628776e-08
7.30977723767e-05
-4.33590307888e-08
7.30733044616e-05
-6.300911022e-08
7.30333374143e-05
-9.19242882894e-08
7.29683537889e-05
-1.34185923852e-07
7.28633318357e-05
-1.95613494819e-07
7.26950977709e-05
-2.83952400172e-07
7.24291394585e-05
-4.08494154953e-07
7.2017077786e-05
-5.78330163966e-07
7.13976861255e-05
-7.98111350747e-07
7.05053700644e-05
-1.06222279799e-06
-1.3456193846e-06
6.9295439517e-05
5.07871724753e-05
5.48124648616e-11
5.29516494214e-05
5.29789024466e-11
5.59606877716e-05
2.8754694104e-11
5.926332098e-05
1.40763740385e-11
6.24488073384e-05
2.60673167005e-12
6.5273547668e-05
-6.23271336157e-12
6.76333269842e-05
-1.20782741739e-11
6.95186623137e-05
-1.49677640108e-11
7.09734457689e-05
-1.53695952253e-11
7.20647903617e-05
-1.38860085734e-11
7.28642605443e-05
-1.11376677522e-11
7.34378115806e-05
-7.74680163739e-12
7.38414662779e-05
-4.37838790729e-12
7.41203523454e-05
-1.69096948369e-12
7.43094718169e-05
-2.70019893519e-13
7.44351996159e-05
-5.21552805036e-13
7.45169500465e-05
-2.69068539597e-12
7.45687303983e-05
-6.52119940381e-12
7.46004662143e-05
-1.13648858053e-11
7.46190715587e-05
-1.62422766893e-11
7.46292815961e-05
-2.00369565628e-11
7.46342824871e-05
-2.16726901329e-11
7.46361771831e-05
-2.07016352606e-11
7.46363241148e-05
-1.84077140647e-11
7.46355647644e-05
-1.59499414778e-11
7.46344189305e-05
-1.28657413048e-11
7.46331838868e-05
-9.27595627782e-12
7.46320185613e-05
-5.25126132399e-12
7.46309966886e-05
-3.24926110081e-13
7.46301433264e-05
3.84283354576e-12
7.46294549343e-05
8.54858982853e-12
7.46289145697e-05
1.35279929156e-11
7.46284998781e-05
1.87441451298e-11
7.46281877968e-05
2.4287150668e-11
7.46279570891e-05
3.03540307755e-11
7.46277893646e-05
3.70754175421e-11
7.46276693943e-05
4.45278577165e-11
7.46275854934e-05
5.27005496957e-11
7.46275295519e-05
6.16079463906e-11
7.46274904215e-05
7.08975771527e-11
7.46274642293e-05
8.05240801021e-11
7.46274471688e-05
9.140718329e-11
7.462743624e-05
1.03444027188e-10
7.46274291668e-05
1.16542807618e-10
7.46274243545e-05
1.30697040917e-10
7.46274206799e-05
1.45771371287e-10
7.46274173807e-05
1.61500235887e-10
7.46274139633e-05
1.77468475408e-10
7.462741006e-05
1.93040070995e-10
7.46274053738e-05
2.07315414146e-10
7.46273997191e-05
2.19104074088e-10
7.46273928291e-05
2.26625550281e-10
7.46273842946e-05
2.27515512266e-10
7.46273734141e-05
2.1880264644e-10
7.46273590424e-05
1.96980221818e-10
7.46273394559e-05
1.582895794e-10
7.4627313852e-05
9.98675304145e-11
7.4627268983e-05
-7.2347626162e-12
7.46271809235e-05
-2.21082577625e-10
7.46270451086e-05
-5.40625744899e-10
7.46268222278e-05
-9.79192228801e-10
7.46264514276e-05
-1.58282303926e-09
7.46258362751e-05
-2.4069387006e-09
7.46248199833e-05
-3.52485932744e-09
7.46231474161e-05
-5.03320139604e-09
7.46204015165e-05
-7.05115943023e-09
7.46159162296e-05
-9.74904969322e-09
7.46086334651e-05
-1.33607716581e-08
7.45968154379e-05
-1.80917341811e-08
7.45776605955e-05
-2.42042761726e-08
7.45467529284e-05
-3.21016065435e-08
7.44973622691e-05
-4.25339562677e-08
7.44187478023e-05
-5.55719303522e-08
7.42945102559e-05
-7.13760526733e-08
7.41002672403e-05
-8.9709252024e-08
7.38011947089e-05
-1.09421753221e-07
7.33506195293e-05
-1.27754761209e-07
7.26920470687e-05
-1.39538757468e-07
7.17674112576e-05
-1.3758670793e-07
-1.13403321513e-07
7.05351956008e-05
5.07871714194e-05
-7.87116814631e-07
5.29516485276e-05