/*--------------------------------*- C++ -*----------------------------------*\
| =========                 |                                                 |
| \\      /  F ield         | OpenFOAM: The Open Source CFD Toolbox           |
|  \\    /   O peration     | Version:  2106                                  |
|   \\  /    A nd           | Website:  www.openfoam.com                      |
|    \\/     M anipulation  |                                                 |
\*---------------------------------------------------------------------------*/
FoamFile
{
    version     2.0;
    format      ascii;
    arch        "LSB;label=32;scalar=64";
    class       volVectorField;
    location    "0.445";
    object      U;
}
// * * * * * * * * * * * * * * * * * * * * * * * * * * * * * * * * * * * * * //

dimensions      [0 1 -1 0 0 0 0];

internalField   nonuniform List<vector> 
11200
(
(0.662462406463 0.150569441461 0)
(0.558948683164 0.103243388144 0)
(0.383850757422 0.0513512241496 0)
(0.283747627413 0.0248708547854 0)
(0.23207531586 0.0124170442371 0)
(0.201908649029 0.0066228153225 0)
(0.183198014993 0.00380291241103 0)
(0.171276593262 0.00231586770356 0)
(0.16351043588 0.00146450409582 0)
(0.158388925398 0.00094489013758 0)
(0.155006812875 0.000615175026253 0)
(0.152786882558 0.000402232475657 0)
(0.151346754451 0.00026423134882 0)
(0.150428535956 0.00017524954435 0)
(0.149856946654 0.000118360113218 0)
(0.149512757224 8.21592924495e-05 0)
(0.149315205999 5.88650097694e-05 0)
(0.149209850842 4.33145894815e-05 0)
(0.149159994926 3.29334418077e-05 0)
(0.149142755322 2.81862604346e-05 0)
(0.149144907453 2.76847463833e-05 0)
(0.149157174782 2.98905481529e-05 0)
(0.149172784749 3.30508245286e-05 0)
(0.149188318825 3.59657851695e-05 0)
(0.149202514331 3.86005546848e-05 0)
(0.14921477301 4.10391753857e-05 0)
(0.149224928093 4.33165022106e-05 0)
(0.149233086134 4.54635907744e-05 0)
(0.149239482402 4.75194299431e-05 0)
(0.14924439674 4.95310088942e-05 0)
(0.149248112278 5.1560540198e-05 0)
(0.149250896219 5.36990818451e-05 0)
(0.149252945935 5.6026826091e-05 0)
(0.149254433051 5.84074850363e-05 0)
(0.149255492058 6.07679902915e-05 0)
(0.149256208926 6.30885049166e-05 0)
(0.149256679951 6.53804984014e-05 0)
(0.149256989386 6.76563180525e-05 0)
(0.149257189516 6.99269441112e-05 0)
(0.149257307063 7.21982117582e-05 0)
(0.149257362993 7.44707582142e-05 0)
(0.14925737622 7.67456674902e-05 0)
(0.149257361177 7.90230301939e-05 0)
(0.149257328855 8.13015507197e-05 0)
(0.149257286034 8.35803957151e-05 0)
(0.149257237457 8.58577125028e-05 0)
(0.14925718621 8.81304601178e-05 0)
(0.149257134328 9.03953023752e-05 0)
(0.149257084147 9.26485428623e-05 0)
(0.1492570392 9.48869668586e-05 0)
(0.149257006791 9.7107265533e-05 0)
(0.149256998497 9.93065321564e-05 0)
(0.149257029952 0.00010148217827 0)
(0.149257121429 0.000103630922707 0)
(0.149257299231 0.00010574873505 0)
(0.149257598676 0.000107830381923 0)
(0.149258069325 0.000109868379256 0)
(0.149258784983 0.000111852368716 0)
(0.149259853788 0.000113769100497 0)
(0.149261434178 0.000115593134633 0)
(0.149263776439 0.000117268209239 0)
(0.14926729093 0.000118712968386 0)
(0.149272446333 0.00011996882622 0)
(0.149279894151 0.000121230794466 0)
(0.149290668477 0.000122963718366 0)
(0.149306290019 0.000125340987199 0)
(0.149329146506 0.000128122220756 0)
(0.149362931311 0.000131082029107 0)
(0.149413236479 0.000134005820224 0)
(0.149488291167 0.000136780793643 0)
(0.149600030217 0.000140688511836 0)
(0.149771300685 0.000151558925206 0)
(0.150039866639 0.000172277383575 0)
(0.150468871313 0.000202515015623 0)
(0.151194105474 0.000232427002276 0)
(0.152493181964 0.000191622181054 0)
(0.155022182668 -0.000216764837816 0)
(0.162375248931 -0.00210987208521 0)
(0.187702147325 -0.0107874528658 0)
(0.204354325226 -0.0496543710978 0)
(0.965408257453 0.289214706191 0)
(0.961962868117 0.252656040761 0)
(0.823574406651 0.159021442754 0)
(0.698139391271 0.0959957319232 0)
(0.610225495211 0.0582481142442 0)
(0.548971534546 0.0362148526444 0)
(0.506588945954 0.0231612839043 0)
(0.477567342961 0.0151375135707 0)
(0.457745584994 0.0100177532156 0)
(0.444228574873 0.00665813947517 0)
(0.435053434063 0.00441555510906 0)
(0.428873273823 0.00290686526696 0)
(0.424754375063 0.00189105810803 0)
(0.422046838965 0.00121004481252 0)
(0.42029801189 0.000757162279579 0)
(0.419193409693 0.000459253943662 0)
(0.418515809079 0.000265852161008 0)
(0.418116664968 0.000142396625235 0)
(0.417896063012 6.6106662051e-05 0)
(0.417787011306 2.30904433963e-05 0)
(0.417745592461 1.40609728655e-06 0)
(0.417742308245 -1.01642000085e-05 0)
(0.417756897004 -1.37160682359e-05 0)
(0.417778845848 -1.32705401169e-05 0)
(0.417803131867 -1.08393543424e-05 0)
(0.417826497571 -7.4965916859e-06 0)
(0.417847250484 -3.87945838338e-06 0)
(0.417864791261 -3.58208927999e-07 0)
(0.417879122147 2.86509072295e-06 0)
(0.417890556349 5.6860592934e-06 0)
(0.417899563511 8.04077885781e-06 0)
(0.417906634701 9.84186006245e-06 0)
(0.417911974075 1.1008807127e-05 0)
(0.417915819441 1.18603202445e-05 0)
(0.417918548634 1.26834399835e-05 0)
(0.417920437005 1.34396195432e-05 0)
(0.417921725925 1.41139135881e-05 0)
(0.417922605403 1.47306635636e-05 0)
(0.417923200159 1.53171420386e-05 0)
(0.417923579217 1.58869737365e-05 0)
(0.417923795941 1.64396434325e-05 0)
(0.417923896343 1.6980321909e-05 0)
(0.417923913485 1.75134933688e-05 0)
(0.417923872851 1.80425220882e-05 0)
(0.41792379175 1.85719527039e-05 0)
(0.417923681592 1.910442131e-05 0)
(0.417923551451 1.96414978038e-05 0)
(0.417923409464 2.01850828356e-05 0)
(0.417923265243 2.07364901072e-05 0)
(0.417923130888 2.12973841671e-05 0)
(0.417923024856 2.18673178837e-05 0)
(0.417922974426 2.24459125602e-05 0)
(0.417923016039 2.30341040238e-05 0)
(0.417923198509 2.36320197537e-05 0)
(0.417923588261 2.42392335917e-05 0)
(0.41792427659 2.48555203383e-05 0)
(0.417925393245 2.54771687368e-05 0)
(0.417927131138 2.60921544489e-05 0)
(0.417929767216 2.66827188543e-05 0)
(0.417933691961 2.72170157415e-05 0)
(0.417939515176 2.76440188826e-05 0)
(0.417948338522 2.79202337875e-05 0)
(0.417961648473 2.82063991677e-05 0)
(0.417981590166 2.77407491446e-05 0)
(0.41801092294 2.51105442991e-05 0)
(0.41805325418 1.92656355948e-05 0)
(0.418114784333 9.39701434649e-06 0)
(0.418205631575 -6.0316627223e-06 0)
(0.418341396047 -2.95452023859e-05 0)
(0.418546972286 -6.48241298236e-05 0)
(0.418864253897 -0.000116055344682 0)
(0.419362825675 -0.000188201626383 0)
(0.42015614033 -0.000307985212488 0)
(0.421447831891 -0.000532953336246 0)
(0.423629481194 -0.000999902045544 0)
(0.427419650652 -0.0020904693339 0)
(0.434240231896 -0.00485605167014 0)
(0.448265656496 -0.0122527967977 0)
(0.474641977141 -0.0342382490788 0)
(0.47815837681 -0.0987596169896 0)
(1.02222096853 0.238416188985 0)
(1.08213753894 0.295926655281 0)
(1.03447724277 0.239503069343 0)
(0.954615434026 0.174290167328 0)
(0.879992090418 0.121345471159 0)
(0.818614482919 0.0830993867846 0)
(0.771410913632 0.0567316696056 0)
(0.736634472775 0.0387409708125 0)
(0.711624536696 0.026432789147 0)
(0.693916748986 0.0179731068656 0)
(0.681541563859 0.0121424502053 0)
(0.673000294688 0.00812491041892 0)
(0.667180850024 0.00536632282723 0)
(0.663271896587 0.00348444556875 0)
(0.660688737903 0.00221256104204 0)
(0.659014422729 0.00136338005039 0)
(0.657954748414 0.000805241059191 0)
(0.657304460078 0.000445913290906 0)
(0.656922044165 0.000221065008917 0)
(0.656710478615 8.55771756149e-05 0)
(0.656603611037 8.35356751866e-06 0)
(0.656562055249 -3.37242149881e-05 0)
(0.656558144864 -5.68593087998e-05 0)
(0.656571609689 -6.68791799243e-05 0)
(0.656593129971 -6.84869711652e-05 0)
(0.656616943954 -6.55649961327e-05 0)
(0.656639744901 -6.05524022398e-05 0)
(0.656659925016 -5.48600795505e-05 0)
(0.656676897177 -4.92730724526e-05 0)
(0.656690637419 -4.41994744434e-05 0)
(0.656701387818 -3.98345878183e-05 0)
(0.656709533088 -3.62973825099e-05 0)
(0.656715774195 -3.36907785636e-05 0)
(0.656720802909 -3.18508106337e-05 0)
(0.656724660224 -3.08055961819e-05 0)
(0.656727361695 -3.02993653806e-05 0)
(0.656729221937 -3.02445654413e-05 0)
(0.656730516821 -3.05547954563e-05 0)
(0.65673141167 -3.10821349361e-05 0)
(0.656731994576 -3.17449969246e-05 0)
(0.656732339884 -3.25131727667e-05 0)
(0.656732516388 -3.33518038757e-05 0)
(0.656732571767 -3.42363936813e-05 0)
(0.656732543197 -3.51473661297e-05 0)
(0.656732456033 -3.6066845799e-05 0)
(0.656732327404 -3.69849677671e-05 0)
(0.656732172864 -3.78949324413e-05 0)
(0.656732006208 -3.87905514039e-05 0)
(0.656731842342 -3.96675082228e-05 0)
(0.656731697899 -4.05205821389e-05 0)
(0.656731597425 -4.13467857115e-05 0)
(0.656731579702 -4.21429485855e-05 0)
(0.656731697042 -4.2907334706e-05 0)
(0.656732019708 -4.36431232228e-05 0)
(0.656732645875 -4.43645880982e-05 0)
(0.656733710433 -4.51026992646e-05 0)
(0.656735400536 -4.59145554423e-05 0)
(0.656737994662 -4.68934463741e-05 0)
(0.656741901051 -4.81643617517e-05 0)
(0.656747717711 -4.99515038371e-05 0)
(0.656756389078 -5.27725830092e-05 0)
(0.656769567927 -5.76058519512e-05 0)
(0.656788552246 -6.52717102011e-05 0)
(0.656814790404 -7.66245907575e-05 0)
(0.656852157969 -9.33693042697e-05 0)
(0.656907367003 -0.000117894631051 0)
(0.656989783402 -0.000153405538916 0)
(0.657113199815 -0.000205191965595 0)
(0.657299435442 -0.000281773723333 0)
(0.657583886622 -0.000397024586195 0)
(0.658024683162 -0.000575291054452 0)
(0.658711011198 -0.000863830621816 0)
(0.659789910325 -0.00135269651657 0)
(0.661518885415 -0.00221497309356 0)
(0.664340017881 -0.00381313475722 0)
(0.668948911354 -0.00694583903045 0)
(0.676371180709 -0.0133514306508 0)
(0.688614206975 -0.0268403471511 0)
(0.705236274339 -0.0563119407914 0)
(0.700484203686 -0.113066628753 0)
(1.02251475757 0.170807155438 0)
(1.10138976657 0.276496482074 0)
(1.11752427784 0.26666480295 0)
(1.09214663088 0.21990170284 0)
(1.05187819135 0.168168851632 0)
(1.0102082718 0.123567400859 0)
(0.973494752925 0.0888375258705 0)
(0.943864635769 0.0630063759729 0)
(0.921142899648 0.0442232086709 0)
(0.904284194953 0.0307423975222 0)
(0.892075013668 0.0211562989538 0)
(0.883404676929 0.0143954731313 0)
(0.877352855728 0.00966795212118 0)
(0.873197908243 0.00639383986259 0)
(0.8703931434 0.00415116588105 0)
(0.868534263574 0.00263449024101 0)
(0.867327873364 0.00162401513347 0)
(0.866564474917 0.000962672429688 0)
(0.86609672025 0.000539117807245 0)
(0.865822478176 0.000275147990159 0)
(0.865671631343 0.000117061897174 0)
(0.86559537437 2.87847832095e-05 0)
(0.865564307422 -1.93334446826e-05 0)
(0.86556149 -4.12704071184e-05 0)
(0.8655728267 -4.76743229002e-05 0)
(0.865589829592 -4.55326167021e-05 0)
(0.8656081401 -3.91610587797e-05 0)
(0.865625483074 -3.11473802889e-05 0)
(0.865640772306 -2.29631845933e-05 0)
(0.865653638405 -1.53771634726e-05 0)
(0.865664111528 -8.71926902122e-06 0)
(0.865672395083 -3.03870042775e-06 0)
(0.865678743987 1.7413191332e-06 0)
(0.865683364943 5.47248855122e-06 0)
(0.865686678827 8.03678996396e-06 0)
(0.865689075842 9.79313829128e-06 0)
(0.865690707899 1.11475121562e-05 0)
(0.865691869226 1.22926747263e-05 0)
(0.865692731907 1.32623237226e-05 0)
(0.865693313948 1.41467440622e-05 0)
(0.865693664815 1.49389722845e-05 0)
(0.865693850684 1.56617315338e-05 0)
(0.865693913084 1.63306662105e-05 0)
(0.865693888738 1.69625254357e-05 0)
(0.865693800074 1.7572737343e-05 0)
(0.86569366002 1.81730400403e-05 0)
(0.865693483673 1.87708383459e-05 0)
(0.86569328607 1.93715156733e-05 0)
(0.865693085358 1.99818085012e-05 0)
(0.865692903109 2.0610404845e-05 0)
(0.865692769745 2.12423668284e-05 0)
(0.865692729684 2.18657946741e-05 0)
(0.865692839682 2.24631871762e-05 0)
(0.865693171671 2.30083283947e-05 0)
(0.86569382086 2.34658699696e-05 0)
(0.865694917074 2.38031470303e-05 0)
(0.865696645176 2.39734034931e-05 0)
(0.865699298231 2.38591673082e-05 0)
(0.865703276846 2.33184979841e-05 0)
(0.865708993925 2.19327800235e-05 0)
(0.865716949139 1.91405676637e-05 0)
(0.865728757623 1.42130616444e-05 0)
(0.865746997132 5.33391920976e-06 0)
(0.865774649621 -9.06788856683e-06 0)
(0.865815580337 -3.09935586723e-05 0)
(0.865875717269 -6.4416293858e-05 0)
(0.86596440319 -0.000116210401508 0)
(0.866096153555 -0.000197134576424 0)
(0.866293519262 -0.000324444787895 0)
(0.8665913188 -0.00052660829881 0)
(0.867043153054 -0.000852558942758 0)
(0.867734074626 -0.00138921014006 0)
(0.868800403912 -0.0022852870533 0)
(0.870455335142 -0.003815305282 0)
(0.873017639883 -0.00650337927418 0)
(0.876886018509 -0.0113586780788 0)
(0.882382665594 -0.0202498367415 0)
(0.889690334641 -0.0364467350117 0)
(0.896363473063 -0.0654798673969 0)
(0.886531655765 -0.110019801543 0)
(1.01287875375 0.118961026655 0)
(1.0882067163 0.231806940486 0)
(1.13741368639 0.253106768554 0)
(1.15409089048 0.228992758139 0)
(1.14994214137 0.188368364131 0)
(1.13538469894 0.146579849875 0)
(1.11758900709 0.110150972145 0)
(1.10059507912 0.0808162290596 0)
(1.08612466919 0.0582265838873 0)
(1.07459104514 0.0413189929772 0)
(1.06579161021 0.0289160283261 0)
(1.05928815391 0.0199601076335 0)
(1.05459994734 0.0135815667368 0)
(1.05129096431 0.00909744821679 0)
(1.04900005818 0.00598615695082 0)
(1.04744362391 0.00385696716073 0)
(1.04640675727 0.00242159647509 0)
(1.04573084701 0.00147014684832 0)
(1.04530129455 0.000851697138981 0)
(1.04503679752 0.0004590100956 0)
(1.04488043176 0.000216748985503 0)
(1.04479280898 7.30081769361e-05 0)
(1.04474893534 -5.51504966966e-06 0)
(1.0447320275 -4.40196379059e-05 0)
(1.04472977036 -5.93960207068e-05 0)
(1.04473525163 -6.17279382848e-05 0)
(1.04474420097 -5.72518160476e-05 0)
(1.04475408897 -4.9806853919e-05 0)
(1.04476353345 -4.16448880978e-05 0)
(1.04477186162 -3.39871564103e-05 0)
(1.0447788224 -2.74206583195e-05 0)
(1.04478440344 -2.21479235826e-05 0)
(1.04478875146 -1.81246875454e-05 0)
(1.04479207999 -1.51380199439e-05 0)
(1.04479464621 -1.28061932584e-05 0)
(1.04479674436 -1.10093430049e-05 0)
(1.04479848333 -9.51919697752e-06 0)
(1.04479980596 -8.22846198524e-06 0)
(1.04480078002 -7.21130916892e-06 0)
(1.04480145476 -6.54534338281e-06 0)
(1.04480185494 -6.16979536286e-06 0)
(1.04480206904 -5.96720084898e-06 0)
(1.04480214533 -5.88454810514e-06 0)
(1.04480212593 -5.86716983349e-06 0)
(1.04480203694 -5.88467032221e-06 0)
(1.04480189505 -5.9128802143e-06 0)
(1.04480171504 -5.93974739994e-06 0)
(1.04480151514 -5.96166667163e-06 0)
(1.04480131888 -5.98303215082e-06 0)
(1.04480113189 -6.01797657403e-06 0)
(1.0448009713 -6.04927145963e-06 0)
(1.04480088516 -6.07420427621e-06 0)
(1.04480093052 -6.10009507497e-06 0)
(1.04480118598 -6.1430932709e-06 0)
(1.04480177726 -6.2452813454e-06 0)
(1.04480287693 -6.52695671318e-06 0)
(1.04480467095 -7.24275191813e-06 0)
(1.04480746057 -8.67355559188e-06 0)
(1.04481155216 -1.13124738307e-05 0)
(1.0448174194 -1.5155484344e-05 0)
(1.04482607386 -2.00871996859e-05 0)
(1.04483867365 -2.6342495482e-05 0)
(1.04485652964 -3.61844232496e-05 0)
(1.04488193971 -5.25986241021e-05 0)
(1.04491837458 -7.97981559144e-05 0)
(1.04497099124 -0.000124026831356 0)
(1.04504739478 -0.000195053246152 0)
(1.0451589355 -0.000308455411217 0)
(1.04532276256 -0.000489395490024 0)
(1.04556474222 -0.000778887602311 0)
(1.04592355414 -0.00124423264059 0)
(1.04645704749 -0.00199704393785 0)
(1.04724932069 -0.00322780839112 0)
(1.04841328221 -0.00526721049627 0)
(1.05007617423 -0.00869192272044 0)
(1.05229455978 -0.0144953878114 0)
(1.05482433687 -0.0242841275061 0)
(1.05687585127 -0.0403672460824 0)
(1.05574347256 -0.0655828597392 0)
(1.04213056719 -0.0994325067067 0)
(1.00447483724 0.0814040004147 0)
(1.06917238123 0.181288541709 0)
(1.1308057016 0.216950421748 0)
(1.17375002675 0.210789159453 0)
(1.19865268465 0.183690081889 0)
(1.21019992558 0.1497516894 0)
(1.21350261895 0.11677915129 0)
(1.21251732089 0.088220686183 0)
(1.20973108485 0.065048160299 0)
(1.20651132087 0.0470209191694 0)
(1.20351928039 0.0334068191658 0)
(1.20101162033 0.0233557426824 0)
(1.19903463801 0.0160720226476 0)
(1.19753898104 0.0108795205717 0)
(1.19644152752 0.00723419245626 0)
(1.19565580717 0.00471352011996 0)
(1.19510511794 0.00299762800403 0)
(1.19472670996 0.00184915732857 0)
(1.19447173194 0.00109495477396 0)
(1.1943034217 0.000610603727535 0)
(1.19419477905 0.000307976842468 0)
(1.19412648787 0.000125756854598 0)
(1.1940854296 2.22102968115e-05 0)
(1.19406216216 -3.24649142205e-05 0)
(1.19404985501 -5.72823741293e-05 0)
(1.19404435283 -6.46057186122e-05 0)
(1.19404285524 -6.23806423146e-05 0)
(1.19404354206 -5.55225141191e-05 0)
(1.19404529508 -4.69426043657e-05 0)
(1.19404745397 -3.82545005933e-05 0)
(1.1940496456 -3.02594234009e-05 0)
(1.19405167789 -2.32624075392e-05 0)
(1.19405348306 -1.72866135507e-05 0)
(1.19405505829 -1.22583654497e-05 0)
(1.1940564221 -8.06980782636e-06 0)
(1.19405759308 -4.66738187023e-06 0)
(1.19405854249 -2.05649167515e-06 0)
(1.19405921244 -1.68115308377e-07 0)
(1.19405956099 1.14548251525e-06 0)
(1.1940596657 1.99799338413e-06 0)
(1.1940597062 2.67349124144e-06 0)
(1.19405972256 3.26996094942e-06 0)
(1.19405969667 3.79455002644e-06 0)
(1.19405964047 4.25041207644e-06 0)
(1.19405954877 4.65059849562e-06 0)
(1.19405941922 5.0128896989e-06 0)
(1.19405925095 5.35023947363e-06 0)
(1.19405904714 5.66572504732e-06 0)
(1.19405881381 5.94999133725e-06 0)
(1.19405859282 6.18621037436e-06 0)
(1.19405843319 6.39791628693e-06 0)
(1.19405836609 6.57757269164e-06 0)
(1.19405844216 6.69811793585e-06 0)
(1.19405871834 6.71807319563e-06 0)
(1.19405922567 6.57612758796e-06 0)
(1.19405994954 6.17786960876e-06 0)
(1.19406098269 5.37711114397e-06 0)
(1.19406247584 3.77252663089e-06 0)
(1.19406513182 9.83237118463e-07 0)
(1.19406997151 -3.30318881642e-06 0)
(1.19407748078 -9.8691412215e-06 0)
(1.19408761488 -2.00814789693e-05 0)
(1.19410117108 -3.59688428272e-05 0)
(1.19412014094 -6.04532056867e-05 0)
(1.19414665163 -9.81171864126e-05 0)
(1.19418353021 -0.00015628050614 0)
(1.19423477217 -0.000246590806486 0)
(1.1943060161 -0.00038752885618 0)
(1.19440515546 -0.000608551967634 0)
(1.19454297889 -0.000956987719504 0)
(1.19473354161 -0.00150933468149 0)
(1.19499362791 -0.00238985358287 0)
(1.19533806619 -0.00380173084299 0)
(1.19576412444 -0.00607781883344 0)
(1.19621147578 -0.0097568225519 0)
(1.19646040083 -0.0156823212555 0)
(1.1959241259 -0.0250648329466 0)
(1.19344824348 -0.0393594231095 0)
(1.18669797155 -0.059808258233 0)
(1.17015556911 -0.0851002584704 0)
(0.998962328174 0.054431627358 0)
(1.05310957625 0.133401609054 0)
(1.11628269695 0.170777559888 0)
(1.17301274263 0.17514387485 0)
(1.2179124956 0.159583610795 0)
(1.25049862496 0.134951026398 0)
(1.27288497347 0.108411665162 0)
(1.28776730225 0.0838849822671 0)
(1.29745278219 0.0630565847301 0)
(1.30366087506 0.0462999352214 0)
(1.30759249023 0.0333205294021 0)
(1.3100538685 0.0235495382849 0)
(1.31157381033 0.0163599204823 0)
(1.31249512774 0.0111713253096 0)
(1.31303883241 0.00749151368357 0)
(1.31334693344 0.00492448938306 0)
(1.31351035526 0.00316295519984 0)
(1.31358699182 0.00197474836168 0)
(1.31361337286 0.00118819002604 0)
(1.31361222524 0.000678619232301 0)
(1.31359738632 0.000356995489975 0)
(1.31357706119 0.000160738903442 0)
(1.31355606142 4.6452937838e-05 0)
(1.31353676081 -1.58853904637e-05 0)
(1.31352009979 -4.60723975469e-05 0)
(1.31350641151 -5.70792573104e-05 0)
(1.31349551103 -5.73299580726e-05 0)
(1.31348705949 -5.20874626473e-05 0)
(1.31348066608 -4.45216875434e-05 0)
(1.31347594366 -3.64575446081e-05 0)
(1.31347254069 -2.88680229794e-05 0)
(1.31347015448 -2.22068248697e-05 0)
(1.31346852688 -1.6624318292e-05 0)
(1.3134674326 -1.2127724653e-05 0)
(1.31346670756 -8.65131717886e-06 0)
(1.31346625356 -6.09341380755e-06 0)
(1.31346596665 -4.31824699514e-06 0)
(1.31346575604 -3.11990452505e-06 0)
(1.31346561836 -2.2649516944e-06 0)
(1.31346563964 -1.54964692969e-06 0)
(1.31346577955 -9.77164958851e-07 0)
(1.31346586652 -5.66763307779e-07 0)
(1.31346585112 -2.11894100463e-07 0)
(1.31346576377 1.1418683311e-07 0)
(1.31346563366 4.18250138857e-07 0)
(1.31346547101 7.0694110967e-07 0)
(1.31346527575 9.90121953762e-07 0)
(1.31346504699 1.27668350284e-06 0)
(1.31346479195 1.57633576308e-06 0)
(1.31346454393 1.89318418189e-06 0)
(1.31346432839 2.17606288328e-06 0)
(1.31346415516 2.3855255823e-06 0)
(1.31346405722 2.47698839449e-06 0)
(1.31346409026 2.38633700713e-06 0)
(1.31346434441 2.0301198029e-06 0)
(1.31346493538 1.32243258178e-06 0)
(1.31346581768 2.08882556289e-07 0)
(1.31346711918 -1.4830879343e-06 0)
(1.31346925739 -4.01419006982e-06 0)
(1.31347241822 -8.1148742237e-06 0)
(1.31347683186 -1.50641357975e-05 0)
(1.31348273325 -2.64202211093e-05 0)
(1.31349040934 -4.37848706601e-05 0)
(1.31350035075 -7.03392060592e-05 0)
(1.31351287848 -0.000111113831938 0)
(1.31352808142 -0.000173858174117 0)
(1.31354558535 -0.000270656128781 0)
(1.31356408797 -0.000420466027982 0)
(1.31358041601 -0.000653102756424 0)
(1.3135876872 -0.00101577826179 0)
(1.3135718704 -0.00158347411679 0)
(1.3135055646 -0.00247520779224 0)
(1.31333460412 -0.0038781700708 0)
(1.31295150135 -0.00608460940373 0)
(1.31214637796 -0.00953882266201 0)
(1.31051407438 -0.0148820386964 0)
(1.30730157424 -0.0229420435196 0)
(1.30129982093 -0.0345585181485 0)
(1.29064202174 -0.0501679505007 0)
(1.27185780068 -0.0685427567197 0)
(0.995736076706 0.0346338605957 0)
(1.04179515254 0.0905689206824 0)
(1.10222840464 0.121549565024 0)
(1.16491414415 0.129605835713 0)
(1.2220257027 0.122009272266 0)
(1.26951897399 0.10601994493 0)
(1.30680230882 0.0870975655935 0)
(1.3349954446 0.0686366937837 0)
(1.35574488797 0.052369854475 0)
(1.37069630429 0.0389256352091 0)
(1.38128291454 0.0282980914095 0)
(1.38866285673 0.0201712947371 0)
(1.39373053042 0.0141175261591 0)
(1.39715681867 0.00970534868874 0)
(1.39943457156 0.00655060406364 0)
(1.40091990278 0.00433445935289 0)
(1.40186645698 0.002804145744 0)
(1.40245248415 0.00176574017146 0)
(1.4028015866 0.00107418834055 0)
(1.40299828555 0.000623224466039 0)
(1.40309950591 0.000336395350657 0)
(1.40314295595 0.000159606879927 0)
(1.40315321197 5.51468397576e-05 0)
(1.40314571895 -3.01525253349e-06 0)
(1.40312995788 -3.2137541303e-05 0)
(1.40311155755 -4.39014113603e-05 0)
(1.40309352433 -4.57671493939e-05 0)
(1.40307738129 -4.24209632555e-05 0)
(1.40306372759 -3.67267050574e-05 0)
(1.40305263536 -3.0361717783e-05 0)
(1.40304390217 -2.42405427932e-05 0)
(1.40303720378 -1.88102688859e-05 0)
(1.40303218008 -1.42385202165e-05 0)
(1.40302848354 -1.05267804824e-05 0)
(1.40302581767 -7.57510563451e-06 0)
(1.40302394888 -5.25890232583e-06 0)
(1.4030226988 -3.45570646372e-06 0)
(1.40302191601 -2.02185726596e-06 0)
(1.40302143466 -8.52468154677e-07 0)
(1.40302105676 7.48215534575e-08 0)
(1.40302071465 7.77563352881e-07 0)
(1.4030204943 1.26409177131e-06 0)
(1.40302038641 1.62777756802e-06 0)
(1.40302030313 1.94255680534e-06 0)
(1.40302021006 2.24462550297e-06 0)
(1.40302009823 2.55069567596e-06 0)
(1.40301996288 2.86890857543e-06 0)
(1.40301980314 3.20285964074e-06 0)
(1.4030196193 3.5528669672e-06 0)
(1.40301940393 3.90951734374e-06 0)
(1.40301916946 4.23057309756e-06 0)
(1.40301895175 4.48384137064e-06 0)
(1.40301878139 4.63120558123e-06 0)
(1.40301868464 4.61423530791e-06 0)
(1.4030186767 4.34375060444e-06 0)
(1.40301876673 3.67632247295e-06 0)
(1.40301897201 2.40900309101e-06 0)
(1.40301926749 4.20436542514e-07 0)
(1.40301990201 -2.72521993776e-06 0)
(1.40302107098 -7.77211902233e-06 0)
(1.40302260259 -1.55275803134e-05 0)
(1.40302417661 -2.73171207949e-05 0)
(1.40302533147 -4.49980833315e-05 0)
(1.40302533031 -7.15596621242e-05 0)
(1.40302268532 -0.000111592800197 0)
(1.40301466224 -0.000172130688464 0)
(1.40299645994 -0.000264048131273 0)
(1.40295990081 -0.000404223158176 0)
(1.4028910644 -0.000618718398189 0)
(1.40276626263 -0.000948140045911 0)
(1.40254548624 -0.00145579981496 0)
(1.40216241981 -0.00224011365486 0)
(1.40150558651 -0.00345010586054 0)
(1.40038674066 -0.00530943634977 0)
(1.39849272758 -0.00814081167322 0)
(1.39531059579 -0.0123788710043 0)
(1.3900275852 -0.0185343293139 0)
(1.38149605051 -0.0270445750039 0)
(1.36822073892 -0.0379909350857 0)
(1.3478108336 -0.0504806816538 0)
(0.994011533887 0.0192358054829 0)
(1.03484764488 0.0523338377638 0)
(1.09199264494 0.072363125683 0)
(1.15662422811 0.0791292323527 0)
(1.22032120377 0.0761045494659 0)
(1.27701950797 0.0673339781626 0)
(1.32424426211 0.056150914032 0)
(1.36181582925 0.0447990254253 0)
(1.39068542301 0.0345303954467 0)
(1.41226088732 0.0258814525753 0)
(1.42801837997 0.0189465449346 0)
(1.4392990177 0.0135850024152 0)
(1.44722826666 0.00955655254317 0)
(1.45270433529 0.00660013031887 0)
(1.45641917115 0.00447420094442 0)
(1.45889166661 0.00297351969328 0)
(1.46050254019 0.00193277066366 0)
(1.46152594456 0.00122369179411 0)
(1.46215596606 0.000749544470775 0)
(1.46252779404 0.000439007584877 0)
(1.46273407156 0.000240507379429 0)
(1.4628372124 0.00011739554152 0)
(1.46287851162 4.4031721692e-05 0)
(1.46288474803 2.67363211283e-06 0)
(1.46287262329 -1.84590847993e-05 0)
(1.46285227399 -2.74491460264e-05 0)
(1.4628297268 -2.94445251398e-05 0)
(1.462808193 -2.76903716749e-05 0)
(1.46278919828 -2.41850272122e-05 0)
(1.46277328547 -2.01100833148e-05 0)
(1.4627604456 -1.61141043759e-05 0)
(1.46275038566 -1.25196916734e-05 0)
(1.46274269664 -9.45294526679e-06 0)
(1.46273694775 -6.92403496826e-06 0)
(1.46273274148 -4.87945388197e-06 0)
(1.46272973424 -3.2506571805e-06 0)
(1.46272763631 -1.97453874319e-06 0)
(1.46272618912 -1.00983101779e-06 0)
(1.46272517874 -3.12067240763e-07 0)
(1.46272454194 2.02131684587e-07 0)
(1.46272416684 6.75844864814e-07 0)
(1.46272390442 1.1452324434e-06 0)
(1.46272372595 1.56503478376e-06 0)
(1.46272359672 1.94190971014e-06 0)
(1.46272348643 2.29681086579e-06 0)
(1.46272337372 2.64201151113e-06 0)
(1.46272324233 2.98229226872e-06 0)
(1.46272308071 3.31510505711e-06 0)
(1.46272288261 3.62985303597e-06 0)
(1.46272264536 3.91252107318e-06 0)
(1.46272237395 4.1548338884e-06 0)
(1.46272207909 4.32574164718e-06 0)
(1.46272176999 4.37467127373e-06 0)
(1.46272145849 4.23148346218e-06 0)
(1.46272116267 3.80418652911e-06 0)
(1.46272090295 2.985391216e-06 0)
(1.46272063667 1.6526001158e-06 0)
(1.4627202794 -3.2200251817e-07 0)
(1.46271971189 -3.17245629583e-06 0)
(1.4627187901 -7.78043912772e-06 0)
(1.4627172365 -1.4926732004e-05 0)
(1.46271438146 -2.57081394424e-05 0)
(1.46270911328 -4.16722799546e-05 0)
(1.46269962886 -6.52052421683e-05 0)
(1.46268286716 -9.99109081083e-05 0)
(1.46265369258 -0.000151185782278 0)
(1.4626035974 -0.000227213142527 0)
(1.4625188248 -0.000340473687124 0)
(1.46237692765 -0.000509586754556 0)
(1.4621410937 -0.000762969255694 0)
(1.46175137501 -0.00114435055694 0)
(1.46111319411 -0.00172140849585 0)
(1.46007551334 -0.00258989779777 0)
(1.45839745052 -0.00388931872084 0)
(1.45570520131 -0.00581201427071 0)
(1.45143355988 -0.00860103370414 0)
(1.44476245607 -0.0125164128914 0)
(1.43462329601 -0.0177384184093 0)
(1.419757345 -0.0242150606788 0)
(1.39831984359 -0.0314000466583 0)
(0.99326966985 0.00617014850462 0)
(1.03158100944 0.0171020420544 0)
(1.08672183747 0.0239906458514 0)
(1.15174557474 0.0265606658211 0)
(1.21823540571 0.0258180625559 0)
(1.27925779936 0.023048893844 0)
(1.33140143513 0.0193656435158 0)
(1.37377608254 0.0155468742645 0)
(1.40691065018 0.0120449501425 0)
(1.43203327155 0.00906642202918 0)
(1.45060230606 0.00666061775676 0)
(1.46403003227 0.00479011356854 0)
(1.47355034943 0.00337844811602 0)
(1.48017583492 0.00233875463312 0)
(1.48470249962 0.00158892656013 0)
(1.4877364266 0.00105829739399 0)
(1.48972757425 0.000689466883467 0)
(1.49100301296 0.000437638253906 0)
(1.49179609986 0.000268881300802 0)
(1.49227047507 0.000158102421425 0)
(1.49253896918 8.71122098299e-05 0)
(1.49267804587 4.29595894961e-05 0)
(1.49273857881 1.65681602796e-05 0)
(1.49275375285 1.64819615323e-06 0)
(1.49274451782 -6.08220761518e-06 0)
(1.49272373347 -9.42343313624e-06 0)
(1.49269909419 -1.02250128201e-05 0)
(1.49267482634 -9.65753587049e-06 0)
(1.49265302584 -8.44043806966e-06 0)
(1.49263453278 -6.99156661653e-06 0)
(1.49261946993 -5.55137018687e-06 0)
(1.49260757648 -4.23941589186e-06 0)
(1.49259842452 -3.1027006221e-06 0)
(1.49259153973 -2.14696374119e-06 0)
(1.4925864686 -1.35612084859e-06 0)
(1.4925828098 -7.09030414851e-07 0)
(1.49258022662 -1.84531492632e-07 0)
(1.4925784481 2.38572007654e-07 0)
(1.49257726474 6.06322565826e-07 0)
(1.49257649915 9.69930006257e-07 0)
(1.49257600352 1.26846178948e-06 0)
(1.49257568563 1.54675912378e-06 0)
(1.49257549027 1.82453837532e-06 0)
(1.49257536809 2.11089119214e-06 0)
(1.49257527914 2.41247051785e-06 0)
(1.49257519477 2.73134040351e-06 0)
(1.49257509374 3.06595046428e-06 0)
(1.49257496005 3.41119574833e-06 0)
(1.49257478188 3.75763090639e-06 0)
(1.49257455077 4.09071907825e-06 0)
(1.49257426285 4.39071939023e-06 0)
(1.4925739171 4.62540589295e-06 0)
(1.49257350881 4.74970870961e-06 0)
(1.4925730269 4.70276625686e-06 0)
(1.49257245026 4.39849532121e-06 0)
(1.49257175434 3.7136707971e-06 0)
(1.49257092311 2.50182221217e-06 0)
(1.49256980673 6.81128595875e-07 0)
(1.4925679984 -1.99894865956e-06 0)
(1.49256521133 -6.16625924437e-06 0)
(1.49256103919 -1.2349127495e-05 0)
(1.4925544609 -2.13289985519e-05 0)
(1.49254387274 -3.41960049802e-05 0)
(1.49252673408 -5.25044182931e-05 0)
(1.49249893182 -7.84585254344e-05 0)
(1.49245376951 -0.00011509622233 0)
(1.49238036982 -0.000166791060143 0)
(1.49226165991 -0.000240054440816 0)
(1.49207029385 -0.000343401536938 0)
(1.49176170125 -0.000489365942291 0)
(1.49126359049 -0.000698081573179 0)
(1.49046721345 -0.00100334259363 0)
(1.489203256 -0.00143766138924 0)
(1.48720595264 -0.00204851181281 0)
(1.48407694946 -0.00289724388232 0)
(1.47923658085 -0.00405134491375 0)
(1.47187825446 -0.00556508460697 0)
(1.46098882363 -0.00743995436382 0)
(1.44542162233 -0.00958190057635 0)
(1.42356799912 -0.0117424186524 0)
(0.993270467715 -0.00616840407276 0)
(1.03158099275 -0.0171003804445 0)
(1.08672177296 -0.0239897648357 0)
(1.15174561509 -0.0265602470524 0)
(1.21823548658 -0.0258179892648 0)
(1.27925790459 -0.0230491019334 0)
(1.33140156453 -0.0193660342654 0)