/*--------------------------------*- C++ -*----------------------------------*\
| =========                 |                                                 |
| \\      /  F ield         | OpenFOAM: The Open Source CFD Toolbox           |
|  \\    /   O peration     | Version:  2106                                  |
|   \\  /    A nd           | Website:  www.openfoam.com                      |
|    \\/     M anipulation  |                                                 |
\*---------------------------------------------------------------------------*/
FoamFile
{
    version     2.0;
    format      ascii;
    arch        "LSB;label=32;scalar=64";
    class       surfaceScalarField;
    location    "0.02";
    object      phi;
}
// * * * * * * * * * * * * * * * * * * * * * * * * * * * * * * * * * * * * * //

dimensions      [0 3 -1 0 0 0 0];

oriented        oriented;

internalField   nonuniform List<scalar> 
18840
(
3.37496832647e-05
1.6250316713e-05
2.25404544238e-05
1.12092288146e-05
1.63398530587e-05
6.20060175385e-06
1.29087353502e-05
3.4311192822e-06
1.09955165973e-05
1.9132188827e-06
9.90703661697e-06
1.08848132468e-06
9.2807919611e-06
6.2624555699e-07
8.92295985753e-06
3.57832598252e-07
8.7235980823e-06
1.99362300401e-07
8.6171944207e-06
1.06403971216e-07
8.56393861025e-06
5.32560015592e-08
8.53986089339e-06
2.40774644461e-08
8.53094006468e-06
8.92069340459e-09
8.52928319254e-06
1.65644237934e-09
8.53077470771e-06
-1.49192766603e-09
8.53320181603e-06
-2.42727327834e-09
8.53565495798e-06
-2.45350994345e-09
8.53775826694e-06
-2.10345416056e-09
8.5394186041e-06
-1.66028909853e-09
8.54066514536e-06
-1.24666823053e-09
8.54157009423e-06
-9.04987526644e-10
8.54221115331e-06
-6.41018374208e-10
8.54265665943e-06
-4.4560731081e-10
8.54296164353e-06
-3.05057635881e-10
8.54316781931e-06
-2.06133956767e-10
8.54330561346e-06
-1.37776405702e-10
8.5433967821e-06
-9.12181542337e-11
8.54345662731e-06
-5.98634451227e-11
8.54349559893e-06
-3.89768742186e-11
8.54352072193e-06
-2.52286371215e-11
8.5435368459e-06
-1.62227787726e-11
8.54354715345e-06
-1.03691107336e-11
8.54355370781e-06
-6.58350449429e-12
8.5435578406e-06
-4.17569041356e-12
8.54356048148e-06
-2.6470941927e-12
8.54356220105e-06
-1.69865340277e-12
8.5435633483e-06
-1.1478413884e-12
8.54356407038e-06
-7.4062530673e-13
8.54356457957e-06
-5.25562781522e-13
8.54356497362e-06
-4.00550126593e-13
8.54356528418e-06
-3.27721350407e-13
8.54356552645e-06
-2.85418276685e-13
8.54356574947e-06
-2.65230704915e-13
8.54356598072e-06
-2.47905726433e-13
8.54356621352e-06
-2.37441834066e-13
8.54356643871e-06
-2.39260772791e-13
8.54356666421e-06
-2.53233931603e-13
8.54356690843e-06
-2.74152925619e-13
8.54356718493e-06
-2.92735387982e-13
8.5435674888e-06
-3.04824616499e-13
8.54356780077e-06
-3.18886898332e-13
8.54356811291e-06
-3.44370005812e-13
8.5435684434e-06
-3.76353122356e-13
8.54356881584e-06
-4.01376366434e-13
8.54356922971e-06
-4.15369609634e-13
8.54356966181e-06
-4.28355993694e-13
8.54357009566e-06
-4.52181027463e-13
8.54357054182e-06
-4.88365388811e-13
8.54357102638e-06
-5.28781043837e-13
8.54357156392e-06
-5.65401394984e-13
8.5435721452e-06
-5.97871008825e-13
8.54357275105e-06
-6.31282761905e-13
8.54357337345e-06
-6.68245252757e-13
8.54357401978e-06
-7.05528220416e-13
8.5435746996e-06
-7.38061175837e-13
8.54357541173e-06
-7.6463285686e-13
8.54357614736e-06
-7.8972693734e-13
8.54357690467e-06
-8.20727361947e-13
8.54357769186e-06
-8.591078158e-13
8.54357852054e-06
-9.00775404923e-13
8.54357939852e-06
-9.41421463822e-13
8.54358032559e-06
-9.79101295708e-13
8.54358129739e-06
-1.01435899142e-12
8.54358231166e-06
-1.04930913025e-12
8.54358337084e-06
-1.08671344205e-12
8.54358448134e-06
-1.12796915638e-12
8.5435856502e-06
-1.17159416135e-12
8.54358688013e-06
-1.21392339676e-12
8.54358816605e-06
-1.25162325311e-12
8.54358949598e-06
-1.28473695927e-12
8.54359085751e-06
-1.31726599696e-12
8.54359224684e-06
-1.3539327214e-12
8.54359367164e-06
-1.39515941047e-12
8.54359514426e-06
-1.43723606554e-12
8.54359667022e-06
-1.47744432384e-12
8.54359824101e-06
-1.51399372475e-12
8.54359984408e-06
-1.55206754949e-12
8.5436014735e-06
-1.59499606383e-12
8.54360313711e-06
-1.64103675005e-12
8.54360485366e-06
-1.68537742281e-12
8.5436066311e-06
-1.72359817319e-12
8.54360845816e-06
-1.75535194029e-12
8.54361031369e-06
-1.78958612734e-12
8.54361218853e-06
-1.83644898311e-12
8.54361410061e-06
-1.89680465186e-12
8.54361608598e-06
-1.95876823192e-12
8.54361816744e-06
-2.0114786483e-12
8.54362033331e-06
-2.05917284482e-12
8.54362255594e-06
-2.12215372358e-12
8.54362483087e-06
-2.21936157266e-12
8.54362719566e-06
-2.3502867227e-12
8.54362971012e-06
-2.49950382203e-12
8.54363241768e-06
-2.65979009406e-12
8.54363533161e-06
-2.84522860943e-12
8.54363846468e-06
-3.08123735745e-12
8.54364187645e-06
-3.39502239179e-12
8.54364573341e-06
-3.85378324693e-12
8.54365017706e-06
-4.42040094566e-12
8.54365532901e-06
-5.10725216785e-12
8.54366133513e-06
-5.96986181272e-12
8.54366841061e-06
-7.07015030272e-12
8.54367684927e-06
-8.45967396231e-12
8.54368702585e-06
-1.02047580418e-11
8.54369943108e-06
-1.24347195966e-11
8.54371470377e-06
-1.53027261781e-11
8.54373362999e-06
-1.89370157797e-11
8.54375719281e-06
-2.35310124637e-11
8.54378657942e-06
-2.9337633865e-11
8.54382328633e-06
-3.66977275452e-11
8.54386928517e-06
-4.60411552102e-11
8.54392713209e-06
-5.78740244668e-11
8.54400000616e-06
-7.28307654939e-11
8.54409183305e-06
-9.1760141643e-11
8.54420763058e-06
-1.15803076004e-10
8.54435414435e-06
-1.4658810807e-10
8.54454141693e-06
-1.87298708035e-10
8.54477941542e-06
-2.37912933376e-10
8.54507612269e-06
-2.96596100232e-10
8.54545026818e-06
-3.74101620279e-10
8.54592343838e-06
-4.73155399262e-10
8.54652217208e-06
-5.98694768045e-10
8.54727975378e-06
-7.57595679237e-10
8.54823838206e-06
-9.5875797649e-10
8.54945168311e-06
-1.2134119019e-09
8.55098757923e-06
-1.53581667622e-09
8.55293212474e-06
-1.94432046888e-09
8.55539478537e-06
-2.46246805528e-09
8.55851496943e-06
-3.1201535236e-09
8.56247001806e-06
-3.95527710496e-09
8.56748595688e-06
-5.01633719844e-09
8.57385202907e-06
-6.36611918122e-09
8.58193916964e-06
-8.08643685171e-09
8.59222384554e-06
-1.02838153705e-08
8.60532078975e-06
-1.30968542237e-08
8.62202789439e-06
-1.6707601333e-08
8.64338648073e-06
-2.13589483153e-08
8.67076453762e-06
-2.73784600702e-08
8.70597575601e-06
-3.52119032498e-08
8.75145100673e-06
-4.54755980708e-08
8.81048978371e-06
-5.90386194847e-08
8.88764293002e-06
-7.71530590409e-08
8.98932632215e-06
-1.01683453766e-07
9.12489966141e-06
-1.35573162547e-07
9.30887278805e-06
-1.83972510632e-07
9.56634852542e-06
-2.57475234275e-07
9.94845847119e-06
-3.82110200102e-07
1.0579116265e-05
-6.30657453087e-07
1.18075833362e-05
-1.22846538813e-06
1.47516897364e-05
-2.94410657692e-06
-8.44465774579e-06
2.31963441816e-05
5.01465491768e-05
1.61037678433e-05
4.42121023208e-05
1.71436755027e-05
3.79142104805e-05
1.2498492462e-05
3.29711367683e-05
8.37419297032e-06
2.94998913579e-05
5.38446276566e-06
2.72034620863e-05
3.38490934024e-06
2.57407313298e-05
2.08897533261e-06
2.48391412497e-05
1.25942158573e-06
2.43021691137e-05
7.36333577749e-07
2.39943499965e-05
4.14222680205e-07
2.38255586157e-05
2.22047145455e-07
2.37379565577e-05
1.11679720983e-07
2.36958153605e-05
5.10621991652e-08
2.36779481878e-05
1.95239334132e-08
2.36722148414e-05
4.24189914606e-09
2.36721062858e-05
-2.31869578945e-09
2.36741988337e-05
-4.54610501971e-09
2.36768437932e-05
-4.74849256268e-09
2.36793208036e-05
-4.13763030546e-09
2.36813749681e-05
-3.30104060504e-09
2.36829687299e-05
-2.49884019009e-09
2.368415397e-05
-1.82644004545e-09
2.36850098385e-05
-1.30159900188e-09
2.36856144931e-05
-9.09719111189e-10
2.36860343059e-05
-6.26054831123e-10
2.36863217158e-05
-4.25357506658e-10
2.36865162072e-05
-2.85821637843e-10
2.36866465096e-05
-1.90215146529e-10
2.36867329895e-05
-1.25538649431e-10
2.36867899277e-05
-8.22426267118e-11
2.36868271916e-05
-5.34901203846e-11
2.3686851437e-05
-3.45503965689e-11
2.36868670802e-05
-2.21897447491e-11
2.36868771324e-05
-1.41700594363e-11
2.36868835672e-05
-8.99885930379e-12
2.36868876209e-05
-5.69050825873e-12
2.36868901279e-05
-3.61516606644e-12
2.36868917527e-05
-2.31189812187e-12
2.36868928177e-05
-1.50257590983e-12
2.36868935146e-05
-1.00866056281e-12
2.36868939585e-05
-7.13446375631e-13
2.36868942562e-05
-5.2700076319e-13
2.36868945263e-05
-4.56061848679e-13
2.36868947719e-05
-4.21724323275e-13
2.36868949822e-05
-4.25171216869e-13
2.36868951607e-05
-4.50933929837e-13
2.36868953316e-05
-4.82350093749e-13
2.3686895521e-05
-5.08992296315e-13
2.36868957342e-05
-5.29259334974e-13
2.36868959511e-05
-5.50598240487e-13
2.36868961555e-05
-5.8164954021e-13
2.36868963607e-05
-6.19663723804e-13
2.36868965948e-05
-6.54152347233e-13
2.36868968662e-05
-6.81820076503e-13
2.36868971551e-05
-7.11921498044e-13
2.36868974407e-05
-7.55580469909e-13
2.36868977276e-05
-8.13996058316e-13
2.36868980404e-05
-8.78819318967e-13
2.36868983969e-05
-9.42043529539e-13
2.36868987904e-05
-1.00307389664e-12
2.36868992016e-05
-1.06673391922e-12
2.36868996209e-05
-1.13546324106e-12
2.36869000557e-05
-1.20517177992e-12
2.36869005182e-05
-1.2692404177e-12
2.36869010113e-05
-1.32564857453e-12
2.36869015273e-05
-1.37815063114e-12
2.3686902056e-05
-1.42912586513e-12
2.36869025995e-05
-1.48516354119e-12
2.36869031701e-05
-1.5471909666e-12
2.36869037751e-05
-1.60825432169e-12
2.36869044166e-05
-1.66618292536e-12
2.36869050926e-05
-1.72186539909e-12
2.36869058015e-05
-1.77706721815e-12
2.36869065445e-05
-1.8334236037e-12
2.36869073257e-05
-1.89193053618e-12
2.36869081505e-05
-1.95249268665e-12
2.36869090231e-05
-2.01414804428e-12
2.36869099432e-05
-2.07572263342e-12
2.36869109043e-05
-2.13710013591e-12
2.36869118962e-05
-2.19998606464e-12
2.36869129133e-05
-2.26719921884e-12
2.36869139608e-05
-2.33950008609e-12
2.36869150514e-05
-2.41580712011e-12
2.36869161934e-05
-2.49235560231e-12
2.36869173856e-05
-2.57139935385e-12
2.36869186105e-05
-2.64957871597e-12
2.36869198586e-05
-2.73238499629e-12
2.36869211352e-05
-2.81735856881e-12
2.36869224572e-05
-2.89844975061e-12
2.36869238435e-05
-2.97572697892e-12
2.36869252944e-05
-3.05318431656e-12
2.36869267908e-05
-3.13828983782e-12
2.36869283178e-05
-3.23841465878e-12
2.36869298897e-05
-3.35754501914e-12
2.36869315519e-05
-3.49197946226e-12
2.3686933352e-05
-3.63715227198e-12
2.36869353055e-05
-3.79745642142e-12
2.36869373928e-05
-3.98953672021e-12
2.36869396061e-05
-4.24119603375e-12
2.36869419924e-05
-4.56784572253e-12
2.36869446445e-05
-4.96608991131e-12
2.36869476586e-05
-5.4350841151e-12
2.36869511064e-05
-6.00094867695e-12
2.36869550575e-05
-6.71472535935e-12
2.36869596409e-05
-7.63405222199e-12
2.36869650701e-05
-8.81554268351e-12
2.36869715586e-05
-1.03102179459e-11
2.36869793851e-05
-1.21867650567e-11
2.36869888759e-05
-1.45508035804e-11
2.36870004504e-05
-1.75449306484e-11
2.36870146607e-05
-2.13135527741e-11
2.36870321649e-05
-2.60002757927e-11
2.36870536497e-05
-3.17306358738e-11
2.36870796176e-05
-3.84549037271e-11
2.36871126656e-05
-4.83806628102e-11
2.36871553388e-05
-6.15676216777e-11
2.36872095176e-05
-7.76224303513e-11
2.36872780643e-05
-9.78625993162e-11
2.36873647754e-05
-1.2350399157e-10
2.36874746099e-05
-1.55979754363e-10
2.36876138661e-05
-1.97104503471e-10
2.36877903911e-05
-2.4922821887e-10
2.36880140227e-05
-3.15330445506e-10
2.36882972398e-05
-3.99079855151e-10
2.3688655683e-05
-5.05062304163e-10
2.36891077894e-05
-6.39290669277e-10
2.36896798947e-05
-8.09873387311e-10
2.36904106718e-05
-1.02736582024e-09
2.36913401779e-05
-1.30369531173e-09
2.36925209481e-05
-1.65394799071e-09
2.3694019964e-05
-2.09766046397e-09
2.36959223264e-05
-2.65989957001e-09
2.36983362381e-05
-3.37253229531e-09
2.37013990226e-05
-4.27600552721e-09
2.37052848394e-05
-5.42172446009e-09
2.37102151091e-05
-6.87505289714e-09
2.37164718562e-05
-8.71938108174e-09
2.37244140834e-05
-1.10616523405e-08
2.3734498896e-05
-1.40390592016e-08
2.37473099019e-05
-1.78271630239e-08
2.37635944065e-05
-2.2651467678e-08
2.37843112513e-05
-2.8804299423e-08
2.38106939241e-05
-3.66669164627e-08
2.38443355516e-05
-4.67381323956e-08
2.38873038049e-05
-5.96750860821e-08
2.39422983021e-05
-7.63528276594e-08
2.40128700296e-05
-9.79497245363e-08
2.41037320034e-05
-1.26073470323e-07
2.42212107632e-05
-1.62954618301e-07
2.43739239419e-05
-2.11752306771e-07
2.45738318726e-05
-2.77060603125e-07
2.48379538015e-05
-3.65805365922e-07
2.51913543171e-05
-4.88974898958e-07
2.56726854246e-05
-6.65304589535e-07
2.63451092252e-05
-9.29899044673e-07
2.73187063753e-05
-1.35570782392e-06
2.87949891551e-05
-2.10694226694e-06
3.11367502064e-05
-3.57022467375e-06
3.48809481856e-05
-6.68830168317e-06
-1.36144430156e-05
4.00507369525e-05
5.36018286558e-05
1.25019396091e-05
5.30019604708e-05
1.77435432714e-05
4.98632278654e-05
1.56372246387e-05
4.62831968003e-05
1.19542246522e-05
4.31886960771e-05
8.47896323663e-06
4.08425025958e-05
5.73110289476e-06
3.91993759231e-05
3.73210206077e-06
3.81123624201e-05
2.3464351158e-06
3.74263399049e-05
1.42235567879e-06
3.70116261998e-05
8.28936005103e-07
3.67713267366e-05
4.62346290873e-07
3.66381921301e-05
2.4481373081e-07
3.65681546036e-05
1.21099387516e-07
3.65337204777e-05
5.3957786456e-08
3.65184619688e-05
1.95001850484e-08
3.65130110993e-05
3.13213305795e-09
3.65121890326e-05
-3.72397966294e-09
3.65133098913e-05
-5.86936080194e-09
3.65150264128e-05
-5.85417163992e-09
3.65167299925e-05
-5.00461666471e-09
3.6518185001e-05
-3.95398078236e-09
3.65193352318e-05
-2.97686548429e-09
3.6520202433e-05
-2.16891720838e-09
3.65208353737e-05
-1.54281422129e-09
3.65212864729e-05
-1.07735576757e-09
3.65216021841e-05
-7.41186563469e-10
3.65218199134e-05
-5.03621818653e-10
3.65219682397e-05
-3.38583112511e-10
3.65220682198e-05
-2.25553165173e-10
3.65221350278e-05
-1.49002729734e-10
3.65221793224e-05
-9.76753976826e-11
3.65222084567e-05
-6.35694076018e-11
3.6522227468e-05
-4.11085124496e-11
3.65222398047e-05
-2.64205658409e-11
3.65222477772e-05
-1.68749212258e-11
3.65222529129e-05
-1.07286732728e-11
3.6522256207e-05
-6.81207143495e-12
3.65222583318e-05
-4.3315349171e-12
3.65222597176e-05
-2.78180563628e-12
3.65222606308e-05
-1.83138980623e-12
3.65222612452e-05
-1.25814122962e-12
3.65222616796e-05
-9.09316233406e-13
3.65222619701e-05
-7.13721882503e-13
3.6522262178e-05
-6.1859325238e-13
3.65222623313e-05
-5.9046759102e-13
3.65222624492e-05
-5.98092173254e-13
3.65222625549e-05
-6.17404837043e-13
3.65222626691e-05
-6.38745684219e-13
3.65222627937e-05
-6.65363349671e-13
3.65222629161e-05
-7.02953260734e-13
3.65222630305e-05
-7.46566346119e-13
3.65222631497e-05
-7.84981744999e-13
3.65222632892e-05
-8.15447405405e-13
3.65222634479e-05
-8.49058179972e-13
3.65222636118e-05
-8.98922522815e-13
3.65222637721e-05
-9.66378095655e-13
3.6522263937e-05
-1.04172498762e-12
3.65222641231e-05
-1.117063691e-12
3.65222643392e-05
-1.19437870479e-12
3.65222645795e-05
-1.28044626186e-12
3.65222648332e-05
-1.37617967667e-12
3.65222650956e-05
-1.47316599477e-12
3.652226537e-05
-1.56102967187e-12
3.65222656592e-05
-1.63610807422e-12
3.65222659595e-05
-1.70278931286e-12
3.65222662636e-05
-1.76727206614e-12
3.65222665678e-05
-1.83029501842e-12
3.65222668837e-05
-1.90258575975e-12
3.65222672221e-05
-1.98072420577e-12
3.65222675841e-05
-2.05301946334e-12
3.65222679696e-05
-2.12259034259e-12
3.65222683781e-05
-2.19162961051e-12
3.65222688105e-05
-2.2615395795e-12
3.65222692692e-05
-2.33273273076e-12
3.65222697579e-05
-2.4047748457e-12
3.65222702803e-05
-2.47699666604e-12
3.65222708385e-05
-2.54937170175e-12
3.65222714302e-05
-2.62318125329e-12
3.65222720485e-05
-2.7012614778e-12
3.65222726856e-05
-2.78604931774e-12
3.65222733408e-05
-2.87866415606e-12
3.65222740219e-05
-2.97580460394e-12
3.65222747411e-05
-3.07690895639e-12
3.65222754967e-05
-3.17250468362e-12
3.6522276288e-05
-3.27950333999e-12
3.65222770923e-05
-3.38016286325e-12
3.65222779181e-05
-3.5011145939e-12
3.65222787757e-05
-3.62256209076e-12
3.65222796763e-05
-3.73058689721e-12
3.65222806318e-05
-3.8360834297e-12
3.65222816376e-05
-3.95205799224e-12
3.65222826779e-05
-4.0895160306e-12
3.65222837495e-05
-4.25348642807e-12
3.65222848788e-05
-4.44062746846e-12
3.65222861107e-05
-4.64701868499e-12
3.65222874764e-05
-4.88066588167e-12
3.6522288985e-05
-5.17094944409e-12
3.65222906342e-05
-5.54143440524e-12
3.65222924519e-05
-6.01634793012e-12
3.65222945218e-05
-6.61287890016e-12
3.65222969477e-05
-7.33449663861e-12
3.65222998136e-05
-8.20370703167e-12
3.65223031871e-05
-9.28048916353e-12
3.65223071496e-05
-1.06306296055e-11
3.65223118099e-05
-1.22872171715e-11
3.65223172053e-05
-1.41933903539e-11
3.65223242063e-05
-1.72584099619e-11
3.65223331498e-05
-2.10702489354e-11
3.6522344403e-05
-2.57846969361e-11
3.65223585818e-05
-3.17504284786e-11
3.65223765273e-05
-3.92864051647e-11
3.65223993225e-05
-4.87909479105e-11
3.65224284241e-05
-6.08187720531e-11
3.65224660879e-05
-7.61277737922e-11
3.65225133832e-05
-9.56978157829e-11
3.65225724036e-05
-1.20591273606e-10
3.65226469811e-05
-1.5219095198e-10
3.65227414132e-05
-1.92311075017e-10
3.65228611096e-05
-2.43235866657e-10
3.65230129731e-05
-3.07839557894e-10
3.65232057179e-05
-3.89795115714e-10
3.6523450326e-05
-4.93808146531e-10
3.65237607692e-05
-6.25817448067e-10
3.65241549079e-05
-7.93252969737e-10
3.65246554842e-05
-1.00556469473e-09
3.65252912907e-05
-1.27498018033e-09
3.65260985123e-05
-1.6170853687e-09
3.65271227777e-05
-2.05171532442e-09
3.65284229573e-05
-2.60389391095e-09
3.65300737785e-05
-3.3047085008e-09
3.65321698191e-05
-4.1937151952e-09
3.65348311333e-05
-5.32129413559e-09
3.65382101891e-05
-6.75149846395e-09
3.65425004123e-05
-8.56591326876e-09
3.65479473275e-05
-1.086839589e-08
3.65548631023e-05
-1.37909140048e-08
3.65636449433e-05
-1.75015492558e-08
3.65747984515e-05
-2.22154143792e-08
3.65889678996e-05
-2.82083367706e-08
3.66069754443e-05
-3.58340239032e-08
3.66298719097e-05
-4.55473027535e-08
3.66590036173e-05
-5.79361256719e-08
3.66961007368e-05
-7.37645980865e-08
3.67433936389e-05
-9.40313411329e-08
3.68037687515e-05
-1.20050592083e-07
3.68809819847e-05
-1.53566794541e-07
3.69799526774e-05
-1.96920493776e-07
3.71071735329e-05
-2.53293632861e-07
3.72712982037e-05
-3.27079111111e-07
3.74840044621e-05
-4.2445898084e-07
3.77612938152e-05
-5.54350052181e-07
3.81255126836e-05
-7.30023843153e-07
3.86085954896e-05
-9.72057467295e-07
3.92573488482e-05
-1.31405862902e-06
4.01418459034e-05
-1.81439635539e-06
4.1367188883e-05
-2.58105057421e-06
4.30833555298e-05
-3.82311133046e-06
4.54616825356e-05
-5.94855312804e-06
4.85024514798e-05
-9.72907087825e-06
-1.64180155612e-05
5.13060222967e-05
5.35888720121e-05
8.91306814522e-06
5.56713787626e-05
1.56610375148e-05
5.54587621558e-05
1.58498401387e-05
5.40248475742e-05
1.3388140276e-05
5.2254470167e-05
1.02493405319e-05
5.06373204334e-05
7.34825202481e-06
4.93602078585e-05
5.00921482126e-06
4.84390945572e-05
3.26754818164e-06
4.78170752275e-05
2.04437519426e-06
4.74187684108e-05
1.22724288581e-06
4.71752662392e-05
7.0584846361e-07
4.70326970315e-05
3.87383207727e-07
4.69527569246e-05
2.01039431558e-07
4.69100115065e-05
9.67032034404e-08
4.68884595022e-05
4.10521509093e-08
4.68784967423e-05
1.30947478502e-08
4.68745350008e-05
2.37685274213e-10
4.68735339728e-05
-4.86844582169e-09
4.687383507e-05
-6.15538077148e-09
4.68746053792e-05
-5.77497428162e-09
4.68754506629e-05
-4.79931607708e-09
4.68762056962e-05
-3.73193944946e-09
4.68768185448e-05
-2.78179399839e-09
4.68772888789e-05
-2.01330092056e-09
4.68776367802e-05
-1.42546755291e-09
4.68778874373e-05
-9.92079482357e-10
4.68780644603e-05
-6.80877203496e-10
4.68781874826e-05
-4.61879401793e-10
4.68782719116e-05
-3.1017086137e-10
4.68783292331e-05
-2.06458236434e-10
4.68783677918e-05
-1.36322855173e-10
4.68783934871e-05
-8.93800212153e-11
4.6878410486e-05
-5.82419752413e-11
4.68784216763e-05
-3.77384143385e-11
4.68784289992e-05
-2.43345482206e-11
4.68784337605e-05
-1.56324428661e-11
4.68784368372e-05
-1.00226204873e-11
4.68784388249e-05
-6.42868588092e-12
4.68784401101e-05
-4.1364907631e-12
4.68784409311e-05
-2.68293244684e-12
4.6878441444e-05
-1.77441996316e-12
4.68784417728e-05
-1.22449895e-12
4.68784419961e-05
-9.14217671813e-13
4.68784421545e-05
-7.54150113785e-13
4.68784422627e-05
-6.83559718808e-13
4.68784423336e-05
-6.6227469654e-13
4.68784423857e-05
-6.65832340408e-13
4.68784424302e-05
-6.82412065754e-13
4.68784424628e-05
-7.08353039324e-13
4.68784424736e-05
-7.39645475782e-13
4.68784424661e-05
-7.70525458974e-13
4.68784424566e-05
-7.98603943659e-13
4.68784424558e-05
-8.29752248965e-13
4.6878442458e-05
-8.73283950051e-13
4.68784424508e-05
-9.32799056217e-13
4.68784424331e-05
-1.00440751069e-12
4.68784424191e-05
-1.08177287921e-12
4.68784424224e-05
-1.16278895029e-12
4.68784424412e-05
-1.25013453059e-12
4.68784424607e-05
-1.3459786723e-12
4.68784424699e-05
-1.44709380671e-12
4.68784424719e-05
-1.54610810448e-12
4.68784424779e-05
-1.63671401802e-12
4.68784424929e-05
-1.71806599421e-12
4.68784425133e-05
-1.79419828187e-12
4.68784425337e-05
-1.86855019039e-12
4.68784425517e-05
-1.93683630547e-12
4.68784425676e-05
-2.00704827875e-12
4.68784425835e-05
-2.07825119446e-12
4.68784426049e-05
-2.14784130815e-12
4.68784426322e-05
-2.21642869255e-12
4.68784426657e-05
-2.2846744824e-12
4.6878442706e-05
-2.35261650349e-12
4.68784427547e-05
-2.42023562324e-12
4.68784428145e-05
-2.48793067706e-12
4.6878442889e-05
-2.55662554219e-12
4.68784429815e-05
-2.6279688053e-12
4.68784430914e-05
-2.70409941632e-12
4.68784432134e-05
-2.78796311538e-12
4.68784433409e-05
-2.87951671946e-12
4.68784434743e-05
-2.97971671479e-12
4.68784436211e-05
-3.08332319404e-12
4.68784437971e-05
-3.19696382346e-12
4.68784439942e-05
-3.29709411864e-12
4.68784442222e-05
-3.4288163282e-12
4.68784444461e-05
-3.5330507279e-12
4.68784446773e-05
-3.67243496721e-12
4.68784449329e-05
-3.81692973596e-12
4.68784452159e-05
-3.93507873519e-12
4.68784455408e-05
-4.0629865247e-12
4.68784459055e-05
-4.21580825385e-12
4.68784462979e-05
-4.40153667957e-12
4.68784467232e-05
-4.6222070654e-12
4.68784472168e-05
-4.87656220819e-12
4.68784478308e-05
-5.17444840278e-12
4.68784486099e-05
-5.54969409041e-12
4.68784495665e-05
-6.03282632121e-12
4.68784506758e-05
-6.60096415904e-12
4.68784519887e-05
-7.30875973208e-12
4.68784536108e-05
-8.19469822381e-12
4.6878455653e-05
-9.28957960551e-12
4.68784582033e-05
-1.06496880949e-11
4.68784613649e-05
-1.23742847347e-11
4.68784653178e-05
-1.45709015022e-11
4.68784703807e-05
-1.73534170508e-11
4.68784770891e-05
-2.08708342879e-11
4.68784852256e-05
-2.53349084808e-11
4.68784952304e-05
-3.103786626e-11
4.68785077461e-05
-3.83130679821e-11
4.68785235289e-05
-4.75612698835e-11
4.6878543525e-05
-5.9270656627e-11
4.68785688793e-05
-7.40945460927e-11
4.68786010067e-05
-9.29127488764e-11
4.68786417403e-05
-1.1687778981e-10
4.68786935364e-05
-1.47536052064e-10
4.68787594906e-05
-1.86584423679e-10
4.68788433773e-05
-2.3611677333e-10
4.68789499905e-05
-2.98962908518e-10
4.68790855062e-05
-3.78749790037e-10
4.68792577913e-05
-4.80062066323e-10
4.6879476774e-05
-6.08720039819e-10
4.68797550482e-05
-7.72103853961e-10
4.68801087155e-05
-9.79542585039e-10
4.68805583069e-05
-1.24282655152e-09
4.68811298157e-05
-1.57699746607e-09
4.68818561146e-05
-2.00130719137e-09
4.6882779028e-05
-2.54016578883e-09
4.68839516745e-05
-3.22444923977e-09
4.68854413018e-05
-4.09337329349e-09
4.68873332261e-05
-5.19641717093e-09
4.68897358471e-05
-6.59628892895e-09
4.6892786946e-05
-8.37249088825e-09
4.68966613834e-05
-1.06260141082e-08
4.69015809784e-05
-1.34854618545e-08
4.6907827434e-05
-1.71145724596e-08
4.69157586441e-05
-2.17216588819e-08
4.69258292459e-05
-2.75720084367e-08
4.69386174018e-05
-3.50041622502e-08
4.69548594695e-05
-4.44511256412e-08
4.69754937573e-05
-5.64682241605e-08
4.70017166888e-05
-7.17695896667e-08
4.7035057004e-05
-9.12761357255e-08
4.70774730696e-05
-1.16180630188e-07
4.71314792915e-05
-1.48037332522e-07
4.72003133697e-05
-1.88884485104e-07
4.72881610845e-05
-2.41414582728e-07
4.74004593755e-05
-3.09218928534e-07
4.75443095334e-05
-3.97143777973e-07
4.7729048545e-05
-5.11817864008e-07
4.79670488817e-05
-6.62459551947e-07
4.82748511388e-05
-8.62153065417e-07
4.86747686848e-05
-1.12994141273e-06
4.91971166264e-05
-1.49440467265e-06
4.98830781842e-05
-2.00001979807e-06
5.07874677123e-05
-2.71878646201e-06
5.197796036e-05
-3.77154173213e-06
5.35196681342e-05
-5.36481992768e-06
5.54145558525e-05
-7.84344202736e-06
5.74199655825e-05
-1.17344791256e-05
-1.76503698134e-05
5.86523199082e-05
5.27731402265e-05
6.139927164e-06
5.57975851805e-05
1.2636594517e-05
5.74583981489e-05
1.41890257133e-05
5.78976829173e-05
1.29488558507e-05
5.76122865441e-05
1.05347369612e-05
5.70325402081e-05
7.92799823693e-06
5.64228535075e-05
5.61890127385e-06
5.59055606445e-05
3.78484119582e-06
5.55153007803e-05
2.43463486048e-06
5.5243282439e-05
1.49926099295e-06
5.50647081321e-05
8.84422799007e-07
5.4953082732e-05
4.99008437079e-07
5.48862187647e-05
2.67903362725e-07
5.48477215492e-05
1.35200478228e-07
5.48264220708e-05
6.23514877417e-08
5.48151510549e-05
2.43656822458e-08
5.48095360051e-05
5.85272203947e-09
5.48069387053e-05
-2.27125459066e-09
5.48059340707e-05
-5.15086761467e-09
5.4805695593e-05
-5.53660015279e-09
5.48057937946e-05
-4.89762991619e-09
5.4806011181e-05
-3.94936662277e-09
5.48062451613e-05
-3.01576380233e-09
5.4806452908e-05
-2.22104387504e-09
5.4806621257e-05
-1.59377909861e-09
5.48067505253e-05
-1.12128857685e-09
5.4806846259e-05
-7.76582166321e-10
5.48069153553e-05
-5.3094374619e-10
5.48069642709e-05
-3.59064732347e-10
5.48069984e-05
-2.40516906224e-10
5.48070218899e-05
-1.59750528183e-10
5.48070378719e-05
-1.05299573111e-10
5.48070486712e-05
-6.89130717293e-11
5.48070559263e-05
-4.4798710866e-11
5.48070607603e-05
-2.89460775665e-11
5.48070639482e-05
-1.86114706387e-11
5.48070660394e-05
-1.1930285658e-11
5.48070674218e-05
-7.63748073455e-12
5.4807068339e-05
-4.89883699981e-12
5.48070689374e-05
-3.17542271792e-12
5.48070693183e-05
-2.10423362963e-12
5.48070695557e-05
-1.44663345169e-12
5.48070696945e-05
-1.05413564854e-12
5.48070697655e-05
-8.29770812823e-13
5.48070697906e-05
-7.08742184567e-13
5.48070697847e-05
-6.50611526907e-13
5.48070697606e-05
-6.33727861152e-13
5.48070697277e-05
-6.44790834732e-13
5.48070696885e-05
-6.70393046315e-13
5.48070696405e-05
-6.97457622479e-13
5.48070695817e-05
-7.19926546837e-13
5.48070695132e-05
-7.42920761747e-13
5.48070694362e-05
-7.7743828318e-13
5.48070693516e-05
-8.2946010579e-13
5.48070692609e-05
-8.94822054951e-13
5.48070691683e-05
-9.65110046063e-13
5.48070690782e-05
-1.03731413887e-12
5.4807068992e-05
-1.11640797032e-12
5.48070689075e-05
-1.20874711243e-12
5.48070688223e-05
-1.31369969553e-12
5.48070687362e-05
-1.42190958727e-12
5.48070686499e-05
-1.52181602619e-12
5.48070685616e-05
-1.60780236709e-12
5.48070684654e-05
-1.68253146147e-12
5.48070683552e-05
-1.75168919508e-12
5.48070682293e-05
-1.81823727294e-12
5.48070680956e-05
-1.88150457625e-12
5.48070679563e-05
-1.94412742158e-12
5.48070678108e-05
-2.00498932609e-12
5.48070676591e-05
-2.06520168787e-12
5.48070675034e-05
-2.12630361005e-12
5.48070673478e-05
-2.18813265334e-12
5.48070671959e-05
-2.2495148024e-12
5.4807067049e-05
-2.30990291716e-12
5.48070669073e-05
-2.37022828519e-12
5.48070667715e-05
-2.43238591546e-12
5.4807066643e-05
-2.49841421411e-12
5.48070665206e-05
-2.57026312324e-12
5.48070663999e-05
-2.64956390254e-12
5.48070662777e-05
-2.7368381661e-12
5.4807066155e-05
-2.83212682103e-12
5.48070660403e-05
-2.93282574194e-12
5.48070659371e-05
-3.03959303776e-12
5.48070658549e-05
-3.14420635981e-12
5.48070657662e-05
-3.26248787198e-12
5.48070656828e-05
-3.3758465732e-12
5.48070655885e-05
-3.51052766047e-12
5.48070654921e-05
-3.64916956976e-12
5.48070654266e-05
-3.78342783453e-12
5.48070653931e-05
-3.93099981686e-12
5.48070653811e-05
-4.10825242926e-12
5.48070653847e-05
-4.32589531911e-12
5.4807065416e-05
-4.58652850481e-12
5.48070655027e-05
-4.89066649252e-12
5.48070656666e-05
-5.25187264238e-12
5.48070659022e-05
-5.70362620602e-12
5.48070662102e-05
-6.29123592463e-12
5.48070666643e-05
-7.03650959504e-12
5.48070673423e-05
-7.96158849951e-12
5.48070683257e-05
-9.10910308133e-12
5.48070696852e-05
-1.05450233878e-11
5.48070714908e-05
-1.2369402421e-11
5.48070738509e-05
-1.47066054055e-11
5.48070769514e-05
-1.76814400361e-11
5.48070810412e-05
-2.14330114883e-11
5.48070864011e-05
-2.61765024629e-11
5.48070934076e-05
-3.22873297687e-11
5.48071024736e-05
-4.01064987861e-11
5.48071141847e-05
-5.00621793203e-11
5.48071293265e-05
-6.26993457193e-11
5.4807148851e-05
-7.87184269238e-11
5.48071738901e-05
-9.90519344528e-11
5.48072058902e-05
-1.2491241201e-10
5.48072467628e-05
-1.57824664447e-10
5.48072988911e-05
-1.99732979e-10
5.48073653062e-05
-2.53021979404e-10
5.48074498758e-05
-3.20695530813e-10
5.48075575337e-05
-4.06643767985e-10
5.48076946006e-05
-5.15821258786e-10
5.48078690909e-05
-6.54521481682e-10
5.48080911206e-05
-8.30735394462e-10
5.48083735476e-05
-1.054564858e-09
5.48087328605e-05
-1.33887365674e-09
5.48091899738e-05
-1.69989907973e-09
5.48097713039e-05
-2.15832811025e-09
5.48105103488e-05
-2.74049357159e-09
5.48114497827e-05
-3.47975653578e-09
5.48126437864e-05
-4.41841258296e-09
5.48141608024e-05
-5.61019874548e-09
5.48160876263e-05
-7.12313124635e-09
5.48185346441e-05
-9.04329050424e-09
5.48216420481e-05
-1.1479815861e-08
5.48255874764e-05
-1.45713831434e-08
5.48305961545e-05
-1.84942744675e-08
5.48369540569e-05
-2.34725748823e-08
5.48450241088e-05
-2.97914449484e-08
5.48552665599e-05
-3.78140869865e-08
5.48682656466e-05
-4.80032530968e-08
5.48847638228e-05
-6.09495654989e-08
5.49057047272e-05
-7.7409248968e-08
5.49322880985e-05
-9.83529379966e-08
5.49660409846e-05
-1.25029034387e-07
5.50089094672e-05
-1.5904922189e-07
5.5063376988e-05
-2.02504931954e-07
5.51326178028e-05
-2.58124936567e-07
5.52206960018e-05
-3.29492227832e-07
5.53328255006e-05
-4.2134871703e-07
5.54757108557e-05
-5.4002981606e-07
5.56579895489e-05
-6.94096381372e-07
5.58908011613e-05
-8.95270608202e-07
5.61885030578e-05
-1.15985482837e-06
5.65695039164e-05
-1.51094293421e-06