/*--------------------------------*- C++ -*----------------------------------*\
| =========                 |                                                 |
| \\      /  F ield         | OpenFOAM: The Open Source CFD Toolbox           |
|  \\    /   O peration     | Version:  2106                                  |
|   \\  /    A nd           | Website:  www.openfoam.com                      |
|    \\/     M anipulation  |                                                 |
\*---------------------------------------------------------------------------*/
FoamFile
{
    version     2.0;
    format      ascii;
    arch        "LSB;label=32;scalar=64";
    class       volVectorField;
    location    "0.02";
    object      U;
}
// * * * * * * * * * * * * * * * * * * * * * * * * * * * * * * * * * * * * * //

dimensions      [0 1 -1 0 0 0 0];

internalField   nonuniform List<vector> 
9600
(
(0.675317670133 0.157742161323 0)
(0.563725086211 0.102427728054 0)
(0.381830090415 0.0509514503301 0)
(0.285085214024 0.0242121922211 0)
(0.235046233507 0.0115462769753 0)
(0.206745513186 0.00572092770715 0)
(0.190467285487 0.00293923937435 0)
(0.181164921665 0.00152335021713 0)
(0.175934435448 0.000767857549659 0)
(0.173091004097 0.000359727910293 0)
(0.171627789665 0.000144517561154 0)
(0.170935764112 3.75588378475e-05 0)
(0.170653679113 -1.02524805343e-05 0)
(0.1705750806 -2.73146362007e-05 0)
(0.170588163095 -2.92550043636e-05 0)
(0.170634897078 -2.59938214587e-05 0)
(0.170687382446 -2.09220591494e-05 0)
(0.170734520609 -1.58640582614e-05 0)
(0.170772711195 -1.15726542174e-05 0)
(0.170801856451 -8.21834106507e-06 0)
(0.170823251227 -5.72057601716e-06 0)
(0.17083853284 -3.92100098354e-06 0)
(0.170849223175 -2.65625270638e-06 0)
(0.170856578877 -1.78324707934e-06 0)
(0.170861572642 -1.18947520363e-06 0)
(0.17086492344 -7.91740362836e-07 0)
(0.170867147853 -5.28805852899e-07 0)
(0.170868610968 -3.5665124987e-07 0)
(0.170869565644 -2.45036647201e-07 0)
(0.170870182874 -1.73587471619e-07 0)
(0.170870578423 -1.27688053426e-07 0)
(0.170870830446 -9.78022544911e-08 0)
(0.17087098994 -7.77248091067e-08 0)
(0.170871089808 -6.39854145378e-08 0)
(0.170871151872 -5.40977402075e-08 0)
(0.170871190567 -4.72453254935e-08 0)
(0.170871214705 -4.37607980609e-08 0)
(0.170871229083 -4.39971540902e-08 0)
(0.170871237094 -4.58839247622e-08 0)
(0.170871241666 -4.85842519352e-08 0)
(0.170871244098 -5.20635155032e-08 0)
(0.170871244818 -5.64830823793e-08 0)
(0.170871244407 -6.17134859341e-08 0)
(0.17087124356 -6.73124751167e-08 0)
(0.170871242443 -7.32136729819e-08 0)
(0.170871240906 -7.95179147724e-08 0)
(0.17087123892 -8.63123190463e-08 0)
(0.170871236689 -9.35989925377e-08 0)
(0.170871234481 -1.01299995028e-07 0)
(0.17087123239 -1.09400552042e-07 0)
(0.170871230206 -1.18068863362e-07 0)
(0.17087122764 -1.27513580074e-07 0)
(0.170871224714 -1.37757979194e-07 0)
(0.170871221758 -1.48668676993e-07 0)
(0.170871218993 -1.60188698283e-07 0)
(0.170871216235 -1.72456082248e-07 0)
(0.170871213116 -1.85682818055e-07 0)
(0.170871209521 -1.99969042505e-07 0)
(0.170871205718 -2.15266685481e-07 0)
(0.170871202055 -2.31509155466e-07 0)
(0.170871198594 -2.48747646133e-07 0)
(0.170871195075 -2.67138391922e-07 0)
(0.170871191205 -2.86812988666e-07 0)
(0.170871186918 -3.07793896288e-07 0)
(0.17087118233 -3.30038655711e-07 0)
(0.170871177521 -3.53539969952e-07 0)
(0.170871172405 -3.78364473113e-07 0)
(0.170871166875 -4.04654757092e-07 0)
(0.170871160952 -4.32533552726e-07 0)
(0.170871154774 -4.62055128447e-07 0)
(0.170871148493 -4.93243839558e-07 0)
(0.17087114217 -5.26133563439e-07 0)
(0.170871135775 -5.60785563214e-07 0)
(0.170871129262 -5.97290946006e-07 0)
(0.170871122641 -6.35764145587e-07 0)
(0.170871115982 -6.76321468291e-07 0)
(0.170871109376 -7.19054239236e-07 0)
(0.170871102867 -7.64014534685e-07 0)
(0.17087109641 -8.11225513122e-07 0)
(0.170871089866 -8.60717885197e-07 0)
(0.170871083062 -9.12565760057e-07 0)
(0.170871075894 -9.66883459886e-07 0)
(0.170871068401 -1.0237804763e-06 0)
(0.170871060726 -1.08332280176e-06 0)
(0.170871053001 -1.14555047449e-06 0)
(0.170871045223 -1.21047201657e-06 0)
(0.170871037283 -1.27816172877e-06 0)
(0.170871029109 -1.3487201396e-06 0)
(0.17087102076 -1.42223402646e-06 0)
(0.170871012462 -1.49874778524e-06 0)
(0.170871004434 -1.57825408264e-06 0)
(0.170870996692 -1.66073623331e-06 0)
(0.170870989069 -1.74625314649e-06 0)
(0.170870981436 -1.83492386541e-06 0)
(0.170870973957 -1.92682648731e-06 0)
(0.170870967138 -2.02189367261e-06 0)
(0.170870961536 -2.11994922369e-06 0)
(0.170870957348 -2.22086042941e-06 0)
(0.170870954384 -2.32466276895e-06 0)
(0.170870952525 -2.43148758725e-06 0)
(0.17087095218 -2.5413594276e-06 0)
(0.170870954311 -2.65411111786e-06 0)
(0.170870959989 -2.76948451285e-06 0)
(0.170870969946 -2.88723623999e-06 0)
(0.170870984657 -3.00701937675e-06 0)
(0.170871004973 -3.12806268724e-06 0)
(0.170871033173 -3.24955540165e-06 0)
(0.170871072398 -3.37139323545e-06 0)
(0.170871125422 -3.49387208354e-06 0)
(0.170871195081 -3.61752247864e-06 0)
(0.170871285114 -3.74290949318e-06 0)
(0.170871400737 -3.87073517517e-06 0)
(0.170871548763 -4.00267386433e-06 0)
(0.170871737084 -4.14390889216e-06 0)
(0.170871976777 -4.30514632162e-06 0)
(0.170872283348 -4.48563222481e-06 0)
(0.170872674278 -4.6804231018e-06 0)
(0.170873170396 -4.88799358932e-06 0)
(0.170873798379 -5.10934005438e-06 0)
(0.170874592591 -5.3463351536e-06 0)
(0.170875597552 -5.60085625583e-06 0)
(0.170876869714 -5.87502083484e-06 0)
(0.170878479175 -6.1721520694e-06 0)
(0.170880514015 -6.49789792333e-06 0)
(0.170883091174 -6.86347091606e-06 0)
(0.170886376417 -7.30318948477e-06 0)
(0.170890561545 -7.91578852076e-06 0)
(0.170895826569 -8.77925084544e-06 0)
(0.170902438299 -9.82861796011e-06 0)
(0.170910787578 -1.10346802854e-05 0)
(0.170921350366 -1.240386243e-05 0)
(0.1709347157 -1.39593786918e-05 0)
(0.170951626095 -1.57346175228e-05 0)
(0.170973024123 -1.77722512542e-05 0)
(0.171000105743 -2.01276279383e-05 0)
(0.171034386077 -2.28741213514e-05 0)
(0.171077788383 -2.61065338161e-05 0)
(0.171132760147 -2.99443652043e-05 0)
(0.171202416154 -3.45407817758e-05 0)
(0.171290721939 -4.00970383075e-05 0)
(0.171402740807 -4.6877628717e-05 0)
(0.171544957049 -5.52276670634e-05 0)
(0.171725689309 -6.5597471053e-05 0)
(0.171955640803 -7.85751971398e-05 0)
(0.172248653614 -9.49336458887e-05 0)
(0.172622728448 -0.000115703749163 0)
(0.173101408833 -0.000142274117229 0)
(0.173715723125 -0.000176518632469 0)
(0.174506959126 -0.000220989015246 0)
(0.175530665302 -0.000279203366982 0)
(0.176862565497 -0.000356042942827 0)
(0.178607618996 -0.000458405537523 0)
(0.180914738944 -0.000596759179409 0)
(0.184004304494 -0.000790462188489 0)
(0.188230891369 -0.00108934544638 0)
(0.194237373701 -0.00165887547825 0)
(0.203395937763 -0.00310641549909 0)
(0.219716439794 -0.00780455871748 0)
(0.25678899244 -0.0255064152493 0)
(0.344933208669 -0.0967709694628 0)
(0.977177715544 0.297057453344 0)
(0.963036354154 0.250006405316 0)
(0.822395986401 0.157491506923 0)
(0.702256059505 0.0938622546175 0)
(0.618962632831 0.055127868961 0)
(0.562845404708 0.0324335407501 0)
(0.526475533223 0.0190696849139 0)
(0.503797095197 0.011069037282 0)
(0.490119866313 0.00625538240669 0)
(0.482159089555 0.00339433756508 0)
(0.477714460842 0.00173914062 0)
(0.475354798145 0.00081799672331 0)
(0.474182099825 0.00033059378966 0)
(0.473655126142 8.96988952339e-05 0)
(0.473460384781 -1.72118176487e-05 0)
(0.473424266234 -5.66020179985e-05 0)
(0.473455556884 -6.3544434024e-05 0)
(0.47350848488 -5.69365226108e-05 0)
(0.473562147604 -4.60691615701e-05 0)
(0.473608334416 -3.51552665292e-05 0)
(0.473644953122 -2.5819337008e-05 0)
(0.473672577346 -1.84553319192e-05 0)
(0.473692727855 -1.29255364809e-05 0)
(0.473707072631 -8.90701700393e-06 0)
(0.473717093694 -6.05670651522e-06 0)
(0.473723988218 -4.07349953293e-06 0)
(0.473728672376 -2.71411696304e-06 0)
(0.47373182091 -1.79359330731e-06 0)
(0.473733916899 -1.17711259904e-06 0)
(0.473735299852 -7.68351860787e-07 0)
(0.473736205475 -4.98582528836e-07 0)
(0.473736794565 -3.21259458613e-07 0)
(0.473737174707 -2.05328291541e-07 0)
(0.473737417895 -1.30148548023e-07 0)
(0.473737572219 -8.165134588e-08 0)
(0.473737668603 -5.10989695282e-08 0)
(0.47373772702 -3.30481682175e-08 0)
(0.473737761795 -2.37451309047e-08 0)
(0.473737782407 -1.90864513083e-08 0)
(0.4737377938 -1.68817788109e-08 0)
(0.473737798926 -1.6042585814e-08 0)
(0.473737799965 -1.57975353616e-08 0)
(0.473737798988 -1.54661820466e-08 0)
(0.473737797049 -1.53116944467e-08 0)
(0.473737794061 -1.55897882253e-08 0)
(0.473737789952 -1.63396925526e-08 0)
(0.473737784968 -1.74478605063e-08 0)
(0.473737779522 -1.87491085172e-08 0)
(0.473737773859 -2.01052386808e-08 0)
(0.473737767854 -2.15322917046e-08 0)
(0.4737377612 -2.31907043663e-08 0)
(0.47373775384 -2.51376670916e-08 0)
(0.47373774605 -2.72001141162e-08 0)
(0.47373773807 -2.91815417965e-08 0)
(0.473737729784 -3.11111476675e-08 0)
(0.473737720888 -3.32021049561e-08 0)
(0.47373771127 -3.56066162123e-08 0)
(0.473737701132 -3.82784316045e-08 0)
(0.473737690741 -4.10672036199e-08 0)
(0.473737680122 -4.38892204526e-08 0)
(0.473737669047 -4.67819680841e-08 0)
(0.473737657276 -4.9805007407e-08 0)
(0.473737644757 -5.29275399838e-08 0)
(0.473737631595 -5.60503106409e-08 0)
(0.473737617863 -5.91326809673e-08 0)
(0.473737603515 -6.22663149247e-08 0)
(0.473737588402 -6.56293132109e-08 0)
(0.473737572448 -6.93486525111e-08 0)
(0.473737555734 -7.34154608135e-08 0)
(0.473737538358 -7.77101744613e-08 0)
(0.473737520352 -8.21678481246e-08 0)
(0.473737501708 -8.67817055768e-08 0)
(0.473737482422 -9.1581567116e-08 0)
(0.473737462531 -9.66114660974e-08 0)
(0.473737442102 -1.01912666673e-07 0)
(0.473737421195 -1.07500416382e-07 0)
(0.473737399824 -1.13349570471e-07 0)
(0.473737377939 -1.19406219443e-07 0)
(0.473737355448 -1.25630244657e-07 0)
(0.473737332255 -1.32043535108e-07 0)
(0.473737308331 -1.38736544247e-07 0)
(0.473737283755 -1.45800087327e-07 0)
(0.473737258679 -1.53260054903e-07 0)
(0.473737233192 -1.61050805741e-07 0)
(0.473737207282 -1.69162596289e-07 0)
(0.473737180824 -1.77561859157e-07 0)
(0.473737153731 -1.8639978914e-07 0)
(0.473737126135 -1.95699417698e-07 0)
(0.473737098283 -2.05398663944e-07 0)
(0.473737070422 -2.15434978339e-07 0)
(0.473737042657 -2.25769407377e-07 0)
(0.473737014894 -2.36458892778e-07 0)
(0.473736987058 -2.4769303491e-07 0)
(0.473736959394 -2.59672314916e-07 0)
(0.473736932551 -2.72428189655e-07 0)
(0.473736907349 -2.85837502924e-07 0)
(0.473736884359 -2.99891913898e-07 0)
(0.473736863711 -3.1483664041e-07 0)
(0.473736845464 -3.31182781481e-07 0)
(0.473736830258 -3.49334278636e-07 0)
(0.473736819517 -3.69290122254e-07 0)
(0.473736815058 -3.90853628517e-07 0)
(0.473736818643 -4.14152956699e-07 0)
(0.473736832015 -4.39887075455e-07 0)
(0.4737368575 -4.69236375697e-07 0)
(0.473736898187 -5.04150047906e-07 0)
(0.473736958338 -5.48167246667e-07 0)
(0.47373704347 -5.99840100555e-07 0)
(0.473737159727 -6.58935341398e-07 0)
(0.473737314561 -7.26447604215e-07 0)
(0.473737517741 -8.03523502133e-07 0)
(0.473737781317 -8.90895076552e-07 0)
(0.473738118123 -9.88611853764e-07 0)
(0.473738540552 -1.09412058244e-06 0)
(0.473739080255 -1.19804108063e-06 0)
(0.473739786658 -1.30533463552e-06 0)
(0.473740703593 -1.42971835267e-06 0)
(0.473741879292 -1.58130508618e-06 0)
(0.473743378979 -1.76982932119e-06 0)
(0.473745288922 -2.00672998108e-06 0)
(0.473747719916 -2.30603487706e-06 0)
(0.473750811419 -2.68603229346e-06 0)
(0.47375473818 -3.17094362257e-06 0)
(0.473759720464 -3.79177848513e-06 0)
(0.473766033446 -4.58905874019e-06 0)
(0.473774012191 -5.62758209259e-06 0)
(0.473784104057 -7.03416892805e-06 0)
(0.473796941452 -8.95160695175e-06 0)
(0.473813301392 -1.1437942509e-05 0)
(0.473834102445 -1.45983274226e-05 0)
(0.473860518579 -1.85952783982e-05 0)
(0.473894047664 -2.364546695e-05 0)
(0.473936593732 -3.00247103527e-05 0)
(0.473990574889 -3.80808522175e-05 0)
(0.474059059157 -4.82556734469e-05 0)
(0.474145942658 -6.11120509027e-05 0)
(0.474256182841 -7.73655373801e-05 0)
(0.474396090983 -9.7927837803e-05 0)
(0.474573700844 -0.000123966557099 0)
(0.474799254224 -0.000156979947019 0)
(0.475085844341 -0.000198896353933 0)
(0.475450249579 -0.000252216803085 0)
(0.475914018145 -0.000320205565099 0)
(0.476504913154 -0.0004071364293 0)
(0.477258861113 -0.000518644545028 0)
(0.478222598796 -0.000662249513 0)
(0.479457322837 -0.00084809968634 0)
(0.481043805116 -0.00109005418608 0)
(0.483089710899 -0.00140735562347 0)
(0.485740367849 -0.00182727598997 0)
(0.489195119112 -0.00238946330057 0)
(0.493733176741 -0.00315371985298 0)
(0.499756753899 -0.00421559616157 0)
(0.50786846122 -0.00574227268185 0)
(0.519022565519 -0.0080668863504 0)
(0.534819750859 -0.0119546614153 0)
(0.558044848267 -0.0193619349281 0)
(0.593991233095 -0.0356854741201 0)
(0.653650748015 -0.0767461367292 0)
(0.747354403657 -0.185971788107 0)
(1.0339134353 0.239072737857 0)
(1.08384096238 0.292278105322 0)
(1.03561905423 0.235968590733 0)
(0.960675056395 0.169239251429 0)
(0.891665288229 0.114153395826 0)
(0.836999708386 0.0741687461265 0)
(0.797565096175 0.0468223573699 0)
(0.770954526277 0.0287041222307 0)
(0.753874695269 0.0170195881075 0)
(0.743380228875 0.00970869964494 0)
(0.737199331805 0.00528986062109 0)
(0.73371442905 0.00272029865432 0)
(0.731842536096 0.0012892934633 0)
(0.730895658379 0.000531432711823 0)
(0.730456201581 0.000154852378066 0)
(0.730281540252 -1.51730149411e-05 0)
(0.730236460873 -7.90851209499e-05 0)
(0.730248619988 -9.24773085957e-05 0)
(0.73028148904 -8.42837034823e-05 0)
(0.730317722368 -6.89153889326e-05 0)
(0.730350077718 -5.29957595531e-05 0)
(0.730376295461 -3.91675695236e-05 0)
(0.730396376248 -2.81459470125e-05 0)
(0.73041119617 -1.98010247189e-05 0)
(0.730421846059 -1.36977544637e-05 0)
(0.730429346739 -9.34366800866e-06 0)
(0.730434545996 -6.29595336569e-06 0)
(0.730438102689 -4.19520661023e-06 0)
(0.730440508446 -2.76608061672e-06 0)
(0.730442119915 -1.80394880409e-06 0)
(0.730443190145 -1.16214249783e-06 0)
(0.730443894997 -7.38045237032e-07 0)
(0.730444355161 -4.60929697085e-07 0)
(0.730444653003 -2.81727195033e-07 0)
(0.730444844208 -1.67304052099e-07 0)
(0.730444965813 -9.54248445671e-08 0)
(0.730445042149 -5.07126940203e-08 0)
(0.730445089328 -2.27287956455e-08 0)
(0.730445117881 -5.52678377538e-09 0)
(0.730445134437 4.82885415477e-09 0)
(0.730445143302 1.1086239119e-08 0)
(0.730445147291 1.51758370644e-08 0)
(0.730445147824 1.82996436259e-08 0)
(0.730445145716 2.06258203293e-08 0)
(0.730445141778 2.24509370347e-08 0)
(0.730445136482 2.41853037546e-08 0)
(0.730445130211 2.61570528596e-08 0)
(0.730445123327 2.85048361159e-08 0)
(0.730445116021 3.11660784083e-08 0)
(0.73044510821 3.39859219158e-08 0)
(0.730445099734 3.6923172263e-08 0)
(0.730445090608 4.0108847947e-08 0)
(0.730445080984 4.36615503419e-08 0)
(0.730445070919 4.7520057517e-08 0)
(0.730445060284 5.15226245945e-08 0)
(0.730445048929 5.56047771676e-08 0)
(0.730445036857 5.98657592971e-08 0)
(0.730445024212 6.44519405756e-08 0)
(0.73044501112 6.9416036243e-08 0)
(0.730444997565 7.47054515145e-08 0)
(0.730444983406 8.02638007869e-08 0)
(0.730444968509 8.61216532184e-08 0)
(0.730444952814 9.2378464972e-08 0)
(0.730444936302 9.91159017826e-08 0)
(0.730444918913 1.06342782475e-07 0)
(0.730444900539 1.14027442227e-07 0)
(0.730444881091 1.22194897658e-07 0)
(0.730444860624 1.30952645614e-07 0)
(0.73044483929 1.40402947212e-07 0)
(0.730444817146 1.50546948144e-07 0)
(0.730444794147 1.61401684533e-07 0)
(0.730444770282 1.7296691383e-07 0)
(0.730444745575 1.85239011753e-07 0)
(0.730444720087 1.98221111319e-07 0)
(0.730444693891 2.11927002374e-07 0)
(0.730444667026 2.26382573633e-07 0)
(0.730444639467 2.41616646559e-07 0)
(0.730444611131 2.57646093996e-07 0)
(0.730444581913 2.74464920976e-07 0)
(0.730444551754 2.9206033851e-07 0)
(0.730444520694 3.10443946381e-07 0)
(0.730444488867 3.29688057794e-07 0)
(0.730444456414 3.49871129426e-07 0)
(0.730444423312 3.71106537991e-07 0)
(0.730444389482 3.93336151856e-07 0)
(0.73044435479 4.16677034069e-07 0)
(0.730444319279 4.41045911308e-07 0)
(0.730444283286 4.6659891791e-07 0)
(0.730444247022 4.93525305667e-07 0)
(0.730444210592 5.2176806473e-07 0)
(0.730444174011 5.51189175516e-07 0)
(0.730444137218 5.81637429059e-07 0)
(0.730444100292 6.13048559339e-07 0)
(0.73044406366 6.45508855934e-07 0)
(0.730444028021 6.79203826623e-07 0)
(0.73044399403 7.14253255305e-07 0)
(0.730443962142 7.5064180361e-07 0)
(0.730443932652 7.88178210034e-07 0)
(0.730443906094 8.26451603629e-07 0)
(0.730443883735 8.65340788975e-07 0)
(0.7304438674 9.04981844377e-07 0)
(0.730443858944 9.45285073814e-07 0)
(0.73044386007 9.85648112701e-07 0)
(0.730443872583 1.02526645441e-06 0)
(0.730443898395 1.06373584855e-06 0)
(0.730443939315 1.1019179335e-06 0)
(0.730444004329 1.14286987041e-06 0)
(0.730444105086 1.18272831654e-06 0)
(0.730444249227 1.21692480659e-06 0)
(0.730444446821 1.24158768201e-06 0)
(0.730444712124 1.25304216957e-06 0)
(0.730445064177 1.24719813278e-06 0)
(0.730445528825 1.21941427996e-06 0)
(0.730446142155 1.16656135538e-06 0)
(0.730446936654 1.09172988482e-06 0)
(0.73044794545 9.83036388791e-07 0)
(0.730449226014 8.17647947573e-07 0)
(0.730450857969 5.73144620861e-07 0)
(0.730452938098 2.24351249807e-07 0)
(0.730455587724 -2.6009866259e-07 0)
(0.730458960557 -9.20828836846e-07 0)
(0.730463250867 -1.8106583614e-06 0)
(0.730468704973 -2.99657818576e-06 0)
(0.730475637028 -4.56185474851e-06 0)
(0.730484447926 -6.6108551397e-06 0)
(0.730495643697 -9.27362844272e-06 0)
(0.730509860391 -1.27039679505e-05 0)
(0.73052790948 -1.71173244851e-05 0)
(0.730550824966 -2.28247690599e-05 0)
(0.730579917977 -3.0200519118e-05 0)
(0.73061685679 -3.97101282449e-05 0)
(0.730663757484 -5.19431090871e-05 0)
(0.730723305346 -6.76466766561e-05 0)
(0.730798908404 -8.77701668483e-05 0)
(0.73089489177 -0.000113520510689 0)
(0.731016749898 -0.000146429849716 0)
(0.731171470713 -0.000188447769654 0)
(0.731367946871 -0.000242067851404 0)
(0.731617502734 -0.000310484670604 0)
(0.731934576493 -0.000397788910152 0)
(0.732337604155 -0.000509237573519 0)
(0.732850173401 -0.000651634313394 0)
(0.733502542928 -0.000833836157841 0)
(0.734333644443 -0.00106743227526 0)
(0.735393740665 -0.00136769928879 0)
(0.73674802298 -0.00175497016492 0)
(0.738481542753 -0.00225661538381 0)
(0.740706030673 -0.00290998570383 0)
(0.743569522976 -0.00376690043463 0)
(0.747270300788 -0.00490074115504 0)
(0.7520775646 -0.00641821617198 0)
(0.75836301159 -0.00847999621546 0)
(0.766650603058 -0.0113396222792 0)
(0.7776973252 -0.0154228219341 0)
(0.792627586016 -0.0215011164837 0)
(0.813141195191 -0.0310893604494 0)
(0.841737618857 -0.047341572355 0)
(0.881852978006 -0.0769606797802 0)
(0.937435875937 -0.134130842822 0)
(1.00394217495 -0.245698712267 0)
(1.03390483828 0.170820873312 0)
(1.10305160666 0.273021340227 0)
(1.1192722774 0.260792871095 0)
(1.09812801926 0.210871609083 0)
(1.06300278028 0.155770369988 0)
(1.02766849582 0.108466537056 0)
(0.998319297609 0.0722015943241 0)
(0.976469907365 0.0461718667106 0)
(0.961362948362 0.0283902275681 0)
(0.951498071382 0.0167672676745 0)
(0.945362369118 0.00948426166946 0)
(0.941711339813 0.00510737578612 0)
(0.939630152231 0.00258632609675 0)
(0.938496369501 0.00119828311637 0)
(0.937910755722 0.000472597475539 0)
(0.937629532263 0.000117993293989 0)
(0.937509670113 -3.81614783781e-05 0)
(0.937470693626 -9.34524110781e-05 0)
(0.937469305147 -0.000101580085748 0)
(0.937482865384 -9.01582496895e-05 0)
(0.93750035966 -7.27669827181e-05 0)
(0.937516913188 -5.55560395202e-05 0)
(0.937530755478 -4.08868631255e-05 0)
(0.937541576162 -2.93103016148e-05 0)
(0.937549680117 -2.05962982987e-05 0)
(0.937555571462 -1.42449233723e-05 0)
(0.937559760539 -9.72409514443e-06 0)
(0.93756268774 -6.56501001102e-06 0)
(0.93756470458 -4.39001184064e-06 0)
(0.937566078136 -2.91085793026e-06 0)
(0.937567003997 -1.9155833692e-06 0)
(0.937567622092 -1.25259471493e-06 0)
(0.937568030887 -8.15085171877e-07 0)
(0.937568299031 -5.28615734082e-07 0)
(0.937568473377 -3.42383513703e-07 0)
(0.937568585452 -2.22232057973e-07 0)
(0.937568656392 -1.45417130455e-07 0)
(0.937568700319 -9.6803877137e-08 0)
(0.937568726603 -6.64822506516e-08 0)
(0.937568741288 -4.79307882501e-08 0)
(0.937568748281 -3.69679201157e-08 0)
(0.93756875029 -3.0967502459e-08 0)
(0.937568749131 -2.83295514626e-08 0)
(0.937568745842 -2.77130697702e-08 0)
(0.937568740953 -2.83182139645e-08 0)
(0.937568734725 -2.96371191745e-08 0)
(0.937568727425 -3.13654163e-08 0)
(0.937568719295 -3.33878573275e-08 0)
(0.937568710381 -3.57107020631e-08 0)
(0.937568700557 -3.83218404103e-08 0)
(0.937568689759 -4.11178436696e-08 0)
(0.937568678113 -4.40095491096e-08 0)
(0.937568665783 -4.70564177129e-08 0)
(0.937568652763 -5.04313918824e-08 0)
(0.937568638895 -5.42470685187e-08 0)
(0.937568624086 -5.84630642096e-08 0)
(0.937568608441 -6.29690068082e-08 0)
(0.937568592142 -6.77247436502e-08 0)
(0.937568575219 -7.27903390582e-08 0)
(0.937568557482 -7.8233205298e-08 0)
(0.937568538695 -8.40284116308e-08 0)
(0.937568518773 -9.00625737714e-08 0)
(0.937568497798 -9.62339477546e-08 0)
(0.937568475862 -1.02534236992e-07 0)
(0.937568452942 -1.09040742314e-07 0)
(0.937568428953 -1.15846316791e-07 0)
(0.937568403807 -1.22973168082e-07 0)
(0.93756837746 -1.30316631398e-07 0)
(0.937568349886 -1.37849379519e-07 0)
(0.937568321099 -1.45651768928e-07 0)
(0.937568291128 -1.53778151342e-07 0)
(0.937568259956 -1.6227143253e-07 0)
(0.937568227593 -1.71153914188e-07 0)
(0.937568194082 -1.80428355008e-07 0)
(0.937568159477 -1.90093147417e-07 0)
(0.937568123819 -2.00160175734e-07 0)
(0.937568087106 -2.10666953003e-07 0)
(0.937568049293 -2.21681105778e-07 0)
(0.937568010313 -2.33284224071e-07 0)
(0.937567970128 -2.45540989493e-07 0)
(0.937567928787 -2.58450115832e-07 0)
(0.937567886412 -2.7197789922e-07 0)
(0.937567843165 -2.86079183689e-07 0)
(0.93756779901 -3.008224975e-07 0)
(0.937567753927 -3.16126235326e-07 0)
(0.937567707779 -3.32217597459e-07 0)
(0.937567660534 -3.48881010563e-07 0)
(0.937567612594 -3.6625231812e-07 0)
(0.937567564108 -3.84546913932e-07 0)
(0.937567515153 -4.03777995752e-07 0)
(0.937567465837 -4.24098554339e-07 0)
(0.937567416184 -4.45714957473e-07 0)
(0.937567366365 -4.68723336601e-07 0)
(0.937567316914 -4.93114358584e-07 0)
(0.937567268677 -5.1898002756e-07 0)
(0.937567222569 -5.46770642328e-07 0)
(0.937567179242 -5.77408027005e-07 0)
(0.937567138856 -6.11958853854e-07 0)
(0.937567101917 -6.50769087407e-07 0)
(0.937567069994 -6.93872184266e-07 0)
(0.937567045188 -7.41677433711e-07 0)
(0.93756702956 -7.95224910476e-07 0)
(0.93756702531 -8.55936535532e-07 0)
(0.937567035568 -9.25162732365e-07 0)
(0.937567065557 -1.00376241194e-06 0)
(0.937567123206 -1.09164908954e-06 0)
(0.937567211901 -1.18685107963e-06 0)
(0.937567334653 -1.29426091331e-06 0)
(0.937567502036 -1.41968409878e-06 0)
(0.937567727887 -1.56848521858e-06 0)
(0.937568029078 -1.74661365964e-06 0)
(0.93756842623 -1.96214611885e-06 0)
(0.937568944802 -2.22684584338e-06 0)
(0.937569618092 -2.55863925988e-06 0)
(0.937570488936 -2.98510673835e-06 0)
(0.937571610403 -3.52715546657e-06 0)
(0.93757305 -4.20729057692e-06 0)
(0.937574893735 -5.05977093303e-06 0)
(0.937577250021 -6.13047096829e-06 0)
(0.937580256985 -7.47797408493e-06 0)
(0.937584089954 -9.1770629835e-06 0)
(0.937588971139 -1.13230382303e-05 0)
(0.937595183542 -1.40364297275e-05 0)
(0.937603088117 -1.74691905973e-05 0)
(0.937613143585 -2.18158195892e-05 0)
(0.937625930813 -2.73283822754e-05 0)
(0.93764218576 -3.43285096954e-05 0)
(0.937662843938 -4.32181553583e-05 0)
(0.937689091705 -5.45007298957e-05 0)
(0.937722432123 -6.88098251344e-05 0)
(0.937764775075 -8.69544182021e-05 0)
(0.937818547098 -0.000109965519339 0)
(0.937886829206 -0.00013915541983 0)
(0.93797353097 -0.000176196809712 0)
(0.938083614952 -0.000223220477222 0)
(0.93822338407 -0.000282937246972 0)
(0.938400844898 -0.000358800575534 0)
(0.938626173884 -0.000455222972372 0)
(0.938912321601 -0.00057785411767 0)
(0.939275784104 -0.000733940783138 0)
(0.939737585309 -0.000932805044274 0)
(0.940324556904 -0.00118648517145 0)
(0.941071021485 -0.00151060355304 0)
(0.942020986387 -0.00192555835849 0)
(0.943231018361 -0.00245816690163 0)
(0.944774076988 -0.00314397111983 0)
(0.946744669923 -0.00403057147461 0)
(0.949265833851 -0.00518253161652 0)
(0.952498714267 -0.00668872719094 0)
(0.956655891137 -0.00867375868652 0)
(0.962020157133 -0.0113163705895 0)
(0.968971209657 -0.0148804398879 0)
(0.978023395682 -0.0197698183978 0)
(0.989877302973 -0.0266302547841 0)
(1.00548357749 -0.0365463365551 0)
(1.02609108374 -0.0514284090326 0)
(1.05314699354 -0.0747390631413 0)
(1.08775614294 -0.11266439455 0)
(1.12906855657 -0.175505605011 0)
(1.16772593869 -0.277023133898 0)
(1.02393098233 0.118569451108 0)
(1.0892578789 0.228011556546 0)
(1.13837478311 0.245437869126 0)
(1.15811250614 0.21687273452 0)
(1.15741330157 0.171812812976 0)
(1.14712526096 0.126481719717 0)
(1.13436791721 0.0880159128326 0)
(1.12276552871 0.0583723551129 0)
(1.11364637303 0.0370385155493 0)
(1.10710692733 0.0225217088016 0)
(1.1027197336 0.0131206249984 0)
(1.09992817008 0.00730414058355 0)
(1.09822989002 0.00385896237668 0)
(1.097237776 0.00190516502611 0)
(1.09668057104 0.000847356603305 0)
(1.09638054799 0.00030524310283 0)
(1.09622720691 4.73746814952e-05 0)
(1.09615415215 -6.05134129243e-05 0)
(1.09612325779 -9.4047768952e-05 0)
(1.09611361522 -9.3708134889e-05 0)
(1.09611371169 -8.01897351596e-05 0)
(1.09611762306 -6.34593634546e-05 0)
(1.09612249068 -4.78677712349e-05 0)
(1.09612705467 -3.49471840247e-05 0)
(1.09613085993 -2.49121218505e-05 0)
(1.09613383327 -1.74348034319e-05 0)
(1.09613606176 -1.20228032099e-05 0)
(1.09613768378 -8.19002729597e-06 0)
(1.09613883897 -5.52129636984e-06 0)
(1.09613964791 -3.68856909862e-06 0)
(1.09614020647 -2.44441774712e-06 0)
(1.09614058711 -1.60844649737e-06 0)
(1.09614084368 -1.05162381135e-06 0)
(1.09614101499 -6.8354259072e-07 0)
(1.09614112806 -4.41965686087e-07 0)
(1.09614120149 -2.84478832796e-07 0)
(1.09614124812 -1.82468389224e-07 0)
(1.09614127693 -1.16642595683e-07 0)
(1.09614129399 -7.41840773487e-08 0)
(1.09614130313 -4.67872091397e-08 0)
(1.09614130681 -2.91010549907e-08 0)
(1.09614130671 -1.76396249952e-08 0)
(1.09614130387 -1.02828256153e-08 0)
(1.09614129893 -5.65307967464e-09 0)
(1.09614129237 -2.7960957196e-09 0)
(1.09614128454 -1.00872858658e-09 0)
(1.09614127571 1.54499842459e-10 0)
(1.09614126606 9.23182917773e-10 0)
(1.09614125568 1.44829513626e-09 0)
(1.09614124456 1.91645980242e-09 0)
(1.09614123265 2.50721344753e-09 0)
(1.09614121988 3.25615035449e-09 0)
(1.0961412062 4.01845254919e-09 0)
(1.09614119159 4.61929733717e-09 0)
(1.09614117606 5.03482366705e-09 0)
(1.09614115968 5.40476606066e-09 0)
(1.0961411425 5.87072227382e-09 0)
(1.09614112451 6.43126321789e-09 0)
(1.09614110566 6.97859221623e-09 0)
(1.09614108586 7.46403895745e-09 0)
(1.09614106508 8.00840563563e-09 0)
(1.09614104332 8.83398056765e-09 0)
(1.09614102052 1.00966078866e-08 0)
(1.09614099654 1.17895158874e-08 0)
(1.09614097123 1.37954654068e-08 0)
(1.09614094449 1.59922268833e-08 0)
(1.09614091636 1.83060621835e-08 0)
(1.09614088691 2.07612692981e-08 0)
(1.09614085614 2.33878875831e-08 0)
(1.09614082402 2.62486432177e-08 0)
(1.09614079053 2.93552470504e-08 0)
(1.09614075567 3.27201580497e-08 0)
(1.0961407195 3.63617726062e-08 0)
(1.09614068208 4.02947155204e-08 0)
(1.09614064347 4.45182504935e-08 0)
(1.09614060366 4.90132574072e-08 0)
(1.09614056263 5.37456782345e-08 0)
(1.09614052031 5.8670561223e-08 0)
(1.09614047661 6.3750659012e-08 0)
(1.09614043154 6.89753121957e-08 0)
(1.09614038516 7.43894926656e-08 0)
(1.0961403376 8.00520923937e-08 0)
(1.09614028891 8.60217550947e-08 0)
(1.09614023914 9.22531318718e-08 0)
(1.09614018808 9.88632184102e-08 0)
(1.09614013571 1.05677553096e-07 0)
(1.09614008215 1.12938937136e-07 0)
(1.09614002741 1.20538436894e-07 0)
(1.09613997188 1.28284587253e-07 0)
(1.09613991583 1.36214637153e-07 0)
(1.09613985918 1.44282047661e-07 0)
(1.09613980193 1.52413430349e-07 0)
(1.09613974431 1.60624363145e-07 0)
(1.09613968681 1.6896147203e-07 0)
(1.0961396299 1.77293560131e-07 0)
(1.09613957378 1.85139086088e-07 0)
(1.09613951862 1.91651605176e-07 0)
(1.09613946534 1.95920204208e-07 0)
(1.09613941554 1.97642678245e-07 0)
(1.09613937079 1.96537005499e-07 0)
(1.09613933262 1.91659457673e-07 0)
(1.09613930268 1.81315713292e-07 0)
(1.09613928305 1.63401614711e-07 0)
(1.0961392768 1.35636620827e-07 0)
(1.09613928816 9.53018210053e-08 0)
(1.09613932271 3.78197247465e-08 0)
(1.09613938717 -4.48633007076e-08 0)
(1.09613948923 -1.56833461432e-07 0)
(1.09613963911 -3.03748264327e-07 0)
(1.0961398505 -4.93140010521e-07 0)
(1.09614014049 -7.34570153922e-07 0)
(1.09614052988 -1.04067282491e-06 0)
(1.09614104455 -1.42786184286e-06 0)
(1.09614171795 -1.91647011323e-06 0)
(1.09614259254 -2.532607488e-06 0)
(1.09614372151 -3.30942869351e-06 0)
(1.09614517293 -4.28933622393e-06 0)
(1.09614703411 -5.52735532643e-06 0)
(1.09614941618 -7.09271594612e-06 0)
(1.09615246037 -9.07257251411e-06 0)
(1.09615634551 -1.15772993955e-05 0)
(1.09616129834 -1.47464326061e-05 0)
(1.09616760818 -1.87561238156e-05 0)
(1.09617564358 -2.3830570467e-05 0)
(1.09618587135 -3.02563564327e-05 0)
(1.09619888263 -3.83995139611e-05 0)
(1.09621542829 -4.87251700847e-05 0)
(1.09623646277 -6.18223007214e-05 0)
(1.0962631948 -7.84364332101e-05 0)
(1.09629715459 -9.95096797851e-05 0)
(1.096340286 -0.000126235447985 0)
(1.09639505901 -0.000160127289595 0)
(1.09646460666 -0.000203108601797 0)
(1.09655290053 -0.000257626581195 0)
(1.09666497991 -0.000326794871239 0)
(1.09680724128 -0.000414576460748 0)
(1.09698779903 -0.000526019824056 0)
(1.09721694844 -0.000667563040015 0)
(1.09750776561 -0.00084743317504 0)
(1.09787686834 -0.00107617545366 0)
(1.09834537939 -0.00136734180289 0)
(1.09894016688 -0.00173839094763 0)
(1.09969544836 -0.00221190779188 0)
(1.10065485703 -0.00281727492552 0)
(1.10187411279 -0.00359294867186 0)
(1.10342448746 -0.00458961285983 0)