/*--------------------------------*- C++ -*----------------------------------*\
| =========                 |                                                 |
| \\      /  F ield         | OpenFOAM: The Open Source CFD Toolbox           |
|  \\    /   O peration     | Version:  2106                                  |
|   \\  /    A nd           | Website:  www.openfoam.com                      |
|    \\/     M anipulation  |                                                 |
\*---------------------------------------------------------------------------*/
FoamFile
{
    version     2.0;
    format      ascii;
    arch        "LSB;label=32;scalar=64";
    class       volScalarField;
    location    "0.11";
    object      p;
}
// * * * * * * * * * * * * * * * * * * * * * * * * * * * * * * * * * * * * * //

dimensions      [0 2 -2 0 0 0 0];

internalField   nonuniform List<scalar> 
9600
(
2.20942624467
-0.688584501081
-1.5928155341
-1.97842577628
-2.19775711696
-2.33770008623
-2.44160482588
-2.52915390363
-2.60865293857
-2.68404264035
-2.75741583325
-2.82992377004
-2.90219607152
-2.97456347135
-3.04718261265
-3.12010938833
-3.19334385841
-3.26685781358
-3.34061114509
-3.41456112052
-3.4886670848
-3.56289466199
-3.63721353679
-3.71159956033
-3.78603347432
-3.86050024398
-3.93498828381
-4.00948863926
-4.08399447349
-4.15850051269
-4.23300250165
-4.30749703834
-4.38198140006
-4.45645316891
-4.53091014906
-4.60535036009
-4.67977179458
-4.75417240246
-4.82855015513
-4.90290286804
-4.97722820888
-5.05152379381
-5.12578704839
-5.20001506195
-5.27420489719
-5.34835332217
-5.42245673699
-5.49651136703
-5.57051318279
-5.6444576958
-5.71834018239
-5.7921556841
-5.86589870612
-5.93956340882
-6.01314359666
-6.08663253906
-6.16002304188
-6.23330755374
-6.30647786151
-6.37952521953
-6.45244044108
-6.52521359323
-6.59783407561
-6.67029085116
-6.74257205054
-6.81466490257
-6.88655606389
-6.95823135659
-7.02967554223
-7.10087260823
-7.17180568169
-7.24245677207
-7.31280694333
-7.3828362154
-7.45252338394
-7.52184620925
-7.59078127077
-7.65930374451
-7.72738767376
-7.79500586337
-7.86212948987
-7.9287283793
-7.99477113559
-8.06022469768
-8.12505435393
-8.18922394749
-8.25269563764
-8.31542986866
-8.37738546185
-8.43851937569
-8.49878677258
-8.55814113252
-8.61653393929
-8.67391477138
-8.73023150673
-8.78542995337
-8.83945385978
-8.89224524544
-8.94374404682
-8.99388796585
-9.04261293628
-9.08985296532
-9.13553989265
-9.17960369036
-9.22197226893
-9.26257145358
-9.30132548568
-9.33815662148
-9.37298488024
-9.40572882872
-9.43630546975
-9.46462941526
-9.49061389195
-9.51417096706
-9.53521068567
-9.55364160755
-9.56937135389
-9.5823059403
-9.5923502048
-9.59940831676
-9.60338295164
-9.60417572475
-9.60168823919
-9.59582114239
-9.58647459053
-9.57354842082
-9.55694105171
-9.5365504664
-9.51227547671
-9.4840144901
-9.45166468677
-9.41512356134
-9.37428865739
-9.32905612769
-9.27932179871
-9.22498059598
-9.1659254126
-9.10204790316
-9.03323689969
-8.95937608893
-8.88034468838
-8.79601698937
-8.70625659944
-8.61091454489
-8.50982910918
-8.40281827883
-8.28967226751
-8.17014630689
-8.04394883765
-7.91072316636
-7.77002073894
-7.6212586061
-7.46364880183
-7.29607301893
-7.1168646207
-6.923491756
-6.71206772555
-6.47669914424
-6.21781645808
-6.00378830421
0.297885570668
-0.884469459567
-1.49314372361
-1.84716778908
-2.08978390452
-2.26034724013
-2.3884188195
-2.49292090894
-2.58399617107
-2.66727439832
-2.74604686235
-2.82226336565
-2.89708338092
-2.97119494067
-3.04500011155
-3.11872561794
-3.19249125484
-3.26635290622
-3.34032930432
-3.41441877511
-3.48860982888
-3.56288609643
-3.63723095389
-3.71162913623
-3.78606701434
-3.86053316324
-3.9350183124
-4.00951489223
-4.08401679719
-4.15851919413
-4.23301805754
-4.30750999548
-4.38199229071
-4.45646254129
-4.53091845233
-4.60535796021
-4.67977903938
-4.75417956732
-4.82855747176
-4.90291057384
-4.97723646318
-5.05153270732
-5.12579669631
-5.20002553781
-5.27421620445
-5.34836556102
-5.42247003401
-5.49652576721
-5.57052876404
-5.64447458583
-5.71835843517
-5.79217538599
-5.86592000929
-5.93958639102
-6.01316837247
-6.08665925492
-6.16005181331
-6.23333851177
-6.3065111949
-6.37956104705
-6.45247888766
-6.5252548785
-6.59787837647
-6.67033830715
-6.74262291015
-6.81471940029
-6.8866143594
-6.95829369009
-7.02974218718
-7.10094378567
-7.1718816384
-7.242537789
-7.31289328891
-7.38292821075
-7.45262134247
-7.52195037968
-7.59089199611
-7.65942142538
-7.72751260539
-7.79513836945
-7.86227000349
-7.92887728858
-7.99492880961
-8.06039155938
-8.12523079613
-8.18941038153
-8.2528925544
-8.31563771575
-8.37760465664
-8.43875040509
-8.49903011317
-8.5583972597
-8.61680337977
-8.6741979775
-8.7305289256
-8.78574219913
-8.83978150885
-8.89258870953
-8.9441038341
-8.99426470355
-9.04300718263
-9.09026524723
-9.13597069613
-9.18005350834
-9.2224417479
-9.26306116758
-9.30183581612
-9.33868809838
-9.37353808266
-9.40630402754
-9.43690282841
-9.46524952366
-9.49125709842
-9.51483749987
-9.53590096083
-9.55435601436
-9.57011029165
-9.58306992802
-9.59313955765
-9.60022338834
-9.6042244715
-9.60504422583
-9.60258408231
-9.59674482362
-9.5874254872
-9.57452604307
-9.55794639611
-9.53758490309
-9.51334040209
-9.48511219903
-9.45279836872
-9.41629682663
-9.37550619253
-9.33032405727
-9.28064765651
-9.22637400053
-9.16739817352
-9.10361440325
-9.03491581188
-8.96119114885
-8.8823244822
-8.79819738164
-8.70868402826
-8.61364706358
-8.51293896487
-8.40639771972
-8.29384061865
-8.17505844753
-8.04980823601
-7.91780247514
-7.77869443844
-7.63205843508
-7.47736606218
-7.31395910497
-7.14102841127
-6.95769853901
-6.76331041798
-6.55730418613
-6.34039188941
-6.13666745054
-0.677956739171
-1.15932468834
-1.55058368806
-1.8421998377
-2.06377293027
-2.23170867598
-2.36381042594
-2.47359863139
-2.56945691153
-2.65660139096
-2.73834329115
-2.81677734331
-2.89322407003
-2.96851296856
-3.0431602503
-3.11748132859
-3.19166334386
-3.26581252922
-3.33998486673
-3.41420588359
-3.48848353327
-3.56281607614
-3.63719592288
-3.71161551939
-3.78606589865
-3.86053880178
-3.93502713813
-4.00952482079
-4.08402662893
-4.15852828376
-4.23302619073
-4.30751716996
-4.38199856358
-4.45646806303
-4.53092341015
-4.605362499
-4.67978330864
-4.75418369502
-4.82856153033
-4.90291465294
-4.97724062504
-5.05153696511
-5.12580114659
-5.20003029396
-5.27422134041
-5.34837110937
-5.42247603031
-5.4965322243
-5.57053572237
-5.64448212311
-5.71836665004
-5.79218429439
-5.86592966914
-5.93959682276
-6.01317958282
-6.08667131375
-6.16006478559
-6.23335242904
-6.30652615457
-6.37957712299
-6.45249610633
-6.52527335687
-6.59789826062
-6.6703596483
-6.74264580697
-6.81474401045
-6.88664073715
-6.958321884
-7.0297723242
-7.10097596734
-7.17191595617
-7.24257439135
-7.31293228152
-7.38296970498
-7.45266551481
-7.5219973384
-7.5909418423
-7.65947437204
-7.72756881312
-7.79519793775
-7.86233315077
-7.92894423895
-7.99499968791
-8.06046653457
-8.12531007168
-8.18949412388
-8.25298097155
-8.31573100828
-8.37770296839
-8.43885394765
-8.49913911176
-8.55851187766
-8.61692385247
-8.67432455423
-8.73066176755
-8.78588154929
-8.83992764833
-8.8927417502
-8.9442638838
-8.99443195408
-9.0431818047
-9.0904474197
-9.13616061372
-9.18025125997
-9.22264752428
-9.26327525935
-9.30205829595
-9.33891908595
-9.37377795664
-9.40655314985
-9.43716172494
-9.46551872762
-9.4915370347
-9.5151283955
-9.53620324168
-9.55467009809
-9.57043651827
-9.58340890816
-9.59349186133
-9.60058936783
-9.60460488482
-9.60544006645
-9.60299625855
-9.59717474164
-9.58787550678
-9.57499823147
-9.55844292876
-9.53810842797
-9.51389338801
-9.48569749359
-9.45341985247
-9.41695892867
-9.37621414412
-9.33108448357
-9.28146851136
-9.22726529085
-9.16837253118
-9.10468660308
-9.03610386446
-8.96251868257
-8.88382054459
-8.79989667884
-8.71063102457
-8.61589868375
-8.51556597802
-8.40948921947
-8.29751075135
-8.17945452514
-8.05512210482
-7.92428773446
-7.78669305512
-7.64204251552
-7.49000406664
-7.33022500655
-7.16237436164
-6.98628557086
-6.80229184885
-6.61140657186
-6.41533410243
-6.22344087382
-1.22941747012
-1.4157630911
-1.65821041705
-1.88067878827
-2.0678690868
-2.22189655383
-2.3503339576
-2.46062436772
-2.55841862085
-2.64777848717
-2.7315494215
-2.811675814
-2.88946530503
-2.9657869855
-3.04121127653
-3.11610683175
-3.19070734163
-3.26515727697
-3.33954292874
-3.41391323375
-3.48829375688
-3.5626957142
-3.6371232474
-3.71157357687
-3.78604365928
-3.86052886826
-3.93502456174
-4.0095264114
-4.08403036805
-4.15853289939
-4.23303096852
-4.30752176208
-4.38200278526
-4.45647186434
-4.5309268432
-4.60536562205
-4.67978620419
-4.75418646714
-4.82856423659
-4.9029173494
-4.9772434132
-5.05153987403
-5.12580418844
-5.20003352749
-5.27422475494
-5.34837476073
-5.4224799758
-5.49653649561
-5.57054028681
-5.64448703246
-5.71837191952
-5.79218989539
-5.86593561485
-5.93960321111
-6.01318644406
-6.08667872296
-6.16007281937
-6.23336106062
-6.30653541666
-6.37958711327
-6.45250682205
-6.52528483543
-6.59791063729
-6.67037294293
-6.74265998877
-6.81475917485
-6.88665695671
-6.95833916155
-7.02979075246
-7.10099562368
-7.17193688348
-7.24259668937
-7.31295601969
-7.38299491735
-7.45269233425
-7.52202587091
-7.59097209971
-7.65950646786
-7.72760290066
-7.79523406488
-7.86237141064
-7.92898478508
-7.9950425862
-8.06051186583
-8.12535799222
-8.18954473663
-8.25303437416
-8.31578733803
-8.37776232473
-8.43891647486
-8.49920499579
-8.55858120902
-8.61699675977
-8.67440127169
-8.73074242075
-8.78596621511
-8.840016538
-8.89283506895
-8.94436179424
-8.99453472696
-9.04328963988
-9.09056053729
-9.13627932566
-9.18037576676
-9.22277796639
-9.26341192696
-9.3022014208
-9.33906880143
-9.37393461117
-9.40671693674
-9.43733243103
-9.46569642198
-9.49172202461
-9.51532088275
-9.53640349522
-9.55487847934
-9.57065326001
-9.58363440946
-9.59372671558
-9.60083391144
-9.6048595546
-9.60570579626
-9.60327379409
-9.59746502457
-9.58817971214
-9.57531749939
-9.55877889766
-9.53846369461
-9.51427083078
-9.48610030982
-9.45385238971
-9.41742643193
-9.37672272893
-9.33164182517
-9.28208374793
-9.22794959769
-9.16914019963
-9.10555467133
-9.03709242439
-8.96365342382
-8.88513370632
-8.80142662635
-8.71242507265
-8.61801680342
-8.51808315176
-8.4124990318
-8.30113140598
-8.18383678787
-8.06045969164
-7.93083187913
-7.79477367432
-7.65209909658
-7.50262598727
-7.34620719741
-7.18278016519
-7.01246615897
-6.83575660511
-6.6535717585
-6.46704353016
-6.27946413174
-1.56676276918
-1.61852565433
-1.76242014032
-1.92671384652
-2.08104659635
-2.21910395709
-2.34125760699
-2.45004596072
-2.54848982226
-2.63931977472
-2.72472733513
-2.80636515866
-2.88543498162
-2.9627886795
-3.03901791525
-3.11452638668
-3.18958475761
-3.26437120393
-3.33900055048
-3.41354492818
-3.48804816202
-3.56253569738
-3.63702166742
-3.71151081329
-3.78600676933
-3.860508795
-3.93501506608
-4.00952332941
-4.08403101409
-4.15853551935
-4.23303446754
-4.30752554709
-4.38200652412
-4.45647538131
-4.53093010883
-4.60536865621
-4.67978905046
-4.75418921425
-4.82856693053
-4.90292001884
-4.97724615262
-5.05154274552
-5.12580721662
-5.20003679882
-5.27422835148
-5.34837854107
-5.42248399211
-5.49654085314
-5.57054500258
-5.64449215955
-5.71837753699
-5.79219602709
-5.86594228837
-5.93961045376
-6.01319422596
-6.08668703904
-6.16008173266
-6.23337060828
-6.30654562415
-6.37959808365
-6.45251861304
-6.52529747913
-6.59792425886
-6.6703876322
-6.74267576269
-6.81477612217
-6.88667517322
-6.95835866333
-7.02981160523
-7.10101791977
-7.17196066883
-7.24262202803
-7.31298301219
-7.38302364737
-7.45272287953
-7.52205831671
-7.59100653368
-7.65954301945
-7.72764170543
-7.79527520149
-7.86241498801
-7.92903096868
-7.99509149823
-8.06056362455
-8.12541275366
-8.18960259898
-8.25309539762
-8.31585163733
-8.37783003872
-8.43898773402
-8.4992799386
-8.55865995647
-8.61707944663
-8.67448808626
-8.73083349157
-8.78606158239
-8.84011630317
-8.89293937663
-8.94447072057
-8.99464831611
-9.04340794427
-9.09068361233
-9.13640735879
-9.18050888651
-9.22291614959
-9.26355529325
-9.30235023343
-9.33922310089
-9.37409456528
-9.40688290894
-9.43750457751
-9.46587486629
-9.4919070661
-9.51551276317
-9.53660248416
-9.5550850078
-9.57086759976
-9.58385684262
-9.59395790315
-9.60107441884
-9.60510984678
-9.60596677553
-9.60354641259
-9.5977502557
-9.58847916136
-9.57563292012
-9.5591119937
-9.53881696401
-9.51464748746
-9.48650380521
-9.4542870572
-9.41789779951
-9.37723737247
-9.33220789997
-9.28271106031
-9.22864973001
-9.1699277922
-9.10644802835
-9.03811305289
-8.96482754987
-8.88649467479
-8.80301501855
-8.71428988659
-8.62021889724
-8.520698319
-8.41562123666
-8.30487762156
-8.18835395854
-8.06593348084
-7.93749753727
-7.80293018463
-7.66212777079
-7.5150114416
-7.36155586528
-7.20182622304
-7.0360285716
-6.8645709191
-6.68799469878
-6.5066396236
-6.32095212372
-1.77083669145
-1.7658584179
-1.84983283797
-1.97062234506
-2.09726542702
-2.21994485355
-2.33484156311
-2.44103782874
-2.53932079241
-2.63110980783
-2.71787068928
-2.80088579425
-2.88118982562
-2.95957651431
-3.03663384454
-3.11278629054
-3.18833397529
-3.26348521805
-3.33838211636
-3.41311981173
-3.48776073436
-3.56234488184
-3.6368969166
-3.71143261481
-3.78595925633
-3.86048141532
-3.93500062863
-4.00951694873
-4.08402948402
-4.15853674267
-4.23303709137
-4.30752878702
-4.3820099332
-4.45647869662
-4.53093324262
-4.60537159772
-4.67979180304
-4.75419183707
-4.82856947526
-4.9029224962
-4.97724862995
-5.05154531388
-5.12580988153
-5.20003958855
-5.27423130647
-5.3483816996
-5.42248736066
-5.4965444953
-5.57054893575
-5.64449635258
-5.71838201705
-5.79220078472
-5.86594730603
-5.93961580665
-6.01320000282
-6.08669328673
-6.16008850891
-6.2333779249
-6.30655345807
-6.37960651412
-6.45252772176
-6.52530725836
-6.59793476222
-6.67039894609
-6.742687864
-6.81478900977
-6.88668893858
-6.95837336489
-7.02982726461
-7.10103459638
-7.17197840743
-7.24264091216
-7.31300313977
-7.38304501887
-7.45274554957
-7.52208244576
-7.59103216602
-7.65957016427
-7.72767050796
-7.79530576768
-7.86244734302
-7.92906521991
-7.99512775994
-8.06060194891
-8.12545323591
-8.18964532795
-8.25314043184
-8.31589911474
-8.37788009561
-8.43904047624
-8.49933554704
-8.55871855866
-8.61714109143
-8.67455295509
-8.73090177214
-8.7861332922
-8.84019153745
-8.89301836749
-8.94455363039
-8.99473530751
-9.04349919509
-9.09077923356
-9.13650754219
-9.1806138352
-9.22302590175
-9.26367001423
-9.30247022167
-9.33934845505
-9.3742252803
-9.407019258
-9.43764674941
-9.46602292566
-9.4920613127
-9.5156734801
-9.53676989516
-9.55525954986
-9.57104960977
-9.58404658622
-9.59415602421
-9.60128164153
-9.60532673498
-9.60619424248
-9.60378554398
-9.5980020414
-9.58874519167
-9.57591525974
-9.55941257669
-9.53913824808
-9.51499287439
-9.48687707471
-9.45469268363
-9.41834145979
-9.37772573631
-9.33274920197
-9.28331551145
-9.22932916198
-9.17069660808
-9.1073246114
-9.03911918698
-8.9659888168
-8.88784328468
-8.80459068945
-8.71614025971
-8.62240217987
-8.52328619032
-8.41870165374
-8.308558799
-8.19276943362
-8.07124763797
-7.94391330247
-7.81069699135
-7.67154986273
-7.5264540446
-7.37544121665
-7.21861673388
-7.05616959509
-6.888373087
-6.71547215377
-6.53738566067
-6.35362378199
-1.89396513497
-1.86850957722
-1.91786808215
-2.00802769164
-2.1129526701
-2.22227481255
-2.33011151892
-2.43333526709
-2.53100908701
-2.62339942567
-2.71127081858
-2.79551479297
-2.87697010893
-2.95634810113
-3.03421595401
-3.11100794661
-3.18704706464
-3.26256800012
-3.33773804895
-3.41267438581
-3.48745762843
-3.56214230266
-3.63676453656
-3.71134806517
-3.78590699985
-3.86045060043
-3.93498373401
-4.00950881648
-4.08402669716
-4.15853707878
-4.23303909221
-4.30753156559
-4.38201299037
-4.45648173831
-4.53093613897
-4.60537432192
-4.67979433313
-4.75419420385
-4.82857174127
-4.90292467623
-4.97725076117
-5.05154750349
-5.12581215725
-5.20004194758
-5.27423381484
-5.34838437868
-5.42249021471
-5.49654756977
-5.57055225541
-5.64449988224
-5.71838579598
-5.79220485827
-5.86595170279
-5.93962059073
-6.01320519829
-6.0866988269
-6.16009442903
-6.23338428641
-6.30656026105
-6.37961380828
-6.45253561394
-6.52531576894
-6.59794390285
-6.67040879312
-6.74269843685
-6.81480030945
-6.88670104045
-6.95838632859
-7.02984111636
-7.1010494024
-7.17199420583
-7.24265772158
-7.31302104034
-7.38306405476
-7.45276573239
-7.522103885
-7.59105496056
-7.65959432171
-7.72769609877
-7.79533290752
-7.86247608681
-7.92909565632
-7.99516000737
-8.06063605876
-8.12548926565
-8.18968336111
-8.25318051242
-8.31594132332
-8.37792453972
-8.43908720206
-8.4993846493
-8.55877018997
-8.61719530616
-8.67460979191
-8.73096134254
-8.78619565032
-8.84025672846
-8.89308651249
-8.94462480715
-8.99480959999
-9.04357676527
-9.0908601533
-9.1365918703
-9.18070178437
-9.22311758157
-9.26376552243
-9.30256977885
-9.33945224146
-9.37433333137
-9.40713174432
-9.43776391775
-9.46614492068
-9.49218839315
-9.51580593938
-9.53690792348
-9.55540354738
-9.5712001028
-9.58420385563
-9.59432059893
-9.60145428083
-9.60550808672
-9.60638512847
-9.60398716894
-9.59821551759
-9.58897194289
-9.57615734364
-9.55967216412
-9.53941779427
-9.51529567704
-9.48720701703
-9.45505436866
-9.41874057884
-9.37816877952
-9.33324413225
-9.28387255335
-9.22996019072
-9.17141540109
-9.10814861197
-9.04006968375
-8.96709050754
-8.8891262753
-8.80609210905
-8.71790464276
-8.6244830984
-8.52574876096
-8.42162497342
-8.31203862358
-8.19692130541
-8.07621078346
-7.94985553332
-7.81781700832
-7.6800797204
-7.53665777772
-7.38760346489
-7.23302202218
-7.07306143594
-6.9078899504
-6.73760464414
-6.56203487206
-6.38066486786
-1.96800671811
-1.93695795959
-1.96688797923
-2.03666006763
-2.12582840779
-2.22470522487
-2.32658429215
-2.42705660993
-2.52398323786
-2.61672947089
-2.70546660665
-2.79073304295
-2.87317817481
-2.95342596455
-3.03201492236
-3.10938164039
-3.18586565479
-3.26172316175
-3.33714300834
-3.41226166854
-3.48717594473
-3.56195341618
-3.63664047273
-3.71126846499
-3.7858575214
-3.86042114139
-3.93496732616
-4.00950067639
-4.08402361999
-4.15853699007
-4.23304063275
-4.30753388223
-4.38201560539
-4.45648437676
-4.53093865915
-4.60537669036
-4.67979653159
-4.7541962248
-4.82857364231
-4.90292649321
-4.97725252348
-5.05154929068
-5.12581402087
-5.20004387499
-5.27423584616
-5.34838657118
-5.42249254969
-5.49655006199
-5.57055492744
-5.64450271298
-5.71838878879
-5.79220807577
-5.86595515516
-5.93962429721
-6.01320920543
-6.08670314606
-6.16009905811
-6.23338928789
-6.3065656384
-6.37961956977
-6.45254185353
-6.52532252026
-6.597951126
-6.67041652818
-6.74270673207
-6.81480915781
-6.88671049446
-6.95839644175
-7.02985190183
-7.10106091102
-7.17200646386
-7.24267072204
-7.31303486229
-7.3830787735
-7.4527813461
-7.52212045753
-7.59107258971
-7.6596130053
-7.72771585733
-7.79535384423
-7.86249826001
-7.92911911831
-7.99518484776
-8.06066230975
-8.12551695659
-8.1897125742
-8.25321130149
-8.31597375825
-8.37795872675
-8.43912318331
-8.49942249336
-8.55881005033
-8.61723723548
-8.67465376526
-8.731007447
-8.78624400071
-8.84030738602
-8.8931395757
-8.944680341
-8.99486765475
-9.04363749647
-9.09092364214
-9.13665810109
-9.1807709134
-9.22318978755
-9.2638407675
-9.30264819906
-9.33953405365
-9.37441856391
-9.40722049709
-9.43785645748
-9.46624137149
-9.49228893991
-9.51591090202
-9.53701747627
-9.55551795581
-9.57131997049
-9.58432961764
-9.59445258656
-9.60159323361
-9.60565469712
-9.60654020599
-9.60415196556
-9.59839125345
-9.5891598852
-9.57635944783
-9.55989075966
-9.53965531346
-9.51555525944
-9.48749254763
-9.45537032337
-9.41909248895
-9.37856319821
-9.33368874763
-9.28437701388
-9.23053612952
-9.17207601376
-9.10890998938
-9.04095204374
-8.96811741888
-8.89032553612
-8.80749772569
-8.719557418
-8.62643158229
-8.52805102856
-8.42435060182
-8.31527047054
-8.20075792525
-8.0807688514
-7.95527122822
-7.82424761511
-7.68770235158
-7.54566720257
-7.39820243377
-7.2454052956
-7.08739816264
-6.92430494916
-6.75619582629
-6.58298830547
-6.40444055147
-2.01023951111
-1.97867641194
-1.99832124574
-2.05576677496
-2.13478002985
-2.22655879338
-2.32417635664
-2.4225639031
-2.5188454933
-2.61177934669
-2.70111186337
-2.78711588301
-2.87029181879
-2.9511910358
-3.03032530713
-3.10812958213
-3.18495399772
-3.26107000326
-3.3366822366
-3.41194159799
-3.48695716964
-3.56180646639
-3.63654370476
-3.71120617103
-3.78581876135
-3.86039798102
-3.93495434629
-4.00949417377
-4.08402108564
-4.15853680297
-4.23304174793
-4.30753562697
-4.38201760425
-4.45648640971
-4.53094060747
-4.60537852716
-4.67979823806
-4.75419777396
-4.82857508161
-4.90292787808
-4.97725387268
-5.05155064926
-5.12581544041
-5.20004535217
-5.27423738787
-5.34838824278
-5.42249433694
-5.49655195123
-5.57055693014
-5.64450482398
-5.71839102012
-5.79221048989
-5.86595776395
-5.93962710308
-6.01321224112
-6.08670640106
-6.1601025226
-6.23339302004
-6.30656967745
-6.37962389749
-6.45254651913
-6.52532757029
-6.59795653343
-6.67042230328
-6.74271292822
-6.81481578838
-6.88671758838
-6.95840403877
-7.02985998977
-7.10106950899
-7.17201562579
-7.24268044723
-7.313045179
-7.38308976886
-7.45279303719
-7.52213284927
-7.59108573913
-7.65962692461
-7.72773056201
-7.7953694231
-7.86251476728
-7.9291365713
-7.9952033075
-8.06068180288
-8.12553748817
-8.1897342217
-8.25323411803
-8.31599775923
-8.37798399432
-8.43914977314
-8.49945040626
-8.55883935997
-8.61726800399
-8.67468596787
-8.73104113773
-8.7862792913
-8.84034432006
-8.89317821889
-8.94472075889
-8.99490986686
-9.04368160696
-9.09096975586
-9.13670623013
-9.18082109496
-9.22324222186
-9.26389547707
-9.30270519714
-9.33959354031
-9.37448063836
-9.40728521569
-9.43792402032
-9.46631193846
-9.49236264824
-9.51598807298
-9.53709830942
-9.55560267189
-9.57140903534
-9.58442358026
-9.59455177214
-9.60169828858
-9.60576642278
-9.60665936629
-9.60427971819
-9.59852893053
-9.58930877237
-9.57652132341
-9.56006795266
-9.53985031352
-9.51577113044
-9.48773309246
-9.45563980148
-9.41939626754
-9.37890791021
-9.33408177813
-9.28482726046
-9.23105483373
-9.17267612409
-9.10960655053
-9.04176381916
-8.96906670295
-8.89143818108
-8.80880475577
-8.72109620454
-8.62824622409
-8.53019331421
-8.42688203697
-8.3182635581
-8.20429770492
-8.08495361075
-7.96021428081
-7.83007832879
-7.6945638326
-7.55371524932
-7.40760122477
-7.25632084451
-7.09999716531
-6.93876162716
-6.77273330864
-6.60198463289
-6.4265797799
-2.02948805071
-1.99839216907
-2.01361611834
-2.06528360871
-2.13934089353
-2.22754234578
-2.32294638629
-2.42021501291
-2.51612704295
-2.60913784838
-2.69877318654
-2.78516384564
-2.86872839427
-2.94997704899
-3.0294055363
-3.10744686904
-3.18445625662
-3.26071303576
-3.33643021426
-3.41176641063
-3.48683734126
-3.5617259096
-3.63649057598
-3.71117181321
-3.78579745386
-3.86038525448
-3.93494721417
-4.00949062274
-4.08401972471
-4.15853673915
-4.23304241975
-4.30753666239
-4.3820187908
-4.45648763747
-4.53094179209
-4.60537964838
-4.67979929823
-4.75419874229
-4.82857597534
-4.90292876995
-4.97725476602
-5.05155154498
-5.12581639112
-5.20004634702
-5.2742384274
-5.34838936904
-5.42249555652
-5.49655321515
-5.57055825788
-5.64450623475
-5.71839251143
-5.79221210838
-5.86595952475
-5.93962897333
-6.01321425105
-6.08670857463
-6.16010482813
-6.23339549573
-6.30657237266
-6.379626775
-6.45254959232
-6.52533090673
-6.59796011437
-6.67042610911
-6.7427170166
-6.8148201879
-6.88672229247
-6.95840905364
-7.02986529788
-7.10107512329
-7.17202161184
-7.24268680631
-7.31305190318
-7.38309693701
-7.45280067789
-7.52214091641
-7.5910942571
-7.65963593968
-7.72774008008
-7.79537949156
-7.86252543532
-7.92914782863
-7.99521516686
-8.0606943059
-8.12555065954
-8.18974810234
-8.2532487307
-8.31601310028
-8.3780001263
-8.43916674971
-8.49946818225
-8.55885794063
-8.61728746815
-8.67470632881
-8.73106240393
-8.78630153333
-8.8403675661
-8.89320249123
-8.94474611725
-8.99493631284
-9.04370919986
-9.09099860435
-9.13673629961
-9.18085241771
-9.22327492491
-9.26392962931
-9.30274076063
-9.33963068222
-9.37451949477
-9.40732580668
-9.43796650895
-9.46635650408
-9.4924094068
-9.51603725863
-9.53715023456
-9.55565749691
-9.57146717682
-9.58448546496
-9.59461780711
-9.60176920033
-9.60584303495
-9.60674229969
-9.60437001057
-9.59862807686
-9.58941812629
-9.57664249852
-9.5602032437
-9.54000226062
-9.51594271415
-9.48792807723
-9.45586243326
-9.4196517071
-9.37920262097
-9.33442302788
-9.28522349472
-9.23151685149
-9.17321675677
-9.11024023581
-9.04250810456
-8.96994277142
-8.89247064464
-8.81002274935
-8.72253422307
-8.6299448701
-8.53220066698
-8.42925431124
-8.32106575714
-8.20760588906
-8.08885533797
-7.96480987117
-7.83548179532
-7.70090226215
-7.56112987898
-7.41624724282
-7.26636926735
-7.1116411986
-6.95223619804
-6.78835505606
-6.62022849533
-6.44816861272
-2.02948820017
-1.99839192032
-2.013615918
-2.06528366592
-2.13934085329
-2.22754223566
-2.32294637307
-2.42021503646
-2.51612707849
-2.60913793243
-2.69877331521
-2.78516399915
-2.86872853673
-2.94997716629
-3.02940564338
-3.10744697243
-3.1844563472
-3.2607131341
-3.33643032816
-3.41176651203
-3.48683741654
-3.56172595669
-3.63649059498
-3.71117183635
-3.7857975097
-3.8603853313
-3.93494731604
-4.00949076503
-4.08401988723
-4.15853691623
-4.233042629
-4.30753689342
-4.38201903728
-4.45648791864
-4.53094209082
-4.60537994956
-4.67979961526
-4.75419906589
-4.82857629006
-4.90292912485
-4.97725517084
-5.05155195983
-5.12581683791
-5.20004684464
-5.27423896044
-5.34838994198
-5.42249617664
-5.49655385275
-5.5705589242
-5.64450695308
-5.71839327723
-5.79221293143
-5.86596042827
-5.93962992401
-6.01321524378
-6.08670965753
-6.16010598521
-6.23339670836
-6.30657368187
-6.37962819262
-6.45255109248
-6.52533251712
-6.59796185253
-6.6704279623
-6.74271900907
-6.81482234197
-6.88672458526
-6.95841147658
-7.02986784049
-7.10107776863
-7.17202440545
-7.24268978782
-7.31305505506
-7.38310028075
-7.45280424249
-7.52214465889
-7.59109816573
-7.65964006473
-7.72774442486
-7.79538405316
-7.8625302406
-7.92915286785
-7.99522044321
-8.06069986457
-8.12555649352
-8.18975419685
-8.25325512173
-8.31601978564
-8.37800709587
-8.43917404064
-8.49947577833
-8.55886580139
-8.61729563746
-8.67471483407
-8.7310712295
-8.78631070352
-8.84037707852
-8.89321233952
-8.94475637304
-8.99494699943
-9.04372025276
-9.0910101306
-9.13674832282
-9.18086486577
-9.22328787386
-9.26394317644
-9.30275491218
-9.33964549189
-9.37453509716
-9.40734224414
-9.43798392249
-9.46637507825
-9.49242916832
-9.5160583975
-9.5371731634
-9.55568238253
-9.57149422728
-9.58451521222
-9.59465069723
-9.60180577667
-9.60588419092
-9.60678882851
-9.60442277581
-9.59868846569
-9.58948770961
-9.57672289692
-9.56029657683
-9.54011109529
-9.51607004931
-9.48807767533
-9.45603858945
-9.41985938314
-9.37944809686
-9.33471375641
-9.28556792315
-9.23192534903
-9.17370197492
-9.11081652036
-9.04319242197
-8.97075571726
-8.8934363735
-8.81116948352
-8.72389521276
-8.63155944058
-8.53411471308
-8.43152116779
-8.32374798129
-8.21077556527
-8.09259611593
-7.96921714354
-7.84066603374
-7.7069880604
-7.56826009393
-7.42458486183
-7.27610338435
-7.12299793615
-6.96549698312
-6.80388738789
-6.6385315347
-6.46991228685
-2.01023984551
-1.97867576193
-1.99832071339
-2.05576688012
-2.13477991158
-2.22655851272
-2.32417631945
-2.42256396757
-2.51884557685
-2.61177959377
-2.70111223804
-2.78711629603
-2.87029222769
-2.95119140615
-3.03032563311
-3.10812987979
-3.18495427957
-3.26107031383
-3.33668257871
-3.41194189238
-3.48695738698
-3.56180660957
-3.6365437684
-3.71120624329
-3.78581893011
-3.86039821967
-3.93495466043
-4.00949459951
-4.08402157378
-4.15853733611
-4.23304236996
-4.30753631237
-4.3820183411
-4.45648724786
-4.53094150165
-4.60537943638
-4.67979919636
-4.75419874226
-4.82857603889
-4.90292895398
-4.9772550744
-5.05155189929
-5.12581679834
-5.20004684939
-5.27423897513
-5.34838995374
-5.42249620593
-5.49655387277
-5.57055893232
-5.64450698497
-5.71839332649
-5.79221297081
-5.86596046809
-5.93962994164
-6.01321523612
-6.08670965906
-6.16010598582
-6.23339666548
-6.30657362661
-6.37962814247
-6.4525510104
-6.52533241295
-6.59796175531
-6.67042786004
-6.74271891455
-6.81482225473
-6.88672445708
-6.95841129315
-7.02986759817
-7.10107744087
-7.17202402824
-7.24268941108
-7.31305464522
-7.38309981692
-7.45280373798
-7.52214407143
-7.59109747476
-7.65963931182
-7.72774360058
-7.79538311812
-7.86252919909
-7.9291517186
-7.99521918589
-8.06069850369
-8.12555497555
-8.18975249562
-8.25325328385
-8.31601779346
-8.37800489997
-8.43917166266
-8.49947320686
-8.5588629682
-8.61729254914
-8.67471149915
-8.7310675901
-8.78630676197
-8.84037284392
-8.8932077791
-8.94475152371
-8.99494187831
-9.04371478231
-9.09100429395
-9.13674220403
-9.18085839491
-9.22328106882
-9.26393614381
-9.3027476289
-9.33963795873
-9.37452743681
-9.40733451047
-9.4379761819
-9.46636754907
-9.49242191512
-9.51605151436
-9.53716698161
-9.55567717371
-9.57149015732
-9.58451274285
-9.59465033697
-9.60180798401
-9.60588980269
-9.60679880067
-9.60443796855
-9.59871012394
-9.58951746248
-9.57676242517
-9.56034796348
-9.54017698821
-9.51615344278
-9.48818226857
-9.45616880639
-9.42002021168
-9.37964575066
-9.33495597487
-9.28586336979
-9.23228414688
-9.17413679626
-9.11134214266
-9.04382598427
-8.97151778127
-8.89435125092
-8.81226578167
-8.72520653336
-8.63312529767
-8.53598105925
-8.4337421832
-8.32638665993
-8.21390513011
-8.09630122879
-7.97359614631
-7.84583226755
-7.71307329713
-7.57541578431
-7.43298894458
-7.28596524778
-7.13456817601
-6.97908208765
-6.81986740419
-6.65738107403
-6.49220807822
-1.96800686602
-1.93695710594
-1.9668873539
-2.03666009066
-2.12582816495
-2.22470487859
-2.32658423267
-2.42705668218
-2.52398339675
-2.61672985992
-2.70546716269
-2.79073368325
-2.87317884235
-2.95342658462
-3.03201548039
-3.10938214867
-3.18586614155
-3.26172368934
-3.33714356433
-3.41226213798
-3.48717629367
-3.5619536548
-3.63664060736
-3.71126861922
-3.78585781294
-3.86042155188
-3.93496786471
-4.00950138161
-4.08402442336
-4.15853787402
-4.23304165495
-4.30753500312
-4.38201682206
-4.4564857488