/*--------------------------------*- C++ -*----------------------------------*\
| =========                 |                                                 |
| \\      /  F ield         | OpenFOAM: The Open Source CFD Toolbox           |
|  \\    /   O peration     | Version:  2106                                  |
|   \\  /    A nd           | Website:  www.openfoam.com                      |
|    \\/     M anipulation  |                                                 |
\*---------------------------------------------------------------------------*/
FoamFile
{
    version     2.0;
    format      ascii;
    arch        "LSB;label=32;scalar=64";
    class       surfaceScalarField;
    location    "0.139";
    object      phi;
}
// * * * * * * * * * * * * * * * * * * * * * * * * * * * * * * * * * * * * * //

dimensions      [0 3 -1 0 0 0 0];

oriented        oriented;

internalField   nonuniform List<scalar> 
799
(
1.61695e-32
4.2334e-32
5.38598e-32
4.13481e-32
1.444e-32
-5.40509e-32
-1.15276e-31
-1.62994e-31
-1.74878e-31
-1.38941e-31
-8.4964e-32
-2.4503e-32
1.21613e-32
2.00993e-32
-3.28781e-33
-4.43124e-32
-9.69962e-32
-1.51137e-31
-1.92891e-31
-2.22285e-31
-2.15527e-31
-1.80785e-31
-1.20953e-31
-5.15051e-32
-1.22266e-32
-4.42475e-33
-4.73756e-32
-1.19275e-31
-1.86839e-31
-2.40686e-31
-2.4478e-31
-2.18716e-31
-1.73614e-31
-1.19787e-31
-9.61075e-32
-8.6226e-32
-1.04608e-31
-1.43678e-31
-1.74714e-31
-2.1255e-31
-2.22644e-31
-2.11269e-31
-1.88889e-31
-1.43239e-31
-1.19038e-31
-1.09754e-31
-1.26652e-31
-1.76578e-31
-2.17474e-31
-2.54683e-31
-2.5751e-31
-2.24539e-31
-1.82205e-31
-1.2872e-31
-1.05096e-31
-1.12016e-31
-1.45855e-31
-2.05651e-31
-2.51736e-31
-2.77541e-31
-2.65006e-31
-2.12468e-31
-1.50948e-31
-9.65762e-32
-8.42986e-32
-1.25558e-31
-1.99847e-31
-2.83831e-31
-3.297e-31
-3.12603e-31
-2.41618e-31
-1.40236e-31
-6.41342e-32
-4.7915e-32
-9.52718e-32
-1.89299e-31
-2.76028e-31
-3.20851e-31
-3.0951e-31
-2.50395e-31
-1.84262e-31
-1.35343e-31
-1.20041e-31
-1.35089e-31
-1.5923e-31
-1.85175e-31
-2.04735e-31
-2.22839e-31
-2.43093e-31
-2.55291e-31
-2.53245e-31
-2.22031e-31
-1.69375e-31
-1.1586e-31
-8.30753e-32
-1.01838e-31
-1.60293e-31
-2.41925e-31
-3.11129e-31
-3.24327e-31
-2.88875e-31
-2.02921e-31
-1.119e-31
-5.8464e-32
-4.92211e-32
-1.06949e-31
-1.85989e-31
-2.59541e-31
-3.03226e-31
-2.8598e-31
-2.4189e-31
-1.7887e-31
-1.31965e-31
-1.23118e-31
-1.34294e-31
-1.64644e-31
-1.81213e-31
-1.78442e-31
-1.65425e-31
-1.51251e-31
-1.60886e-31
-1.9109e-31
-2.32328e-31
-2.6285e-31
-2.61123e-31
-2.2614e-31
-1.66458e-31
-1.0668e-31
-6.85444e-32
-6.2859e-32
-9.24771e-32
-1.44521e-31
-2.0515e-31
-2.60136e-31
-2.91663e-31
-2.94054e-31
-2.59988e-31
-1.95493e-31
-1.2139e-31
-5.62439e-32
-3.05815e-32
-5.27646e-32
-1.15585e-31
-1.99385e-31
-2.63825e-31
-2.89913e-31
-2.66007e-31
-2.0534e-31
-1.42176e-31
-9.8424e-32
-9.71873e-32
-1.31297e-31
-1.77827e-31
-2.14431e-31
-2.14455e-31
-1.81036e-31
-1.29698e-31
-8.74177e-32
-8.40232e-32
-1.23458e-31
-1.93942e-31
-2.60128e-31
-2.86387e-31
-2.54776e-31
-1.73847e-31
-8.37202e-32
-2.4834e-32
-3.1917e-32
-9.75514e-32
-1.86608e-31
-2.56428e-31
-2.62335e-31
-2.14909e-31
-1.36361e-31
-7.25444e-32
-6.49415e-32
-9.96661e-32
-1.67243e-31
-2.15483e-31
-2.1622e-31
-1.78487e-31
-1.0596e-31
-5.48694e-32
-3.97184e-32
-6.69953e-32
-1.3248e-31
-1.86468e-31
-2.20848e-31
-2.10992e-31
-1.61655e-31
-1.03925e-31
-4.55021e-32
-1.98762e-32
-2.56999e-32
-5.44128e-32
-9.99926e-32
-1.34497e-31
-1.55486e-31
-1.55885e-31
-1.34739e-31
-1.04595e-31
-6.53139e-32
-2.76263e-32
-1.01036e-33
1.05136e-32
-3.51247e-33
-3.78031e-32
-7.85072e-32
-1.09154e-31
-1.06019e-31
-6.54485e-32
-4.62392e-34
6.39665e-32
9.25801e-32
7.20393e-32
1.25607e-32
-5.3984e-32
-8.20777e-32
-4.64789e-32
4.61802e-32
1.59657e-31
2.37473e-31
2.39213e-31
1.64883e-31
4.85568e-32
-4.28158e-32
-5.37846e-32
2.78368e-32
1.79329e-31
3.29266e-31
4.14362e-31
4.0671e-31
3.11401e-31
1.93843e-31
1.13648e-31
1.12792e-31
2.03815e-31
3.38541e-31
4.71138e-31
5.53092e-31
5.60188e-31
5.1706e-31
4.52783e-31
4.12499e-31
4.24941e-31
4.87373e-31
5.82792e-31
6.76934e-31
7.4081e-31
7.6504e-31
7.63904e-31
7.61594e-31
7.88679e-31
8.5591e-31
9.44512e-31
1.03254e-30
1.08393e-30
1.09125e-30
1.07915e-30
1.0754e-30
1.12364e-30
1.23164e-30
1.37362e-30
1.51702e-30
1.61508e-30
1.65551e-30
1.6608e-30
1.65862e-30
1.69108e-30
1.7726e-30
1.88556e-30
2.01743e-30
2.13754e-30
2.2391e-30
2.33617e-30
2.42609e-30
2.52712e-30
2.63233e-30
2.7321e-30
2.83665e-30
2.93824e-30
3.05333e-30
3.18373e-30
3.31813e-30
3.45562e-30
3.58298e-30
3.71119e-30
3.8567e-30
4.03139e-30
4.23704e-30
4.45002e-30
4.63923e-30
4.78034e-30
4.881e-30
4.97313e-30
5.10847e-30
5.32202e-30
5.6074e-30
5.93114e-30
6.22712e-30
6.45712e-30
6.61871e-30
6.74417e-30
6.90105e-30
7.12384e-30
7.42439e-30
7.77209e-30
8.11135e-30
8.41613e-30
8.67264e-30
8.91187e-30
9.17309e-30
9.4743e-30
9.82446e-30
1.01917e-29
1.05509e-29
1.08898e-29
1.12081e-29
1.15397e-29
1.19022e-29
1.23069e-29
1.27478e-29
1.319e-29
1.36196e-29
1.40221e-29
1.44092e-29
1.48161e-29
1.52573e-29
1.57553e-29
1.62939e-29
1.68412e-29
1.73775e-29
1.78703e-29
1.83377e-29
1.88044e-29
1.93009e-29
1.98695e-29
2.0498e-29
2.11735e-29
2.18522e-29
2.24814e-29
2.30464e-29
2.35498e-29
2.39948e-29
2.46e-29
2.53146e-29
2.68561e-29
2.9461e-29
3.32584e-29
4.03168e-29
4.31816e-29
4.61504e-29
2.92599e-29
-1.33098e-29
-6.45014e-29
-1.6991e-28
-1.60363e-28
-9.9382e-29
1.88828e-28
8.33251e-28
1.19881e-27
1.84149e-27
1.08009e-27
-7.37587e-28
-3.01268e-27
-7.51887e-27
-7.18907e-27
-5.90654e-27
1.77301e-27
1.69012e-26
2.2693e-26
3.3074e-26
1.66737e-26
-1.35855e-26
-4.09817e-26
-9.04698e-26
-7.12965e-26
-4.21688e-26
3.15964e-26
1.54651e-25
1.62762e-25
1.92024e-25
5.43379e-26
-1.45573e-25
-2.41536e-25
-4.15684e-25
-2.36497e-25
-3.16162e-26
2.19181e-25
5.89223e-25
4.55184e-25
3.83062e-25
-3.70566e-26
-5.43975e-25
-5.80022e-25
-7.54224e-25
-2.5455e-25
2.23656e-25
5.06876e-25
9.1532e-25
5.06886e-25
2.23671e-25
-2.54537e-25
-7.5422e-25
-5.80027e-25
-5.43987e-25
-3.70707e-26
3.83053e-25
4.55182e-25
5.89227e-25
2.19189e-25
-3.16105e-26
-2.36495e-25
-4.15686e-25
-2.41541e-25
-1.45578e-25
5.43342e-26
1.92022e-25
1.62762e-25
1.54651e-25
3.15966e-26
-4.21691e-26
-7.12973e-26
-9.04706e-26
-4.09827e-26
-1.35864e-26
1.66727e-26
3.30729e-26
2.2692e-26
1.69002e-26
1.77219e-27
-5.90728e-27
-7.18972e-27
-7.51947e-27
-3.01331e-27
-7.3823e-28
1.07939e-27
1.84076e-27
1.19807e-27
8.32524e-28
1.88174e-28
-9.99565e-29
-1.60837e-28
-1.70317e-28
-6.49078e-29
-1.37605e-29
2.87036e-29
4.55117e-29
4.25108e-29
3.96875e-29
3.27574e-29
2.9097e-29
2.66127e-29
2.51194e-29
2.43649e-29
2.36758e-29
2.31209e-29
2.25422e-29
2.19623e-29
2.13726e-29
2.07925e-29
2.02313e-29
1.97032e-29
1.92004e-29
1.86996e-29
1.81798e-29
1.76268e-29
1.70495e-29
1.64836e-29
1.59561e-29
1.54938e-29
1.50897e-29
1.47145e-29
1.43425e-29
1.39376e-29
1.35022e-29
1.30438e-29
1.25829e-29
1.21511e-29
1.17543e-29
1.14062e-29
1.10956e-29
1.08025e-29
1.05098e-29
1.01907e-29
9.84029e-30
9.46859e-30
9.09813e-30
8.76317e-30
8.48618e-30
8.26089e-30
8.06868e-30
7.86633e-30
7.61883e-30
7.32718e-30
6.99806e-30
6.68267e-30
6.4172e-30
6.21212e-30
6.07206e-30
5.94511e-30
5.80041e-30
5.61058e-30
5.36255e-30
5.0958e-30
4.83586e-30
4.6243e-30
4.48275e-30
4.39301e-30
4.33092e-30
4.24711e-30
4.10468e-30
3.89825e-30
3.64792e-30
3.40387e-30
3.22111e-30
3.12429e-30
3.10522e-30
3.11685e-30
3.09396e-30
2.99727e-30
2.81736e-30
2.59267e-30
2.38084e-30
2.22972e-30
2.16016e-30
2.14932e-30
2.15969e-30
2.14311e-30
2.07971e-30
1.97021e-30
1.83285e-30
1.70374e-30
1.59431e-30
1.52396e-30
1.4824e-30
1.45474e-30
1.43255e-30
1.38667e-30
1.32753e-30
1.24848e-30
1.16615e-30
1.10625e-30
1.05906e-30
1.04223e-30
1.0238e-30
9.87642e-31
9.35126e-31
8.50449e-31
7.7704e-31
7.23923e-31
7.02955e-31
7.20983e-31
7.33988e-31
7.34764e-31
7.01119e-31
6.34178e-31
5.67498e-31
5.05666e-31
4.69703e-31
4.51521e-31
4.30989e-31
4.12467e-31
3.89184e-31
3.81902e-31
4.03953e-31
4.38618e-31
4.71316e-31
4.57572e-31
3.78779e-31
2.56034e-31
1.21452e-31
4.88991e-32
7.16807e-32
1.81111e-31
3.39152e-31
4.49324e-31
4.61245e-31
3.55036e-31
1.61463e-31
-1.82339e-32
-1.21173e-31
-9.28576e-32
5.19384e-32
2.27189e-31
3.6541e-31
3.83672e-31
2.78658e-31
1.06874e-31
-6.79582e-32
-1.5015e-31
-1.22372e-31
-7.01272e-33
1.43001e-31
2.38596e-31
2.5635e-31
1.88942e-31
7.36036e-32
-2.50175e-32
-8.70739e-32
-8.71747e-32
-4.64127e-32
5.70105e-33
5.99288e-32
8.92879e-32
1.03856e-31
1.00215e-31
7.69215e-32
4.67136e-32
3.11685e-33
-3.49498e-32
-6.29313e-32
-7.40584e-32
-6.22252e-32
-3.77287e-32
-5.41668e-35
3.57651e-32
6.6691e-32
8.06321e-32
7.13768e-32
4.25239e-32
-9.00664e-33
-5.61063e-32
-9.41415e-32
-1.04817e-31
-8.18671e-32
-4.71063e-32
3.42304e-33
3.80937e-32
5.49718e-32
5.65441e-32
3.02394e-32
2.1125e-33
-3.60495e-32
-6.99502e-32
-8.49049e-32
-8.85537e-32
-6.31199e-32
-2.64827e-32
1.2356e-32
4.36118e-32
4.65466e-32
3.04896e-32
-4.96303e-33
-4.39202e-32
-7.06724e-32
-8.19543e-32
-7.01997e-32
-4.42768e-32
-1.18896e-32
1.58438e-32
2.91342e-32
2.33421e-32
3.12061e-33
-2.16426e-32
-4.06191e-32
-4.0744e-32
-3.20694e-32
-1.81621e-32
-1.36164e-32
-2.6456e-32
-3.73495e-32
-4.40421e-32
-2.371e-32
1.58934e-32
4.94663e-32
6.3834e-32
2.94803e-32
-3.16591e-32
-9.36453e-32
-1.23499e-31
-9.10506e-32
-1.99108e-32
6.51656e-32
1.13877e-31
9.99649e-32
3.60284e-32
-5.31512e-32
-1.1147e-31
-1.16549e-31
-6.58758e-32
1.46634e-32
7.4632e-32
9.28163e-32
5.57336e-32
-1.00389e-32
-6.45803e-32
-8.4848e-32
-5.245e-32
7.13543e-33
6.29192e-32
8.7891e-32
6.09843e-32
3.27559e-33
-6.0605e-32
-9.97193e-32
-8.83566e-32
-3.86177e-32
3.30854e-32
9.59715e-32
1.18708e-31
1.01275e-31
4.5543e-32
-2.58105e-32
-8.16519e-32
-1.12409e-31
-1.01031e-31
-5.47859e-32
8.13597e-33
7.76789e-32
1.2321e-31
1.3567e-31
1.08672e-31
4.18973e-32
-3.59788e-32
-1.06117e-31
-1.36872e-31
-1.11167e-31
-3.95387e-32
5.93713e-32
1.40489e-31
1.70773e-31
1.36795e-31
4.84326e-32
-5.12327e-32
-1.1954e-31
-1.25256e-31
-6.4843e-32
2.95427e-32
1.14205e-31
1.50246e-31
1.19913e-31
4.42264e-32
-4.02745e-32
-9.28178e-32
-8.38457e-32
-2.65184e-32
5.60024e-32
1.21381e-31
1.33593e-31
9.94758e-32
2.5569e-32
-4.28364e-32
-7.12827e-32
-5.85708e-32
3.78867e-33
6.88413e-32
1.11776e-31
1.20371e-31
7.79972e-32
2.68727e-32
-2.14043e-32
-4.37577e-32
-2.41494e-32
8.98115e-33
5.40863e-32
8.48372e-32
9.04179e-32
8.22839e-32
5.78734e-32
3.58511e-32
2.27516e-32
1.54887e-32
1.74882e-32
1.98901e-32
1.8036e-32
1.91605e-32
1.92187e-32
2.89672e-32
5.1733e-32
7.5589e-32
1.04683e-31
1.13183e-31
9.9145e-32
6.39537e-32
5.81447e-33
-3.79122e-32
-6.38051e-32
-4.9026e-32
4.3845e-33
6.84529e-32
1.31675e-31
1.5515e-31
1.3988e-31
8.79819e-32
2.42441e-32
-2.48637e-32
-4.5476e-32
-2.42885e-32
6.32623e-33
5.50199e-32
7.5334e-32
7.58967e-32
6.88038e-32
2.39186e-32
1.4446e-32
-1.81075e-32
-2.43929e-32
-4.54961e-33
)
;

boundaryField
{
    left
    {
        type            calculated;
        value           uniform 0;
    }
    right
    {
        type            calculated;
        value           uniform 0;
    }
    empty
    {
        type            empty;
        value           nonuniform List<scalar> 0();
    }
}


// ************************************************************************* //
