/*--------------------------------*- C++ -*----------------------------------*\
| =========                 |                                                 |
| \\      /  F ield         | OpenFOAM: The Open Source CFD Toolbox           |
|  \\    /   O peration     | Version:  2106                                  |
|   \\  /    A nd           | Website:  www.openfoam.com                      |
|    \\/     M anipulation  |                                                 |
\*---------------------------------------------------------------------------*/
FoamFile
{
    version     2.0;
    format      ascii;
    arch        "LSB;label=32;scalar=64";
    class       volVectorField;
    location    "0.21";
    object      U;
}
// * * * * * * * * * * * * * * * * * * * * * * * * * * * * * * * * * * * * * //

dimensions      [0 1 -1 0 0 0 0];

internalField   nonuniform List<vector> 
9600
(
(0.67539618494 0.157677433364 0)
(0.563826159846 0.102430803632 0)
(0.381538928205 0.051064695218 0)
(0.283853190192 0.0244589898142 0)
(0.232281031553 0.0119348223773 0)
(0.201907708667 0.00623035814497 0)
(0.183178405481 0.00352192674225 0)
(0.171271984551 0.0021200751746 0)
(0.163512238361 0.00132523584413 0)
(0.15839265801 0.000841456806097 0)
(0.155010698214 0.000534135179365 0)
(0.152789982327 0.000335038254561 0)
(0.151348696284 0.000205520175016 0)
(0.15042925084 0.000121792138298 0)
(0.1498564655 6.84347103686e-05 0)
(0.149511130124 3.51740873986e-05 0)
(0.149312520662 1.50868487698e-05 0)
(0.149206469812 3.50305443723e-06 0)
(0.149157087829 -2.70795766427e-06 0)
(0.149140977237 -5.61221410874e-06 0)
(0.1491432609 -6.5273860884e-06 0)
(0.149154658552 -6.41782303674e-06 0)
(0.149169599333 -5.78196874927e-06 0)
(0.149184972597 -4.92842727447e-06 0)
(0.149199143963 -4.04281186198e-06 0)
(0.149211392719 -3.223830255e-06 0)
(0.149221531286 -2.51534363892e-06 0)
(0.149229659035 -1.9284830978e-06 0)
(0.149236013395 -1.45781441027e-06 0)
(0.149240880315 -1.09082198617e-06 0)
(0.149244541375 -8.1124866071e-07 0)
(0.149247249957 -6.020048893e-07 0)
(0.149249223504 -4.47820966589e-07 0)
(0.149250641342 -3.36106628064e-07 0)
(0.149251646265 -2.56468526443e-07 0)
(0.149252348824 -2.00199045739e-07 0)
(0.149252833039 -1.60330796834e-07 0)
(0.149253161686 -1.31714311736e-07 0)
(0.149253380956 -1.10869110944e-07 0)
(0.14925352391 -9.47085478048e-08 0)
(0.149253615158 -8.15941972949e-08 0)
(0.149253673619 -7.26806548428e-08 0)
(0.149253709799 -6.96518663388e-08 0)
(0.149253729088 -7.06072557757e-08 0)
(0.149253737444 -7.33196296859e-08 0)
(0.149253739918 -7.77035537026e-08 0)
(0.149253738841 -8.37474612237e-08 0)
(0.149253735607 -9.10887185221e-08 0)
(0.149253731859 -9.93295029623e-08 0)
(0.149253728332 -1.0858510843e-07 0)
(0.149253724899 -1.18864156654e-07 0)
(0.149253721348 -1.29570686137e-07 0)
(0.149253717679 -1.39890197329e-07 0)
(0.149253714904 -1.5044941312e-07 0)
(0.149253713482 -1.62238393548e-07 0)
(0.149253712077 -1.74864939039e-07 0)
(0.14925371019 -1.88020496697e-07 0)
(0.149253708279 -2.02003954489e-07 0)
(0.149253705792 -2.16555949469e-07 0)
(0.149253702334 -2.31678802087e-07 0)
(0.149253698679 -2.48485991374e-07 0)
(0.149253694855 -2.67385024738e-07 0)
(0.14925368984 -2.87366961296e-07 0)
(0.149253683884 -3.07859485002e-07 0)
(0.149253677892 -3.29175396577e-07 0)
(0.149253671662 -3.51663806067e-07 0)
(0.149253665108 -3.75885361227e-07 0)
(0.14925365839 -4.02136517877e-07 0)
(0.149253651386 -4.30335835828e-07 0)
(0.149253644193 -4.60515506901e-07 0)
(0.14925363643 -4.92117908456e-07 0)
(0.149253628028 -5.24661197692e-07 0)
(0.149253620108 -5.58867342615e-07 0)
(0.14925361315 -5.95390941498e-07 0)
(0.149253606456 -6.33947197489e-07 0)
(0.149253599789 -6.74556172223e-07 0)
(0.14925359318 -7.17529182228e-07 0)
(0.149253585734 -7.62338555856e-07 0)
(0.149253577422 -8.08901184151e-07 0)
(0.149253569619 -8.58175755522e-07 0)
(0.149253562698 -9.10325838039e-07 0)
(0.149253556482 -9.64824169633e-07 0)
(0.149253551133 -1.02157747478e-06 0)
(0.149253546083 -1.08078985049e-06 0)
(0.149253540985 -1.1429288751e-06 0)
(0.149253536212 -1.20793374537e-06 0)
(0.14925353187 -1.27495409036e-06 0)
(0.149253528673 -1.34446798937e-06 0)
(0.149253526539 -1.41773266828e-06 0)
(0.149253523033 -1.49413743948e-06 0)
(0.149253517626 -1.57286575856e-06 0)
(0.149253512917 -1.65468241235e-06 0)
(0.149253509908 -1.739799135e-06 0)
(0.149253507722 -1.82744182834e-06 0)
(0.149253506707 -1.91769875897e-06 0)
(0.149253507428 -2.01111422824e-06 0)
(0.149253509297 -2.10751897788e-06 0)
(0.149253512909 -2.20656775409e-06 0)
(0.149253520163 -2.3078535838e-06 0)
(0.149253531508 -2.41066289416e-06 0)
(0.149253546863 -2.51527840975e-06 0)
(0.149253567044 -2.62254544328e-06 0)
(0.149253592618 -2.73156026185e-06 0)
(0.149253625691 -2.84163036456e-06 0)
(0.149253670296 -2.95387337491e-06 0)
(0.149253728971 -3.0690213535e-06 0)
(0.14925380369 -3.18708456266e-06 0)
(0.149253898809 -3.30856431829e-06 0)
(0.149254019476 -3.43415867073e-06 0)
(0.149254169445 -3.56588465168e-06 0)
(0.149254356294 -3.71105669829e-06 0)
(0.149254591082 -3.87072421399e-06 0)
(0.149254884584 -4.04181678319e-06 0)
(0.149255250895 -4.22462598386e-06 0)
(0.149255705967 -4.41901149386e-06 0)
(0.149256269228 -4.62337726777e-06 0)
(0.14925696717 -4.8372922571e-06 0)
(0.149257832784 -5.06333932489e-06 0)
(0.149258907594 -5.30643949723e-06 0)
(0.149260240602 -5.56808761566e-06 0)
(0.14926189146 -5.84810813649e-06 0)
(0.149263935338 -6.15025094957e-06 0)
(0.149266469144 -6.48523134316e-06 0)
(0.149269626243 -6.88033391018e-06 0)
(0.14927356562 -7.41243611865e-06 0)
(0.149278429175 -8.15492444128e-06 0)
(0.149284413567 -9.04617538336e-06 0)
(0.14929181365 -1.00611765842e-05 0)
(0.149300978743 -1.1204036836e-05 0)
(0.149312328227 -1.24854940694e-05 0)
(0.149326384158 -1.39244476614e-05 0)
(0.149343794489 -1.55496950117e-05 0)
(0.149365358738 -1.73956719457e-05 0)
(0.149392068945 -1.95047320826e-05 0)
(0.149425157472 -2.19304365113e-05 0)
(0.149466151774 -2.47371419019e-05 0)
(0.149516953122 -2.80090556173e-05 0)
(0.149579927933 -3.18565498345e-05 0)
(0.149658013531 -3.64161288206e-05 0)
(0.149754868105 -4.18574538252e-05 0)
(0.149875061519 -4.8396835828e-05 0)
(0.15002430743 -5.63104630531e-05 0)
(0.150209763619 -6.59529788318e-05 0)
(0.150440424262 -7.77820155799e-05 0)
(0.150727628016 -9.23813068374e-05 0)
(0.151085738882 -0.000110504764578 0)
(0.151533052862 -0.000133139284746 0)
(0.152093021864 -0.000161576495728 0)
(0.152795961557 -0.000197521288415 0)
(0.153681463185 -0.000243247912832 0)
(0.154801910054 -0.000301823450448 0)
(0.156227897436 -0.000377535599399 0)
(0.158057386245 -0.000477108945035 0)
(0.160434026239 -0.000614122936035 0)
(0.163590757454 -0.00082605848541 0)
(0.167959436767 -0.00123734410674 0)
(0.17450941769 -0.00228978677561 0)
(0.186131199417 -0.00563203897335 0)
(0.211632108454 -0.0175441911604 0)
(0.267929078338 -0.0614259461559 0)
(0.97720117536 0.296997120773 0)
(0.962687466246 0.250387266048 0)
(0.820646031656 0.158581013949 0)
(0.697824895208 0.0957993491253 0)
(0.61049166906 0.0579132763857 0)
(0.549133314707 0.0359038525034 0)
(0.506705984161 0.0229309372278 0)
(0.477662019275 0.0149788786837 0)
(0.457815298641 0.0099097314984 0)
(0.444277674305 0.00658330975988 0)
(0.435087226863 0.00436198682038 0)
(0.428895559141 0.00286682543552 0)
(0.424768043695 0.00185971938747 0)
(0.422054236585 0.00118457231319 0)
(0.420301056334 0.00073611160861 0)
(0.419193683687 0.000442160151354 0)
(0.418514613783 0.000252859877418 0)
(0.418114836947 0.000133737479764 0)
(0.417893377831 6.10498193011e-05 0)
(0.417782734453 1.8575449205e-05 0)
(0.417738476808 -4.63565082706e-06 0)
(0.417731940007 -1.60104361952e-05 0)
(0.417745157096 -2.0306313213e-05 0)
(0.417767181821 -2.06092414443e-05 0)
(0.417791631589 -1.88557923443e-05 0)
(0.417815045481 -1.62209993007e-05 0)
(0.417835765054 -1.33840842167e-05 0)
(0.417853197296 -1.07070330127e-05 0)
(0.417867345422 -8.35793210324e-06 0)
(0.417878517096 -6.39340781084e-06 0)
(0.417887144139 -4.80718431906e-06 0)
(0.417893679662 -3.56002582603e-06 0)
(0.417898546937 -2.59988263842e-06 0)
(0.417902116232 -1.87364425988e-06 0)
(0.417904696796 -1.33283413607e-06 0)
(0.4179065375 -9.35616844157e-07 0)
(0.417907832713 -6.47506190184e-07 0)
(0.417908730967 -4.41146369758e-07 0)
(0.417909344795 -2.95659377264e-07 0)
(0.417909757022 -1.9402882836e-07 0)
(0.417910027179 -1.2318279083e-07 0)
(0.417910199775 -7.61166464326e-08 0)
(0.417910307156 -4.85499187473e-08 0)
(0.417910370718 -3.37920779054e-08 0)
(0.417910404635 -2.59447593578e-08 0)
(0.417910419558 -2.2389019135e-08 0)
(0.417910423041 -2.0900158707e-08 0)
(0.417910420126 -1.94267273874e-08 0)
(0.417910413998 -1.84190459416e-08 0)
(0.41791040598 -1.87071199929e-08 0)
(0.41791039711 -2.05859066972e-08 0)
(0.417910388366 -2.31114111534e-08 0)
(0.417910379276 -2.45723120364e-08 0)
(0.417910369973 -2.48777209578e-08 0)
(0.417910362005 -2.57329847079e-08 0)
(0.417910354867 -2.75480264741e-08 0)
(0.417910347125 -3.0100914028e-08 0)
(0.417910338891 -3.37134432444e-08 0)
(0.417910329772 -3.74686112634e-08 0)
(0.417910318581 -4.00018228564e-08 0)
(0.417910306193 -4.22565044524e-08 0)
(0.41791029437 -4.56941997269e-08 0)
(0.417910282655 -4.97284236581e-08 0)
(0.417910270048 -5.35909001232e-08 0)
(0.417910256526 -5.77941630849e-08 0)
(0.417910241525 -6.23790567804e-08 0)
(0.417910224932 -6.69047868978e-08 0)
(0.417910207456 -7.1110391456e-08 0)
(0.41791018946 -7.49616639034e-08 0)
(0.417910171791 -7.93840770079e-08 0)
(0.417910154472 -8.47128478142e-08 0)
(0.417910136009 -8.98090255619e-08 0)
(0.417910116203 -9.47347971063e-08 0)
(0.417910096161 -1.00174085916e-07 0)
(0.417910075922 -1.05593756685e-07 0)
(0.417910055383 -1.10774816104e-07 0)
(0.417910035323 -1.16848165615e-07 0)
(0.417910014878 -1.23916228704e-07 0)
(0.417909992456 -1.31050880599e-07 0)
(0.41790996906 -1.38151459441e-07 0)
(0.417909946486 -1.45115986307e-07 0)
(0.417909925108 -1.51974381691e-07 0)
(0.417909904359 -1.59822589143e-07 0)
(0.417909882791 -1.69065429037e-07 0)
(0.417909860257 -1.79225564682e-07 0)
(0.417909838718 -1.89633815873e-07 0)
(0.417909818256 -1.98820269708e-07 0)
(0.417909798208 -2.07270780012e-07 0)
(0.417909779711 -2.17790364261e-07 0)
(0.417909761503 -2.30341236753e-07 0)
(0.417909741128 -2.42700753622e-07 0)
(0.417909720475 -2.54921390715e-07 0)
(0.417909702978 -2.67849797648e-07 0)
(0.417909689229 -2.81133371679e-07 0)
(0.417909679001 -2.95527757997e-07 0)
(0.417909672735 -3.1269750313e-07 0)
(0.417909670128 -3.32096552005e-07 0)
(0.417909672491 -3.52234884238e-07 0)
(0.417909683765 -3.73791296395e-07 0)
(0.417909705951 -3.98945922063e-07 0)
(0.417909739571 -4.28733402949e-07 0)
(0.41790978765 -4.64610326802e-07 0)
(0.417909853189 -5.06245512579e-07 0)
(0.417909938745 -5.5200500393e-07 0)
(0.417910050406 -6.02255685471e-07 0)
(0.417910196336 -6.57860284011e-07 0)
(0.41791038443 -7.19299946574e-07 0)
(0.417910624465 -7.88474647056e-07 0)
(0.41791092744 -8.66904820088e-07 0)
(0.417911300852 -9.50465623484e-07 0)
(0.41791176551 -1.03051562583e-06 0)
(0.417912355592 -1.11182455591e-06 0)
(0.417913099969 -1.20319800441e-06 0)
(0.417914032108 -1.31252127378e-06 0)
(0.417915196511 -1.44665795384e-06 0)
(0.417916646711 -1.60984927101e-06 0)
(0.417918447724 -1.80691018196e-06 0)
(0.417920680106 -2.04622220089e-06 0)
(0.417923450582 -2.3428388793e-06 0)
(0.417926891833 -2.71338141402e-06 0)
(0.417931159742 -3.17484769354e-06 0)
(0.417936442623 -3.75010152825e-06 0)
(0.417942975674 -4.4723455347e-06 0)
(0.417951042567 -5.39190027802e-06 0)
(0.417961004107 -6.60398047763e-06 0)
(0.417973370089 -8.21984540367e-06 0)
(0.41798874851 -1.02677332935e-05 0)
(0.418007831281 -1.28169002985e-05 0)
(0.418031493417 -1.59778977069e-05 0)
(0.418060821193 -1.98873994109e-05 0)
(0.418097160008 -2.47175185305e-05 0)
(0.418142182565 -3.06874420629e-05 0)
(0.418197962924 -3.80667207826e-05 0)
(0.418267071279 -4.71875024126e-05 0)
(0.418352699383 -5.84643582197e-05 0)
(0.418458804633 -7.24068020744e-05 0)
(0.418590299864 -8.96489632875e-05 0)
(0.418753301063 -0.000110989687061 0)
(0.418955416128 -0.000137427566062 0)
(0.41920611518 -0.000170210089201 0)
(0.419517214713 -0.000210906225851 0)
(0.419903486025 -0.000261499887118 0)
(0.420383432034 -0.000324513514764 0)
(0.420980303523 -0.000403174212053 0)
(0.421723420047 -0.000501627056706 0)
(0.422649919218 -0.000625249449605 0)
(0.423807121892 -0.000781102122093 0)
(0.425255761869 -0.000978565069613 0)
(0.427074526131 -0.00123031640893 0)
(0.429366654837 -0.00155389841726 0)
(0.432269914085 -0.00197436747455 0)
(0.435972473435 -0.0025292697295 0)
(0.440739854807 -0.0032792060402 0)
(0.446964526259 -0.00433319495393 0)
(0.455263759832 -0.00591599757114 0)
(0.466667124993 -0.00855418303469 0)
(0.482969140598 -0.0135924814039 0)
(0.507627939907 -0.0246848381218 0)
(0.547392840673 -0.0520531128046 0)
(0.606694227476 -0.120563636312 0)
(1.03387038778 0.239240965858 0)
(1.08314082052 0.293634377011 0)
(1.03294437827 0.239131934067 0)
(0.954408207364 0.174539021118 0)
(0.880112585139 0.121551464556 0)
(0.818677614738 0.0832335947007 0)
(0.771466789088 0.0568258138895 0)
(0.736691568419 0.0388125732291 0)
(0.711672096436 0.0264913168594 0)
(0.693953123807 0.0180235760021 0)
(0.681568197496 0.0121876203703 0)
(0.673018598594 0.00816650346762 0)
(0.667192232525 0.00540556577729 0)
(0.663277752364 0.00352226281784 0)
(0.660690316254 0.0022496121132 0)
(0.659012741993 0.00140002791892 0)
(0.65795053294 0.000841455650097 0)
(0.657298077592 0.000481122191701 0)
(0.656913532708 0.000254192795177 0)
(0.656700341652 0.000115709649514 0)
(0.656593734288 3.47958935041e-05 0)
(0.656551021652 -9.46464640335e-06 0)
(0.656544679573 -3.10080204455e-05 0)
(0.656557378402 -3.90717161384e-05 0)
(0.656578562132 -3.95442603196e-05 0)
(0.656602084708 -3.61165653987e-05 0)
(0.656624613773 -3.10277617513e-05 0)
(0.656644551553 -2.55679508778e-05 0)
(0.65666132621 -2.04239831736e-05 0)
(0.656674941231 -1.59157318731e-05 0)
(0.656685691805 -1.2148298694e-05 0)
(0.656693992304 -9.10625208193e-06 0)
(0.656700279536 -6.71363435973e-06 0)
(0.656704962043 -4.87102289357e-06 0)
(0.656708396405 -3.47737934372e-06 0)
(0.656710879469 -2.4406942e-06 0)
(0.656712649575 -1.68179888987e-06 0)
(0.656713892913 -1.13490637223e-06 0)
(0.656714753633 -7.47552356944e-07 0)
(0.656715340812 -4.78403995815e-07 0)
(0.656715733648 -2.94071194691e-07 0)
(0.656715990968 -1.69950765093e-07 0)
(0.656716156428 -8.89566593158e-08 0)
(0.656716259511 -3.78959673455e-08 0)
(0.656716319913 -6.2432248068e-09 0)
(0.65671635283 1.29847375918e-08 0)
(0.656716369151 2.41905006922e-08 0)
(0.656716374104 3.07514511046e-08 0)
(0.656716370792 3.44933648421e-08 0)
(0.656716362199 3.69325823821e-08 0)
(0.656716351015 3.91806130599e-08 0)
(0.656716339921 4.12543551625e-08 0)
(0.65671632932 4.40736192278e-08 0)
(0.65671631835 4.85922587499e-08 0)
(0.65671630754 5.37601794667e-08 0)
(0.656716296776 5.83941462518e-08 0)
(0.656716284902 6.27627413288e-08 0)
(0.656716272606 6.64775350804e-08 0)
(0.656716260861 6.95462079872e-08 0)
(0.656716248222 7.37958934004e-08 0)
(0.656716233665 8.01411594718e-08 0)
(0.656716218452 8.71881598421e-08 0)
(0.656716203042 9.40793123922e-08 0)
(0.656716186626 1.01106649085e-07 0)
(0.656716169177 1.08051648869e-07 0)
(0.656716150816 1.14870118283e-07 0)
(0.656716131676 1.22227623574e-07 0)
(0.656716111927 1.30712932922e-07 0)
(0.656716090767 1.40764717044e-07 0)
(0.656716068241 1.51651723954e-07 0)
(0.656716045622 1.62255870426e-07 0)
(0.656716022604 1.72834482101e-07 0)
(0.65671599828 1.84311636693e-07 0)
(0.656715973367 1.96569857511e-07 0)
(0.656715948212 2.09953765608e-07 0)
(0.65671592224 2.2517876244e-07 0)
(0.656715895861 2.41205381029e-07 0)
(0.656715869096 2.56706806325e-07 0)
(0.656715841085 2.72481085568e-07 0)
(0.656715812575 2.89841087386e-07 0)
(0.656715784594 3.09086094579e-07 0)
(0.656715756536 3.29637507934e-07 0)
(0.656715727968 3.50006035364e-07 0)
(0.656715698779 3.6995590006e-07 0)
(0.656715669121 3.90829433287e-07 0)
(0.656715640867 4.12915980972e-07 0)
(0.656715614346 4.36765779619e-07 0)
(0.65671558765 4.63326600479e-07 0)
(0.656715561427 4.90909084508e-07 0)
(0.656715536602 5.17831416398e-07 0)
(0.656715511481 5.4560855981e-07 0)
(0.656715486276 5.75645603216e-07 0)
(0.656715463934 6.07393834711e-07 0)
(0.656715445755 6.40596126447e-07 0)
(0.656715431524 6.74530224216e-07 0)
(0.656715422482 7.07224234966e-07 0)
(0.656715419973 7.38975594025e-07 0)
(0.656715424711 7.7233802231e-07 0)
(0.656715438761 8.08042733996e-07 0)
(0.656715465748 8.46210905038e-07 0)
(0.65671550884 8.85913549618e-07 0)
(0.656715571989 9.24343441159e-07 0)
(0.656715660592 9.58693594873e-07 0)
(0.656715780318 9.88920137251e-07 0)
(0.656715939309 1.01490247248e-06 0)
(0.656716147821 1.03493514182e-06 0)
(0.65671641641 1.04711492136e-06 0)
(0.65671675944 1.04834028253e-06 0)
(0.656717199497 1.03352818112e-06 0)
(0.656717764027 1.00027675014e-06 0)
(0.656718475002 9.5278525709e-07 0)
(0.656719355994 8.8317028748e-07 0)
(0.65672044646 7.78733279018e-07 0)
(0.656721799842 6.27280910799e-07 0)
(0.656723481261 4.12257921791e-07 0)
(0.656725570544 1.14430355241e-07 0)
(0.656728165212 -2.8840683863e-07 0)
(0.656731381706 -8.20493174244e-07 0)
(0.656735367112 -1.51423298961e-06 0)
(0.656740307204 -2.41581131999e-06 0)
(0.65674642882 -3.58075445239e-06 0)
(0.656754009137 -5.07290619376e-06 0)
(0.656763396161 -6.97219970063e-06 0)
(0.656775022968 -9.37846523084e-06 0)
(0.656789416961 -1.2403576652e-05 0)
(0.656807238053 -1.61937740205e-05 0)
(0.65682930217 -2.09700145445e-05 0)
(0.656856616343 -2.69873692455e-05 0)
(0.656890441256 -3.45585096167e-05 0)
(0.656932334679 -4.40699979801e-05 0)
(0.656984220071 -5.5997243922e-05 0)
(0.657048483062 -7.093053393e-05 0)
(0.657128081661 -8.96029809886e-05 0)
(0.657226680488 -0.000112922557576 0)
(0.657348829117 -0.00014202121708 0)
(0.657500172991 -0.000178303479946 0)
(0.657687715148 -0.000223510484665 0)
(0.657920161492 -0.00027981714951 0)
(0.658208340909 -0.000349946560103 0)
(0.658565730266 -0.000437307685178 0)
(0.659009129803 -0.000546180400602 0)
(0.659559516582 -0.000681966322785 0)
(0.660243132445 -0.000851512393894 0)
(0.661092901885 -0.00106355117573 0)
(0.662150264961 -0.00132930020748 0)
(0.663467583512 -0.0016632940006 0)
(0.665111380101 -0.00208458458736 0)
(0.667166729695 -0.00261849596202 0)
(0.669743351188 -0.00329929824237 0)
(0.672984328748 -0.00417449283611 0)
(0.67707899526 -0.00531206842511 0)
(0.682282645834 -0.00681364026229 0)
(0.688947786047 -0.00884004417524 0)
(0.69757525756 -0.0116646589717 0)
(0.708898875611 -0.0157907305367 0)
(0.724010694312 -0.0222152912883 0)
(0.744487652787 -0.0330020349788 0)
(0.772470632116 -0.0524509204118 0)
(0.810197792013 -0.0893090812913 0)
(0.853896274653 -0.158383203143 0)
(1.03384128116 0.171306951243 0)
(1.10231585077 0.275556745038 0)
(1.11663621187 0.266312372253 0)
(1.09207924794 0.219892604901 0)
(1.05195419962 0.168210317831 0)
(1.01022221412 0.123615336738 0)
(0.973507715087 0.0888850607624 0)
(0.943885941944 0.0630494628608 0)
(0.921162795446 0.0442607976215 0)
(0.904299820004 0.0307744340319 0)
(0.892086133983 0.0211830157391 0)
(0.883411235327 0.0144172999526 0)
(0.877355067782 0.00968544395159 0)
(0.873196224523 0.0064075893013 0)
(0.87038807532 0.00416172512771 0)
(0.868526270984 0.00264232196293 0)
(0.867317312985 0.00162947629198 0)
(0.866551598361 0.000966023178853 0)
(0.866081670737 0.000540570297686 0)
(0.865805313756 0.000274924264969 0)
(0.865652740422 0.000114789053793 0)
(0.865577109384 2.29541380124e-05 0)
(0.865547497537 -2.5726607542e-05 0)
(0.865543960826 -4.80468608288e-05 0)
(0.865554009354 -5.49274226994e-05 0)
(0.865570012084 -5.33289042251e-05 0)
(0.865587548101 -4.75755869094e-05 0)
(0.865604237456 -4.02489455836e-05 0)
(0.865618950572 -3.28027716386e-05 0)
(0.865631296696 -2.59850279574e-05 0)
(0.86564129737 -2.0118016591e-05 0)
(0.865649180743 -1.52774260138e-05 0)
(0.865655258759 -1.14062682073e-05 0)
(0.865659857087 -8.38536161788e-06 0)
(0.865663278008 -6.07564099489e-06 0)
(0.865665784146 -4.34128721832e-06 0)
(0.865667593568 -3.06028525744e-06 0)
(0.865668880626 -2.12813733117e-06 0)
(0.865669782757 -1.45946772231e-06 0)
(0.865670406781 -9.87462369324e-07 0)
(0.865670831452 -6.59164461798e-07 0)
(0.865671114325 -4.33645267255e-07 0)
(0.865671298831 -2.81920280934e-07 0)
(0.865671416099 -1.82686299923e-07 0)
(0.86567148689 -1.19004940816e-07 0)
(0.865671526146 -7.89325232153e-08 0)
(0.865671545119 -5.53289810964e-08 0)
(0.865671551223 -4.33385037848e-08 0)
(0.865671549395 -3.82347227673e-08 0)
(0.865671542597 -3.64224106966e-08 0)
(0.865671532205 -3.53762158718e-08 0)
(0.86567152048 -3.50473402873e-08 0)
(0.865671508844 -3.64400568399e-08 0)
(0.865671496433 -3.871535068e-08 0)
(0.865671483408 -4.20288876378e-08 0)
(0.865671470225 -4.71153044252e-08 0)
(0.865671455561 -5.31075632447e-08 0)
(0.865671439126 -5.90115984557e-08 0)
(0.86567142257 -6.5841346844e-08 0)
(0.865671405746 -7.36104011265e-08 0)
(0.865671387266 -8.0790867134e-08 0)
(0.865671367667 -8.72456795411e-08 0)
(0.8656713477 -9.39499572939e-08 0)
(0.865671326705 -1.0109459271e-07 0)
(0.865671304177 -1.08655533494e-07 0)
(0.865671279814 -1.16788905006e-07 0)
(0.865671253923 -1.25455899442e-07 0)
(0.865671227427 -1.34816341711e-07 0)
(0.865671199828 -1.4417132602e-07 0)
(0.865671170748 -1.52580381169e-07 0)
(0.865671141094 -1.60901879119e-07 0)
(0.865671110874 -1.70242678817e-07 0)
(0.865671079216 -1.80080756755e-07 0)
(0.865671046474 -1.90450021564e-07 0)
(0.865671013359 -2.01651625539e-07 0)
(0.865670979245 -2.12859786662e-07 0)
(0.865670944021 -2.23789454775e-07 0)
(0.865670907971 -2.35400929938e-07 0)
(0.865670870711 -2.48043063789e-07 0)
(0.865670832896 -2.61638110153e-07 0)
(0.865670795328 -2.76431800966e-07 0)
(0.86567075704 -2.91971687192e-07 0)
(0.865670717483 -3.0811363618e-07 0)
(0.865670677122 -3.25236393715e-07 0)
(0.865670636132 -3.42824686463e-07 0)
(0.865670596253 -3.61458278118e-07 0)
(0.865670558829 -3.82136638037e-07 0)
(0.865670521887 -4.0355137859e-07 0)
(0.865670484684 -4.25384338549e-07 0)
(0.865670448574 -4.49629351857e-07 0)
(0.865670413023 -4.76417466505e-07 0)
(0.865670378029 -5.04498264238e-07 0)
(0.86567034658 -5.34584542183e-07 0)
(0.86567032035 -5.67760299902e-07 0)
(0.865670298464 -6.04256695759e-07 0)
(0.865670282136 -6.4531955422e-07 0)
(0.865670274587 -6.91970538634e-07 0)
(0.865670278349 -7.43375899096e-07 0)
(0.865670297316 -7.99444184963e-07 0)
(0.86567033441 -8.61065067801e-07 0)
(0.865670389714 -9.29269699564e-07 0)
(0.865670466468 -1.0051219109e-06 0)
(0.865670571686 -1.09111133727e-06 0)
(0.865670712931 -1.18907754694e-06 0)
(0.865670899701 -1.30187556551e-06 0)
(0.865671144483 -1.43466932106e-06 0)
(0.865671460662 -1.59167042652e-06 0)
(0.865671863697 -1.77667581982e-06 0)
(0.865672374819 -1.99784917161e-06 0)
(0.865673019972 -2.26913669092e-06 0)
(0.865673829371 -2.60889088943e-06 0)
(0.86567484277 -3.0311199168e-06 0)
(0.865676109191 -3.54911055285e-06 0)
(0.865677687017 -4.18055075885e-06 0)
(0.865679648919 -4.95089941042e-06 0)
(0.86568208612 -5.89409175078e-06 0)
(0.865685113151 -7.05443121484e-06 0)
(0.865688868803 -8.48334657118e-06 0)
(0.865693523834 -1.02415738898e-05 0)
(0.865699292803 -1.2409142419e-05 0)
(0.865706442466 -1.50857739811e-05 0)
(0.865715299037 -1.83908200383e-05 0)
(0.865726266864 -2.24745362084e-05 0)
(0.865739850677 -2.75307273695e-05 0)
(0.865756670353 -3.37987757046e-05 0)
(0.865777497203 -4.15696890865e-05 0)
(0.865803285472 -5.11981353563e-05 0)
(0.865835210971 -6.31153485943e-05 0)
(0.865874737943 -7.78642678267e-05 0)
(0.865923681315 -9.61256569059e-05 0)
(0.865984285649 -0.000118742006175 0)
(0.866059333263 -0.000146759072023 0)
(0.866152273522 -0.000181478545636 0)
(0.866267376739 -0.000224514876411 0)
(0.866409941447 -0.000277878555173 0)
(0.866586545368 -0.000344072656651 0)
(0.866805344777 -0.000426208550015 0)
(0.867076466149 -0.000528166890988 0)
(0.86741249477 -0.00065480036636 0)
(0.867829080828 -0.000812185490007 0)
(0.868345706125 -0.00100795063739 0)
(0.868986655174 -0.00125171274226 0)
(0.869782244732 -0.00155563999775 0)
(0.870770405954 -0.00193521566153 0)
(0.871998720665 -0.0024102787608 0)
(0.873527056189 -0.00300644699168 0)
(0.875431047416 -0.00375715361334 0)
(0.877806735202 -0.0047066153841 0)
(0.880776827444 -0.0059142807271 0)
(0.88449932582 -0.00746179567857 0)
(0.88917960948 -0.00946444077828 0)
(0.895087541245 -0.0120908166845 0)
(0.902581602401 -0.015598458573 0)
(0.912141725297 -0.0204009604458 0)
(0.924408902082 -0.0271976506896 0)
(0.940209894189 -0.0372234832265 0)
(0.960480138083 -0.0526971989302 0)
(0.985913799029 -0.077489834487 0)
(1.0158895419 -0.117773292964 0)
(1.04440674651 -0.180856138742 0)
(1.0238834574 0.119321987199 0)
(1.08875436499 0.231514423775 0)
(1.13660483625 0.252868939878 0)
(1.15406272981 0.228905048641 0)
(1.15000112637 0.188337386988 0)
(1.13537623721 0.146577291706 0)
(1.11757777389 0.110164820387 0)
(1.10059199123 0.0808376071469 0)
(1.08612240588 0.0582502013053 0)
(1.07458761313 0.0413417862501 0)
(1.06578679239 0.0289362840543 0)
(1.05928156467 0.0199770217667 0)
(1.05459132872 0.0135949321016 0)
(1.05128027352 0.00910742922493 0)
(1.04898736899 0.00599313421487 0)
(1.04742906032 0.00386144097191 0)
(1.04639046667 0.00242413480986 0)
(1.04571299757 0.00147134561579 0)
(1.04528206571 0.0008521330951 0)
(1.04501638412 0.000459260477121 0)
(1.04485926268 0.000217487076786 0)
(1.044771835 7.47156535115e-05 0)
(1.04472785532 -4.64796222623e-06 0)
(1.04470999032 -4.44474328053e-05 0)
(1.04470706524 -6.05381112357e-05 0)
(1.04471198824 -6.30959663723e-05 0)
(1.04472042738 -5.85461473362e-05 0)
(1.04472986763 -5.08130350998e-05 0)
(1.04473894169 -4.21821971849e-05 0)
(1.04474698835 -3.38953558516e-05 0)
(1.04475376741 -2.65507710544e-05 0)
(1.04475927448 -2.03646126342e-05 0)
(1.04476362542 -1.53393410644e-05 0)
(1.04476698625 -1.13688124808e-05 0)
(1.0447695325 -8.30149429401e-06 0)
(1.04477142869 -5.97693117328e-06 0)
(1.04477281913 -4.24487741426e-06 0)
(1.04477382332 -2.97361302345e-06 0)
(1.04477453732 -2.05320955305e-06 0)
(1.04477503817 -1.39666565019e-06 0)
(1.04477538461 -9.35692846678e-07 0)
(1.04477561942 -6.16157226556e-07 0)
(1.04477577515 -3.97615200563e-07 0)
(1.04477587635 -2.50850536509e-07 0)
(1.04477593955 -1.53695771596e-07 0)
(1.04477597625 -8.98466527092e-08 0)
(1.04477599512 -4.83381814952e-08 0)
(1.04477600185 -2.20704264651e-08 0)
(1.04477600056 -6.29142837228e-09 0)
(1.04477599427 2.61782164906e-09 0)
(1.04477598417 7.84574259539e-09 0)
(1.04477597128 1.16231188239e-08 0)
(1.04477595763 1.41730130096e-08 0)
(1.04477594334 1.56079244675e-08 0)
(1.04477592766 1.61268586539e-08 0)
(1.04477591131 1.52211247381e-08 0)
(1.04477589443 1.40957388141e-08 0)
(1.04477587627 1.40325468617e-08 0)
(1.04477585726 1.42728381457e-08 0)
(1.04477583804 1.36652861979e-08 0)
(1.04477581788 1.30284652282e-08 0)
(1.04477579644 1.32523164292e-08 0)
(1.0447757739 1.36922264686e-08 0)
(1.04477574992 1.38172339441e-08 0)
(1.0447757244 1.37830157967e-08 0)
(1.04477569735 1.39763124605e-08 0)
(1.04477566867 1.48028333445e-08 0)
(1.04477563919 1.57471188303e-08 0)
(1.04477560922 1.68123614449e-08 0)
(1.04477557759 1.92633108457e-08 0)
(1.04477554412 2.26735176651e-08 0)
(1.04477550964 2.58911748984e-08 0)
(1.04477547388 2.91254993669e-08 0)
(1.04477543665 3.26469152344e-08 0)
(1.04477539872 3.59046775323e-08 0)
(1.04477536004 3.92058952441e-08 0)
(1.04477532028 4.32426086752e-08 0)
(1.04477527945 4.77865742869e-08 0)
(1.04477523692 5.25569413055e-08 0)
(1.04477519296 5.72947188664e-08 0)
(1.04477514891 6.12909963463e-08 0)
(1.04477510446 6.50229300004e-08 0)
(1.0447750587 6.94131701239e-08 0)
(1.04477501199 7.41834787174e-08 0)
(1.04477496425 7.95529414123e-08 0)
(1.04477491621 8.53423880343e-08 0)
(1.04477487007 9.01402480887e-08 0)
(1.0447748254 9.42778819986e-08 0)
(1.04477478027 9.87182671141e-08 0)
(1.04477473528 1.0244948851e-07 0)
(1.04477469118 1.05104963931e-07 0)
(1.04477464766 1.07784051146e-07 0)
(1.0447746065 1.09514877835e-07 0)
(1.04477456995 1.08177999342e-07 0)
(1.04477453765 1.03680858172e-07 0)
(1.04477451031 9.60412849814e-08 0)
(1.04477449131 8.37354741522e-08 0)
(1.04477448296 6.55244332937e-08 0)
(1.04477448688 3.9824711413e-08 0)
(1.04477450672 1.88401661445e-09 0)
(1.04477454661 -5.11570033038e-08 0)
(1.04477461073 -1.19797731898e-07 0)
(1.0447747057 -2.06297252137e-07 0)
(1.04477483907 -3.13867277529e-07 0)
(1.04477501936 -4.47473417572e-07 0)
(1.04477525919 -6.153348988e-07 0)
(1.0447755742 -8.25604429405e-07 0)
(1.04477598134 -1.08600356355e-06 0)
(1.04477650183 -1.40753149065e-06 0)
(1.04477716234 -1.80476897911e-06 0)
(1.04477799345 -2.29389813542e-06 0)
(1.04477903465 -2.89634331392e-06 0)
(1.04478033738 -3.64064474761e-06 0)
(1.04478196445 -4.55881116546e-06 0)
(1.04478399193 -5.68994671892e-06 0)
(1.04478651223 -7.0838090822e-06 0)
(1.04478964271 -8.80462765342e-06 0)
(1.04479353007 -1.09306921331e-05 0)
(1.04479835268 -1.35539373723e-05 0)
(1.04480433133 -1.67905769667e-05 0)
(1.04481174342 -2.07885860905e-05 0)
(1.04482092989 -2.57287974112e-05 0)
(1.04483230993 -3.18344264796e-05 0)
(1.04484640593 -3.93864754481e-05 0)
(1.04486386092 -4.87330384363e-05 0)
(1.04488547406 -6.030483618e-05 0)
(1.04491223739 -7.46335171592e-05 0)
(1.04494537279 -9.23702634514e-05 0)
(1.0449863955 -0.000114323915519 0)
(1.04503718613 -0.000141501815084 0)
(1.04510007342 -0.000175150867481 0)
(1.04517794101 -0.000216817052261 0)
(1.04527436341 -0.000268423742216 0)
(1.04539376397 -0.000332355245958 0)
(1.04554162558 -0.000411573913422 0)
(1.04572475268 -0.00050976788809 0)
(1.04595157845 -0.000631525683751 0)
(1.04623256044 -0.000782564978593 0)
(1.04658067854 -0.000970023988732 0)
(1.04701205094 -0.0012028326799 0)
(1.0475467013 -0.00149218781776 0)
(1.04820953026 -0.00185217619753 0)
(1.04903153134 -0.0023005821709 0)
(1.05005132814 -0.00285996460473 0)
(1.05131713731 -0.00355911707134 0)
(1.05288925118 -0.00443504647469 0)