/*--------------------------------*- C++ -*----------------------------------*\
| =========                 |                                                 |
| \\      /  F ield         | OpenFOAM: The Open Source CFD Toolbox           |
|  \\    /   O peration     | Version:  2106                                  |
|   \\  /    A nd           | Website:  www.openfoam.com                      |
|    \\/     M anipulation  |                                                 |
\*---------------------------------------------------------------------------*/
FoamFile
{
    version     2.0;
    format      ascii;
    arch        "LSB;label=32;scalar=64";
    class       volVectorField;
    location    "0.425";
    object      U;
}
// * * * * * * * * * * * * * * * * * * * * * * * * * * * * * * * * * * * * * //

dimensions      [0 1 -1 0 0 0 0];

internalField   nonuniform List<vector> 
11200
(
(0.662462404688 0.150569443706 0)
(0.558948673151 0.103243389168 0)
(0.383850734535 0.0513512250454 0)
(0.283747591764 0.0248708561221 0)
(0.232075266019 0.0124170460772 0)
(0.201908581902 0.00662281764437 0)
(0.183197927196 0.00380291516096 0)
(0.171276481681 0.00231587072783 0)
(0.163510298101 0.00146450714705 0)
(0.158388760063 0.000944892960673 0)
(0.155006619937 0.000615177421187 0)
(0.152786663228 0.000402234348714 0)
(0.151346510911 0.000264232796746 0)
(0.150428271028 0.000175250760121 0)
(0.149856663134 0.00011836127426 0)
(0.149512457408 8.21605055553e-05 0)
(0.149314891769 5.88663024859e-05 0)
(0.149209524128 4.3316039602e-05 0)
(0.149159658578 3.29350257501e-05 0)
(0.149142411992 2.81866561515e-05 0)
(0.149144560407 2.76847095766e-05 0)
(0.149156828138 2.98904895436e-05 0)
(0.149172441368 3.30509441784e-05 0)
(0.149187980017 3.59665431835e-05 0)
(0.149202179242 3.86019997667e-05 0)
(0.149214438774 4.1041017675e-05 0)
(0.149224590746 4.33182627475e-05 0)
(0.149232742038 4.5464858041e-05 0)
(0.149239129537 4.75200583792e-05 0)
(0.149244035596 4.95309368019e-05 0)
(0.149247745683 5.15595795976e-05 0)
(0.149250527447 5.36971280806e-05 0)
(0.14925257806 5.60258491095e-05 0)
(0.14925406763 5.84072475985e-05 0)
(0.149255128295 6.0768360862e-05 0)
(0.149255846015 6.30895905408e-05 0)
(0.149256317259 6.53811889853e-05 0)
(0.149256625487 6.76559257218e-05 0)
(0.149256824225 6.99254776289e-05 0)
(0.14925694274 7.21960113966e-05 0)
(0.149257002316 7.44685514072e-05 0)
(0.149257020771 7.67441107541e-05 0)
(0.149257010855 7.90224272219e-05 0)
(0.149256981942 8.13022581591e-05 0)
(0.149256940381 8.35820143501e-05 0)
(0.149256890652 8.58594578439e-05 0)
(0.149256836767 8.81316446666e-05 0)
(0.149256782218 9.03955504527e-05 0)
(0.149256730828 9.26480669266e-05 0)
(0.149256687271 9.48862245869e-05 0)
(0.149256658058 9.71068109359e-05 0)
(0.149256652869 9.93067801093e-05 0)
(0.149256685105 0.00010148317847 0)
(0.14925677341 0.000103632649334 0)
(0.149256944168 0.000105750798395 0)
(0.149257234182 0.000107832007717 0)
(0.149257695264 0.00010986892417 0)
(0.149258403557 0.000111851793107 0)
(0.149259468725 0.000113768009933 0)
(0.149261049185 0.000115592273088 0)
(0.14926339328 0.000117268526034 0)
(0.149266909329 0.000118714775699 0)
(0.14927206305 0.000119971660241 0)
(0.149279502822 0.000121233705652 0)
(0.149290263391 0.000122966057161 0)
(0.149305867178 0.000125341600881 0)
(0.149328702848 0.000128121363304 0)
(0.149362466126 0.000131080553023 0)
(0.149412750771 0.000134004515733 0)
(0.149487786639 0.000136780704865 0)
(0.149599508745 0.000140689642191 0)
(0.149770759378 0.00015155939736 0)
(0.150039298948 0.000172279991005 0)
(0.150468270292 0.000202520913746 0)
(0.151193463365 0.000232436516833 0)
(0.152492492697 0.000191634863491 0)
(0.155021444037 -0.00021675153292 0)
(0.1623744636 -0.00210986373596 0)
(0.187701339245 -0.0107874608484 0)
(0.204353551368 -0.0496544256119 0)
(0.965408254276 0.289214708283 0)
(0.96196285456 0.252656041228 0)
(0.823574378672 0.159021442798 0)
(0.698139348106 0.0959957323835 0)
(0.610225435175 0.0582481153045 0)
(0.548971454515 0.0362148543315 0)
(0.506588842502 0.0231612862063 0)
(0.477567212928 0.0151375162998 0)
(0.457745425901 0.010017756047 0)
(0.444228385272 0.00665814199772 0)
(0.435053213891 0.00441555703598 0)
(0.428873024532 0.00290686654066 0)
(0.424754099356 0.00189105899848 0)
(0.422046540375 0.00121004575441 0)
(0.420297694014 0.000757163600565 0)
(0.41919307555 0.000459255725964 0)
(0.418515461098 0.000265854256791 0)
(0.418116305159 0.000142398730732 0)
(0.417895693059 6.61084366318e-05 0)
(0.417786633972 2.30908922149e-05 0)
(0.417745212094 1.40603123786e-06 0)
(0.4177419285 -1.01645766205e-05 0)
(0.417756520896 -1.3715666718e-05 0)
(0.417778474811 -1.32688035709e-05 0)
(0.417802764697 -1.08363038591e-05 0)
(0.417826130929 -7.49299735208e-06 0)
(0.417846879942 -3.87644680232e-06 0)
(0.41786441302 -3.56804922931e-07 0)
(0.417878734252 2.8644383076e-06 0)
(0.417890159365 5.68342378805e-06 0)
(0.417899160612 8.03589975206e-06 0)
(0.41790623124 9.83722823281e-06 0)
(0.41791157307 1.10058562017e-05 0)
(0.417915420358 1.18583072275e-05 0)
(0.417918150425 1.26804264296e-05 0)
(0.417920037605 1.34373165211e-05 0)
(0.417921323683 1.41113984906e-05 0)
(0.417922199938 1.47266556991e-05 0)
(0.41792279263 1.53121571457e-05 0)
(0.417923173335 1.5881392103e-05 0)
(0.417923395169 1.64346324578e-05 0)
(0.417923502107 1.69771371382e-05 0)
(0.417923525202 1.75126865082e-05 0)
(0.417923487674 1.80444102973e-05 0)
(0.417923406094 1.85755828084e-05 0)
(0.417923292187 1.91088578964e-05 0)
(0.41792315639 1.9645869897e-05 0)
(0.417923008926 2.01883546082e-05 0)
(0.417922861019 2.07383167607e-05 0)
(0.417922725711 2.12979746377e-05 0)
(0.417922620391 2.18673786358e-05 0)
(0.417922570093 2.24464706293e-05 0)
(0.41792260901 2.30352031811e-05 0)
(0.417922783981 2.36333311276e-05 0)
(0.417923161041 2.4240284257e-05 0)
(0.417923833465 2.48556327156e-05 0)
(0.417924934164 2.54756689825e-05 0)
(0.417926658806 2.60887184313e-05 0)
(0.417929285656 2.66785655473e-05 0)
(0.417933204911 2.72137354617e-05 0)
(0.417939023646 2.76430526935e-05 0)
(0.417947840876 2.79218297751e-05 0)
(0.417961140444 2.82093533846e-05 0)
(0.417981064742 2.77438672829e-05 0)
(0.418010372552 2.51150940788e-05 0)
(0.418052673905 1.9270345236e-05 0)
(0.418114170774 9.40162393983e-06 0)
(0.418204982624 -6.02606145735e-06 0)
(0.41834071064 -2.95369509124e-05 0)
(0.418546248595 -6.48107937987e-05 0)
(0.418863488455 -0.00011603570425 0)
(0.419362013486 -0.000188177213248 0)
(0.420155272556 -0.000307953856694 0)
(0.421446896003 -0.00053291461334 0)
(0.423628465928 -0.000999856414574 0)
(0.427418549913 -0.00209041907257 0)
(0.434239051615 -0.0048560056413 0)
(0.448264425016 -0.0122527765458 0)
(0.474640764119 -0.0342383006967 0)
(0.478157298909 -0.098759859115 0)
(1.02222096489 0.238416187566 0)
(1.08213752457 0.295926653401 0)
(1.03447721415 0.239503067043 0)
(0.954615390115 0.17429016493 0)
(0.879992029406 0.121345468799 0)
(0.818614401717 0.0830993845175 0)
(0.771410808838 0.0567316675322 0)
(0.736634341233 0.0387409689109 0)
(0.711624375882 0.0264327873061 0)
(0.693916557464 0.0179731048646 0)
(0.681541341743 0.01214244793 0)
(0.673000043689 0.00812490793303 0)
(0.667180573061 0.00536632044019 0)
(0.663271597246 0.00348444371933 0)
(0.660688419618 0.0022125599931 0)
(0.65901408825 0.00136337980842 0)
(0.657954399795 0.000805241298525 0)
(0.657304099092 0.000445913585338 0)
(0.656921672815 0.000221064913108 0)
(0.656710099854 8.557713307e-05 0)
(0.656603228713 8.35373452354e-06 0)
(0.656561673647 -3.37237607166e-05 0)
(0.656557767239 -5.68579047155e-05 0)
(0.656571236843 -6.68763138134e-05 0)
(0.656592760329 -6.84830212325e-05 0)
(0.656616573799 -6.55609925894e-05 0)
(0.656639369753 -6.05496248829e-05 0)
(0.65665954133 -5.48596732948e-05 0)
(0.656676503495 -4.92756117594e-05 0)
(0.656690234374 -4.42043719276e-05 0)
(0.656700980559 -3.9840814163e-05 0)
(0.656709126893 -3.63034583906e-05 0)
(0.656715369511 -3.36976262127e-05 0)
(0.656720398108 -3.185913574e-05 0)
(0.656724255503 -3.08131120708e-05 0)
(0.656726956553 -3.03064806811e-05 0)
(0.656728812871 -3.02508344353e-05 0)
(0.65673010355 -3.05616079838e-05 0)
(0.656730996036 -3.10891353074e-05 0)
(0.656731580133 -3.17510048392e-05 0)
(0.656731930673 -3.2517962684e-05 0)
(0.656732113649 -3.33546227131e-05 0)
(0.656732174478 -3.42362483125e-05 0)
(0.656732147774 -3.51437573547e-05 0)
(0.65673205882 -3.60617998837e-05 0)
(0.656731925757 -3.69793230733e-05 0)
(0.656731764332 -3.78887840119e-05 0)
(0.656731590343 -3.878487607e-05 0)
(0.656731420871 -3.96632186209e-05 0)
(0.65673127382 -4.05181356221e-05 0)
(0.656731172949 -4.13464481092e-05 0)
(0.656731153923 -4.21442866928e-05 0)
(0.656731266299 -4.29099245421e-05 0)
(0.656731579207 -4.36468988759e-05 0)
(0.65673219085 -4.43691413951e-05 0)
(0.656733237922 -4.51069909384e-05 0)
(0.656734910319 -4.59176846862e-05 0)
(0.65673748961 -4.68955383385e-05 0)
(0.656741385477 -4.81653499853e-05 0)
(0.656747194755 -4.99499738614e-05 0)
(0.656755858765 -5.27664167354e-05 0)
(0.656769027306 -5.75947580206e-05 0)
(0.65678799642 -6.5258833685e-05 0)
(0.65681421367 -7.66107206911e-05 0)
(0.656851552387 -9.33538423243e-05 0)
(0.656906724637 -0.000117876655666 0)
(0.656989099334 -0.000153384081325 0)
(0.65711247128 -0.000205165101741 0)
(0.657298660332 -0.000281739239489 0)
(0.65758306155 -0.000396979545299 0)
(0.658023801576 -0.000575232261878 0)
(0.65871006422 -0.000863756593569 0)
(0.659788885657 -0.00135260837214 0)
(0.661517768647 -0.00221487292853 0)
(0.664338797013 -0.00381302614887 0)
(0.668947580631 -0.00694572954498 0)
(0.676369748244 -0.0133513397731 0)
(0.688612707078 -0.0268403202818 0)
(0.705234781161 -0.0563120706011 0)
(0.700482818857 -0.113067097548 0)
(1.02251475388 0.170807152901 0)
(1.10138975204 0.276496479583 0)
(1.11752424915 0.266664800148 0)
(1.09214658685 0.219901699695 0)
(1.05187813003 0.168168848217 0)
(1.01020819016 0.123567397209 0)
(0.973494647587 0.0888375220425 0)
(0.943864503575 0.0630063719665 0)
(0.921142738076 0.0442232043833 0)
(0.904284002625 0.0307423928433 0)
(0.892074790827 0.0211562939616 0)
(0.883404425485 0.0143954680396 0)
(0.87735257876 0.0096679472801 0)
(0.873197609306 0.0063938356765 0)
(0.870392825809 0.00415116259887 0)
(0.868533929866 0.00263448796988 0)
(0.867327525352 0.00162401369859 0)
(0.866564114345 0.000962671615284 0)
(0.866096349123 0.000539117455593 0)
(0.865822099475 0.000275148374066 0)
(0.865671248924 0.000117063318152 0)
(0.865594992294 2.87877569766e-05 0)
(0.865563929025 -1.93289260814e-05 0)
(0.865561116084 -4.12646457952e-05 0)
(0.865572455103 -4.76680601629e-05 0)
(0.865589456471 -4.55268800417e-05 0)
(0.865607761026 -3.91570271883e-05 0)
(0.86562509483 -3.11460552351e-05 0)
(0.865640374214 -2.29650962466e-05 0)
(0.865653232343 -1.53816195173e-05 0)
(0.865663701068 -8.72432530956e-06 0)
(0.865671984248 -3.04552930003e-06 0)
(0.865678334092 1.73291909765e-06 0)
(0.865682957774 5.46391639785e-06 0)
(0.865686273451 8.03074756182e-06 0)
(0.865688668372 9.78787921918e-06 0)
(0.865690295992 1.11412610295e-05 0)
(0.865691452038 1.22861250215e-05 0)
(0.865692312786 1.32544975997e-05 0)
(0.865692896567 1.41403711875e-05 0)
(0.865693252024 1.49347615161e-05 0)
(0.86569344455 1.56603053499e-05 0)
(0.865693513072 1.63328632632e-05 0)
(0.865693489526 1.69690061095e-05 0)
(0.865693396895 1.75831028253e-05 0)
(0.865693251344 1.81852291604e-05 0)
(0.865693067531 1.87830141086e-05 0)
(0.865692861633 1.9382095171e-05 0)
(0.86569265439 1.99893434027e-05 0)
(0.865692468368 2.06155492995e-05 0)
(0.865692333142 2.12463612441e-05 0)
(0.86569229085 2.18682458834e-05 0)
(0.865692395342 2.24642580877e-05 0)
(0.865692717049 2.3008397109e-05 0)
(0.865693351753 2.34654391326e-05 0)
(0.865694430985 2.38033523221e-05 0)
(0.865696141297 2.39740617952e-05 0)
(0.865698778377 2.38615465588e-05 0)
(0.865702745309 2.33224579711e-05 0)
(0.865708454869 2.19385076145e-05 0)
(0.865716402302 1.91498976664e-05 0)
(0.865728196417 1.42276355638e-05 0)
(0.865746416116 5.35295729018e-06 0)
(0.865774043068 -9.04471914764e-06 0)
(0.865814940335 -3.09664369744e-05 0)
(0.865875037041 -6.43834152232e-05 0)
(0.865963677768 -0.000116169412228 0)
(0.866095379393 -0.000197082563225 0)
(0.866292692893 -0.000324378463422 0)
(0.866590435746 -0.00052652422476 0)
(0.86704220507 -0.000852453468637 0)
(0.867733049136 -0.00138908054071 0)
(0.868799285117 -0.00228513333414 0)
(0.870454106289 -0.00381512984237 0)
(0.873016286729 -0.00650318908116 0)
(0.876884531869 -0.0113584878337 0)
(0.882381045838 -0.0202496775108 0)
(0.889688601773 -0.0364466725295 0)
(0.896361675971 -0.0654800270081 0)
(0.886529848349 -0.110020400054 0)
(1.01287875 0.118961024174 0)
(1.08820670166 0.231806938377 0)
(1.13741365759 0.25310676613 0)
(1.15409084637 0.228992754971 0)
(1.14994207986 0.188368360298 0)
(1.13538461689 0.146579845486 0)
(1.11758890109 0.110150967167 0)
(1.10059494601 0.0808162234371 0)
(1.08612450653 0.0582265774624 0)
(1.07459085178 0.0413189856697 0)
(1.06579138663 0.0289160204126 0)
(1.05928790209 0.0199600996172 0)
(1.05459967046 0.01358155913 0)
(1.05129066588 0.00909744147302 0)
(1.04899974145 0.00598615146319 0)
(1.04744329127 0.00385696320517 0)
(1.04640641043 0.00242159409963 0)
(1.04573048758 0.00147014578382 0)
(1.04530092461 0.000851697275386 0)
(1.04503642012 0.000459011629044 0)
(1.04488005072 0.000216752410807 0)
(1.04479242829 7.30138665409e-05 0)
(1.04474855767 -5.50716271477e-06 0)
(1.04473165331 -4.401071265e-05 0)
(1.0447293978 -5.93871491263e-05 0)
(1.04473487684 -6.17202583647e-05 0)
(1.04474381956 -5.72463984572e-05 0)
(1.04475369805 -4.98044792836e-05 0)
(1.04476313289 -4.16456729774e-05 0)
(1.04477145411 -3.39907209299e-05 0)
(1.0447784114 -2.74258488763e-05 0)
(1.04478399253 -2.21545394049e-05 0)
(1.0447883436 -1.81317065997e-05 0)
(1.04479167519 -1.51433376642e-05 0)
(1.04479424195 -1.28119963374e-05 0)
(1.0447963368 -1.10155540985e-05 0)
(1.04479807105 -9.52718327438e-06 0)
(1.04479938961 -8.23808170797e-06 0)
(1.04480036243 -7.21969461755e-06 0)
(1.04480104093 -6.55143765957e-06 0)
(1.04480144685 -6.17250094403e-06 0)
(1.044801668 -5.96453261247e-06 0)
(1.04480175037 -5.87622743348e-06 0)
(1.04480173262 -5.85886901911e-06 0)
(1.04480163983 -5.87247124812e-06 0)
(1.04480148987 -5.89713023364e-06 0)
(1.04480129977 -5.9229499042e-06 0)
(1.04480108957 -5.94545444275e-06 0)
(1.04480088633 -5.96745515539e-06 0)
(1.04480069717 -6.0034889257e-06 0)
(1.04480053549 -6.03704983464e-06 0)
(1.04480044622 -6.06505035437e-06 0)
(1.04480048517 -6.09395072232e-06 0)
(1.04480072976 -6.13916497807e-06 0)
(1.04480130633 -6.24168683414e-06 0)
(1.04480238792 -6.52275096981e-06 0)
(1.04480416367 -7.23851634816e-06 0)
(1.04480693776 -8.66616818239e-06 0)
(1.04481101724 -1.13013795561e-05 0)
(1.04481687589 -1.51394620066e-05 0)
(1.0448255227 -2.00698623859e-05 0)
(1.04483810894 -2.63217102239e-05 0)
(1.04485594464 -3.61576719664e-05 0)
(1.0448813278 -5.25653813484e-05 0)
(1.04491772823 -7.97565324722e-05 0)
(1.0449703031 -0.000123974274687 0)
(1.04504665956 -0.000194986974078 0)
(1.04515814946 -0.000308372161487 0)
(1.04532192227 -0.000489290976321 0)
(1.04556384222 -0.000778757293032 0)
(1.04592258508 -0.00124407267101 0)
(1.04645599512 -0.00199685072995 0)
(1.04724816649 -0.00322757996525 0)
(1.04841200549 -0.00526694820334 0)
(1.05007475612 -0.00869163465933 0)
(1.0522929841 -0.0144950929252 0)
(1.05482259025 -0.0242838635174 0)
(1.05687392772 -0.0403670867701 0)
(1.05574137807 -0.0655829410681 0)
(1.04212829161 -0.0994330538653 0)
(1.00447483346 0.0814039984162 0)
(1.06917236648 0.181288540492 0)
(1.13080567255 0.216950420256 0)
(1.17374998232 0.210789156848 0)
(1.19865262274 0.183690078068 0)
(1.21019984285 0.14975168449 0)
(1.21350251191 0.116779145185 0)
(1.21251718639 0.0882206787604 0)
(1.2097309206 0.0650481514525 0)
(1.20651112602 0.0470209089061 0)
(1.20351905575 0.0334068078911 0)
(1.20101136802 0.0233557311704 0)
(1.19903436115 0.016072011725 0)
(1.19753868317 0.0108795108591 0)
(1.19644121187 0.00723418444526 0)
(1.19565547597 0.00471351419012 0)
(1.1951047726 0.00299762436674 0)
(1.19472635195 0.00184915591357 0)
(1.19447136338 0.00109495545944 0)
(1.19430304576 0.000610606618288 0)
(1.19419439957 0.000307982293858 0)
(1.19412610844 0.000125764971531 0)
(1.1940850525 2.22204441664e-05 0)
(1.19406178768 -3.24537990645e-05 0)
(1.19404948125 -5.72716792443e-05 0)
(1.19404397609 -6.45968398893e-05 0)
(1.1940424714 -6.23747279866e-05 0)
(1.19404314868 -5.55201512511e-05 0)
(1.19404489262 -4.69435250532e-05 0)
(1.19404704523 -3.82582121876e-05 0)
(1.19404923408 -3.02650438662e-05 0)
(1.19405126732 -2.32690000346e-05 0)
(1.19405307619 -1.72936694487e-05 0)
(1.19405465456 -1.2265279196e-05 0)
(1.19405601841 -8.07762232821e-06 0)
(1.19405718665 -4.67652222933e-06 0)
(1.19405813147 -2.06564361223e-06 0)
(1.19405879928 -1.76780966194e-07 0)
(1.19405914964 1.14027968047e-06 0)
(1.19405925813 1.99515465123e-06 0)
(1.1940593062 2.67197857657e-06 0)
(1.19405933151 3.27229150835e-06 0)
(1.19405930746 3.79656682712e-06 0)
(1.19405925045 4.25477233902e-06 0)
(1.19405915772 4.65822943013e-06 0)
(1.19405902043 5.02332578564e-06 0)
(1.19405884141 5.36195584336e-06 0)
(1.19405862801 5.67765239741e-06 0)
(1.19405838785 5.96251859984e-06 0)
(1.19405816169 6.19800259825e-06 0)
(1.19405799813 6.40705749884e-06 0)
(1.19405792743 6.58409165462e-06 0)
(1.19405799773 6.70270223428e-06 0)
(1.19405826507 6.72154832496e-06 0)
(1.19405875986 6.57985946023e-06 0)
(1.19405946667 6.18160551234e-06 0)
(1.19406048383 5.38609200751e-06 0)
(1.19406196233 3.7844900032e-06 0)
(1.194064607 9.99945262305e-07 0)
(1.19406943626 -3.2800940746e-06 0)
(1.19407693513 -9.84075679612e-06 0)
(1.19408705644 -2.00467096163e-05 0)
(1.19410059248 -3.59257470489e-05 0)
(1.19411953514 -6.04005088875e-05 0)
(1.19414601166 -9.80533880261e-05 0)
(1.19418284943 -0.000156202778185 0)
(1.19423404569 -0.000246495487463 0)
(1.19430524063 -0.000387411258374 0)
(1.1944043275 -0.000608406632611 0)
(1.19454209252 -0.000956808664164 0)
(1.19473258667 -0.00150911681489 0)
(1.19499258911 -0.00238959184129 0)
(1.19533692311 -0.00380142128994 0)
(1.19576285277 -0.00607746090337 0)
(1.19621005039 -0.00975642246791 0)
(1.19645879568 -0.0156818971249 0)
(1.19592231134 -0.0250644221924 0)
(1.193446184 -0.0393590962837 0)
(1.18669562392 -0.0598081429723 0)
(1.17015285476 -0.0851005634374 0)
(0.998962324386 0.0544316261724 0)
(1.05310956144 0.133401609039 0)
(1.11628266756 0.170777559522 0)
(1.17301269752 0.175143873099 0)
(1.21791243276 0.159583607303 0)
(1.25049854094 0.134951021088 0)
(1.2728848647 0.10841165784 0)
(1.28776716574 0.0838849727616 0)
(1.29745261584 0.0630565730793 0)
(1.30366067835 0.046299921719 0)
(1.30759226428 0.0333205145806 0)
(1.31005361571 0.0235495230525 0)
(1.31157353375 0.0163599059809 0)
(1.31249483072 0.0111713125423 0)
(1.31303851806 0.00749150327839 0)
(1.31334660388 0.00492448163461 0)
(1.31351001171 0.00316295025476 0)
(1.31358663549 0.00197474640215 0)
(1.31361300585 0.00118819116136 0)
(1.31361185078 0.000678623553449 0)
(1.3135970082 0.000357003022932 0)
(1.31357668267 0.000160749308066 0)
(1.31355568441 4.64653213202e-05 0)
(1.3135363854 -1.58723506531e-05 0)
(1.31351972402 -4.60599835583e-05 0)
(1.31350603178 -5.7069398089e-05 0)
(1.31349512372 -5.73238291186e-05 0)
(1.31348666265 -5.20853126416e-05 0)
(1.31348026062 -4.45231323901e-05 0)
(1.31347553274 -3.64617452518e-05 0)
(1.31347212804 -2.88739922067e-05 0)
(1.31346974337 -2.22132867855e-05 0)
(1.31346811959 -1.66311663576e-05 0)
(1.31346702823 -1.21349511252e-05 0)
(1.31346630338 -8.65895605617e-06 0)
(1.31346584741 -6.10182335298e-06 0)
(1.31346555877 -4.32625064605e-06 0)
(1.31346534772 -3.12522515956e-06 0)
(1.31346521119 -2.26902430628e-06 0)
(1.31346523519 -1.55347340973e-06 0)
(1.31346538239 -9.78198804802e-07 0)
(1.31346547561 -5.66079419943e-07 0)
(1.31346546515 -2.09545845489e-07 0)
(1.31346538257 1.22975945944e-07 0)
(1.31346524875 4.29784582605e-07 0)
(1.31346507652 7.18727759946e-07 0)
(1.31346486951 1.00102469229e-06 0)
(1.31346463022 1.28620194193e-06 0)
(1.31346436767 1.5836276422e-06 0)
(1.31346411527 1.89808546491e-06 0)
(1.31346389721 2.17984371146e-06 0)
(1.31346372134 2.38902734419e-06 0)
(1.31346361821 2.48068385715e-06 0)
(1.31346364258 2.39085497009e-06 0)
(1.31346388324 2.03512814855e-06 0)
(1.3134644609 1.3302118667e-06 0)
(1.3134653269 2.19408447758e-07 0)
(1.31346661281 -1.46671345335e-06 0)
(1.31346874035 -3.99247064812e-06 0)
(1.31347189307 -8.08927217844e-06 0)
(1.31347629819 -1.50312611257e-05 0)
(1.31348218794 -2.63793982002e-05 0)
(1.31348984517 -4.37335870414e-05 0)
(1.31349976001 -7.02750517846e-05 0)
(1.31351225463 -0.000111034802654 0)
(1.31352741884 -0.000173761104923 0)
(1.31354488016 -0.000270537095894 0)
(1.31356333829 -0.000420319166621 0)
(1.31357961909 -0.000652921229228 0)
(1.3135868369 -0.00101555461847 0)
(1.3135709563 -0.00158320205445 0)
(1.31350457126 -0.00247488012973 0)
(1.31333350975 -0.00387777979342 0)
(1.31295027894 -0.00608415245966 0)
(1.31214499668 -0.00953830066768 0)
(1.31051249855 -0.0148814637991 0)
(1.30729975752 -0.0229414449398 0)
(1.30129769966 -0.0345579526942 0)
(1.29063950685 -0.0501675222729 0)
(1.27185475058 -0.0685426377662 0)
(0.995736072942 0.0346338604751 0)
(1.0417951376 0.0905689220408 0)
(1.10222837469 0.12154956573 0)
(1.16491409798 0.129605834684 0)
(1.22202563826 0.122009269046 0)
(1.26951888789 0.106019939145 0)
(1.30680219755 0.0870975569129 0)
(1.33499530549 0.0686366820425 0)
(1.3557447192 0.0523698398641 0)
(1.37069610557 0.0389256184103 0)
(1.38128268725 0.0282980732222 0)
(1.38866260347 0.020171276162 0)
(1.39373025442 0.0141175084383 0)
(1.39715652307 0.00970533312625 0)
(1.39943425905 0.00655059156388 0)
(1.4009195752 0.00433445020373 0)
(1.40186611549 0.00280413989523 0)
(1.40245212995 0.00176573782554 0)
(1.40280122164 0.00107418988887 0)
(1.40299791294 0.000623230107844 0)
(1.4030991292 0.000336404844656 0)
(1.40314257812 0.000159619502494 0)
(1.40315283468 5.51614606805e-05 0)
(1.4031453422 -2.99983391369e-06 0)
(1.40312957939 -3.21235565827e-05 0)
(1.40311117386 -4.38905229378e-05 0)
(1.40309313278 -4.57604665939e-05 0)
(1.40307698059 -4.24184904692e-05 0)
(1.403063319 -3.67279140168e-05 0)
(1.40305222202 -3.03655872721e-05 0)
(1.4030434881 -2.42459829624e-05 0)
(1.40303679171 -1.88161737877e-05 0)
(1.40303177178 -1.42447135478e-05 0)
(1.40302807841 -1.05337274391e-05 0)
(1.40302541313 -7.58257801248e-06 0)
(1.40302354339 -5.26660682753e-06 0)
(1.40302229228 -3.46299674359e-06 0)
(1.40302150901 -2.02801084968e-06 0)
(1.40302102821 -8.56580625181e-07 0)
(1.40302065554 7.3955671113e-08 0)
(1.40302032266 7.8189850384e-07 0)
(1.40302011057 1.27137055003e-06 0)
(1.40302000856 1.64284473299e-06 0)
(1.40301992556 1.96084963301e-06 0)
(1.40301982644 2.2631562711e-06 0)
(1.40301970405 2.56780632961e-06 0)
(1.40301955688 2.88379587557e-06 0)
(1.40301938704 3.21526178804e-06 0)
(1.40301919601 3.56265273819e-06 0)
(1.40301897663 3.91724181436e-06 0)
(1.40301874012 4.23733264814e-06 0)
(1.40301852019 4.49025698938e-06 0)
(1.40301834558 4.63726708563e-06 0)
(1.40301824129 4.62055791975e-06 0)
(1.40301822311 4.35124071197e-06 0)
(1.40301829781 3.68667918624e-06 0)
(1.40301848923 2.42408499222e-06 0)
(1.40301877314 4.40336296397e-07 0)
(1.40301939557 -2.69784899493e-06 0)
(1.40302055623 -7.73867201584e-06 0)
(1.40302208066 -1.54866178226e-05 0)
(1.40302364473 -2.72674848128e-05 0)
(1.40302478319 -4.49372890186e-05 0)
(1.40302475768 -7.14843070333e-05 0)
(1.40302208231 -0.00011150011504 0)
(1.40301402423 -0.000172016851282 0)
(1.4029957847 -0.000263908936147 0)
(1.40295918797 -0.000404051779001 0)
(1.40289031228 -0.000618506364975 0)
(1.40276546524 -0.000947878141027 0)
(1.4025446336 -0.00145548018627 0)
(1.40216149764 -0.00223972654048 0)
(1.40150457311 -0.00344964008443 0)
(1.40038560732 -0.00530888260319 0)
(1.39849143942 -0.00814016394286 0)
(1.39530910986 -0.0123781309499 0)
(1.39002584222 -0.0185335109957 0)
(1.38149396387 -0.0270437119998 0)
(1.36821818205 -0.0379900956869 0)
(1.34780761233 -0.050479987318 0)
(0.994011530173 0.0192358063492 0)
(1.03484762964 0.0523338402792 0)
(1.09199261405 0.07236312717 0)
(1.15662418046 0.0791292316061 0)
(1.22032113717 0.0761045460347 0)
(1.27701941912 0.0673339714608 0)
(1.32424414774 0.0561509037872 0)
(1.36181568704 0.0447990114564 0)
(1.3906852516 0.03453037806 0)
(1.41226068669 0.0258814327124 0)
(1.4280181516 0.0189465237936 0)
(1.43929876442 0.0135849811969 0)
(1.44722799175 0.00955653250083 0)
(1.4527040418 0.00660011271468 0)
(1.45641886127 0.00447418676963 0)
(1.45889134166 0.00297350937784 0)
(1.46050220122 0.00193276423286 0)
(1.46152559297 0.00122368931568 0)
(1.46215560381 0.000749546375268 0)
(1.46252742392 0.000439014153895 0)
(1.46273369673 0.000240518314447 0)
(1.46283683557 0.000117409975067 0)
(1.4628781345 4.40483820787e-05 0)
(1.46288436988 2.69078199426e-06 0)
(1.46287224168 -1.84438886712e-05 0)
(1.4628518865 -2.74373740438e-05 0)
(1.46282933121 -2.943709971e-05 0)
(1.46280778869 -2.76871959437e-05 0)
(1.46278878679 -2.41853641002e-05 0)
(1.46277287013 -2.01128977737e-05 0)
(1.4627600303 -1.61183717509e-05 0)
(1.46274997291 -1.252448092e-05 0)
(1.46274228728 -9.45799751235e-06 0)
(1.46273654132 -6.92984109588e-06 0)
(1.46273233591 -4.88625237515e-06 0)
(1.46272932831 -3.25790364196e-06 0)
(1.46272723 -1.98174795952e-06 0)
(1.46272578418 -1.01660216309e-06 0)
(1.46272477796 -3.1750131225e-07 0)
(1.46272414683 2.03431277746e-07 0)
(1.46272377929 6.82789300212e-07 0)
(1.46272352518 1.15699731858e-06 0)
(1.46272335201 1.58067681805e-06 0)
(1.46272322115 1.95959366968e-06 0)
(1.46272310329 2.31440617555e-06 0)
(1.46272297932 2.65834926195e-06 0)
(1.46272283568 2.99660540823e-06 0)
(1.46272266381 3.32690579019e-06 0)
(1.46272245913 3.63940595317e-06 0)
(1.46272221895 3.92096985496e-06 0)
(1.46272194657 4.16321652381e-06 0)
(1.46272164993 4.33475528049e-06 0)
(1.46272133683 4.38441536764e-06 0)
(1.46272101832 4.24190015592e-06 0)
(1.46272071181 3.81656522005e-06 0)
(1.46272044144 3.00066533822e-06 0)
(1.46272016062 1.67273804811e-06 0)
(1.46271978995 -3.01577471023e-07 0)
(1.46271921516 -3.1442012152e-06 0)
(1.46271828631 -7.74432617515e-06 0)
(1.46271672753 -1.48824451169e-05 0)
(1.46271386444 -2.56530953826e-05 0)
(1.46270858245 -4.16042774093e-05 0)
(1.46269907684 -6.51213456755e-05 0)
(1.46268228859 -9.98078862834e-05 0)
(1.46265308375 -0.00015105939288 0)
(1.46260295785 -0.000227058912846 0)
(1.46251815648 -0.000340283910604 0)
(1.46237623028 -0.000509351120471 0)
(1.46214036181 -0.000762677288326 0)
(1.46175059982 -0.00114399480705 0)
(1.46111236421 -0.00172097589571 0)
(1.46007460865 -0.00258937023326 0)
(1.45839644251 -0.00388868053261 0)
(1.45570405398 -0.0058112495316 0)
(1.4514322267 -0.0086001295011 0)
(1.44476087105 -0.0125153625791 0)
(1.434621358 -0.0177372250571 0)
(1.41975490101 -0.0242137454578 0)
(1.39831665777 -0.0313986652561 0)
(0.993269666176 0.00617014984663 0)
(1.03158099371 0.0171020450072 0)
(1.08672180521 0.0239906474579 0)
(1.15174552508 0.0265606647039 0)
(1.2182353364 0.0258180580731 0)
(1.27925770726 0.0230488857175 0)
(1.33140131737 0.0193656314365 0)
(1.37377593701 0.0155468582116 0)
(1.40691047602 0.0120449305267 0)
(1.43203306919 0.0090663998691 0)
(1.45060207711 0.00666059449337 0)
(1.46402977955 0.00479009065381 0)
(1.47355007617 0.00337842684601 0)
(1.48017554396 0.00233873603079 0)
(1.48470219282 0.00158891139354 0)
(1.48773610486 0.00105828617023 0)
(1.48972723838 0.000689459993941 0)
(1.4910026644 0.000437635836626 0)
(1.49179574069 0.000268883629787 0)
(1.49227010786 0.00015810968068 0)
(1.49253859674 8.71240909741e-05 0)
(1.49267767055 4.2975245076e-05 0)
(1.49273820164 1.65861372288e-05 0)
(1.49275337312 1.66621556069e-06 0)
(1.49274413355 -6.06588393665e-06 0)
(1.49272334246 -9.41073530624e-06 0)
(1.49269869489 -1.02166647526e-05 0)
(1.49267441893 -9.65333823619e-06 0)
(1.4926526121 -8.43933042574e-06 0)
(1.49263411593 -6.99273022583e-06 0)
(1.49261905357 -5.55381219812e-06 0)
(1.49260716285 -4.24250600241e-06 0)
(1.49259801408 -3.10636570243e-06 0)
(1.49259113183 -2.15167671619e-06 0)
(1.49258606186 -1.36224892492e-06 0)
(1.49258240347 -7.16279411437e-07 0)
(1.4925798206 -1.92307795852e-07 0)
(1.49257804323 2.31618162869e-07 0)
(1.49257686545 6.01336978095e-07 0)
(1.49257610933 9.69574870529e-07 0)
(1.4925756215 1.27405386049e-06 0)
(1.49257531029 1.55768432848e-06 0)
(1.49257511818 1.83826955123e-06 0)
(1.4925749929 2.12573136848e-06 0)
(1.49257489549 2.42685996292e-06 0)
(1.49257479962 2.74420271915e-06 0)
(1.49257468652 3.07682568734e-06 0)
(1.49257454285 3.42035843498e-06 0)
(1.49257435857 3.7658986875e-06 0)
(1.49257412506 4.09915429826e-06 0)
(1.49257383665 4.39990681939e-06 0)
(1.4925734896 4.63561634682e-06 0)
(1.49257307782 4.76114500664e-06 0)
(1.4925725896 4.71479361847e-06 0)
(1.49257200443 4.41056523721e-06 0)
(1.49257129621 3.72960365126e-06 0)
(1.49257045016 2.5160413244e-06 0)
(1.4925693257 7.02739420984e-07 0)
(1.49256751204 -1.96826747448e-06 0)
(1.49256471803 -6.12520311461e-06 0)
(1.49256054209 -1.23003703014e-05 0)
(1.49255395863 -2.12695792689e-05 0)
(1.49254335897 -3.41226523183e-05 0)
(1.49252620288 -5.24150907529e-05 0)
(1.49249837867 -7.83500946044e-05 0)
(1.49245319167 -0.000114963368782 0)
(1.49237976868 -0.000166628687261 0)
(1.4922610406 -0.000239853007812 0)
(1.49206965753 -0.000343147556759 0)
(1.49176104106 -0.000489049321738 0)
(1.49126290021 -0.000697705310857 0)
(1.49046648975 -0.00100289235023 0)
(1.48920248208 -0.0014371045198 0)
(1.48720510072 -0.00204782334159 0)
(1.48407598647 -0.0028963970875 0)
(1.47923546176 -0.00405030954074 0)
(1.47187691401 -0.00556382800985 0)
(1.46098715798 -0.00743844215445 0)
(1.44541946863 -0.00958009689248 0)
(1.42356509846 -0.0117402920727 0)
(0.993270463987 -0.00616840301285 0)
(1.03158097632 -0.0171003780099 0)
(1.08672173898 -0.0239897640028 0)
(1.15174556286 -0.0265602492031 0)
(1.21823541424 -0.0258179950551 0)
(1.27925780914 -0.023049111663 0)
(1.33140144327 -0.0193660482098 0)