/*--------------------------------*- C++ -*----------------------------------*\
| =========                 |                                                 |
| \\      /  F ield         | OpenFOAM: The Open Source CFD Toolbox           |
|  \\    /   O peration     | Version:  2106                                  |
|   \\  /    A nd           | Website:  www.openfoam.com                      |
|    \\/     M anipulation  |                                                 |
\*---------------------------------------------------------------------------*/
FoamFile
{
    version     2.0;
    format      ascii;
    arch        "LSB;label=32;scalar=64";
    class       volVectorField;
    location    "0.04";
    object      U;
}
// * * * * * * * * * * * * * * * * * * * * * * * * * * * * * * * * * * * * * //

dimensions      [0 1 -1 0 0 0 0];

internalField   nonuniform List<vector> 
800
(
(-8.46503e-11 0 0)
(-1.20832e-10 0 0)
(-9.99635e-11 0 0)
(-5.73851e-11 0 0)
(1.69278e-11 0 0)
(1.09145e-10 0 0)
(1.88848e-10 0 0)
(2.20084e-10 0 0)
(1.87806e-10 0 0)
(1.46721e-10 0 0)
(1.06015e-10 0 0)
(9.04033e-11 0 0)
(1.18173e-10 0 0)
(7.47571e-11 0 0)
(-2.21633e-11 0 0)
(-6.09974e-11 0 0)
(-6.6634e-11 0 0)
(-2.00789e-11 0 0)
(-1.16388e-11 0 0)
(4.20696e-11 0 0)
(8.74433e-11 0 0)
(1.1887e-10 0 0)
(4.7909e-11 0 0)
(1.12173e-11 0 0)
(-1.04354e-11 0 0)
(-4.3245e-11 0 0)
(-3.13342e-11 0 0)
(4.78517e-12 0 0)
(4.04964e-11 0 0)
(4.04555e-11 0 0)
(4.32771e-11 0 0)
(3.66675e-11 0 0)
(1.21509e-11 0 0)
(-3.26893e-11 0 0)
(-8.33409e-11 0 0)
(-7.80171e-11 0 0)
(-5.47074e-11 0 0)
(-7.39444e-11 0 0)
(-7.03608e-11 0 0)
(-7.03901e-12 0 0)
(6.32608e-11 0 0)
(1.11588e-10 0 0)
(7.37699e-11 0 0)
(-2.42504e-11 0 0)
(-3.938e-11 0 0)
(-2.47752e-11 0 0)
(-7.58866e-11 0 0)
(-1.3595e-10 0 0)
(-1.60028e-10 0 0)
(-1.15857e-10 0 0)
(-1.06796e-10 0 0)
(-1.13297e-10 0 0)
(-6.50263e-11 0 0)
(-4.75086e-11 0 0)
(-4.05784e-11 0 0)
(4.6067e-12 0 0)
(2.88471e-11 0 0)
(1.94963e-13 0 0)
(5.62098e-12 0 0)
(-9.28021e-13 0 0)
(1.70237e-11 0 0)
(-1.45897e-11 0 0)
(-3.15619e-11 0 0)
(-1.13798e-11 0 0)
(-9.95501e-12 0 0)
(-1.83674e-12 0 0)
(-1.18993e-12 0 0)
(7.63832e-12 0 0)
(-4.91033e-12 0 0)
(5.07291e-12 0 0)
(5.51937e-12 0 0)
(-1.38473e-11 0 0)
(3.09458e-11 0 0)
(9.0787e-11 0 0)
(7.25312e-11 0 0)
(3.57687e-11 0 0)
(1.57998e-11 0 0)
(-1.077e-11 0 0)
(-3.57351e-11 0 0)
(-7.10505e-11 0 0)
(-6.93469e-11 0 0)
(-5.91996e-11 0 0)
(-7.5136e-11 0 0)
(-7.65464e-11 0 0)
(-4.72071e-11 0 0)
(-6.90221e-12 0 0)
(4.34783e-11 0 0)
(3.62762e-11 0 0)
(2.61778e-11 0 0)
(2.14239e-11 0 0)
(2.03316e-11 0 0)
(6.69007e-12 0 0)
(4.5443e-12 0 0)
(-1.20205e-11 0 0)
(-2.54002e-11 0 0)
(1.54622e-11 0 0)
(3.77915e-11 0 0)
(9.94471e-12 0 0)
(1.801e-11 0 0)
(3.71128e-11 0 0)
(1.4375e-11 0 0)
(-1.82142e-11 0 0)
(-1.12471e-11 0 0)
(-5.31172e-12 0 0)
(-1.03104e-11 0 0)
(1.42356e-11 0 0)
(2.26779e-11 0 0)
(7.24671e-11 0 0)
(5.02229e-11 0 0)
(6.22689e-11 0 0)
(9.8923e-11 0 0)
(1.26454e-10 0 0)
(7.79588e-11 0 0)
(8.87354e-12 0 0)
(-4.10258e-11 0 0)
(-1.18277e-10 0 0)
(-1.21257e-10 0 0)
(-9.08783e-11 0 0)
(-4.57734e-11 0 0)
(-3.33658e-11 0 0)
(-5.7284e-11 0 0)
(-6.58737e-11 0 0)
(-8.1954e-11 0 0)
(-5.43588e-11 0 0)
(1.95624e-12 0 0)
(4.24054e-11 0 0)
(4.63757e-11 0 0)
(1.48985e-11 0 0)
(-2.32219e-11 0 0)
(-6.34887e-11 0 0)
(-3.18058e-11 0 0)
(3.94842e-11 0 0)
(5.93018e-11 0 0)
(5.0336e-11 0 0)
(8.47652e-12 0 0)
(2.34462e-11 0 0)
(-2.32469e-11 0 0)
(-3.87736e-11 0 0)
(-6.50164e-11 0 0)
(-5.78434e-11 0 0)
(-6.56948e-11 0 0)
(-9.19186e-11 0 0)
(-8.6089e-11 0 0)
(-6.8756e-11 0 0)
(-5.50522e-11 0 0)
(-5.37612e-11 0 0)
(-6.06832e-11 0 0)
(-4.24831e-11 0 0)
(-2.43321e-11 0 0)
(5.29736e-12 0 0)
(4.74928e-12 0 0)
(1.47397e-12 0 0)
(3.37651e-13 0 0)
(-2.81836e-11 0 0)
(-5.39743e-11 0 0)
(-7.35796e-11 0 0)
(-6.0371e-11 0 0)
(-5.29129e-11 0 0)
(-8.18927e-11 0 0)
(-6.10035e-11 0 0)
(-5.32003e-11 0 0)
(-4.04621e-11 0 0)
(1.57598e-11 0 0)
(6.09098e-11 0 0)
(4.76335e-11 0 0)
(-1.18627e-11 0 0)
(-3.79044e-11 0 0)
(-1.05626e-10 0 0)
(-1.61963e-10 0 0)
(-1.97136e-10 0 0)
(-2.44075e-10 0 0)
(-2.54482e-10 0 0)
(-2.10756e-10 0 0)
(-1.50328e-10 0 0)
(-7.86833e-11 0 0)
(-3.36779e-12 0 0)
(1.50797e-10 0 0)
(2.22428e-10 0 0)
(1.24439e-10 0 0)
(3.19007e-11 0 0)
(-1.15759e-11 0 0)
(-4.9449e-11 0 0)
(-1.93955e-11 0 0)
(7.1774e-11 0 0)
(7.95137e-11 0 0)
(4.70674e-11 0 0)
(5.63471e-11 0 0)
(1.03413e-10 0 0)
(8.83883e-11 0 0)
(1.11013e-10 0 0)
(5.2512e-11 0 0)
(-2.53883e-11 0 0)
(-5.15701e-11 0 0)
(-6.06517e-11 0 0)
(-3.39231e-11 0 0)
(-3.81081e-12 0 0)
(5.0081e-11 0 0)
(1.8853e-10 0 0)
(2.46673e-10 0 0)
(2.64884e-10 0 0)
(3.32696e-10 0 0)
(3.53087e-10 0 0)
(2.62982e-10 0 0)
(1.90487e-10 0 0)
(1.07141e-10 0 0)
(-6.69438e-12 0 0)
(-2.5502e-11 0 0)
(1.41418e-11 0 0)
(-6.86281e-13 0 0)
(-1.15291e-11 0 0)
(-9.50187e-12 0 0)
(1.43844e-11 0 0)
(6.81201e-11 0 0)
(7.55356e-11 0 0)
(5.50247e-11 0 0)
(3.32036e-11 0 0)
(6.66352e-11 0 0)
(1.03415e-10 0 0)
(9.41657e-11 0 0)
(8.7451e-11 0 0)
(1.04376e-10 0 0)
(1.30165e-10 0 0)
(7.69003e-11 0 0)
(-5.19793e-11 0 0)
(-1.29601e-10 0 0)
(-1.56395e-10 0 0)
(-1.61588e-10 0 0)
(-2.02656e-10 0 0)
(-2.0334e-10 0 0)
(-1.2937e-10 0 0)
(-2.11759e-11 0 0)
(4.56608e-11 0 0)
(4.05342e-11 0 0)
(3.0091e-11 0 0)
(2.45705e-11 0 0)
(1.71489e-11 0 0)
(-1.06446e-11 0 0)
(-7.40532e-11 0 0)
(-1.95743e-12 0 0)
(5.27016e-11 0 0)
(7.42238e-11 0 0)
(7.70201e-11 0 0)
(8.59578e-11 0 0)
(4.38493e-11 0 0)
(-3.65305e-12 0 0)
(-7.9355e-11 0 0)
(-1.63996e-10 0 0)
(-9.92154e-11 0 0)
(-1.18534e-11 0 0)
(4.09409e-11 0 0)
(5.06379e-11 0 0)
(5.26657e-11 0 0)
(-2.32496e-11 0 0)
(-6.01375e-11 0 0)
(-2.97648e-11 0 0)
(-7.18508e-11 0 0)
(-1.33236e-10 0 0)
(-1.16955e-10 0 0)
(-1.03836e-10 0 0)
(-5.97522e-11 0 0)
(4.5656e-11 0 0)
(1.03813e-10 0 0)
(8.2772e-11 0 0)
(5.74851e-11 0 0)
(4.7509e-11 0 0)
(2.70647e-11 0 0)
(-1.29683e-11 0 0)
(-4.05502e-11 0 0)
(-6.7862e-11 0 0)
(-1.12377e-10 0 0)
(-1.25329e-10 0 0)
(-1.03891e-10 0 0)
(-8.07766e-11 0 0)
(-4.90998e-11 0 0)
(-4.0365e-12 0 0)
(1.69069e-11 0 0)
(1.95089e-11 0 0)
(1.09612e-10 0 0)
(1.77173e-10 0 0)
(1.80213e-10 0 0)
(1.76405e-10 0 0)
(1.59241e-10 0 0)
(9.63366e-11 0 0)
(6.55539e-11 0 0)
(9.5184e-11 0 0)
(1.20217e-10 0 0)
(1.22658e-10 0 0)
(1.23584e-10 0 0)
(2.09669e-10 0 0)
(2.68123e-10 0 0)
(2.7962e-10 0 0)
(3.26297e-10 0 0)
(3.20893e-10 0 0)
(1.80622e-10 0 0)
(8.09379e-11 0 0)
(-7.31847e-11 0 0)
(-1.75306e-10 0 0)
(-1.81861e-10 0 0)
(-1.19651e-10 0 0)
(-3.64408e-11 0 0)
(1.88471e-11 0 0)
(8.20588e-11 0 0)
(1.15099e-10 0 0)
(5.52696e-11 0 0)
(7.71184e-11 0 0)
(1.40193e-10 0 0)
(1.37269e-10 0 0)
(5.61243e-11 0 0)
(5.36899e-12 0 0)
(3.45076e-11 0 0)
(3.9182e-11 0 0)
(2.3318e-11 0 0)
(6.142e-13 0 0)
(8.56697e-12 0 0)
(4.36005e-11 0 0)
(3.5506e-12 0 0)
(-7.02678e-11 0 0)
(-1.28886e-10 0 0)
(-1.50881e-10 0 0)
(-1.22169e-10 0 0)
(-6.39086e-11 0 0)
(-3.74504e-11 0 0)
(-3.85902e-11 0 0)
(5.75477e-12 0 0)
(-1.26582e-11 0 0)
(-1.41854e-10 0 0)
(-2.59332e-10 0 0)
(-2.81391e-10 0 0)
(-2.12823e-10 0 0)
(-1.41709e-10 0 0)
(-3.92811e-11 0 0)
(4.38955e-11 0 0)
(5.45331e-11 0 0)
(6.51232e-11 0 0)
(6.04234e-11 0 0)
(3.46129e-11 0 0)
(6.78137e-12 0 0)
(-2.66124e-11 0 0)
(-1.3334e-10 0 0)
(-1.83706e-10 0 0)
(-1.43164e-10 0 0)
(-7.86315e-11 0 0)
(-3.7006e-11 0 0)
(-2.78982e-11 0 0)
(-7.29225e-11 0 0)
(-1.36928e-10 0 0)
(-1.83589e-10 0 0)
(-2.19941e-10 0 0)
(-2.28634e-10 0 0)
(-4.53335e-12 0 0)
(5.81271e-07 0 0)
(0.000107949 0 0)
(0.00259494 0 0)
(0.0151163 0 0)
(0.0381404 0 0)
(0.0633817 0 0)
(0.0869226 0 0)
(0.108773 0 0)
(0.129651 0 0)
(0.150056 0 0)
(0.170241 0 0)
(0.190321 0 0)
(0.210345 0 0)
(0.23034 0 0)
(0.250316 0 0)
(0.270282 0 0)
(0.290243 0 0)
(0.310202 0 0)
(0.330162 0 0)
(0.350126 0 0)
(0.370095 0 0)
(0.390072 0 0)
(0.410059 0 0)
(0.430057 0 0)
(0.450069 0 0)
(0.470095 0 0)
(0.490138 0 0)
(0.5102 0 0)
(0.530282 0 0)
(0.550386 0 0)
(0.570513 0 0)
(0.590663 0 0)
(0.610838 0 0)
(0.631036 0 0)
(0.651259 0 0)
(0.671505 0 0)
(0.691771 0 0)
(0.712055 0 0)
(0.732353 0 0)
(0.752661 0 0)
(0.772972 0 0)
(0.793278 0 0)
(0.813572 0 0)
(0.833838 0 0)
(0.854044 0 0)
(0.874082 0 0)
(0.893596 0 0)
(0.911555 0 0)
(0.925569 0 0)
(0.932498 0 0)
(0.9331 0 0)
(0.928868 0 0)
(0.9278 0 0)
(0.929055 0 0)
(0.929755 0 0)
(0.930124 0 0)
(0.93023 0 0)
(0.930055 0 0)
(0.929893 0 0)
(0.929894 0 0)
(0.9299 0 0)
(0.929739 0 0)
(0.929579 0 0)
(0.9295 0 0)
(0.929489 0 0)
(0.929468 0 0)
(0.929266 0 0)
(0.929086 0 0)
(0.929019 0 0)
(0.92898 0 0)
(0.928896 0 0)
(0.928856 0 0)
(0.928882 0 0)
(0.92893 0 0)
(0.928834 0 0)
(0.928673 0 0)
(0.928625 0 0)
(0.928605 0 0)
(0.928536 0 0)
(0.928475 0 0)
(0.928458 0 0)
(0.928497 0 0)
(0.928472 0 0)
(0.928368 0 0)
(0.928424 0 0)
(0.928688 0 0)
(0.929196 0 0)
(0.930509 0 0)
(0.930002 0 0)
(0.92505 0 0)
(0.931135 0 0)
(0.932771 0 0)
(0.93078 0 0)
(0.92851 0 0)
(0.927374 0 0)
(0.926718 0 0)
(0.92623 0 0)
(0.926034 0 0)
(0.926651 0 0)
(0.929009 0 0)
(0.931756 0 0)
(0.932434 0 0)
(0.932046 0 0)
(0.9311 0 0)
(0.92885 0 0)
(0.926289 0 0)
(0.925623 0 0)
(0.925626 0 0)
(0.92601 0 0)
(0.927492 0 0)
(0.930323 0 0)
(0.931938 0 0)
(0.932085 0 0)
(0.931548 0 0)
(0.929345 0 0)
(0.926285 0 0)
(0.925176 0 0)
(0.924611 0 0)
(0.921192 0 0)
(0.879318 0 0)
(0.587516 0 0)
(0.0827145 0 0)
(0.000519711 0 0)
(6.74564e-08 0 0)
(1.46198e-10 0 0)
(1.30103e-10 0 0)
(1.46433e-10 0 0)
(1.21834e-10 0 0)
(6.54123e-11 0 0)
(6.81982e-11 0 0)
(9.2001e-13 0 0)
(-7.52735e-11 0 0)
(-1.01039e-10 0 0)
(-1.09793e-10 0 0)
(-6.30425e-11 0 0)
(6.11594e-11 0 0)
(1.18685e-10 0 0)
(8.72599e-11 0 0)
(1.16474e-11 0 0)
(-2.64837e-11 0 0)
(-1.71552e-11 0 0)
(-5.28079e-11 0 0)
(-4.63723e-11 0 0)
(9.40369e-12 0 0)
(2.23831e-11 0 0)
(3.27111e-11 0 0)
(2.28492e-12 0 0)
(6.07544e-11 0 0)
(6.69082e-11 0 0)
(5.01303e-11 0 0)
(-1.31705e-11 0 0)
(-4.56448e-11 0 0)
(-4.73513e-11 0 0)
(-8.3238e-11 0 0)
(-1.00355e-10 0 0)
(-4.26597e-11 0 0)
(-4.93963e-11 0 0)
(-3.83014e-11 0 0)
(7.46779e-12 0 0)
(2.74163e-11 0 0)
(-2.04502e-11 0 0)
(-5.88193e-11 0 0)
(-1.27836e-10 0 0)
(-1.17437e-10 0 0)
(-1.60598e-11 0 0)
(7.57556e-11 0 0)
(7.01501e-11 0 0)
(7.30131e-11 0 0)
(1.03544e-10 0 0)
(1.15965e-10 0 0)
(4.00677e-11 0 0)
(-2.51603e-11 0 0)
(7.76008e-12 0 0)
(-1.42045e-11 0 0)
(-1.20854e-10 0 0)
(-2.03239e-10 0 0)
(-2.34264e-10 0 0)
(-2.37888e-10 0 0)
(-2.13594e-10 0 0)
(-2.17379e-10 0 0)
(-1.78396e-10 0 0)
(-5.37555e-11 0 0)
(2.28826e-11 0 0)
(2.19946e-11 0 0)
(-1.05022e-11 0 0)
(-7.92695e-11 0 0)
(-1.25802e-10 0 0)
(-1.49664e-10 0 0)
(-1.80579e-10 0 0)
(-1.79525e-10 0 0)
(-1.19596e-10 0 0)
(-6.77116e-11 0 0)
(-3.24633e-11 0 0)
(-1.55299e-11 0 0)
(-5.29476e-11 0 0)
(-6.8955e-11 0 0)
(-9.32612e-11 0 0)
(-7.33852e-11 0 0)
(-1.3937e-11 0 0)
(-2.21392e-11 0 0)
(-5.7832e-11 0 0)
(-2.08088e-11 0 0)
(7.63181e-12 0 0)
(2.35634e-11 0 0)
(9.42783e-11 0 0)
(8.70266e-11 0 0)
(1.45266e-11 0 0)
(-1.15076e-10 0 0)
(-1.2175e-10 0 0)
(-1.01434e-10 0 0)
(-4.03873e-11 0 0)
(3.47422e-11 0 0)
(6.87019e-11 0 0)
(6.11708e-11 0 0)
(3.43088e-11 0 0)
(-1.07128e-11 0 0)
(-3.47218e-12 0 0)
(-3.322e-11 0 0)
(-7.72335e-11 0 0)
(-8.44891e-11 0 0)
(-2.06385e-11 0 0)
(2.15511e-11 0 0)
(9.80287e-11 0 0)
(1.57288e-10 0 0)
(1.49323e-10 0 0)
(1.05508e-10 0 0)
(1.06474e-10 0 0)
(1.22071e-10 0 0)
(8.38966e-11 0 0)
(4.08083e-11 0 0)
(5.95806e-11 0 0)
(5.59424e-11 0 0)
(3.0642e-11 0 0)
(-3.98721e-11 0 0)
(-8.72833e-11 0 0)
(-9.16377e-11 0 0)
(-9.72443e-11 0 0)
(-8.06697e-11 0 0)
(-8.35022e-11 0 0)
(-5.84154e-11 0 0)
(5.37293e-11 0 0)
(1.24758e-10 0 0)
(9.83376e-11 0 0)
(6.93895e-11 0 0)
(2.42657e-11 0 0)
(2.77241e-11 0 0)
(6.81773e-11 0 0)
(2.83911e-11 0 0)
(-7.26733e-11 0 0)
(-1.04505e-10 0 0)
(-4.6557e-11 0 0)
(7.39452e-12 0 0)
(5.46578e-11 0 0)
(1.42129e-10 0 0)
(9.49972e-11 0 0)
(3.73068e-11 0 0)
(3.1901e-11 0 0)
(-8.76451e-12 0 0)
(-1.14433e-10 0 0)
(-1.33278e-10 0 0)
(-1.36374e-10 0 0)
(-1.1834e-10 0 0)
(-4.61049e-11 0 0)
(2.38199e-11 0 0)
(2.54845e-12 0 0)
(-3.8685e-11 0 0)
(-6.52109e-11 0 0)
(-5.79704e-11 0 0)
(-2.44684e-11 0 0)
(6.53544e-11 0 0)
(1.12191e-10 0 0)
(8.80295e-11 0 0)
(7.74555e-11 0 0)
(3.55695e-11 0 0)
(-2.4182e-11 0 0)
(-7.05113e-13 0 0)
(3.0037e-12 0 0)
(8.8852e-12 0 0)
(2.44912e-11 0 0)
(7.72419e-12 0 0)
(7.33511e-12 0 0)
(7.75557e-12 0 0)
(5.94141e-11 0 0)
(1.23092e-10 0 0)
(1.06709e-10 0 0)
(1.27764e-11 0 0)
(-1.83571e-11 0 0)
(-1.66687e-11 0 0)
(-2.17735e-11 0 0)
(-1.1577e-11 0 0)
(-1.2356e-10 0 0)
(-2.15705e-10 0 0)
(-2.50814e-10 0 0)
(-2.61765e-10 0 0)
(-1.56973e-10 0 0)
(-1.02299e-10 0 0)
(-1.23294e-10 0 0)
(-2.10303e-11 0 0)
(1.94696e-11 0 0)
(5.8109e-11 0 0)
(9.0875e-11 0 0)
(1.59863e-10 0 0)
(1.82588e-10 0 0)
(1.13733e-10 0 0)
(8.41508e-11 0 0)
(5.32631e-11 0 0)
(2.5151e-11 0 0)
(-9.39465e-12 0 0)
(-1.07756e-11 0 0)
(-1.1621e-11 0 0)
(1.26678e-11 0 0)
(3.8766e-11 0 0)
(6.48149e-11 0 0)
(9.13127e-11 0 0)
(1.18987e-10 0 0)
(1.53886e-10 0 0)
(1.43429e-10 0 0)
(7.44234e-11 0 0)
(-1.68386e-11 0 0)
(-2.41509e-11 0 0)
(-2.5584e-11 0 0)
(-5.41818e-11 0 0)
(1.70562e-12 0 0)
(8.50023e-11 0 0)
(1.62928e-10 0 0)
(5.05964e-11 0 0)
(-1.08983e-10 0 0)
(-1.72257e-10 0 0)
(-1.45953e-10 0 0)
(-5.51306e-11 0 0)
(-4.4356e-12 0 0)
(4.43508e-12 0 0)
(-2.40827e-11 0 0)
(-6.73005e-11 0 0)
(-2.59893e-11 0 0)
(-4.58695e-11 0 0)
(-7.53416e-11 0 0)
(-4.74775e-11 0 0)
(-5.04247e-11 0 0)
(-5.25572e-11 0 0)
(-5.63931e-11 0 0)
(-1.17384e-12 0 0)
(9.49802e-11 0 0)
(1.15344e-10 0 0)
(1.61333e-10 0 0)
(2.18856e-10 0 0)
(2.67024e-10 0 0)
(2.00804e-10 0 0)
(4.57343e-11 0 0)
(-1.22155e-11 0 0)
(2.69992e-12 0 0)
(7.7121e-11 0 0)
(5.3885e-11 0 0)
(1.26157e-11 0 0)
(2.48748e-12 0 0)
(-3.36667e-11 0 0)
(-2.20733e-11 0 0)
(-2.1108e-11 0 0)
(-4.73899e-11 0 0)
(1.70341e-11 0 0)
(-7.09709e-12 0 0)
(-8.18303e-11 0 0)
(-6.3849e-11 0 0)
(-4.70494e-11 0 0)
(-9.89456e-12 0 0)
(1.58731e-12 0 0)
(3.98306e-12 0 0)
(-2.18702e-11 0 0)
(-2.63085e-11 0 0)
(3.37598e-12 0 0)
(-2.60098e-11 0 0)
(-1.02939e-10 0 0)
(-1.49307e-10 0 0)
(-1.40397e-10 0 0)
(-1.46912e-10 0 0)
(-1.22972e-10 0 0)
(-6.914e-11 0 0)
(-2.78986e-12 0 0)
(5.6306e-11 0 0)
(2.27646e-11 0 0)
(-1.31218e-11 0 0)
(-3.18037e-11 0 0)
(-6.52599e-12 0 0)
(-1.25946e-11 0 0)
(-8.19368e-12 0 0)
(-1.1851e-11 0 0)
(1.65775e-11 0 0)
(7.70702e-11 0 0)
(1.16231e-10 0 0)
(7.6107e-11 0 0)
(6.85234e-12 0 0)
(-2.26828e-11 0 0)
(-8.97158e-13 0 0)
(4.07879e-11 0 0)
(1.02825e-10 0 0)
(8.78336e-11 0 0)
(2.18099e-11 0 0)
(6.64763e-11 0 0)
(1.27693e-10 0 0)
(9.68637e-11 0 0)
(2.05361e-11 0 0)
(-1.2545e-11 0 0)
(-4.50955e-11 0 0)
(-1.91708e-11 0 0)
(5.72229e-12 0 0)
(-1.48588e-11 0 0)
(1.57624e-11 0 0)
(6.54414e-11 0 0)
(6.49943e-11 0 0)
(7.74326e-11 0 0)
(1.39182e-10 0 0)
(1.76292e-10 0 0)
(1.42252e-10 0 0)
(1.63651e-10 0 0)
(1.79225e-10 0 0)
(1.03213e-10 0 0)
(3.66849e-11 0 0)
(2.78205e-11 0 0)
(-2.41383e-11 0 0)
(-8.52176e-11 0 0)
(-1.43599e-10 0 0)
(-1.9034e-10 0 0)
(-1.71079e-10 0 0)
(-1.86517e-10 0 0)
(-1.69491e-10 0 0)
(-1.17089e-10 0 0)
(-8.71235e-11 0 0)
(-3.65055e-11 0 0)
(-7.26979e-12 0 0)
(5.02569e-11 0 0)
(1.00774e-10 0 0)
(1.5036e-10 0 0)
(1.73818e-10 0 0)
(1.52029e-10 0 0)
(1.56582e-10 0 0)
(1.74032e-10 0 0)
(9.75245e-11 0 0)
(-1.54114e-11 0 0)
(-7.75117e-11 0 0)
(-3.57103e-11 0 0)
(2.62113e-11 0 0)
(4.32869e-11 0 0)
(1.87929e-11 0 0)
(8.43208e-12 0 0)
(2.14812e-11 0 0)
(1.21769e-10 0 0)
(1.17016e-10 0 0)
(6.15104e-11 0 0)
(4.03847e-11 0 0)
(2.02855e-11 0 0)
)
;

boundaryField
{
    left
    {
        type            noSlip;
    }
    right
    {
        type            noSlip;
    }
    empty
    {
        type            empty;
    }
}


// ************************************************************************* //
