/*--------------------------------*- C++ -*----------------------------------*\
| =========                 |                                                 |
| \\      /  F ield         | OpenFOAM: The Open Source CFD Toolbox           |
|  \\    /   O peration     | Version:  2106                                  |
|   \\  /    A nd           | Website:  www.openfoam.com                      |
|    \\/     M anipulation  |                                                 |
\*---------------------------------------------------------------------------*/
FoamFile
{
    version     2.0;
    format      ascii;
    arch        "LSB;label=32;scalar=64";
    class       volScalarField;
    location    "0.16";
    object      p;
}
// * * * * * * * * * * * * * * * * * * * * * * * * * * * * * * * * * * * * * //

dimensions      [1 -1 -2 0 0 0 0];

internalField   nonuniform List<scalar> 
800
(
1
1
1
1
1
1
1
1
1
1
1
1
1
1
1
1
1
1
1
1
1
1
1
1
1
1
1
1
1
1
1
1
1
1
1
1
1
1
1
1
1
1
1
1
1
1
1
1
1
1
1
1
1
1
1
1
1
1
1
1
1
1
1
1
1
1
1
1
1
1
1
1
1
1
1
1
1
1
1
1
1
1
1
1
1
1
1
1
1
1
1
1
1
1
1
1
1
1
1
1
1
1
1
1
1
1
1
1
1
1
1
1
1
1
1
1
1
1
1
1
1
1
1
1
1
1
1
1
1
1
1
1
1
1
1
1
1
1
1
1
1
1
1
1
1
1
1
1
1
1
1
1
1
1
1
1
1
1
1
1
1
1
1
1
1
1
1
1
1
1
1
1
1
1
1
1
1
1
1
1
1
1
1
1
1
1
1
1
1
1
1
1
1
1
1
1
1
1
1
1
1
1
1
1
1
1
1
1
1
1
1
1
0.999999
0.999901
0.99802
0.989961
0.97718
0.965028
0.955149
0.94704
0.94
0.933559
0.927446
0.921514
0.915691
0.909939
0.904242
0.89859
0.892981
0.88741
0.881876
0.876377
0.870913
0.865483
0.860085
0.854719
0.849385
0.844082
0.838808
0.833565
0.828351
0.823167
0.818011
0.812885
0.807786
0.802716
0.797673
0.792659
0.787672
0.782712
0.777779
0.772874
0.767995
0.763143
0.758317
0.753518
0.748745
0.743998
0.739277
0.734582
0.729912
0.725268
0.72065
0.716057
0.711488
0.706945
0.702427
0.697933
0.693464
0.68902
0.6846
0.680204
0.675832
0.671485
0.667161
0.662861
0.658585
0.654332
0.650103
0.645897
0.641715
0.637555
0.633419
0.629305
0.625214
0.621146
0.617101
0.613077
0.609076
0.605098
0.601141
0.597207
0.593294
0.589404
0.585534
0.581687
0.577861
0.574056
0.570273
0.566511
0.56277
0.559049
0.55535
0.551672
0.548014
0.544376
0.54076
0.537163
0.533587
0.530031
0.526495
0.522979
0.519483
0.516006
0.51255
0.509113
0.505695
0.502297
0.498918
0.495559
0.492218
0.488897
0.485594
0.482311
0.479046
0.475799
0.472572
0.469363
0.466172
0.463
0.459846
0.45671
0.453592
0.450492
0.44741
0.444346
0.4413
0.438271
0.43526
0.432267
0.429291
0.426332
0.423391
0.420467
0.417559
0.414669
0.411796
0.40894
0.406101
0.403279
0.400473
0.397684
0.394911
0.392155
0.389415
0.386692
0.383985
0.381294
0.378619
0.375961
0.373318
0.370691
0.368081
0.365486
0.362907
0.360343
0.357795
0.355263
0.352746
0.350245
0.347759
0.345288
0.342832
0.340392
0.337966
0.335556
0.33316
0.330779
0.328413
0.326061
0.323723
0.321399
0.319089
0.316792
0.314508
0.312241
0.31
0.307813
0.305739
0.303899
0.302465
0.301585
0.301227
0.301164
0.301246
0.301359
0.301368
0.301255
0.301148
0.301121
0.301123
0.301159
0.301203
0.301243
0.301282
0.301318
0.301351
0.301388
0.301436
0.301492
0.30154
0.301571
0.301588
0.301597
0.301603
0.301611
0.301632
0.301668
0.301705
0.301732
0.30175
0.301762
0.301771
0.301781
0.301795
0.301812
0.301822
0.301825
0.301823
0.301805
0.30177
0.301733
0.301705
0.301687
0.301676
0.301668
0.301662
0.301655
0.301648
0.301637
0.301627
0.301621
0.30162
0.301625
0.301633
0.30164
0.301648
0.301652
0.301655
0.301657
0.301663
0.301677
0.301691
0.301701
0.301708
0.301713
0.301717
0.30172
0.301727
0.301743
0.301758
0.301765
0.301765
0.301763
0.301753
0.301735
0.301717
0.301707
0.301702
0.301697
0.301691
0.301686
0.301679
0.301671
0.301663
0.301659
0.301659
0.30166
0.301659
0.301656
0.301654
0.301652
0.30165
0.30165
0.30166
0.301672
0.301677
0.30168
0.301685
0.301688
0.301687
0.301687
0.301696
0.30171
0.301717
0.301721
0.301727
0.301732
0.301731
0.301727
0.301725
0.30173
0.30173
0.30172
0.301707
0.301699
0.301689
0.301677
0.30167
0.301677
0.301682
0.301678
0.30167
0.301666
0.301662
0.301652
0.301645
0.301655
0.301669
0.301668
0.301662
0.301664
0.301667
0.301662
0.301654
0.301667
0.301692
0.301697
0.30169
0.301693
0.301699
0.301698
0.301685
0.301687
0.301718
0.301733
0.301723
0.301723
0.301727
0.301722
0.301702
0.301689
0.30171
0.301719
0.301712
0.301726
0.301788
0.301936
0.30207
0.302177
0.302915
0.301534
0.300413
0.301164
0.301629
0.302208
0.302586
0.3025
0.302159
0.301693
0.301295
0.300984
0.300824
0.3009
0.301367
0.302142
0.302492
0.302504
0.302431
0.302115
0.30148
0.300958
0.300872
0.300961
0.301156
0.301623
0.302246
0.30245
0.302446
0.302343
0.301933
0.301293
0.301014
0.300968
0.301008
0.301309
0.301947
0.302367
0.302407
0.302386
0.302202
0.301717
0.301141
0.300977
0.301008
0.301131
0.301491
0.302044
0.30231
0.302318
0.30225
0.302017
0.301503
0.301102
0.301044
0.301066
0.301228
0.301687
0.302148
0.302256
0.302272
0.302178
0.301832
0.301299
0.3011
0.301101
0.301158
0.301389
0.30186
0.302203
0.302245
0.302202
0.302056
0.301672
0.301256
0.30117
0.301181
0.301262
0.301551
0.301992
0.302181
0.302204
0.302166
0.301959
0.301525
0.301258
0.301231
0.301243
0.301367
0.301697
0.302066
0.302153
0.302132
0.302049
0.301796
0.301415
0.301248
0.301243
0.301285
0.30144
0.301788
0.302059
0.302093
0.302078
0.301977
0.30168
0.301361
0.301283
0.301277
0.301333
0.301538
0.301885
0.302044
0.302048
0.302019
0.301887
0.301594
0.301347
0.301306
0.301333
0.301416
0.301646
0.301933
0.302009
0.302007
0.301966
0.301833
0.30166
0.301457
0.300438
0.288776
0.214427
0.115167
0.100123
0.1
0.1
0.1
0.1
0.1
0.1
0.1
0.1
0.1
0.1
0.1
0.1
0.1
0.1
0.1
0.1
0.1
0.1
0.1
0.1
0.1
0.1
0.1
0.1
0.1
0.1
0.1
0.1
0.1
0.1
0.1
0.1
0.1
0.1
0.1
0.1
0.1
0.1
0.1
0.1
0.1
0.1
0.1
0.1
0.1
0.1
0.1
0.1
0.1
0.1
0.1
0.1
0.1
0.1
0.1
0.1
0.1
0.1
0.1
0.1
0.1
0.1
0.1
0.1
0.1
0.1
0.1
0.1
0.1
0.1
0.1
0.1
0.1
0.1
0.1
0.1
0.1
0.1
0.1
0.1
0.1
0.1
0.1
0.1
0.1
0.1
0.1
0.1
0.1
0.1
0.1
0.1
0.1
0.1
0.1
0.1
0.1
0.1
0.1
0.1
0.1
0.1
0.1
0.1
0.1
0.1
0.1
0.1
0.1
0.1
0.1
0.1
0.1
0.1
0.1
0.1
)
;

boundaryField
{
    left
    {
        type            zeroGradient;
    }
    right
    {
        type            zeroGradient;
    }
    empty
    {
        type            empty;
    }
}


// ************************************************************************* //
