/*--------------------------------*- C++ -*----------------------------------*\
| =========                 |                                                 |
| \\      /  F ield         | OpenFOAM: The Open Source CFD Toolbox           |
|  \\    /   O peration     | Version:  2106                                  |
|   \\  /    A nd           | Website:  www.openfoam.com                      |
|    \\/     M anipulation  |                                                 |
\*---------------------------------------------------------------------------*/
FoamFile
{
    version     2.0;
    format      ascii;
    arch        "LSB;label=32;scalar=64";
    class       volScalarField;
    location    "0.16";
    object      rho;
}
// * * * * * * * * * * * * * * * * * * * * * * * * * * * * * * * * * * * * * //

dimensions      [1 -3 0 0 0 0 0];

internalField   nonuniform List<scalar> 
800
(
1.00435
1.00435
1.00435
1.00435
1.00435
1.00435
1.00435
1.00435
1.00435
1.00435
1.00435
1.00435
1.00435
1.00435
1.00435
1.00435
1.00435
1.00435
1.00435
1.00435
1.00435
1.00435
1.00435
1.00435
1.00435
1.00435
1.00435
1.00435
1.00435
1.00435
1.00435
1.00435
1.00435
1.00435
1.00435
1.00435
1.00435
1.00435
1.00435
1.00435
1.00435
1.00435
1.00435
1.00435
1.00435
1.00435
1.00435
1.00435
1.00435
1.00435
1.00435
1.00435
1.00435
1.00435
1.00435
1.00435
1.00435
1.00435
1.00435
1.00435
1.00435
1.00435
1.00435
1.00435
1.00435
1.00435
1.00435
1.00435
1.00435
1.00435
1.00435
1.00435
1.00435
1.00435
1.00435
1.00435
1.00435
1.00435
1.00435
1.00435
1.00435
1.00435
1.00435
1.00435
1.00435
1.00435
1.00435
1.00435
1.00435
1.00435
1.00435
1.00435
1.00435
1.00435
1.00435
1.00435
1.00435
1.00435
1.00435
1.00435
1.00435
1.00435
1.00435
1.00435
1.00435
1.00435
1.00435
1.00435
1.00435
1.00435
1.00435
1.00435
1.00435
1.00435
1.00435
1.00435
1.00435
1.00435
1.00435
1.00435
1.00435
1.00435
1.00435
1.00435
1.00435
1.00435
1.00435
1.00435
1.00435
1.00435
1.00435
1.00435
1.00435
1.00435
1.00435
1.00435
1.00435
1.00435
1.00435
1.00435
1.00435
1.00435
1.00435
1.00435
1.00435
1.00435
1.00435
1.00435
1.00435
1.00435
1.00435
1.00435
1.00435
1.00435
1.00435
1.00435
1.00435
1.00435
1.00435
1.00435
1.00435
1.00435
1.00435
1.00435
1.00435
1.00435
1.00435
1.00435
1.00435
1.00435
1.00435
1.00435
1.00435
1.00435
1.00435
1.00435
1.00435
1.00435
1.00435
1.00435
1.00435
1.00435
1.00435
1.00435
1.00435
1.00435
1.00435
1.00435
1.00435
1.00435
1.00435
1.00435
1.00435
1.00435
1.00435
1.00435
1.00435
1.00435
1.00435
1.00435
1.00435
1.00435
1.00435
1.00435
1.00435
1.00435
1.00435
1.00435
1.00435
1.00435
1.00435
1.00435
1.00435
1.00428
1.00293
0.997136
0.987927
0.979139
0.971973
0.966073
0.96094
0.956234
0.951759
0.947408
0.943129
0.938895
0.934694
0.930519
0.926367
0.922236
0.918126
0.914035
0.909962
0.905907
0.901869
0.897848
0.893843
0.889854
0.885881
0.881923
0.877981
0.874053
0.870141
0.866243
0.86236
0.858492
0.854637
0.850797
0.846971
0.84316
0.839362
0.835578
0.831809
0.828053
0.82431
0.820582
0.816867
0.813165
0.809477
0.805803
0.802142
0.798494
0.79486
0.791239
0.787631
0.784036
0.780455
0.776886
0.773331
0.769789
0.766259
0.762743
0.759239
0.755748
0.75227
0.748805
0.745352
0.741912
0.738485
0.73507
0.731668
0.728278
0.724901
0.721536
0.718183
0.714843
0.711515
0.7082
0.704897
0.701605
0.698327
0.69506
0.691805
0.688562
0.685331
0.682113
0.678906
0.675711
0.672528
0.669357
0.666197
0.663049
0.659913
0.656789
0.653676
0.650575
0.647486
0.644408
0.641341
0.638286
0.635243
0.63221
0.629189
0.62618
0.623182
0.620195
0.617219
0.614254
0.611301
0.608359
0.605427
0.602507
0.599598
0.5967
0.593813
0.590937
0.588071
0.585217
0.582373
0.579541
0.576719
0.573907
0.571107
0.568317
0.565538
0.56277
0.560012
0.557265
0.554528
0.551802
0.549086
0.546381
0.543687
0.541003
0.538329
0.535666
0.533013
0.53037
0.527738
0.525116
0.522505
0.519904
0.517313
0.514732
0.512161
0.509601
0.507051
0.504511
0.501981
0.499462
0.496952
0.494453
0.491964
0.489485
0.487016
0.484557
0.482107
0.479668
0.477239
0.47482
0.472411
0.470012
0.467622
0.465243
0.462873
0.460513
0.458163
0.455823
0.453492
0.45117
0.448858
0.446555
0.44426
0.441974
0.439696
0.437431
0.435187
0.432992
0.430907
0.429053
0.427607
0.426718
0.426356
0.426292
0.426376
0.42649
0.4265
0.426387
0.426281
0.426251
0.426252
0.426289
0.426336
0.426377
0.426417
0.426453
0.426486
0.426524
0.426573
0.426629
0.426678
0.42671
0.426729
0.426739
0.426745
0.426754
0.426774
0.42681
0.426847
0.426876
0.426895
0.426908
0.426918
0.426928
0.426943
0.426959
0.426969
0.426973
0.426971
0.426955
0.426921
0.426885
0.426857
0.426838
0.426826
0.426818
0.426812
0.426807
0.426801
0.426792
0.426782
0.426776
0.426775
0.426779
0.426788
0.426796
0.426805
0.426811
0.426815
0.426818
0.426825
0.426839
0.426853
0.426863
0.426872
0.426879
0.426884
0.426888
0.426896
0.426912
0.426927
0.426934
0.426935
0.426934
0.426926
0.426909
0.426893
0.426884
0.426879
0.426875
0.42687
0.426865
0.42686
0.426853
0.426846
0.426845
0.426846
0.426848
0.426847
0.426845
0.426843
0.426843
0.426842
0.426844
0.426855
0.426868
0.426876
0.426882
0.426889
0.426893
0.426894
0.426896
0.426907
0.426922
0.426932
0.426938
0.426946
0.426953
0.426954
0.426951
0.426951
0.426958
0.426959
0.426951
0.42694
0.426935
0.426927
0.426918
0.426917
0.426927
0.426937
0.426937
0.426933
0.426933
0.426933
0.426927
0.426927
0.426939
0.426958
0.42696
0.426958
0.426963
0.426971
0.42697
0.426969
0.426985
0.427014
0.427024
0.427023
0.427031
0.427046
0.427054
0.427057
0.42708
0.427124
0.427144
0.427127
0.427105
0.427049
0.426892
0.42653
0.425799
0.424392
0.421689
0.416758
0.408272
0.394535
0.374047
0.346639
0.315331
0.287145
0.267425
0.259484
0.258646
0.258788
0.259252
0.259644
0.259882
0.26011
0.260354
0.260655
0.26091
0.261083
0.261264
0.261651
0.26218
0.262398
0.262397
0.262319
0.262056
0.261575
0.261159
0.261016
0.260961
0.260987
0.26121
0.261563
0.261679
0.261681
0.26165
0.261469
0.261165
0.261079
0.261121
0.261205
0.261447
0.261866
0.262112
0.26211
0.262051
0.261869
0.261486
0.261063
0.260913
0.260886
0.260931
0.261155
0.261522
0.261723
0.26177
0.261794
0.261719
0.261449
0.261235
0.261219
0.26124
0.261339
0.261591
0.261825
0.26184
0.261803
0.261699
0.261437
0.261085
0.260955
0.260956
0.261004
0.261181
0.261515
0.261772
0.261834
0.261852
0.261798
0.261575
0.261318
0.26126
0.261254
0.261271
0.261405
0.261635
0.261714
0.261702
0.261659
0.261511
0.261244
0.261095
0.261097
0.26113
0.26124
0.261482
0.261739
0.261815
0.261824
0.261789
0.261631
0.26138
0.261256
0.26123
0.261218
0.261275
0.261465
0.261616
0.261628
0.261615
0.261553
0.261385
0.26121
0.261185
0.261202
0.26126
0.261415
0.261647
0.261756
0.261764
0.261747
0.261651
0.261445
0.261263
0.261215
0.261203
0.261234
0.261369
0.261548
0.261597
0.2616
0.261586
0.261521
0.261434
0.261329
0.260724
0.253508
0.204967
0.134905
0.123536
0.123438
0.123438
0.123438
0.123438
0.123438
0.123438
0.123438
0.123438
0.123438
0.123438
0.123438
0.123438
0.123438
0.123438
0.123438
0.123438
0.123438
0.123438
0.123438
0.123438
0.123438
0.123438
0.123438
0.123438
0.123438
0.123438
0.123438
0.123438
0.123438
0.123438
0.123438
0.123438
0.123438
0.123438
0.123438
0.123438
0.123438
0.123438
0.123438
0.123438
0.123438
0.123438
0.123438
0.123438
0.123438
0.123438
0.123438
0.123438
0.123438
0.123438
0.123438
0.123438
0.123438
0.123438
0.123438
0.123438
0.123438
0.123438
0.123438
0.123438
0.123438
0.123438
0.123438
0.123438
0.123438
0.123438
0.123438
0.123438
0.123438
0.123438
0.123438
0.123438
0.123438
0.123438
0.123438
0.123438
0.123438
0.123438
0.123438
0.123438
0.123438
0.123438
0.123438
0.123438
0.123438
0.123438
0.123438
0.123438
0.123438
0.123438
0.123438
0.123438
0.123438
0.123438
0.123438
0.123438
0.123438
0.123438
0.123438
0.123438
0.123438
0.123438
0.123438
0.123438
0.123438
0.123438
0.123438
0.123438
0.123438
0.123438
0.123438
0.123438
0.123438
0.123438
0.123438
0.123438
)
;

boundaryField
{
    left
    {
        type            calculated;
        value           uniform 0.123438;
    }
    right
    {
        type            calculated;
        value           uniform 1.00435;
    }
    empty
    {
        type            empty;
    }
}


// ************************************************************************* //
