/*--------------------------------*- C++ -*----------------------------------*\
| =========                 |                                                 |
| \\      /  F ield         | OpenFOAM: The Open Source CFD Toolbox           |
|  \\    /   O peration     | Version:  2106                                  |
|   \\  /    A nd           | Website:  www.openfoam.com                      |
|    \\/     M anipulation  |                                                 |
\*---------------------------------------------------------------------------*/
FoamFile
{
    version     2.0;
    format      ascii;
    arch        "LSB;label=32;scalar=64";
    class       volScalarField;
    location    "0.16";
    object      T;
}
// * * * * * * * * * * * * * * * * * * * * * * * * * * * * * * * * * * * * * //

dimensions      [0 0 0 1 0 0 0];

internalField   nonuniform List<scalar> 
800
(
0.003468
0.003468
0.003468
0.003468
0.003468
0.003468
0.003468
0.003468
0.003468
0.003468
0.003468
0.003468
0.003468
0.003468
0.003468
0.003468
0.003468
0.003468
0.003468
0.003468
0.003468
0.003468
0.003468
0.003468
0.003468
0.003468
0.003468
0.003468
0.003468
0.003468
0.003468
0.003468
0.003468
0.003468
0.003468
0.003468
0.003468
0.003468
0.003468
0.003468
0.003468
0.003468
0.003468
0.003468
0.003468
0.003468
0.003468
0.003468
0.003468
0.003468
0.003468
0.003468
0.003468
0.003468
0.003468
0.003468
0.003468
0.003468
0.003468
0.003468
0.003468
0.003468
0.003468
0.003468
0.003468
0.003468
0.003468
0.003468
0.003468
0.003468
0.003468
0.003468
0.003468
0.003468
0.003468
0.003468
0.003468
0.003468
0.003468
0.003468
0.003468
0.003468
0.003468
0.003468
0.003468
0.003468
0.003468
0.003468
0.003468
0.003468
0.003468
0.003468
0.003468
0.003468
0.003468
0.003468
0.003468
0.003468
0.003468
0.003468
0.003468
0.003468
0.003468
0.003468
0.003468
0.003468
0.003468
0.003468
0.003468
0.003468
0.003468
0.003468
0.003468
0.003468
0.003468
0.003468
0.003468
0.003468
0.003468
0.003468
0.003468
0.003468
0.003468
0.003468
0.003468
0.003468
0.003468
0.003468
0.003468
0.003468
0.003468
0.003468
0.003468
0.003468
0.003468
0.003468
0.003468
0.003468
0.003468
0.003468
0.003468
0.003468
0.003468
0.003468
0.003468
0.003468
0.003468
0.003468
0.003468
0.003468
0.003468
0.003468
0.003468
0.003468
0.003468
0.003468
0.003468
0.003468
0.003468
0.003468
0.003468
0.003468
0.003468
0.003468
0.003468
0.003468
0.003468
0.003468
0.003468
0.003468
0.003468
0.003468
0.003468
0.003468
0.003468
0.003468
0.003468
0.003468
0.003468
0.003468
0.003468
0.003468
0.003468
0.003468
0.003468
0.003468
0.003468
0.003468
0.003468
0.003468
0.003468
0.003468
0.003468
0.003468
0.003468
0.003468
0.003468
0.003468
0.003468
0.003468
0.003468
0.003468
0.003468
0.003468
0.003468
0.003468
0.003468
0.003468
0.003468
0.003468
0.003468
0.003468
0.003468
0.0034679
0.00346604
0.00345802
0.0034452
0.00343289
0.0034228
0.00341446
0.00340718
0.00340049
0.00339411
0.00338789
0.00338175
0.00337566
0.00336961
0.00336357
0.00335755
0.00335155
0.00334556
0.00333958
0.00333362
0.00332766
0.00332171
0.00331577
0.00330984
0.00330392
0.00329801
0.0032921
0.0032862
0.0032803
0.00327442
0.00326853
0.00326266
0.00325679
0.00325093
0.00324507
0.00323922
0.00323337
0.00322754
0.0032217
0.00321587
0.00321005
0.00320423
0.00319842
0.00319262
0.00318682
0.00318102
0.00317523
0.00316945
0.00316367
0.00315789
0.00315213
0.00314636
0.00314061
0.00313485
0.00312911
0.00312336
0.00311763
0.0031119
0.00310617
0.00310045
0.00309473
0.00308902
0.00308332
0.00307762
0.00307192
0.00306623
0.00306055
0.00305487
0.00304919
0.00304352
0.00303786
0.0030322
0.00302654
0.00302089
0.00301525
0.00300961
0.00300398
0.00299835
0.00299272
0.00298711
0.00298149
0.00297588
0.00297028
0.00296468
0.00295909
0.0029535
0.00294791
0.00294233
0.00293676
0.00293119
0.00292562
0.00292007
0.00291451
0.00290896
0.00290342
0.00289788
0.00289234
0.00288681
0.00288129
0.00287577
0.00287025
0.00286474
0.00285924
0.00285373
0.00284824
0.00284275
0.00283726
0.00283178
0.0028263
0.00282083
0.00281536
0.0028099
0.00280445
0.00279899
0.00279355
0.0027881
0.00278267
0.00277723
0.0027718
0.00276638
0.00276096
0.00275555
0.00275014
0.00274474
0.00273934
0.00273394
0.00272856
0.00272317
0.00271779
0.00271242
0.00270705
0.00270168
0.00269632
0.00269097
0.00268562
0.00268028
0.00267494
0.0026696
0.00266427
0.00265895
0.00265363
0.00264832
0.00264301
0.00263771
0.00263241
0.00262711
0.00262183
0.00261654
0.00261127
0.002606
0.00260073
0.00259547
0.00259022
0.00258497
0.00257972
0.00257448
0.00256925
0.00256402
0.0025588
0.00255359
0.00254837
0.00254317
0.00253797
0.00253278
0.00252759
0.0025224
0.00251723
0.00251205
0.00250688
0.00250172
0.00249656
0.0024914
0.00248625
0.00248113
0.00247612
0.00247134
0.00246707
0.00246374
0.00246168
0.00246085
0.0024607
0.00246089
0.00246116
0.00246117
0.00246091
0.00246064
0.0024606
0.0024606
0.00246068
0.00246078
0.00246086
0.00246095
0.00246103
0.00246111
0.0024612
0.00246131
0.00246144
0.00246155
0.00246162
0.00246165
0.00246166
0.00246167
0.00246169
0.00246175
0.00246183
0.00246192
0.00246198
0.00246201
0.00246203
0.00246205
0.00246207
0.00246211
0.00246215
0.00246218
0.00246217
0.00246217
0.00246212
0.00246203
0.00246193
0.00246187
0.00246183
0.0024618
0.00246179
0.00246177
0.00246175
0.00246172
0.00246169
0.00246165
0.00246165
0.00246165
0.00246166
0.00246168
0.00246169
0.0024617
0.0024617
0.00246169
0.00246169
0.00246171
0.00246174
0.00246177
0.00246179
0.0024618
0.00246181
0.0024618
0.0024618
0.00246182
0.00246185
0.00246189
0.00246191
0.0024619
0.00246189
0.00246186
0.00246181
0.00246176
0.00246173
0.00246171
0.00246169
0.00246168
0.00246166
0.00246164
0.00246161
0.00246158
0.00246156
0.00246155
0.00246155
0.00246154
0.00246153
0.00246152
0.00246151
0.0024615
0.00246149
0.00246151
0.00246153
0.00246153
0.00246152
0.00246152
0.00246151
0.0024615
0.00246149
0.0024615
0.00246153
0.00246153
0.00246153
0.00246153
0.00246153
0.00246152
0.0024615
0.00246148
0.00246149
0.00246148
0.00246144
0.0024614
0.00246137
0.00246133
0.00246128
0.00246123
0.00246123
0.00246121
0.00246118
0.00246114
0.00246111
0.00246107
0.00246103
0.00246097
0.00246098
0.00246099
0.00246097
0.00246094
0.00246092
0.0024609
0.00246086
0.00246081
0.00246082
0.00246085
0.00246083
0.00246078
0.00246076
0.00246073
0.00246067
0.00246055
0.00246043
0.00246044
0.00246044
0.00246045
0.00246058
0.00246094
0.0024618
0.00246373
0.00246785
0.0024762
0.00249215
0.00252158
0.00257411
0.00266428
0.00281159
0.00303525
0.00333779
0.00367438
0.00392734
0.00403248
0.00405566
0.00405968
0.0040602
0.00405914
0.00405427
0.00404615
0.00403613
0.00402615
0.00401806
0.00401327
0.00401149
0.00401179
0.00401399
0.00401529
0.00401547
0.00401569
0.00401551
0.00401444
0.00401389
0.00401493
0.00401696
0.00401917
0.00402196
0.00402485
0.00402577
0.00402568
0.00402479
0.0040221
0.00401827
0.00401586
0.0040146
0.00401384
0.00401415
0.0040162
0.00401801
0.00401858
0.00401921
0.00401955
0.00401897
0.0040178
0.00401792
0.00401875
0.0040197
0.00402105
0.00402277
0.00402323
0.00402262
0.00402133
0.00401938
0.00401669
0.00401464
0.00401411
0.00401407
0.00401471
0.00401696
0.00401951
0.0040207
0.00402149
0.00402183
0.00402126
0.00401957
0.00401892
0.00401892
0.00401894
0.0040193
0.00402042
0.00402106
0.00402065
0.00401981
0.0040187
0.004017
0.00401541
0.00401516
0.00401539
0.00401622
0.00401801
0.00402034
0.00402165
0.00402214
0.0040223
0.00402181
0.00402014
0.00401888
0.00401848
0.00401814
0.00401809
0.00401876
0.00401972
0.00401973
0.00401931
0.00401874
0.0040178
0.00401657
0.00401625
0.0040166
0.00401734
0.00401853
0.00402024
0.00402153
0.0040218
0.0040218
0.00402141
0.00402004
0.00401847
0.00401782
0.00401748
0.00401733
0.00401769
0.00401874
0.00401917
0.00401911
0.00401899
0.00401869
0.00401798
0.00401747
0.00401768
0.0040182
0.00401884
0.00401982
0.0040209
0.00402115
0.00402108
0.00402074
0.00401998
0.00401903
0.00401792
0.00401363
0.00396765
0.00364383
0.00297346
0.00282297
0.00282173
0.00282173
0.00282173
0.00282173
0.00282173
0.00282173
0.00282173
0.00282173
0.00282173
0.00282173
0.00282173
0.00282173
0.00282173
0.00282173
0.00282173
0.00282173
0.00282173
0.00282173
0.00282173
0.00282173
0.00282173
0.00282173
0.00282173
0.00282173
0.00282173
0.00282173
0.00282173
0.00282173
0.00282173
0.00282173
0.00282173
0.00282173
0.00282173
0.00282173
0.00282173
0.00282173
0.00282173
0.00282173
0.00282173
0.00282173
0.00282173
0.00282173
0.00282173
0.00282173
0.00282173
0.00282173
0.00282173
0.00282173
0.00282173
0.00282173
0.00282173
0.00282173
0.00282173
0.00282173
0.00282173
0.00282173
0.00282173
0.00282173
0.00282173
0.00282173
0.00282173
0.00282173
0.00282173
0.00282173
0.00282173
0.00282173
0.00282173
0.00282173
0.00282173
0.00282173
0.00282173
0.00282173
0.00282173
0.00282173
0.00282173
0.00282173
0.00282173
0.00282173
0.00282173
0.00282173
0.00282173
0.00282173
0.00282173
0.00282173
0.00282173
0.00282173
0.00282173
0.00282173
0.00282173
0.00282173
0.00282173
0.00282173
0.00282173
0.00282173
0.00282173
0.00282173
0.00282173
0.00282173
0.00282173
0.00282173
0.00282173
0.00282173
0.00282173
0.00282173
0.00282173
0.00282173
0.00282173
0.00282173
0.00282173
0.00282173
0.00282173
0.00282173
0.00282173
0.00282173
0.00282173
0.00282173
)
;

boundaryField
{
    left
    {
        type            zeroGradient;
    }
    right
    {
        type            zeroGradient;
    }
    empty
    {
        type            empty;
    }
}


// ************************************************************************* //
