/*--------------------------------*- C++ -*----------------------------------*\
| =========                 |                                                 |
| \\      /  F ield         | OpenFOAM: The Open Source CFD Toolbox           |
|  \\    /   O peration     | Version:  2106                                  |
|   \\  /    A nd           | Website:  www.openfoam.com                      |
|    \\/     M anipulation  |                                                 |
\*---------------------------------------------------------------------------*/
FoamFile
{
    version     2.0;
    format      ascii;
    arch        "LSB;label=32;scalar=64";
    class       volVectorField;
    location    "0.16";
    object      U;
}
// * * * * * * * * * * * * * * * * * * * * * * * * * * * * * * * * * * * * * //

dimensions      [0 1 -1 0 0 0 0];

internalField   nonuniform List<vector> 
800
(
(5.53047e-11 0 0)
(1.64723e-10 0 0)
(1.33331e-10 0 0)
(1.21692e-10 0 0)
(1.41577e-10 0 0)
(7.17775e-11 0 0)
(6.86314e-13 0 0)
(-1.68098e-12 0 0)
(6.87293e-12 0 0)
(4.27854e-11 0 0)
(3.54436e-11 0 0)
(9.48879e-11 0 0)
(1.17266e-10 0 0)
(8.38966e-11 0 0)
(6.25634e-11 0 0)
(3.56314e-11 0 0)
(1.8471e-11 0 0)
(7.2304e-11 0 0)
(2.11077e-11 0 0)
(-2.27924e-11 0 0)
(-5.15063e-11 0 0)
(-8.23625e-11 0 0)
(-1.81137e-10 0 0)
(-3.80138e-10 0 0)
(-5.16696e-10 0 0)
(-5.47423e-10 0 0)
(-4.9733e-10 0 0)
(-4.57842e-10 0 0)
(-4.3905e-10 0 0)
(-4.11392e-10 0 0)
(-4.12576e-10 0 0)
(-4.1374e-10 0 0)
(-3.3982e-10 0 0)
(-2.88272e-10 0 0)
(-2.39731e-10 0 0)
(-1.24667e-10 0 0)
(-9.75251e-12 0 0)
(4.88476e-11 0 0)
(8.87796e-11 0 0)
(8.29756e-11 0 0)
(1.53003e-10 0 0)
(2.5042e-10 0 0)
(1.82977e-10 0 0)
(6.07214e-11 0 0)
(-3.06529e-11 0 0)
(-1.0843e-10 0 0)
(-1.03965e-10 0 0)
(-8.68478e-11 0 0)
(-1.29147e-10 0 0)
(-1.88521e-10 0 0)
(-2.52926e-10 0 0)
(-2.62736e-10 0 0)
(-2.30534e-10 0 0)
(-2.09702e-10 0 0)
(-2.07208e-10 0 0)
(-1.7707e-10 0 0)
(-1.40152e-10 0 0)
(-8.18519e-11 0 0)
(-1.6479e-11 0 0)
(3.31863e-11 0 0)
(8.01499e-11 0 0)
(9.01642e-11 0 0)
(6.20291e-11 0 0)
(-6.53669e-12 0 0)
(-7.61023e-11 0 0)
(-1.14726e-10 0 0)
(-8.3204e-11 0 0)
(-6.44557e-11 0 0)
(-2.65443e-11 0 0)
(-3.66041e-12 0 0)
(-1.97787e-11 0 0)
(-5.55534e-11 0 0)
(-1.90515e-10 0 0)
(-2.98925e-10 0 0)
(-3.35237e-10 0 0)
(-2.99243e-10 0 0)
(-2.36883e-10 0 0)
(-1.97716e-10 0 0)
(-1.95708e-10 0 0)
(-1.78272e-10 0 0)
(-2.10852e-10 0 0)
(-2.73157e-10 0 0)
(-2.8888e-10 0 0)
(-2.81232e-10 0 0)
(-2.90031e-10 0 0)
(-2.62011e-10 0 0)
(-2.03546e-10 0 0)
(-1.15993e-10 0 0)
(-2.76058e-11 0 0)
(6.14284e-11 0 0)
(6.97511e-11 0 0)
(6.24926e-11 0 0)
(-3.59404e-11 0 0)
(-7.51333e-11 0 0)
(-6.68792e-11 0 0)
(-7.90408e-11 0 0)
(-9.43066e-11 0 0)
(-6.96892e-11 0 0)
(-2.30713e-11 0 0)
(5.61229e-13 0 0)
(-3.59568e-11 0 0)
(-7.81442e-11 0 0)
(-9.53731e-11 0 0)
(-1.07724e-10 0 0)
(-5.59787e-11 0 0)
(-1.63076e-11 0 0)
(-7.68305e-11 0 0)
(-1.55598e-10 0 0)
(-1.7708e-10 0 0)
(-1.74626e-10 0 0)
(-1.27465e-10 0 0)
(-3.63127e-11 0 0)
(3.27931e-11 0 0)
(3.02967e-11 0 0)
(-3.53749e-11 0 0)
(-4.91121e-11 0 0)
(1.88309e-11 0 0)
(5.38692e-11 0 0)
(1.06506e-10 0 0)
(1.35182e-10 0 0)
(1.47597e-10 0 0)
(1.27666e-10 0 0)
(1.23264e-10 0 0)
(1.02713e-10 0 0)
(2.85448e-12 0 0)
(-1.11976e-10 0 0)
(-1.96121e-10 0 0)
(-2.27547e-10 0 0)
(-2.25483e-10 0 0)
(-1.35465e-10 0 0)
(-9.62916e-11 0 0)
(-1.27904e-10 0 0)
(-9.76148e-11 0 0)
(-5.49474e-11 0 0)
(-2.49287e-11 0 0)
(4.85222e-11 0 0)
(1.16975e-10 0 0)
(1.12852e-10 0 0)
(1.3445e-10 0 0)
(1.33963e-10 0 0)
(1.21082e-10 0 0)
(1.20733e-10 0 0)
(9.61782e-11 0 0)
(9.59449e-11 0 0)
(1.36413e-10 0 0)
(1.6939e-10 0 0)
(1.63697e-10 0 0)
(1.43025e-10 0 0)
(8.35587e-11 0 0)
(6.05216e-11 0 0)
(6.52343e-11 0 0)
(1.02385e-10 0 0)
(1.54902e-10 0 0)
(1.53249e-10 0 0)
(8.99237e-11 0 0)
(9.30253e-13 0 0)
(-4.90014e-11 0 0)
(-8.34605e-11 0 0)
(-1.63019e-10 0 0)
(-1.50844e-10 0 0)
(-1.39597e-10 0 0)
(-1.29557e-10 0 0)
(-7.2438e-11 0 0)
(-3.99877e-11 0 0)
(-5.04871e-11 0 0)
(-9.17238e-11 0 0)
(-8.27522e-11 0 0)
(-1.42038e-10 0 0)
(-1.93327e-10 0 0)
(-1.41318e-10 0 0)
(-8.12775e-11 0 0)
(-7.51009e-11 0 0)
(-4.9517e-11 0 0)
(-8.62707e-11 0 0)
(-8.56229e-11 0 0)
(-2.05474e-11 0 0)
(-1.90444e-11 0 0)
(-3.14881e-11 0 0)
(-7.2761e-11 0 0)
(-1.21109e-10 0 0)
(-1.45525e-10 0 0)
(-7.49389e-11 0 0)
(-1.20124e-11 0 0)
(2.53761e-12 0 0)
(2.01791e-12 0 0)
(3.54897e-11 0 0)
(8.31366e-11 0 0)
(1.04284e-10 0 0)
(7.68435e-11 0 0)
(9.05918e-11 0 0)
(1.31557e-10 0 0)
(1.86682e-10 0 0)
(2.88515e-10 0 0)
(3.56375e-10 0 0)
(2.17e-10 0 0)
(1.47967e-10 0 0)
(8.76224e-11 0 0)
(-1.68549e-11 0 0)
(-6.06538e-11 0 0)
(-1.32852e-10 0 0)
(-2.39208e-10 0 0)
(-3.26823e-10 0 0)
(-4.06897e-10 0 0)
(-4.60735e-10 0 0)
(-6.18879e-10 0 0)
(-8.16644e-10 0 0)
(-1.00083e-09 0 0)
(-1.18067e-09 0 0)
(-1.32844e-09 0 0)
(-1.31575e-09 0 0)
(-1.33748e-09 0 0)
(-9.776e-10 0 0)
(5.60021e-07 0 0)
(8.3231e-05 0 0)
(0.00167052 0 0)
(0.0084989 0 0)
(0.0194259 0 0)
(0.0299352 0 0)
(0.0385642 0 0)
(0.0457052 0 0)
(0.0519458 0 0)
(0.0576905 0 0)
(0.0631745 0 0)
(0.0685249 0 0)
(0.0738067 0 0)
(0.0790516 0 0)
(0.084275 0 0)
(0.0894841 0 0)
(0.0946828 0 0)
(0.0998732 0 0)
(0.105057 0 0)
(0.110235 0 0)
(0.115408 0 0)
(0.120577 0 0)
(0.125743 0 0)
(0.130906 0 0)
(0.136066 0 0)
(0.141224 0 0)
(0.146379 0 0)
(0.151534 0 0)
(0.156687 0 0)
(0.161838 0 0)
(0.166989 0 0)
(0.172138 0 0)
(0.177287 0 0)
(0.182435 0 0)
(0.187582 0 0)
(0.192729 0 0)
(0.197875 0 0)
(0.203021 0 0)
(0.208166 0 0)
(0.213311 0 0)
(0.218456 0 0)
(0.2236 0 0)
(0.228744 0 0)
(0.233888 0 0)
(0.239032 0 0)
(0.244176 0 0)
(0.249319 0 0)
(0.254462 0 0)
(0.259606 0 0)
(0.264749 0 0)
(0.269892 0 0)
(0.275035 0 0)
(0.280178 0 0)
(0.285322 0 0)
(0.290465 0 0)
(0.295608 0 0)
(0.300751 0 0)
(0.305894 0 0)
(0.311037 0 0)
(0.316181 0 0)
(0.321324 0 0)
(0.326467 0 0)
(0.331611 0 0)
(0.336755 0 0)
(0.341898 0 0)
(0.347042 0 0)
(0.352186 0 0)
(0.35733 0 0)
(0.362475 0 0)
(0.367619 0 0)
(0.372764 0 0)
(0.377909 0 0)
(0.383053 0 0)
(0.388199 0 0)
(0.393344 0 0)
(0.398489 0 0)
(0.403635 0 0)
(0.408781 0 0)
(0.413927 0 0)
(0.419074 0 0)
(0.42422 0 0)
(0.429367 0 0)
(0.434514 0 0)
(0.439662 0 0)
(0.44481 0 0)
(0.449958 0 0)
(0.455106 0 0)
(0.460254 0 0)
(0.465403 0 0)
(0.470553 0 0)
(0.475702 0 0)
(0.480852 0 0)
(0.486002 0 0)
(0.491153 0 0)
(0.496304 0 0)
(0.501455 0 0)
(0.506606 0 0)
(0.511758 0 0)
(0.516911 0 0)
(0.522063 0 0)
(0.527217 0 0)
(0.53237 0 0)
(0.537524 0 0)
(0.542678 0 0)
(0.547833 0 0)
(0.552988 0 0)
(0.558144 0 0)
(0.5633 0 0)
(0.568456 0 0)
(0.573613 0 0)
(0.57877 0 0)
(0.583928 0 0)
(0.589086 0 0)
(0.594245 0 0)
(0.599404 0 0)
(0.604563 0 0)
(0.609723 0 0)
(0.614884 0 0)
(0.620044 0 0)
(0.625206 0 0)
(0.630367 0 0)
(0.635529 0 0)
(0.640692 0 0)
(0.645855 0 0)
(0.651018 0 0)
(0.656182 0 0)
(0.661346 0 0)
(0.666511 0 0)
(0.671676 0 0)
(0.676841 0 0)
(0.682007 0 0)
(0.687173 0 0)
(0.692339 0 0)
(0.697506 0 0)
(0.702673 0 0)
(0.70784 0 0)
(0.713008 0 0)
(0.718175 0 0)
(0.723344 0 0)
(0.728512 0 0)
(0.73368 0 0)
(0.738849 0 0)
(0.744018 0 0)
(0.749187 0 0)
(0.754356 0 0)
(0.759525 0 0)
(0.764694 0 0)
(0.769863 0 0)
(0.775032 0 0)
(0.780201 0 0)
(0.78537 0 0)
(0.790539 0 0)
(0.795708 0 0)
(0.800877 0 0)
(0.806045 0 0)
(0.811214 0 0)
(0.816382 0 0)
(0.82155 0 0)
(0.826717 0 0)
(0.831885 0 0)
(0.837052 0 0)
(0.842219 0 0)
(0.847385 0 0)
(0.852552 0 0)
(0.857718 0 0)
(0.862883 0 0)
(0.868049 0 0)
(0.873215 0 0)
(0.878382 0 0)
(0.88355 0 0)
(0.88872 0 0)
(0.893892 0 0)
(0.899066 0 0)
(0.904234 0 0)
(0.909373 0 0)
(0.914422 0 0)
(0.919235 0 0)
(0.923532 0 0)
(0.926895 0 0)
(0.928969 0 0)
(0.929812 0 0)
(0.929961 0 0)
(0.929766 0 0)
(0.929502 0 0)
(0.929479 0 0)
(0.929746 0 0)
(0.929995 0 0)
(0.930059 0 0)
(0.930056 0 0)
(0.929975 0 0)
(0.92987 0 0)
(0.929778 0 0)
(0.929686 0 0)
(0.929598 0 0)
(0.929517 0 0)
(0.929428 0 0)
(0.929313 0 0)
(0.929183 0 0)
(0.929074 0 0)
(0.929002 0 0)
(0.928961 0 0)
(0.928939 0 0)
(0.928925 0 0)
(0.928905 0 0)
(0.928856 0 0)
(0.928772 0 0)
(0.928685 0 0)
(0.92862 0 0)
(0.928578 0 0)
(0.928551 0 0)
(0.92853 0 0)
(0.928506 0 0)
(0.928472 0 0)
(0.928434 0 0)
(0.92841 0 0)
(0.928402 0 0)
(0.928406 0 0)
(0.928446 0 0)
(0.928528 0 0)
(0.928614 0 0)
(0.92868 0 0)
(0.928722 0 0)
(0.928749 0 0)
(0.928769 0 0)
(0.928787 0 0)
(0.928805 0 0)
(0.928826 0 0)
(0.928849 0 0)
(0.928869 0 0)
(0.928879 0 0)
(0.92888 0 0)
(0.928868 0 0)
(0.92885 0 0)
(0.928833 0 0)
(0.928819 0 0)
(0.928808 0 0)
(0.928802 0 0)
(0.928797 0 0)
(0.92878 0 0)
(0.928746 0 0)
(0.928713 0 0)
(0.928691 0 0)
(0.928675 0 0)
(0.928663 0 0)
(0.928656 0 0)
(0.92865 0 0)
(0.928633 0 0)
(0.928595 0 0)
(0.928558 0 0)
(0.928543 0 0)
(0.92854 0 0)
(0.928544 0 0)
(0.928566 0 0)
(0.92861 0 0)
(0.92865 0 0)
(0.928673 0 0)
(0.928685 0 0)
(0.928697 0 0)
(0.928712 0 0)
(0.928728 0 0)
(0.928746 0 0)
(0.928768 0 0)
(0.928787 0 0)
(0.928792 0 0)
(0.928788 0 0)
(0.928783 0 0)
(0.928786 0 0)
(0.928792 0 0)
(0.928798 0 0)
(0.928803 0 0)
(0.928811 0 0)
(0.928811 0 0)
(0.928787 0 0)
(0.928759 0 0)
(0.928745 0 0)
(0.928735 0 0)
(0.928724 0 0)
(0.928718 0 0)
(0.928722 0 0)
(0.928723 0 0)
(0.928702 0 0)
(0.92867 0 0)
(0.928652 0 0)
(0.928643 0 0)
(0.928629 0 0)
(0.928616 0 0)
(0.928617 0 0)
(0.928627 0 0)
(0.928628 0 0)
(0.928615 0 0)
(0.928614 0 0)
(0.928636 0 0)
(0.928667 0 0)
(0.928688 0 0)
(0.928716 0 0)
(0.928751 0 0)
(0.928764 0 0)
(0.928751 0 0)
(0.928736 0 0)
(0.928742 0 0)
(0.928758 0 0)
(0.928764 0 0)
(0.928771 0 0)
(0.928796 0 0)
(0.928809 0 0)
(0.928791 0 0)
(0.928761 0 0)
(0.928765 0 0)
(0.928778 0 0)
(0.928771 0 0)
(0.928761 0 0)
(0.928772 0 0)
(0.928787 0 0)
(0.928762 0 0)
(0.928708 0 0)
(0.928697 0 0)
(0.928712 0 0)
(0.928705 0 0)
(0.928686 0 0)
(0.928688 0 0)
(0.928717 0 0)
(0.928716 0 0)
(0.928653 0 0)
(0.928607 0 0)
(0.928629 0 0)
(0.928625 0 0)
(0.928613 0 0)
(0.928624 0 0)
(0.928671 0 0)
(0.928705 0 0)
(0.928666 0 0)
(0.92866 0 0)
(0.928719 0 0)
(0.92879 0 0)
(0.928911 0 0)
(0.929215 0 0)
(0.929544 0 0)
(0.929946 0 0)
(0.932228 0 0)
(0.928287 0 0)
(0.924717 0 0)
(0.927287 0 0)
(0.928677 0 0)
(0.930403 0 0)
(0.931565 0 0)
(0.931338 0 0)
(0.930297 0 0)
(0.928875 0 0)
(0.927653 0 0)
(0.926699 0 0)
(0.926192 0 0)
(0.926457 0 0)
(0.927866 0 0)
(0.930183 0 0)
(0.931219 0 0)
(0.931246 0 0)
(0.931012 0 0)
(0.930047 0 0)
(0.928123 0 0)
(0.926566 0 0)
(0.926252 0 0)
(0.926524 0 0)
(0.927107 0 0)
(0.928497 0 0)
(0.930358 0 0)
(0.930956 0 0)
(0.930933 0 0)
(0.930608 0 0)
(0.929356 0 0)
(0.927414 0 0)
(0.926561 0 0)
(0.926384 0 0)
(0.926514 0 0)
(0.927421 0 0)
(0.929342 0 0)
(0.930597 0 0)
(0.93075 0 0)
(0.930717 0 0)
(0.930181 0 0)
(0.928746 0 0)
(0.927048 0 0)
(0.926549 0 0)
(0.926675 0 0)
(0.927058 0 0)
(0.92815 0 0)
(0.929825 0 0)
(0.930621 0 0)
(0.930684 0 0)
(0.930466 0 0)
(0.929778 0 0)
(0.928238 0 0)
(0.927036 0 0)
(0.926861 0 0)
(0.926939 0 0)
(0.927433 0 0)
(0.928824 0 0)
(0.930198 0 0)
(0.930538 0 0)
(0.930592 0 0)
(0.930298 0 0)
(0.929254 0 0)
(0.927644 0 0)
(0.927037 0 0)
(0.927031 0 0)
(0.927194 0 0)
(0.92788 0 0)
(0.929285 0 0)
(0.930291 0 0)
(0.930427 0 0)
(0.930273 0 0)
(0.929827 0 0)
(0.928665 0 0)
(0.927405 0 0)
(0.927138 0 0)
(0.92716 0 0)
(0.927396 0 0)
(0.928255 0 0)
(0.929569 0 0)
(0.930121 0 0)
(0.930183 0 0)
(0.930045 0 0)
(0.929413 0 0)
(0.928097 0 0)
(0.927301 0 0)
(0.927211 0 0)
(0.927255 0 0)
(0.927646 0 0)
(0.928657 0 0)
(0.929778 0 0)
(0.930072 0 0)
(0.930021 0 0)
(0.929789 0 0)
(0.929045 0 0)
(0.927909 0 0)
(0.927424 0 0)
(0.927403 0 0)
(0.927546 0 0)
(0.928016 0 0)
(0.929074 0 0)
(0.929891 0 0)
(0.930003 0 0)
(0.929961 0 0)
(0.929662 0 0)
(0.928771 0 0)
(0.927816 0 0)
(0.927584 0 0)
(0.927564 0 0)
(0.927738 0 0)
(0.928355 0 0)
(0.929397 0 0)
(0.929873 0 0)
(0.929878 0 0)
(0.929786 0 0)
(0.929383 0 0)
(0.928493 0 0)
(0.927748 0 0)
(0.927603 0 0)
(0.927682 0 0)
(0.927921 0 0)
(0.928603 0 0)
(0.929459 0 0)
(0.929678 0 0)
(0.929663 0 0)
(0.929533 0 0)
(0.929126 0 0)
(0.928599 0 0)
(0.927978 0 0)
(0.924916 0 0)
(0.890421 0 0)
(0.632312 0 0)
(0.11014 0 0)
(0.000936811 0 0)
(1.7575e-07 0 0)
(-1.39768e-10 0 0)
(-6.93094e-11 0 0)
(1.04359e-10 0 0)
(2.06112e-10 0 0)
(1.94482e-10 0 0)
(1.71973e-10 0 0)
(1.47663e-10 0 0)
(7.67937e-11 0 0)
(-5.26779e-11 0 0)
(-2.18449e-10 0 0)
(-3.26855e-10 0 0)
(-3.63684e-10 0 0)
(-3.47042e-10 0 0)
(-2.80988e-10 0 0)
(-2.07507e-10 0 0)
(-1.15341e-10 0 0)
(-6.81912e-12 0 0)
(3.52105e-11 0 0)
(7.02136e-11 0 0)
(7.95871e-11 0 0)
(6.32006e-11 0 0)
(9.53675e-11 0 0)
(1.8809e-10 0 0)
(2.58074e-10 0 0)
(2.38272e-10 0 0)
(1.47494e-10 0 0)
(9.23298e-11 0 0)
(7.66203e-12 0 0)
(-4.00758e-11 0 0)
(-6.6729e-11 0 0)
(-6.21648e-11 0 0)
(5.90871e-13 0 0)
(9.4241e-11 0 0)
(1.82703e-10 0 0)
(2.84582e-10 0 0)
(1.92163e-10 0 0)
(6.69335e-11 0 0)
(1.83663e-11 0 0)
(-5.7111e-11 0 0)
(-9.12361e-11 0 0)
(-1.31008e-10 0 0)
(-1.42393e-10 0 0)
(-1.72139e-10 0 0)
(-1.95067e-10 0 0)
(-1.60779e-10 0 0)
(-1.54277e-10 0 0)
(-1.25725e-10 0 0)
(-8.21227e-11 0 0)
(-4.53238e-11 0 0)
(-1.25698e-11 0 0)
(1.0598e-10 0 0)
(2.28347e-10 0 0)
(2.77864e-10 0 0)
(2.65665e-10 0 0)
(3.21996e-10 0 0)
(3.6751e-10 0 0)
(3.25838e-10 0 0)
(1.80651e-10 0 0)
(8.76109e-11 0 0)
(8.83615e-11 0 0)
(1.38732e-10 0 0)
(1.36023e-10 0 0)
(1.25011e-10 0 0)
(1.347e-10 0 0)
(1.63277e-10 0 0)
(1.67624e-10 0 0)
(2.00674e-10 0 0)
(1.50023e-10 0 0)
(5.13542e-11 0 0)
(4.0884e-11 0 0)
(-9.64628e-12 0 0)
(-1.41133e-10 0 0)
(-2.34332e-10 0 0)
(-2.56779e-10 0 0)
(-2.52515e-10 0 0)
(-2.72011e-10 0 0)
(-2.59203e-10 0 0)
(-2.61238e-10 0 0)
(-2.74821e-10 0 0)
(-1.93479e-10 0 0)
(-1.19305e-10 0 0)
(-1.33604e-10 0 0)
(-1.873e-10 0 0)
(-2.4372e-10 0 0)
(-3.05767e-10 0 0)
(-3.31608e-10 0 0)
(-2.84688e-10 0 0)
(-1.97819e-10 0 0)
(-1.88009e-10 0 0)
(-2.51456e-10 0 0)
(-2.856e-10 0 0)
(-2.38416e-10 0 0)
(-2.10221e-10 0 0)
(-1.8724e-10 0 0)
(-7.60952e-11 0 0)
(8.04083e-11 0 0)
(1.08732e-10 0 0)
(3.39141e-11 0 0)
(-3.23555e-11 0 0)
(-7.18284e-11 0 0)
(-1.17233e-10 0 0)
(-1.96697e-10 0 0)
(-2.38317e-10 0 0)
(-1.83612e-10 0 0)
(-8.74515e-11 0 0)
(4.5318e-11 0 0)
(1.01802e-10 0 0)
(1.5329e-10 0 0)
(2.52802e-10 0 0)
(2.38824e-10 0 0)
(1.90714e-10 0 0)
(1.02754e-10 0 0)
(-1.19963e-11 0 0)
(-5.13694e-11 0 0)
(6.36514e-12 0 0)
)
;

boundaryField
{
    left
    {
        type            noSlip;
    }
    right
    {
        type            noSlip;
    }
    empty
    {
        type            empty;
    }
}


// ************************************************************************* //
