/*--------------------------------*- C++ -*----------------------------------*\
| =========                 |                                                 |
| \\      /  F ield         | OpenFOAM: The Open Source CFD Toolbox           |
|  \\    /   O peration     | Version:  2106                                  |
|   \\  /    A nd           | Website:  www.openfoam.com                      |
|    \\/     M anipulation  |                                                 |
\*---------------------------------------------------------------------------*/
FoamFile
{
    version     2.0;
    format      ascii;
    arch        "LSB;label=32;scalar=64";
    class       surfaceScalarField;
    location    "0.011";
    object      phi;
}
// * * * * * * * * * * * * * * * * * * * * * * * * * * * * * * * * * * * * * //

dimensions      [0 3 -1 0 0 0 0];

oriented        oriented;

internalField   nonuniform List<scalar> 
799
(
2.10611e-32
5.21034e-32
6.85014e-32
6.08383e-32
3.87524e-32
-2.49528e-32
-8.14277e-32
-1.24442e-31
-1.31672e-31
-9.11446e-32
-3.26313e-32
3.22961e-32
7.33586e-32
8.56176e-32
6.64741e-32
2.96093e-32
-1.8999e-32
-6.91529e-32
-1.07005e-31
-1.3259e-31
-1.22119e-31
-8.37582e-32
-2.04013e-32
5.24771e-32
9.50958e-32
1.06136e-31
6.63265e-32
-2.52327e-33
-6.71303e-32
-1.18114e-31
-1.19444e-31
-9.06993e-32
-4.30039e-32
1.33333e-32
3.94317e-32
5.16497e-32
3.55189e-32
-1.379e-33
-3.03259e-32
-6.61484e-32
-7.43063e-32
-6.10682e-32
-3.69026e-32
1.04647e-32
3.63127e-32
4.71778e-32
3.17929e-32
-1.6683e-32
-5.6192e-32
-9.2076e-32
-9.36378e-32
-5.94584e-32
-1.59744e-32
3.86064e-32
6.32707e-32
5.73405e-32
2.44398e-32
-3.44726e-32
-7.97215e-32
-1.04739e-31
-9.14636e-32
-3.82252e-32
2.39453e-32
7.89248e-32
9.17691e-32
5.10334e-32
-2.27696e-32
-1.0631e-31
-1.51774e-31
-1.34307e-31
-6.29837e-32
3.86984e-32
1.15066e-31
1.31517e-31
8.43542e-32
-9.50871e-33
-9.61039e-32
-1.40825e-31
-1.29405e-31
-7.02423e-32
-4.08903e-33
4.48234e-32
6.00918e-32
4.49855e-32
2.07637e-32
-5.29029e-33
-2.49829e-32
-4.32424e-32
-6.367e-32
-7.60637e-32
-7.42336e-32
-4.32522e-32
9.15362e-33
6.24016e-32
9.48987e-32
7.5838e-32
1.70719e-32
-6.48849e-32
-1.3443e-31
-1.47979e-31
-1.12893e-31
-2.73091e-32
6.33292e-32
1.16376e-31
1.2522e-31
6.70901e-32
-1.23594e-32
-8.63302e-32
-1.3043e-31
-1.136e-31
-6.99319e-32
-7.34223e-33
3.91325e-32
4.75494e-32
3.59421e-32
5.16089e-33
-1.18415e-32
-9.50157e-33
3.08544e-33
1.6832e-32
6.77165e-33
-2.38542e-32
-6.55121e-32
-9.64492e-32
-9.51394e-32
-6.05735e-32
-1.29925e-33
5.80668e-32
9.57971e-32
1.0108e-31
7.1063e-32
1.86213e-32
-4.24006e-32
-9.77808e-32
-1.29699e-31
-1.32487e-31
-9.88194e-32
-3.47223e-32
3.89822e-32
1.03728e-31
1.28988e-31
1.06399e-31
4.31699e-32
-4.10453e-32
-1.05907e-31
-1.32423e-31
-1.08947e-31
-4.8729e-32
1.39735e-32
5.72513e-32
5.80017e-32
2.33925e-32
-2.36544e-32
-6.07932e-32
-6.13695e-32
-2.85248e-32
2.22227e-32
6.38852e-32
6.66357e-32
2.65282e-32
-4.4656e-32
-1.11574e-31
-1.38598e-31
-1.07784e-31
-2.7693e-32
6.15599e-32
1.19535e-31
1.11496e-31
4.48591e-32
-4.52458e-32
-1.16165e-31
-1.23225e-31
-7.70056e-32
2.80873e-34
6.27763e-32
6.89994e-32
3.28307e-32
-3.62571e-32
-8.60838e-32
-8.84799e-32
-5.24823e-32
1.82298e-32
6.74196e-32
8.05789e-32
5.12117e-32
-1.64592e-32
-7.27355e-32
-1.09514e-31
-1.02165e-31
-5.54517e-32
-4.72455e-34
5.50747e-32
7.76917e-32
6.87237e-32
3.67176e-32
-1.23117e-32
-5.04265e-32
-7.51955e-32
-7.95526e-32
-6.25529e-32
-3.67492e-32
-2.01094e-33
3.0922e-32
5.25546e-32
5.8865e-32
3.93793e-32
-6.27432e-34
-4.73162e-32
-8.42316e-32
-8.76659e-32
-5.39591e-32
3.83663e-33
6.0742e-32
8.14759e-32
5.26927e-32
-1.5418e-32
-9.09942e-32
-1.28541e-31
-1.02833e-31
-2.05187e-32
8.21349e-32
1.48632e-31
1.38529e-31
5.18098e-32
-7.74675e-32
-1.82377e-31
-2.07498e-31
-1.40668e-31
-4.62976e-33
1.29159e-31
1.97388e-31
1.72118e-31
5.84088e-32
-7.83612e-32
-1.78614e-31
-2.00405e-31
-1.3123e-31
-1.92954e-32
8.95241e-32
1.46681e-31
1.27917e-31
5.78223e-32
-3.45611e-32
-1.04139e-31
-1.22223e-31
-9.15919e-32
-2.92982e-32
3.03469e-32
5.8306e-32
4.5148e-32
5.10522e-33
-3.76911e-32
-5.27332e-32
-2.93133e-32
1.37298e-32
5.43778e-32
5.65291e-32
1.26795e-32
-5.26065e-32
-1.11594e-31
-1.20742e-31
-7.23352e-32
7.7609e-33
8.69386e-32
1.18342e-31
8.95949e-32
2.31419e-32
-5.34506e-32
-9.81622e-32
-9.66636e-32
-6.66432e-32
-2.07255e-32
1.03227e-32
1.96227e-32
2.11461e-32
1.21219e-32
1.071e-32
9.89371e-33
-7.67363e-35
-9.05333e-33
-2.49121e-32
-3.12813e-32
-2.64815e-32
-2.19328e-32
-1.86432e-32
-2.99785e-32
-4.50634e-32
-4.75596e-32
-2.57307e-32
2.20777e-32
7.21122e-32
9.31428e-32
6.07044e-32
-1.76783e-32
-1.10233e-31
-1.65365e-31
-1.48199e-31
-6.52695e-32
4.98185e-32
1.30789e-31
1.39287e-31
7.27031e-32
-3.68003e-32
-1.2186e-31
-1.48119e-31
-1.03892e-31
-1.99424e-32
4.79617e-32
7.36347e-32
4.31108e-32
-1.27892e-32
-5.49597e-32
-6.55614e-32
-3.58208e-32
2.23372e-33
2.32398e-32
1.49142e-32
-2.33735e-32
-5.78682e-32
-7.10909e-32
-5.19144e-32
-6.59951e-33
2.979e-32
4.31495e-32
1.88349e-32
-3.16193e-32
-7.32717e-32
-9.17134e-32
-6.48194e-32
-8.67797e-33
4.44213e-32
7.46633e-32
4.94227e-32
-1.34196e-32
-8.94053e-32
-1.47914e-31
-1.47084e-31
-9.88619e-32
-1.673e-32
5.59688e-32
6.60677e-32
-8.54631e-34
-1.42496e-31
-3.55184e-31
-4.20701e-31
-3.89244e-31
4.5643e-31
2.35356e-30
5.43116e-30
1.17584e-29
1.3881e-29
1.60972e-29
-1.55566e-30
-4.48968e-29
-9.68682e-29
-2.03063e-28
-1.9431e-28
-1.34127e-28
1.5328e-28
7.96898e-28
1.16165e-27
1.80353e-27
1.04132e-27
-7.77157e-28
-3.05305e-27
-7.56003e-27
-7.231e-27
-5.94924e-27
1.72956e-27
1.6857e-26
2.26481e-26
3.30284e-26
1.66273e-26
-1.36325e-26
-4.10293e-26
-9.05181e-26
-7.13454e-26
-4.22182e-26
3.15464e-26
1.54601e-25
1.62711e-25
1.91973e-25
5.4286e-26
-1.45626e-25
-2.41588e-25
-4.15737e-25
-2.3655e-25
-3.16698e-26
2.19127e-25
5.89169e-25
4.55129e-25
3.83007e-25
-3.71112e-26
-5.44029e-25
-5.80077e-25
-7.54279e-25
-2.54605e-25
2.23601e-25
5.06821e-25
9.15265e-25
5.06831e-25
2.23616e-25
-2.54592e-25
-7.54274e-25
-5.80082e-25
-5.44041e-25
-3.7125e-26
3.82998e-25
4.55128e-25
5.89173e-25
2.19135e-25
-3.16636e-26
-2.36548e-25
-4.15738e-25
-2.41593e-25
-1.4563e-25
5.42829e-26
1.91972e-25
1.62711e-25
1.54601e-25
3.15473e-26
-4.22179e-26
-7.13454e-26
-9.05182e-26
-4.10297e-26
-1.36327e-26
1.6627e-26
3.3028e-26
2.26478e-26
1.68567e-26
1.72941e-27
-5.94931e-27
-7.23099e-27
-7.55997e-27
-3.05302e-27
-7.77155e-28
1.04125e-27
1.80342e-27
1.16153e-27
7.96774e-28
1.53216e-28
-1.34124e-28
-1.94218e-28
-2.02918e-28
-9.67353e-29
-4.48218e-29
-1.59976e-30
1.59572e-29
1.36951e-29
1.16004e-29
5.3877e-30
2.43347e-30
6.43404e-31
-1.67584e-31
-2.52398e-31
-2.84024e-31
-1.94368e-31
-1.40972e-31
-1.01766e-31
-8.50253e-32
-7.15498e-32
-5.16781e-32
-1.16067e-32
4.14877e-32
8.39946e-32
9.53696e-32
6.12111e-32
-9.00372e-33
-7.97485e-32
-1.23669e-31
-1.14021e-31
-5.73129e-32
1.71423e-32
8.38156e-32
1.06944e-31
8.89106e-32
3.75442e-32
-2.65131e-32
-7.15182e-32
-9.13116e-32
-7.20027e-32
-2.47858e-32
3.07229e-32
7.76112e-32
8.90351e-32
6.04539e-32
1.99514e-33
-6.36505e-32
-1.02026e-31
-9.05127e-32
-3.51994e-32
4.54451e-32
1.08379e-31
1.18734e-31
7.76752e-32
-7.95349e-33
-8.67993e-32
-1.22525e-31
-1.04505e-31
-2.79473e-32
5.53607e-32
1.1473e-31
1.22912e-31
6.69732e-32
-1.34529e-32
-9.26955e-32
-1.29062e-31
-1.0078e-31
-2.59301e-32
7.1461e-32
1.42159e-31
1.4939e-31
8.79006e-32
-2.21076e-32
-1.30314e-31
-1.816e-31
-1.51207e-31
-4.71917e-32
8.348e-32
1.7572e-31
1.90351e-31
1.1804e-31
-2.6474e-33
-1.13991e-31
-1.68021e-31
-1.4381e-31
-6.40793e-32
3.37263e-32
1.01548e-31
1.1962e-31
8.87259e-32
2.72e-32
-2.87565e-32
-6.76505e-32
-6.99974e-32
-4.60019e-32
-1.04798e-32
2.8228e-32
4.10103e-32
3.83651e-32
1.37328e-32
-1.62013e-32
-2.56585e-32
-2.42998e-32
5.57918e-33
3.21061e-32
3.91852e-32
2.82517e-32
-1.64471e-32
-5.14189e-32
-6.75956e-32
-5.30639e-32
-9.26854e-34
4.48375e-32
7.7069e-32
7.36277e-32
3.56839e-32
-3.16424e-33
-3.82854e-32
-4.86237e-32
-4.22245e-32
-3.91859e-32
-3.51106e-32
-3.67296e-32
-2.32468e-32
1.86996e-32
7.24263e-32
1.2338e-31
1.2712e-31
6.50618e-32
-4.16618e-32
-1.60911e-31
-2.18798e-31
-1.81982e-31
-5.91306e-32
1.11742e-31
2.3418e-31
2.57821e-31
1.62812e-31
-2.00626e-32
-1.8954e-31
-2.82725e-31
-2.45095e-31
-9.14064e-32
9.2331e-32
2.38648e-31
2.64633e-31
1.66988e-31
2.22761e-33
-1.65905e-31
-2.4171e-31
-2.0785e-31
-8.66977e-32
6.88351e-32
1.69683e-31
1.92446e-31
1.29802e-31
1.89975e-32
-7.53084e-32
-1.3326e-31
-1.29455e-31
-8.49802e-32
-2.93433e-32
2.82305e-32
6.07721e-32
7.83613e-32
7.75879e-32
5.70194e-32
2.9396e-32
-1.17512e-32
-4.74984e-32
-7.32884e-32
-8.23384e-32
-6.85439e-32
-4.21944e-32
-2.77003e-33
3.46998e-32
6.71946e-32
8.2607e-32
7.47381e-32
4.71868e-32
-3.1223e-33
-4.90796e-32
-8.60499e-32
-9.57308e-32
-7.18575e-32
-3.62376e-32
1.5087e-32
5.04942e-32
6.80485e-32
7.02332e-32
4.4489e-32
1.68684e-32
-2.08362e-32
-5.43297e-32
-6.89257e-32
-7.22555e-32
-4.65454e-32
-9.67667e-33
2.93524e-32
6.07601e-32
6.38145e-32
4.7835e-32
1.24305e-32
-2.65176e-32
-5.32885e-32
-6.4621e-32
-5.29428e-32
-2.7127e-32
5.12116e-33
3.26897e-32
4.5795e-32
3.97979e-32
1.93496e-32
-5.66494e-33
-2.49092e-32
-2.53185e-32
-1.69459e-32
-3.35895e-33
8.49929e-34
-1.2338e-32
-2.35896e-32
-3.06509e-32
-1.07009e-32
2.84998e-32
6.16599e-32
7.56093e-32
4.08282e-32
-2.07451e-32
-8.31731e-32
-1.13473e-31
-8.14781e-32
-1.07912e-32
7.38263e-32
1.22078e-31
1.07708e-31
4.33124e-32
-4.63322e-32
-1.05112e-31
-1.10655e-31
-6.04486e-32
1.96227e-32
7.91219e-32
9.68397e-32
5.92936e-32
-6.94388e-33
-6.19457e-32
-8.26723e-32
-5.07317e-32
8.3921e-33
6.37092e-32
8.82148e-32
6.08406e-32
2.66771e-33
-6.16751e-32
-1.01251e-31
-9.03464e-32
-4.10642e-32
3.01844e-32
9.26132e-32
1.14893e-31
9.70007e-32
4.08026e-32
-3.10203e-32
-8.73334e-32
-1.18566e-31
-1.07662e-31
-6.18946e-32
5.47733e-34
6.96021e-32
1.14643e-31
1.26609e-31
9.91147e-32
3.18478e-32
-4.65232e-32
-1.1716e-31
-1.48428e-31
-1.23244e-31
-5.21446e-32
4.62374e-32
1.26822e-31
1.56569e-31
1.22051e-31
3.31416e-32
-6.70765e-32
-1.35938e-31
-1.42215e-31
-8.23686e-32
1.14461e-32
9.55344e-32
1.30999e-31
1.00087e-31
2.38221e-32
-6.12506e-32
-1.14369e-31
-1.05974e-31
-4.92203e-32
3.2725e-32
9.75334e-32
1.09176e-31
7.44868e-32
1.05324e-35
-6.89544e-32
-9.79539e-32
-8.57896e-32
-2.39688e-32
4.05494e-32
8.29655e-32
9.10498e-32
4.81768e-32
-3.43207e-33
-5.21807e-32
-7.49901e-32
-5.58234e-32
-2.31164e-32
2.15907e-32
5.1979e-32
5.72174e-32
4.87727e-32
2.40785e-32
1.80603e-33
-1.15119e-32
-1.89554e-32
-1.70921e-32
-1.47898e-32
-1.66954e-32
-1.55808e-32
-1.54782e-32
-5.63099e-33
1.7292e-32
4.13609e-32
7.07298e-32
7.95649e-32
6.59278e-32
3.12023e-32
-2.6404e-32
-6.95231e-32
-9.47381e-32
-7.92113e-32
-2.49746e-32
3.9989e-32
1.04179e-31
1.28693e-31
1.14533e-31
6.38258e-32
1.3474e-33
-4.64365e-32
-6.56637e-32
-4.3028e-32
-1.09078e-32
3.93522e-32
6.12792e-32
6.34985e-32
5.80999e-32
1.49413e-32
7.22901e-33
-2.35407e-32
-2.80257e-32
-6.3708e-33
)
;

boundaryField
{
    left
    {
        type            calculated;
        value           uniform 0;
    }
    right
    {
        type            calculated;
        value           uniform 0;
    }
    empty
    {
        type            empty;
        value           nonuniform List<scalar> 0();
    }
}


// ************************************************************************* //
