/*--------------------------------*- C++ -*----------------------------------*\
| =========                 |                                                 |
| \\      /  F ield         | OpenFOAM: The Open Source CFD Toolbox           |
|  \\    /   O peration     | Version:  2106                                  |
|   \\  /    A nd           | Website:  www.openfoam.com                      |
|    \\/     M anipulation  |                                                 |
\*---------------------------------------------------------------------------*/
FoamFile
{
    version     2.0;
    format      ascii;
    arch        "LSB;label=32;scalar=64";
    class       volScalarField;
    location    "0.07";
    object      p;
}
// * * * * * * * * * * * * * * * * * * * * * * * * * * * * * * * * * * * * * //

dimensions      [0 2 -2 0 0 0 0];

internalField   nonuniform List<scalar> 
11200
(
153.795844786
150.867242581
149.753392514
149.226064396
148.85874181
148.563976269
148.302352461
148.053841966
147.809359375
147.564333693
147.316065124
147.062795097
146.803286761
146.536599129
146.261959785
145.978689798
145.686157877
145.383756286
145.070902755
144.747005624
144.411427128
144.063514464
143.702617809
143.328077187
142.939219492
142.535341074
142.115727278
141.679650003
141.226367128
140.755123146
140.265149911
139.755667269
139.225883019
138.674993084
138.102182677
137.506627408
136.887492909
136.243935339
135.575101901
134.88013118
134.158153433
133.408290794
132.629657403
131.821359487
130.98249535
130.11215516
129.209420436
128.273363223
127.303044939
126.297514868
125.255808189
124.176943282
123.059918016
121.90370482
120.707244395
119.469437832
118.189136737
116.865130776
115.496131869
114.080754263
112.617489456
111.104674634
109.540452544
107.922722198
106.249073992
104.516703212
102.722299717
100.861903708
98.9307116013
96.9228098746
94.8308131478
92.6453728921
90.3542865057
87.9413932137
85.3846523704
82.6524965603
79.6974845793
76.4474503501
72.7506107522
67.9924936079
152.00280319
150.644628537
149.853657348
149.353644676
148.962660661
148.638786219
148.354278165
148.089694668
147.834231206
147.581738458
147.328387173
147.071660844
146.809818731
146.541580249
146.2659409
145.98206246
145.68920558
145.386685704
145.073833277
144.749981179
144.414457701
144.066664568
143.705936031
143.331588081
142.942924154
142.539245421
142.119836206
141.683966346
141.230892344
140.759857715
140.270093295
139.760817239
139.231234884
138.680547416
138.107942643
137.512596295
136.893673702
136.250330924
135.581715209
134.886965257
134.165211489
133.415576254
132.637173998
131.829111398
130.990487363
130.120392831
129.217910274
128.282112896
127.312063575
126.306813481
125.265400216
124.186845178
123.070149949
121.914291515
120.718216203
119.48083211
118.200999608
116.877519285
115.509116622
114.094422748
112.631950479
111.120064424
109.556941385
107.940519117
106.268430362
104.537931905
102.74580885
100.888224165
98.960538713
96.9570681316
94.8707432656
92.6926048802
90.4111154126
88.0111417202
85.4722975875
82.766092617
79.8517372048
76.6713246669
73.1218811829
69.0070057206
151.007611889
150.353410979
149.801055027
149.363437675
148.991815747
148.669718398
148.380626413
148.110404599
147.849958116
147.593497541
147.337136464
147.078190876
146.814745661
146.545370239
146.268939685
145.984521566
145.69130273
145.388541499
145.075538574
144.751627449
144.416149114
144.068401676
143.70772411
143.333436426
142.944845863
142.541246816
142.121920624
141.686136283
141.233150368
140.76220711
140.2725388
139.763366509
139.233900443
138.683330914
138.110840879
137.515608494
136.896800738
136.253574905
135.585079219
134.890453188
134.168828021
133.419326938
132.641065428
131.833151439
130.994685445
130.124760285
129.222460725
128.286862758
127.317032751
126.312026209
125.270886049
124.192640147
123.076297973
121.920846164
120.725242912
119.488410915
118.209228421
116.886517842
115.519031429
114.105433416
112.644277125
111.133975988
109.57276665
107.958675427
106.289467237
104.562551509
102.77488548
100.922869715
99.0021892914
97.0076046343
94.9326646226
92.7693042243
90.5074260803
88.1341036046
85.6325987825
82.9810149573
80.1512931242
77.1116440413
73.8258791194
70.2704748502
150.457849154
150.094467439
149.694568837
149.325577791
148.987960948
148.679859601
148.394499507
148.123801733
147.861439267
147.602784891
147.344419569
147.083809941
146.819053598
146.548680104
146.271509861
145.986556768
145.692961262
145.389944613
145.076776691
144.752754078
144.417208538
144.069453962
143.708790016
143.334530181
142.945977193
142.542421894
142.123143399
141.687408881
141.234473348
140.763579626
140.273958423
139.764828511
139.235398128
138.684867615
138.112426412
137.517252633
136.89851056
136.255356234
135.586937759
134.892394954
134.170859778
133.421456634
132.643302593
131.835507588
130.997174515
130.127399157
129.225269869
128.289866947
127.32026207
126.315517238
125.274683277
124.196797664
123.080881544
121.925935833
120.730936269
119.494827136
118.216513359
116.89485065
115.52863281
114.11657505
112.657294722
111.149292869
109.590912902
107.980296969
106.315340435
104.593643215
102.812429613
100.968447243
99.0578423986
97.076004138
95.0173736001
92.8752168484
90.6412949541
88.3055525205
85.8558764602
83.2781255421
80.5574790782
77.6841183564
74.6615395154
71.5267307995
150.123799654
149.892003959
149.59059081
149.279612511
148.974771556
148.682747097
148.403771631
148.134647626
147.871691936
147.611614402
147.351653938
147.089571714
146.823573069
146.552206183
146.274271227
145.988748006
145.694740937
145.391438497
145.078083375
144.753951052
144.418338236
144.070542106
143.709871849
143.335629146
142.947109035
142.543597935
142.124372172
141.688697147
141.23582689
140.765003899
140.275459453
139.766413708
139.237075588
138.6866422
138.114299043
137.519218338
136.900568419
136.257507203
135.589185895
134.894746595
134.173323237
133.424042149
132.646022542
131.838376902
131.0002112
130.130624903
129.228710823
128.293554847
127.32423577
126.319824061
125.279380822
124.20195605
123.086586201
121.932290969
120.738069116
119.502893069
118.225701919
116.905391944
115.540804511
114.130716591
112.673827785
111.168729289
109.613879733
108.007586475
106.347956412
104.632847739
102.859812532
101.026028208
99.1282143955
97.1625356915
95.1244934122
93.0088194346
90.809399295
88.5193033196
86.1310927706
83.6377312412
81.0349857576
78.3272666245
75.5359431146
72.7117505495
149.920405799
149.744503649
149.503308032
149.235980667
148.958791559
148.682150996
148.410459536
148.143957289
147.881193163
147.620187159
147.358903892
147.095475176
146.82827373
146.555906305
146.277177178
145.991045675
145.696586938
145.392959192
145.079377823
144.755095499
144.419388031
144.071540986
143.710850982
143.336610792
142.948109002
142.544627423
142.125439024
141.689806825
141.236983249
140.766209717
140.276716228
139.767721429
139.238432971
138.688047671
138.115752595
137.520726205
136.902138331
136.259151088
135.590914164
134.896568894
134.175249704
133.42608484
132.648196155
131.840699307
131.002704069
130.133314559
129.23162937
128.296741451
127.327737613
126.32369845
125.283697323
124.206799057
123.092058171
121.938516417
120.745199447
119.51111255
118.235235519
116.91651699
115.553867475
114.146144002
112.692129579
111.190526652
109.639951626
108.03889017
106.385674822
104.678455429
102.915160951
101.093457581
99.2107052781
97.2639181828
95.2497398526
93.1644576111
91.004103797
88.7647343635
86.4430609163
84.0377304508
81.551819258
78.9975209271
76.40187902
73.8121622905
149.79728794
149.641680224
149.435377373
149.19881337
148.943335675
148.680053475
148.415437867
148.151927741
147.889794255
147.628209643
147.365839463
147.10120621
146.832878476
146.559545516
146.280032562
145.993289289
145.698368129
145.394400932
145.080577789
144.756129412
144.420313605
144.072403682
143.711682378
143.337433605
142.948939695
142.545477739
142.126317313
141.690719083
141.237933881
140.767202113
140.277753416
139.768806647
139.239570091
138.689242159
138.117011603
137.522057077
136.903547776
136.260641728
135.592488907
134.89823604
134.177021264
133.427975219
132.650222483
131.842882148
131.005068229
130.135890055
129.234452573
128.299856683
127.331198982
126.327571409
125.288061384
124.211751025
123.097715987
121.945023827
120.752731722
119.519883406
118.245504974
116.928599182
115.568140464
114.163070987
112.71228497
111.214625805
109.668865036
108.07369027
106.427689567
104.729333621
102.976958093
101.168749385
99.3027384635
97.3768123594
95.3887588948
93.3363744828
91.217685316
89.0313668005
86.77750159
84.4588733486
82.0830803311
79.6658137084
77.2340975514
74.8275082088
149.72320752
149.573197214
149.386440293
149.170332654
148.930623642
148.677799192
148.41915915
148.158418802
147.89705104
147.635129483
147.371912837
147.106276687
146.836978944
146.562796275
146.282582733
145.995285923
145.69994191
145.395661202
145.081612477
144.757007306
144.421087307
144.073112984
143.712356583
143.338094167
142.949602132
142.546153177
142.127013767
141.691442441
141.238688626
140.76799187
140.278581425
139.769676137
139.240484525
138.690205022
138.118026188
137.523126713
136.904675866
136.261835912
135.593762556
134.89960013
134.178487876
133.429559327
132.651942479
131.84476041
131.007131931
130.138172206
129.236993291
128.30270457
127.334413054
126.331223892
125.292240028
124.216562324
123.103289271
121.95151621
120.760334111
119.528827957
118.256074786
116.941141333
115.583080152
114.180923716
112.733682554
111.240335183
109.699827038
108.111061701
106.47289495
104.784131538
103.043526284
101.249794087
99.4016353534
97.4977886424
95.5371261105
93.5188230695
91.442646988
89.3094289553
87.1218122896
84.8853798229
82.6102482628
80.3131501986
78.0189415988
75.7598562513
149.680930764
149.531482758
149.355065632
149.151324854
148.921788894
148.676076966
148.421713699
148.163072784
147.902364503
147.640269807
147.376472311
147.110113119
146.840099111
146.56527958
146.284535451
145.996816125
145.701147289
145.396624391
145.082400441
144.757672716
144.421670585
144.073644743
143.712859285
143.338584721
142.950092754
142.546652684
142.127528617
141.691977486
141.239247679
140.768578144
140.279197843
139.770325596
139.241170129
138.690930254
138.11879516
137.523944799
136.905550548
136.2627756
135.594773985
134.900694362
134.179678722
133.430863305
132.653379453
131.846354395
131.00891206
130.1401739
129.239259657
128.305288029
127.337377271
126.334645856
125.296213204
124.221200328
123.108730236
121.957928066
120.767921013
119.537838091
118.266809719
116.953966953
115.59844025
114.199361079
112.755860097
111.267062625
109.732092981
108.150074744
106.520135042
104.841413872
103.113081114
101.334366708
99.504610263
97.6233428171
95.6904160316
93.7062064812
91.6719292017
89.590101434
87.4652110001
85.3046193337
83.1196775375
80.9269456694
78.7486571653
76.6112128221
149.661654332
149.511776029
149.339811343
149.141873058
148.917308125
148.67518516
148.423046376
148.16553455
147.905205546
147.643043447
147.378952469
147.112215795
146.841822208
146.566662181
146.285632767
145.997685437
145.701840954
145.397186992
145.082868285
144.758074484
144.422028432
144.07397567
143.713175537
143.338895849
142.950405713
142.546972626
142.127859485
141.692322435
141.239609398
140.768959156
140.279600655
139.770752904
139.241625028
138.691416456
138.119317216
137.524508269
136.90616187
136.263441754
135.595505139
134.901502149
134.18057704
133.431869018
132.654513041
131.847640719
131.01038132
130.141862807
129.241212814
128.307559594
127.340033003
126.337765641
125.299894084
124.225560155
123.113912093
121.964105631
120.775305111
119.546684749
118.277430082
116.966739537
115.613825753
114.217917857
112.778268381
111.294149222
109.764863325
108.189753812
106.568215378
104.899714126
103.183817607
101.420240349
99.6089085152
97.7500610294
95.8444007892
93.8933102333
91.8991597701
89.8657283812
87.7987691294
85.7067019492
83.6013621198
81.4986625484
79.4184885944
77.3829872763
149.661657378
149.511792521
149.339838748
149.141909667
148.917353174
148.675237779
148.423105624
148.165599567
147.905275615
147.643117992
147.379031031
147.112298017
146.841907825
146.566751023
146.285724751
145.997780581
145.701939283
145.39728857
145.08297322
144.758182955
144.422140693
144.074092093
143.713296559
143.339021953
142.950537484
142.547110788
142.128004946
141.692476321
141.239773083
140.76913419
140.279789002
139.770956998
139.241847838
138.691661601
138.119589063
137.524812067
136.906504021
136.26383049
135.595949992
134.902014694
134.181171356
133.432562195
132.65532581
131.848598244
131.011514182
130.14320818
129.242815877
128.309475217
127.342327805
126.340520497
125.303207187
124.229550702
123.11872474
121.969915895
120.782325959
119.555174611
118.287702507
116.979174896
115.628885665
114.236160569
112.800369849
111.320937052
109.797336847
108.229121151
106.615938346
104.957560305
103.253921953
101.505175586
99.7117732918
97.8746264545
95.9951708113
94.0755506125
92.1190023976
90.1301962574
88.1156908527
86.0844600207
84.0484002913
82.0226872924
80.025419535
78.075901034
149.680939987
149.53153265
149.355148485
149.151435437
148.921924866
148.676235575
148.421892059
148.163268345
147.90257514
147.640493796
147.376708283
147.110360008
146.840356136
146.565546247
146.284811532
145.99710161
145.701442288
145.396929108
145.082715205
144.757998054
144.422007232
144.073993788
143.713222008
143.338962581
142.950487496
142.547066462
142.127964106
141.692437975
141.239737164
140.769101436
140.279760804
139.770935384
139.241835515
138.691662016
138.119606509
137.524851818
136.906572487
136.263935433
135.596100777
134.902222735
134.181450533
133.432929359
132.655801411
131.849207116
131.012286509
130.144180661
129.24403311
128.310991359
127.344208601
126.342845748
125.306073749
124.233076105
123.12305153
121.9752169
120.788810698
119.563097065
118.297370508
116.990961423
115.643242748
114.253637223
112.821625235
111.346763129
109.828700103
108.267190985
106.662127907
105.013576233
103.321808157
101.587377259
99.8111952401
97.9945925166
96.13955524
94.2489420322
92.3266397308
90.3779159731
88.4098093944
86.4315410705
84.4548858429
82.4943982316
80.5669899968
78.6903275827
149.723223167
149.573281722
149.386580326
149.170519083
148.930852345
148.678065432
148.419458065
148.158746151
147.897403294
147.63550377
147.372306874
147.106688714
146.837407691
146.563240949
146.283042973
145.995761704
145.700433422
145.396168794
145.082136714
144.757549069
144.421647733
144.073693791
143.712959826
143.338722321
142.95025812
142.546840558
142.12773694
141.692206801
141.239500729
140.768859646
140.279514488
139.770686177
139.241585822
138.691415027
138.119366276
137.524623361
136.906361934
136.263750204
135.595949853
134.902117036
134.181403359
133.432956887
132.655923298
131.84944725
131.012673942
130.14475072
129.24482872
128.312064644
127.345622821
126.344677673
125.308416546
124.236042795
123.12677912
121.979871396
120.794593195
119.570251108
118.30619095
117.001805001
115.656540727
114.269911593
112.841510217
111.37102191
109.858246024
108.303119861
106.705745667
105.066429932
103.385746465
101.664588935
99.9042570192
98.1065604019
96.2739502947
94.4097002939
92.5181233326
90.6048436233
88.6771119484
86.7441491364
84.8174762335
82.9111691472
81.0415450014
79.2257555402
149.7973104
149.641801547
149.435577709
149.199079056
148.943660462
148.680430442
148.415860096
148.152389292
147.890290204
147.628735975
147.366392996
147.101784514
146.83347983
146.560168858
146.280677408
145.993955586
145.69905611
145.39511104
145.081310755
144.756886423
144.42109618
144.073214289
143.712523845
143.338309322
142.949853705
142.546434932
142.1273237
141.691782033
141.239062354
140.768406968
140.27904789
139.770206939
139.24109603
138.690917553
138.118864791
137.524122413
136.905867118
136.263268407
135.595489493
134.901688389
134.181018871
133.432631675
132.655675677
131.849299507
131.012653241
130.144890137
129.245168455
128.312653489
127.346519982
126.345955003
125.310161258
124.238360658
123.129798294
121.983747071
120.799513209
119.576442705
118.313928856
117.011421062
115.668435313
114.284566893
112.859505941
111.393056135
109.885157023
108.335910702
106.745616128
105.114810089
103.444318466
101.735320853
99.9894313416
98.2087967858
96.3962179292
94.5552963477
92.6906138338
90.8079521301
88.9145542548
87.0194291107
85.1337051162
83.2710460731
81.4476217611
79.6810741817
149.920435654
149.744665426
149.503573814
149.236331326
148.959218226
148.682644263
148.411010305
148.144557906
147.881837327
147.620869746
147.359620859
147.09622348
146.829051251
146.556711757
146.278009961
145.991905682
145.697474347
145.393874314
145.080321174
144.756068181
144.420391861
144.072581036
143.71193039
143.337733373
142.949279635
142.54585206
142.126724976
141.691163058
141.238420656
140.767741512
140.278358741
139.76949507
139.240363236
138.690166431
138.118098685
137.523345292
136.90508367
136.262484454
135.594712473
134.900927553
134.180285598
133.43193973
132.655041872
131.848744209
131.012201168
130.144571311
129.245019331
128.312718299
127.346852422
126.346620265
125.311238463
124.239945707
123.13200729
121.986720473
120.80342091
119.581490193
118.320364505
117.019544678
115.678608375
114.297224789
112.875172078
111.412357947
109.90884431
108.364876755
106.78092051
105.157704
103.49627129
101.798043747
100.064894098
98.2992336743
96.5041166411
94.6833605229
92.8416844245
90.9848743876
89.1199867701
87.2556122257
85.4022723703
83.5730873179
81.7841950911
80.0544520412
150.123837383
149.892210842
149.590928336
149.280055001
148.975306839
148.683362854
148.404456431
148.135392085
147.872488431
147.612456788
147.35253741
147.090492725
146.824529229
146.553196129
146.275294438
145.989804568
145.695831251
145.392562953
145.079242671
144.755146876
144.419570592
144.071818732
143.711196004
143.337005161
142.948542517
142.545095747
142.125942676
141.690350511
141.237575421
140.766862442
140.27744565
139.76854855
139.239384643
138.689157945
138.117063406
137.52228736
136.90400816
136.261397021
135.593619162
134.899835491
134.179203982
133.430880023
132.654018052
131.847773539
131.011305187
130.143776333
129.244357259
128.312227766
127.346580363
126.346623704
125.311586683
124.240722714
123.133314802
121.988681604
120.806184582
119.585235839
118.325307986
117.025946236
115.686781424
114.307546184
112.88809409
111.428422053
109.928696729
108.389285803
106.81079523
105.194113254
103.540462089
101.851457406
100.129176615
98.376235411
96.5958727454
94.7920427679
92.9695116043
91.1339636476
89.2921308415
87.4519780085
85.6230866724
83.8175786543
82.0509868417
80.3431967729
150.457894503
150.094722786
149.694980338
149.326112292
148.988602305
148.680592093
148.395309231
148.124677596
147.862372396
147.60376822
147.345447661
147.084878874
146.820160863
146.549824465
146.27269123
145.987776112
145.694220505
145.391246616
145.078126685
144.754161374
144.418661712
144.070947602
143.710335067
143.336134991
142.947649692
142.544171204
142.124980486
141.689347031
141.236528689
140.765771564
140.276310374
139.767369127
139.238161632
138.687892026
138.115755513
137.520939105
136.902622344
136.259978573
135.592174317
134.898372025
134.17773042
133.429406497
132.652557031
131.846340268
131.009917574
130.142456047
129.243130641
128.311126905
127.345644583
126.34590042
125.311133318
124.240608701
123.133624011
121.989515296
120.807665029
119.587511517
118.328559017
117.030389291
115.69267696
114.315206902
112.897894513
111.44080934
109.944202812
108.408540911
106.834542455
105.223223458
103.575947858
101.89448436
100.181068911
98.4384715183
96.6700651115
94.879891727
93.0727188456
91.2540829762
89.4303231098
87.608611633
85.7971718953
84.0062679012
82.2490043858
80.5437591214
151.00766941
150.353728634
149.801550223
149.364069295
148.992563974
148.670564215
148.381553674
148.111400698
147.851013069
147.594603417
147.338287128
147.079381798
146.815973705
146.546633413
146.270236911
145.985852665
145.692668932
145.389947118
145.07699087
144.753124036
144.417669097
144.069967378
143.709344303
143.335117643
142.946594899
142.543071798
142.123831885
141.688146522
141.235274909
140.764464383
140.274950588
139.765958218
139.236701794
138.686386002
138.114205643
137.519346511
136.900988794
136.258304924
135.59046334
134.89662766
134.175958202
133.427613495
132.650752002
131.844534118
131.00812406
130.140691977
129.241416381
128.309487144
127.344108763
126.344505242
125.309923422
124.239638175
123.132958294
121.989233523
120.807862605
119.588302476
118.330080776
117.032807516
115.696190898
114.32005564
112.904364207
111.449241515
109.955003817
108.422192337
106.851612087
105.244376067
103.601954885
101.926230765
100.219556025
98.4848148966
96.725479319
94.9456564599
93.1501139039
91.3442711249
89.5341274909
87.7260328746
85.9265598535
84.1430894845
82.3825269329
80.6528024425
152.002908132
150.645091573
149.854344983
149.354503886
148.963668214
148.639921287
148.3555237
148.091037475
147.835660862
147.583246658
147.329967391
147.073308015
146.811528832
146.543349744
146.267766061
145.983938548
145.691125653
145.388641024
145.075823795
144.752000823
144.416565224
144.068851901
143.708196338
143.333924177
142.945347881
142.541766434
142.122465443
141.686717032
141.233778363
140.762897164
140.273310904
139.764244751
139.234913333
138.684521664
138.112266307
137.517335874
136.898909311
136.256159966
135.588255995
134.894361311
134.173636853
133.4252421
132.648336778
131.842082712
131.005645783
130.138198135
129.238920795
128.307006822
127.341664778
126.342122844
125.307633066
124.237476611
123.130969954
121.987472196
120.806393667
119.587205948
118.329451838
117.032760444
115.696862981
114.32161145
112.907000411
111.453192284
109.960546816
108.429655225
106.861379312
105.256895744
103.617744943
101.945882152
100.243738586
98.5142856296
96.7610712987
94.9882647535
93.2006729293
91.4037178448
89.6033008037
87.8052877137
86.0151949351
84.2377340315
82.4678051989
80.6742446397
153.796016478
150.867917938
149.754390609
149.227322928
148.860230467
148.565670355
148.304233287
148.055895794
147.811576067
147.566705962
147.318588143
147.065466283
146.806105683
146.539567522
146.265081689
145.981971922
145.689609899
145.387386506
145.07470055
144.750979185
144.415566488
144.067827715
143.707118695
143.332775953
142.944118848
142.540450926
142.121060638
141.685222466
141.232200413
140.761241864
140.271580568
139.762441105
139.233037979
138.682575825
138.110250069
137.515247951
136.896749502
136.253928495
135.585953509
134.891988899
134.171196098
133.42273516
132.645766502
131.839452753
131.002960711
130.13546359
129.236143739
128.304195813
127.338830358
126.33927785
125.304793095
124.23466056
123.128200705
121.984777391
120.803806422
119.584765553
118.32720624
117.03076748
115.695192106
114.320345858
112.906239508
111.45305464
109.961173638
108.43121426
106.864069097
105.260950059
103.623438804
101.953545681
100.25375988
98.5270918691
96.7771495335
95.0081739747
93.2250620387
91.4333490106
89.6391297602
87.8490163905
86.0696159353
84.3062349317
82.5398620431
80.6435385295
60.5640961037
57.0200152744
54.6371718547
52.6924377224
51.0344277126
49.5902250118
48.3139900702
47.1751270796
46.1519577083
45.2283459546
44.3917883177
43.6322081921
42.9411975813
42.3115541975
41.7370014711
41.2120147815
40.7317054372
40.2917353893
39.8882495032
39.5178184103
39.177388165
38.8642343782
38.5759213431
38.310266409
38.0653098102
37.8392886421
37.6306144675
37.4378532753
37.2597076941
37.0949997646
36.9426573829
36.8017029821
36.6712454152
36.5504714455
36.4386369106
36.3350593713
36.2391117253
36.1502178056
36.0678481871
35.9915158135
35.9207717798
35.8552016309
35.7944238814
35.7380916459
35.6858655935
35.6374233872
35.5924756815
35.5507541567
35.512008703
35.4760083203
35.442541184
35.4114143558
35.3824601719
35.3554893589
35.3303402643
35.3068652591
35.2849288534
35.2644055427
35.2451780372
35.2271370638
35.210181534
35.1942188643
35.1791644688
35.1649397506
35.151470796
35.1386887176
35.1265303528
35.1149386639
35.1038620042
35.0932518723
35.0830613708
35.0732462643
35.0637668728
35.0545884855
35.0456796265
35.0370090097
35.0285456737
35.0202622886
35.0121352763
35.004142358
34.9962604854
34.9884662029
34.9807395607
34.9730637863
34.9654209995
34.9577910524
34.9501534394
34.9424908272
34.9347869091
34.9270225594
34.9191766613
34.9112282924
34.9031576059
34.8949424036
34.8865578783
34.877977233
34.8691734674
34.8601160821
34.8507715185
34.8411033465
34.8310718833
34.8206329647
34.8097390747
34.7983381997
34.7863703959
34.7737690866
34.7604626768
34.7463712699
34.7314046051
34.7154628089
34.6984355208
34.6801995038
34.6606157437
34.6395295156
34.6167682612
34.592139225
34.5654246526
34.5363798534
34.5047309847
34.4701685554
34.4323425218
34.3908528647
34.3452454249
34.294999515
34.2395144017
34.1780941726
34.1099232606
34.0340401197
33.9492976694
33.8543104485
33.7473809962
33.6263999776
33.4887007416
33.3308494003
33.1483468773
32.9351936555
32.6832376829
32.3812366194
32.0139161251
31.5618414347
31.0009575411
30.3064023611
29.4616013327
28.4696830269
27.3622922578
26.1988728184
25.0535865891
23.9959116592
23.069673951
22.2747348609
21.5553534667
20.8024610257
19.8739017196
18.6243980814
16.9372304779
14.7657571744
12.139470126
8.97201519222
4.99698983767
1.04291220771
63.751836689
59.7014104428
56.9987236926
54.859558079
53.0717426647
51.5343076238
50.1872423414
48.9924934134
47.9239511756
46.9626482531
46.0941827521
45.3071525958
44.5921950964
43.9414047742
43.3479788008
42.8059941165
42.3102574572
41.8561956382
41.4397704233
41.0574083698
40.7059408073
40.3825506102
40.0847259889
39.8102209047
39.5570220806
39.323320814
39.107488967
38.908057866
38.7236993551
38.5532081193
38.395486963
38.2495356172
38.1144418909
37.9893724099
37.8735632506
37.7663125716
37.6669743466
37.5749531626
37.4897000686
37.410707997
37.3375071732
37.2696611602
37.2067635737
37.1484374486
37.0943401974
37.0441578068
36.9975962988
36.9543799768
36.9142518524
36.8769741564
36.8423278609
36.8101085555
36.7801239113
36.7521970923
36.7261645635
36.7018751009
36.6791890056
36.6579757024
36.638113718
36.6194902561
36.6020002965
36.5855482169
36.5700463208
36.5554121083
36.5415690037
36.5284455141
36.5159756933
36.5041006863
36.4927667988
36.4819236117
36.4715222049
36.4615165129
36.4518660448
36.442534886
36.4334907641
36.4247008801
36.416132816
36.4077588407
36.3995552847
36.3914995893
36.3835661049
36.3757331882
36.3679791737
36.3602872052
36.3526433458
36.3450199479
36.3374033034
36.3297732447
36.3221133755
36.3144107162
36.3066353236
36.2987763952
36.2908092051
36.2827170745
36.2744719593
36.2660552134
36.2574325026
36.2485848684
36.2394762874
36.2300717238
36.2203381369
36.2102347909
36.1997154774
36.1887341323
36.1772357705
36.1651573462
36.1524344457
36.138994844
36.1247551416
36.1096216932
36.0934957427
36.0762644299
36.0577985434
36.0379552407
36.0165786727
35.9934919622
35.9684913052
35.9413574885
35.9118322563
35.8796330486
35.8444435007
35.8058837471
35.7635413036
35.716938666
35.6655098486
35.6086163805
35.5455055908
35.4752772271
35.3968620302
35.3089713624
35.2100241243
35.0980315878
34.9704932931
34.8241807677
34.6548485362
34.4568254119
34.2223626526
33.9407037752
33.5972448433
33.1738683043
32.6465425106
31.9916978403
31.1927618441
30.2516800674
29.1969891013
28.0825312527
26.9739950523
25.9307106686
24.9862482306
24.1324182875
23.3099638113
22.4126774691
21.3075552344
19.8629420613
17.9763337146
15.6101731368
12.7954158822
9.45128971347
5.32262394181
1.18551289405
65.9645045221
62.0319377984
59.1740624273
56.9032623944
55.0151255452
53.4006865949
51.993186578
50.74986745
49.641436909
48.6467431352
47.7498470028
46.9382382
46.2017396773
45.5318391837
44.9212773846
44.3637852807
43.853905879
43.3868638243
42.9584646902
42.565012933
42.2032429506
41.870259513
41.5634870459
41.2806267126
41.0196206499
40.7786218814
40.5559687224
40.350162462
40.1598471994
39.9837920918
39.820876366
39.6700776237
39.5304624514
39.4011766427
39.281436577
39.1705216869
39.0677687491
38.972566398
38.8843507376
38.802601279
38.7268364935
38.656610277
38.5915097966
38.5311532457
38.4751862648
38.4232793418
38.3751262309
38.3304420532
38.2889621051
38.2504412225
38.2146531915
38.1813878088
38.1504488282
38.1216514621
38.0948245186
38.0698094423
38.0464604254
38.0246417845
38.0042273009
37.9851004378
37.9671526955
37.9502844341
37.9344045264
37.9194274879
37.9052737226
37.8918692334
37.8791456792
37.8670416294
37.8555010127
37.8444715665
37.8339029345
37.8237479499
37.8139654849
37.8045181654
37.7953718354
37.7864927016
37.7778477933
37.7694093938
37.7611530317
37.753055103
37.7450894881
37.7372348088
37.7294706115
37.7217782477
37.7141437149
37.7065404939
37.6989549734
37.6913690754
37.6837645334
37.676129603
37.6684364394
37.6606744962
37.6528206634
37.6448594837
37.6367643949
37.6285184457
37.6200895747
37.6114594053
37.6025968191
37.5934691887
37.5840460279
37.5742913887
37.564162514
37.5536164448
37.5426039691
37.5310682056
37.5189511531
37.5061870511
37.4927000122
37.4784059788
37.4632144301
37.4470223135
37.4297137723
37.4111601933
37.3912186073
37.369729794
37.3465078588
37.3213539472
37.294035083
37.2642896572
37.2318345612
37.1963248523
37.1573793172
37.1145662972
37.067369549
37.0152017662
36.9573770361
36.8930715034
36.8213012375
36.7408804705
36.6503540143
36.5478873704
36.4311675499
36.2971991418
36.1420407339
35.9604211915
35.7450729157
35.485905255
35.1694156177
34.7780676646
34.2895221195
33.680906317
32.9358688339
32.054941179
31.0630107986
30.0074424264
28.9448005212
27.9237099195
26.9671999357
26.0589575399
25.1364361985
24.0966133818
22.8159314686
21.1762766916
19.0885200841
16.5226619316
13.5102523705
9.97681065021
5.67781000975
1.33618445636
67.7720739316
64.050182572
61.1554737425
58.8130627934
56.8562005302
55.1831414785
53.7270998151
52.4435385037
51.3014017837
50.2781062578
49.3566034524
48.523535426
47.7680800456
47.0812346434