/*--------------------------------*- C++ -*----------------------------------*\
| =========                 |                                                 |
| \\      /  F ield         | OpenFOAM: The Open Source CFD Toolbox           |
|  \\    /   O peration     | Version:  2106                                  |
|   \\  /    A nd           | Website:  www.openfoam.com                      |
|    \\/     M anipulation  |                                                 |
\*---------------------------------------------------------------------------*/
FoamFile
{
    version     2.0;
    format      ascii;
    arch        "LSB;label=32;scalar=64";
    class       surfaceScalarField;
    location    "0.42";
    object      phi;
}
// * * * * * * * * * * * * * * * * * * * * * * * * * * * * * * * * * * * * * //

dimensions      [0 3 -1 0 0 0 0];

oriented        oriented;

internalField   nonuniform List<scalar> 
22100
(
3.38461202486e-05
1.61538797409e-05
2.2457209658e-05
1.13889105438e-05
1.62585526047e-05
6.19865698488e-06
1.27977754018e-05
3.46077711438e-06
1.08046412373e-05
1.99313403575e-06
9.60458785672e-06
1.20005320357e-06
8.85131967963e-06
7.53267943643e-07
8.36435039825e-06
4.86968994445e-07
8.04433202306e-06
3.20018048051e-07
7.83283672511e-06
2.11494944335e-07
7.69339306395e-06
1.39443296712e-07
7.60223569268e-06
9.11570098177e-08
7.54347244136e-06
5.87629028666e-08
7.50633506828e-06
3.71370414187e-08
7.48349510374e-06
2.28396493811e-08
7.46997381831e-06
1.35209855536e-08
7.46240872264e-06
7.56480201224e-09
7.4585401949e-06
3.86820507194e-09
7.45682067555e-06
1.71914196325e-09
7.45641339435e-06
4.06862109475e-10
7.45676254889e-06
-3.49578598485e-10
7.45744799757e-06
-6.85944138623e-10
7.45820555014e-06
-7.58107882745e-10
7.45893002986e-06
-7.25071098188e-10
7.45957349424e-06
-6.44091413411e-10
7.46011659337e-06
-5.43739055497e-10
7.46055791817e-06
-4.41951933761e-10
7.46090595061e-06
-3.48626143808e-10
7.4611736239e-06
-2.68204166212e-10
7.46137505237e-06
-2.01862243027e-10
7.46152359449e-06
-1.48897333735e-10
7.46163093257e-06
-1.07656103477e-10
7.46170681208e-06
-7.6119836738e-11
7.46175920619e-06
-5.26837098541e-11
7.46179230207e-06
-3.31470348836e-11
7.46181082747e-06
-1.87362310183e-11
7.46181955812e-06
-9.03262816878e-12
7.46182189093e-06
-2.73641936611e-12
7.46181983526e-06
1.63783489818e-12
7.46181455124e-06
4.83325586284e-12
7.46180694508e-06
7.04987605031e-12
7.46179766974e-06
8.66392367128e-12
7.46178718704e-06
9.90791712009e-12
7.46177569086e-06
1.09526792958e-11
7.46176316592e-06
1.20051232695e-11
7.46174952663e-06
1.32207626017e-11
7.46173457076e-06
1.46570986196e-11
7.46171791441e-06
1.64046866881e-11
7.46169912858e-06
1.85812939963e-11
7.4616776442e-06
2.13150540161e-11
7.4616528536e-06
2.46534348181e-11
7.46162404324e-06
2.86665432977e-11
7.46159041482e-06
3.34488945272e-11
7.46155113213e-06
3.90712408456e-11
7.46150533479e-06
4.55474293363e-11
7.46145221109e-06
5.28369574694e-11
7.46139114558e-06
6.07336378066e-11
7.46132206582e-06
6.87154979132e-11
7.46124570644e-06
7.59796049968e-11
7.46116451679e-06
8.07843852237e-11
7.4610850402e-06
7.91461986558e-11
7.46101921607e-06
6.54985386719e-11
7.46097460657e-06
4.43434141052e-11
7.46097075977e-06
3.68667710533e-12
7.46104354141e-06
-7.29425006089e-11
7.46125128229e-06
-2.0792724213e-10
7.46168852853e-06
-4.37385955509e-10
7.46250534622e-06
-8.16933421172e-10
7.46393697727e-06
-1.43174995953e-09
7.4663388127e-06
-2.40197559065e-09
7.47015997354e-06
-3.82130234924e-09
7.47661262126e-06
-6.45277719526e-09
7.48738647947e-06
-1.07740069947e-08
7.50556370372e-06
-1.81774090452e-08
7.53874980336e-06
-3.3186305011e-08
7.60796093377e-06
-6.92113355093e-08
7.77460782636e-06
-1.66647093012e-07
8.22947127458e-06
-4.54863630324e-07
9.6969431607e-06
-1.46747203045e-06
-5.45080644712e-06
1.51477495441e-05
5.02175947797e-05
1.59362848809e-05
4.42441114604e-05
1.73623937434e-05
3.77795012077e-05
1.26632670688e-05
3.26461435468e-05
8.59413453914e-06
2.89380911781e-05
5.70118607396e-06
2.63596204556e-05
3.77852350092e-06
2.45875156611e-05
2.52537222765e-06
2.33734731732e-05
1.7010109013e-06
2.25435236711e-05
1.14996692428e-06
2.197821453e-05
7.76803439563e-07
2.15955115584e-05
5.22145623426e-07
2.133873457e-05
3.4793336853e-07
2.11684926462e-05
2.29004220459e-07
2.10573346558e-05
1.48294448173e-07
2.09861463729e-05
9.40273561285e-08
2.09416736195e-05
5.79931466683e-08
2.09147914079e-05
3.44463976752e-08
2.08992919052e-05
1.93670969632e-08
2.08910676562e-05
9.94268903632e-09
2.08872668315e-05
4.20684340487e-09
2.08861971546e-05
7.19188741099e-10
2.08864421673e-05
-9.31954831882e-10
2.08873127913e-05
-1.62981274229e-09
2.08884514215e-05
-1.86481910174e-09
2.08896238446e-05
-1.81763835588e-09
2.08907059216e-05
-1.62691128188e-09
2.08916426344e-05
-1.37968809588e-09
2.0892419341e-05
-1.12625607092e-09
2.08930438096e-05
-8.93492885999e-10
2.08935352945e-05
-6.94019675613e-10
2.08939185526e-05
-5.32659578991e-10
2.08942196123e-05
-4.09157149983e-10
2.08944301686e-05
-2.86960334595e-10
2.08945768303e-05
-1.99973057885e-10
2.08946767993e-05
-1.33580072668e-10
2.08947417691e-05
-8.41156369729e-11
2.08947818467e-05
-4.96185805784e-11
2.08948051361e-05
-2.67627548403e-11
2.08948164774e-05
-1.06448270469e-11
2.08948189035e-05
1.41820572391e-12
2.08948148359e-05
1.01036111568e-11
2.08948059288e-05
1.65191362699e-11
2.08947934023e-05
2.14560421159e-11
2.08947780358e-05
2.55014585567e-11
2.08947601604e-05
2.9166406487e-11
2.08947399095e-05
3.28440045004e-11
2.08947173309e-05
3.67765745682e-11
2.0894692253e-05
4.11277006079e-11
2.08946644651e-05
4.60757551718e-11
2.08946336547e-05
5.18311576509e-11
2.08945996154e-05
5.83933040329e-11
2.0894562201e-05
6.57577492908e-11
2.08945214041e-05
7.38545164639e-11
2.08944775483e-05
8.24516152352e-11
2.08944315132e-05
9.10162130771e-11
2.08943851272e-05
9.85993690628e-11
2.08943418146e-05
1.03385644293e-10
2.08943076084e-05
1.02212139077e-10
2.08942920571e-05
9.08765380742e-11
2.08943104614e-05
6.17231348566e-11
2.08943901556e-05
-1.02755066009e-12
2.08945795869e-05
-1.24317310728e-10
2.08949472836e-05
-3.23744631419e-10
2.08956123564e-05
-6.61692181907e-10
2.08966810642e-05
-1.14188502409e-09
2.08983322508e-05
-1.85931414064e-09
2.09009236172e-05
-3.0289695698e-09
2.09050030888e-05
-4.89661327416e-09
2.09114398481e-05
-7.86870315028e-09
2.09216574666e-05
-1.26198265304e-08
2.09381459977e-05
-2.031012899e-08
2.09650493193e-05
-3.33564462996e-08
2.10093066766e-05
-5.50317183807e-08
2.10840878853e-05
-9.29589799373e-08
2.12153133501e-05
-1.64412137463e-07
2.14558791217e-05
-3.0977744817e-07
2.19136159736e-05
-6.24384232046e-07
2.280038383e-05
-1.34163165916e-06
2.4443900893e-05
-3.11098911935e-06
-7.03663632842e-06
2.60297299452e-05
5.35171052598e-05
1.24191795537e-05
5.29349681697e-05
1.79445307198e-05
4.96538398581e-05
1.59443952262e-05
4.58401810193e-05
1.24077931682e-05
4.24400917682e-05
9.10127503482e-06
3.97291714885e-05
6.48944340622e-06
3.76873046318e-05
4.56723863494e-06
3.61976613774e-05
3.19065364513e-06
3.51326102864e-05
2.21501746498e-06
3.43823647673e-05
1.5270483925e-06
3.38606233229e-05
1.04388650459e-06
3.35023426347e-05
7.06213508285e-07
3.32595973057e-05
4.71749022479e-07
3.30975865941e-05
3.10304656551e-07
3.29913301272e-05
2.00283333948e-07
3.29230878472e-05
1.26234919858e-07
3.28803994484e-05
7.71342378833e-08
3.2854613826e-05
4.51521337441e-08
3.2839786193e-05
2.47697105128e-08
3.28318590509e-05
1.21332661203e-08
3.28279889137e-05
4.58852797275e-09
3.28269894917e-05
6.66104204937e-11
3.28271694209e-05
-1.81067279772e-09
3.28280169334e-05
-2.71330234813e-09
3.28291317687e-05
-2.93345410188e-09
3.28302780615e-05
-2.77416672667e-09
3.28313330973e-05
-2.4356281225e-09
3.28322426138e-05
-2.03657605829e-09
3.28329917671e-05
-1.64335943997e-09
3.28335866431e-05
-1.28952420034e-09
3.28340422801e-05
-9.88779664771e-10
3.28343765513e-05
-7.43894493406e-10
3.28346422742e-05
-5.52961429679e-10
3.2834858087e-05
-4.15981478654e-10
3.2835004581e-05
-2.8068422983e-10
3.28351031946e-05
-1.83201140894e-10
3.28351683709e-05
-1.1528880998e-10
3.28352095119e-05
-6.85249465581e-11
3.28352334734e-05
-3.54063265772e-11
3.28352443087e-05
-1.02922064654e-11
3.28352456324e-05
7.91226936356e-12
3.28352399206e-05
2.13464872324e-11
3.28352290292e-05
3.1489107131e-11
3.28352142804e-05
3.95319139509e-11
3.28351964112e-05
4.64303130854e-11
3.28351758394e-05
5.2865827344e-11
3.2835152923e-05
5.92681640068e-11
3.28351278466e-05
6.58816797931e-11
3.28351007409e-05
7.29291611537e-11
3.28350715586e-05
8.07609830057e-11
3.28350405931e-05
8.9088458746e-11
3.28350084598e-05
9.76027923618e-11
3.28349762046e-05
1.05780941797e-10
3.28349456404e-05
1.12623903724e-10
3.28349197818e-05
1.16397265197e-10
3.28349032911e-05
1.14549629195e-10
3.28349033942e-05
1.02787800557e-10
3.28349316931e-05
7.34338273596e-11
3.28350055901e-05
1.65504723878e-11
3.28351549161e-05
-8.80853446047e-11
3.28354312526e-05
-2.77792193339e-10
3.28359242236e-05
-6.17613385762e-10
3.28366447787e-05
-1.04463996305e-09
3.28376913083e-05
-1.70852214845e-09
3.28393237612e-05
-2.77456548017e-09
3.28419158975e-05
-4.45165991806e-09
3.28459720489e-05
-7.08533196841e-09
3.28523067832e-05
-1.12315782869e-08
3.28622330816e-05
-1.77952334928e-08
3.28779149752e-05
-2.8301965284e-08
3.29030119461e-05
-4.5407369275e-08
3.294287291e-05
-7.32177049454e-08
3.3007324272e-05
-1.19483377877e-07
3.3113341166e-05
-1.9897616732e-07
3.32899239596e-05
-3.40995231643e-07
3.35852543797e-05
-6.05108159911e-07
3.4070374589e-05
-1.1095046951e-06
3.48113631358e-05
-2.08262033614e-06
3.56719604972e-05
-3.9715859792e-06
-7.10451284007e-06
3.57398390413e-05
5.3510566381e-05
8.90861311587e-06
5.55742220628e-05
1.58808749282e-05
5.52424822262e-05
1.62761349123e-05
5.35977855175e-05
1.40524896718e-05
5.15418470342e-05
1.11572132347e-05
4.95802789732e-05
8.45101110118e-06
4.79243495981e-05
6.22316757143e-06
4.66181373252e-05
4.49686542205e-06
4.56304640961e-05
3.20269015899e-06
4.49051147111e-05
2.25239722549e-06
4.43840870912e-05
1.56491357412e-06
4.4016690525e-05
1.0736095372e-06
4.37619636319e-05
7.26475396021e-07
4.35882646413e-05
4.84003148477e-07
4.34718649115e-05
3.16682586037e-07
4.33953544679e-05
2.02744884079e-07
4.33461837806e-05
1.26304397968e-07
4.33154457156e-05
7.58896192533e-08
4.32969088672e-05
4.33059556395e-08
4.32862822349e-05
2.27592086563e-08
4.32806787656e-05
1.01912302897e-08
4.32778703939e-05
2.87415612775e-09
4.32770418248e-05
-9.82992059821e-10
4.32772589055e-05
-2.93131403285e-09
4.32779456104e-05
-3.62110293836e-09
4.32788078281e-05
-3.63731695787e-09
4.3279679815e-05
-3.30849754101e-09
4.32804764988e-05
-2.83403912039e-09
4.32811615437e-05
-2.32907169984e-09
4.3281726713e-05
-1.85527894253e-09
4.32821789098e-05
-1.44143636493e-09
4.32825305876e-05
-1.09613459696e-09
4.32827919561e-05
-8.14536465895e-10
4.32829668521e-05
-5.91147095878e-10
4.32830993442e-05
-4.1354218834e-10
4.32831842372e-05
-2.68599855721e-10
4.32832375643e-05
-1.69171370014e-10
4.32832767419e-05
-1.0832207579e-10
4.32833004595e-05
-5.98697843002e-11
4.32833117537e-05
-2.24144046818e-11
4.32833141265e-05
4.72916815823e-12
4.32833095436e-05
2.51337426602e-11
4.32832996892e-05
4.05323731327e-11
4.32832858142e-05
5.27142398746e-11
4.32832685935e-05
6.30949538187e-11
4.32832484155e-05
7.25415443434e-11
4.32832256441e-05
8.16112087483e-11
4.32832005783e-05
9.05975306523e-11
4.32831735886e-05
9.96480508328e-11
4.32831452167e-05
1.08893815747e-10
4.32831161053e-05
1.17940358066e-10
4.32830872315e-05
1.26188172117e-10
4.32830600677e-05
1.32619298806e-10
4.32830367275e-05
1.35603025921e-10
4.32830201368e-05
1.32575876652e-10
4.32830148074e-05
1.19339003378e-10
4.32830289582e-05
8.81104751684e-11
4.32830747622e-05
2.72315598419e-11
4.32831715443e-05
-8.05209085339e-11
4.32833349404e-05
-2.51790890314e-10
4.32835820653e-05
-5.25312405627e-10
4.32840296149e-05
-1.06538807113e-09
4.32848080438e-05
-1.82331380239e-09
4.32860689477e-05
-2.96964920125e-09
4.32880207555e-05
-4.72657181072e-09
4.32910138936e-05
-7.44500524993e-09
4.32956082542e-05
-1.16799205535e-08
4.33026826182e-05
-1.83062059887e-08
4.33136191412e-05
-2.87320270843e-08
4.3330575415e-05
-4.52585035883e-08
4.3356859702e-05
-7.16919181615e-08
4.33980401763e-05
-1.14398455393e-07
4.34629638878e-05
-1.84407371485e-07
4.3565346602e-05
-3.01359153616e-07
4.37251275773e-05
-5.00776480521e-07
4.39668767992e-05
-8.46857654061e-07
4.43072181151e-05
-1.44984628393e-06
4.47073925782e-05
-2.48279521399e-06
4.49264353626e-05
-4.19062924044e-06
-6.57502097107e-06
4.43969445176e-05
5.27351379037e-05
6.17347515492e-06
5.57309342171e-05
1.28850784976e-05
5.73114738911e-05
1.46955950803e-05
5.76109911984e-05
1.37529721524e-05
5.71335217997e-05
1.16346823458e-05
5.6319467019e-05
9.26506551419e-06
5.54489865661e-05
7.09364758623e-06
5.46629757036e-05
5.28287579389e-06
5.40136798248e-05
3.85198551026e-06
5.3506148175e-05
2.75992833103e-06
5.31242519568e-05
1.94680924915e-06
5.28449821429e-05
1.3528788198e-06
5.26454356603e-05
9.2602136118e-07
5.25057112054e-05
6.23727096096e-07
5.24097162452e-05
4.12677052114e-07
5.23450100524e-05
2.67450591907e-07
5.23022720197e-05
1.69041916586e-07
5.22746845867e-05
1.03476477548e-07
5.22573597221e-05
6.06302147749e-08
5.22468506191e-05
3.32676401822e-08
5.22407503777e-05
1.62907199631e-08
5.22374408326e-05
6.18288984149e-09
5.22359413589e-05
5.15614425623e-10
5.22354324905e-05
-2.42335271692e-09
5.22354964478e-05
-3.68598085014e-09
5.22358408735e-05
-3.98265751703e-09
5.22362940767e-05
-3.76258293359e-09
5.22367594643e-05
-3.30022140062e-09
5.22371859639e-05
-2.75624814138e-09
5.22375508189e-05
-2.22073335855e-09
5.22378474088e-05
-1.73847544757e-09
5.22380784409e-05
-1.32763814653e-09
5.22382541532e-05
-9.90865891648e-10
5.2238386481e-05
-7.23739938703e-10
5.22384863047e-05
-5.13692823923e-10
5.22385701961e-05
-3.52981014322e-10
5.2238635127e-05
-2.34703351876e-10
5.22386767736e-05
-1.50596705737e-10
5.22387088574e-05
-9.26711838375e-11
5.22387235539e-05
-3.79000483217e-11
5.22387280991e-05
-5.95569227138e-13
5.22387251185e-05
2.73964817211e-11
5.2238716558e-05
4.83371311838e-11
5.22387037438e-05
6.48491377947e-11
5.22386876203e-05
7.87146411551e-11
5.22386687235e-05
9.10149979541e-11
5.22386474983e-05
1.02446572956e-10
5.22386245684e-05
1.13167698091e-10
5.22386012302e-05
1.22687817794e-10
5.22385753183e-05
1.34542584194e-10
5.2238548513e-05
1.44448328678e-10
5.22385219574e-05
1.52408039759e-10
5.22384972752e-05
1.56926232241e-10
5.22384771986e-05
1.55306167277e-10
5.22384675193e-05
1.41970610713e-10
5.22384765731e-05
1.09949159956e-10
5.22385084174e-05
5.56821343324e-11
5.22385865655e-05
-5.14654185544e-11
5.22387079886e-05
-2.02220080257e-10
5.22389058075e-05
-4.49850415884e-10
5.22392453142e-05
-8.65109519334e-10
5.22397669912e-05
-1.58728397597e-09
5.22405446938e-05
-2.60127296087e-09
5.22417114736e-05
-4.13669208396e-09
5.2243470895e-05
-6.48623118857e-09
5.22461243849e-05
-1.00987204877e-08
5.22501240917e-05
-1.5679878447e-08
5.22561614456e-05
-2.43438436734e-08
5.22652955578e-05
-3.78664325186e-08
5.22791439495e-05
-5.91071781913e-08
5.23001642923e-05
-9.27125238161e-08
5.23320717217e-05
-1.46306140208e-07
5.23802083743e-05
-2.32544283818e-07
5.24514976113e-05
-3.72648638573e-07
5.25527982226e-05
-6.02077332229e-07
5.26846483072e-05
-9.78707964499e-07
5.28248150791e-05
-1.5900131944e-06
5.28918124517e-05
-2.54979274268e-06
5.26732041008e-05
-3.97202138787e-06
-5.76616982154e-06
5.1864353469e-05
5.19834863595e-05
4.18998873506e-06
5.50586637098e-05
9.80990101751e-06
5.76386127545e-05
1.21156458649e-05
5.93259024666e-05
1.20656822149e-05
6.0228014212e-05
1.07325703033e-05
6.0592925048e-05
8.9001543061e-06
6.06482815662e-05
7.03829062767e-06
6.05531866656e-05
5.37797020525e-06
6.04029516221e-05
4.00222003166e-06
6.02479106349e-05
2.91496877997e-06
6.01107846273e-05
2.08393471945e-06
5.99990246391e-05
1.46463828451e-06
5.9912509014e-05
1.01253647941e-06
5.98479166797e-05
6.88318932671e-07
5.98010126675e-05
4.59580568497e-07
5.97677275643e-05
3.00735205329e-07
5.97445857298e-05
1.92183247745e-07
5.97288066451e-05
1.19255003163e-07
5.97182579081e-05
7.11783486065e-08
5.97113510663e-05
4.01738248064e-08
5.97069309924e-05
2.07100621197e-08
5.97041963063e-05
8.91678053624e-09
5.97025864267e-05
2.12464495075e-09
5.97016810012e-05
-1.51881559798e-09
5.97012217933e-05
-3.22767131768e-09
5.97010313666e-05
-3.79311523019e-09
5.97009942002e-05
-3.72627940425e-09
5.97010376643e-05
-3.34449152484e-09
5.97011180822e-05
-2.83735961063e-09
5.97012097379e-05
-2.31301869755e-09
5.97012987798e-05
-1.8280290623e-09
5.97013786579e-05
-1.40782809038e-09
5.9701447685e-05
-1.06043904333e-09
5.97015066554e-05
-7.83155918989e-10
5.97015563164e-05
-5.63761323351e-10
5.97015955001e-05
-3.92655762946e-10
5.97016226504e-05
-2.62463261081e-10
5.97016373196e-05
-1.65915276945e-10
5.97016350211e-05
-9.10403354481e-11
5.97016263238e-05
-2.99528735849e-11
5.97016190863e-05
5.86784321418e-12
5.9701609288e-05
3.65211009641e-11
5.97015984879e-05
5.85124628993e-11
5.97015864261e-05
7.62007524895e-11
5.97015722566e-05
9.22755898879e-11
5.97015558546e-05
1.06969207996e-10
5.9701537233e-05
1.20688362358e-10
5.97015164442e-05
1.33609863483e-10
5.9701493161e-05
1.45649691572e-10
5.97014708544e-05
1.56568178866e-10
5.9701449445e-05
1.65581918785e-10
5.97014301605e-05
1.71380170523e-10
5.97014146412e-05
1.72072505342e-10
5.97014043641e-05
1.6515362969e-10
5.97013979346e-05
1.4801724787e-10
5.97013890783e-05
1.18552007288e-10
5.97013949554e-05
4.97707785664e-11
5.97014070187e-05
-6.38890496145e-11
5.97014948968e-05
-2.90504140261e-10
5.97016866144e-05
-6.41707344586e-10
5.97019886608e-05
-1.16736210752e-09
5.9702378685e-05
-1.97747198353e-09
5.97029612419e-05
-3.18400499053e-09
5.97038186749e-05
-4.99437659758e-09
5.97050651838e-05
-7.73304466725e-09
5.97068660523e-05
-1.1899881938e-08
5.97094595508e-05
-1.827367867e-08
5.9713189938e-05
-2.80745515384e-08
5.97185472143e-05
-4.32240242091e-08
5.97262123062e-05
-6.67725610459e-08
5.97370866584e-05
-1.03587131586e-07
5.97522326471e-05
-1.61452352987e-07
5.97724875252e-05
-2.52799381552e-07
5.97972588932e-05
-3.97420220434e-07
5.98213893185e-05
-6.26207967917e-07
5.98280042098e-05
-9.85323080475e-07
5.97750683113e-05
-1.53707744338e-06
5.95746780243e-05
-2.34940249046e-06
5.90690528878e-05
-3.46639662302e-06
-4.79518570405e-06
5.80980690006e-05
5.14373052539e-05
2.75268341088e-06
5.42658202784e-05
6.98138583902e-06
5.72496427232e-05
9.13182323178e-06
5.97900268048e-05
9.52529789122e-06
6.17201269662e-05
8.80246983284e-06
6.30883015277e-05
7.53197936921e-06
6.40167146548e-05
6.10987706273e-06
6.46292339877e-05
4.76545038886e-06
6.50258004633e-05
3.60565304516e-06
6.52790745496e-05
2.66169416872e-06
6.54389691135e-05
1.92403963047e-06
6.55386854733e-05
1.36492141223e-06
6.55999235604e-05
9.51297897635e-07
6.56367379411e-05
6.51504068748e-07
6.56581886087e-05
4.38129414966e-07
6.56700963961e-05
2.88826926712e-07
6.56761851877e-05
1.86093955994e-07
6.56788210058e-05
1.16618640853e-07
6.56794909095e-05
7.05078495401e-08
6.56791141187e-05
4.05499684299e-08
6.56782460728e-05
2.1577393552e-08
6.56772144448e-05
9.94762974991e-09
6.56762044314e-05
3.13382420921e-09
6.56752943471e-05
-6.09611110513e-10
6.56745248299e-05
-2.45905332033e-09
6.56738956669e-05
-3.16482835641e-09
6.56733959949e-05
-3.22744972235e-09
6.56730083599e-05
-2.95765563006e-09
6.5672713822e-05
-2.54352368299e-09
6.56724941871e-05
-2.09403294356e-09
6.56723332904e-05
-1.66777280376e-09
6.56722176333e-05
-1.29256610361e-09
6.56721348336e-05
-9.78116648483e-10
6.56720743435e-05
-7.23196243877e-10
6.56720304068e-05
-5.20327520411e-10
6.56719987536e-05
-3.61521319449e-10
6.56719732101e-05
-2.37541499918e-10
6.56719511167e-05
-1.44474997018e-10
6.56719356255e-05
-7.61957219906e-11
6.56719333604e-05
-2.83703649589e-11
6.56719312623e-05
7.21938916971e-12
6.56719234031e-05
4.37416543177e-11
6.56719128317e-05
6.85156659814e-11
6.56718999509e-05
8.85138777521e-11
6.56718855706e-05
1.06108249899e-10
6.56718697488e-05
1.22321070106e-10
6.56718523518e-05
1.37691918626e-10
6.5671833288e-05
1.52312680729e-10
6.56718129886e-05
1.65591446628e-10
6.56717935707e-05
1.75649220573e-10
6.56717739899e-05
1.84848641423e-10
6.56717547638e-05
1.90321270734e-10
6.56717370782e-05
1.89497446649e-10
6.56717227286e-05
1.79059271221e-10
6.56717156391e-05
1.54549843776e-10
6.56717237385e-05
1.10238467425e-10
6.56717289227e-05
4.42572849583e-11
6.567176524e-05
-1.00254282346e-10
6.56718334585e-05
-3.58828148427e-10
6.56719336766e-05
-7.42027404063e-10
6.56720863289e-05
-1.32017800485e-09
6.56722985839e-05
-2.18989966299e-09
6.56725872432e-05
-3.47280441629e-09
6.56729689754e-05
-5.37631932564e-09
6.56734549232e-05
-8.21930929908e-09
6.56740431002e-05
-1.24884100124e-08
6.56747037326e-05
-1.89346618818e-08
6.56753517624e-05
-2.87229361024e-08
6.56757870056e-05
-4.36596032103e-08
6.56755828169e-05
-6.6568670438e-08
6.56738710078e-05
-1.01875570328e-07
6.56689195808e-05
-1.56501119512e-07
6.56571972393e-05
-2.41077211489e-07
6.56315798213e-05
-3.71802969245e-07
6.55779239534e-05
-5.7255226032e-07
6.54690106828e-05
-8.76410001608e-07
6.5255698866e-05
-1.32376579946e-06
6.48579901653e-05
-1.95169381252e-06
6.41634981963e-05
-2.7719049202e-06
-3.71384337006e-06
6.3082155926e-05
5.10850422405e-05
1.66764108752e-06
5.36118442336e-05
4.45458365709e-06
5.66873159228e-05
6.05635133e-06
5.96894456573e-05
6.52316789412e-06
6.22997259405e-05
6.19218922564e-06
6.44136871323e-05
5.418017797e-06
6.60471828688e-05
4.47638089336e-06
6.72686139869e-05
3.5440187949e-06
6.81598925926e-05
2.71437394107e-06
6.87977587727e-05
2.02382748073e-06
6.92467427548e-05
1.47505514135e-06
6.95579612248e-05
1.05370244385e-06
6.97704275718e-05
7.38831067953e-07
6.99131703429e-05
5.0876082851e-07
7.0007381189e-05
3.43918097983e-07
7.00682905132e-05
2.27917117455e-07
7.01066923157e-05
1.47691653584e-07
7.01301343702e-05
9.31760498569e-08
7.01438232013e-05
5.68184302309e-08
7.01512989551e-05
3.30735743826e-08
7.0154931018e-05
1.79446296018e-08
7.01562783169e-05
8.59956967657e-09
7.01563496642e-05
3.06166429057e-09
7.01557570436e-05
-1.78564256852e-11
7.0154895553e-05
-1.59844996832e-09
7.01539713376e-05
-2.24148878323e-09
7.01531021282e-05
-2.35908416324e-09
7.0152341579e-05
-2.19792356148e-09
7.01517069355e-05
-1.90962148282e-09
7.01511953533e-05
-1.58309067633e-09
7.01507937916e-05
-1.26690788389e-09
7.01504854577e-05
-9.84782855234e-10
7.01502526053e-05
-7.45754870777e-10
7.01500790154e-05
-5.50154942579e-10
7.01499517151e-05
-3.93599110778e-10
7.01498600765e-05
-2.70428441495e-10
7.0149796939e-05
-1.75008509103e-10
7.01497548702e-05
-1.03062942293e-10
7.01497258692e-05
-4.78370795551e-11
7.01496954311e-05
1.45842574267e-12
7.01496715672e-05
3.03782847802e-11
7.01496580988e-05
5.64709121797e-11
7.01496471741e-05
7.88484787558e-11
7.01496369265e-05
9.8266217429e-11
7.01496265693e-05
1.15963782309e-10
7.0149615739e-05
1.32687212705e-10
7.0149604314e-05
1.4871435547e-10
7.01495923298e-05
1.6395205655e-10
7.01495795995e-05
1.77974052442e-10
7.01495647146e-05
1.90170781474e-10
7.01495495814e-05
1.99608618469e-10
7.01495350573e-05
2.04491460775e-10
7.01495219279e-05
2.02369499357e-10
7.01495107408e-05
1.90112043218e-10
7.0149500995e-05
1.64120678284e-10
7.01494896426e-05
1.21119893606e-10
7.01494841069e-05
4.96765936239e-11
7.01494721268e-05
-8.84748597501e-11
7.01494848326e-05
-3.71658539512e-10
7.01495091583e-05
-7.66384660486e-10
7.01495337146e-05
-1.34481522446e-09
7.01495372659e-05
-2.19364786767e-09
7.01494932324e-05
-3.4289376739e-09
7.01493484656e-05
-5.23174672627e-09
7.01490041529e-05
-7.87530165327e-09
7.01482854388e-05
-1.1770071218e-08
7.01468910089e-05
-1.75406130198e-08
7.01443098846e-05
-2.61421841709e-08
7.0139668791e-05
-3.90188515424e-08
7.01314877108e-05
-5.83878877509e-08
7.01172784158e-05
-8.7666517011e-08
7.0092889127e-05
-1.32111999097e-07
7.00512352458e-05
-1.99423450193e-07
6.99803507533e-05
-3.00918590002e-07
6.9860282781e-05
-4.52484397578e-07
6.96586084525e-05
-6.74735811755e-07
6.93254502032e-05
-9.90607718889e-07
6.87913163655e-05
-1.41756001289e-06
6.79737065351e-05
-1.95429528143e-06
-2.55479682962e-06
6.68146599578e-05
5.08804130724e-05
7.87227915976e-07
5.31704658265e-05
2.16453067057e-06
5.62177491339e-05
3.00906777968e-06
5.94382688453e-05
3.30264789633e-06
6.24449683281e-05
3.18548940212e-06
6.50382513598e-05
2.824734375e-06
6.71548645118e-05
2.35976731284e-06
6.88135625618e-05
1.88532028306e-06
7.00731681038e-05
1.45476791855e-06
7.10056646035e-05
1.09133049531e-06
7.1681260435e-05
7.99458827964e-07
7.21614193378e-05
5.73543066887e-07
7.24965998192e-05
4.03650120432e-07
7.27264759362e-05
2.78884253612e-07
7.28812743866e-05
1.89119187511e-07
7.29834636759e-05
1.25727350604e-07
7.30494069707e-05
8.17478594142e-08
7.30908085553e-05
5.17739314023e-08
7.31159019282e-05
3.17244742255e-08
7.31303858234e-05
1.8589044846e-08
7.31381398631e-05
1.01898997039e-08
7.31417595663e-05
4.97912040969e-09
7.31429464956e-05
1.87394156709e-09
7.31427992932e-05
1.28521940554e-10
7.3141975238e-05
-7.75256916749e-10
7.31408915123e-05
-1.15862322306e-09
7.3139775868e-05
-1.2442623058e-09
7.31387476974e-05
-1.17056163003e-09
7.3137859493e-05
-1.02219426702e-09
7.31371251637e-05
-8.49418227584e-10
7.31365372642e-05
-6.79690682769e-10
7.31360784667e-05
-5.26630828735e-10
7.31357279005e-05
-3.95745629756e-10
7.31354648721e-05
-2.87687050029e-10
7.31352710171e-05
-2.003482372e-10
7.31351307561e-05
-1.30744970325e-10
7.3135030816e-05
-7.56466605055e-11
7.31349586478e-05
-3.15224964508e-11
7.31349049214e-05
5.24636287455e-12
7.31348746332e-05
3.11649509715e-11
7.31348510175e-05
5.34501223579e-11
7.31348337068e-05
7.31721895004e-11
7.31348208606e-05
9.1112870619e-11
7.31348107253e-05
1.07913757896e-10
7.31348019875e-05
1.24242744573e-10
7.3134793763e-05
1.40462799231e-10
7.31347854519e-05
1.56594617165e-10
7.31347766356e-05
1.72367735395e-10
7.31347670294e-05
1.87194890166e-10
7.31347565968e-05
2.00213316234e-10
7.31347453988e-05
2.10401146382e-10
7.31347335195e-05
2.15967163537e-10
7.31347211356e-05
2.14386876455e-10
7.31347085498e-05
2.02404459103e-10
7.31346963857e-05
1.76071609734e-10
7.31346862745e-05
1.31266368152e-10
7.31346690412e-05
6.67426761466e-11
7.31346468188e-05
-6.6309690534e-11
7.31346060373e-05
-3.31013872213e-10
7.31345409194e-05
-7.01249583378e-10
7.31344278182e-05
-1.23168852763e-09
7.31342234079e-05
-1.98942706642e-09
7.31338599029e-05
-3.06568555294e-09
7.31332225146e-05
-4.59459746005e-09
7.31321183622e-05
-6.77146276457e-09
7.31302259543e-05
-9.87805818514e-09
7.31270179336e-05
-1.43329986321e-08
7.31216397503e-05
-2.07643828909e-08
7.31126797086e-05
-3.0059141098e-08
7.30978341408e-05
-4.35425886394e-08
7.30733962957e-05
-6.32288863393e-08
7.30334712238e-05
-9.21870704101e-08
7.29685495692e-05
-1.34501864862e-07
7.28636193745e-05
-1.95988445563e-07
7.26955229971e-05
-2.84388077164e-07
7.24297736053e-05
-4.08986507023e-07
7.2018030441e-05
-5.78864706453e-07
7.13991272521e-05
-7.98656886748e-07
7.05075565427e-05
-1.06272471851e-06
-1.345991268e-06
6.92987508793e-05
5.07871724793e-05
5.531673631e-11
5.29516494679e-05
5.33977394724e-11
5.59606878101e-05
2.915866066e-11
5.92633209488e-05
1.44445917735e-11
6.24488071568e-05
2.83478811869e-12
6.52735472552e-05
-6.11470886352e-12
6.76333263061e-05
-1.21592329564e-11
6.95186613651e-05
-1.52184054944e-11
7.09734445643e-05
-1.57357218983e-11
7.20647889072e-05
-1.4304764625e-11
7.28642588392e-05
-1.15576942052e-11
7.34378096106e-05
-8.1519601181e-12
7.38414640402e-05
-4.75399073981e-12
7.4120349887e-05
-2.03982762247e-12
7.43094691569e-05
-5.3403474831e-13
7.44351967687e-05
-7.35996297132e-13
7.4516946978e-05
-2.85221409935e-12
7.45687270282e-05
-6.65627557765e-12
7.46004624262e-05
-1.15065525639e-11
7.46190672598e-05
-1.64193586742e-11
7.4629276742e-05
-2.02632104588e-11
7.46342770632e-05
-2.19348723226e-11
7.46361711933e-05
-2.0962520937e-11
7.46363175352e-05
-1.86238643169e-11
7.46355575307e-05
-1.60795220737e-11
7.46344109555e-05
-1.28841060463e-11
7.46331751193e-05
-9.21914782875e-12
7.46320089488e-05
-5.17543046922e-12
7.46309863531e-05
-4.09278587493e-13
7.46301322322e-05
4.02209084466e-12
7.46294432098e-05
8.66493570564e-12
7.46289022351e-05
1.36631716393e-11
7.46284869414e-05
1.89228748465e-11
7.46281742123e-05
2.44568288412e-11
7.46279427893e-05
3.04606680168e-11
7.46277743582e-05
3.70813253946e-11
7.4627653761e-05
4.4381561122e-11
7.46275693129e-05
5.23468436011e-11
7.46275128899e-05
6.10467987445e-11
7.46274733303e-05
7.01547060456e-11
7.46274466791e-05
7.95856984805e-11
7.46274290565e-05
9.02733894356e-11
7.46274174838e-05
1.02152242708e-10
7.46274097669e-05
1.15143716271e-10
7.46274043504e-05
1.29211599056e-10
7.46274001463e-05
1.4422311124e-10
7.46273964092e-05
1.59895380186e-10
7.46273926108e-05
1.75748268162e-10
7.46273883253e-05
1.9108071044e-10
7.4627383206e-05
2.04945157898e-10
7.46273770654e-05
2.16150961082e-10
7.46273696955e-05
2.22938984432e-10
7.46273607433e-05
2.22977496018e-10
7.46273496245e-05
2.13282541483e-10
7.46273350241e-05
1.90396833509e-10
7.46273153204e-05
1.5070946579e-10
7.46272898867e-05
9.21728329874e-11
7.46272444198e-05
-2.07607888638e-11
7.4627156696e-05
-2.43462620191e-10
7.46270214732e-05
-5.66067798982e-10
7.4626799227e-05
-1.00938076889e-09
7.46264291157e-05
-1.61943376957e-09
7.46258149543e-05
-2.45182413147e-09
7.46248002411e-05
-3.58021126447e-09
7.46231300513e-05
-5.10163519509e-09
7.46203880991e-05
-7.13653313994e-09
7.46159074964e-05
-9.85283481506e-09
7.4608631214e-05
-1.34885074196e-08
7.45968242377e-05
-1.82525017224e-08
7.45776873026e-05
-2.44058908778e-08
7.45468024206e-05
-3.23441663674e-08
7.44974448426e-05
-4.28295986396e-08
7.44188847229e-05
-5.59417860864e-08
7.42947328834e-05
-7.18366147651e-08
7.41006243248e-05
-9.02795309379e-08
7.38017628112e-05
-1.10125034557e-07
7.33515170073e-05
-1.28619031904e-07
7.26934563252e-05
-1.40596298421e-07
7.17696057955e-05
-1.38874315534e-07
-1.14969415289e-07
7.05385837999e-05
5.07871714427e-05