/*--------------------------------*- C++ -*----------------------------------*\
| =========                 |                                                 |
| \\      /  F ield         | OpenFOAM: The Open Source CFD Toolbox           |
|  \\    /   O peration     | Version:  2106                                  |
|   \\  /    A nd           | Website:  www.openfoam.com                      |
|    \\/     M anipulation  |                                                 |
\*---------------------------------------------------------------------------*/
FoamFile
{
    version     2.0;
    format      ascii;
    arch        "LSB;label=32;scalar=64";
    class       volScalarField;
    location    "0.13";
    object      p;
}
// * * * * * * * * * * * * * * * * * * * * * * * * * * * * * * * * * * * * * //

dimensions      [0 2 -2 0 0 0 0];

internalField   nonuniform List<scalar> 
11200
(
150.129668371
147.201066864
146.087216844
145.559886884
145.192558767
144.897782104
144.636139965
144.387602955
144.143085754
143.898018741
143.649704905
143.396389751
143.136841466
142.870124605
142.595472337
142.312211145
142.019714972
141.717377474
141.404599421
141.080792404
140.745332232
140.397569809
140.036846828
139.662495672
139.273831157
138.870152363
138.450743389
138.014873954
137.561800107
137.090764876
136.600998907
136.09172108
135.562138813
135.011448247
134.438834848
133.843474361
133.224532982
132.581167424
131.912525181
131.217745037
130.495957418
129.746284646
128.967841125
128.159733395
127.321060015
126.450911284
125.548368747
124.612504464
123.642379954
122.6370447
121.595534065
120.516866474
119.400039683
118.244025934
117.04776575
115.810160069
114.530060311
113.206255872
111.837458393
110.422281898
108.959217806
107.446603388
105.882581417
104.265051183
102.591602875
100.859431434
99.065226375
97.2050274422
95.2740302671
93.2663200134
91.1745079763
88.989236363
86.6983062874
84.2855358825
81.7288480233
78.9966011759
76.0412282383
72.7902397276
69.0903215111
64.3281483931
148.336626322
146.978452529
146.187481939
145.687468943
145.296482341
144.972601507
144.688081942
144.423480964
144.167994019
143.91547275
143.66208999
143.405332355
143.143462997
142.875205582
142.599559704
142.315690433
142.022860122
141.720385587
141.407607968
141.083864972
140.748506274
140.400855305
140.040269853
139.666081507
139.277594554
138.874102401
138.454886326
138.019214212
137.566340817
137.09550821
136.605946141
136.09687213
135.567491525
135.017003245
134.444594993
133.849443032
133.230713315
132.587562467
131.919137947
131.224578585
130.503014947
129.753569585
128.975357237
128.167484885
127.329051665
126.459148607
125.556858194
124.621253684
123.65139811
122.646342862
121.60512569
120.52676799
119.410271208
118.25461216
117.05873704
115.821553835
114.541922723
113.218643982
111.850442772
110.435950018
108.973678585
107.461993319
105.899070803
104.282848528
102.610959216
100.880660803
99.0887379548
97.2313531716
95.3038667968
93.3005938793
91.2144653167
89.0365242004
86.7552245016
84.3554309305
81.8167497513
79.1106755259
76.1964105805
73.0161048747
69.4669315602
65.3537072006
147.341436033
146.687235973
146.134881169
145.697264783
145.325642656
145.003542656
144.71444439
144.444211802
144.183749827
143.927269658
143.67088646
143.411918733
143.148454628
142.879067305
142.602635711
142.318231106
142.025043596
141.722334215
141.40940424
141.085576387
140.750188291
140.402600857
140.042068873
139.667940112
139.279522562
138.876106899
138.45697206
138.021384819
137.568599578
137.097858557
136.608392221
136.099420035
135.570151136
135.01977908
134.447486502
133.85244982
133.233836724
132.59080426
131.922500721
131.228065885
130.506631185
129.757320128
128.979248584
128.171524866
127.333249688
126.463515984
125.56140855
124.626003472
123.65636727
122.651555648
121.610611636
120.532563096
119.416419391
118.261167026
117.065764066
115.829133001
114.550151751
113.22764236
111.86035692
110.446959574
108.986003466
107.475901941
105.914891582
104.301001466
102.631995113
100.905280365
99.1178149084
97.2659996208
95.3455198886
93.3511366886
91.2763999721
89.1132464374
86.8515807008
84.4784847964
81.9772339843
79.3259599737
76.4966706239
73.4577128403
70.1730579324
66.6195698793
146.791674883
146.428293924
146.028396814
145.659407652
145.321792389
145.013691278
144.728328992
144.4576257
144.195253991
143.936586953
143.678206708
143.417581914
143.15281293
142.882432615
142.605264912
142.320327181
142.026762843
141.723795338
141.410697125
141.086767898
140.75131642
140.403652674
140.04313601
139.669041966
139.280661282
138.877286596
138.458196501
138.022656513
137.56991994
137.099228071
136.609810369
136.100884744
135.571658267
135.02132877
134.449085523
133.854104763
133.23555277
132.592589415
131.924361267
131.230008235
130.508662676
129.759449173
128.981485
128.173880305
127.335738112
126.466154234
125.564217032
124.629006985
123.659595944
122.655046026
121.614408101
120.536719634
119.421001714
118.266255181
117.071455668
115.835547354
114.557435125
113.235974529
111.869958734
110.458102444
108.999023375
107.491224506
105.933045498
104.322628436
102.657870629
100.936372743
99.1553591683
97.31157757
95.4011745422
93.4195398432
91.3611161249
89.2191732029
86.9854781466
84.6499863874
82.2006038042
79.6232226465
76.9030807066
74.0304452155
71.0088863069
67.8755361161
146.457627042
146.225831956
145.924420462
145.613444622
145.308606432
145.016584227
144.737609559
144.468484029
144.205524
143.945439401
143.685469973
143.423378496
143.15737264
142.886003456
142.608074272
142.322568001
142.028591762
141.725335991
141.41204498
141.087995767
140.752483229
140.404810966
140.044282354
139.670187992
139.281830417
138.878493676
138.459451207
138.023966101
137.571290292
137.100664463
136.611318112
136.102469781
135.573327249
135.023087365
134.4509364
133.856050848
133.237597226
132.594731328
131.926604749
131.232358502
130.511126376
129.762035512
128.984205811
128.176750273
127.338775231
126.469380363
125.567658607
124.632695923
123.663570792
122.659354076
121.619106991
120.541879572
119.426708279
118.272612751
117.078591585
115.843616836
114.566626611
113.246515761
111.882127519
110.472239851
109.015552265
107.510653175
105.956004715
104.349912829
102.69048404
100.975576466
99.2027423128
97.3691592361
95.4715473349
93.5060721038
91.4682365912
89.3527757082
87.1535801297
84.8637291425
82.4757982111
79.9827720218
77.3804455964
74.6732525755
71.8825509324
69.0590429228
146.254234685
146.07833305
145.837139242
145.569814768
145.292629226
145.015992236
144.744303545
144.477802489
144.215037493
143.954028552
143.692740908
143.429307707
143.162103671
142.889738096
142.611018112
142.324905909
142.030479211
141.726898284
141.41338002
141.089178289
140.753569461
140.405841593
140.045285312
139.671191285
139.282849126
138.879538389
138.460529795
138.025084369
137.572452582
137.101873957
136.612577107
136.103779856
135.574689457
135.024502807
134.452406655
133.85757822
133.239185829
132.596389301
131.928339782
131.234181083
130.513050093
129.764074493
128.98637592
128.179069918
127.341266033
126.472068423
125.570575684
124.635880801
123.667071004
122.663226666
121.623421245
120.546719692
119.432176554
118.278833478
117.085715952
115.851829248
114.576153968
113.25764013
111.895194455
110.48767427
109.033859059
107.532455409
105.982080437
104.38121874
102.728203085
101.021183416
99.2580886154
97.4365847627
95.5540318286
93.6074440974
91.5934657811
89.5083853588
87.3482368452
85.1090789106
82.7876261875
80.3825268501
77.8968504789
75.3427597307
72.747222619
70.1573753392
146.131118044
145.975510874
145.769210096
145.532649471
145.277176049
145.013898391
144.74928687
144.485779692
144.223647601
143.962062827
143.699691486
143.43505726
143.166730559
142.893402962
142.613902327
142.327180978
142.03229377
141.72837456
141.41461498
141.090246804
140.754527994
140.406732061
140.046140246
139.672035244
139.283698291
138.880404093
138.461420437
138.026006144
137.573410183
137.102871245
136.613617592
136.104867059
135.575827169
135.025695392
134.453659644
133.858898217
133.240580076
132.597865525
131.929907015
131.235848763
130.514826224
129.765969929
128.988406301
128.181255438
127.343631934
126.474645225
125.57340022
124.638997592
123.670533907
122.667101282
121.627787203
120.551673959
119.437837281
118.285344674
117.093253128
115.860605929
114.586428129
113.269722153
111.909466136
110.504595017
109.054010175
107.556552326
106.010992382
104.416017886
102.770216966
101.072060217
99.3198830741
97.5118715358
95.6460560552
93.7203226791
91.7324582934
89.6802576158
87.5617433827
85.3755854573
83.1218561912
80.8033195329
78.4275363261
76.0101271819
73.5780027383
71.1705732827
146.05703851
145.907028886
145.720274402
145.504170712
145.264466705
145.011647656
144.753012709
144.492276514
144.230911608
143.968991651
143.705775917
143.440141148
143.170847001
142.896672354
142.616473722
142.329201176
142.033893024
141.729661647
141.415677177
141.091152145
140.755328372
140.407466441
140.046837488
139.672716298
139.284378581
138.881094619
138.462129266
138.02673927
137.574172262
137.10366618
136.614448948
136.105738379
135.576742213
135.026658251
134.454674611
133.859969976
133.241714067
132.599068013
131.931184855
131.237210801
130.516287063
129.767548511
128.990122086
128.183130806
127.345693775
126.476926272
125.57594031
124.641845147
123.673747736
122.670753262
121.631965011
120.556484008
119.443408773
118.291834553
117.100852178
115.869546575
114.596994927
113.28226408
111.924404497
110.522450979
109.075410577
107.582263453
106.041955431
104.453389881
102.815422369
101.126857323
99.3864490773
97.5929116245
95.7449440656
93.841282442
91.8807966344
89.8626575061
87.7866234894
85.6535119806
83.4659437771
81.2294643813
78.9541300183
76.6565774318
74.3615309041
72.1010571076
146.014762263
145.86531511
145.688900781
145.485164482
145.255634182
145.009928396
144.755571025
144.496935133
144.236230666
143.974138649
143.710343296
143.443986895
143.173978073
142.899168292
142.618440845
142.330747471
142.035115959
141.730643517
141.416484509
141.091837094
140.75593091
140.408016632
140.047357575
139.673223026
139.284882983
138.88160583
138.462653777
138.027281942
137.574737008
137.104256408
136.615067871
136.106389261
135.577428557
135.027383955
134.455444099
133.860788427
133.24258767
132.600004458
131.932194142
131.238305812
130.517480363
129.76885439
128.991560143
128.184725397
127.347474332
126.478928385
125.578207112
124.644429014
123.676712313
122.674175637
121.635938649
120.561122548
119.448850409
118.298247326
117.108440381
115.878558389
114.607731333
113.295089485
111.939764783
110.540887973
109.0975879
107.608991126
106.074221951
104.492403691
102.862663137
101.184139799
99.4560029641
97.6774811656
95.8479123851
93.9668247064
92.0340660144
90.0500049351
88.0158429915
85.9340780274
83.8091663471
81.6484196283
79.463113496
77.269697729
75.0902666553
72.951060757
145.99548591
145.845608588
145.673646922
145.475713435
145.251154561
145.009038188
144.756905805
144.499399548
144.239074928
143.976916105
143.712827903
143.446094717
143.175707092
142.900557655
142.619545779
142.331625224
142.035818788
141.731215868
141.416962513
141.092249207
140.756299028
140.408357305
140.047683134
139.673542698
139.285203517
138.8819323
138.462990042
138.027631098
137.575101767
137.104639404
136.615471811
136.106817095
135.577883623
135.02787012
134.455965923
133.861351371
133.24319834
132.600670861
131.932925736
131.239112832
130.51837727
129.769858791
128.992692758
128.18601113
127.348943365
126.480617368
125.580160545
124.646700942
123.679368388
122.677295658
121.639619595
120.565482221
119.454031844
118.304424181
117.11582351
115.887403931
114.61835076
113.307861732
111.955149758
110.559445494
109.119997527
107.636079046
106.106993809
104.532084134
102.910744076
101.242439375
99.5267372221
97.763350562
95.9522058174
94.0935397346
92.1880487285
90.2371026306
88.2430541523
86.2096622238
84.1426445365
82.050364629
79.9445744862
77.8410697156
75.7595932252
73.7221336149
145.995488552
145.845624697
145.673673956
145.475749674
145.251199242
145.009090497
144.75696484
144.499464504
144.239145123
143.976990962
143.712906943
143.446177545
143.175793395
142.900647194
142.619638402
142.331720853
142.035917432
141.731317624
141.417067561
141.092357799
140.75641148
140.40847399
140.047804478
139.673669178
139.285335779
138.882070959
138.463135888
138.027785154
137.57526535
137.104814091
136.615659642
136.10702061
135.578105897
135.028114844
134.456237512
133.86165512
133.243540617
132.601059367
131.933369918
131.239624744
130.518971047
129.770551511
128.993505202
128.186968538
127.35007635
126.481963072
125.581764062
124.648617046
123.681663625
122.680050861
121.642932933
120.569472888
119.458844536
118.310234514
117.122844589
115.895894284
114.628623966
113.320298349
111.970209512
110.577686247
109.142101114
107.662868824
106.139468287
104.571454053
102.958475068
101.300302027
99.5968674473
97.8483227047
96.0551146462
94.2180993252
92.3387642363
90.4192926041
88.4628581939
86.474101491
84.4595469621
82.4281132521
80.3916140714
78.3651075872
76.3665484992
74.415089189
146.014770247
145.865363817
145.688982491
145.485273953
145.255769095
145.010086098
144.755748774
144.497130536
144.236441685
143.974363568
143.710580686
143.444235585
143.17423713
142.899437013
142.618718764
142.331034368
142.035411872
141.73094874
141.416799577
141.092162761
140.756268121
140.408366491
140.047721347
139.673602293
139.285279286
138.882021128
138.463090428
138.027742933
137.575226173
137.104778605
136.615629202
136.106997235
135.578092273
135.028114359
134.456254348
133.861694403
133.243608629
132.601163803
131.933520175
131.239832269
130.51924974
129.77091828
128.993980577
128.187577418
127.350848928
126.482935989
125.582981817
124.650133696
123.683544843
122.682376409
121.645799648
120.572998292
119.463171197
118.315535315
117.129329113
115.903816537
114.63829173
113.332084653
111.98456696
110.595161295
109.163351212
107.688697568
106.170840247
104.609530345
103.004655039
101.356279253
99.6646959543
97.9304545481
96.1544590337
94.3380876987
92.4832637311
90.5927943724
88.6706035151
86.7219449167
84.7538229225
82.7754079611
80.7983987447
78.8372379186
76.9086932289
75.0302673052
146.057052032
145.90711132
145.720412447
145.504355264
145.264693694
145.011912486
144.753310719
144.492603678
144.231264527
143.969367476
143.706172286
143.440556136
143.171279078
142.897120373
142.616936927
142.329679218
142.034385978
141.730170009
141.416201835
141.09169435
140.755889707
140.408048734
140.047442713
139.67334693
139.285037327
138.88178464
138.462854445
138.027504522
137.574983882
137.104532165
136.615379303
136.106745391
135.577840756
135.027866195
134.456013382
133.861465433
133.243397599
132.600978044
131.933368678
131.239726017
130.519202114
129.770945528
128.994102409
128.187817744
127.351236767
126.483506582
125.583777982
124.651207464
123.684959426
122.684208571
121.648142562
120.575964988
119.466898717
118.320189737
117.135111613
115.910970724
114.64711247
113.342928731
111.997866492
110.611437655
109.183233565
107.712939564
106.200360694
104.645437621
103.048276427
101.409182045
99.7287055636
98.007742417
96.2475991833
94.4500865736
92.617656538
90.7535767557
88.8621537025
86.9489953265
85.0213285987
83.0883371165
81.1614811248
79.2547388021
77.3842889048
75.5671085428
146.131137483
145.975629193
145.769407562
145.532912522
145.277498539
145.014273561
144.749708017
144.486241105
144.224144513
143.962591276
143.700248213
143.435639622
143.167336463
142.894030845
142.614551163
142.327850297
142.032983674
141.729085715
141.415348581
141.091004531
140.755311981
140.407544851
140.046984702
139.672914629
139.284616237
138.881364973
138.462429607
138.027070345
137.574538025
137.104073688
136.614908363
136.106263051
135.577348874
135.027367395
134.455511097
133.860964013
133.24290248
132.600495975
131.932908
131.239296978
130.518817226
129.770619996
128.993854672
128.187670157
127.351216462
126.48364652
125.584118234
124.651796739
123.685856911
122.685486136
121.649887425
120.578282919
119.469917899
118.324065421
117.140031716
115.917162554
114.654850794
113.352545469
112.00976258
110.626098039
109.201242577
107.734998979
106.227304503
104.678258846
103.088161274
101.457551581
99.7872588114
98.0784626743
96.3327749018
94.5523405587
92.7399590219
90.8992316289
89.0347386124
87.1522556396
85.2590150467
83.364006108
81.4783195536
79.6155468142
77.7917361992
76.0243547561
146.254260712
146.078490968
145.837401346
145.570162118
145.293053113
145.016483422
144.744853131
144.478403042
144.215682897
143.954713776
143.693461854
143.43006107
143.162886851
142.890549161
142.611855792
142.325769615
142.031369022
141.727814922
141.414324778
141.090152932
140.754576052
140.406882638
140.046365645
139.672316457
139.284023235
138.880766352
138.461818045
138.026441104
137.573888305
137.103402146
136.614214778
136.105548102
135.576614027
135.026614868
134.454743903
133.860186042
133.242118598
132.599712193
131.932131713
131.238537273
130.518085256
129.76992942
128.993222162
128.187116006
127.350765337
126.483328398
125.583969543
124.651861744
123.686189377
122.686151321
121.650964468
120.579867725
119.472126596
118.327038518
117.143939118
115.922209672
114.661285904
113.360668272
112.019934208
110.638752771
109.216902125
107.75429011
106.250979042
104.707214723
103.123462132
101.500449076
99.8392190681
98.1411944023
96.4082490598
94.6427959696
92.8478896457
91.0273485307
89.1858945383
87.3293166146
85.4646742319
83.600559524
81.7474876479
79.9185470166
78.1297911916
76.3999361846
146.45766035
146.226034352
145.924753712
145.613883303
145.309138575
145.017197689
144.73829309
144.469228467
144.206321944
143.946284853
143.686358095
143.424305438
143.158335418
142.886999915
142.609103083
142.323628676
142.029684615
141.726462017
141.413205632
141.089192899
140.753719218
140.406087604
140.045602376
139.671564142
139.283266086
138.879993699
138.461022693
138.025618356
137.573035294
137.102517348
136.613297684
136.104599012
135.575633955
135.025605533
134.453707777
133.859126463
133.241039932
132.598619959
131.931032704
131.237439685
130.516998864
129.768865938
128.992195789
128.186144066
127.349869008
126.482533579
125.583307863
124.651371749
123.685917961
122.686155474
121.651313394
120.580645372
119.473434678
118.329000164
117.14670327
115.925956089
114.666230549
113.367071423
112.028109431
110.649077191
109.229828191
107.770359081
106.270836295
104.731627513
103.153339067
101.536859681
99.8834117803
98.1946116851
96.4725379495
94.7198082349
92.9396636084
91.1360613233
89.3137732145
87.4784926961
85.6369659564
83.7971793536
81.9687437887
80.1638039384
78.3978752004
76.6908170693
146.791715502
146.428544483
146.028803748
145.659938084
145.322430391
145.014421308
144.729137335
144.458501514
144.196188682
143.937573662
143.679239984
143.418657487
143.153927588
142.883584186
142.606452327
142.321550597
142.028023758
141.72509657
141.412042307
141.088161764
140.752769024
140.405180156
140.044711071
139.670668642
139.282352585
138.879052662
138.460047693
138.024605271
137.571981589
137.101421555
136.612159134
136.103417684
135.574410338
135.024340542
134.452402769
133.857783387
133.239661598
132.597210241
131.929596638
131.235983781
130.515531577
129.767397682
128.990738963
128.18471363
127.348483066
126.481214049
125.582081326
124.650270504
123.684981334
122.685431118
121.650858808
120.58053005
119.473742584
118.329832676
117.148182695
115.928230265
114.669479448
113.37151182
112.034001843
110.656734331
109.239624624
107.782742205
106.286338491
104.750879442
103.177083879
101.565967911
99.9188957889
98.2376371246
96.5244292638
94.782044151
93.0138569795
91.2239132661
89.4169867121
87.5986245989
85.7751845374
83.9538721948
82.1429705575
80.3528317949
78.5966411783
76.8929865801
147.341488769
146.687548864
146.135371828
145.697892328
145.32638746
145.004385899
144.715370143
144.445207768
144.184806371
143.928379112
143.672042694
143.413116842
143.149690727
142.880338435
142.603939847
142.319567327
142.026412544
141.72373901
141.410850714
141.087072033
140.751734634
140.404167886
140.043692546
139.669628314
139.281279534
138.877939187
138.45888864
138.023397348
137.57072298
137.100111449
136.610797421
136.102004844
135.57294739
135.022829041
134.450844802
133.856181389
133.238017699
132.595526899
131.927877548
131.234233462
130.513755144
129.765601615
128.988931923
128.182906463
127.346689177
126.479449954
125.580367277
124.648631189
123.683446594
122.68403729
121.649650389
120.579561067
119.473078486
118.329552621
117.148382227
115.929024096
114.671004711
113.373934031
112.037520157
110.661587676
109.246098905
107.791178658
106.297143157
104.764533628
103.194155101
101.587120717
99.9449015167
98.2693808214
96.5629118038
94.8283800634
93.0692587847
91.2896570977
89.4943461002
87.6887516345
85.8788857432
84.0711262502
82.272112656
80.4893623138
78.7299378258
77.0023634753
148.336726526
146.97891103
146.188165293
145.688324261
145.297486537
144.973733959
144.68932587
144.424823551
144.169425244
143.91698461
143.663675978
143.406987036
143.145181646
142.876983869
142.601393407
142.317575172
142.024790943
141.722356182
141.409613556
141.085914207
140.750598246
140.403016238
140.042515746
139.668413205
139.280016796
138.87662289
138.457514573
138.021960546
137.569219679
137.09853954
136.609155457
136.100291706
135.571162227
135.020971289
134.448914261
133.854178568
133.235945044
132.593387707
131.925674629
131.231970211
130.511436042
129.763232081
128.986518215
128.180456154
127.34421155
126.476956391
125.577871714
124.646150688
123.681002068
122.681654119
121.647359102
120.577398507
119.471089139
118.327790213
117.146911766
115.927924731
114.670372234
113.373882848
112.038187556
110.663138246
109.248729416
107.79512348
106.302680179
104.771990623
103.203916473
101.599634427
99.9606855075
98.2890267165
96.5870864401
94.8578380658
93.104829439
91.3322287157
89.5448405254
87.7480822061
85.9478502848
84.1500089648
82.36008368
80.5828239507
78.8130499049
77.0208960831
150.12983519
147.201737883
146.088210937
145.561141774
145.194044229
144.899473643
144.638019195
144.389656552
144.145303994
143.900394627
143.652233602
143.399068263
143.139668561
142.873100937
142.598600668
142.315496521
142.023164728
141.721000622
141.408401525
141.084759795
140.749470027
140.401891924
140.041356172
139.667197473
139.278733552
138.87526521
138.456078722
138.020448965
137.567634568
137.0968812
136.607424091
136.098487656
135.569285909
135.019023173
134.446894865
133.852088307
133.233783662
132.591154987
131.923371247
131.229597317
130.508995147
129.760725205
128.983948085
128.177826325
127.341526544
126.474221875
125.575094719
124.643339845
123.678167906
122.678809455
121.644519543
120.57458299
119.468320565
118.325096201
117.144325507
115.925485845
114.668128291
113.371891569
112.036518346
110.661874216
109.247969864
107.794986806
106.303307305
104.773548913
103.206604031
101.603684554
99.966371859
98.2966743924
96.5970863109
94.8706148562
93.1208657315
91.3520764809
89.5691371115
87.7775686439
85.9834260087
84.1932300315
82.4134389503
80.6489467864
78.8796085783
76.9804958214
56.9271908287
53.3762543206
50.9863482806
49.0317747056
47.3636721249
45.9113926877
44.6304215336
43.4905363425
42.4696323835
41.5506698281
40.7201097977
39.9669658788
39.2821750833
38.6581533331
38.0884676149
37.5675901229
37.0907145066
36.6536194775
36.2525684051
35.8842350403
35.5456474645
35.2341438585
34.9473358353
34.6830768583
34.4394344626
34.2146661734
34.0071983595
33.8156074995
33.6386032259
33.4750130526
33.3237692758
33.1838980834
33.0545102323
32.9347926131
32.8240001384
32.7214485192
32.6265085571
32.5386021525
32.4572009873
32.381837506
32.3121383536
32.2476917272
32.1880525825
32.1328251557
32.0816760462
32.034298944
31.9904067838
31.9497340198
31.9120349876
31.8770815233
31.844660453
31.8145744968
31.7866399112
31.7606865627
31.736556911
31.7141045195
31.6931937928
31.6736996503
31.6555060492
31.6385051808
31.6225968211
31.6076887326
31.593696439
31.5805418918
31.5681522269
31.5564599929
31.5454040438
31.5349285519
31.5249817315
31.5155147964
31.5064813578
31.4978453078
31.4895708932
31.4816232566
31.4739735111
31.4665943186
31.4594602757
31.4525445794
31.4458258405
31.43928228
31.4328965963
31.4266864625
31.4206135897
31.414668037
31.4088566425
31.4031346083
31.3974869774
31.39198802
31.3865739583
31.3812328881
31.3759614137
31.370756848
31.3656170164
31.360540132
31.3555261256
31.3505755887
31.3456888344
31.3408671407
31.3361130621
31.331430119
31.3268227278
31.3222977415
31.3178642484
31.3135314037
31.309310629
31.3052163487
31.3012632788
31.2974659547
31.2938450114
31.2904221267
31.2872185394
31.2842598427
31.2815736449
31.2791901492
31.2771475526
31.2754939227
31.2742881311
31.2735918481
31.2734693099
31.2739937924
31.275249678
31.2773305999
31.2803373787
31.2843832413
31.2896186119
31.2962290181
31.3044134771
31.3143904594
31.3264129021
31.3407846895
31.3578675778
31.3780685819
31.4018113101
31.4294029874
31.4621191995
31.501967884
31.5483069205
31.602952614
31.6676381484
31.7444321865
31.8357934248
31.9444463996
32.0728968632
32.2222256815
32.3899061278
32.5662225871
32.731025464
32.8410544125
32.8360631157
32.6292148638
32.1033560405
31.1173986538
29.535987225
27.2764979246
24.3347231666
20.7894834755
16.7740585015
12.2609628642
6.97609217762
1.69294723546
60.1096161704
56.056813675
53.3465873486
51.197320287
49.399472531
47.8541795185
46.5026949246
45.3072721955
44.2413173368
43.2849198475
42.4226251966
41.642123299
40.9334110146
40.288221172
39.6996143582
39.1616804437
38.6693197994
38.2180825216
37.804051847
37.4237575574
37.0741118628
36.7523584515
36.456030957
36.1829179784
35.9310320428
35.6985836806
35.4839588731
35.2856984966
35.1024811781
34.9331067584
34.776483186
34.6316154161
34.4975955385
34.3735940018
34.2588507114
34.1526671233
34.0544004822
33.9634584566
33.8792931344
33.8013884984
33.729249732
33.6624036117
33.6004925891
33.5431893115
33.4901325094
33.4409982675
33.395490361
33.3533272804
33.314254734
33.2780369148
33.2444526903
33.2132994799
33.1843884097
33.1575408425
33.1325926331
33.1093915056
33.0877965597
33.0676778323
33.0489145199
33.0313945595
33.015013589
32.9996756865
32.9852928189
32.9717833982
32.9590714376
32.9470866409
32.9357655
32.9250496288
32.914884985
32.9052205474
32.8960077917
32.8872203965
32.8788117268
32.8707442607
32.8629880672
32.8555156171
32.8483060497
32.8413243511
32.834548153
32.8279591683
32.8215419502
32.8152502573
32.8090941866
32.803064964
32.7971522152
32.791337622
32.7855980538
32.7799511557
32.7743851912
32.7688945045
32.7634750698
32.758123633
32.7528369266
32.7476136991
32.7424523415
32.7373531113
32.7323164348
32.7273413215
32.7224315542
32.7175891743
32.712817176
32.7081238524
32.7035121504
32.6989944306
32.6945774572
32.6902761418
32.686100693
32.6820680291
32.6781895103
32.6744933309
32.6709939392
32.6677118141
32.664677453
32.6619155646
32.6594652171
32.6573691995
32.655673111
32.6544408764
32.6537342515
32.6536144979
32.6541608168
32.6554660828
32.6576307284
32.6607586692
32.6650012282
32.670520404
32.6775193869
32.686197959
32.6968118169
32.7096553473
32.7250845153
32.7435082848
32.7653911735
32.7912943297
32.8224848719
32.859242969
32.9030224795
32.9550975907
33.0171720899
33.0913454274
33.1801378652
33.2863336223
33.4124685223
33.5595363174
33.7246083253
33.8970446452
34.0536526834
34.1515082397
34.1245001447
33.8817141885
33.2999038308
32.2329257503
30.5455877935
28.1631425215
25.0926328137
21.4172092062
17.2691161611
12.6399242596
7.27026187572
1.82847021947
62.3180423523
58.3844108643
55.5191240504
53.2384280523
51.3406506221
49.7188467965
48.3074507968
47.0639446888
45.9585030967
44.96900672
44.0784622291
43.2734664508
42.5432259577
41.8788925635
41.2730928887
40.719587669
40.2130242269
39.748755883
39.3227113365
38.9312978254
38.5713293182
38.2399698873
37.9346876134
37.6532165388
37.3935232922
37.1537790979
36.9323357802
36.727703858
36.5385344741
36.3636024027
36.2017922844
36.0520870474
35.9135573716
35.7853523652
35.6666908441
35.5568536343
35.4551779389
35.3610523203
35.273913566
35.19324402
35.118571786
35.0494421064
34.9854179215
34.9261109545
34.8711901671
34.8203313391
34.7732256306
34.7295942597
34.6891735331
34.6517187552
34.6169987261
34.5848047199
34.554934617
34.5272073969
34.5014535403
34.4775151053
34.4552460203
34.4345112087
34.4151853793
34.3971527584
34.3803052191
34.3645428101
34.349773335
34.3359116305
34.3228793014
34.3106036068
34.2990185762
34.2880635353
34.2776832444
34.2678261349
34.2584477342
34.2494894748
34.2409189665
34.2326984988
34.2247977845
34.2171930837
34.2098619966
34.2027443812
34.1958395152
34.1891338996
34.1826167408
34.1762517429
34.170029906
34.1639408098
34.1579711519
34.1521069356
34.1463342174
34.1406511549
34.1350480865
34.1295182997
34.1240563384
34.1186584488
34.1133206748
34.1080412637
34.1028181933
34.097650253
34.0925375653
34.0874790122
34.0824775371
34.077534753
34.0726523022
34.0678379354
34.0630929192
34.0584283022
34.0538507596
34.0493726217
34.0450016047
34.0407550274
34.0366416147
34.0326847365
34.0289002824
34.025306025
34.0219286476
34.0187923079
34.0159313559
34.0133857518
34.0111963463
34.0094178106
34.008108936
34.0073288465
34.0071502986
34.007657726
34.0089478938
34.0111228449
34.0143261946
34.0187070875
34.0244550254
34.0317663998
34.0408885813
34.0521082561
34.0657693739
34.0822791901
34.1021273836
34.1259327861
34.1546642394
34.1887558872
34.2296474308
34.2786871542
34.337542867
34.408320807
34.4935613529
34.5960539492
34.7183058212
34.8611503267
35.0211787027
35.1867148196
35.3319617119
35.4143588751
35.3613318946
35.0796351113
34.4411020826
33.295851635
31.5093367361
29.0135193827
25.8245164234
22.0279519371
17.7536220684
13.011090094
7.55711947581
1.95931931563
64.1229381957
60.3986221749
57.496669931
55.1448356928
53.178971911
51.4992597297
50.0400122176
48.7568615423
47.6181776805
46.6003983482
45.6854329251
44.8590570389
44.1098638452
43.4285446504