/*--------------------------------*- C++ -*----------------------------------*\
| =========                 |                                                 |
| \\      /  F ield         | OpenFOAM: The Open Source CFD Toolbox           |
|  \\    /   O peration     | Version:  2106                                  |
|   \\  /    A nd           | Website:  www.openfoam.com                      |
|    \\/     M anipulation  |                                                 |
\*---------------------------------------------------------------------------*/
FoamFile
{
    version     2.0;
    format      ascii;
    arch        "LSB;label=32;scalar=64";
    class       surfaceScalarField;
    location    "0.118";
    object      phi;
}
// * * * * * * * * * * * * * * * * * * * * * * * * * * * * * * * * * * * * * //

dimensions      [0 3 -1 0 0 0 0];

oriented        oriented;

internalField   nonuniform List<scalar> 
799
(
1.66127e-32
4.32176e-32
5.51869e-32
4.31198e-32
1.6657e-32
-5.13862e-32
-1.12166e-31
-1.59437e-31
-1.70872e-31
-1.3449e-31
-8.00696e-32
-1.91665e-32
1.79351e-32
2.63061e-32
3.35054e-33
-3.72446e-32
-8.95001e-32
-1.43214e-31
-1.84543e-31
-2.13515e-31
-2.06342e-31
-1.71189e-31
-1.10952e-31
-4.11036e-32
-1.42188e-33
6.781e-33
-3.57719e-32
-1.0728e-31
-1.74453e-31
-2.27916e-31
-2.31637e-31
-2.05197e-31
-1.59719e-31
-1.05524e-31
-8.1482e-32
-7.12423e-32
-8.92718e-32
-1.27994e-31
-1.58689e-31
-1.9619e-31
-2.0595e-31
-1.94248e-31
-1.71543e-31
-1.25574e-31
-1.01059e-31
-9.14689e-32
-1.08068e-31
-1.57698e-31
-1.98305e-31
-2.35228e-31
-2.37776e-31
-2.04528e-31
-1.61924e-31
-1.08174e-31
-8.42903e-32
-9.09558e-32
-1.24546e-31
-1.84102e-31
-2.29951e-31
-2.55527e-31
-2.42768e-31
-1.90008e-31
-1.28279e-31
-7.37022e-32
-6.1225e-32
-1.02287e-31
-1.76384e-31
-2.60186e-31
-3.05875e-31
-2.88604e-31
-2.17449e-31
-1.15905e-31
-3.96448e-32
-2.32707e-32
-7.0483e-32
-1.6437e-31
-2.50967e-31
-2.9566e-31
-2.84184e-31
-2.24944e-31
-1.58694e-31
-1.09662e-31
-9.42521e-32
-1.09197e-31
-1.33239e-31
-1.59091e-31
-1.78561e-31
-1.96583e-31
-2.16756e-31
-2.2888e-31
-2.26766e-31
-1.95486e-31
-1.42764e-31
-8.91871e-32
-5.6353e-32
-7.50661e-32
-1.33474e-31
-2.15063e-31
-2.8423e-31
-2.97394e-31
-2.61911e-31
-1.75925e-31
-8.48812e-32
-3.14265e-32
-2.21693e-32
-7.98849e-32
-1.58913e-31
-2.3246e-31
-2.76145e-31
-2.58899e-31
-2.14816e-31
-1.5181e-31
-1.04923e-31
-9.60919e-32
-1.07282e-31
-1.37654e-31
-1.54249e-31
-1.51509e-31
-1.38526e-31
-1.24389e-31
-1.34066e-31
-1.64315e-31
-2.05602e-31
-2.36176e-31
-2.34508e-31
-1.99587e-31
-1.39969e-31
-8.02586e-32
-4.21964e-32
-3.65868e-32
-6.62854e-32
-1.18413e-31
-1.79132e-31
-2.34215e-31
-2.65843e-31
-2.6834e-31
-2.34385e-31
-1.70008e-31
-9.60275e-32
-3.10112e-32
-5.48555e-33
-2.78123e-32
-9.07819e-32
-1.74741e-31
-2.39346e-31
-2.65608e-31
-2.41885e-31
-1.81402e-31
-1.18438e-31
-7.48961e-32
-7.38799e-32
-1.08219e-31
-1.54988e-31
-1.91847e-31
-1.92134e-31
-1.58996e-31
-1.07947e-31
-6.59736e-32
-6.29057e-32
-1.02681e-31
-1.73521e-31
-2.40081e-31
-2.66734e-31
-2.35532e-31
-1.55034e-31
-6.53612e-32
-6.95216e-33
-1.45348e-32
-8.06965e-32
-1.70305e-31
-2.40705e-31
-2.47219e-31
-2.00434e-31
-1.22555e-31
-5.9448e-32
-5.25854e-32
-8.80842e-32
-1.56474e-31
-2.05567e-31
-2.07197e-31
-1.70399e-31
-9.88538e-32
-4.87937e-32
-3.47253e-32
-6.31434e-32
-1.29827e-31
-1.8507e-31
-2.20764e-31
-2.12283e-31
-1.64384e-31
-1.08162e-31
-5.13136e-32
-2.73407e-32
-3.48928e-32
-6.54154e-32
-1.12891e-31
-1.49374e-31
-1.72432e-31
-1.74996e-31
-1.56114e-31
-1.28336e-31
-9.15238e-32
-5.64117e-32
-3.2494e-32
-2.3783e-32
-4.07494e-32
-7.81052e-32
-1.22008e-31
-1.55993e-31
-1.5634e-31
-1.19399e-31
-5.81999e-32
2.28855e-33
2.67915e-32
1.97215e-33
-6.19638e-32
-1.33147e-31
-1.66068e-31
-1.3549e-31
-4.8055e-32
5.99905e-32
1.32161e-31
1.28032e-31
4.75998e-32
-7.50635e-32
-1.73015e-31
-1.90815e-31
-1.16282e-31
2.78575e-32
1.70165e-31
2.4735e-31
2.31493e-31
1.27682e-31
1.3143e-33
-8.80063e-32
-9.83097e-32
-1.70678e-32
1.07535e-31
2.2966e-31
3.00781e-31
2.96674e-31
2.41963e-31
1.65716e-31
1.13069e-31
1.12741e-31
1.61984e-31
2.43788e-31
3.23878e-31
3.73257e-31
3.82536e-31
3.65994e-31
3.47805e-31
3.58518e-31
4.08887e-31
4.8013e-31
5.50277e-31
5.83271e-31
5.71671e-31
5.40101e-31
5.1634e-31
5.44002e-31
6.30858e-31
7.51101e-31
8.72194e-31
9.47347e-31
9.64256e-31
9.45429e-31
9.18506e-31
9.25596e-31
9.81099e-31
1.0674e-30
1.17196e-30
1.2641e-30
1.33703e-30
1.4048e-30
1.46474e-30
1.53509e-30
1.60895e-30
1.67665e-30
1.74844e-30
1.81657e-30
1.89749e-30
1.993e-30
2.09179e-30
2.19296e-30
2.28327e-30
2.37371e-30
2.48073e-30
2.6162e-30
2.7819e-30
2.9542e-30
3.10201e-30
3.20099e-30
3.2588e-30
3.30736e-30
3.39841e-30
3.56696e-30
3.80662e-30
4.08395e-30
4.33281e-30
4.51501e-30
4.6281e-30
4.70439e-30
4.81141e-30
4.98369e-30
5.23308e-30
5.52899e-30
5.81582e-30
6.06755e-30
6.27041e-30
6.45539e-30
6.66178e-30
6.90761e-30
7.20183e-30
7.51261e-30
7.81478e-30
8.09625e-30
8.35658e-30
8.62973e-30
8.93338e-30
9.27886e-30
9.66011e-30
1.00423e-29
1.04115e-29
1.07532e-29
1.10793e-29
1.14249e-29
1.18046e-29
1.22407e-29
1.27173e-29
1.32025e-29
1.36764e-29
1.41069e-29
1.45118e-29
1.49159e-29
1.53498e-29
1.58558e-29
1.64218e-29
1.70347e-29
1.7651e-29
1.8218e-29
1.87209e-29
1.91624e-29
1.95458e-29
2.00896e-29
2.07431e-29
2.22238e-29
2.47683e-29
2.85057e-29
3.55045e-29
3.83103e-29
4.12204e-29
2.42719e-29
-1.83553e-29
-6.96038e-29
-1.75068e-28
-1.65577e-28
-1.04651e-28
1.83505e-28
8.27875e-28
1.19338e-27
1.83601e-27
1.07455e-27
-7.43168e-28
-3.01831e-27
-7.52455e-27
-7.19479e-27
-5.91231e-27
1.7672e-27
1.68954e-26
2.26871e-26
3.30681e-26
1.66677e-26
-1.35916e-26
-4.09877e-26
-9.04759e-26
-7.13026e-26
-4.21749e-26
3.15902e-26
1.54645e-25
1.62756e-25
1.92018e-25
5.43316e-26
-1.4558e-25
-2.41542e-25
-4.1569e-25
-2.36503e-25
-3.16226e-26
2.19175e-25
5.89216e-25
4.55177e-25
3.83055e-25
-3.70631e-26
-5.43981e-25
-5.80028e-25
-7.54231e-25
-2.54557e-25
2.23649e-25
5.06869e-25
9.15314e-25
5.0688e-25
2.23665e-25
-2.54543e-25
-7.54226e-25
-5.80034e-25
-5.43993e-25
-3.70772e-26
3.83046e-25
4.55175e-25
5.8922e-25
2.19182e-25
-3.16169e-26
-2.36501e-25
-4.15692e-25
-2.41547e-25
-1.45585e-25
5.43279e-26
1.92016e-25
1.62755e-25
1.54645e-25
3.15904e-26
-4.21753e-26
-7.13034e-26
-9.04766e-26
-4.09887e-26
-1.35924e-26
1.66667e-26
3.3067e-26
2.26862e-26
1.68944e-26
1.7664e-27
-5.91302e-27
-7.19542e-27
-7.52512e-27
-3.01891e-27
-7.43779e-28
1.07389e-27
1.83531e-27
1.19268e-27
8.27182e-28
1.82885e-28
-1.05191e-28
-1.66016e-28
-1.7544e-28
-6.99743e-29
-1.877e-29
2.37518e-29
4.06181e-29
3.76759e-29
3.49118e-29
2.80414e-29
2.44411e-29
2.20172e-29
2.05847e-29
1.98912e-29
1.92635e-29
1.87702e-29
1.82533e-29
1.77354e-29
1.72077e-29
1.66899e-29
1.6191e-29
1.57252e-29
1.52847e-29
1.48463e-29
1.43887e-29
1.38979e-29
1.33827e-29
1.28787e-29
1.2413e-29
1.20122e-29
1.16695e-29
1.13555e-29
1.10443e-29
1.07e-29
1.03248e-29
9.92625e-30
9.52488e-30
9.15217e-30
8.8141e-30
8.52433e-30
8.27149e-30
8.03575e-30
7.80001e-30
7.53722e-30
7.24267e-30
6.92627e-30
6.61056e-30
6.32977e-30
6.10636e-30
5.93406e-30
5.79423e-30
5.64363e-30
5.44726e-30
5.20608e-30
4.92678e-30
4.66055e-30
4.44357e-30
4.28629e-30
4.19336e-30
4.11282e-30
4.01385e-30
3.86905e-30
3.66533e-30
3.44218e-30
3.22513e-30
3.05574e-30
2.95564e-30
2.90663e-30
2.88454e-30
2.84001e-30
2.73615e-30
2.56757e-30
2.35435e-30
2.14671e-30
1.99964e-30
1.93779e-30
1.95299e-30
1.99817e-30
2.00813e-30
1.94361e-30
1.79516e-30
1.60125e-30
1.41951e-30
1.29781e-30
1.257e-30
1.27425e-30
1.31205e-30
1.32224e-30
1.28498e-30
1.20097e-30
1.08849e-30
9.83643e-31
8.97852e-31
8.50538e-31
8.31425e-31
8.25621e-31
8.24723e-31
7.99557e-31
7.60563e-31
7.01118e-31
6.37851e-31
5.96488e-31
5.6731e-31
5.67975e-31
5.66549e-31
5.46894e-31
5.10396e-31
4.4126e-31
3.82932e-31
3.4444e-31
3.37655e-31
3.69431e-31
3.95756e-31
4.0943e-31
3.88275e-31
3.33427e-31
2.78449e-31
2.27943e-31
2.02937e-31
1.95348e-31
1.85057e-31
1.76432e-31
1.62711e-31
1.64667e-31
1.95637e-31
2.38912e-31
2.79918e-31
2.74191e-31
2.03128e-31
8.78359e-32
-3.95613e-32
-1.0519e-31
-7.57372e-32
4.01175e-32
2.04343e-31
3.20469e-31
3.38121e-31
2.37427e-31
4.91577e-32
-1.25443e-31
-2.23483e-31
-1.90461e-31
-4.11412e-32
1.3845e-31
2.8084e-31
3.03102e-31
2.0193e-31
3.38287e-32
-1.37467e-31
-2.16271e-31
-1.85247e-31
-6.6779e-32
8.62128e-32
1.84655e-31
2.05139e-31
1.40346e-31
2.75047e-32
-6.87256e-32
-1.28497e-31
-1.26412e-31
-8.35613e-32
-2.94562e-32
2.66801e-32
5.78576e-32
7.41596e-32
7.21712e-32
5.04568e-32
2.17585e-32
-2.04036e-32
-5.7104e-32
-8.3787e-32
-9.36773e-32
-8.0669e-32
-5.50545e-32
-1.63185e-32
2.05157e-32
5.24079e-32
6.72616e-32
5.88763e-32
3.0848e-32
-1.98984e-32
-6.62558e-32
-1.03591e-31
-1.13601e-31
-9.00192e-32
-5.46603e-32
-3.57049e-33
3.16323e-32
4.90119e-32
5.10552e-32
2.51981e-32
-2.50973e-33
-4.02715e-32
-7.37948e-32
-8.83957e-32
-9.17104e-32
-6.59623e-32
-2.90304e-32
1.00856e-32
4.15986e-32
4.47794e-32
2.89417e-32
-6.30441e-33
-4.50758e-32
-7.16548e-32
-8.27774e-32
-7.0878e-32
-4.48215e-32
-1.23181e-32
1.55248e-32
2.8919e-32
2.32204e-32
3.0845e-33
-2.16065e-32
-4.05137e-32
-4.05754e-32
-3.18503e-32
-1.78997e-32
-1.3313e-32
-2.61174e-32
-3.69824e-32
-4.36524e-32
-2.32947e-32
1.63232e-32
4.99011e-32
6.42734e-32
2.99181e-32
-3.12258e-32
-9.32195e-32
-1.23085e-31
-9.06526e-32
-1.95286e-32
6.55268e-32
1.14214e-31
1.00278e-31
3.63128e-32
-5.28924e-32
-1.11235e-31
-1.16339e-31
-6.56953e-32
1.48154e-32
7.47502e-32
9.2899e-32
5.57752e-32
-1.00374e-32
-6.4621e-32
-8.49323e-32
-5.25779e-32
6.96089e-33
6.2692e-32
8.76147e-32
6.06555e-32
2.89642e-33
-6.10347e-32
-1.002e-31
-8.88862e-32
-3.91949e-32
3.24625e-32
9.53034e-32
1.17994e-31
1.00515e-31
4.47312e-32
-2.66734e-32
-8.25667e-32
-1.1338e-31
-1.0205e-31
-5.58557e-32
7.01526e-33
7.65023e-32
1.2198e-31
1.34387e-31
1.07334e-31
4.05077e-32
-3.74157e-32
-1.076e-31
-1.38408e-31
-1.12756e-31
-4.11818e-32
5.76906e-32
1.38775e-31
1.69021e-31
1.35011e-31
4.66171e-32
-5.30804e-32
-1.21421e-31
-1.2717e-31
-6.67934e-32
2.75569e-32
1.12186e-31
1.48197e-31
1.17837e-31
4.21245e-32
-4.23975e-32
-9.49619e-32
-8.60101e-32
-2.86994e-32
5.38042e-32
1.19171e-31
1.31372e-31
9.72459e-32
2.33248e-32
-4.50873e-32
-7.35367e-32
-6.08263e-32
1.53473e-33
6.6588e-32
1.09525e-31
1.18124e-31
7.57583e-32
2.46429e-32
-2.36216e-32
-4.59643e-32
-2.63506e-32
6.78815e-33
5.19061e-32
8.26818e-32
8.82851e-32
8.01713e-32
5.57801e-32
3.37792e-32
2.07007e-32
1.34635e-32
1.54936e-32
1.79233e-32
1.60996e-32
1.72539e-32
1.73462e-32
2.71291e-32
4.99365e-32
7.38406e-32
1.02983e-31
1.11532e-31
9.75452e-32
6.24046e-32
4.31942e-33
-3.93567e-32
-6.5192e-32
-5.03525e-32
3.12437e-33
6.72541e-32
1.30537e-31
1.54073e-31
1.38863e-31
8.70332e-32
2.33632e-32
-2.56762e-32
-4.62216e-32
-2.49649e-32
5.7146e-33
5.44752e-32
7.48525e-32
7.54754e-32
6.84427e-32
2.36152e-32
1.4203e-32
-1.82881e-32
-2.45122e-32
-4.6098e-33
)
;

boundaryField
{
    left
    {
        type            calculated;
        value           uniform 0;
    }
    right
    {
        type            calculated;
        value           uniform 0;
    }
    empty
    {
        type            empty;
        value           nonuniform List<scalar> 0();
    }
}


// ************************************************************************* //
