/*--------------------------------*- C++ -*----------------------------------*\
| =========                 |                                                 |
| \\      /  F ield         | OpenFOAM: The Open Source CFD Toolbox           |
|  \\    /   O peration     | Version:  2106                                  |
|   \\  /    A nd           | Website:  www.openfoam.com                      |
|    \\/     M anipulation  |                                                 |
\*---------------------------------------------------------------------------*/
FoamFile
{
    version     2.0;
    format      ascii;
    arch        "LSB;label=32;scalar=64";
    class       surfaceScalarField;
    location    "0.159";
    object      phi;
}
// * * * * * * * * * * * * * * * * * * * * * * * * * * * * * * * * * * * * * //

dimensions      [0 3 -1 0 0 0 0];

oriented        oriented;

internalField   nonuniform List<scalar> 
799
(
1.57783e-32
4.15516e-32
5.26847e-32
3.9781e-32
1.24802e-32
-5.63936e-32
-1.18002e-31
-1.66099e-31
-1.78359e-31
-1.42803e-31
-8.92031e-32
-2.91193e-32
7.1684e-33
1.47316e-32
-9.02874e-33
-5.04264e-32
-1.0348e-31
-1.57988e-31
-2.00106e-31
-2.29863e-31
-2.23465e-31
-1.89086e-31
-1.29612e-31
-6.05208e-32
-2.15945e-32
-1.41402e-32
-5.74356e-32
-1.29678e-31
-1.97583e-31
-2.51773e-31
-2.56209e-31
-2.3048e-31
-1.85706e-31
-1.322e-31
-1.08839e-31
-9.9273e-32
-1.17968e-31
-1.57347e-31
-1.88688e-31
-2.2683e-31
-2.37223e-31
-2.26143e-31
-2.04055e-31
-1.58692e-31
-1.34776e-31
-1.25769e-31
-1.42943e-31
-1.93138e-31
-2.343e-31
-2.7177e-31
-2.74854e-31
-2.42135e-31
-2.00049e-31
-1.46807e-31
-1.23422e-31
-1.30576e-31
-1.64641e-31
-2.24666e-31
-2.70973e-31
-2.96997e-31
-2.84678e-31
-2.32344e-31
-1.71031e-31
-1.1686e-31
-1.0478e-31
-1.4623e-31
-2.20703e-31
-3.04872e-31
-3.50915e-31
-3.33989e-31
-2.63166e-31
-1.61947e-31
-8.60048e-32
-6.99368e-32
-1.17443e-31
-2.11615e-31
-2.98483e-31
-3.43441e-31
-3.32231e-31
-2.73243e-31
-2.07233e-31
-1.5843e-31
-1.43241e-31
-1.58398e-31
-1.82642e-31
-2.08687e-31
-2.2834e-31
-2.46536e-31
-2.66875e-31
-2.79156e-31
-2.77189e-31
-2.46047e-31
-1.93452e-31
-1.39999e-31
-1.07277e-31
-1.26096e-31
-1.84601e-31
-2.66278e-31
-3.35523e-31
-3.48757e-31
-3.13339e-31
-2.27409e-31
-1.36411e-31
-8.29918e-32
-7.37624e-32
-1.315e-31
-2.10547e-31
-2.84099e-31
-3.27778e-31
-3.10522e-31
-2.66414e-31
-2.03375e-31
-1.56446e-31
-1.47568e-31
-1.58703e-31
-1.89012e-31
-2.05534e-31
-2.02709e-31
-1.89633e-31
-1.75395e-31
-1.84959e-31
-2.15086e-31
-2.56239e-31
-2.86667e-31
-2.84847e-31
-2.49757e-31
-1.89964e-31
-1.30068e-31
-9.18071e-32
-8.5986e-32
-1.15459e-31
-1.6735e-31
-2.27816e-31
-2.82628e-31
-3.13973e-31
-3.16175e-31
-2.81905e-31
-2.17197e-31
-1.42868e-31
-7.7484e-32
-5.15716e-32
-7.34916e-32
-1.36035e-31
-2.19545e-31
-2.83679e-31
-3.09446e-31
-2.85197e-31
-2.24175e-31
-1.6064e-31
-1.16499e-31
-1.14853e-31
-1.48527e-31
-1.94603e-31
-2.30738e-31
-2.30262e-31
-1.96323e-31
-1.44447e-31
-1.016e-31
-9.76131e-32
-1.36428e-31
-2.06259e-31
-2.71763e-31
-2.97309e-31
-2.64951e-31
-1.83241e-31
-9.2299e-32
-3.25557e-32
-3.8742e-32
-1.0344e-31
-1.91519e-31
-2.60319e-31
-2.6516e-31
-2.16623e-31
-1.36913e-31
-7.18793e-32
-6.3011e-32
-9.64139e-32
-1.62609e-31
-2.09406e-31
-2.08634e-31
-1.69327e-31
-9.51573e-32
-4.23569e-32
-2.54279e-32
-5.08536e-32
-1.14408e-31
-1.66384e-31
-1.98671e-31
-1.86632e-31
-1.35023e-31
-7.49367e-32
-1.40565e-32
1.41255e-32
1.09661e-32
-1.49741e-32
-5.76748e-32
-8.91835e-32
-1.0706e-31
-1.04225e-31
-7.9722e-32
-4.60914e-32
-3.18606e-33
3.82622e-32
6.8782e-32
8.43572e-32
7.45348e-32
4.46036e-32
8.42293e-33
-1.75425e-32
-9.55743e-33
3.6048e-32
1.06244e-31
1.76074e-31
2.10275e-31
1.9552e-31
1.42028e-31
8.1682e-32
5.99957e-32
1.02226e-31
2.01741e-31
3.22303e-31
4.07446e-31
4.16753e-31
3.50241e-31
2.4199e-31
1.58955e-31
1.5659e-31
2.47093e-31
4.07747e-31
5.67132e-31
6.61975e-31
6.6437e-31
5.79416e-31
4.72527e-31
4.03323e-31
4.13786e-31
5.16464e-31
6.63192e-31
8.0814e-31
9.02799e-31
9.22964e-31
8.93271e-31
8.42811e-31
8.16725e-31
8.43759e-31
9.21178e-31
1.03199e-30
1.14194e-30
1.22204e-30
1.26291e-30
1.27886e-30
1.29407e-30
1.33911e-30
1.42476e-30
1.53224e-30
1.6396e-30
1.7108e-30
1.73842e-30
1.74708e-30
1.76459e-30
1.83458e-30
1.96482e-30
2.12954e-30
2.2962e-30
2.41803e-30
2.48274e-30
2.51285e-30
2.53603e-30
2.59436e-30
2.70228e-30
2.84219e-30
3.00155e-30
3.14969e-30
3.27984e-30
3.40605e-30
3.52566e-30
3.65693e-30
3.79295e-30
3.92407e-30
4.06055e-30
4.19461e-30
4.34275e-30
4.50675e-30
4.6753e-30
4.84752e-30
5.01016e-30
5.1742e-30
5.35611e-30
5.56774e-30
5.81088e-30
6.06189e-30
6.28968e-30
6.46991e-30
6.61023e-30
6.74254e-30
6.91858e-30
7.17335e-30
7.50046e-30
7.86644e-30
8.20515e-30
8.47837e-30
8.68366e-30
8.8533e-30
9.0548e-30
9.32268e-30
9.66876e-30
1.00624e-29
1.04481e-29
1.07996e-29
1.11033e-29
1.13901e-29
1.16993e-29
1.20488e-29
1.24476e-29
1.28638e-29
1.32722e-29
1.36607e-29
1.40288e-29
1.44105e-29
1.48234e-29
1.52787e-29
1.57704e-29
1.62636e-29
1.67443e-29
1.71982e-29
1.76367e-29
1.80952e-29
1.8588e-29
1.91377e-29
1.97281e-29
2.03272e-29
2.09153e-29
2.14599e-29
2.1979e-29
2.24974e-29
2.30455e-29
2.36656e-29
2.43456e-29
2.50722e-29
2.5802e-29
2.6482e-29
2.70976e-29
2.76514e-29
2.81465e-29
2.88015e-29
2.95655e-29
3.11561e-29
3.38097e-29
3.76554e-29
4.47617e-29
4.7674e-29
5.06897e-29
3.38457e-29
-8.67815e-30
-5.98244e-29
-1.65188e-28
-1.55597e-28
-9.45724e-29
1.9368e-28
8.38146e-28
1.20375e-27
1.84647e-27
1.0851e-27
-7.32531e-28
-3.00759e-27
-7.51374e-27
-7.1839e-27
-5.90134e-27
1.77825e-27
1.69065e-26
2.26983e-26
3.30793e-26
1.6679e-26
-1.35801e-26
-4.09762e-26
-9.04643e-26
-7.1291e-26
-4.21633e-26
3.16019e-26
1.54657e-25
1.62767e-25
1.9203e-25
5.43435e-26
-1.45568e-25
-2.4153e-25
-4.15678e-25
-2.36491e-25
-3.16105e-26
2.19187e-25
5.89228e-25
4.55189e-25
3.83067e-25
-3.70509e-26
-5.43969e-25
-5.80016e-25
-7.54219e-25
-2.54545e-25
2.23661e-25
5.06881e-25
9.15326e-25
5.06892e-25
2.23677e-25
-2.54531e-25
-7.54214e-25
-5.80022e-25
-5.43981e-25
-3.7065e-26
3.83058e-25
4.55188e-25
5.89233e-25
2.19194e-25
-3.16048e-26
-2.36489e-25
-4.1568e-25
-2.41535e-25
-1.45573e-25
5.43398e-26
1.92028e-25
1.62767e-25
1.54657e-25
3.16021e-26
-4.21636e-26
-7.12918e-26
-9.04651e-26
-4.09773e-26
-1.3581e-26
1.6678e-26
3.30783e-26
2.26973e-26
1.69055e-26
1.7774e-27
-5.9021e-27
-7.18458e-27
-7.51437e-27
-3.00824e-27
-7.33198e-28
1.08438e-27
1.84571e-27
1.20298e-27
8.37394e-28
1.93e-28
-9.5173e-29
-1.56097e-28
-1.65622e-28
-6.02576e-29
-9.15593e-30
3.32621e-29
5.00236e-29
4.69755e-29
4.41047e-29
3.71266e-29
3.34177e-29
3.08847e-29
2.93422e-29
2.85382e-29
2.77993e-29
2.71943e-29
2.65653e-29
2.59348e-29
2.52943e-29
2.46632e-29
2.4051e-29
2.34715e-29
2.29174e-29
2.23651e-29
2.17938e-29
2.11892e-29
2.05603e-29
1.99428e-29
1.93638e-29
1.88499e-29
1.83943e-29
1.79678e-29
1.75444e-29
1.70885e-29
1.6602e-29
1.60928e-29
1.55813e-29
1.5099e-29
1.4652e-29
1.4254e-29
1.38936e-29
1.3551e-29
1.32092e-29
1.28412e-29
1.24423e-29
1.20224e-29
1.16041e-29
1.12216e-29
1.08975e-29
1.06255e-29
1.0387e-29
1.01388e-29
9.84582e-30
9.50913e-30
9.13542e-30
8.7759e-30
8.46677e-30
8.2185e-30
8.03574e-30
7.86657e-30
7.68016e-30
7.44913e-30
7.16039e-30
6.85346e-30
6.55387e-30
6.30319e-30
6.12305e-30
5.99526e-30
5.89565e-30
5.77487e-30
5.59602e-30
5.35373e-30
5.06808e-30
4.78927e-30
4.57231e-30
4.44184e-30
4.38968e-30
4.36877e-30
4.31391e-30
4.1858e-30
3.97502e-30
3.72003e-30
3.47844e-30
3.29811e-30
3.19989e-30
3.16094e-30
3.14374e-30
3.10014e-30
3.01026e-30
2.8748e-30
2.71202e-30
2.55802e-30
2.42421e-30
2.32999e-30
2.26508e-30
2.21458e-30
2.17005e-30
2.10233e-30
2.02183e-30
1.92192e-30
1.81922e-30
1.73942e-30
1.67279e-30
1.63699e-30
1.60005e-30
1.54583e-30
1.4757e-30
1.37384e-30
1.28369e-30
1.21425e-30
1.17738e-30
1.17991e-30
1.17784e-30
1.16392e-30
1.11598e-30
1.03512e-30
9.54905e-31
8.79911e-31
8.31148e-31
8.00526e-31
7.67903e-31
7.37636e-31
7.02942e-31
6.8458e-31
6.95874e-31
7.20099e-31
7.42665e-31
7.19094e-31
6.30769e-31
4.98781e-31
3.55242e-31
2.74009e-31
2.88378e-31
3.89662e-31
5.39814e-31
6.42344e-31
6.46871e-31
5.33507e-31
3.33013e-31
1.46624e-31
3.72156e-32
5.92764e-32
1.98025e-31
3.67432e-31
5.00011e-31
5.12823e-31
4.0255e-31
2.2569e-31
4.5962e-32
-4.09561e-32
-1.77366e-32
9.3227e-32
2.39e-31
3.30505e-31
3.44326e-31
2.73129e-31
1.54141e-31
5.20076e-32
-1.34326e-32
-1.67849e-32
2.08504e-32
6.99526e-32
1.21287e-31
1.47863e-31
1.59756e-31
1.53545e-31
1.27783e-31
9.52071e-32
4.93354e-32
9.08544e-33
-2.09904e-32
-3.41266e-32
-2.42204e-32
-1.57385e-33
3.43282e-32
6.84578e-32
9.77639e-32
1.1015e-31
9.94096e-32
6.91349e-32
1.62429e-32
-3.21593e-32
-7.1443e-32
-8.33085e-32
-6.14943e-32
-2.78146e-32
2.16795e-32
5.53643e-32
7.13e-32
7.19756e-32
4.4805e-32
1.58573e-32
-2.30871e-32
-5.77331e-32
-7.33975e-32
-7.77158e-32
-5.29217e-32
-1.68933e-32
2.13658e-32
5.20738e-32
5.4491e-32
3.79406e-32
2.02298e-33
-3.73796e-32
-6.4554e-32
-7.62337e-32
-6.48559e-32
-3.9286e-32
-7.2409e-33
2.01711e-32
3.31621e-32
2.70892e-32
6.60233e-33
-1.84167e-32
-3.76279e-32
-3.79709e-32
-2.95055e-32
-1.57956e-32
-1.14339e-32
-2.44473e-32
-3.54973e-32
-4.23389e-32
-2.21362e-32
1.73409e-32
5.08009e-32
6.50663e-32
3.06163e-32
-3.06131e-32
-9.26824e-32
-1.22614e-31
-9.02351e-32
-1.91555e-32
6.58638e-32
1.14528e-31
1.00576e-31
3.66062e-32
-5.26005e-32
-1.10938e-31
-1.16031e-31
-6.53688e-32
1.51622e-32
7.51233e-32
9.33053e-32
5.62235e-32
-9.54389e-33
-6.40733e-32
-8.43244e-32
-5.19053e-32
7.69997e-33
6.35015e-32
8.84904e-32
6.16019e-32
3.91223e-33
-5.9949e-32
-9.90406e-32
-8.76524e-32
-3.7885e-32
3.38497e-32
9.67705e-32
1.19542e-31
1.02146e-31
4.64458e-32
-2.48753e-32
-8.06904e-32
-1.11425e-31
-1.00019e-31
-5.37455e-32
9.20483e-33
7.87728e-32
1.2433e-31
1.36815e-31
1.0984e-31
4.30897e-32
-3.476e-32
-1.0487e-31
-1.35599e-31
-1.0987e-31
-3.82207e-32
6.07119e-32
1.41852e-31
1.72163e-31
1.38211e-31
4.98729e-32
-4.97687e-32
-1.18056e-31
-1.23753e-31
-6.33207e-32
3.10825e-32
1.15762e-31
1.51821e-31
1.21505e-31
4.58341e-32
-3.8648e-32
-9.11762e-32
-8.21891e-32
-2.48475e-32
5.76884e-32
1.23081e-31
1.35306e-31
1.01194e-31
2.7285e-32
-4.11175e-32
-6.95584e-32
-5.68405e-32
5.522e-33
7.05698e-32
1.13506e-31
1.22102e-31
7.9729e-32
2.86061e-32
-1.96758e-32
-4.20477e-32
-2.24627e-32
1.06423e-32
5.57278e-32
8.64675e-32
9.20346e-32
8.38848e-32
5.94482e-32
3.74025e-32
2.42742e-32
1.69858e-32
1.89614e-32
2.1337e-32
1.94549e-32
2.05496e-32
2.05766e-32
3.02925e-32
5.3024e-32
7.68423e-32
1.05902e-31
1.14362e-31
1.00285e-31
6.5049e-32
6.86884e-33
-3.69026e-32
-6.28387e-32
-4.81051e-32
5.26471e-33
6.92872e-32
1.32462e-31
1.55886e-31
1.40566e-31
8.86221e-32
2.48415e-32
-2.43064e-32
-4.49599e-32
-2.38138e-32
6.7558e-33
5.54036e-32
7.5674e-32
7.61931e-32
6.90566e-32
2.41232e-32
1.461e-32
-1.79826e-32
-2.43098e-32
-4.50868e-33
)
;

boundaryField
{
    left
    {
        type            calculated;
        value           uniform 0;
    }
    right
    {
        type            calculated;
        value           uniform 0;
    }
    empty
    {
        type            empty;
        value           nonuniform List<scalar> 0();
    }
}


// ************************************************************************* //
