/*--------------------------------*- C++ -*----------------------------------*\
| =========                 |                                                 |
| \\      /  F ield         | OpenFOAM: The Open Source CFD Toolbox           |
|  \\    /   O peration     | Version:  2106                                  |
|   \\  /    A nd           | Website:  www.openfoam.com                      |
|    \\/     M anipulation  |                                                 |
\*---------------------------------------------------------------------------*/
FoamFile
{
    version     2.0;
    format      ascii;
    arch        "LSB;label=32;scalar=64";
    class       volScalarField;
    location    "0.12";
    object      p;
}
// * * * * * * * * * * * * * * * * * * * * * * * * * * * * * * * * * * * * * //

dimensions      [0 2 -2 0 0 0 0];

internalField   nonuniform List<scalar> 
9600
(
2.20920747725
-0.688803722693
-1.59303451845
-1.97864444707
-2.19797629585
-2.33791943634
-2.44182405374
-2.52937358932
-2.60887290499
-2.68426275674
-2.75763652286
-2.83014512035
-2.90241810117
-2.97478640293
-3.04740650186
-3.12033420314
-3.19356955194
-3.26708428434
-3.34083819294
-3.41478843561
-3.4888943279
-3.5631214429
-3.63743939529
-3.71182400928
-3.78625606038
-3.86072049256
-3.93520566406
-4.00970271108
-4.084204777
-4.15870659928
-4.23320412462
-4.30769406022
-4.38217369776
-4.45664069212
-4.53109289328
-4.60552824787
-4.67994479778
-4.75434056976
-4.82871348331
-4.90306141024
-4.97738204204
-5.05167290422
-5.12593141099
-5.20015478768
-5.27433999636
-5.34848380156
-5.42258267129
-5.49663274042
-5.57062992012
-5.64456984714
-5.71844778767
-5.79225869922
-5.86599715881
-5.93965730564
-6.01323286701
-6.08671711893
-6.1601029185
-6.23338270759
-6.30654835186
-6.37959112977
-6.45250182948
-6.52527053263
-6.59788658468
-6.67033882745
-6.74261544458
-6.81470376319
-6.8865903819
-6.95826110428
-7.02970074125
-7.10089324328
-7.17182166369
-7.24246802889
-7.31281346802
-7.38283800771
-7.45252044445
-7.52183858307
-7.59076901274
-7.65928686505
-7.72736616426
-7.79497976809
-7.86209883457
-7.92869313406
-7.99473129041
-8.06018021438
-8.12500517992
-8.18917008188
-8.25263710261
-8.31536666546
-8.37731760124
-8.43844687468
-8.49870959598
-8.55805932363
-8.61644755743
-8.67382376656
-8.73013591827
-8.78532984908
-8.83934916737
-8.89213592961
-8.94363017309
-8.99376948727
-9.04248982767
-9.08972533478
-9.13540763536
-9.17946666003
-9.22183056845
-9.26242514612
-9.30117453494
-9.33800111743
-9.37282489992
-9.4055642429
-9.43613615897
-9.46445539825
-9.49043508714
-9.51398748495
-9.53502270955
-9.55344904878
-9.56917414331
-9.58210416693
-9.59214378383
-9.59919709644
-9.60316705422
-9.60395530927
-9.60146314601
-9.59559124129
-9.58624003037
-9.57330881179
-9.55669645707
-9.53630111711
-9.5120211231
-9.48375467091
-9.45139941765
-9.41485293176
-9.37401243333
-9.32877405858
-9.27903345161
-9.2246858121
-9.16562428297
-9.10173938125
-9.0329196095
-8.95904978066
-8.88000887757
-8.79566943582
-8.70589561821
-8.6105396504
-8.50943770755
-8.40240638133
-8.28923644002
-8.16968237735
-8.04345089469
-7.91018384942
-7.76943112089
-7.62060756736
-7.46292196637
-7.29525254089
-7.11592999073
-6.92241876778
-6.71083228469
-6.47529616092
-6.21629844446
-6.00160824536
0.297667093411
-0.884688433488
-1.49336296346
-1.84738649726
-2.0900029604
-2.26056672751
-2.38863808082
-2.49314043649
-2.58421607081
-2.66749435707
-2.7462671961
-2.82248428469
-2.8973048237
-2.97141704362
-3.04522292193
-3.11894910272
-3.19271536058
-3.26657750632
-3.34055424905
-3.4146438314
-3.48883469748
-3.5631104086
-3.6374543432
-3.71185116865
-3.78628729502
-3.86075130744
-3.93523380204
-4.00972728094
-4.08422568787
-4.15872413803
-4.23321877022
-4.30770636552
-4.38218418165
-4.45664980683
-4.53110104705
-4.60553579102
-4.67995202267
-4.75434775413
-4.82872084959
-4.90306913518
-4.97739029271
-5.05168180009
-5.12594105195
-5.20016525431
-5.2743513738
-5.34849610508
-5.42259598657
-5.49664716999
-5.57064551939
-5.64458670971
-5.71846603695
-5.7922784431
-5.86601848864
-5.93968030027
-6.01325763589
-6.08674381133
-6.16013166592
-6.23341365065
-6.30658168544
-6.37962699707
-6.45254032252
-6.52531183255
-6.59793089025
-6.67038628503
-6.74266627096
-6.81475822068
-6.88664866938
-6.95832344035
-7.02976736811
-7.10096438348
-7.17189759437
-7.24254902459
-7.31289977863
-7.38292998399
-7.45261841411
-7.52194276704
-7.59087975972
-7.6594045986
-7.72749114172
-7.79511229329
-7.86223937148
-7.92884204044
-7.99488891199
-8.06034703468
-8.12518161666
-8.18935652413
-8.25283404164
-8.31557452
-8.37753677099
-8.43867791345
-8.49895296555
-8.55831541817
-8.6167169663
-8.67410698333
-8.73043331965
-8.78564206322
-8.83967678737
-8.89247932733
-8.94398993936
-8.99414629002
-9.04288406716
-9.09013753931
-9.13583843206
-9.17991645846
-9.22229996942
-9.26291486632
-9.30168494985
-9.33853264585
-9.37337813816
-9.40613945604
-9.4367335145
-9.46507555469
-9.49107836001
-9.51465396526
-9.53571293633
-9.55416350916
-9.56991312917
-9.58286820491
-9.59293327135
-9.60001228288
-9.60400852215
-9.60482366389
-9.60235885901
-9.5965148351
-9.58719087519
-9.57428664009
-9.55770172415
-9.53733527481
-9.51308592206
-9.48485236598
-9.45253294021
-9.41602580265
-9.37522942469
-9.3300414908
-9.28035865298
-9.22607779375
-9.16709505442
-9.10330391851
-9.03459611823
-8.96086132157
-8.88198453999
-8.79784522225
-8.70831650783
-8.61326289671
-8.51253605896
-8.40597179155
-8.29338692125
-8.17457173251
-8.04928152016
-7.91722638899
-7.77805707781
-7.63134505656
-7.47655707336
-7.31302743134
-7.1399391131
-6.95640059179
-6.76172395967
-6.55530193371
-6.33778316516
-6.13300203858
-0.67817531854
-1.15954332097
-1.55080298096
-1.84241873024
-2.06399182185
-2.23192815385
-2.36402975549
-2.47381798689
-2.56967664953
-2.65682122523
-2.73856335419
-2.81699790614
-2.89344508267
-2.96873448348
-3.04338229414
-3.11770385659
-3.19188631114
-3.26603582717
-3.34020836187
-3.41442937761
-3.48870674663
-3.56303848313
-3.63741763409
-3.71183597293
-3.78628465817
-3.86075553259
-3.9352413644
-4.00973607181
-4.08423455315
-4.15873249528
-4.23322636987
-4.30771316601
-4.38219023912
-4.45665521357
-4.53110593064
-4.60554029769
-4.67995627126
-4.75435186617
-4.8287249344
-4.90307324681
-4.97739448454
-5.05168613642
-5.1259455809
-5.20017004177
-5.2743564905
-5.34850164761
-5.42260194209
-5.49665359324
-5.57065249476
-5.64459429164
-5.71847428663
-5.792287401
-5.86602817328
-5.93969073102
-6.01326884028
-6.08675586164
-6.16014464352
-6.23342760287
-6.30659668572
-6.37964313593
-6.45255762292
-6.52533035027
-6.59795076883
-6.67040763268
-6.74268917138
-6.81478279398
-6.88667499425
-6.95835158392
-7.02979744739
-7.10099649668
-7.17193186019
-7.24258560421
-7.31293876952
-7.38297150356
-7.45266264587
-7.5219897971
-7.59092966424
-7.65945760233
-7.72754740348
-7.79517187754
-7.8623025044
-7.92890896405
-7.99495974079
-8.06042196375
-8.1252608773
-8.18944025645
-8.25292244288
-8.31566780408
-8.37763505438
-8.43878141824
-8.49906196453
-8.55843003144
-8.6168374185
-8.67423358842
-8.73056618937
-8.78578137119
-8.83982286787
-8.8926323013
-8.94414990118
-8.99431353339
-9.04305871981
-9.09031965545
-9.13602829909
-9.18011422966
-9.22250572152
-9.26312891869
-9.30190749394
-9.33876371862
-9.37361807482
-9.40638864231
-9.43699244507
-9.4653447836
-9.49135842422
-9.51494501097
-9.53601525901
-9.55447762585
-9.57023937231
-9.58320707551
-9.5932854928
-9.60037834081
-9.60438897998
-9.60521942719
-9.60277089908
-9.59694447895
-9.58764049938
-9.57475858934
-9.55819816346
-9.53785845965
-9.51363843437
-9.48543731556
-9.45315410335
-9.4166874446
-9.37593667167
-9.33080113198
-9.28117902063
-9.22696851527
-9.16806813081
-9.10437459781
-9.0357828862
-8.96218691313
-8.88347769679
-8.799541824
-8.71026081179
-8.6155104367
-8.51515749229
-8.40905647207
-8.29704836168
-8.17895636811
-8.05458063915
-7.92369305435
-7.7860321409
-7.64129875313
-7.48915556522
-7.32924099691
-7.16121428171
-6.98489163392
-6.80057500556
-6.60923169087
-6.41250299946
-6.21965172082
-1.229636315
-1.4159814866
-1.65842958244
-1.88089791205
-2.0680878932
-2.22211591353
-2.35055335938
-2.46084360718
-2.55863816017
-2.64799820548
-2.73176929293
-2.81189608357
-2.8896859708
-2.9660080251
-3.04143266453
-3.11632854892
-3.1909293626
-3.26537950063
-3.33976524233
-3.41413548088
-3.48851573488
-3.56291724953
-3.6373436472
-3.71179274037
-3.78626117679
-3.86074441719
-3.93523772859
-4.00973672384
-4.08423749256
-4.1587365103
-4.23323073282
-4.30771747149
-4.38219428867
-4.45665892055
-4.53110928813
-4.60554337101
-4.67995913138
-4.75435458775
-4.82872760919
-4.90307593829
-4.97739725167
-5.0516890431
-5.12594865533
-5.20017329263
-5.27435992936
-5.34850525317
-5.42260581035
-5.49665779433
-5.57065704989
-5.64459920608
-5.71847955184
-5.79229299684
-5.86603412875
-5.93969710542
-6.01327568404
-6.08676325217
-6.16015267908
-6.23343629387
-6.30660604111
-6.3796532068
-6.45256841276
-6.52534184929
-6.59796305697
-6.67042079742
-6.74270324576
-6.81479783732
-6.88669108248
-6.95836875515
-7.02981578066
-7.10101605856
-7.17195271516
-7.24260787557
-7.31296252369
-7.3829967697
-7.45268955333
-7.52201843507
-7.59096000974
-7.65948975027
-7.72758151362
-7.79520798194
-7.8623407015
-7.9289494488
-7.99500259213
-8.06046725702
-8.12530876581
-8.18949084122
-8.25297583095
-8.31572415334
-8.37769444146
-8.43884394991
-8.49912785561
-8.55849936175
-8.61691027947
-8.67431025249
-8.73064678289
-8.78586594165
-8.8399116924
-8.89272558454
-8.94424769276
-8.99441616512
-9.04316651956
-9.09043274811
-9.13614694395
-9.18023873173
-9.2226362173
-9.26326564003
-9.30205071651
-9.33891353783
-9.373774748
-9.40655246655
-9.43716318176
-9.4655224791
-9.4915435208
-9.51513768424
-9.53621563843
-9.55468612724
-9.57045625709
-9.58343259555
-9.59352023328
-9.60062281978
-9.60464367655
-9.6054851356
-9.60304847006
-9.59723475199
-9.58794453875
-9.57507777879
-9.55853429109
-9.53821381116
-9.51401581933
-9.48584012065
-9.45358666992
-9.41715499515
-9.37644516055
-9.33135806622
-9.28179402952
-9.22765295466
-9.1688355913
-9.10524216065
-9.03677142775
-8.96332165055
-8.88478991161
-8.80107057276
-8.71205416775
-8.61762768126
-8.51767311154
-8.41206438712
-8.30066683534
-8.18333573543
-8.0599143334
-7.93023238028
-7.79410691842
-7.65134772695
-7.50176860588
-7.34521380309
-7.18161052432
-7.01106722896
-6.83405117047
-6.65145660433
-6.46438780665
-6.27611754212
-1.56698192957
-1.61874400311
-1.76263905294
-1.92693316982
-2.08126542485
-2.21932314785
-2.34147704325
-2.4502651758
-2.54870920235
-2.63953940274
-2.72494709701
-2.80658520804
-2.88565533891
-2.96300929105
-3.03923874438
-3.11474740274
-3.18980595926
-3.26459250952
-3.33922188238
-3.41376614048
-3.48826903302
-3.56275591417
-3.63724073162
-3.71172884976
-3.78622320048
-3.86072327912
-3.93522726468
-4.00973280087
-4.08423741201
-4.15873856164
-4.23323383832
-4.3077209748
-4.38219782526
-4.45666230572
-4.53111244536
-4.60554632021
-4.67996192143
-4.75435726743
-4.828730253
-4.90307860453
-4.97739998472
-5.05169190213
-5.12595168403
-5.20017651555
-5.27436340448
-5.34850905356
-5.42260990376
-5.49666219269
-5.57066183065
-5.64460442156
-5.71848524156
-5.79229918804
-5.8660408357
-5.93970434905
-6.01328346755
-6.08677160974
-6.16016166353
-6.23344593833
-6.30661633637
-6.37966422205
-6.45258023727
-6.52535452434
-6.59797667924
-6.67043548659
-6.74271903776
-6.81481477905
-6.88670925996
-6.95838820916
-7.02983657989
-7.10103830657
-7.17197647082
-7.24263323481
-7.31298958027
-7.38302554399
-7.45272015104
-7.52205098995
-7.59099451003
-7.65952628275
-7.72762031503
-7.79524911985
-7.86238423224
-7.9289956187
-7.99505152933
-8.06051897409
-8.12536346334
-8.18954866182
-8.25303676208
-8.31578838307
-8.37776215433
-8.43891519517
-8.49920281315
-8.5585781736
-8.61699298285
-8.67439705931
-8.73073786568
-8.7859612751
-8.84001143551
-8.89282993275
-8.94435658763
-8.99452967308
-9.04328482119
-9.09055580141
-9.13627486908
-9.18037181031
-9.22277447094
-9.263409106
-9.30219960063
-9.33906788607
-9.37393469151
-9.40671846081
-9.43733542686
-9.46570098802
-9.4917286572
-9.51532975261
-9.53641477969
-9.55489274551
-9.57067072739
-9.58365515026
-9.59375140473
-9.60086326278
-9.6048939631
-9.60574608262
-9.60332109871
-9.59752015343
-9.58824408829
-9.57539316433
-9.55886749546
-9.53856732552
-9.51439265172
-9.48624372256
-9.45402147507
-9.41762667578
-9.37696022238
-9.3319242767
-9.28242137024
-9.22835356162
-9.16962385589
-9.1061359436
-9.03779282224
-8.96449731472
-8.88615232577
-8.80266008727
-8.71392063488
-8.61983206372
-8.52029084357
-8.41518966221
-8.30441718595
-8.18785835516
-8.06539494221
-7.93690673358
-7.80227508331
-7.66139221834
-7.51417605942
-7.36059452748
-7.20070440776
-7.03470394748
-6.86298719143
-6.68608581188
-6.50433953178
-6.31821378127
-1.7710559894
-1.76607697367
-1.85005143647
-1.97084176146
-2.09748441293
-2.22016389581
-2.33506099434
-2.44125710129
-2.53954009368
-2.63132936549
-2.71809037543
-2.80110567647
-2.88140993144
-2.95979679606
-3.03685423602
-3.11300675559
-3.18855453004
-3.26370582419
-3.3386026904
-3.41334020978
-3.48798075987
-3.56256425731
-3.63711543601
-3.71164979036
-3.7861747814
-3.86069499402
-3.93521197808
-4.00972567583
-4.08423522997
-4.15873924299
-4.23323605635
-4.30772389989
-4.38220097807
-4.45666543783
-4.53111543133
-4.60554913656
-4.67996459822
-4.75435982998
-4.82873274718
-4.90308108143
-4.97740247839
-5.05169445877
-5.12595435146
-5.20017931217
-5.27436634708
-5.34851217294
-5.42261324356
-5.49666580552
-5.57066574231
-5.64460863408
-5.71848974183
-5.79230395338
-5.86604585722
-5.93970969122
-6.01328925234
-6.08677789545
-6.16016849599
-6.23345333803
-6.30662426878
-6.37967269954
-6.45258933042
-6.52536426399
-6.59798710102
-6.67044666749
-6.74273101614
-6.81482757706
-6.8867229301
-6.95840279827
-7.02985214743
-7.10105492224
-7.17199416811
-7.24265209825
-7.31300972363
-7.38304697543
-7.45274288476
-7.52207515948
-7.5910201802
-7.65955345191
-7.72764912057
-7.79527968724
-7.86241657025
-7.92902980993
-7.99508771165
-8.06055722623
-8.12540386894
-8.18959133596
-8.25308179514
-8.31583590079
-8.37781227457
-8.43896796571
-8.49925840262
-8.55863676111
-8.61705459031
-8.6744618279
-8.73080603908
-8.78603289595
-8.8400865862
-8.89290890164
-8.94443949149
-8.99461659273
-9.0433760208
-9.09065141035
-9.13637500401
-9.18047674625
-9.22288431228
-9.2635238875
-9.30231958286
-9.339193209
-9.37406534263
-9.40685475179
-9.43747765026
-9.46584914394
-9.49188298748
-9.51549061009
-9.53658230738
-9.55506727745
-9.57085274461
-9.58384497357
-9.59394953569
-9.60107044426
-9.60511087248
-9.60597352363
-9.60356018521
-9.59777212159
-9.58851038246
-9.57567558079
-9.55916816646
-9.53888889162
-9.51473837706
-9.48661730342
-9.4544273601
-9.41807066227
-9.37744925508
-9.33246637011
-9.28302648847
-9.2290340362
-9.17039427683
-9.1070140232
-9.03880050525
-8.96566119885
-8.887504362
-8.80423939657
-8.71577548732
-8.62202124362
-8.52288603374
-8.41827913976
-8.30810980546
-8.19228820321
-8.07072734362
-7.94334593877
-7.81007256627
-7.67085466932
-7.52567184744
-7.37455263388
-7.21759534427
-7.05498737331
-6.88699628675
-6.71386844553
-6.53553676389
-6.35154295195
-1.89418435958
-1.86872852864
-1.91808644891
-2.00824705422
-2.11317190284
-2.22249379832
-2.33033089933
-2.4335546197
-2.53122837304
-2.62361893296
-2.71149046816
-2.79573457928
-2.87719003361
-2.95656810679
-3.03443599005
-3.11122800229
-3.18726716248
-3.26278811312
-3.33795809869
-3.41289420856
-3.4876770231
-3.56236101115
-3.63698226421
-3.71156451185
-3.78612180328
-3.86066346021
-3.93519438212
-4.00971691109
-4.0842318737
-4.15873906316
-4.23323762859
-4.30772632975
-4.38220373733
-4.45666825147
-4.53111815348
-4.60555171325
-4.67996703975
-4.75436214799
-4.82873496946
-4.90308325408
-4.97740463551
-5.05169663927
-5.12595660892
-5.20018167892
-5.27436884075
-5.34851483451
-5.42261610373
-5.49666887528
-5.57066905214
-5.64461219772
-5.71849357149
-5.79230807548
-5.86605030603
-5.93971452754
-6.01329448783
-6.08678349284
-6.1601744716
-6.23345975266
-6.30663113308
-6.37968002216
-6.4525971924
-6.52537272731
-6.59799619178
-6.67045644847
-6.74274153723
-6.81483885897
-6.88673502515
-6.95841574544
-7.02986598141
-7.10106971561
-7.17200994473
-7.24266888119
-7.31302762152
-7.38306603136
-7.45276307527
-7.52209659828
-7.59104299111
-7.65957762217
-7.72767472473
-7.79530686957
-7.86244535349
-7.92906024186
-7.99511992435
-8.06059128375
-8.12543982967
-8.18962931559
-8.25312183996
-8.31587807937
-8.37785672339
-8.43901469933
-8.49930748772
-8.55868839428
-8.61710879975
-8.67451861703
-8.73086558967
-8.78609526169
-8.84015173377
-8.89297702584
-8.94451070844
-8.99469086711
-9.04345353035
-9.0907323256
-9.13645936587
-9.18056473211
-9.22297605751
-9.26361939156
-9.30241908126
-9.33929697033
-9.3741733398
-9.40696714375
-9.43759481714
-9.46597120305
-9.49201010976
-9.51562316587
-9.53672047572
-9.55521131729
-9.57100319767
-9.58400227781
-9.59411414857
-9.60124307595
-9.60529226817
-9.60616449848
-9.60376183252
-9.59798572332
-9.58873742119
-9.57591790753
-9.55942795279
-9.53916872294
-9.51504158211
-9.48694780714
-9.45478960248
-9.41847024909
-9.37789317869
-9.33296268965
-9.28358490033
-9.22966662191
-9.17111541981
-9.10784080732
-9.03975385305
-8.96676665738
-8.88879250393
-8.80574692433
-8.71754719111
-8.62411149876
-8.52536042678
-8.42121713571
-8.31160791377
-8.19646325163
-8.07572009686
-7.94932554198
-7.81724047924
-7.67944647116
-7.53595582708
-7.38682109522
-7.23214291019
-7.07207070034
-6.90677468355
-6.73635862209
-6.56067177293
-6.37922921545
-1.96822562748
-1.93717737132
-1.967106327
-2.03687923122
-2.126047879
-2.22492425896
-2.32680357173
-2.42727601069
-2.52420254205
-2.61694892313
-2.70568620591
-2.79095273619
-2.87339793625
-2.95364574993
-3.03223472551
-3.10960142979
-3.18608545014
-3.26194295431
-3.33736271366
-3.41248109261
-3.48739487826
-3.56217162485
-3.63685764966
-3.711484399
-3.78607181202
-3.86063349138
-3.93517744517
-4.00970825878
-4.08422831553
-4.1587385081
-4.23323874814
-4.30772829463
-4.38220604813
-4.45667064751
-4.53112049708
-4.6055539376
-4.67996914195
-4.75436412962
-4.82873684362
-4.90308506345
-4.97740641974
-5.0516984305
-5.12595845688
-5.20018362533
-5.27437089289
-5.34851701116
-5.42261842903
-5.49667136298
-5.57067172205
-5.64461505424
-5.71849661853
-5.79231133494
-5.86605379288
-5.93971826189
-6.0132985319
-6.08678786742
-6.16017915621
-6.23346478479
-6.30663654452
-6.37968580803
-6.45260339753
-6.52537941101
-6.59800336498
-6.67046414101
-6.74274979107
-6.81484768806
-6.8867444699
-6.95842583719
-7.02987672817
-7.1010811804
-7.17202217158
-7.2426818646
-7.31304143175
-7.38308074532
-7.45277867433
-7.52211313871
-7.59106060445
-7.65959631086
-7.72769449277
-7.79532783016
-7.86246755369
-7.9290836977
-7.99514472289
-8.06061747884
-8.12546746141
-8.18965849525
-8.25315261905
-8.31591048953
-8.37789090597
-8.43905070275
-8.49934531433
-8.55872821117
-8.61715069482
-8.6745625488
-8.73091168745
-8.78614366239
-8.84020240352
-8.89303007366
-8.94456628592
-8.99474894181
-9.04351420924
-9.09079579786
-9.13652564197
-9.18063389061
-9.22304825528
-9.26369460794
-9.30249740945
-9.33937871204
-9.37425853953
-9.40705582051
-9.43768729296
-9.46606766594
-9.49211066261
-9.51572814256
-9.53683012093
-9.55532582811
-9.57112307358
-9.58412802379
-9.59424617471
-9.60138204751
-9.60543897013
-9.60631976711
-9.60392672877
-9.59816152031
-9.58892560522
-9.57612035282
-9.55964686213
-9.5394065841
-9.51530159499
-9.48723398082
-9.45510643083
-9.41882309086
-9.37828879794
-9.33340903725
-9.28409129024
-9.23024456103
-9.17177881636
-9.10860601055
-9.04064045951
-8.9677985852
-8.88999844635
-8.80716084229
-8.71920994167
-8.62607237135
-8.52767827983
-8.42396221216
-8.31486415582
-8.20033065274
-8.0803167606
-7.95478977581
-7.82373252307
-7.68714788854
-7.54506601903
-7.39754972762
-7.24469472399
-7.08662689738
-6.92347597198
-6.75532097494
-6.58209979789
-6.4035961618
-2.01045799742
-1.97889614365
-1.9985398456
-2.05598568159
-2.13499962338
-2.22677797707
-2.32439554846
-2.4227832952
-2.51906481855
-2.61199874772
-2.70133138303
-2.78733547639
-2.87051144685
-2.95141066647
-3.0305449494
-3.10834922588
-3.18517364008
-3.26128960764
-3.33690171531
-3.4121607558
-3.48717578547
-3.56202434154
-3.63676054717
-3.71142167689
-3.78603275173
-3.86061003647
-3.93516412192
-4.0097013862
-4.08422541818
-4.15873795733
-4.23323951256
-4.30772973761
-4.38220777804
-4.45667245899
-4.5311222905
-4.60555565262
-4.67997076477
-4.75436565887
-4.8287382815
-4.90308644199
-4.97740778196
-5.05169980575
-5.12595988042
-5.20018513135
-5.27437247941
-5.34851867782
-5.42262019579
-5.49667324503
-5.57067373057
-5.64461719182
-5.71849888942
-5.79231377071
-5.86605642303
-5.93972109963
-6.01330159846
-6.08679116475
-6.16018266386
-6.2334685331
-6.30664058477
-6.37969014031
-6.45260803794
-6.52538441109
-6.59800873718
-6.67046989813
-6.74275597404
-6.8148543108
-6.88675155753
-6.95843341923
-7.02988479004
-7.10108975356
-7.17203131683
-7.24269157104
-7.31305172295
-7.38309171751
-7.45279033587
-7.5221254838
-7.59107373529
-7.65961025919
-7.72770922667
-7.79534342492
-7.86248407567
-7.92910114708
-7.99516315738
-8.06063695047
-8.12548797008
-8.18968011955
-8.25317542148
-8.31593445225
-8.37791612683
-8.43907726801
-8.4993731818
-8.55875746036
-8.61718144384
-8.67459475137
-8.73094538714
-8.78617901258
-8.84023938075
-8.89306869589
-8.94460671333
-8.99479118493
-9.04355830878
-9.09084191949
-9.1365737891
-9.18068407493
-9.2231006684
-9.26374928521
-9.30255431234
-9.33943809336
-9.37432057073
-9.40712047872
-9.4377547955
-9.46613823552
-9.49218436229
-9.51580525235
-9.53691097533
-9.55541062318
-9.57121219515
-9.58422200306
-9.59434545116
-9.60148720913
-9.60555079435
-9.60643911136
-9.60405465291
-9.59829930185
-9.58907469384
-9.57628256764
-9.55982445474
-9.53960205716
-9.51551797359
-9.48747517352
-9.45537696573
-9.41912814908
-9.37863486071
-9.33380391519
-9.28454396482
-9.23076588717
-9.17238208668
-9.10930693716
-9.04145749385
-8.96875391189
-8.89111878507
-8.80847773683
-8.72076076602
-8.62790172317
-8.52983905148
-8.42651679266
-8.31788601671
-8.20390617337
-8.08454645953
-7.95978935493
-7.82963387211
-7.69409874014
-7.55322672262
-7.40709068032
-7.25579044971
-7.0994531827
-6.93821858722
-6.77221428919
-6.60153028263
-6.4262507111
-2.02970618958
-1.99861192781
-2.01383518443
-2.06550234962
-2.13956045961
-2.22776169355
-2.3231655369
-2.42043434609
-2.51634637847
-2.60935720015
-2.69899262739
-2.78538336665
-2.86894793635
-2.9501965769
-3.02962508611
-3.10766644301
-3.18467583405
-3.26093255364
-3.33664956798
-3.41198541409
-3.48705577551
-3.5619436164
-3.6367072949
-3.71138715618
-3.78601135989
-3.86059722358
-3.93515684951
-4.00969764198
-4.08422385457
-4.15873768216
-4.23323996014
-4.30773056898
-4.38220878095
-4.45667352144
-4.53112336477
-4.60555670142
-4.67997177243
-4.75436662401
-4.82873919878
-4.90308732812
-4.97740867665
-5.05170073422
-5.12596085627
-5.20018616875
-5.27437357165
-5.34851981632
-5.42262139499
-5.49667451398
-5.57067507529
-5.64461861677
-5.71850039643
-5.79231539415
-5.86605819144
-5.93972299665
-6.01330362527
-6.08679334742
-6.16018499281
-6.23347101341
-6.30664326256
-6.37969302214
-6.45261111675
-6.52538772144
-6.59801229653
-6.67047370822
-6.74276006501
-6.81485869177
-6.88675623413
-6.95843841561
-7.02989008417
-7.10109534659
-7.17203727802
-7.24269790636
-7.31305841348
-7.38309884699
-7.45279794485
-7.5221335178
-7.59108223606
-7.65961929482
-7.72771877391
-7.79535350551
-7.86249474759
-7.92911240465
-7.99517502003
-8.06064946854
-8.12550113096
-8.18969395968
-8.25319001075
-8.31594975525
-8.37793218051
-8.43909417816
-8.49939090553
-8.55877599104
-8.61720090768
-8.67461513872
-8.73096665762
-8.78620128952
-8.84026267216
-8.89309294716
-8.94463205628
-8.99481767852
-9.04358592421
-9.09087076111
-9.13660388202
-9.18071536784
-9.2231333172
-9.26378341834
-9.30258984889
-9.33947515394
-9.37435937731
-9.40716103246
-9.43779722306
-9.46618278305
-9.49223109479
-9.51585436782
-9.53696286532
-9.55546551401
-9.57127037936
-9.58428397845
-9.59441171268
-9.60155828784
-9.60562742959
-9.60652218701
-9.6041452222
-9.59839864939
-9.5891842549
-9.57640406653
-9.55996014323
-9.53975454324
-9.51569020065
-9.48767087372
-9.4556006636
-9.41938495549
-9.37893098879
-9.33414701622
-9.28494288979
-9.23123104526
-9.17292616383
-9.10994513651
-9.04220755161
-8.96963676345
-8.89215960485
-8.8097062856
-8.72221194305
-8.62961675812
-8.53186662666
-8.42891396924
-8.32071924839
-8.2072528431
-8.08849623374
-7.96444483603
-7.8351115971
-7.70052988345
-7.56075699474
-7.41588031876
-7.26601663664
-7.11131608759
-6.95196015428
-6.78815717493
-6.62015147779
-6.44826986453
-2.02970628331
-1.99861137298
-2.01383547526
-2.06550238687
-2.13956025391
-2.22776169604
-2.32316553005
-2.42043429603
-2.51634639782
-2.60935726714
-2.6989927052
-2.78538344452
-2.86894801963
-2.95019665589
-3.02962516089
-3.10766652913
-3.18467592764
-3.26093263985
-3.33664963476
-3.41198546467
-3.48705581383
-3.56194366385
-3.63670738172
-3.7113872805
-3.78601151557
-3.86059739754
-3.93515701813
-4.00969779909
-4.08422400711
-4.15873783125
-4.23324010717
-4.30773073235
-4.38220896659
-4.45667373264
-4.53112361805
-4.60555699017
-4.67997208401
-4.75436695716
-4.82873954595
-4.9030876888
-4.97740907731
-5.05170119276
-5.12596136279
-5.20018671461
-5.27437414671
-5.34852041204
-5.42262201997
-5.49667517083
-5.57067576026
-5.64461933768
-5.71850115667
-5.79231621207
-5.86605909155
-5.93972395799
-6.01330462554
-6.08679441731
-6.16018614686
-6.23347223843
-6.30664457881
-6.37969444248
-6.45261262639
-6.52538933677
-6.59801403515
-6.6704755643
-6.74276205868
-6.81486082801
-6.88675849266
-6.95844081031
-7.02989260639
-7.1010979721
-7.17204005522
-7.24270087314
-7.31306153733
-7.38310215604
-7.45280148947
-7.52213724111
-7.59108612517
-7.6596234169
-7.72772312568
-7.79535807511
-7.86249956941
-7.92911746481
-7.99518030756
-8.06065503115
-8.12550695148
-8.18970001939
-8.25319637633
-8.31595640152
-8.3779390692
-8.43910139429
-8.49939844625
-8.55878379557
-8.61720906011
-8.67462366821
-8.73097547046
-8.78621044015
-8.84027221577
-8.89310281236
-8.94464230384
-8.99482837638
-9.04359700989
-9.09088228018
-9.13661590199
-9.18072780006
-9.22314621538
-9.26379697078
-9.30260401992
-9.33948993571
-9.37437495786
-9.40717745577
-9.43781454886
-9.46620125787
-9.4922508329
-9.51587549104
-9.53698573174
-9.55549041115
-9.5712975478
-9.5843138581
-9.59444479628
-9.60159511232
-9.60566874524
-9.60656887221
-9.60419827267
-9.59845934524
-9.58925408911
-9.57648472538
-9.56005381789
-9.53986391021
-9.51581822153
-9.4878211593
-9.45577773865
-9.41959398368
-9.37917801796
-9.33443955729
-9.28528985444
-9.2316427529
-9.17341491551
-9.11052579816
-9.04289767811
-8.97045680987
-8.89313390049
-8.81086372132
-8.72358635265
-8.63124784656
-8.53380103502
-8.43120627461
-8.32343288545
-8.21046142725
-8.09228506748
-7.96891191009
-7.8403692498
-7.70670629205
-7.56799836357
-7.42435355441
-7.27591571842
-7.12287103991
-6.9654561281
-6.80396406793
-6.63876632969
-6.47035640619
-2.01045824775
-1.97889468278
-1.99854062642
-2.05598578177
-2.13499907672
-2.22677797634
-2.32439552446
-2.42278318409
-2.51906489161
-2.61199893997
-2.70133160589
-2.78733570137
-2.87051168192
-2.95141089447
-3.03054517442
-3.10834948448
-3.18517391638
-3.26128986491
-3.33690191742
-3.41216090787
-3.48717590282
-3.56202448697
-3.63676080676
-3.7114220433
-3.78603320702
-3.86061054727
-3.93516462432
-4.00970186135
-4.08422588164
-4.15873841352
-4.23323996378
-4.30773023135
-4.38220833507
-4.45667309451
-4.53112305021
-4.60555651772
-4.6799716991
-4.75436665573
-4.82873932038
-4.90308752738
-4.97740898418
-5.0517011722
-5.12596138691
-5.20018675697
-5.27437419648
-5.34852046276
-5.42262207418
-5.49667522144
-5.57067579787
-5.6446193666
-5.7185011813
-5.79231623103
-5.8660591172
-5.93972397648
-6.0133046083
-6.08679438661
-6.16018612703
-6.23347220696
-6.3066445309
-6.37969439445
-6.45261256422
-6.52538925573
-6.59801394983
-6.67047546754
-6.74276195711
-6.81486071887
-6.88675833466
-6.95844060145
-7.02989235589
-7.1010976483
-7.17203967993
-7.24270049726
-7.31306111795
-7.38310165816
-7.45280095615
-7.5221366472
-7.59108542367
-7.65962264698
-7.72772228966
-7.79535713171
-7.86249853071
-7.92911632661
-7.9951790359
-8.06065364603
-8.12550543443
-8.18969831071
-8.25319451571
-8.31595438413
-8.37793680735
-8.43909892413
-8.4993958043
-8.55878090214
-8.61720592702
-8.67462033296
-8.73097182117
-8.78620646039
-8.84026798996
-8.89309828105
-8.94463745094
-8.99482325324
-9.04359154049
-9.09087644301
-9.13660979397
-9.18072136457
-9.22313939465
-9.26378992004
-9.30259677244
-9.33948241542
-9.37436729495
-9.40716972994
-9.437806761
-9.46619361786
-9.49224353285
-9.51586861311
-9.53697952987
-9.55548521868
-9.57129360842
-9.58431153708
-9.59444458795
-9.60159759273
-9.60567465498
-9.60657907046
-9.60421371747
-9.59848128798
-9.5892840942
-9.57652453232
-9.56010555321
-9.53993026791
-9.51590225851
-9.48792643622
-9.45590876556
-9.41975609125
-9.37937730163
-9.33468346677
-9.28558744118
-9.23200456338
-9.17385328231
-9.11105557429
-9.04353662757
-8.97122564681
-8.89405706849
-8.81197025328
-8.72491040683
-8.63282938119
-8.53568685065
-8.43345133888
-8.3261012771
-8.21362745838
-8.09603500708
-7.97334606153
-7.84560304086
-7.71287350867
-7.57525397165
-7.43287768032
-7.2859207006
-7.13460980748
-6.97923611377
-6.8201653131
-6.65785962921
-6.49291114697
-1.9682259254
-1.93717551631
-1.96710730206
-2.03687929932
-2.12604718606
-2.22492425755
-2.32680352017
-2.42727591114
-2.5242026977
-2.61694922035
-2.70568655618
-2.79095309323
-2.8733983031
-2.95364611227
-3.03223509363
-3.10960184746
-3.18608588967
-3.26194337142
-3.3373630513
-3.41248135257
-3.4873950905
-3.56217188413
-3.63685807664
-3.71148498466
-3.7860725375
-3.86063430818
-3.93517826759
-4.0097090601
-4.08422910586
-4.15873929093
-4.23323952765
-4.30772913525