/*--------------------------------*- C++ -*----------------------------------*\
| =========                 |                                                 |
| \\      /  F ield         | OpenFOAM: The Open Source CFD Toolbox           |
|  \\    /   O peration     | Version:  2106                                  |
|   \\  /    A nd           | Website:  www.openfoam.com                      |
|    \\/     M anipulation  |                                                 |
\*---------------------------------------------------------------------------*/
FoamFile
{
    version     2.0;
    format      ascii;
    arch        "LSB;label=32;scalar=64";
    class       surfaceScalarField;
    location    "0.12";
    object      phi;
}
// * * * * * * * * * * * * * * * * * * * * * * * * * * * * * * * * * * * * * //

dimensions      [0 3 -1 0 0 0 0];

oriented        oriented;

internalField   nonuniform List<scalar> 
18840
(
3.37543047274e-05
1.62456952714e-05
2.2535962331e-05
1.12183415177e-05
1.63023777004e-05
6.23358476264e-06
1.28098251274e-05
3.49255314885e-06
1.08065796139e-05
2.00324516082e-06
9.60476816157e-06
1.20181113464e-06
8.85167745142e-06
7.530908533e-07
8.36502932102e-06
4.8664800053e-07
8.04518452216e-06
3.1984465618e-07
7.83374059932e-06
2.1144403214e-07
7.69428130238e-06
1.39459402467e-07
7.60308091664e-06
9.12005045741e-08
7.54426828281e-06
5.88128069636e-08
7.50708349458e-06
3.71849108258e-08
7.48420060737e-06
2.28829471588e-08
7.47064206818e-06
1.35585434145e-08
7.46304878021e-06
7.59325957502e-09
7.45917779772e-06
3.87094893755e-09
7.45755252558e-06
1.6252604465e-09
7.45721657176e-06
3.35998070814e-10
7.45757337036e-06
-3.56727554617e-10
7.45824624985e-06
-6.72803349389e-10
7.45902183482e-06
-7.75535140475e-10
7.45978042297e-06
-7.58583675051e-10
7.46046247375e-06
-6.82092107434e-10
7.46104461484e-06
-5.82203613227e-10
7.4615239919e-06
-4.79413663032e-10
7.46190833176e-06
-3.84348380028e-10
7.4622100571e-06
-3.01678975126e-10
7.46244283086e-06
-2.32671791502e-10
7.46261967492e-06
-1.76725991836e-10
7.46275215491e-06
-1.32356207171e-10
7.46285005979e-06
-9.7793274136e-11
7.46292142012e-06
-7.12812499577e-11
7.46297267129e-06
-5.12116236338e-11
7.46300889298e-06
-3.62086655633e-11
7.46303400366e-06
-2.51343596709e-11
7.46305099833e-06
-1.70583651155e-11
7.46306218378e-06
-1.1266676136e-11
7.46306927395e-06
-7.20219781296e-12
7.46307357849e-06
-4.42707696011e-12
7.46307613449e-06
-2.64292948897e-12
7.46307752102e-06
-1.42566000144e-12
7.46307811354e-06
-5.77891296119e-13
7.46307827982e-06
-1.04750789528e-13
7.46307821584e-06
1.33924493861e-13
7.46307806776e-06
1.94234794464e-13
7.46307793111e-06
1.76558125637e-13
7.46307786121e-06
1.09830503785e-13
7.46307785461e-06
4.19065100266e-14
7.4630779052e-06
-7.60145211492e-15
7.46307798226e-06
-5.50069482108e-14
7.46307806457e-06
-1.21995178856e-13
7.46307815894e-06
-2.06020014607e-13
7.46307828193e-06
-2.98237968062e-13
7.46307846256e-06
-3.7890977867e-13
7.46307873893e-06
-4.54889877845e-13
7.46307909005e-06
-5.12932968035e-13
7.46307947993e-06
-5.38214937766e-13
7.46307991579e-06
-5.68304311595e-13
7.46308037562e-06
-6.29594307663e-13
7.46308084743e-06
-6.84022213256e-13
7.46308139832e-06
-7.34117240927e-13
7.46308205815e-06
-8.04702702328e-13
7.46308280333e-06
-8.52203086308e-13
7.46308365194e-06
-8.54898168846e-13
7.4630845977e-06
-8.56344834284e-13
7.46308556818e-06
-8.61250942876e-13
7.46308654793e-06
-8.6273192129e-13
7.46308754962e-06
-8.87436863301e-13
7.46308856374e-06
-9.28146029037e-13
7.46308964112e-06
-9.79433578507e-13
7.46309079757e-06
-1.03379653153e-12
7.46309198675e-06
-1.04326238198e-12
7.46309321783e-06
-1.03681446756e-12
7.46309446436e-06
-1.08589349959e-12
7.46309565534e-06
-1.14746463592e-12
7.46309684931e-06
-1.18815720855e-12
7.46309812215e-06
-1.26780487205e-12
7.463099405e-06
-1.34907027064e-12
7.46310070817e-06
-1.37308885466e-12
7.46310210679e-06
-1.4231319753e-12
7.46310353265e-06
-1.50926308339e-12
7.46310499788e-06
-1.55273650865e-12
7.46310661093e-06
-1.59251514938e-12
7.46310832723e-06
-1.65512504083e-12
7.46311008276e-06
-1.68357926315e-12
7.46311192497e-06
-1.71214455803e-12
7.46311382512e-06
-1.78505263929e-12
7.46311573515e-06
-1.84954246085e-12
7.46311773552e-06
-1.91997412131e-12
7.46311978008e-06
-2.00545877868e-12
7.46312180263e-06
-2.04602414852e-12
7.46312393322e-06
-2.12892577095e-12
7.4631261917e-06
-2.29455706136e-12
7.46312855696e-06
-2.38204033557e-12
7.46313115386e-06
-2.40732785824e-12
7.46313392448e-06
-2.52277741408e-12
7.46313667634e-06
-2.66967145661e-12
7.46313956982e-06
-2.84148113498e-12
7.4631427917e-06
-3.1450225932e-12
7.46314627552e-06
-3.50218369454e-12
7.46315016741e-06
-3.87383580042e-12
7.46315463051e-06
-4.39503498285e-12
7.46315963747e-06
-5.02799324424e-12
7.46316538439e-06
-5.74137874676e-12
7.46317211393e-06
-6.67222919314e-12
7.46317990591e-06
-7.82233069889e-12
7.46318904789e-06
-9.2006648527e-12
7.4632000124e-06
-1.10232100355e-11
7.4632131089e-06
-1.3303063563e-11
7.46322888654e-06
-1.59681997416e-11
7.46324821477e-06
-1.9303622932e-11
7.46327176833e-06
-2.35684504902e-11
7.46330042151e-06
-2.87658995375e-11
7.4633355581e-06
-3.51757709986e-11
7.46337863225e-06
-4.3188443151e-11
7.46343150265e-06
-5.30431353537e-11
7.46349681267e-06
-6.52507757899e-11
7.46357743813e-06
-8.04890585256e-11
7.46367672407e-06
-9.9329005908e-11
7.46379933151e-06
-1.22694002778e-10
7.46395141329e-06
-1.52168458758e-10
7.4641423861e-06
-1.91041982899e-10
7.46437757326e-06
-2.35085457681e-10
7.46466639666e-06
-2.88669527727e-10
7.46502324942e-06
-3.56864743376e-10
7.4654650136e-06
-4.4191613154e-10
7.46601222589e-06
-5.47320493514e-10
7.46669007481e-06
-6.77779005662e-10
7.46752977216e-06
-8.39433379982e-10
7.46856990003e-06
-1.03994452596e-09
7.46985816476e-06
-1.28841619113e-09
7.47145414909e-06
-1.59615832153e-09
7.47343211036e-06
-1.97778884213e-09
7.47588378728e-06
-2.45137844017e-09
7.47892291902e-06
-3.03898855228e-09
7.4826914953e-06
-3.76847319517e-09
7.48736634774e-06
-4.67482412086e-09
7.49316775314e-06
-5.80158899998e-09
7.5003712488e-06
-7.20366102727e-09
7.50932193805e-06
-8.95064355842e-09
7.52045272246e-06
-1.1130769938e-08
7.53430881489e-06
-1.38563234768e-08
7.55158064536e-06
-1.7271762606e-08
7.57314616264e-06
-2.15648899465e-08
7.60012787701e-06
-2.69813211393e-08
7.63397382606e-06
-3.38460233285e-08
7.67657033264e-06
-4.25966768722e-08
7.73040461412e-06
-5.38344225084e-08
7.79881182054e-06
-6.8407229231e-08
7.886377453e-06
-8.75656660804e-08
7.99967415238e-06
-1.13296908912e-07
8.14884810056e-06
-1.49174086309e-07
8.35166219781e-06
-2.0281432211e-07
8.64494085465e-06
-2.93278847228e-07
9.11864289342e-06
-4.73701799656e-07
1.00247010267e-05
-9.06058511733e-07
1.21433356844e-05
-2.11863494856e-06
-5.77486490918e-06
1.79182008978e-05
5.01388821804e-05
1.61068139445e-05
4.41591295198e-05
1.71980939568e-05
3.77598731291e-05
1.26328402231e-05
3.26495138972e-05
8.60291272364e-06
2.89465811803e-05
5.70617797172e-06
2.63676013213e-05
3.78079042993e-06
2.45938829652e-05
2.52680916179e-06
2.33783958706e-05
1.7021351841e-06
2.25473215278e-05
1.1509189465e-06
2.19811557052e-05
7.77610050756e-07
2.15978058688e-05
5.22809528161e-07
2.13405473211e-05
3.48459272764e-07
2.11699569256e-05
2.29403404078e-07
2.10585596828e-05
1.48582270697e-07
2.09872232851e-05
9.4219365989e-08
2.09426794263e-05
5.81023577319e-08
2.09157902807e-05
3.44823603516e-08
2.09003221188e-05
1.93391208707e-08
2.0892072759e-05
9.8746752589e-09
2.08882522393e-05
4.15663033419e-09
2.08870332221e-05
8.6240744616e-10
2.08872540346e-05
-8.93542115379e-10
2.08881925323e-05
-1.71402961359e-09
2.08894143274e-05
-1.98043214739e-09
2.08906726231e-05
-1.94046098278e-09
2.08918381271e-05
-1.74777401461e-09
2.08928531687e-05
-1.49443568311e-09
2.08937016312e-05
-1.23271128965e-09
2.08943899933e-05
-9.89883951867e-10
2.08949356601e-05
-7.78127952112e-10
2.08953599934e-05
-6.0085188567e-10
2.08956845199e-05
-4.56711704873e-10
2.08959289578e-05
-3.42107482327e-10
2.08961103812e-05
-2.52632813429e-10
2.0896243022e-05
-1.83852142916e-10
2.08963384759e-05
-1.31712664282e-10
2.08964059794e-05
-9.27264933126e-11
2.08964527373e-05
-6.39711028085e-11
2.08964843633e-05
-4.30721783579e-11
2.08965051267e-05
-2.81410738679e-11
2.08965182157e-05
-1.76629427747e-11
2.08965259738e-05
-1.04598449231e-11
2.08965302451e-05
-5.66095224919e-12
2.0896532315e-05
-2.56231014673e-12
2.08965328428e-05
-5.29193091991e-13
2.08965327772e-05
3.02326978527e-13
2.08965323382e-05
6.99286580699e-13
2.08965317645e-05
8.04102185781e-13
2.08965312183e-05
7.32387519846e-13
2.08965307527e-05
5.63832968566e-13
2.0896530389e-05
3.54962355733e-13
2.08965301223e-05
1.1747207763e-13
2.08965299237e-05
-1.37392868261e-13
2.08965297876e-05
-3.68969957752e-13
2.08965297284e-05
-5.74590213167e-13
2.08965297548e-05
-7.35155344279e-13
2.0896529878e-05
-8.55178290623e-13
2.08965300747e-05
-9.63455206775e-13
2.08965302959e-05
-1.05883697145e-12
2.08965305548e-05
-1.13772019306e-12
2.08965308533e-05
-1.2307041523e-12
2.0896531161e-05
-1.32159300667e-12
2.08965315325e-05
-1.37245694919e-12
2.08965320262e-05
-1.40379427269e-12
2.08965326119e-05
-1.42495197928e-12
2.08965332813e-05
-1.41778129422e-12
2.08965340475e-05
-1.41486024703e-12
2.08965348374e-05
-1.43712631328e-12
2.08965356128e-05
-1.46255655203e-12
2.08965364094e-05
-1.50228424168e-12
2.08965372256e-05
-1.56224245367e-12
2.08965380981e-05
-1.62176600622e-12
2.08965390543e-05
-1.69279559941e-12
2.08965400285e-05
-1.76355692308e-12
2.08965410085e-05
-1.82093316245e-12
2.08965420027e-05
-1.92793705974e-12
2.08965429431e-05
-2.08896351369e-12
2.08965438664e-05
-2.21731300635e-12
2.08965449023e-05
-2.32929787514e-12
2.0896545974e-05
-2.46811560382e-12
2.08965470001e-05
-2.56430089999e-12
2.08965481053e-05
-2.62348326347e-12
2.08965492964e-05
-2.7149765736e-12
2.08965505236e-05
-2.79915779455e-12
2.08965518785e-05
-2.86621712404e-12
2.08965533754e-05
-2.97189959994e-12
2.08965549322e-05
-3.08348290058e-12
2.08965565792e-05
-3.19265996917e-12
2.08965583324e-05
-3.37505732138e-12
2.08965601235e-05
-3.58706492786e-12
2.08965620392e-05
-3.76507109918e-12
2.08965640818e-05
-3.96892170444e-12
2.08965661412e-05
-4.18874843229e-12
2.08965683953e-05
-4.40773378985e-12
2.08965710026e-05
-4.70386668912e-12
2.08965738924e-05
-5.03512179689e-12
2.08965771131e-05
-5.35805682579e-12
2.08965807491e-05
-5.83657963339e-12
2.0896584707e-05
-6.51811767308e-12
2.08965891233e-05
-7.29126923103e-12
2.08965943356e-05
-8.25700381917e-12
2.08966003658e-05
-9.50539349605e-12
2.08966073828e-05
-1.09553245127e-11
2.08966157981e-05
-1.27301277082e-11
2.08966258219e-05
-1.49911907977e-11
2.08966377779e-05
-1.77347547069e-11
2.08966521774e-05
-2.10844166701e-11
2.0896669403e-05
-2.51933925851e-11
2.08966898975e-05
-3.00075764763e-11
2.08967142177e-05
-3.54857754973e-11
2.08967451813e-05
-4.43416260595e-11
2.08967833544e-05
-5.44199922066e-11
2.089683052e-05
-6.66389655594e-11
2.08968887412e-05
-8.17886249265e-11
2.08969604258e-05
-1.00551963721e-10
2.0897048941e-05
-1.23768061439e-10
2.08971583272e-05
-1.52628255365e-10
2.08972934117e-05
-1.88352335469e-10
2.0897460545e-05
-2.32457231809e-10
2.08976674015e-05
-2.87150585866e-10
2.08979230218e-05
-3.54941302479e-10
2.08982389186e-05
-4.38738033984e-10
2.0898629133e-05
-5.42425508073e-10
2.08991091741e-05
-6.71077208847e-10
2.08997053145e-05
-8.31179924504e-10
2.09004469017e-05
-1.03024657209e-09
2.09013669997e-05
-1.27711634367e-09
2.09025078354e-05
-1.58282722988e-09
2.09039219999e-05
-1.96128567654e-09
2.09056743606e-05
-2.42995011777e-09
2.09078456499e-05
-3.01052625998e-09
2.09105362415e-05
-3.73005289291e-09
2.09138700697e-05
-4.62193629457e-09
2.09180009519e-05
-5.72730825519e-09
2.09231203869e-05
-7.0975253196e-09
2.09294658665e-05
-8.79693337923e-09
2.09373321345e-05
-1.0905462801e-08
2.09470863801e-05
-1.35227304308e-08
2.09591858668e-05
-1.67738095337e-08
2.09742002558e-05
-2.08155195667e-08
2.09928414844e-05
-2.5844652571e-08
2.10160010998e-05
-3.21099059396e-08
2.10447979483e-05
-3.99272373971e-08
2.10806407818e-05
-4.9699368273e-08
2.11253115806e-05
-6.19434512726e-08
2.1181076552e-05
-7.73306320703e-08
2.1250835745e-05
-9.67408045057e-08
2.1338332307e-05
-1.21342769514e-07
2.14484523489e-05
-1.52717045772e-07
2.1587668964e-05
-1.930508558e-07
2.1764730572e-05
-2.45468289247e-07
2.19917977533e-05
-3.14633080168e-07
2.22864510321e-05
-4.079503642e-07
2.26754689528e-05
-5.38191349169e-07
2.32023361912e-05
-7.2968148912e-07
2.39425491911e-05
-1.03349187885e-06
2.50329744049e-05
-1.56412622107e-06
2.67137882866e-05
-2.58687226555e-06
2.9321130976e-05
-4.72597719936e-06
-9.27800665029e-06
3.2824272868e-05
5.358442668e-05
1.25223873974e-05
5.29166011708e-05
1.78659200849e-05
4.9639300933e-05
1.59101396165e-05
4.58382161645e-05
1.24039973989e-05
4.24428735341e-05
9.10152087302e-06
3.97331574616e-05
6.49050611133e-06
3.76912430634e-05
4.56872339163e-06
3.62011649015e-05
3.19221347574e-06
3.51355922669e-05
2.21649159144e-06
3.43848452917e-05
1.52835717339e-06
3.38626637962e-05
1.04499129315e-06
3.35040181135e-05
7.0710516081e-07
3.32609843497e-05
4.7243732205e-07
3.30987571361e-05
3.10809558818e-07
3.29923475543e-05
2.00628947188e-07
3.29240033959e-05
1.26446469384e-07
3.28812479775e-05
7.72377351422e-08
3.28554120076e-05
4.51751086465e-08
3.28405465502e-05
2.47401954842e-08
3.28326260131e-05
1.20772695623e-08
3.2828967686e-05
4.5208311432e-09
3.2827816886e-05
2.57308740835e-10
3.28280561591e-05
-1.95331589945e-09
3.28289857594e-05
-2.91009028119e-09
3.28301874826e-05
-3.14223746913e-09
3.28314228591e-05
-2.98319076783e-09
3.28325669184e-05
-2.63846150354e-09
3.28335637206e-05
-2.22940504686e-09
3.28343975073e-05
-1.82352747961e-09
3.28350744594e-05
-1.45490466936e-09
3.283561136e-05
-1.13758055372e-09
3.28360289573e-05
-8.74169364644e-10
3.28363482261e-05
-6.61278594184e-10
3.28365884547e-05
-4.92794713676e-10
3.28367663791e-05
-3.61759450862e-10
3.28368960324e-05
-2.61394925414e-10
3.28369888811e-05
-1.85631737347e-10
3.28370540487e-05
-1.29259467562e-10
3.28370987511e-05
-8.79344649038e-11
3.28371285966e-05
-5.81377541615e-11
3.28371478605e-05
-3.70464776126e-11
3.2837159792e-05
-2.2441225268e-11
3.28371667749e-05
-1.26140188365e-11
3.28371705178e-05
-6.24011918347e-12
3.2837172315e-05
-2.26289379454e-12
3.28371724994e-05
1.88927889775e-13
3.28371722056e-05
1.05508758615e-12
3.28371716377e-05
1.42351471109e-12
3.28371710146e-05
1.42404489657e-12
3.28371704196e-05
1.20533105781e-12
3.28371698667e-05
8.86509164259e-13
3.28371693319e-05
5.42513172675e-13
3.28371688884e-05
9.92125573468e-14
3.28371685314e-05
-2.73904329733e-13
3.28371682783e-05
-5.89499494471e-13
3.28371681121e-05
-8.33624599678e-13
3.28371680972e-05
-1.07451922755e-12
3.28371681802e-05
-1.25493316224e-12
3.28371682804e-05
-1.41651778597e-12
3.2837168398e-05
-1.54756873957e-12
3.28371685765e-05
-1.66466933223e-12
3.2837168779e-05
-1.76376413272e-12
3.28371690129e-05
-1.80530873145e-12
3.28371693468e-05
-1.80027373137e-12
3.28371697601e-05
-1.78552750769e-12
3.28371702024e-05
-1.76008967307e-12
3.28371707068e-05
-1.76321837132e-12
3.28371712571e-05
-1.81430576967e-12
3.28371718e-05
-1.86049030865e-12
3.28371723683e-05
-1.90993127383e-12
3.28371729486e-05
-1.97847072526e-12
3.28371735533e-05
-2.05034067212e-12
3.28371742395e-05
-2.1455171993e-12
3.28371749407e-05
-2.27424455449e-12
3.28371756078e-05
-2.40001176682e-12
3.28371763022e-05
-2.54713018079e-12
3.28371769933e-05
-2.74977636203e-12
3.28371776372e-05
-2.93847830685e-12
3.28371783582e-05
-3.08710511815e-12
3.28371791504e-05
-3.25518338948e-12
3.28371798837e-05
-3.40165812311e-12
3.2837180654e-05
-3.48479112242e-12
3.28371815284e-05
-3.57599867229e-12
3.28371824278e-05
-3.69186310046e-12
3.28371834134e-05
-3.81388122877e-12
3.28371845523e-05
-3.97381268649e-12
3.28371857556e-05
-4.16764194671e-12
3.28371870399e-05
-4.38836211305e-12
3.28371884838e-05
-4.68205487865e-12
3.2837189993e-05
-5.01185224828e-12
3.28371916075e-05
-5.30785463388e-12
3.28371934179e-05
-5.65134806716e-12
3.28371953117e-05
-6.06990346944e-12
3.28371974127e-05
-6.49202346745e-12
3.28371999623e-05
-6.99267716318e-12
3.28372028718e-05
-7.64787219083e-12
3.28372060845e-05
-8.41585448728e-12
3.28372097819e-05
-9.36137011849e-12
3.28372138945e-05
-1.05228982207e-11
3.28372187321e-05
-1.2188828723e-11
3.28372247083e-05
-1.42179773371e-11
3.2837231921e-05
-1.66996976057e-11
3.28372405636e-05
-1.96933824083e-11
3.28372511705e-05
-2.33303354677e-11
3.2837264095e-05
-2.78833005784e-11
3.28372797843e-05
-3.35229766783e-11
3.28372990876e-05
-4.04726433397e-11
3.28373228893e-05
-4.9104329513e-11
3.28373523004e-05
-5.97143560428e-11
3.28373893768e-05
-7.27313601228e-11
3.28374340959e-05
-8.89824562567e-11
3.28374887793e-05
-1.09188681318e-10
3.28375561055e-05
-1.34143561954e-10
3.28376393289e-05
-1.65050447671e-10
3.2837741971e-05
-2.03312848499e-10
3.28378686803e-05
-2.50612188884e-10
3.28380253812e-05
-3.09268760061e-10
3.28382190088e-05
-3.81997757988e-10
3.2838458361e-05
-4.71956595707e-10
3.28387545212e-05
-5.83334123691e-10
3.28391208222e-05
-7.21298898039e-10
3.28395740211e-05
-8.92046078914e-10
3.28401351754e-05
-1.10351271681e-09
3.28408299802e-05
-1.36573939413e-09
3.28416897316e-05
-1.69089886092e-09
3.28427537034e-05
-2.09427003385e-09
3.28440709805e-05
-2.59442562283e-09
3.28457023385e-05
-3.21406623038e-09
3.2847722974e-05
-3.98165574801e-09
3.28502257175e-05
-4.93264217041e-09
3.28533256686e-05
-6.11072866282e-09
3.2857165897e-05
-7.57032794961e-09
3.28619235419e-05
-9.37931246571e-09
3.28678180234e-05
-1.16216316358e-08
3.2875122002e-05
-1.4401462603e-08
3.2884174096e-05
-1.78488527417e-08
3.28953944888e-05
-2.21257800815e-08
3.29093057743e-05
-2.74341636007e-08
3.29265586931e-05
-3.40268393469e-08
3.29479638222e-05
-4.22206796972e-08
3.29745325959e-05
-5.24135087859e-08
3.30075297779e-05
-6.51072038856e-08
3.30485409415e-05
-8.09380434797e-08
3.30995589769e-05
-1.00716655868e-07
3.31630980645e-05
-1.25482306509e-07
3.32423464513e-05
-1.56579094278e-07
3.33413703521e-05
-1.95764549971e-07
3.34653948348e-05
-2.45367184822e-07
3.36212013804e-05
-3.0852371228e-07
3.3817704534e-05
-3.89554026303e-07
3.40668180585e-05
-4.94581918559e-07
3.43848080446e-05
-6.32623269063e-07
3.47944694731e-05
-8.17611915437e-07
3.53286673688e-05
-1.07238931085e-06
3.60358855456e-05
-1.43689944189e-06
3.69877136023e-05
-1.98531988469e-06
3.82840311682e-05
-2.86044370774e-06
4.00330605767e-05
-4.33590238563e-06
4.22193029192e-05
-6.91221952408e-06
-1.13324022993e-05
4.42736988391e-05
5.3570519692e-05
8.95186725094e-06
5.55863059615e-05
1.58501347612e-05
5.52410585861e-05
1.62553865097e-05
5.35976149702e-05
1.40474405801e-05
5.15429050092e-05
1.11562311104e-05
4.95819390799e-05
8.4514718303e-06
4.79262495859e-05
6.22441264505e-06
4.66200387104e-05
4.49842448039e-06
4.56322340148e-05
3.20429637571e-06
4.49066903849e-05
2.25390093601e-06
4.43854495863e-05
1.56623234293e-06
4.40178474427e-05
1.07470749956e-06
4.37629376552e-05
7.27347229597e-07
4.35890853486e-05
4.84661907291e-07
4.34725627786e-05
3.17151496011e-07
4.33959568424e-05
2.03052353181e-07
4.33467131582e-05
1.26481372309e-07
4.33159212693e-05
7.59670190287e-08
4.32973502123e-05
4.33113190482e-08
4.32867070784e-05
2.27204969992e-08
4.32810796079e-05
1.01483830584e-08
4.32785301756e-05
2.80678201846e-09
4.32777811004e-05
-1.20425289051e-09
4.3278027803e-05
-3.15684562878e-09
4.32787635243e-05
-3.87798877401e-09
4.32796860501e-05
-3.90572349668e-09
4.3280623926e-05
-3.57628775883e-09
4.32814877973e-05
-3.09315993466e-09
4.32822381901e-05
-2.57378249417e-09
4.3282864681e-05
-2.081244355e-09
4.32833726024e-05
-1.64535552782e-09
4.32837749029e-05
-1.27634840145e-09
4.32840873202e-05
-9.73611457009e-10
4.32843256997e-05
-7.31105050265e-10
4.3284504556e-05
-5.40573089354e-10
4.32846365029e-05
-3.93347783304e-10
4.32847321594e-05
-2.81328399779e-10
4.32848001703e-05
-1.97375518248e-10
4.32848474883e-05
-1.35407092472e-10
4.32848796176e-05
-9.04086269219e-11
4.32849007942e-05
-5.83251121607e-11
4.32849142369e-05
-3.59276268378e-11
4.32849223434e-05
-2.06985606568e-11
4.32849268504e-05
-1.06927820202e-11
4.32849290533e-05
-4.42024785139e-12
4.32849301849e-05
-8.88269427633e-13
4.3284930201e-05
1.10438517836e-12
4.32849296724e-05
2.00620399264e-12
4.32849289658e-05
2.18094374016e-12
4.32849282285e-05
1.95735787748e-12
4.32849275352e-05
1.51947128108e-12
4.3284926973e-05
9.66488245002e-13
4.32849265564e-05
3.04000178688e-13
4.32849261916e-05
-1.57371556627e-13
4.32849259092e-05
-5.41515170497e-13
4.32849256768e-05
-8.31659660458e-13
4.32849254396e-05
-1.07069869999e-12
4.32849252625e-05
-1.28809317972e-12
4.32849251142e-05
-1.50284125776e-12
4.32849249655e-05
-1.67401273106e-12
4.32849248622e-05
-1.78895276663e-12
4.32849248026e-05
-1.86910636403e-12
4.3284924764e-05
-1.89315274017e-12
4.32849248008e-05
-1.86502674784e-12
4.32849249349e-05
-1.84268016253e-12
4.3284925121e-05
-1.84386407852e-12
4.32849253528e-05
-1.86598220758e-12
4.32849256025e-05
-1.906155561e-12
4.32849258287e-05
-1.94372037821e-12
4.3284926064e-05
-1.98891816752e-12
4.3284926309e-05
-2.06965818759e-12
4.32849265373e-05
-2.15995044776e-12
4.3284926803e-05
-2.26428287815e-12
4.32849270876e-05
-2.4223905935e-12
4.32849273181e-05
-2.59865162269e-12
4.32849275465e-05
-2.75998260433e-12
4.32849278062e-05
-2.95573053988e-12
4.32849280177e-05
-3.17563252585e-12
4.3284928236e-05
-3.35211697605e-12
4.32849285234e-05
-3.51280125748e-12
4.328492877e-05
-3.67551102563e-12
4.32849290107e-05
-3.79991664185e-12
4.32849293542e-05
-3.91823383621e-12
4.32849297409e-05
-4.064158669e-12
4.32849301778e-05
-4.24192041608e-12
4.32849307617e-05
-4.46763129821e-12
4.32849314301e-05
-4.73790049518e-12
4.3284932148e-05
-5.04954323808e-12
4.32849330358e-05
-5.42616500382e-12
4.32849340434e-05
-5.86216111581e-12
4.32849351306e-05
-6.29481520036e-12
4.32849364348e-05
-6.79097078329e-12
4.32849379337e-05
-7.42603533709e-12
4.32849396625e-05
-8.11917703245e-12
4.32849418594e-05
-8.92536900762e-12
4.32849445401e-05
-1.0020944022e-11
4.32849476178e-05
-1.13977438855e-11
4.32849513636e-05
-1.305296534e-11
4.3284956083e-05
-1.51579562309e-11
4.32849615492e-05
-1.77470464511e-11
4.32849681011e-05
-2.08600738987e-11
4.32849761585e-05
-2.47463257589e-11
4.32849859151e-05
-2.95301100214e-11
4.32849978691e-05
-3.53636797921e-11
4.32850125766e-05
-4.26287809191e-11
4.3285030525e-05
-5.16284118115e-11
4.32850525697e-05
-6.26891152056e-11
4.32850798122e-05
-7.64062400697e-11
4.32851133024e-05
-9.33570264118e-11
4.32851545955e-05
-1.14192297276e-10
4.32852058251e-05
-1.40165163041e-10
4.32852690623e-05
-1.7245320038e-10
4.32853471224e-05
-2.12365243992e-10
4.32854437778e-05
-2.61717854398e-10
4.32855632262e-05
-3.22809401617e-10
4.32857107637e-05
-3.98342672004e-10
4.32858933639e-05
-4.91877440641e-10
4.32861192774e-05
-6.07836734412e-10
4.32863986138e-05
-7.51393173834e-10
4.32867442762e-05
-9.29073873077e-10
4.32871720374e-05
-1.14910990161e-09
4.32877014516e-05
-1.42154979365e-09
4.32883569701e-05
-1.75897129892e-09
4.32891685302e-05
-2.17716502627e-09
4.32901731632e-05
-2.69549983862e-09
4.32914169153e-05
-3.33798339197e-09
4.32929568014e-05
-4.13418745864e-09
4.32948633899e-05
-5.12057145185e-09
4.32972243639e-05
-6.34251308687e-09
4.33001482575e-05
-7.8563792313e-09
4.33037692229e-05
-9.73182207863e-09
4.33082538539e-05
-1.20552833627e-08
4.33138088769e-05
-1.49344280623e-08
4.33206902093e-05
-1.8502898633e-08
4.33292153297e-05
-2.29265208168e-08
4.33397786209e-05
-2.84117913555e-08
4.33528693097e-05
-3.52160260797e-08
4.33690949632e-05
-4.36598407719e-08
4.33892115945e-05
-5.41436906711e-08
4.34141601111e-05
-6.71691106713e-08
4.34451123974e-05
-8.33656614802e-08
4.34835306756e-05
-1.03525797779e-07
4.35312436963e-05
-1.28651396347e-07
4.35905431968e-05
-1.60016002836e-07
4.36643088019e-05
-1.99247598595e-07
4.37561731063e-05
-2.48443068429e-07
4.38707389718e-05
-3.10330232065e-07
4.4013871591e-05
-3.88499709973e-07
4.41930970022e-05
-4.87748918496e-07
4.44181548785e-05
-6.14611911615e-07
4.47017778243e-05
-7.78204723702e-07
4.50607900743e-05
-9.91634927189e-07
4.5517629317e-05
-1.27445113885e-06
4.61022792066e-05
-1.65703939919e-06
4.68540329724e-05
-2.18865310722e-06
4.78206295829e-05
-2.95191683177e-06
4.90471843707e-05
-4.08699836162e-06
5.05350579852e-05
-5.82377653902e-06
5.21252685649e-05
-8.50243049697e-06
-1.24820810719e-05
5.32749478758e-05
5.27606080275e-05
6.19125853812e-06
5.57402407735e-05
1.28705028165e-05
5.73124120389e-05
1.46832152569e-05
5.7611197348e-05
1.37486546475e-05
5.71338680464e-05
1.1633560572e-05
5.63199834855e-05
9.26535636434e-06
5.54496443061e-05
7.09475157603e-06
5.46637028541e-05
5.28436603569e-06
5.40144142681e-05
3.85358511979e-06
5.35068459617e-05
2.7614693798e-06
5.31248852535e-05
1.948193265e-06
5.28455369589e-05
1.35405596471e-06
5.26459090233e-05
9.26975255e-07
5.25061078293e-05
6.24463109399e-07
5.24100455339e-05
4.13213748414e-07
5.23452839631e-05
2.67813875461e-07
5.2302504161e-05
1.69261139188e-07
5.22748900891e-05
1.0358112225e-07
5.22575545792e-05
6.06469011481e-08
5.22470550026e-05
3.32201593063e-08
5.22410067719e-05
1.61966801403e-08
5.22377875001e-05
6.02608421888e-09
5.2236301208e-05
2.82032436287e-10
5.22358466732e-05
-2.70234924654e-09
5.22359602353e-05
-3.99155647879e-09
5.22363570335e-05
-4.30249686128e-09
5.22368652863e-05
-4.08447847329e-09
5.2237386868e-05
-3.61462871065e-09
5.22378700388e-05
-3.05682949641e-09
5.22382914388e-05
-2.50252242146e-09
5.22386443131e-05
-1.99811531815e-09
5.22389310326e-05
-1.56296494971e-09
5.22391584511e-05
-1.20094929092e-09
5.22393351828e-05
-9.07755586116e-10
5.22394699944e-05
-6.75310392011e-10
5.22395709823e-05
-4.94317368173e-10
5.2239645289e-05
-3.55667881736e-10
5.22396989274e-05
-2.51110198437e-10
5.22397368497e-05
-1.73477520768e-10
5.22397630752e-05
-1.16767817825e-10
5.2239780751e-05
-7.60882416163e-11
5.22397922945e-05
-4.75120558652e-11
5.22397995471e-05
-2.7945149095e-11
5.22398038857e-05
-1.49915278838e-11
5.22398062948e-05
-6.79377788538e-12
5.22398072648e-05
-1.81553959176e-12
5.22398075097e-05
9.20900633629e-13
5.22398074077e-05
2.15272496061e-12
5.22398070924e-05
2.51423486252e-12
5.22398066945e-05
2.32786967305e-12
5.22398062672e-05
1.8481810036e-12
5.22398058283e-05
1.24740167976e-12
5.22398052765e-05
6.50893150029e-13
5.22398046961e-05
1.94077172286e-13
5.2239804209e-05
-2.6645624091e-13
5.22398038937e-05
-7.20721918143e-13
5.22398036305e-05
-1.03918239215e-12
5.2239803419e-05
-1.29635755092e-12
5.22398032358e-05
-1.52706073729e-12
5.22398030417e-05
-1.70850990783e-12
5.22398028824e-05
-1.81241658113e-12
5.223980278e-05
-1.85968825013e-12
5.22398026913e-05
-1.85621542413e-12
5.22398026297e-05
-1.80457046962e-12
5.22398026246e-05
-1.75860374045e-12
5.22398026349e-05
-1.75339830493e-12
5.22398026564e-05
-1.77196195169e-12
5.22398027054e-05
-1.80133042863e-12
5.22398027331e-05
-1.83158890182e-12
5.22398027489e-05
-1.87375874154e-12
5.22398027618e-05
-1.96307681902e-12
5.22398027391e-05
-2.08424705764e-12
5.22398027358e-05
-2.211169249e-12
5.22398027709e-05
-2.37204916856e-12
5.22398027529e-05
-2.55962524566e-12
5.22398027044e-05
-2.72829225148e-12
5.22398027176e-05
-2.91251325882e-12
5.22398027091e-05
-3.1363310223e-12
5.22398026575e-05
-3.33035924239e-12
5.22398026769e-05
-3.49436860445e-12
5.22398026977e-05
-3.66830904617e-12
5.22398026602e-05
-3.81547564277e-12
5.22398026637e-05
-3.94183167264e-12
5.22398027188e-05
-4.10613058229e-12
5.22398027828e-05
-4.31284187566e-12
5.22398029254e-05
-4.56139059893e-12
5.22398031642e-05
-4.88991974785e-12
5.22398034548e-05
-5.28250608565e-12
5.22398039115e-05
-5.71633876516e-12
5.2239804515e-05
-6.22662018077e-12
5.22398051608e-05
-6.79408269696e-12
5.22398059929e-05
-7.43437129851e-12
5.22398070574e-05
-8.23041452806e-12
5.22398083021e-05
-9.17826787001e-12
5.22398098989e-05
-1.03226266139e-11
5.2239811968e-05
-1.18467292661e-11
5.22398144322e-05
-1.37951753912e-11
5.22398174677e-05
-1.61215970026e-11
5.22398213389e-05
-1.89942276335e-11
5.22398260832e-05
-2.25829484385e-11
5.2239831997e-05
-2.6925211853e-11
5.22398394929e-05
-3.22752890376e-11
5.22398487839e-05
-3.89173357982e-11
5.2239860337e-05
-4.70743089044e-11
5.22398747876e-05
-5.7167492662e-11
5.22398926701e-05
-6.96735907982e-11
5.22399148015e-05
-8.50544233799e-11
5.22399424214e-05
-1.04063063165e-10
5.22399767259e-05
-1.2763168833e-10
5.22400191387e-05
-1.56726204725e-10
5.22400716781e-05
-1.92787642991e-10
5.22401366911e-05
-2.37551207229e-10
5.22402170867e-05
-2.92917412677e-10
5.22403167617e-05
-3.61358730472e-10
5.22404401723e-05
-4.46125313107e-10
5.2240592714e-05
-5.51036588646e-10
5.22407815756e-05
-6.80869597861e-10
5.22410154858e-05
-8.41709318651e-10
5.22413049163e-05
-1.04087644213e-09
5.22416632142e-05
-1.28743009362e-09
5.22421068606e-05
-1.59273499127e-09
5.22426561177e-05
-1.9708187431e-09
5.22433362549e-05
-2.43906449944e-09
5.22441783827e-05
-3.01919355964e-09
5.22452209755e-05
-3.73802546306e-09
5.2246511842e-05
-4.62872359198e-09
5.2248110114e-05
-5.73232934774e-09
5.22500888899e-05
-7.09948281135e-09
5.22525390877e-05
-8.79288375907e-09
5.22555734121e-05
-1.08905413187e-08
5.22593309439e-05
-1.34892107333e-08
5.22639841622e-05
-1.67086416213e-08
5.2269747294e-05
-2.06975794676e-08
5.22768854988e-05
-2.56409312559e-08
5.2285727211e-05
-3.17681853893e-08
5.22966801841e-05
-3.93646541569e-08
5.23102500493e-05
-4.87856988964e-08
5.2327063897e-05
-6.04738118879e-08
5.23479007566e-05
-7.49807961256e-08
5.23737285733e-05
-9.2996855362e-08
5.24057504471e-05
-1.15387149797e-07
5.24454631522e-05
-1.43238294423e-07
5.24947316391e-05
-1.77920021232e-07
5.2555883006e-05
-2.21167292538e-07
5.26318247971e-05
-2.75188978048e-07
5.27261973621e-05
-3.42815413136e-07
5.28435699595e-05
-4.2770293238e-07
5.29896930702e-05
-5.34622579743e-07
5.31718229994e-05
-6.69878449972e-07
5.33991397878e-05
-8.41928800038e-07
5.36832718308e-05
-1.06233681974e-06
5.40389079129e-05
-1.34727104671e-06
5.44843862157e-05
-1.7199298157e-06
5.50418642512e-05
-2.21451764156e-06
5.57359305247e-05