/*--------------------------------*- C++ -*----------------------------------*\
| =========                 |                                                 |
| \\      /  F ield         | OpenFOAM: The Open Source CFD Toolbox           |
|  \\    /   O peration     | Version:  2106                                  |
|   \\  /    A nd           | Website:  www.openfoam.com                      |
|    \\/     M anipulation  |                                                 |
\*---------------------------------------------------------------------------*/
FoamFile
{
    version     2.0;
    format      ascii;
    arch        "LSB;label=32;scalar=64";
    class       volScalarField;
    location    "0.28";
    object      p;
}
// * * * * * * * * * * * * * * * * * * * * * * * * * * * * * * * * * * * * * //

dimensions      [0 2 -2 0 0 0 0];

internalField   nonuniform List<scalar> 
11200
(
150.155093323
147.226491485
146.112640253
145.58530848
145.217978192
144.923199298
144.661555112
144.413016413
144.168497923
143.92342995
143.67511531
143.421799285
143.162249849
142.895531396
142.620877029
142.337613299
142.045114374
141.742774255
141.42999411
141.10618582
140.770725588
140.422964394
140.062243868
139.687896141
139.299235647
138.8955611
138.476156324
138.0402909
137.587220913
137.116189591
136.626427892
136.117155013
135.587578506
135.036894482
134.464288269
133.868935578
133.250002394
132.606645208
131.938011427
131.243239757
130.521460529
129.771795935
128.993360231
128.185259785
127.346592991
126.476450021
125.573912397
124.638052241
123.667931194
122.6625989
121.621090862
120.542425561
119.42560071
118.269588473
117.073329335
115.835724256
114.555624723
113.231820233
111.863022477
110.447845478
108.984780594
107.472164942
105.908141109
104.290608463
102.61715707
100.884981747
99.0907720079
97.2305677988
95.2995650138
93.2918489813
91.2000305355
89.0147499753
86.7238090192
84.3110213178
81.7543011709
79.0219889076
76.0664853058
72.8152155685
69.1144599143
64.3511804748
148.362051458
147.003877234
146.212905363
145.71289049
145.321901672
144.998018591
144.713496992
144.448894361
144.193406177
143.940883996
143.687500476
143.430742004
143.168871515
142.900612506
142.624964512
142.34109268
142.048259588
141.745782392
141.433002656
141.109258496
140.773899724
140.426250822
140.065668058
139.691483276
139.303000488
138.89951269
138.480300863
138.044632756
137.591763162
137.120934328
136.631376223
136.122306494
135.59293082
135.042448953
134.470048167
133.874904184
133.256182736
132.613040275
131.944624218
131.250073338
130.528518114
129.779080964
129.000876461
128.193011404
127.35458475
126.484687413
125.582401856
124.646801399
123.676949226
122.671896911
121.630682338
120.552326928
119.435832065
118.280174494
117.084300394
115.847117795
114.567486961
113.244208258
111.876006858
110.461513673
108.999241555
107.487555263
105.924631074
104.308406042
102.636512562
100.906209846
99.1142824224
97.2568928921
95.3294019199
93.326124848
91.2399928005
89.06204945
86.7807471952
84.3809503328
81.8422637025
79.1361790463
76.2218982152
73.0415869216
69.4924543583
65.379638174
147.36686118
146.712660637
146.160304522
145.722686243
145.351061897
145.028959665
144.739859391
144.469625173
144.20916198
143.952680914
143.696296962
143.437328403
143.173863169
142.904474258
142.628040562
142.343633429
142.050443193
141.747731244
141.434799284
141.110970451
140.775582665
140.427996321
140.067467388
139.693342189
139.304928645
138.901517191
138.482386499
138.046803233
137.594021887
137.123284941
136.633823245
136.124856698
135.595594374
135.045228835
134.472942275
133.877912798
133.259307291
132.616282737
131.947987396
131.25356087
130.532134495
129.782831624
129.004767923
128.197051489
127.358782851
126.489054833
125.586952221
124.651551193
123.681918439
122.677109833
121.63616852
120.558122365
119.441980662
118.286729849
117.091327939
115.85469742
114.575716256
113.253206638
111.885920697
110.472522553
109.011565176
107.501461712
105.940448259
104.326555928
102.657547382
100.930829022
99.1433591083
97.2915391354
95.371055062
93.3766683842
91.3019295383
89.1387757827
86.8771123357
84.5040235956
82.0027887695
79.3515478637
76.5223274164
73.4835119122
70.1991233324
66.6461395591
146.817099953
146.453718481
146.053820056
145.684829013
145.347211558
145.039108242
144.753743971
144.483039062
144.220666134
143.961998192
143.703617186
143.442991554
143.178221442
142.907839556
142.630669789
142.345729588
142.0521626
141.749192612
141.436092484
141.112162302
140.776711123
140.429048764
140.068534002
139.69444368
139.306067088
138.902696525
138.483610413
138.048074188
137.595341229
137.124653001
136.635239183
136.126317864
135.597096388
135.046773048
134.474537619
133.879564547
133.261021688
132.618066788
131.949847115
131.255502726
130.534165765
129.784960594
129.007004319
128.199406892
127.361271174
126.491692887
125.589760385
124.654554233
123.685146498
122.680599533
121.63996429
120.56227818
119.446562208
118.291817166
117.097018724
115.861111235
114.582999747
113.261539679
111.895524095
110.483667441
109.02458823
107.516788942
105.958608462
104.34818774
102.6834252
100.961922123
99.1809032589
97.3371166583
95.4267093377
93.44507145
91.3866460941
89.2447039818
87.0110136317
84.6755333888
82.2261745319
79.648839108
76.9287819889
74.0562961038
71.0349796346
67.9020111657
146.483051984
146.251256372
145.949843575
145.638865881
145.334025536
145.042001156
144.763024522
144.493897377
144.230936112
143.970850587
143.710880377
143.44878805
143.18278107
142.911410347
142.633479161
142.347970502
142.05399171
141.750733554
141.437440712
141.113390582
140.777878282
140.430207481
140.069681825
139.695590718
139.30723701
138.903904375
138.484866007
138.049384935
137.596713198
137.126091696
136.636750187
136.12790744
135.598771291
135.048538368
134.476394711
133.8815166
133.263069498
132.620211305
131.952092614
131.257853912
130.536629842
129.787547091
129.009725203
128.202276908
127.364308327
126.494919036
125.593202027
124.658243477
123.689122187
122.68490875
121.644664638
120.567439902
119.452270937
118.298177322
117.10415757
115.869183363
114.592192075
113.272080084
111.907689798
110.497801645
109.041113128
107.536212144
105.981561761
104.37546734
102.716035211
101.001123469
99.2282846887
97.3946970449
95.4970810735
93.5316025951
91.4937649851
89.3783038564
87.1791109632
84.8892678063
82.5013538376
80.0083600183
77.4060900507
74.6989860834
71.9084082244
69.0850520676
146.279659479
146.103757311
145.862562226
145.595235935
145.318048277
145.041409137
144.769718489
144.50321581
144.240449553
143.979439652
143.718151195
143.454717126
143.187511977
142.915144909
142.636423002
142.350308516
142.05587938
141.752296182
141.438776181
141.114573582
140.778964987
140.431238514
140.070684757
139.696593979
139.308255599
138.90494887
138.485944345
138.050503008
137.597875389
137.12730113
136.638008995
136.129216921
135.600132175
135.049951514
134.47786163
133.88303983
133.264654633
132.621865752
131.953824436
131.259675039
130.538553072
129.789585936
129.011895255
128.204596324
127.366798671
126.497606422
125.596118218
124.661427134
123.692620473
122.688779154
121.648976477
120.5722773
119.457736066
118.304394362
117.111277775
115.877392191
114.601719486
113.283207044
111.920764207
110.5132419
109.059424078
107.558018106
106.007640501
104.406775186
102.753755094
101.046730418
99.2836303813
97.4621214313
95.57956372
93.6329715123
91.6189887928
89.5339041845
87.3737516296
85.1345901376
82.8131350165
80.408034763
77.9223572131
75.3682568799
72.7726826823
70.1827316786
146.156542688
146.000934988
145.794632963
145.558070561
145.302595057
145.039315272
144.774701793
144.511192973
144.249059587
143.98747381
143.725101619
143.460466506
143.192138709
142.918809673
142.639307209
142.352583698
142.057694186
141.753772826
141.440011594
141.115642578
140.779923955
140.432129298
140.071539764
139.697437797
139.309104531
138.905814255
138.486834674
138.05142458
137.598832977
137.128298651
136.639049973
136.130304859
135.601270826
135.051145369
134.479116401
133.884362135
133.266051504
132.623345036
131.9553949
131.261344672
130.540329759
129.791481378
129.013925557
128.206781904
127.369164715
126.500183406
125.598943011
124.664544406
123.696084343
122.692655196
121.653344365
120.577234075
119.463399983
118.310909518
117.118819553
115.886172949
114.611994117
113.295288053
111.935029531
110.530158117
109.079572819
107.582113666
106.036551439
104.441573571
102.795768333
101.097606584
99.3454240698
97.5374070534
95.6715859132
93.7458463126
91.7579741528
89.7057636562
87.5872357681
85.4010581955
83.1472999263
80.8287188019
78.4528641808
76.0353351072
73.603008606
71.1952416781
146.08246302
145.932452878
145.74569718
145.529591749
145.289885689
145.037064529
144.778427617
144.517689747
144.2563235
143.99440249
143.731185862
143.465550192
143.196254972
142.922078955
142.641878598
142.354604024
142.059293712
141.755060312
141.441074266
141.116548396
140.780724734
140.432863934
140.072237034
139.698118452
139.30978447
138.906504402
138.487543184
138.052157558
137.599595164
137.12909399
136.639882024
136.131177099
135.602186913
135.05210922
134.480132098
133.885434246
133.267185416
132.624546605
131.956670967
131.262704988
130.541790256
129.793060119
129.015641301
128.208656905
127.371225934
126.502463666
125.601482235
124.667391101
123.699297419
122.696306342
121.657521252
120.582043093
119.468970241
118.317397863
117.126416805
115.89511217
114.622561395
113.307830589
111.949972016
110.548017295
109.100975159
107.607825961
106.06751519
104.478945955
102.840973901
101.15240371
99.4119899594
97.6184467583
95.7704727082
93.8668030233
91.9063056057
89.8881507766
87.8120931072
85.6789452958
83.4913210537
81.254754142
78.9792816448
76.6815092711
74.3861187366
72.1251190102
146.040186671
145.890739016
145.714323501
145.510585494
145.281053168
145.035345278
144.780985925
144.522348316
144.261642451
143.999549323
143.735753032
143.46939572
143.199385854
142.924574778
142.643845727
142.356150473
142.060516954
141.756042612
141.441882092
141.117233826
140.781327654
140.433414338
140.072757207
139.698625658
139.310288529
138.907015138
138.488067307
138.05270003
137.600159978
137.12968459
136.640501579
136.131828769
135.602874072
135.05283564
134.480902126
133.886253033
133.268059197
132.625483407
131.95768121
131.263801222
130.542983774
129.794365837
129.017079178
128.210251274
127.373006183
126.504465388
125.603748599
124.669974543
123.702261656
122.699728684
121.661495241
120.586682373
119.474413008
118.323812145
117.134006763
115.904125529
114.633298292
113.32065622
111.96533087
110.566453308
109.123152144
107.634553653
106.099781927
104.517960128
102.888215171
101.209686783
99.4815444243
97.703016813
95.8734409659
93.992344196
92.0595719594
90.0754913411
88.0412978644
85.9594833014
83.8344943689
81.6736268505
79.4881319514
77.2944224724
75.1145448126
72.9746797173
146.020910246
145.871032436
145.699069611
145.501134446
145.276573566
145.034455091
144.782320702
144.524812677
144.264486596
144.002326599
143.738237419
143.471503313
143.201114682
142.925964036
142.644950687
142.357028407
142.061220118
141.756615415
141.442360601
141.117646412
140.781696121
140.433755151
140.073082589
139.698944539
139.310608502
138.907341077
138.488403132
138.053048944
137.600524767
137.130067916
136.640906094
136.132257314
135.603329873
135.053322482
134.481424531
133.886816461
133.268670285
132.626150125
131.958412701
131.264607944
130.54388066
129.795370192
129.018211578
128.211536587
127.374474618
126.506153659
125.605701312
124.672245859
123.704917321
122.702848519
121.665176202
120.591042205
119.479594664
118.32998917
117.141389948
115.912971165
114.643918371
113.333429389
111.980716964
110.585012061
109.145562878
107.66164271
106.132555056
104.557642004
102.936297647
101.2679878
99.5522798236
97.7888870773
95.977734789
94.1190605721
92.213556948
90.2625933078
88.2685104553
86.2350622861
84.1679566896
82.0755390736
79.9695341495
77.8656975125
75.7837215503
73.7455328161
146.020912842
145.871048511
145.699096639
145.501170709
145.276618289
145.034507431
144.782379733
144.524877576
144.264556668
144.002401273
143.738316234
143.471585914
143.201200805
142.926053489
142.645043351
142.357124239
142.061319115
141.756717637
141.442466157
141.117755462
140.781808886
140.433871926
140.073203767
139.699070646
139.310740243
138.907479185
138.488548529
138.053202758
137.600688379
137.130242873
136.641094405
136.132461437
135.603552784
135.053567791
134.481696602
133.887120572
133.269012817
132.626538826
131.958857145
131.265120084
130.544474527
129.796062817
129.019023718
128.212493477
127.375606912
126.507498591
125.607304098
124.674161396
123.707212241
122.705603699
121.6684898
120.595033379
119.484408039
118.335800254
117.148411683
115.921461829
114.65419108
113.345863766
111.995774098
110.603252822
109.167665962
107.688431503
106.165028309
104.597010449
102.984027895
101.325853188
99.6224189978
97.8738748732
96.0806666901
94.2436452733
92.3642440212
90.4447564301
88.4882972303
86.4994912577
84.4848546232
82.4532890973
80.4165818756
78.3897519047
76.390703895
74.4385329714
146.040194513
145.890787617
145.714405186
145.510695029
145.281188194
145.035503072
144.781163669
144.522543551
144.26185311
143.999773701
143.735989766
143.469643744
143.199644377
142.924843242
142.644123783
142.356437974
142.06081392
141.756349219
141.442198667
141.117560852
140.78166579
140.433764463
140.073120476
139.699003657
139.310683269
138.907428815
138.488502622
138.053160282
137.600649183
137.130207617
136.641064378
136.132438573
135.603539689
135.053567792
134.481713849
133.887160201
133.269081138
132.626643552
131.959007657
131.265327777
130.544753246
129.796429413
129.019498685
128.213101725
127.376378702
126.508470674
125.608521098
124.675677485
123.709093172
122.707929255
121.671356782
120.598559231
119.488735225
118.341101552
117.154896621
115.929384496
114.66385962
113.357651969
112.010133428
110.6207268
109.188920235
107.714266168
106.196408267
104.63509828
103.030221506
101.381834272
99.6902254709
97.9559767431
96.1799751548
94.3635974157
92.5088164428
90.6183243273
88.6960969688
86.7473901396
84.7791955616
82.8006669039
80.8234784962
78.8620361357
76.9330586377
75.0539884801
146.082476287
145.932535124
145.745835173
145.529776395
145.290112854
145.037329505
144.778725619
144.518016642
144.256675839
143.994777443
143.731581169
143.465964104
143.196686184
142.922526552
142.642342026
142.35508305
142.059788385
141.755570933
141.441601378
141.117092807
140.781287573
140.433446678
140.072841522
139.698747367
139.310440742
138.907191806
138.488266201
138.052921605
137.600406842
137.129961337
136.640814792
136.132187117
135.603288568
135.053319983
134.48147319
133.886931512
133.268870391
132.626458083
131.958856423
131.265221696
130.544705624
129.796456427
129.019620027
128.213341341
127.376765696
126.509040397
125.609316495
124.676750708
123.71050751
122.709761477
121.673700006
120.60152639
119.492463245
118.345756393
117.160679353
115.936538605
114.672679801
113.368495035
112.023430865
110.637000207
109.208793256
107.738498004
106.225914215
104.670981856
103.073815607
101.434727538
99.7542703732
98.0333066341
96.2731583675
94.4756384385
92.6432011146
90.779108174
88.8876683883
86.9744835259
85.0467725303
83.1137076264
81.1867302213
79.279787421
77.4090130425
75.591323333
146.156561738
146.001053012
145.794830328
145.558333712
145.302917758
145.039690623
144.775122922
144.511654024
144.249555725
143.988001094
143.725656923
143.461047425
143.192743446
142.919436986
142.639956342
142.353254342
142.05838641
141.754487033
141.440748506
141.116403277
140.780709974
140.432942725
140.072383272
139.698314841
139.310019183
138.906771641
138.487840946
138.052487164
137.599960905
137.129502951
136.640344061
136.131705041
135.602796948
135.052821423
134.480971133
133.886430332
133.26837553
132.625976278
131.958395972
131.264792785
130.544320691
129.796130621
129.019371777
128.213193042
127.376744556
126.509179494
125.609656037
124.677339524
123.711404842
122.711039182
121.675445232
120.603844801
119.495482914
118.349632489
117.165599775
115.942730741
114.680418617
113.378112943
112.035330073
110.651665103
109.226808599
107.760564676
106.25287197
104.703830215
103.113730996
101.483115376
99.8128172483
98.1040191151
96.3583321884
94.5778985877
92.7655165864
90.9247861307
89.0602886941
87.17779813
85.2845435749
83.3895087808
81.5037733585
79.6409070459
77.8169214256
76.0492273096
146.279684974
146.103914811
145.862824153
145.59558336
145.318472384
145.041900517
144.770268037
144.503815918
144.241094021
143.980123468
143.718870416
143.455468727
143.188293724
142.915955263
142.637261039
142.35117384
142.056772026
141.753216544
141.439724979
141.115551863
140.779974086
140.43228038
140.071763902
139.697716292
139.30942571
138.906172545
138.487228983
138.05185765
137.599311069
137.128831425
136.639650572
136.130990219
135.602062239
135.052069061
134.480204161
133.885652654
133.267591981
132.625192798
131.957619867
131.26403306
130.543588459
129.79543954
129.018738545
128.212638003
127.376292466
126.508860457
125.609506615
124.677404067
123.711737131
122.711704426
121.676522484
120.60542986
119.497691795
118.3526056
117.169506951
115.947777326
114.686852812
113.386234355
112.045499847
110.664318636
109.242468571
107.779856573
106.276543986
104.732777247
103.149022982
101.526009629
99.8647803029
98.1667565445
96.4338130619
94.668362845
92.8734608514
91.0529243424
89.2114769576
87.3549091316
85.490281601
83.6261877332
81.7731416935
79.9442239712
78.1554659906
76.4255426945
146.483084614
146.251458209
145.950176546
145.639304573
145.334557876
145.042614801
144.763707988
144.494641305
144.231732996
143.971694443
143.711766533
143.449712968
143.18374219
142.91240598
142.634508378
142.349033033
142.055087804
141.751863832
141.43860599
141.114591909
140.779117218
140.431485192
140.071000399
139.696963569
139.30866809
138.905399433
138.486433236
138.051034609
137.598457873
137.127946519
136.638733405
136.130041062
135.601082111
135.051059714
134.479168122
133.884593332
133.266513779
132.624101215
131.956521611
131.262936177
130.542502554
129.794376238
129.017712037
128.211665668
127.375395605
126.508065128
125.608844594
124.676913989
123.711465895
122.711708978
121.676871958
120.606208113
119.499000439
118.354567675
117.172271349
115.951523943
114.691797895
113.39263834
112.053676301
110.674644371
109.255395736
107.795926728
106.296403479
104.75719361
103.178903648
101.562423202
99.9089755579
98.2201770265
96.498106319
94.7453811724
92.9652433024
91.161650353
89.3393764345
87.5041183878
85.6626271858
83.8228965723
81.9945476088
80.1897341443
78.4239717639
76.7171157564
146.817139753
146.453968335
146.054226579
145.68535935
145.347849689
145.039838415
144.75455222
144.483914323
144.221599685
143.96298318
143.704648328
143.444064915
143.179334281
142.908990219
142.63185765
142.346955025
142.053427032
141.750498457
141.437442699
141.113560741
140.778166898
140.43057758
140.070108735
139.696067664
139.307754157
138.904457975
138.485457864
138.050021233
137.597403941
137.126850532
136.637594662
136.128859515
135.599858214
135.049794341
134.477862582
133.883249543
133.265134563
132.622690408
131.955084248
131.261478936
130.54103412
129.792906849
129.016254061
128.210234115
127.374008651
126.506744767
125.60761745
124.675812338
123.710528947
122.710984344
121.676417063
120.606092373
119.499307756
118.355399385
117.173749746
115.953796722
114.695044858
113.397076423
112.059566205
110.682299018
109.26518986
107.808307752
106.311903783
104.776444002
103.202647618
101.591531355
99.9444599652
98.2632032614
96.5499988323
94.807618862
93.0394391312
91.2495061601
89.4425961089
87.6242602585
85.8008625243
83.979619531
82.1688332155
80.3788837702
78.6229855896
76.9197896252
147.36691298
146.712972672
146.160794614
145.723313552
145.351806723
145.029802978
144.740785007
144.47062056
144.210217352
143.953788592
143.697450981
143.438524208
143.175097375
142.905744452
142.629345171
142.344971754
142.051815803
141.749140858
141.436251026
141.112470866
140.777132252
140.429564921
140.069089933
139.695027041
139.306680793
138.903344201
138.484298569
138.048813147
137.59614528
137.125540491
136.636233167
136.127447111
135.598396025
135.048284049
134.476306367
133.881649713
133.263492548
132.621008931
131.953366939
131.259729976
130.539258245
129.791110948
129.014446942
128.20842672
127.372214501
126.504980482
125.605903351
124.674173163
123.70899465
122.70959112
121.675209304
120.605124052
119.498644288
118.355119922
117.173949935
115.954591714
114.696571863
113.399500952
112.063087362
110.687155564
109.271667455
107.816747383
106.322711299
104.79010058
103.219720752
101.612685561
99.9704665137
98.2949473064
96.5884811072
94.853953694
93.0948386197
91.315245803
89.5199481451
87.7143743634
85.9045414339
84.0968367854
82.2979204595
80.5153502898
78.7562382569
77.0292737718
148.362150671
147.004334752
146.213587988
145.713745402
145.322905735
144.999150999
144.714740724
144.450236355
144.194836244
143.942394102
143.689084267
143.432394399
143.170588291
142.902389875
142.62679869
142.342979515
142.050194072
141.747757855
141.435013642
141.111312804
140.775995769
140.428413141
140.067912937
139.693811756
139.305417912
138.902027806
138.482924394
138.047375901
137.594641334
137.12396775
136.634590146
136.125732664
135.596609285
135.046424432
134.474373642
133.879644553
133.261418528
132.618868572
131.951162886
131.257465743
130.53693847
129.78874081
129.01203265
128.205975887
127.369736463
126.502486648
125.603407644
124.671692587
123.706549991
122.707207736
121.672917672
120.602960947
119.496654148
118.353356442
117.172478012
115.953490048
114.695936648
113.399446754
112.063751509
110.688702662
109.274294337
107.820688552
106.328244835
104.797554445
103.22947945
101.625197026
99.9862486268
98.3145919836
96.6126537303
94.8834081713
93.1304033119
91.3578073081
89.5704250595
87.7736739223
85.9734508163
84.1756221162
82.3857172406
80.6084982055
78.8387668862
77.0470023258
150.15525925
147.227161471
146.113633489
145.586562784
145.219463326
144.924890628
144.663434043
144.415069389
144.17071505
143.925804181
143.67764195
143.424475675
143.165075225
142.898506906
142.624005838
142.340900667
142.048567584
141.746401959
141.433801248
141.110157962
140.774866872
140.42728805
140.066752563
139.692595167
139.304133724
138.900669062
138.481487398
138.045863733
137.593055733
137.12230895
136.632858416
136.123928438
135.594733068
135.044476753
134.472355016
133.877555225
133.259257589
132.616636152
131.948859738
131.255092948
130.534497493
129.786233743
129.009462312
128.203345904
127.367051398
126.499752175
125.600630766
124.66888188
123.703715926
122.704363093
121.67007803
120.600145232
119.493885291
118.350662145
117.169891634
115.951051552
114.69369346
113.397456501
112.062083496
110.687439848
109.273535857
107.820552654
106.328872321
104.799112589
103.23216627
101.62924562
99.9919319602
98.3222327441
96.6226446287
94.8961732574
93.1464239594
91.3776337255
89.5946917157
87.8031166886
86.0089550185
84.2187046685
82.4387874359
80.673989894
78.9038587686
77.003910236
56.9569157371
53.4048293452
51.0133979821
49.056036428
47.3841164617
45.9274735924
44.6421213671
43.4983412255
42.4744410557
41.5536499115
40.722534962
39.9700646554
39.2870140203
38.6655651128
38.0990249424
37.5816174214
37.108324373
36.6747620915
36.2770821031
35.9118916406
35.5761872457
35.26730075
34.9828530737
34.7207164866
34.4789821491
34.2559330672
34.0500208542
33.8598453547
33.6841374468
33.521744156
33.3716158558
33.232794742
33.1044050314
32.9856441648
32.8757749421
32.7741182533
32.6800460842
32.5929745757
32.5123554816
32.437669333
32.3684701612
32.3045621308
32.245672608
32.1912804419
32.1409446569
32.0943269159
32.0511566678
32.0111812234
31.974162302
31.9398818631
31.9081635736
31.8787869163
31.8515651976
31.8263313903
31.8029367936
31.7812277514
31.7610617108
31.742311695
31.724860284
31.7085985324
31.6934271772
31.6792552513
31.665998187
31.6535774401
31.6419203215
31.6309599642
31.6206346602
31.6108875589
31.6016662534
31.5929228677
31.5846134953
31.5766976189
31.569137763
31.5618998863
31.5549530068
31.5482689278
31.5418216421
31.535586656
31.5295424478
31.5236693187
31.5179493837
31.512366052
31.5069043143
31.5015504428
31.4962919452
31.4911171088
31.48601559
31.4809780741
31.4759962884
31.4710619162
31.466167448
31.4613059012
31.4564711436
31.4516560236
31.4468557479
31.4420649588
31.4372789526
31.4324919835
31.4276989677
31.4228972237
31.4180879033
31.4132721139
31.4084656339
31.4036496599
31.3988175259
31.3939867745
31.3891507313
31.3842763799
31.3793565842
31.3743878437
31.3693674185
31.3642921884
31.3591578375
31.3539607426
31.3486977721
31.3433653589
31.3379585526
31.3324727751
31.3269031988
31.321240653
31.3154603725
31.3095009632
31.3033144494
31.2974222557
31.2916496234
31.2860057689
31.2800742392
31.2739945749
31.2678269884
31.2616326282
31.2554301602
31.2492556589
31.2431293626
31.2370869078
31.2311632955
31.225389688
31.2197912953
31.2143783921
31.20912358
31.2039335419
31.1989899172
31.1938226891
31.1882401102
31.1815448809
31.1719837289
31.1553913618
31.12193901
31.050456156
30.9003121109
30.6015593254
30.0494799006
29.1117676145
27.6562041835
25.5900841214
22.886886159
19.6019262487
15.8529603222
11.6075610881
6.59042794945
1.56613633326
60.1382944877
56.0854653858
53.3735015232
51.2212183382
49.4194100404
47.8696729317
46.5137888791
45.3145098825
44.2456404915
43.28752349
42.4247928467
41.6450790928
40.9382057347
40.2956647856
39.7102537491
39.1758148487
38.687039018
38.239319623
37.8286330112
37.4514476267
37.1046481189
36.785475669
36.4914749891
36.2204543386
35.9704507946
35.7396994489
35.5266104758
35.3297471066
35.1478067596
34.9796073031
34.8240718001
34.6802185946
34.5471499092
34.4240438497
34.3101467272
34.2047669291
34.1072695725
34.0170719918
33.9336430987
33.8564984383
33.7851771901
33.7191567059
33.6580375302
33.6014567367
33.5491179457
33.5007129511
33.4559447031
33.4145342626
33.376223377
33.3407690606
33.3079423654
33.2775411591
33.2493770879
33.2232724352
33.1990560847
33.1765816423
33.1557137292
33.1363219539
33.1182872366
33.1015003983
33.085855696
33.0712545031
33.0576078367
33.0448334941
33.0328558951
33.0216047032
33.0110167473
33.0010313333
32.991595249
32.9826573889
32.9741731931
32.9660992906
32.9583974731
32.9510316821
32.943969692
32.9371823449
32.9306435072
32.9243276324
32.9182108343
32.9122735532
32.9064954603
32.9008604569
32.8953514024
32.8899562834
32.8846588529
32.8794499848
32.8743157408
32.8692492697
32.8642386952
32.8592781097
32.8543557303
32.8494684366
32.8446034049
32.839767076
32.8349474358
32.8301404511
32.8253382084
32.8205420193
32.8157564818
32.8109680078
32.8061698988
32.8013557745
32.7965007752
32.7916142255
32.7866914311
32.78172769
32.7767278743
32.7716958656
32.7666279332
32.7615195604
32.7563707086
32.7511772227
32.7459342584
32.7406350308
32.7352845193
32.7298706209
32.7243976295
32.7188556593
32.713250099
32.7075721281
32.7018318255
32.6960257297
32.6901753972
32.6843101325
32.6783348729
32.671999017
32.6658506032
32.6597457649
32.6535657646
32.6474086994
32.6412842157
32.6352423148
32.6292984969
32.6235044489
32.6179050329
32.6125428148
32.6074696741
32.6026970538
32.5982387194
32.5940584682
32.5901236349
32.5861788279
32.5818615064
32.5762459962
32.5670558147
32.549150412
32.5106884462
32.4272324421
32.2531254842
31.9120507522
31.2931767278
30.2612546509
28.6872471023
26.4883263096
23.6498590857
20.231648424
16.3494354
11.9859554721
6.87963460935
1.69970361206
62.3457544514
58.4122904137
55.5451730856
53.2613363506
51.3595307466
49.7332816719
48.3175497309
47.0703045316
45.9621017314
44.9710558024
44.0802442617
43.2761895957
42.5479148017
41.8863253406
41.2837836064
40.7338055447
40.2308341494
39.7700722354
39.347347719
38.9590121735
38.6018560916
38.2730439416
37.9700575239
37.6906514912
37.4328173512
37.1947506586
36.9748261795
36.7715759278
36.5836693163
36.4098986721
36.2491638835
36.1004618654
35.962875104
35.8355635793
35.7177563436
35.6087449598
35.5078778177
35.4145533797
35.3282167253
35.2483547925
35.1745031761
35.1062190901
35.0428604837
34.9842222535
34.9300160338
34.8798912805
34.8335321477
34.7906506151
34.7509811553
34.7142781394
34.6803140946
34.6488767356
34.6197684563
34.5928064548
34.567812542
34.5446288722
34.523113194
34.5031307157
34.4845557072
34.4672667605
34.4511585181
34.4361341281
34.4221024358
34.4089780887
34.3966828866
34.3851436111
34.374294679
34.3640731139
34.3544235508
34.3452929273
34.336634648
34.3284037803
34.3205604312
34.3130671928
34.3058905313
34.2989994875
34.2923651809
34.2859617084
34.2797656136
34.2737569881
34.2679144059
34.2622213264
34.256659789
34.2512176373
34.2458777972
34.2406310344
34.2354630805
34.2303668049
34.225329952
34.2203471529
34.2154064168
34.2105059069
34.2056367389
34.2007865439
34.1959503185
34.1911263446
34.1863053493
34.1814870437
34.176648607
34.1717999291
34.1669413551
34.1620446174
34.1571363474
34.1522133193
34.1472661577
34.1422928016
34.1372876203
34.1322460341
34.1271643864
34.1220378278
34.1168656806
34.1116446703
34.1063721164
34.1010403812
34.0956549451
34.0902045312
34.0846943215
34.0791149932
34.0734724434
34.0677577182
34.0619819845
34.056137731
34.0502352507
34.0442763825
34.03825495
34.0322305215
34.026139532
34.0200817313
34.0137675527
34.0075775825
34.0014828922
33.9955633549
33.9897844811
33.9842144379
33.9789137402
33.9739399268
33.9693668202
33.9651943085
33.9614543769
33.9581368411
33.9551769044
33.9523242718
33.9490967764
33.9443117564
33.9351178708
33.9153491198
33.8711059784
33.7746841071
33.5755937776
33.191630007
32.5066713129
31.3834780575
29.6966459295
27.3725093253
24.4065730395
20.8613184159
16.8491552236
12.3672365557
7.16869149219
1.8311443799
64.1499574788
60.425245968
57.5213122133
55.1662488484
53.1963400483
51.5122456644
50.0487936447
48.7620864745
47.6208536846
46.6017446516
45.6867209938
44.8614694873
44.1143906651
43.4359257839
42.8180894902