/*--------------------------------*- C++ -*----------------------------------*\
| =========                 |                                                 |
| \\      /  F ield         | OpenFOAM: The Open Source CFD Toolbox           |
|  \\    /   O peration     | Version:  2106                                  |
|   \\  /    A nd           | Website:  www.openfoam.com                      |
|    \\/     M anipulation  |                                                 |
\*---------------------------------------------------------------------------*/
FoamFile
{
    version     2.0;
    format      ascii;
    arch        "LSB;label=32;scalar=64";
    class       surfaceScalarField;
    location    "0.28";
    object      phi;
}
// * * * * * * * * * * * * * * * * * * * * * * * * * * * * * * * * * * * * * //

dimensions      [0 3 -1 0 0 0 0];

oriented        oriented;

internalField   nonuniform List<scalar> 
22100
(
3.3846120486e-05
1.61538795179e-05
2.24572103727e-05
1.13889102952e-05
1.62585537539e-05
6.19865673117e-06
1.27977770388e-05
3.4607768471e-06
1.08046434169e-05
1.99313374899e-06
9.60459064392e-06
1.20005289888e-06
8.85132313402e-06
7.5326763032e-07
8.36435457385e-06
4.86968683441e-07
8.04433695128e-06
3.20017748001e-07
7.83284241512e-06
2.1149466045e-07
7.69339950557e-06
1.39443028966e-07
7.60224286467e-06
9.11567562228e-08
7.54348031987e-06
5.87626581039e-08
7.50634363136e-06
3.71368003343e-08
7.48350433483e-06
2.28394072307e-08
7.46998370912e-06
1.35207348655e-08
7.46241926343e-06
7.56455151331e-09
7.45855138762e-06
3.86798522795e-09
7.45683251544e-06
1.71898088161e-09
7.45642602466e-06
4.06591778159e-10
7.45677596362e-06
-3.49852482037e-10
7.45746225482e-06
-6.86201965678e-10
7.4582207079e-06
-7.58358702062e-10
7.45894611672e-06
-7.25318227177e-10
7.45959052748e-06
-6.44327527915e-10
7.46013456135e-06
-5.43961203164e-10
7.46057678097e-06
-4.42153805813e-10
7.46092564748e-06
-3.48802443307e-10
7.4611940661e-06
-2.68359782625e-10
7.46139612346e-06
-2.02004459957e-10
7.4615451947e-06
-1.49024357526e-10
7.46165298112e-06
-1.07750080303e-10
7.46172921029e-06
-7.62090597816e-11
7.46178201458e-06
-5.27957325875e-11
7.46181535054e-06
-3.33271230815e-11
7.46183420535e-06
-1.88427370451e-11
7.46184333931e-06
-9.12396445152e-12
7.46184618525e-06
-2.84561337951e-12
7.46184468933e-06
1.49025420864e-12
7.46183998781e-06
4.69008200622e-12
7.46183301792e-06
6.95574624211e-12
7.46182438641e-06
8.61308233751e-12
7.46181446339e-06
9.89838145e-12
7.46180342693e-06
1.10032068135e-11
7.46179128929e-06
1.20959914075e-11
7.46177793625e-06
1.33048320976e-11
7.46176315084e-06
1.47385634054e-11
7.46174660218e-06
1.64974364419e-11
7.46172786017e-06
1.86867000995e-11
7.4617063885e-06
2.14110918238e-11
7.46168157619e-06
2.47333505882e-11
7.46165271922e-06
2.87467626861e-11
7.46161902312e-06
3.35547655336e-11
7.46157962499e-06
3.92335982301e-11
7.46153364025e-06
4.57983393609e-11
7.46148023867e-06
5.31920993185e-11
7.46141874429e-06
6.12681164887e-11
7.46134904386e-06
6.94565017994e-11
7.46127183116e-06
7.69332958262e-11
7.46118952676e-06
8.19809155394e-11
7.46110837812e-06
8.08017896119e-11
7.46104059988e-06
6.74548541644e-11
7.46099393856e-06
4.63856847547e-11
7.46098755222e-06
6.14750584395e-12
7.46105736156e-06
-7.00342050433e-11
7.46126156351e-06
-2.04406963119e-10
7.46169459175e-06
-4.33229278098e-10
7.46250650006e-06
-8.120526127e-10
7.46393255637e-06
-1.42611356022e-09
7.46632832555e-06
-2.39572892942e-09
7.47014351231e-06
-3.81509344329e-09
7.47658843398e-06
-6.44480319418e-09
7.48735634214e-06
-1.0767747822e-08
7.50553006544e-06
-1.81735272731e-08
7.53871851792e-06
-3.31882976582e-08
7.6079468713e-06
-6.92282919264e-08
7.77465126088e-06
-1.6670434e-07
8.22969051001e-06
-4.55039019939e-07
9.69775991994e-06
-1.46806920718e-06
-5.45330361915e-06
1.51510635745e-05
5.02175950134e-05
1.59362846475e-05
4.42441121133e-05
1.73623935035e-05
3.77795022386e-05
1.26632668354e-05
3.26461450011e-05
8.59413431778e-06
2.89380931104e-05
5.70118586244e-06
2.63596229329e-05
3.77852330145e-06
2.45875187401e-05
2.52537204522e-06
2.33734769033e-05
1.70101074127e-06
2.25435280811e-05
1.14996678861e-06
2.19782196301e-05
7.76803329439e-07
2.1595517343e-05
5.22145531627e-07
2.13387410218e-05
3.47933285216e-07
2.11684997451e-05
2.29004140771e-07
2.10573423853e-05
1.48294369311e-07
2.09861547203e-05
9.40272756485e-08
2.09416825917e-05
5.79930608557e-08
2.09148010289e-05
3.44463076417e-08
2.08993021704e-05
1.93670156082e-08
2.08910786581e-05
9.94266666607e-09
2.08872785929e-05
4.20683151652e-09
2.08862098006e-05
7.19116227834e-10
2.08864556842e-05
-9.31914074112e-10
2.08873272696e-05
-1.62978105482e-09
2.08884669017e-05
-1.86479929262e-09
2.08896403489e-05
-1.81763801114e-09
2.08907234465e-05
-1.62693523234e-09
2.08916611375e-05
-1.37973295852e-09
2.08924387536e-05
-1.12631600408e-09
2.08930640587e-05
-8.93575437094e-10
2.0893556269e-05
-6.94141679446e-10
2.08939401601e-05
-5.32862225141e-10
2.08942417416e-05
-4.09291166025e-10
2.08944527491e-05
-2.87181955743e-10
2.08945998344e-05
-1.99848617461e-10
2.08947002194e-05
-1.33695489693e-10
2.08947656011e-05
-8.42226459314e-11
2.08948061466e-05
-4.96761327974e-11
2.08948300284e-05
-2.67361537719e-11
2.08948420607e-05
-1.05578985294e-11
2.08948451791e-05
1.54464987515e-12
2.08948417993e-05
1.0294916853e-11
2.08948335859e-05
1.67718843968e-11
2.08948216716e-05
2.17365852774e-11
2.0894806772e-05
2.58095620606e-11
2.08947892706e-05
2.95059073503e-11
2.089476931e-05
3.31849625492e-11
2.08947468726e-05
3.71024492636e-11
2.08947218179e-05
4.14537138185e-11
2.08946939275e-05
4.64289850395e-11
2.0894662929e-05
5.22156170959e-11
2.08946286046e-05
5.88347332384e-11
2.08945908099e-05
6.63039019159e-11
2.0894549549e-05
7.45559357767e-11
2.08945051082e-05
8.33591176991e-11
2.08944583171e-05
9.21883754813e-11
2.08944109639e-05
1.00060582199e-10
2.0894366321e-05
1.05375444526e-10
2.089433034e-05
1.04896713961e-10
2.08943124862e-05
9.42692333762e-11
2.08943279774e-05
6.60005335261e-11
2.08944035415e-05
4.74379357242e-12
2.08945880785e-05
-1.1762002395e-10
2.08949498744e-05
-3.15970572425e-10
2.08956073326e-05
-6.51816077008e-10
2.08966693932e-05
-1.13247595143e-09
2.08983118386e-05
-1.84708560491e-09
2.09008925708e-05
-3.01407283541e-09
2.09049595161e-05
-4.87904204066e-09
2.09113819318e-05
-7.84853292784e-09
2.09215837423e-05
-1.25974848604e-08
2.09380555799e-05
-2.02867862042e-08
2.0964945011e-05
-3.33339750299e-08
2.10091933309e-05
-5.50156811408e-08
2.10839783167e-05
-9.29580803252e-08
2.12152356038e-05
-1.64445246475e-07
2.14558932323e-05
-3.09885681132e-07
2.19138522239e-05
-6.24663282065e-07
2.28011296919e-05
-1.34231669559e-06
2.44457499382e-05
-3.11268988384e-06
-7.04098621292e-06
2.6033434499e-05
5.3517105474e-05
1.24191792889e-05
5.29349687523e-05
1.79445304827e-05
4.96538407715e-05
1.59443950167e-05
4.58401823002e-05
1.24077929904e-05
4.24400934716e-05
9.1012748883e-06
3.97291736814e-05
6.48944329208e-06
3.76873073697e-05
4.56723855506e-06
3.61976647074e-05
3.1906536016e-06
3.51326142379e-05
2.21501745253e-06
3.43823693467e-05
1.52704840697e-06
3.38606285247e-05
1.04388653866e-06
3.3502348445e-05
7.06213547733e-07
3.32596037039e-05
4.71749057025e-07
3.3097593562e-05
3.10304683579e-07
3.29913376498e-05
2.00283356776e-07
3.29230959354e-05
1.26234947921e-07
3.28804081407e-05
7.71342688715e-08
3.28546231493e-05
4.5152169993e-08
3.28397961837e-05
2.47697769388e-08
3.2831869799e-05
1.21333652115e-08
3.28280004323e-05
4.58863518818e-09
3.28270019036e-05
6.67624668385e-11
3.28271827705e-05
-1.81050760973e-09
3.28280312573e-05
-2.71315764304e-09
3.28291470814e-05
-2.93334411039e-09
3.28302943603e-05
-2.77410264981e-09
3.2831350343e-05
-2.43561367316e-09
3.28322607254e-05
-2.03660562939e-09
3.28330106595e-05
-1.64342769471e-09
3.28336062284e-05
-1.28964399249e-09
3.28340623762e-05
-9.88960382357e-10
3.28343972045e-05
-7.44082787453e-10
3.28346634053e-05
-5.53352152392e-10
3.28348795557e-05
-4.15963268558e-10
3.28350265679e-05
-2.8067479359e-10
3.28351255829e-05
-1.83220564548e-10
3.28351912187e-05
-1.15315248018e-10
3.28352329072e-05
-6.84437221832e-11
3.28352575275e-05
-3.52041502088e-11
3.28352690467e-05
-1.00000121518e-11
3.28352710221e-05
8.29090976532e-12
3.28352659432e-05
2.1812114624e-11
3.28352556294e-05
3.19949166885e-11
3.28352413107e-05
4.00606652533e-11
3.28352237481e-05
4.70002678486e-11
3.2835203407e-05
5.3459345115e-11
3.28351805785e-05
5.98601023778e-11
3.28351554562e-05
6.64956815496e-11
3.283512813e-05
7.36505030759e-11
3.28350986001e-05
8.16003330876e-11
3.28350671715e-05
9.00738176265e-11
3.28350344407e-05
9.88171667371e-11
3.28350014236e-05
1.07336252809e-10
3.28349698652e-05
1.14651572767e-10
3.28349427424e-05
1.19001392168e-10
3.28349247707e-05
1.17670730649e-10
3.28349228372e-05
1.06879417119e-10
3.28349483747e-05
7.88654197632e-11
3.28350186899e-05
2.34411654569e-11
3.28351634539e-05
-7.92397413653e-11
3.28354340103e-05
-2.66248650694e-10
3.28359190471e-05
-6.03091717789e-10
3.28366337309e-05
-1.03109468099e-09
3.28376723588e-05
-1.69085237306e-09
3.28392924333e-05
-2.75290523208e-09
3.28418705535e-05
-4.42547876879e-09
3.28459104936e-05
-7.05417090787e-09
3.28522265595e-05
-1.11951413991e-08
3.28621317262e-05
-1.77536318809e-08
3.28777905434e-05
-2.82561798942e-08
3.29028640141e-05
-4.53600923357e-08
3.2942704383e-05
-7.31741232185e-08
3.30071431642e-05
-1.19454196761e-07
3.31131672684e-05
-1.98981926402e-07
3.3289798709e-05
-3.4107641634e-07
3.35852594867e-05
-6.05345988574e-07
3.40706633052e-05
-1.11006658214e-06
3.48122039347e-05
-2.08385733461e-06
3.56737454038e-05
-3.97423307243e-06
-7.11006856221e-06
3.57428233336e-05
5.35105666001e-05
8.90861280191e-06
5.5574222651e-05
1.5880874671e-05
5.52424831606e-05
1.62761347056e-05
5.35977868338e-05
1.40524895155e-05
5.15418487863e-05
1.11572131305e-05
4.95802812267e-05
8.45101104998e-06
4.79243524068e-05
6.22316757213e-06
4.66181407304e-05
4.49686547252e-06
4.56304681279e-05
3.20269025181e-06
4.49051193745e-05
2.25239734795e-06
4.4384092376e-05
1.56491371553e-06
4.40166964181e-05
1.07360968615e-06
4.37619701145e-05
7.26475537817e-07
4.35882716946e-05
4.84003272898e-07
4.34718725207e-05
3.16682694285e-07
4.33953626357e-05
2.0274499523e-07
4.33461925462e-05
1.26304521798e-07
4.33154551221e-05
7.58897521831e-08
4.3296918942e-05
4.33061105238e-08
4.32862930581e-05
2.27594003471e-08
4.32806903954e-05
1.01914464493e-08
4.32778829031e-05
2.87440005547e-09
4.32770552761e-05
-9.82741913822e-10
4.327727333e-05
-2.93108421489e-09
4.32779610188e-05
-3.62091534925e-09
4.3278824213e-05
-3.63718682044e-09
4.32796971377e-05
-3.30844071087e-09
4.3280494678e-05
-2.8340594036e-09
4.32811804834e-05
-2.32915719248e-09
4.32817463325e-05
-1.85543147271e-09
4.32821990603e-05
-1.44163753764e-09
4.32825513724e-05
-1.09635203421e-09
4.32828130175e-05
-8.14969147989e-10
4.3282988297e-05
-5.9122490757e-10
4.32831212214e-05
-4.13589687097e-10
4.32832065124e-05
-2.68508556822e-10
4.32832604119e-05
-1.69220742549e-10
4.32833001319e-05
-1.0818207911e-10
4.32833244714e-05
-5.95703950949e-11
4.32833364264e-05
-2.19885689098e-11
4.32833394109e-05
5.26379808753e-12
4.32833353829e-05
2.57863696578e-11
4.32833260456e-05
4.12714864563e-11
4.3283312568e-05
5.34791119307e-11
4.3283295601e-05
6.39041845398e-11
4.32832755716e-05
7.34100657851e-11
4.32832528154e-05
8.25206859072e-11
4.32832276262e-05
9.15810642215e-11
4.32832003463e-05
1.00818724028e-10
4.32831715492e-05
1.1026437033e-10
4.3283141868e-05
1.19596381403e-10
4.3283112269e-05
1.28227932656e-10
4.32830842063e-05
1.35164444002e-10
4.32830597737e-05
1.38790401184e-10
4.32830419003e-05
1.36532210221e-10
4.32830349588e-05
1.24235510607e-10
4.32830468946e-05
9.45239839397e-11
4.32830896928e-05
3.56053219603e-11
4.32831825534e-05
-6.9916037337e-11
4.32833427879e-05
-2.39986602715e-10
4.32835801235e-05
-5.04078995942e-10
4.32840207378e-05
-1.04416390579e-09
4.32847879104e-05
-1.79868041286e-09
4.32860369741e-05
-2.94027048239e-09
4.32879751811e-05
-4.69140442425e-09
4.32909521436e-05
-7.40268787672e-09
4.32955273026e-05
-1.1629512235e-08
4.33025791526e-05
-1.82470866176e-08
4.33134897576e-05
-2.86642170701e-08
4.33304171218e-05
-4.51834232544e-08
4.33566708064e-05
-7.16135673998e-08
4.33978219745e-05
-1.14325024001e-07
4.34627232493e-05
-1.84355229185e-07
4.35651012079e-05
-3.01359769992e-07
4.37249143876e-05
-5.00889630529e-07
4.39667648634e-05
-8.47196448834e-07
4.43073236904e-05
-1.45062532797e-06
4.47078868655e-05
-2.48441942569e-06
4.49274985354e-05
-4.19384398057e-06
-6.58112897224e-06
4.43985564968e-05
5.27351381346e-05
6.17347478363e-06
5.57309348325e-05
1.28850782047e-05
5.73114748813e-05
1.46955948536e-05
5.76109926037e-05
1.37529719919e-05
5.71335236717e-05
1.1634682256e-05
5.63194694201e-05
9.26506549753e-06
5.54489895474e-05
7.09364763922e-06
5.46629793009e-05
5.28287590878e-06
5.40136840643e-05
3.85198567863e-06
5.35061530631e-05
2.7599285369e-06
5.31242574829e-05
1.94680947538e-06
5.28449882904e-05
1.35287905398e-06
5.26454424106e-05
9.26021590539e-07
5.25057185424e-05
6.23727307136e-07
5.24097241623e-05
4.12677242404e-07
5.23450185442e-05
2.67450769573e-07
5.23022811168e-05
1.69042105241e-07
5.22746943441e-05
1.03476683238e-07
5.22573701724e-05
6.06304388039e-08
5.22468618287e-05
3.32678963814e-08
5.22407624185e-05
1.62910041201e-08
5.22374537669e-05
6.1831926944e-09
5.2235955241e-05
5.15917834197e-10
5.22354473552e-05
-2.42307114315e-09
5.22355123028e-05
-3.68574275804e-09
5.22358577048e-05
-3.98247855423e-09
5.2236311845e-05
-3.76248588166e-09
5.22367780903e-05
-3.30022296534e-09
5.22372053463e-05
-2.75633693675e-09
5.22375708859e-05
-2.22090587381e-09
5.22378680124e-05
-1.73870925319e-09
5.22380995231e-05
-1.32781502258e-09
5.22382757034e-05
-9.91107976709e-10
5.22384084628e-05
-7.2396120019e-10
5.22385086944e-05
-5.1380878938e-10
5.22385931652e-05
-3.52980165073e-10
5.2238658574e-05
-2.34634913119e-10
5.2238700763e-05
-1.50380899183e-10
5.22387334181e-05
-9.22417464569e-11
5.22387487366e-05
-3.73310716823e-11
5.22387538773e-05
8.45418761075e-14
5.22387514134e-05
2.82008324058e-11
5.22387432997e-05
4.93356442881e-11
5.22387308682e-05
6.5858690013e-11
5.22387149824e-05
7.97326944583e-11
5.22386962132e-05
9.21088784764e-11
5.22386750625e-05
1.03589176246e-10
5.22386522775e-05
1.14269914316e-10
5.22386285056e-05
1.24474433851e-10
5.22386020981e-05
1.36536603844e-10
5.22385747126e-05
1.4683523594e-10
5.22385474418e-05
1.55334338626e-10
5.22385218261e-05
1.60567795555e-10
5.22385003666e-05
1.59964897801e-10
5.22384880854e-05
1.48460654946e-10
5.22384958271e-05
1.16100436937e-10
5.22385252053e-05
6.47332429812e-11
5.22385988594e-05
-3.84659147888e-11
5.22387169161e-05
-1.8842258368e-10
5.22389075775e-05
-4.31132006088e-10
5.22392427616e-05
-8.39768946887e-10
5.22397558302e-05
-1.55771402869e-09
5.22405234886e-05
-2.56676770849e-09
5.22416779954e-05
-4.09514350547e-09
5.22434224169e-05
-6.43612380617e-09
5.2246057936e-05
-1.00384229015e-08
5.22500362767e-05
-1.56079665829e-08
5.22560483278e-05
-2.42591765658e-08
5.22651526973e-05
-3.77685760303e-08
5.2278966784e-05
-5.89974298076e-08
5.22999488982e-05
-9.2595470682e-08
5.23318156019e-05
-1.46191399089e-07
5.2379912128e-05
-2.32451381665e-07
5.24511681163e-05
-3.72615402651e-07
5.2552453035e-05
-6.02174200284e-07
5.26843202292e-05
-9.7906325997e-07
5.28245521241e-05
-1.59085732196e-06
5.28916629756e-05
-2.55152981319e-06
5.26731553205e-05
-3.97533524367e-06
-5.77214659271e-06
5.18641718134e-05
5.19834865997e-05
4.18998830482e-06
5.50586643516e-05
9.80990068387e-06
5.76386137949e-05
1.21156456065e-05
5.93259039502e-05
1.20656820369e-05
6.02280161895e-05
1.07325702143e-05
6.05929275768e-05
8.90015430819e-06
6.06482846927e-05
7.03829071678e-06
6.05531904241e-05
5.37797037e-06
6.0402956033e-05
4.00222025903e-06
6.02479157039e-05
2.91496905233e-06
6.0110790346e-05
2.08393501482e-06
5.99990309901e-05
1.46463858532e-06
5.99125159762e-05
1.01253677106e-06
5.98479242426e-05
6.88319207239e-07
5.98010208284e-05
4.59580820685e-07
5.97677363262e-05
3.0073543984e-07
5.97445951118e-05
1.92183481699e-07
5.97288167003e-05
1.19255251225e-07
5.97182686796e-05
7.11786133498e-08
5.97113626135e-05
4.01741163178e-08
5.97069433864e-05
2.07103797205e-08
5.9704209607e-05
8.9171111905e-09
5.97026006837e-05
2.12497200669e-09
5.97016962488e-05
-1.51851082801e-09
5.9701238038e-05
-3.227412963e-09
5.97010485849e-05
-3.79291748267e-09
5.97010123541e-05
-3.72615939539e-09
5.97010566863e-05
-3.34447130251e-09
5.97011378625e-05
-2.83743660994e-09
5.97012302101e-05
-2.31318752782e-09
5.97013198512e-05
-1.82829754512e-09
5.97014001775e-05
-1.40809411821e-09
5.97014697631e-05
-1.06065670246e-09
5.97015292096e-05
-7.83382421148e-10
5.97015793175e-05
-5.63909970166e-10
5.97016189831e-05
-3.92649168735e-10
5.97016466471e-05
-2.62309827924e-10
5.97016618334e-05
-1.65582103679e-10
5.97016600982e-05
-9.05228496367e-11
5.97016519815e-05
-2.92353130978e-11
5.9701645325e-05
6.71093979388e-12
5.97016360147e-05
3.74696016233e-11
5.97016255581e-05
5.97387885961e-11
5.97016139017e-05
7.74537921499e-11
5.97015999838e-05
9.35781018471e-11
5.97015836463e-05
1.08370684521e-10
5.97015649348e-05
1.2222684995e-10
5.97015437629e-05
1.35355120775e-10
5.97015203839e-05
1.47741589355e-10
5.97014976959e-05
1.59089775343e-10
5.97014757065e-05
1.68675244907e-10
5.9701455661e-05
1.75206654662e-10
5.97014392346e-05
1.76778423012e-10
5.97014280704e-05
1.70862157202e-10
5.97014216647e-05
1.54531590313e-10
5.97014117882e-05
1.25574946496e-10
5.97014148485e-05
6.12284439363e-11
5.97014257881e-05
-4.98635995616e-11
5.97015043208e-05
-2.67405608898e-10
5.9701689355e-05
-6.16646399123e-10
5.97019857366e-05
-1.13664877689e-09
5.97023682781e-05
-1.94071806393e-09
5.97029410393e-05
-3.13992734874e-09
5.97037865543e-05
-4.94101653825e-09
5.97050185018e-05
-7.66838977386e-09
5.97068015874e-05
-1.18217441194e-08
5.97093735174e-05
-1.81799975745e-08
5.97130777244e-05
-2.79633764061e-08
5.9718403151e-05
-4.30939699976e-08
5.97260297938e-05
-6.66240210942e-08
5.97368586086e-05
-1.03424140985e-07
5.97519509946e-05
-1.6128352871e-07
5.97721432045e-05
-2.52643311678e-07
5.97968423297e-05
-3.97314259407e-07
5.98208900587e-05
-6.26221609068e-07
5.98274074531e-05
-9.85580389116e-07
5.97743438998e-05
-1.53779369542e-06
5.95737522284e-05
-2.35093812826e-06
5.90677465585e-05
-3.46932878074e-06
-4.80037672966e-06
5.80959761493e-05
5.14373055002e-05
2.75268292578e-06
5.42658209446e-05
6.98138546789e-06
5.72496438077e-05
9.13182294066e-06
5.9790028353e-05
9.5252976903e-06
6.17201290259e-05
8.80246973734e-06
6.3088304152e-05
7.53197938067e-06
6.40167178843e-05
6.10987717708e-06
6.46292378552e-05
4.76545059237e-06
6.5025804986e-05
3.60565332096e-06
6.52790797299e-05
2.66169449524e-06
6.54389749449e-05
1.9240399825e-06
6.55386919397e-05
1.36492176576e-06
6.5599930643e-05
9.51298234138e-07
6.56367456294e-05
6.51504383186e-07
6.56581969064e-05
4.38129706966e-07
6.56701053138e-05
2.88827198888e-07
6.56761947432e-05
1.86094217793e-07
6.56788312458e-05
1.16618907578e-07
6.56795018838e-05
7.05081287129e-08
6.56791258822e-05
4.05502685359e-08
6.56782586914e-05
2.15777163132e-08
6.56772279783e-05
9.94796488333e-09
6.56762189279e-05
3.13415743097e-09
6.56753098347e-05
-6.09291877104e-10
6.56745413191e-05
-2.45878307958e-09
6.56739131284e-05
-3.16462235554e-09
6.56734143861e-05
-3.22732127298e-09
6.56730276264e-05
-2.95762556751e-09
6.56727338603e-05
-2.54359666636e-09
6.56725149202e-05
-2.09418567275e-09
6.56723546953e-05
-1.66802312961e-09
6.56722395189e-05
-1.29287536055e-09
6.56721572521e-05
-9.78358146651e-10
6.56720972768e-05
-7.23386046362e-10
6.56720538184e-05
-5.20441638739e-10
6.5672022647e-05
-3.61479177986e-10
6.56719976388e-05
-2.37312173251e-10
6.56719761202e-05
-1.4408154784e-10
6.56719611922e-05
-7.56178315042e-11
6.56719594711e-05
-2.75405492473e-11
6.5671957944e-05
8.20200646094e-12
6.56719505718e-05
4.47948277903e-11
6.56719404496e-05
6.98021424367e-11
6.56719278871e-05
8.9946931042e-11
6.56719137608e-05
1.07630686799e-10
6.56718980893e-05
1.23969595881e-10
6.56718807098e-05
1.39528264438e-10
6.5671861542e-05
1.54430893432e-10
6.56718411667e-05
1.68008127632e-10
6.5671821565e-05
1.78569360845e-10
6.56718016043e-05
1.8848636654e-10
6.56717818091e-05
1.94804242875e-10
6.56717632925e-05
1.95055066546e-10
6.56717479215e-05
1.85957595072e-10
6.56717393021e-05
1.62832175644e-10
6.56717448558e-05
1.19636066032e-10
6.5671751665e-05
5.39733186862e-11
6.56717799439e-05
-7.86102106847e-11
6.56718466278e-05
-3.34568708735e-10
6.56719417942e-05
-7.1229378869e-10
6.56720885938e-05
-1.28393998085e-09
6.56722937117e-05
-2.14630068011e-09
6.56725734652e-05
-3.42007599074e-09
6.56729442633e-05
-5.31215350035e-09
6.56734167864e-05
-8.14121720962e-09
6.56739883299e-05
-1.23935343419e-08
6.56746284539e-05
-1.88202492135e-08
6.56752509561e-05
-2.85858767834e-08
6.56756539308e-05
-4.34968860127e-08
6.56754088477e-05
-6.63788906252e-08
6.56736459742e-05
-1.01661205329e-07
6.56686293934e-05
-1.56266823441e-07
6.56568220189e-05
-2.40835808289e-07
6.56310918543e-05
-3.71583938821e-07
6.55772829271e-05
-5.72412334767e-07
6.54681535788e-05
-8.76450834006e-07
6.52545216068e-05
-1.32416150312e-06
6.48563124126e-05
-1.95272903773e-06
6.41610054418e-05
-2.77402127326e-06
-3.71767824233e-06
6.30783066987e-05
5.108504249e-05
1.66764055541e-06
5.36118449258e-05
4.45458325681e-06
5.66873170516e-05
6.0563510139e-06
5.96894472665e-05
6.52316767519e-06
6.22997280714e-05
6.19218912401e-06
6.44136898338e-05
5.41801781321e-06
6.60471861751e-05
4.4763810274e-06
6.72686179282e-05
3.54401903235e-06
6.8159897183e-05
2.71437425761e-06
6.87977640115e-05
2.02382785012e-06
6.92467486356e-05
1.47505553618e-06
6.95579677336e-05
1.0537028383e-06
6.97704346984e-05
7.38831444099e-07
6.99131780799e-05
5.087611751e-07
7.00073895414e-05
3.43918411252e-07
7.00682994963e-05
2.27917405703e-07
7.01067019528e-05
1.4769192516e-07
7.01301447049e-05
9.31763180856e-08
7.01438342846e-05
5.68187045617e-08
7.01513108382e-05
3.30738617036e-08
7.01549437598e-05
1.79449346012e-08
7.01562919749e-05
8.59988810602e-09
7.01563642873e-05
3.06198351181e-09
7.01557726474e-05
-1.75231217945e-11
7.01549121583e-05
-1.59817666186e-09
7.01539889161e-05
-2.24126990821e-09
7.01531206281e-05
-2.35893071083e-09
7.01523609545e-05
-2.1978542626e-09
7.01517271016e-05
-1.90965558216e-09
7.01512162067e-05
-1.5832244122e-09
7.01508153467e-05
-1.2671089562e-09
7.0150507571e-05
-9.85054892185e-10
7.01502752406e-05
-7.45993384107e-10
7.0150102189e-05
-5.50312448089e-10
7.0149975423e-05
-3.93662926698e-10
7.01498842954e-05
-2.70346119121e-10
7.01498217103e-05
-1.74728472169e-10
7.0149780209e-05
-1.02590432807e-10
7.01497517169e-05
-4.71434963371e-11
7.0149721781e-05
2.36554405821e-12
7.01496984394e-05
3.15082327418e-11
7.01496854665e-05
5.77243907125e-11
7.0149674988e-05
8.02253977023e-11
7.01496650943e-05
9.97786288641e-11
7.01496550381e-05
1.17626293288e-10
7.01496444396e-05
1.34505730737e-10
7.01496331476e-05
1.50740835242e-10
7.0149621188e-05
1.66288415517e-10
7.01496083171e-05
1.80766171717e-10
7.01495932041e-05
1.93561391558e-10
7.01495777868e-05
2.03755080354e-10
7.01495628261e-05
2.09566271472e-10
7.01495490742e-05
2.08558234445e-10
7.01495371483e-05
1.9759669997e-10
7.01495267051e-05
1.7295715828e-10
7.01495152261e-05
1.30735971193e-10
7.01495047067e-05
6.4067408318e-11
7.01494952829e-05
-6.96716633786e-11
7.01495020928e-05
-3.41877711218e-10
7.01495217953e-05
-7.32477138289e-10
7.0149541639e-05
-1.30424770109e-09
7.01495395434e-05
-2.14466149266e-09
7.01494883981e-05
-3.36934786011e-09
7.01493347378e-05
-5.15882158924e-09
7.01489793049e-05
-7.78602186889e-09
7.01482464329e-05
-1.16608382438e-08
7.01468341954e-05
-1.74081209102e-08
7.01442301493e-05
-2.59818450301e-08
7.01395585463e-05
-3.88252070593e-08
7.01313366184e-05
-5.81568295953e-08
7.01170743962e-05
-8.73988207579e-08
7.00926130831e-05
-1.31805346625e-07
7.00508576496e-05
-1.99080213091e-07
6.99798278346e-05
-3.00553917308e-07
6.98595482118e-05
-4.52132293091e-07
6.96575584031e-05
-6.74460706373e-07
6.93239201853e-05
-9.90522786245e-07
6.87890424886e-05
-1.41785128526e-06
6.79702714107e-05
-1.95524971573e-06
-2.5568256687e-06
6.68094188181e-05
5.08804133237e-05
7.87227351807e-07
5.31704665498e-05
2.16453025465e-06
5.62177503131e-05
3.00906744962e-06
5.94382705205e-05
3.30264766942e-06
6.24449705288e-05
3.18548930933e-06
6.50382541366e-05
2.8247344012e-06
6.71548678881e-05
2.35976746705e-06
6.88135665607e-05
1.88532055142e-06
7.00731727376e-05
1.45476827191e-06
7.10056698701e-05
1.0913309025e-06
7.16812663291e-05
7.99459257484e-07
7.21614258504e-05
5.73543489686e-07
7.24966069437e-05
4.03650520229e-07
7.27264836694e-05
2.78884623156e-07
7.28812827432e-05
1.89119508703e-07
7.29834726728e-05
1.25727637789e-07
7.30494166362e-05
8.17481220418e-08
7.30908189314e-05
5.17741839071e-08
7.31159130641e-05
3.17247264082e-08
7.31303977685e-05
1.85893039271e-08
7.31381526702e-05
1.01901728332e-08
7.31417732865e-05
4.97940926498e-09
7.3142961168e-05
1.87424131833e-09
7.31428149514e-05
1.28825389394e-10
7.31419918759e-05
-7.74980724561e-10
7.31409091203e-05
-1.15839879247e-09
7.31397943888e-05
-1.24409849523e-09
7.31387670882e-05
-1.17046455203e-09
7.3137879679e-05
-1.02216387152e-09
7.31371460649e-05
-8.49543987615e-10
7.3136558867e-05
-6.79858093263e-10
7.31361006984e-05
-5.26846806955e-10
7.31357506894e-05
-3.95958112202e-10
7.31354882148e-05
-2.87818264807e-10
7.31352949325e-05
-2.00368164653e-10
7.31351552126e-05
-1.3062287484e-10
7.31350558043e-05
-7.5323323836e-11
7.31349841793e-05
-3.09739950493e-11
7.31349310297e-05
5.98752466002e-12
7.31349012624e-05
3.20985331628e-11
7.31348781178e-05
5.46078776987e-11
7.31348612852e-05
7.45093082361e-11
7.31348488839e-05
9.2573170209e-11
7.31348391077e-05
1.09490864454e-10
7.31348306921e-05
1.25973984305e-10
7.31348227532e-05
1.42377340503e-10
7.31348146631e-05
1.58748894414e-10
7.31348059873e-05
1.7486315647e-10
7.31347964654e-05
1.90176064395e-10
7.31347860535e-05
2.0384971137e-10
7.31347747956e-05
2.14869921537e-10
7.31347627476e-05
2.21440298382e-10
7.31347500069e-05
2.21069703117e-10
7.31347367712e-05
2.10538727866e-10
7.31347235332e-05
1.85843866982e-10
7.31347112857e-05
1.42609267609e-10
7.31346962921e-05
7.86479783742e-11
7.31346714624e-05
-4.53073251471e-11
7.31346282428e-05
-2.99182000209e-10
7.31345600869e-05
-6.6483097882e-10
7.31344435737e-05
-1.18818698001e-09
7.31342352563e-05
-1.93676231019e-09
7.3133866834e-05
-3.00133457028e-09
7.31332231492e-05
-4.51549750324e-09
7.31321109294e-05
-6.67404935163e-09
7.31302077174e-05
-9.75775809546e-09
7.31269860864e-05
-1.41865672668e-08
7.31215897245e-05
-2.05855381534e-08
7.31126035654e-05
-2.9839067175e-08
7.30977209179e-05
-4.32741268013e-08
7.30732335251e-05
-6.29112899842e-08
7.30332368701e-05
-9.1808531252e-08
7.29682077581e-05
-1.34050860643e-07
7.28631154939e-05
-1.9546132239e-07
7.26947729033e-05
-2.83789174097e-07
7.24286454178e-05
-4.08332918763e-07
7.20163185186e-05
-5.78195284586e-07
7.13965114294e-05
-7.98043974521e-07
7.05035492674e-05
-1.06228716428e-06
-1.3459073932e-06
6.9292631127e-05
5.07871727319e-05
5.47421427254e-11
5.29516502277e-05
5.29839244596e-11
5.59606890481e-05
2.88275532181e-11
5.92633227032e-05
1.4214303976e-11
6.24488094302e-05
2.77769609875e-12
6.52735501136e-05
-6.08118916522e-12
6.7633329756e-05
-1.19810173259e-11
6.95186654194e-05
-1.49227114601e-11
7.09734492328e-05
-1.53521875867e-11
7.20647941877e-05
-1.38690569352e-11
7.28642647274e-05
-1.1103708874e-11
7.34378161052e-05
-7.71073173754e-12
7.38414711414e-05
-4.34612016836e-12
7.41203575874e-05
-1.65280996765e-12
7.43094774936e-05
-2.25230187528e-13
7.44352057559e-05
-4.58424025296e-13
7.45169566483e-05
-2.61025745388e-12
7.45687374212e-05
-6.43367081692e-12
7.46004735885e-05
-1.12913080837e-11
7.46190792398e-05
-1.62003097433e-11
7.46292895881e-05
-2.00301689954e-11
7.46342908207e-05
-2.16833349434e-11
7.46361858952e-05
-2.06964083754e-11
7.46363332019e-05
-1.83531683989e-11
7.46355741614e-05
-1.58239087926e-11
7.46344285517e-05
-1.26724686257e-11
7.46331936274e-05
-9.07335080756e-12
7.46320283345e-05
-5.0900608711e-12
7.46310064824e-05
-2.3193259989e-13
7.46301531534e-05
3.85022409845e-12
7.46294648301e-05
8.51552922472e-12
7.4628924525e-05
1.34973930815e-11
7.46285098371e-05
1.87584388396e-11
7.46281976804e-05
2.43594449609e-11
7.46279668448e-05
3.04789665052e-11
7.46277989831e-05
3.72394557758e-11
7.46276789322e-05
4.47253322744e-11
7.46275950343e-05
5.29150629275e-11
7.46275391629e-05
6.18358359028e-11
7.46275001049e-05
7.11205794641e-11
7.46274739263e-05
8.07440548014e-11
7.46274567755e-05
9.16166073246e-11
7.46274456608e-05
1.03638727685e-10
7.46274383473e-05
1.16743428264e-10
7.46274332981e-05
1.3095294492e-10
7.46274294438e-05
1.46156275801e-10
7.46274260259e-05
1.62080133208e-10
7.46274225053e-05
1.78282831404e-10
7.46274184522e-05
1.94108655372e-10
7.46274135054e-05
2.08649793446e-10
7.46274074772e-05
2.20731247339e-10
7.46274001528e-05
2.28584404832e-10
7.46273911516e-05
2.29860799283e-10
7.46273797907e-05
2.21623151189e-10
7.46273649143e-05
2.0038161368e-10
7.46273448004e-05
1.62325842978e-10
7.46273185399e-05
1.04484058038e-10
7.46272733824e-05
-6.17049713457e-13
7.46271841876e-05
-2.10500921475e-10
7.46270472804e-05
-5.28464168568e-10
7.4626823384e-05
-9.64759337226e-10
7.46264515617e-05
-1.56532646939e-09
7.46258352338e-05
-2.38536215336e-09
7.46248174476e-05
-3.49805258917e-09
7.46231429574e-05
-4.99982925565e-09
7.46203943442e-05
-7.00928451071e-09
7.46159058212e-05
-9.69809193433e-09
7.46086181789e-05
-1.32979423335e-08
7.45967916478e-05
-1.80126049226e-08
7.45776234954e-05
-2.41059532452e-08
7.45466999597e-05
-3.19875837801e-08
7.44972817748e-05
-4.23902088935e-08
7.44186223845e-05
-5.53912680302e-08
7.42943127866e-05
-7.11513961681e-08
7.40999554747e-05
-8.94312492902e-08
7.38007016626e-05
-1.09078803533e-07
7.33498398825e-05
-1.27332990017e-07
7.26908180525e-05
-1.39021855469e-07
7.17654876319e-05
-1.36956453042e-07
-1.1263526073e-07
7.05322156943e-05
5.07871716966e-05
-7.87116831206e-07