/*--------------------------------*- C++ -*----------------------------------*\
| =========                 |                                                 |
| \\      /  F ield         | OpenFOAM: The Open Source CFD Toolbox           |
|  \\    /   O peration     | Version:  2106                                  |
|   \\  /    A nd           | Website:  www.openfoam.com                      |
|    \\/     M anipulation  |                                                 |
\*---------------------------------------------------------------------------*/
FoamFile
{
    version     2.0;
    format      ascii;
    arch        "LSB;label=32;scalar=64";
    class       volVectorField;
    location    "0.2";
    object      U;
}
// * * * * * * * * * * * * * * * * * * * * * * * * * * * * * * * * * * * * * //

dimensions      [0 1 -1 0 0 0 0];

internalField   nonuniform List<vector> 
11200
(
(0.662462404775 0.150569442568 0)
(0.5589486779 0.103243388848 0)
(0.383850746887 0.0513512248474 0)
(0.283747609657 0.0248708558653 0)
(0.232075289669 0.0124170457332 0)
(0.201908611756 0.00662281724039 0)
(0.183197963471 0.00380291474532 0)
(0.171276524356 0.00231587033606 0)
(0.163510346889 0.0014645067914 0)
(0.158388814517 0.000944892630446 0)
(0.155006679625 0.000615177094052 0)
(0.152786727869 0.000402233998103 0)
(0.151346580473 0.000264232399703 0)
(0.150428345718 0.000175250310154 0)
(0.149856743326 0.000118360789664 0)
(0.149512543522 8.21600204604e-05 0)
(0.14931498412 5.886582285e-05 0)
(0.14920962275 4.3315496241e-05 0)
(0.149159763264 3.29344137715e-05 0)
(0.149142522234 2.81860818007e-05 0)
(0.149144675357 2.76841440925e-05 0)
(0.149156947001 2.98898011566e-05 0)
(0.149172563534 3.30502094016e-05 0)
(0.149188105159 3.59658387763e-05 0)
(0.149202307522 3.86013688549e-05 0)
(0.149214570745 4.10404672584e-05 0)
(0.149224727161 4.33177832765e-05 0)
(0.149232883618 4.5464449573e-05 0)
(0.149239276773 4.75197134047e-05 0)
(0.14924418862 4.95306142659e-05 0)
(0.149247904206 5.15591812536e-05 0)
(0.149250690893 5.36964457827e-05 0)
(0.149252745689 5.60250395839e-05 0)
(0.149254238756 5.84064733964e-05 0)
(0.14925530265 6.07675970944e-05 0)
(0.149256023892 6.30887713558e-05 0)
(0.149256499365 6.53802655747e-05 0)
(0.149256812739 6.76549814692e-05 0)
(0.149257017708 6.99245331581e-05 0)
(0.149257143462 7.21950585931e-05 0)
(0.149257210949 7.44676358166e-05 0)
(0.149257237466 7.67432228081e-05 0)
(0.149257235228 7.90215088519e-05 0)
(0.149257213044 8.13013759268e-05 0)
(0.149257177142 8.35811084025e-05 0)
(0.149257132073 8.58583634043e-05 0)
(0.149257081714 8.8130332184e-05 0)
(0.149257029946 9.03939304945e-05 0)
(0.149256980974 9.26460676928e-05 0)
(0.149256939801 9.48836947206e-05 0)
(0.149256913313 9.71037917227e-05 0)
(0.149256911096 9.93034975569e-05 0)
(0.149256946153 0.000101479853519 0)
(0.14925703637 0.000103629547266 0)
(0.149257206887 0.000105748458042 0)
(0.149257493596 0.000107831117853 0)
(0.149257946764 0.000109870826042 0)
(0.149258639603 0.000111857963422 0)
(0.149259680598 0.000113779547938 0)
(0.149261227266 0.000115611388625 0)
(0.149263519678 0.000117299567212 0)
(0.149266966156 0.000118755492792 0)
(0.149272044706 0.000120016028218 0)
(0.149279397429 0.000121269741587 0)
(0.149290053406 0.000122972492743 0)
(0.149305532568 0.000125336617911 0)
(0.149328218903 0.000128119687136 0)
(0.14936181239 0.000131089178296 0)
(0.149411913791 0.000134026380639 0)
(0.149486767384 0.000136816280951 0)
(0.149598333634 0.000140738271104 0)
(0.149769489827 0.000151627765052 0)
(0.150038074132 0.000172404684263 0)
(0.15046734574 0.00020272642811 0)
(0.151193287931 0.000232735313457 0)
(0.152493981225 0.000191896398921 0)
(0.155026431279 -0.000217410153095 0)
(0.162387409604 -0.00211525280053 0)
(0.187750911404 -0.0108152771221 0)
(0.204552408495 -0.0498085525944 0)
(0.965408255644 0.289214706847 0)
(0.961962864383 0.252656040842 0)
(0.82357440054 0.159021442743 0)
(0.698139380442 0.0959957323645 0)
(0.610225478015 0.0582481152119 0)
(0.548971508173 0.0362148541483 0)
(0.506588907068 0.0231612859883 0)
(0.477567288284 0.0151375161065 0)
(0.457745511708 0.0100177559125 0)
(0.444228481016 0.0066581419303 0)
(0.435053319031 0.00441555702748 0)
(0.428873138608 0.00290686659207 0)
(0.424754222093 0.00189105912428 0)
(0.422046671688 0.00121004598206 0)
(0.420297833961 0.000757163970215 0)
(0.419193224178 0.000459256295181 0)
(0.418515618289 0.000265855056882 0)
(0.418116470648 0.000142399770266 0)
(0.417895866425 6.61097140764e-05 0)
(0.417786814675 2.30924345435e-05 0)
(0.417745399126 1.40773644716e-06 0)
(0.417742121103 -1.01627493454e-05 0)
(0.417756718665 -1.37141941233e-05 0)
(0.417778677311 -1.32676974121e-05 0)
(0.417802971859 -1.08355425227e-05 0)
(0.417826343088 -7.49254645365e-06 0)
(0.417847097702 -3.87624434478e-06 0)
(0.417864637018 -3.56736270095e-07 0)
(0.417878964898 2.86448960089e-06 0)
(0.417890396716 5.68354088678e-06 0)
(0.417899404276 8.03612146223e-06 0)
(0.417906480872 9.83781876391e-06 0)
(0.417911828406 1.10066453254e-05 0)
(0.417915680872 1.18591708205e-05 0)
(0.41791841598 1.26811349317e-05 0)
(0.417920308671 1.34380161424e-05 0)
(0.417921601198 1.41119668281e-05 0)
(0.417922484851 1.47271843881e-05 0)
(0.417923085879 1.53126799359e-05 0)
(0.417923475839 1.58820707352e-05 0)
(0.417923707386 1.64357301096e-05 0)
(0.417923823869 1.69787347732e-05 0)
(0.417923855974 1.75147416061e-05 0)
(0.417923826166 1.80471500192e-05 0)
(0.417923750529 1.85791515839e-05 0)
(0.41792364096 1.91131563938e-05 0)
(0.417923507627 1.96511761666e-05 0)
(0.41792336073 2.0195227106e-05 0)
(0.417923211414 2.0747586685e-05 0)
(0.417923072908 2.13097616321e-05 0)
(0.417922963071 2.18820039069e-05 0)
(0.417922906391 2.24645699506e-05 0)
(0.417922935993 2.30574545533e-05 0)
(0.41792309735 2.36601605177e-05 0)
(0.417923454181 2.42716428329e-05 0)
(0.417924097909 2.48905279604e-05 0)
(0.417925157731 2.55157191671e-05 0)
(0.417926822221 2.61362665923e-05 0)
(0.417929366369 2.6732801663e-05 0)
(0.417933178341 2.72753331895e-05 0)
(0.417938843782 2.77208029836e-05 0)
(0.417947456658 2.8004220709e-05 0)
(0.417960520385 2.82836144676e-05 0)
(0.417980161804 2.7864953745e-05 0)
(0.418009167749 2.53272280016e-05 0)
(0.418051144859 1.95426293182e-05 0)
(0.418112252451 9.70815911267e-06 0)
(0.418202622341 -5.70487626137e-06 0)
(0.418337886792 -2.92250143293e-05 0)
(0.418542994339 -6.45445294391e-05 0)
(0.418859939363 -0.000115873859703 0)
(0.419358489858 -0.000188210952805 0)
(0.420152405189 -0.000308325550696 0)
(0.421445878545 -0.000533934788111 0)
(0.423631588096 -0.00100219071665 0)
(0.427430337846 -0.00209573207672 0)
(0.434268750246 -0.00486901242597 0)
(0.448331814876 -0.0122871771555 0)
(0.474793378486 -0.0343363292273 0)
(0.478484641236 -0.0990742826739 0)
(1.02222096678 0.238416187291 0)
(1.08213753516 0.295926653197 0)
(1.03447723654 0.239503067086 0)
(0.954615423311 0.174290165117 0)
(0.879992073528 0.121345468995 0)
(0.818614457104 0.0830993846224 0)
(0.771410875591 0.0567316675642 0)
(0.736634419205 0.0387409689403 0)
(0.711624464708 0.0264327873973 0)
(0.693916656575 0.0179731050817 0)
(0.681541450505 0.0121424483311 0)
(0.673000161549 0.00812490860101 0)
(0.667180699653 0.00536632149186 0)
(0.663271732433 0.00348444528615 0)
(0.660688563472 0.00221256215642 0)
(0.659014240876 0.00136338258388 0)
(0.65795456116 0.000805244685146 0)
(0.657304268938 0.000445917610724 0)
(0.65692185061 0.000221069512829 0)
(0.656710284931 8.55821148592e-05 0)
(0.65660342021 8.35877851541e-06 0)
(0.656561870433 -3.37185750332e-05 0)
(0.656557968731 -5.68528855429e-05 0)
(0.65657144292 -6.68721014927e-05 0)
(0.656592970879 -6.84797264445e-05 0)
(0.656616789131 -6.55585288101e-05 0)
(0.656639590477 -6.05478150888e-05 0)
(0.656659768136 -5.48582713598e-05 0)
(0.656676736889 -4.92744019169e-05 0)
(0.656690474575 -4.42031927867e-05 0)
(0.656701227568 -3.9839503517e-05 0)
(0.656709380128 -3.63018054482e-05 0)
(0.656715628121 -3.36958527684e-05 0)
(0.656720661791 -3.18572348754e-05 0)
(0.656724524617 -3.08108280629e-05 0)
(0.6567272317 -3.03038495697e-05 0)
(0.656729094749 -3.02482048877e-05 0)
(0.656730393137 -3.05589532021e-05 0)
(0.656731294246 -3.10862954028e-05 0)
(0.656731887862 -3.1747749674e-05 0)
(0.656732248186 -3.25138221521e-05 0)
(0.656732440443 -3.33494367086e-05 0)
(0.656732509759 -3.4230090438e-05 0)
(0.656732490056 -3.51364044666e-05 0)
(0.656732405768 -3.60529318627e-05 0)
(0.656732275122 -3.69689387021e-05 0)
(0.656732113943 -3.78769656133e-05 0)
(0.656731937905 -3.87715312608e-05 0)
(0.656731762951 -3.96473715534e-05 0)
(0.656731606728 -4.04995332415e-05 0)
(0.656731493845 -4.13238581687e-05 0)
(0.656731459247 -4.21162618851e-05 0)
(0.656731550673 -4.28748783881e-05 0)
(0.656731834529 -4.36020061948e-05 0)
(0.65673240514 -4.43090040048e-05 0)
(0.656733398515 -4.50250751839e-05 0)
(0.656735000621 -4.5801838966e-05 0)
(0.656737480134 -4.67334537667e-05 0)
(0.656741241093 -4.79500422635e-05 0)
(0.656746882792 -4.96601217687e-05 0)
(0.656755309023 -5.23493425027e-05 0)
(0.656768161342 -5.7101360994e-05 0)
(0.656786828527 -6.46584222697e-05 0)
(0.656812736454 -7.592945932e-05 0)
(0.656849635817 -9.25787014177e-05 0)
(0.656904240015 -0.000117035825262 0)
(0.656985979538 -0.000152503435589 0)
(0.657108664203 -0.000204277921115 0)
(0.657294145665 -0.000280906793127 0)
(0.657577896158 -0.00039631623815 0)
(0.658018195554 -0.00057494517862 0)
(0.658704506136 -0.000864212903743 0)
(0.659784360115 -0.00135447775206 0)
(0.661516173154 -0.00221939718254 0)
(0.664343720608 -0.00382262703042 0)
(0.66896574411 -0.00696545933327 0)
(0.67641354669 -0.0133924925975 0)
(0.688704375853 -0.0269292854199 0)
(0.705412677539 -0.0565119181749 0)
(0.70079286985 -0.113529027023 0)
(1.02251475591 0.170807152649 0)
(1.10138976257 0.276496478918 0)
(1.11752427098 0.266664799581 0)
(1.0921466192 0.219901699246 0)
(1.05187817313 0.168168847758 0)
(1.01020824437 0.123567396625 0)
(0.973494713066 0.0888375213396 0)
(0.943864580176 0.0630063712421 0)
(0.921142825427 0.0442232037526 0)
(0.904284100153 0.0307423924335 0)
(0.892074897879 0.0211562938943 0)
(0.883404541494 0.0143954684461 0)
(0.877352703347 0.00966794832237 0)
(0.873197742314 0.00639383754368 0)
(0.870392967291 0.00415116541066 0)
(0.868534079964 0.00263449167987 0)
(0.867327684128 0.00162401825815 0)
(0.866564281598 0.000962676901134 0)
(0.866096524404 0.000539123297628 0)
(0.86582228209 0.000275154508483 0)
(0.865671438168 0.000117069371359 0)
(0.865595187436 2.87935047004e-05 0)
(0.865564129043 -1.93235660992e-05 0)
(0.865561320515 -4.12599531096e-05 0)
(0.865572664189 -4.76642284233e-05 0)
(0.865589670536 -4.5523852395e-05 0)
(0.865607980617 -3.91546258776e-05 0)
(0.865625320535 -3.11440503516e-05 0)
(0.865640606465 -2.29632528752e-05 0)
(0.865653471349 -1.53798472379e-05 0)
(0.865663946718 -8.72249162514e-06 0)
(0.865672236068 -3.04379170488e-06 0)
(0.865678591752 1.73467405881e-06 0)
(0.865683221377 5.46594021759e-06 0)
(0.865686542864 8.03310795063e-06 0)
(0.865688943446 9.79023166818e-06 0)
(0.865690577484 1.11437217092e-05 0)
(0.865691741121 1.22886286966e-05 0)
(0.865692610246 1.32576634087e-05 0)
(0.865693203226 1.41446147882e-05 0)
(0.865693568038 1.49406196912e-05 0)
(0.865693769015 1.56683476317e-05 0)
(0.865693844985 1.63433122375e-05 0)
(0.865693827293 1.69821413131e-05 0)
(0.865693737804 1.75995293411e-05 0)
(0.865693592283 1.8205819081e-05 0)
(0.865693405446 1.88090059117e-05 0)
(0.865693194017 1.9416907205e-05 0)
(0.865692977387 2.00402224501e-05 0)
(0.865692778053 2.06810389237e-05 0)
(0.865692626367 2.13271692035e-05 0)
(0.865692562829 2.19672888316e-05 0)
(0.865692640291 2.25855235377e-05 0)
(0.865692928552 2.31564362622e-05 0)
(0.865693519373 2.3641587465e-05 0)
(0.865694543405 2.3995538926e-05 0)
(0.865696180113 2.41894347842e-05 0)
(0.865698705981 2.4115719518e-05 0)
(0.865702528566 2.36099357841e-05 0)
(0.865708084777 2.22835354438e-05 0)
(0.86571574306 1.95345355465e-05 0)
(0.865727152031 1.47603950611e-05 0)
(0.865744946299 6.09722776909e-06 0)
(0.865772053948 -8.13431270389e-06 0)
(0.865812375959 -2.99271561349e-05 0)
(0.865871811752 -6.32017012621e-05 0)
(0.86595969275 -0.000114852628916 0)
(0.866090539617 -0.000195676739467 0)
(0.86628693474 -0.00032299154526 0)
(0.866583771559 -0.000525371985279 0)
(0.867034804219 -0.000851937554365 0)
(0.867725368058 -0.00138991610322 0)
(0.868792293177 -0.0022886153929 0)
(0.870449698215 -0.00382362658667 0)
(0.873017985104 -0.00652113304963 0)
(0.876898613762 -0.0113944283629 0)
(0.882418120212 -0.0203205958836 0)
(0.889765217196 -0.0365867454668 0)
(0.896499965431 -0.0657572120498 0)
(0.886743219178 -0.110563408784 0)
(1.01287875207 0.118961023674 0)
(1.08820671211 0.231806937391 0)
(1.13741367903 0.253106765173 0)
(1.15409087809 0.228992754104 0)
(1.14994212217 0.188368359385 0)
(1.1353846702 0.146579844405 0)
(1.11758896561 0.110150965912 0)
(1.10059502164 0.0808162221191 0)
(1.08612459289 0.0582265762491 0)
(1.0745909483 0.041318984764 0)
(1.06579149265 0.0289160200053 0)
(1.05928801705 0.0199600998766 0)
(1.05459979397 0.0135815602128 0)
(1.05129079779 0.00909744355129 0)
(1.04899988174 0.00598615467192 0)
(1.04744344009 0.00385696750774 0)
(1.0464065679 0.00242159938597 0)
(1.04573065352 0.00147015189302 0)
(1.04530109867 0.000851703968766 0)
(1.04503660171 0.000459018615759 0)
(1.04488023918 0.00021675933785 0)
(1.04479262285 7.3020329879e-05 0)
(1.04474875771 -5.50156742004e-06 0)
(1.04473185848 -4.40058235118e-05 0)
(1.04472960801 -5.93830937627e-05 0)
(1.0447350924 -6.17169726777e-05 0)
(1.04474404094 -5.72436970743e-05 0)
(1.04475392573 -4.98021926622e-05 0)
(1.04476336714 -4.16435153704e-05 0)
(1.04477169501 -3.39885791139e-05 0)
(1.0447786589 -2.74236389641e-05 0)
(1.04478424615 -2.21521127354e-05 0)
(1.04478860281 -1.81290263196e-05 0)
(1.04479193985 -1.51405501367e-05 0)
(1.04479451197 -1.28093906669e-05 0)
(1.04479661249 -1.10131891959e-05 0)
(1.04479835286 -9.52442855726e-06 0)
(1.04479967853 -8.23458676872e-06 0)
(1.04480065948 -7.21493542574e-06 0)
(1.04480134655 -6.54528152296e-06 0)
(1.04480176122 -6.16473340366e-06 0)
(1.04480199019 -5.95484890009e-06 0)
(1.04480207904 -5.86539619669e-06 0)
(1.04480206614 -5.84574670618e-06 0)
(1.04480197601 -5.85578132992e-06 0)
(1.0448018264 -5.87595765624e-06 0)
(1.04480163571 -5.89701740783e-06 0)
(1.04480142663 -5.91644134723e-06 0)
(1.04480121576 -5.9416983172e-06 0)
(1.04480100873 -5.97419690728e-06 0)
(1.04480082783 -6.00010754965e-06 0)
(1.04480071617 -6.0190152916e-06 0)
(1.0448007259 -6.03731618696e-06 0)
(1.0448009275 -6.06871945184e-06 0)
(1.04480143076 -6.14482479644e-06 0)
(1.04480242592 -6.35463314324e-06 0)
(1.0448041139 -6.94789902e-06 0)
(1.04480675171 -8.23146156413e-06 0)
(1.04481065682 -1.06765918721e-05 0)
(1.04481628381 -1.44700252633e-05 0)
(1.04482467378 -1.94439565901e-05 0)
(1.04483697354 -2.55944531843e-05 0)
(1.04485438983 -3.52703988317e-05 0)
(1.04487924744 -5.14442457069e-05 0)
(1.04491501659 -7.83632844226e-05 0)
(1.04496683518 -0.000122297098773 0)
(1.04504230312 -0.000193046965831 0)
(1.04515276853 -0.000306233852631 0)
(1.04531538755 -0.000487101771759 0)
(1.04555606189 -0.000776817573734 0)
(1.04591357269 -0.00124294984089 0)
(1.04644595565 -0.00199754751958 0)
(1.04723764297 -0.00323190939364 0)
(1.04840215813 -0.00527818489302 0)
(1.05006777868 -0.00871570521831 0)
(1.05229262971 -0.0145428118976 0)
(1.05483457618 -0.0243750833665 0)
(1.05690546724 -0.0405379750504 0)
(1.05579754839 -0.0658973787875 0)
(1.04219815746 -0.0999965910275 0)
(1.00447483552 0.0814039978522 0)
(1.06917237687 0.181288539529 0)
(1.13080569376 0.216950419316 0)
(1.17375001367 0.210789155973 0)
(1.1986526646 0.1836900771 0)
(1.2101998957 0.149751683299 0)
(1.213502576 0.116779143758 0)
(1.21251726165 0.0882206772104 0)
(1.20973100668 0.0650481499793 0)
(1.20651122233 0.047020907769 0)
(1.20351916161 0.0334068073546 0)
(1.20101148284 0.0233557314595 0)
(1.19903448452 0.0160720130003 0)
(1.19753881493 0.010879513245 0)
(1.19644135196 0.00723418803856 0)
(1.19565562453 0.00471351898609 0)
(1.19510492979 0.00299763016319 0)
(1.19472651767 0.00184916248288 0)
(1.19447153732 0.00109496255127 0)
(1.19430322745 0.000610613932931 0)
(1.19419458839 0.000307989494706 0)
(1.19412630376 0.000125771695735 0)
(1.19408525379 2.22265240015e-05 0)
(1.19406199457 -3.244853023e-05 0)
(1.19404969366 -5.72673530666e-05 0)
(1.19404419427 -6.45933374498e-05 0)
(1.19404269566 -6.23718312311e-05 0)
(1.19404337943 -5.55177342261e-05 0)
(1.19404512995 -4.69413792404e-05 0)
(1.19404728898 -3.82561590064e-05 0)
(1.1940494841 -3.02630712934e-05 0)
(1.19405152324 -2.32670646313e-05 0)
(1.19405333728 -1.72916881355e-05 0)
(1.19405492056 -1.22633682198e-05 0)
(1.1940562893 -8.07557774361e-06 0)
(1.19405746266 -4.67417802065e-06 0)
(1.19405841309 -2.06276885069e-06 0)
(1.19405908718 -1.7272424615e-07 0)
(1.19405944407 1.14564132903e-06 0)
(1.19405955938 2.00300324976e-06 0)
(1.19405961434 2.68353587244e-06 0)
(1.19405964481 3.28952165992e-06 0)
(1.19405962558 3.82084147729e-06 0)
(1.19405957338 4.28573616526e-06 0)
(1.19405948231 4.69637624328e-06 0)
(1.19405934272 5.06966244886e-06 0)
(1.19405915602 5.41727356671e-06 0)
(1.19405892672 5.74064860816e-06 0)
(1.19405867278 6.02752730628e-06 0)
(1.19405843662 6.27549446386e-06 0)
(1.19405825469 6.50563479747e-06 0)
(1.19405815738 6.70902487414e-06 0)
(1.19405819482 6.85958214103e-06 0)
(1.19405842927 6.91752976272e-06 0)
(1.19405891085 6.82578860594e-06 0)
(1.19405962216 6.50189584598e-06 0)
(1.19406060305 5.78979547515e-06 0)
(1.19406200109 4.35982179229e-06 0)
(1.19406439208 1.68675388739e-06 0)
(1.19406884378 -2.44215615329e-06 0)
(1.19407605351 -8.79135629454e-06 0)
(1.19408589177 -1.87990700406e-05 0)
(1.19409903323 -3.44449696453e-05 0)
(1.1941174615 -5.86379543258e-05 0)
(1.19414330572 -9.59676197345e-05 0)
(1.19417936819 -0.000153761150333 0)
(1.19422962281 -0.000243696439436 0)
(1.19429968368 -0.000384299241664 0)
(1.19439740948 -0.000605122565893 0)
(1.19453355782 -0.000953676040267 0)
(1.19472219631 -0.00150678018771 0)
(1.19498012511 -0.00238917605924 0)
(1.19532219177 -0.00380497864776 0)
(1.19574576366 -0.00608867868131 0)
(1.19619066427 -0.00978181998199 0)
(1.19643720673 -0.0157329161107 0)
(1.19589803976 -0.0251609526509 0)
(1.19341634552 -0.0395349818957 0)
(1.18665001789 -0.0601186085173 0)
(1.17006217522 -0.0856293495835 0)
(0.998962326421 0.0544316257171 0)
(1.05310957177 0.133401608367 0)
(1.11628268862 0.170777558909 0)
(1.17301272866 0.175143872534 0)
(1.21791247439 0.159583606596 0)
(1.25049859359 0.134951020088 0)
(1.27288492868 0.10841165654 0)
(1.287767241 0.083884971283 0)
(1.29745270205 0.0630565716354 0)
(1.30366077489 0.0462999205898 0)
(1.30759237045 0.0333205140726 0)
(1.31005373085 0.0235495234447 0)
(1.31157365743 0.0163599074645 0)
(1.31249496279 0.0111713151956 0)
(1.31303865842 0.0074915071322 0)
(1.31334675261 0.00492448667649 0)
(1.31351016902 0.00316295627574 0)
(1.31358680136 0.00197475309986 0)
(1.31361318007 0.00118819823421 0)
(1.31361203294 0.000678630706876 0)
(1.31359719775 0.000357009961045 0)
(1.31357687906 0.000160755746748 0)
(1.31355588721 4.64710989716e-05 0)
(1.31353659419 -1.58672526932e-05 0)
(1.3135199387 -4.6055846788e-05 0)
(1.31350625258 -5.70660256099e-05 0)
(1.31349535083 -5.73210166621e-05 0)
(1.31348689631 -5.20829305469e-05 0)
(1.31348050084 -4.45210903108e-05 0)
(1.31347577922 -3.64598519248e-05 0)
(1.31347238036 -2.88721946282e-05 0)
(1.31347000118 -2.22115583639e-05 0)
(1.31346838216 -1.66293637075e-05 0)
(1.31346729502 -1.21330200484e-05 0)
(1.31346657425 -8.65669594993e-06 0)
(1.31346612239 -6.09881078824e-06 0)
(1.31346583818 -4.32217541558e-06 0)
(1.31346563214 -3.11941841263e-06 0)
(1.31346550176 -2.2609332718e-06 0)
(1.31346553307 -1.54228001371e-06 0)
(1.3134656882 -9.64645519525e-07 0)
(1.31346578843 -5.48712589216e-07 0)
(1.31346578209 -1.83887756177e-07 0)
(1.31346570147 1.57962580452e-07 0)
(1.31346556854 4.75206824938e-07 0)
(1.31346539526 7.77005733364e-07 0)
(1.31346518448 1.07611819625e-06 0)
(1.31346493803 1.38523197066e-06 0)
(1.31346466929 1.71824445892e-06 0)
(1.3134644113 2.06709275447e-06 0)
(1.31346418174 2.3849192992e-06 0)
(1.31346398824 2.6369670049e-06 0)
(1.31346386148 2.78040394895e-06 0)
(1.31346385172 2.75192143988e-06 0)
(1.31346404105 2.46290573944e-06 0)
(1.31346455025 1.81210726709e-06 0)
(1.31346539868 7.38328287269e-07 0)
(1.31346656266 -9.49934757185e-07 0)
(1.31346848885 -3.36909938253e-06 0)
(1.31347147923 -7.24619811656e-06 0)
(1.31347565553 -1.39041409811e-05 0)
(1.31348125588 -2.49573835286e-05 0)
(1.313488535 -4.19814796087e-05 0)
(1.31349796755 -6.8131216057e-05 0)
(1.31350985829 -0.000108437817365 0)
(1.31352426094 -0.000170657708078 0)
(1.31354076913 -0.000266906462171 0)
(1.31355803385 -0.000416169226879 0)
(1.313572793 -0.000648347230088 0)
(1.313578046 -0.00101083490312 0)
(1.31355968084 -0.00157895019915 0)
(1.31349010979 -0.00247211235103 0)
(1.31331479605 -0.00387841683264 0)
(1.31292576669 -0.00609168268454 0)
(1.31211235329 -0.0095588221151 0)
(1.31046792822 -0.0149254228292 0)
(1.30723664522 -0.0230263640176 0)
(1.30120400164 -0.034712322842 0)
(1.29049257116 -0.050435461962 0)
(1.27161162734 -0.0689874682868 0)
(0.995736074943 0.0346338602568 0)
(1.04179514787 0.0905689218568 0)
(1.10222839564 0.12154956567 0)
(1.16491412898 0.129605834668 0)
(1.22202567976 0.122009268846 0)
(1.26951894048 0.106019938562 0)
(1.30680226158 0.0870975559627 0)
(1.33499538093 0.0686366808663 0)
(1.35574480571 0.0523698386848 0)
(1.37069620253 0.0389256175074 0)
(1.38128279391 0.0282980728966 0)
(1.38866271912 0.0201712767106 0)
(1.39373037855 0.0141175100887 0)
(1.3971566555 0.00970533594035 0)
(1.39943439975 0.00655059550898 0)
(1.4009197242 0.00433445522992 0)
(1.40186627299 0.00280414579885 0)
(1.40245229598 0.00176574428513 0)
(1.40280139609 0.00107419656018 0)
(1.40299809548 0.000623236686853 0)
(1.40309931935 0.000336411079869 0)
(1.4031427754 0.000159625175554 0)
(1.40315303876 5.51663727005e-05 0)
(1.40314555253 -2.99594060349e-06 0)
(1.40312979589 -3.21201395474e-05 0)
(1.40311139685 -4.38876355336e-05 0)
(1.40309336224 -4.57580204752e-05 0)
(1.40307721662 -4.24163571013e-05 0)
(1.40306356154 -3.67260796698e-05 0)
(1.40305247069 -3.03638946217e-05 0)
(1.40304374229 -2.42443491706e-05 0)
(1.40303705092 -1.88145217487e-05 0)
(1.40303203532 -1.42428438108e-05 0)
(1.40302834555 -1.05314062174e-05 0)
(1.4030256836 -7.57951848763e-06 0)
(1.40302381719 -5.26229101004e-06 0)
(1.40302256978 -3.45683216894e-06 0)
(1.40302179076 -2.01950056162e-06 0)
(1.40302131449 -8.45714196217e-07 0)
(1.40302094556 8.85771425676e-08 0)
(1.40302061697 8.00597548412e-07 0)
(1.40302041169 1.29284128033e-06 0)
(1.4030203158 1.66809358005e-06 0)
(1.40302023643 1.99277346921e-06 0)
(1.40302013941 2.3043009425e-06 0)
(1.40302001778 2.62092922022e-06 0)
(1.40301987001 2.95235918986e-06 0)
(1.40301969781 3.30393393448e-06 0)
(1.40301950051 3.67758111251e-06 0)
(1.40301927069 4.05993819836e-06 0)
(1.40301902187 4.41123365109e-06 0)
(1.40301878724 4.70214010533e-06 0)
(1.40301859383 4.89535495711e-06 0)
(1.40301846755 4.93427147877e-06 0)
(1.40301842933 4.73251261638e-06 0)
(1.40301848417 4.14953076491e-06 0)
(1.40301859725 2.97501469136e-06 0)
(1.40301886168 1.08556138827e-06 0)
(1.40301941885 -1.81141149372e-06 0)
(1.40302035493 -6.61447557171e-06 0)
(1.40302166292 -1.40923397677e-05 0)
(1.4030229924 -2.55572021387e-05 0)
(1.40302382722 -4.28453735667e-05 0)
(1.40302340291 -6.89276441858e-05 0)
(1.40302020899 -0.000108388275606 0)
(1.40301146412 -0.000168258791324 0)
(1.40299233291 -0.000259450390156 0)
(1.40295457566 -0.000398824994475 0)
(1.40288412302 -0.000612498696227 0)
(1.40275707122 -0.000941228564463 0)
(1.40253328144 -0.00144865599317 0)
(1.40214606927 -0.002233376514 0)
(1.40148317869 -0.00344518318406 0)
(1.40035535046 -0.00530901696387 0)
(1.39844782437 -0.00814963119742 0)
(1.3952449345 -0.0124049982421 0)
(1.38992934067 -0.0185910786455 0)
(1.38134578908 -0.0271530623973 0)
(1.36798633859 -0.0381828901767 0)
(1.34743931544 -0.0508002815316 0)
(0.994011532138 0.0192358064733 0)
(1.03484763985 0.0523338407252 0)
(1.09199263491 0.0723631278193 0)
(1.15662421135 0.0791292323053 0)
(1.22032117856 0.0761045465194 0)
(1.27701947168 0.067333971471 0)
(1.32424421187 0.056150903373 0)
(1.36181576271 0.0447990107638 0)
(1.39068533844 0.0345303773192 0)
(1.41226078406 0.0258814321957 0)
(1.42801825874 0.0189465237788 0)
(1.43929888057 0.013584981959 0)
(1.44722811635 0.00955653427786 0)
(1.45270417457 0.00660011558762 0)
(1.45641900224 0.00447419065407 0)
(1.45889149087 0.00297351416945 0)
(1.46050235884 0.00193276971294 0)
(1.46152575908 0.00122369517621 0)
(1.46215577834 0.000749552290472 0)
(1.4625276066 0.000439019829508 0)
(1.46273388718 0.000240523530418 0)
(1.46283703329 0.000117414584326 0)
(1.462878339 4.40522538009e-05 0)
(1.46288458124 2.69374478304e-06 0)
(1.46287245983 -1.84412897238e-05 0)
(1.46285211114 -2.7435162351e-05 0)
(1.46282956238 -2.9435199502e-05 0)
(1.46280802638 -2.76854676763e-05 0)
(1.4627890309 -2.41838171365e-05 0)
(1.46277312036 -2.01113847345e-05 0)
(1.46276028595 -1.61167448537e-05 0)
(1.46275023326 -1.25226629168e-05 0)
(1.46274255166 -9.45572965388e-06 0)
(1.46273680891 -6.92677356988e-06 0)
(1.46273260629 -4.88199589115e-06 0)
(1.46272960147 -3.25199594405e-06 0)
(1.46272750608 -1.97365272475e-06 0)
(1.46272606299 -1.00578297058e-06 0)
(1.46272506131 -3.03052779511e-07 0)
(1.46272443618 2.21788180156e-07 0)
(1.46272407315 7.07624167158e-07 0)
(1.46272382357 1.18891361514e-06 0)
(1.46272365541 1.61926519698e-06 0)
(1.46272352893 2.00627798104e-06 0)
(1.46272341465 2.37144319991e-06 0)
(1.46272329347 2.7284501822e-06 0)
(1.46272315185 3.08305723799e-06 0)
(1.46272298118 3.4336025781e-06 0)
(1.46272277672 3.77128064844e-06 0)
(1.4627225358 4.08599503787e-06 0)
(1.46272226158 4.37060566151e-06 0)
(1.46272196136 4.59380057521e-06 0)
(1.46272164129 4.70576986525e-06 0)
(1.46272130913 4.63789699924e-06 0)
(1.46272097596 4.29966006614e-06 0)
(1.46272065852 3.57802598366e-06 0)
(1.46272037975 2.34869721466e-06 0)
(1.46272002747 5.51510575481e-07 0)
(1.46271938894 -2.16831218268e-06 0)
(1.4627183472 -6.54334839672e-06 0)
(1.46271665398 -1.33786841122e-05 0)
(1.46271362683 -2.37825192265e-05 0)
(1.46270812845 -3.92862203239e-05 0)
(1.4626983314 -6.22568913163e-05 0)
(1.46268114829 -9.62809838426e-05 0)
(1.46265137652 -0.000146737210807 0)
(1.46260049098 -0.000221859004421 0)
(1.46251468045 -0.000334029642397 0)
(1.4623712852 -0.00050186704341 0)
(1.46213316257 -0.000753910075053 0)
(1.46174027782 -0.00113431957371 0)
(1.46109756229 -0.00171031971973 0)
(1.46005280759 -0.00257829587093 0)
(1.45836376431 -0.00387862766177 0)
(1.45565445304 -0.00580488609121 0)
(1.45135607834 -0.00860212009548 0)
(1.44464281406 -0.0125334887421 0)
(1.43443707407 -0.0177838158575 0)
(1.41946618236 -0.0243071698746 0)
(1.39786409108 -0.031564252608 0)
(0.993269668111 0.00617015038948 0)
(1.03158100387 0.0171020461654 0)
(1.08672182598 0.0239906488929 0)
(1.15174555588 0.0265606661593 0)
(1.21823537771 0.0258180592108 0)
(1.27925775982 0.0230488865012 0)
(1.33140138163 0.0193656317664 0)
(1.37377601291 0.0155468581899 0)
(1.40691056318 0.012044930385 0)
(1.43203316694 0.0090663998774 0)
(1.45060218467 0.00666059491805 0)
(1.46402989613 0.00479009173861 0)
(1.47355020118 0.0033784287974 0)
(1.48017567705 0.00233873895095 0)
(1.48470233402 0.00158891520039 0)
(1.48773625425 0.00105829060633 0)
(1.48972739609 0.000689464853726 0)
(1.49100283052 0.000437640851775 0)
(1.49179591516 0.000268888535644 0)
(1.49227029048 0.000158114234383 0)
(1.49253878721 8.71281074601e-05 0)
(1.49267786847 4.29786372582e-05 0)
(1.49273840662 1.65889362369e-05 0)
(1.49275358505 1.66860959951e-06 0)
(1.49274435234 -6.06409850089e-06 0)
(1.49272356799 -9.40927733581e-06 0)
(1.49269892718 -1.02153983818e-05 0)
(1.49267465785 -9.65209234635e-06 0)
(1.49265285744 -8.43806613114e-06 0)
(1.49263436749 -6.99130260011e-06 0)
(1.49261931062 -5.55205331179e-06 0)
(1.49260742457 -4.24027047399e-06 0)
(1.49259827978 -3.1033403652e-06 0)
(1.49259140072 -2.14740420134e-06 0)
(1.49258633336 -1.35625826489e-06 0)
(1.49258267753 -7.08078316043e-07 0)
(1.49258009755 -1.8140283126e-07 0)
(1.49257832376 2.45828228959e-07 0)
(1.49257714966 6.20261836181e-07 0)
(1.4925763978 9.9224492606e-07 0)
(1.49257591518 1.30088432537e-06 0)
(1.49257560952 1.59031153566e-06 0)
(1.49257542334 1.87772299186e-06 0)
(1.49257530395 2.17362588335e-06 0)
(1.49257521223 2.48549578362e-06 0)
(1.49257512187 2.81646050602e-06 0)
(1.49257501439 3.16630427882e-06 0)
(1.49257487642 3.53144305607e-06 0)
(1.49257469781 3.90389073192e-06 0)
(1.49257446998 4.27041801487e-06 0)
(1.49257418722 4.61203078404e-06 0)
(1.49257384549 4.89752241392e-06 0)
(1.4925734382 5.08316951403e-06 0)
(1.49257295394 5.10963964717e-06 0)
(1.49257237208 4.89550938399e-06 0)
(1.49257166224 4.32966083613e-06 0)
(1.49257081795 3.26339066684e-06 0)
(1.49256971686 1.5325856909e-06 0)
(1.49256790873 -1.03976006773e-06 0)
(1.49256507189 -4.89456029993e-06 0)
(1.49256083718 -1.0737453033e-05 0)
(1.49255418724 -1.93222559174e-05 0)
(1.49254349012 -3.16992120069e-05 0)
(1.49252618313 -4.94036185212e-05 0)
(1.49249813277 -7.45994407643e-05 0)
(1.49245254548 -0.000110256244992 0)
(1.49237857476 -0.000160851556798 0)
(1.49225913655 -0.000232641641119 0)
(1.49206657158 -0.000334118517575 0)
(1.49175575285 -0.000478093415595 0)
(1.49125472265 -0.00068565716611 0)
(1.4904542501 -0.00098838499 0)
(1.48918322443 -0.00141942390904 0)
(1.48717445994 -0.00202682196274 0)
(1.48402722947 -0.00287224027905 0)
(1.47915784576 -0.00402363970261 0)
(1.47175338297 -0.00553611192904 0)
(1.46079103846 -0.00741241892833 0)
(1.44510959759 -0.00956024193098 0)
(1.4230787109 -0.0117329442533 0)
(0.993270465908 -0.00616840202437 0)
(1.03158098644 -0.0171003761264 0)
(1.08672175962 -0.0239897617665 0)
(1.15174559347 -0.0265602469413 0)
(1.21823545555 -0.0258179931155 0)
(1.27925786183 -0.0230491100855 0)