/*--------------------------------*- C++ -*----------------------------------*\
| =========                 |                                                 |
| \\      /  F ield         | OpenFOAM: The Open Source CFD Toolbox           |
|  \\    /   O peration     | Version:  2106                                  |
|   \\  /    A nd           | Website:  www.openfoam.com                      |
|    \\/     M anipulation  |                                                 |
\*---------------------------------------------------------------------------*/
FoamFile
{
    version     2.0;
    format      ascii;
    arch        "LSB;label=32;scalar=64";
    class       volVectorField;
    location    "0.31";
    object      E;
}
// * * * * * * * * * * * * * * * * * * * * * * * * * * * * * * * * * * * * * //

dimensions      [1 1 -3 0 0 -1 0];

internalField   nonuniform List<vector> 
9600
(
(9.09863365786e-15 -1.57475386646e-17 0)
(9.1945412043e-15 -4.27019336731e-17 0)
(9.41363137688e-15 -6.44245217731e-17 0)
(9.76027595112e-15 -8.62009358523e-17 0)
(1.02304975958e-14 -1.0860507893e-16 0)
(1.08286009631e-14 -1.31987939138e-16 0)
(1.15604014187e-14 -1.56634000294e-16 0)
(1.24331395414e-14 -1.82809067981e-16 0)
(1.34554833521e-14 -2.10777961534e-16 0)
(1.46375685084e-14 -2.40812589766e-16 0)
(1.59910601041e-14 -2.73196545509e-16 0)
(1.75292300592e-14 -3.082283085e-16 0)
(1.92670477534e-14 -3.46223857698e-16 0)
(2.12212830162e-14 -3.87519033643e-16 0)
(2.34106212422e-14 -4.32471809321e-16 0)
(2.58557907199e-14 -4.81464549465e-16 0)
(2.85797024403e-14 -5.34906301822e-16 0)
(3.16076027572e-14 -5.93235145985e-16 0)
(3.49672393409e-14 -6.56920616028e-16 0)
(3.868904092e-14 -7.26466208074e-16 0)
(4.28063113436e-14 -8.02411980888e-16 0)
(4.73554385318e-14 -8.8533725572e-16 0)
(5.23761189078e-14 -9.75863420302e-16 0)
(5.7911597927e-14 -1.07465684089e-15 0)
(6.40089273419e-14 -1.18243188539e-15 0)
(7.07192398527e-14 -1.29995405993e-15 0)
(7.80980418087e-14 -1.42804326021e-15 0)
(8.62055246329e-14 -1.56757713858e-15 0)
(9.51068956462e-14 -1.71949458669e-15 0)
(1.04872728968e-13 -1.88479933283e-15 0)
(1.15579337168e-13 -2.06456365226e-15 0)
(1.27309164325e-13 -2.25993218777e-15 0)
(1.40151201152e-13 -2.47212587686e-15 0)
(1.54201422807e-13 -2.70244598073e-15 0)
(1.69563249991e-13 -2.9522782093e-15 0)
(1.86348033918e-13 -3.22309693515e-15 0)
(2.0467556566e-13 -3.51646948818e-15 0)
(2.24674610381e-13 -3.83406052143e-15 0)
(2.46483466872e-13 -4.17763643688e-15 0)
(2.70250552758e-13 -4.54906985918e-15 0)
(2.96135015687e-13 -4.95034414306e-15 0)
(3.24307370704e-13 -5.38355789916e-15 0)
(3.54950163963e-13 -5.85092952106e-15 0)
(3.88258662798e-13 -6.35480169483e-15 0)
(4.24441572087e-13 -6.89764587046e-15 0)
(4.63721776725e-13 -7.48206667308e-15 0)
(5.06337109893e-13 -8.11080622965e-15 0)
(5.52541146664e-13 -8.78674838542e-15 0)
(6.02604022357e-13 -9.51292278218e-15 0)
(6.56813274878e-13 -1.02925087688e-14 0)
(7.15474710117e-13 -1.11288391123e-14 0)
(7.789132893e-13 -1.20254034764e-14 0)
(8.47474036992e-13 -1.29858516315e-14 0)
(9.21522968256e-13 -1.40139963604e-14 0)
(1.00144803324e-12 -1.51138160189e-14 0)
(1.08766007726e-12 -1.62894567129e-14 0)
(1.18059381424e-12 -1.75452340477e-14 0)
(1.28070881103e-12 -1.8885634407e-14 0)
(1.38849047997e-12 -2.03153157163e-14 0)
(1.50445107678e-12 -2.18391076437e-14 0)
(1.6291307006e-12 -2.34620111901e-14 0)
(1.76309829259e-12 -2.51891976208e-14 0)
(1.90695262952e-12 -2.70260066895e-14 0)
(2.06132330811e-12 -2.89779441023e-14 0)
(2.22687171593e-12 -3.10506781736e-14 0)
(2.40429198417e-12 -3.32500356222e-14 0)
(2.59431191731e-12 -3.55819964567e-14 0)
(2.79769389461e-12 -3.80526879012e-14 0)
(3.01523573773e-12 -4.06683773109e-14 0)
(3.24777153874e-12 -4.34354640306e-14 0)
(3.49617244255e-12 -4.63604701473e-14 0)
(3.76134737712e-12 -4.94500300957e-14 0)
(4.04424372516e-12 -5.27108790695e-14 0)
(4.34584793005e-12 -5.61498402029e-14 0)
(4.66718602918e-12 -5.97738104825e-14 0)
(5.00932410711e-12 -6.35897453586e-14 0)
(5.37336866114e-12 -6.7604642027e-14 0)
(5.7604668714e-12 -7.18255213569e-14 0)
(6.17180676771e-12 -7.62594084463e-14 0)
(6.60861728499e-12 -8.09133117943e-14 0)
(7.07216819923e-12 -8.57942010818e-14 0)
(7.56376993571e-12 -9.09089835657e-14 0)
(8.08477324131e-12 -9.62644790944e-14 0)
(8.63656871263e-12 -1.01867393764e-13 0)
(9.22058617173e-12 -1.07724292247e-13 0)
(9.83829388156e-12 -1.13841568828e-13 0)
(1.0491197593e-11 -1.20225417211e-13 0)
(1.11808394161e-11 -1.26881799146e-13 0)
(1.19087965074e-11 -1.3381641198e-13 0)
(1.26766795679e-11 -1.41034655204e-13 0)
(1.34861311423e-11 -1.48541596139e-13 0)
(1.43388237169e-11 -1.56341934882e-13 0)
(1.5236457607e-11 -1.64439968673e-13 0)
(1.61807586318e-11 -1.72839555889e-13 0)
(1.71734755708e-11 -1.81544079864e-13 0)
(1.82163773998e-11 -1.90556412799e-13 0)
(1.93112503034e-11 -1.99878880064e-13 0)
(2.04598944633e-11 -2.09513225214e-13 0)
(2.16641206228e-11 -2.19460576146e-13 0)
(2.29257464297e-11 -2.29721412826e-13 0)
(2.424659256e-11 -2.40295537155e-13 0)
(2.5628478629e-11 -2.51182045577e-13 0)
(2.70732188972e-11 -2.62379305184e-13 0)
(2.85826177811e-11 -2.73884934167e-13 0)
(3.01584651819e-11 -2.85695787631e-13 0)
(3.18025316493e-11 -2.97807949985e-13 0)
(3.35165634008e-11 -3.1021673531e-13 0)
(3.53022772199e-11 -3.22916697402e-13 0)
(3.71613552667e-11 -3.35901651492e-13 0)
(3.90954398334e-11 -3.49164710041e-13 0)
(4.11061280918e-11 -3.62698335471e-13 0)
(4.31949668829e-11 -3.76494413283e-13 0)
(4.53634476115e-11 -3.90544349669e-13 0)
(4.76130013209e-11 -4.04839198618e-13 0)
(4.99449940356e-11 -4.19369824494e-13 0)
(5.23607224777e-11 -4.34127107352e-13 0)
(5.4861410285e-11 -4.49102199752e-13 0)
(5.74482048805e-11 -4.64286845734e-13 0)
(6.01221751756e-11 -4.79673774849e-13 0)
(6.28843103238e-11 -4.95257186975e-13 0)
(6.5735519787e-11 -5.11033347074e-13 0)
(6.86766350282e-11 -5.27001313253e-13 0)
(7.17084132112e-11 -5.43163826736e-13 0)
(7.48315433655e-11 -5.59528398807e-13 0)
(7.80466555743e-11 -5.76108637819e-13 0)
(8.13543338605e-11 -5.92925869412e-13 0)
(8.4755133596e-11 -6.10011115699e-13 0)
(8.82496044408e-11 -6.27407515057e-13 0)
(9.18383200483e-11 -6.45173284485e-13 0)
(9.5521916055e-11 -6.63385352366e-13 0)
(9.93011382371e-11 -6.8214382309e-13 0)
(1.03176903165e-10 -7.01577478778e-13 0)
(1.07150374276e-10 -7.21850581187e-13 0)
(1.11223057022e-10 -7.43171314005e-13 0)
(1.15396917742e-10 -7.65802310118e-13 0)
(1.19674532169e-10 -7.9007385117e-13 0)
(1.24059271206e-10 -8.16400525215e-13 0)
(1.28555533893e-10 -8.45302407581e-13 0)
(1.33169040645e-10 -8.77432230078e-13 0)
(1.37907204194e-10 -9.13610585054e-13 0)
(1.42779601858e-10 -9.54872070416e-13 0)
(1.47798581581e-10 -1.00252657599e-12 0)
(1.52980047143e-10 -1.05824189723e-12 0)
(1.58344487243e-10 -1.12415697257e-12 0)
(1.63918342529e-10 -1.20304002422e-12 0)
(1.69735850493e-10 -1.29851406639e-12 0)
(1.75841581444e-10 -1.41538606517e-12 0)
(1.82293999353e-10 -1.5601401074e-12 0)
(1.89170586292e-10 -1.74169837116e-12 0)
(1.96575430203e-10 -1.97263527721e-12 0)
(2.04650839177e-10 -2.27119070171e-12 0)
(2.13595825525e-10 -2.66476127784e-12 0)
(2.23696919181e-10 -3.19628507957e-12 0)
(2.35382494973e-10 -3.93668667829e-12 0)
(2.49325391903e-10 -5.01109450285e-12 0)
(2.66654174541e-10 -6.65958394682e-12 0)
(2.89437652695e-10 -9.39512157442e-12 0)
(3.21954160093e-10 -1.44735788621e-11 0)
(3.74574159901e-10 -2.55146920012e-11 0)
(4.7776132018e-10 -5.49766153594e-11 0)
(9.05187407999e-15 -2.15915201562e-17 0)
(9.15559961782e-15 -5.82399985203e-17 0)
(9.37883217513e-15 -8.84998594478e-17 0)
(9.72493150539e-15 -1.18387221148e-16 0)
(1.01938679931e-14 -1.48880558329e-16 0)
(1.0790177826e-14 -1.80566522554e-16 0)
(1.15197445156e-14 -2.13888653598e-16 0)
(1.23898243724e-14 -2.49237950889e-16 0)
(1.34090805347e-14 -2.86990018006e-16 0)
(1.45876336413e-14 -3.2752248154e-16 0)
(1.59371275291e-14 -3.71224474373e-16 0)
(1.74708082095e-14 -4.18502679768e-16 0)
(1.92036151733e-14 -4.69785799607e-16 0)
(2.11522846549e-14 -5.25528280079e-16 0)
(2.33354648296e-14 -5.86213693773e-16 0)
(2.57738431259e-14 -6.52357981392e-16 0)
(2.8490285963e-14 -7.24512662699e-16 0)
(3.15099913058e-14 -8.0326807935e-16 0)
(3.48606544913e-14 -8.89256707552e-16 0)
(3.85726478281e-14 -9.83156565007e-16 0)
(4.26792145054e-14 -1.08569472878e-15 0)
(4.72166773803e-14 -1.1976509761e-15 0)
(5.22246632397e-14 -1.31986155696e-15 0)
(5.77463431549e-14 -1.4532231054e-15 0)
(6.38286895667e-14 -1.59869669456e-15 0)
(7.05227507529e-14 -1.75731203922e-15 0)
(7.78839433458e-14 -1.93017184844e-15 0)
(8.59723635717e-14 -2.11845632962e-15 0)
(9.48531178908e-14 -2.32342784394e-15 0)
(1.04596673716e-13 -2.54643571239e-15 0)
(1.15279230884e-13 -2.78892116976e-15 0)
(1.26983114546e-13 -3.05242246324e-15 0)
(1.39797190118e-13 -3.33858009038e-15 0)
(1.53817300941e-13 -3.64914217007e-15 0)
(1.69146729228e-13 -3.98596993864e-15 0)
(1.85896680895e-13 -4.35104336129e-15 0)
(2.04186794791e-13 -4.74646684779e-15 0)
(2.24145676822e-13 -5.1744750593e-15 0)
(2.45911459402e-13 -5.63743879146e-15 0)
(2.69632386594e-13 -6.13787091686e-15 0)
(2.95467425255e-13 -6.67843236817e-15 0)
(3.23586902401e-13 -7.26193814085e-15 0)
(3.54173168927e-13 -7.89136329235e-15 0)
(3.87421289719e-13 -8.56984891256e-15 0)
(4.23539760104e-13 -9.30070803761e-15 0)
(4.62751248438e-13 -1.00874314773e-14 0)
(5.05293364523e-13 -1.09336935232e-14 0)
(5.51419453422e-13 -1.18433575037e-14 0)
(6.01399414051e-13 -1.28204811467e-14 0)
(6.55520541814e-13 -1.38693217123e-14 0)
(7.14088394351e-13 -1.49943408515e-14 0)
(7.77427679284e-13 -1.6200209147e-14 0)
(8.45883162685e-13 -1.74918102886e-14 0)
(9.19820596746e-13 -1.88742448335e-14 0)
(9.99627664955e-13 -2.03528334994e-14 0)
(1.08571494284e-12 -2.19331199369e-14 0)
(1.17851687209e-12 -2.36208729236e-14 0)
(1.2784927457e-12 -2.54220879234e-14 0)
(1.38612770138e-12 -2.73429879483e-14 0)
(1.5019337204e-12 -2.93900236636e-14 0)
(1.62645062861e-12 -3.15698726711e-14 0)
(1.76024709619e-12 -3.38894379064e-14 0)
(1.90392163234e-12 -3.63558450856e-14 0)
(2.05810357092e-12 -3.89764391342e-14 0)
(2.22345404272e-12 -4.17587795314e-14 0)
(2.40066692954e-12 -4.47106345055e-14 0)
(2.59046979549e-12 -4.78399740114e-14 0)
(2.79362478993e-12 -5.11549614272e-14 0)
(3.01092951683e-12 -5.46639439053e-14 0)
(3.24321786447e-12 -5.83754413162e-14 0)
(3.49136078969e-12 -6.22981337243e-14 0)
(3.75626704999e-12 -6.64408473407e-14 0)
(4.03888387708e-12 -7.08125388994e-14 0)
(4.34019758492e-12 -7.54222784069e-14 0)
(4.66123410506e-12 -8.02792302239e-14 0)
(5.00305944188e-12 -8.53926324399e-14 0)
(5.36678004034e-12 -9.07717745099e-14 0)
(5.75354305826e-12 -9.64259731302e-14 0)
(6.16453653536e-12 -1.02364546341e-13 0)
(6.60098945088e-12 -1.08596785847e-13 0)
(7.06417166181e-12 -1.15131927569e-13 0)
(7.5553937133e-12 -1.21979120444e-13 0)
(8.07600651315e-12 -1.29147393501e-13 0)
(8.6274008621e-12 -1.36645621282e-13 0)
(9.21100683168e-12 -1.44482487656e-13 0)
(9.82829298159e-12 -1.5266644813e-13 0)
(1.04807654088e-11 -1.61205690764e-13 0)
(1.11699666203e-11 -1.70108095839e-13 0)
(1.18974742226e-11 -1.79381194438e-13 0)
(1.26648994206e-11 -1.89032126158e-13 0)
(1.34738853186e-11 -1.99067596199e-13 0)
(1.43261050189e-11 -2.09493832115e-13 0)
(1.52232595102e-11 -2.20316540596e-13 0)
(1.61670753428e-11 -2.31540864682e-13 0)
(1.71593020853e-11 -2.43171341902e-13 0)
(1.82017095597e-11 -2.55211863916e-13 0)
(1.92960848535e-11 -2.67665638357e-13 0)
(2.04442291064e-11 -2.80535153654e-13 0)
(2.16479540727e-11 -2.93822147823e-13 0)
(2.29090784609e-11 -3.07527582337e-13 0)
(2.42294240538e-11 -3.21651622433e-13 0)
(2.56108116146e-11 -3.36193625445e-13 0)
(2.70550565863e-11 -3.51152139082e-13 0)
(2.85639645951e-11 -3.66524911904e-13 0)
(3.01393267692e-11 -3.82308918736e-13 0)
(3.17829148912e-11 -3.98500404244e-13 0)
(3.34964764028e-11 -4.15094948606e-13 0)
(3.5281729287e-11 -4.32087559939e-13 0)
(3.71403568566e-11 -4.49472799129e-13 0)
(3.90740024862e-11 -4.67244943867e-13 0)
(4.10842643292e-11 -4.85398200064e-13 0)
(4.31726900715e-11 -5.0392697057e-13 0)
(4.53407717832e-11 -5.22826193134e-13 0)
(4.75899409411e-11 -5.42091762128e-13 0)
(4.99215637086e-11 -5.61721051553e-13 0)
(5.23369365775e-11 -5.8171356067e-13 0)
(5.48372824943e-11 -6.02071708064e-13 0)
(5.74237476204e-11 -6.22801805633e-13 0)
(6.00973989026e-11 -6.43915250724e-13 0)
(6.2859222666e-11 -6.65429983053e-13 0)
(6.57101244859e-11 -6.87372263292e-13 0)
(6.86509306445e-11 -7.0977884284e-13 0)
(7.16823915427e-11 -7.32699609883e-13 0)
(7.48051875167e-11 -7.56200816136e-13 0)
(7.80199375979e-11 -7.80369012644e-13 0)
(8.13272118782e-11 -8.05315852921e-13 0)
(8.47275482794e-11 -8.31183959254e-13 0)
(8.82214747058e-11 -8.58154095314e-13 0)
(9.18095377784e-11 -8.86453948388e-13 0)
(9.54923396241e-11 -9.1636890153e-13 0)
(9.9270584536e-11 -9.48255275268e-13 0)
(1.03145137759e-10 -9.82556648131e-13 0)
(1.07117099208e-10 -1.01982403578e-12 0)
(1.11187895639e-10 -1.06074093592e-12 0)
(1.15359395712e-10 -1.10615455267e-12 0)
(1.19634053597e-10 -1.15711493283e-12 0)
(1.24015088361e-10 -1.21492432674e-12 0)
(1.2850670853e-10 -1.28119990162e-12 0)
(1.33114394103e-10 -1.35795409809e-12 0)
(1.37845252322e-10 -1.44769860652e-12 0)
(1.42708469066e-10 -1.55358042299e-12 0)
(1.4771588572e-10 -1.67956216854e-12 0)
(1.52882742826e-10 -1.83066454337e-12 0)
(1.58228648742e-10 -2.01329765146e-12 0)
(1.63778856854e-10 -2.23572204661e-12 0)
(1.6956597366e-10 -2.50870337044e-12 0)
(1.75632280611e-10 -2.84646299346e-12 0)
(1.82032949508e-10 -3.2680935135e-12 0)
(1.88840590156e-10 -3.79972633333e-12 0)
(1.96151836338e-10 -4.47795735005e-12 0)
(2.04097138376e-10 -5.35545853768e-12 0)
(2.12855750023e-10 -6.5105555562e-12 0)
(2.2267937886e-10 -8.06436919538e-12 0)
(2.33930647435e-10 -1.02132372275e-11 0)
(2.47147074089e-10 -1.32941209983e-11 0)
(2.63146952884e-10 -1.79267868851e-11 0)
(2.83186456763e-10 -2.53502455095e-11 0)
(3.09058503751e-10 -3.82961704738e-11 0)
(3.42171730703e-10 -6.34827070411e-11 0)
(3.75234423596e-10 -1.19398784445e-10 0)
(9.03476844292e-15 -1.04141413316e-17 0)
(9.14101453287e-15 -2.85681821792e-17 0)
(9.36551359877e-15 -4.49095791057e-17 0)
(9.71197139201e-15 -6.04910056976e-17 0)
(1.01807541546e-14 -7.59925814121e-17 0)
(1.07765944869e-14 -9.18509451303e-17 0)
(1.1505464276e-14 -1.08375260646e-16 0)
(1.23746584499e-14 -1.25812129143e-16 0)
(1.33928557276e-14 -1.44379022929e-16 0)
(1.45701809433e-14 -1.64281781286e-16 0)
(1.59182759455e-14 -1.85724296639e-16 0)
(1.7450380999e-14 -2.08914325312e-16 0)
(1.91814272731e-14 -2.34067325051e-16 0)
(2.11281407009e-14 -2.61409261861e-16 0)
(2.33091574812e-14 -2.91178868861e-16 0)
(2.57451515447e-14 -3.23629613313e-16 0)
(2.84589743619e-14 -3.5903151268e-16 0)
(3.14758075213e-14 -3.97672880112e-16 0)
(3.48233285524e-14 -4.39862047071e-16 0)
(3.8531890503e-14 -4.85929092588e-16 0)
(4.26347158147e-14 -5.36227598242e-16 0)
(4.71681050693e-14 -5.9113644168e-16 0)
(5.21716612044e-14 -6.51061637674e-16 0)
(5.76885298169e-14 -7.16438233157e-16 0)
(6.37656561949e-14 -7.87732260904e-16 0)
(7.04540597296e-14 -8.65442755223e-16 0)
(7.78091263764e-14 -9.50103831935e-16 0)
(8.58909198365e-14 -1.04228683404e-15 0)
(9.476451214e-14 -1.14260254364e-15 0)
(1.04500334308e-13 -1.25170345986e-15 0)
(1.15174547768e-13 -1.37028614197e-15 0)
(1.26869437189e-13 -1.4990936158e-15 0)
(1.39673825387e-13 -1.63891784123e-15 0)
(1.53683510928e-13 -1.79060223739e-15 0)
(1.69001729038e-13 -1.95504426167e-15 0)
(1.85739636391e-13 -2.13319803768e-15 0)
(2.04016820301e-13 -2.32607702661e-15 0)
(2.23961832826e-13 -2.53475673534e-15 0)
(2.45712750186e-13 -2.76037745393e-15 0)
(2.69417757897e-13 -3.00414701423e-15 0)
(2.95235761908e-13 -3.26734356002e-15 0)
(3.23337025964e-13 -3.55131831864e-15 0)
(3.53903835346e-13 -3.85749836244e-15 0)
(3.87131187002e-13 -4.18738934788e-15 0)
(4.23227506035e-13 -4.5425782185e-15 0)
(4.62415388337e-13 -4.92473585734e-15 0)
(5.04932369072e-13 -5.33561967292e-15 0)
(5.51031716565e-13 -5.77707610191e-15 0)
(6.00983250991e-13 -6.25104301052e-15 0)
(6.55074187114e-13 -6.75955197534e-15 0)
(7.13610000169e-13 -7.30473042342e-15 0)
(7.7691531375e-13 -7.88880361003e-15 0)
(8.45334808443e-13 -8.51409641178e-15 0)
(9.19234149687e-13 -9.18303491127e-15 0)
(9.99000933154e-13 -9.89814774882e-15 0)
(1.08504564572e-12 -1.06620672158e-14 0)
(1.17780263985e-12 -1.14775300627e-14 0)
(1.27773111901e-12 -1.23473779953e-14 0)
(1.38531613137e-12 -1.32745578302e-14 0)
(1.501069569e-12 -1.42621212814e-14 0)
(1.6255311692e-12 -1.53132243495e-14 0)
(1.75926951466e-12 -1.6431126282e-14 0)
(1.90288302854e-12 -1.76191880775e-14 0)
(2.05700096055e-12 -1.88808705024e-14 0)
(2.22228435964e-12 -2.02197315909e-14 0)
(2.39942702858e-12 -2.16394235994e-14 0)
(2.58915645577e-12 -2.31436893867e-14 0)
(2.7922347187e-12 -2.47363581918e-14 0)
(3.00945935382e-12 -2.64213407846e-14 0)
(3.24166418689e-12 -2.82026239619e-14 0)
(3.48972011773e-12 -3.00842643693e-14 0)
(3.75453585298e-12 -3.20703816252e-14 0)
(4.03705858031e-12 -3.41651507322e-14 0)
(4.33827457699e-12 -3.63727937603e-14 0)
(4.65920974595e-12 -3.86975707912e-14 0)
(5.00093007168e-12 -4.1143770121e-14 0)
(5.36454198858e-12 -4.37156977187e-14 0)
(5.75119265394e-12 -4.64176659487e-14 0)
(6.16207011754e-12 -4.92539815731e-14 0)
(6.59840338001e-12 -5.22289330538e-14 0)
(7.06146233155e-12 -5.53467771911e-14 0)
(7.55255756296e-12 -5.86117251431e-14 0)
(8.07304004064e-12 -6.20279278851e-14 0)
(8.6243006373e-12 -6.55994611872e-14 0)
(9.20776951025e-12 -6.93303102024e-14 0)
(9.82491531907e-12 -7.32243537867e-14 0)
(1.04772442749e-11 -7.72853486933e-14 0)
(1.11662990131e-11 -8.15169138197e-14 0)
(1.18936572832e-11 -8.5922514718e-14 0)
(1.26609304465e-11 -9.05054486317e-14 0)
(1.34697617776e-11 -9.52688303659e-14 0)
(1.43218245614e-11 -1.00215579365e-13 0)
(1.5218819981e-11 -1.0534840845e-13 0)
(1.61624747907e-11 -1.10669814756e-13 0)
(1.71545387714e-11 -1.16182073511e-13 0)
(1.81967819627e-11 -1.21887235444e-13 0)
(1.92909916716e-11 -1.27787128751e-13 0)
(2.04389692557e-11 -1.33883366746e-13 0)
(2.16425266799e-11 -1.40177362548e-13 0)
(2.290348285e-11 -1.46670352437e-13 0)
(2.42236597255e-11 -1.5336342983e-13 0)
(2.56048782157e-11 -1.60257592258e-13 0)
(2.7048953868e-11 -1.6735380418e-13 0)
(2.85576923574e-11 -1.74653079087e-13 0)
(3.0132884788e-11 -1.82156585069e-13 0)
(3.17763028254e-11 -1.89865778854e-13 0)
(3.34896936762e-11 -1.97782574426e-13 0)
(3.52747749395e-11 -2.05909553592e-13 0)
(3.71332293596e-11 -2.14250227404e-13 0)
(3.90666995127e-11 -2.22809359292e-13 0)
(4.10767824705e-11 -2.3159336298e-13 0)
(4.31650244884e-11 -2.40610791129e-13 0)
(4.53329157782e-11 -2.49872934009e-13 0)
(4.75818854342e-11 -2.5939455164e-13 0)
(4.99132965968e-11 -2.69194767919e-13 0)
(5.23284419525e-11 -2.79298161345e-13 0)
(5.4828539689e-11 -2.89736094501e-13 0)
(5.74147300464e-11 -3.00548333579e-13 0)
(6.00880726336e-11 -3.11785020459e-13 0)
(6.28495447137e-11 -3.23509073553e-13 0)
(6.57000406991e-11 -3.35799110468e-13 0)
(6.86403731509e-11 -3.48753006271e-13 0)
(7.16712756325e-11 -3.62492226618e-13 0)
(7.47934078433e-11 -3.77167106605e-13 0)
(7.80073635449e-11 -3.92963285377e-13 0)
(8.13136819032e-11 -4.10109555316e-13 0)
(8.4712863002e-11 -4.28887445808e-13 0)
(8.82053884495e-11 -4.49642938541e-13 0)
(9.17917482033e-11 -4.72800808952e-13 0)
(9.54724749935e-11 -4.98882212985e-13 0)
(9.92481880398e-11 -5.28526298919e-13 0)
(1.03119648157e-10 -5.62516832437e-13 0)
(1.07087826846e-10 -6.01815097019e-13 0)
(1.11153992609e-10 -6.47600695064e-13 0)
(1.15319818544e-10 -7.01322363268e-13 0)
(1.1958751635e-10 -7.64761579958e-13 0)
(1.23960003231e-10 -8.40112657339e-13 0)
(1.28441110076e-10 -9.3008429174e-13 0)
(1.33035841681e-10 -1.03802936027e-12 0)
(1.37750703134e-10 -1.16811236754e-12 0)
(1.42594111009e-10 -1.3255277722e-12 0)
(1.47576914285e-10 -1.5167881161e-12 0)
(1.52713058757e-10 -1.75010949713e-12 0)
(1.58020441241e-10 -2.03593522061e-12 0)
(1.63522017954e-10 -2.38765938096e-12 0)
(1.69247257736e-10 -2.82264575458e-12 0)
(1.7523406933e-10 -3.36369273443e-12 0)
(1.81531388681e-10 -4.04118849383e-12 0)
(1.88202695222e-10 -4.89636284035e-12 0)
(1.95330844439e-10 -5.9863326926e-12 0)
(2.03024760612e-10 -7.39217545095e-12 0)
(2.11428696999e-10 -9.23229392099e-12 0)
(2.20734773844e-10 -1.1685380679e-11 0)
(2.31198693531e-10 -1.50314920623e-11 0)
(2.43154552177e-10 -1.9728625352e-11 0)
(2.57009274932e-10 -2.6561154525e-11 0)
(2.73142145824e-10 -3.69354121152e-11 0)
(2.91448190867e-10 -5.34630479838e-11 0)
(3.09692068724e-10 -8.09784127102e-11 0)
(3.18604554446e-10 -1.27278919556e-10 0)
(9.02068822118e-15 -8.33189463816e-18 0)
(9.1280032676e-15 -2.40579966571e-17 0)
(9.35329391632e-15 -3.87809460062e-17 0)
(9.70006510355e-15 -5.29538437706e-17 0)
(1.01687800416e-14 -6.70211523541e-17 0)
(1.07642716827e-14 -8.13360419736e-17 0)
(1.14925755684e-14 -9.61764063222e-17 0)
(1.23610213626e-14 -1.11772965855e-16 0)
(1.3378304813e-14 -1.28330320148e-16 0)
(1.45545574223e-14 -1.46040524661e-16 0)
(1.59014214939e-14 -1.65091643898e-16 0)
(1.74321337867e-14 -1.85673297734e-16 0)
(1.9161619224e-14 -2.07980472698e-16 0)
(2.11065954199e-14 -2.32216340864e-16 0)
(2.32856885484e-14 -2.58594511014e-16 0)
(2.57195610108e-14 -2.87340955532e-16 0)
(2.84310513496e-14 -3.18695754611e-16 0)
(3.14453268783e-14 -3.52914742022e-16 0)
(3.47900495213e-14 -3.90271104088e-16 0)
(3.84955553872e-14 -4.31056964558e-16 0)
(4.25950486262e-14 -4.75584976941e-16 0)
(4.71248101488e-14 -5.24189939005e-16 0)
(5.21244218065e-14 -5.77230439826e-16 0)
(5.76370066564e-14 -6.35090546894e-16 0)
(6.3709485949e-14 -6.98181538776e-16 0)
(7.0392853496e-14 -7.66943687333e-16 0)
(7.77424680827e-14 -8.41848092302e-16 0)
(8.58183646024e-14 -9.23398570075e-16 0)
(9.46855845901e-14 -1.01213359763e-15 0)
(1.04414526837e-13 -1.10862831176e-15 0)
(1.15081318759e-13 -1.21349656313e-15 0)
(1.26768209186e-13 -1.32739302364e-15 0)
(1.39563983221e-13 -1.45101534532e-15 0)
(1.53564399804e-13 -1.58510636789e-15 0)
(1.68872652587e-13 -1.73045637146e-15 0)
(1.85599854683e-13 -1.88790537036e-15 0)
(2.03865547833e-13 -2.05834544284e-15 0)
(2.2379823648e-13 -2.2427230912e-15 0)
(2.45535947179e-13 -2.44204162551e-15 0)
(2.69226813709e-13 -2.65736356366e-15 0)
(2.95029688211e-13 -2.88981303937e-15 0)
(3.23114778559e-13 -3.14057820918e-15 0)
(3.53664312103e-13 -3.41091364812e-15 0)
(3.86873225834e-13 -3.70214272324e-15 0)
(4.22949882897e-13 -4.01565993299e-15 0)
(4.62116815274e-13 -4.35293319951e-15 0)
(5.04611492328e-13 -4.71550610002e-15 0)
(5.50687114752e-13 -5.10500002235e-15 0)
(6.00613433352e-13 -5.52311622877e-15 0)
(6.54677591884e-13 -5.97163781128e-15 0)
(7.13184993043e-13 -6.4524315206e-15 0)
(7.76460186494e-13 -6.96744944984e-15 0)
(8.44847777644e-13 -7.51873055354e-15 0)
(9.18713355676e-13 -8.10840198097e-15 0)
(9.98444439111e-13 -8.73868020267e-15 0)
(1.08445143699e-12 -9.41187190766e-15 0)
(1.17716862346e-12 -1.01303746484e-14 0)
(1.27705512348e-12 -1.089667721e-14 0)
(1.38459590675e-12 -1.1713359679e-14 0)
(1.50030278718e-12 -1.25830931872e-14 0)
(1.62471542461e-12 -1.35086393064e-14 0)
(1.75840232521e-12 -1.44928490666e-14 0)
(1.90196183696e-12 -1.5538661575e-14 0)
(2.05602313611e-12 -1.66491022086e-14 0)
(2.22124720024e-12 -1.78272803566e-14 0)
(2.3983277633e-12 -1.90763866874e-14 0)
(2.58799224781e-12 -2.03996899187e-14 0)
(2.79100266881e-12 -2.18005330657e-14 0)
(3.00815650421e-12 -2.32823291482e-14 0)
(3.24028752561e-12 -2.48485563375e-14 0)
(3.48826658356e-12 -2.65027525254e-14 0)
(3.7530023409e-12 -2.82485093021e-14 0)
(4.03544194737e-12 -3.00894653309e-14 0)
(4.33657164888e-12 -3.20292991147e-14 0)
(4.65741732397e-12 -3.40717211494e-14 0)
(4.99904494033e-12 -3.62204654706e-14 0)
(5.36256092368e-12 -3.84792805991e-14 0)
(5.74911243118e-12 -4.08519199077e-14 0)
(6.15988752168e-12 -4.33421314292e-14 0)
(6.59611521439e-12 -4.59536471489e-14 0)
(7.05906542814e-12 -4.86901718249e-14 0)
(7.55004879274e-12 -5.15553714045e-14 0)
(8.07041632432e-12 -5.45528611137e-14 0)
(8.62155895625e-12 -5.76861933251e-14 0)
(9.2049069176e-12 -6.09588453252e-14 0)
(9.82192895079e-12 -6.43742071399e-14 0)
(1.04741313607e-11 -6.79355696021e-14 0)
(1.11630568874e-11 -7.16461128931e-14 0)
(1.18902833947e-11 -7.55088958327e-14 0)
(1.2657422368e-11 -7.95268462542e-14 0)
(1.3466117214e-11 -8.37027528691e-14 0)
(1.43180413564e-11 -8.80392591076e-14 0)
(1.52148961219e-11 -9.25388595221e-14 0)
(1.61584084108e-11 -9.72038994659e-14 0)
(1.71503281487e-11 -1.02036578892e-13 0)
(1.81924255155e-11 -1.07038961311e-13 0)
(1.92864879484e-11 -1.12212989133e-13 0)
(2.04343169194e-11 -1.17560506906e-13 0)
(2.16377244842e-11 -1.23083294231e-13 0)
(2.28985296071e-11 -1.28783110558e-13 0)
(2.42185542619e-11 -1.34661754462e-13 0)
(2.55996193151e-11 -1.40721140609e-13 0)
(2.70435401969e-11 -1.46963398217e-13 0)
(2.85521223704e-11 -1.53390995699e-13 0)
(3.01271566094e-11 -1.60006897077e-13 0)
(3.17704140997e-11 -1.66814757009e-13 0)
(3.3483641383e-11 -1.73819162657e-13 0)
(3.52685551646e-11 -1.8102593241e-13 0)
(3.7126837012e-11 -1.88442483584e-13 0)
(3.90601279778e-11 -1.96078283801e-13 0)
(4.10700231838e-11 -2.03945403886e-13 0)
(4.31580664147e-11 -2.12059193952e-13 0)
(4.53257447748e-11 -2.20439108955e-13 0)
(4.7574483474e-11 -2.29109715671e-13 0)
(4.99056408209e-11 -2.38101919921e-13 0)
(5.23205035162e-11 -2.47454461239e-13 0)
(5.48202823565e-11 -2.57215732417e-13 0)
(5.74061084796e-11 -2.67445993845e-13 0)
(6.00790303106e-11 -2.78220067798e-13 0)
(6.2840011394e-11 -2.89630616511e-13 0)
(6.56899293398e-11 -3.01792130788e-13 0)
(6.86295761515e-11 -3.14845784011e-13 0)
(7.16596602625e-11 -3.28965341029e-13 0)
(7.47808106696e-11 -3.44364354232e-13 0)
(7.79935836389e-11 -3.6130493208e-13 0)
(8.12984725499e-11 -3.80108431299e-13 0)
(8.46959215729e-11 -4.01168506346e-13 0)
(8.81863440153e-11 -4.2496705322e-13 0)
(9.17701463589e-11 -4.52093715539e-13 0)
(9.54477592322e-11 -4.8326978722e-13 0)
(9.92196768404e-11 -5.19377559685e-13 0)
(1.0308650672e-10 -5.61496437767e-13 0)
(1.07049032118e-10 -6.10947509513e-13 0)
(1.11108289826e-10 -6.69348731651e-13 0)
(1.15265667004e-10 -7.38683528939e-13 0)
(1.19523021362e-10 -8.21386465865e-13 0)
(1.23882830192e-10 -9.20450826665e-13 0)
(1.28348375167e-10 -1.03956457336e-12 0)
(1.32923971642e-10 -1.18328344916e-12 0)
(1.37615253592e-10 -1.35725327301e-12 0)
(1.42429528467e-10 -1.56849821835e-12 0)
(1.4737622034e-10 -1.82579884755e-12 0)
(1.52467425142e-10 -2.14019409763e-12 0)
(1.57718608834e-10 -2.52565723908e-12 0)
(1.63149488426e-10 -3.00002027669e-12 0)
(1.68785146978e-10 -3.58625971369e-12 0)
(1.7465744642e-10 -4.3143182345e-12 0)
(1.80806813423e-10 -5.22373762234e-12 0)
(1.87284474797e-10 -6.36754630557e-12 0)
(1.9415518625e-10 -7.81813094187e-12 0)
(2.01500369393e-10 -9.67631715275e-12 0)
(2.0942118584e-10 -1.20857557697e-11 0)
(2.18040020347e-10 -1.52562489016e-11 0)
(2.27496051696e-10 -1.95023187217e-11 0)
(2.37923344118e-10 -2.53076409368e-11 0)
(2.49381523473e-10 -3.34314581853e-11 0)
(2.61664941996e-10 -4.5073102337e-11 0)
(2.73824103275e-10 -6.20712304237e-11 0)
(2.83119033445e-10 -8.68986671996e-11 0)
(2.83426643773e-10 -1.21379722241e-10 0)
(9.00885652989e-15 -6.90466758447e-18 0)
(9.11665529178e-15 -2.03491015138e-17 0)
(9.34239692108e-15 -3.32653994138e-17 0)
(9.68937922694e-15 -4.58376718076e-17 0)
(1.01580483961e-14 -5.8335618504e-17 0)
(1.07532702837e-14 -7.10205686469e-17 0)
(1.14811147369e-14 -8.4122649121e-17 0)
(1.23489353188e-14 -9.78444350955e-17 0)
(1.33654416805e-14 -1.12369993801e-16 0)
(1.45407718843e-14 -1.27873044574e-16 0)
(1.58865697271e-14 -1.44523134941e-16 0)
(1.7416069936e-14 -1.62490138518e-16 0)
(1.91441928386e-14 -1.81947584168e-16 0)
(2.10876494702e-14 -2.03075228147e-16 0)
(2.32650577894e-14 -2.26061150871e-16 0)
(2.56970705499e-14 -2.51103559671e-16 0)
(2.84065153327e-14 -2.78412412255e-16 0)
(3.14185472417e-14 -3.08210933703e-16 0)
(3.47608147744e-14 -3.40737074023e-16 0)
(3.84636394047e-14 -3.76244937475e-16 0)
(4.25602094351e-14 -4.15006204995e-16 0)
(4.7086788699e-14 -4.57311564763e-16 0)
(5.20829407181e-14 -5.03472161824e-16 0)
(5.75917689378e-14 -5.53821074813e-16 0)
(6.36601736825e-14 -6.08714825769e-16 0)
(7.03391264868e-14 -6.68534927499e-16 0)
(7.76839624702e-14 -7.33689471694e-16 0)
(8.57546914322e-14 -8.04614759969e-16 0)
(9.46163283466e-14 -8.81776979147e-16 0)
(1.04339243935e-13 -9.65673921251e-16 0)
(1.14999535998e-13 -1.05683674799e-15 0)
(1.26679422163e-13 -1.15583179879e-15 0)
(1.39467654711e-13 -1.26326244072e-15 0)
(1.53459958107e-13 -1.37977095811e-15 0)
(1.68759489836e-13 -1.50604047877e-15 0)
(1.85477325133e-13 -1.64279693331e-15 0)
(2.03732966125e-13 -1.79081104322e-15 0)
(2.2365487588e-13 -1.95090033259e-15 0)
(2.45381037808e-13 -2.12393115793e-15 0)
(2.69059540766e-13 -2.31082074949e-15 0)
(2.94849190191e-13 -2.51253925695e-15 0)
(3.22920145477e-13 -2.7301117915e-15 0)
(3.53454583735e-13 -2.96462045553e-15 0)
(3.86647389974e-13 -3.21720635042e-15 0)
(4.22706873654e-13 -3.48907155196e-15 0)
(4.61855511403e-13 -3.78148104239e-15 0)
(5.04330715614e-13 -4.09576458683e-15 0)
(5.50385628462e-13 -4.43331854137e-15 0)
(6.00289940759e-13 -4.79560757903e-15 0)
(6.54330734881e-13 -5.18416631919e-15 0)
(7.12813350858e-13 -5.60060084498e-15 0)
(7.76062274524e-13 -6.04659009261e-15 0)
(8.44422046418e-13 -6.52388709565e-15 0)
(9.18258189968e-13 -7.0343200667e-15 0)
(9.97958157213e-13 -7.57979329798e-15 0)
(1.08393229016e-12 -8.16228786193e-15 0)
(1.17661479561e-12 -8.78386209227e-15 0)
(1.27646473099e-12 -9.44665182536e-15 0)
(1.38396699859e-12 -1.01528703814e-14 0)
(1.4996333453e-12 -1.09048082649e-14 0)
(1.6240033645e-12 -1.1704832563e-14 0)
(1.75764549684e-12 -1.25553860209e-14 0)
(1.90115802603e-12 -1.34589857733e-14 0)
(2.05517006553e-12 -1.4418221712e-14 0)
(2.22034253205e-12 -1.54357544673e-14 0)
(2.39736910093e-12 -1.65143129869e-14 0)
(2.58697713867e-12 -1.76566916908e-14 0)
(2.78992860732e-12 -1.88657471869e-14 0)
(3.0070209352e-12 -2.01443945316e-14 0)
(3.23908784819e-12 -2.14956030203e-14 0)
(3.48700015535e-12 -2.29223914989e-14 0)
(3.75166648274e-12 -2.44278231866e-14 0)
(4.03403394846e-12 -2.60150000068e-14 0)