/*--------------------------------*- C++ -*----------------------------------*\
| =========                 |                                                 |
| \\      /  F ield         | OpenFOAM: The Open Source CFD Toolbox           |
|  \\    /   O peration     | Version:  2106                                  |
|   \\  /    A nd           | Website:  www.openfoam.com                      |
|    \\/     M anipulation  |                                                 |
\*---------------------------------------------------------------------------*/
FoamFile
{
    version     2.0;
    format      ascii;
    arch        "LSB;label=32;scalar=64";
    class       volScalarField;
    location    "0.31";
    object      p;
}
// * * * * * * * * * * * * * * * * * * * * * * * * * * * * * * * * * * * * * //

dimensions      [0 2 -2 0 0 0 0];

internalField   nonuniform List<scalar> 
9600
(
2.25352241781
-0.644490108679
-1.54871957462
-1.93432896539
-2.15366163178
-2.29360429528
-2.39750917076
-2.48505893211
-2.56455852665
-2.63994862842
-2.71332237199
-2.78583091904
-2.85810372334
-2.93047183392
-3.0030920545
-3.07602016763
-3.14925610904
-3.22277166556
-3.2965264349
-3.37047729746
-3.4445835199
-3.51881064743
-3.59312816852
-3.66751201316
-3.74194306355
-3.81640627661
-3.89088999685
-3.96538526813
-4.03988518356
-4.11438440636
-4.18887884934
-4.26336530156
-4.33784108789
-4.41230392663
-4.4867518103
-4.56118284796
-4.63559515537
-4.70998679167
-4.78435569222
-4.85869966599
-4.93301639055
-5.00730333289
-5.08155780366
-5.15577699578
-5.22995783739
-5.30409710017
-5.37819129432
-5.45223666216
-5.52622917372
-5.60016449707
-5.67403796702
-5.74784456091
-5.82157887983
-5.89523505282
-5.96880675833
-6.04228725313
-6.11566932292
-6.18894529162
-6.26210702961
-6.33514585536
-6.40805249311
-6.48081707646
-6.55342910028
-6.62587738416
-6.69815002367
-6.77023432314
-6.84211679779
-6.91378321136
-6.98521850304
-7.05640666689
-7.12733071178
-7.19797268081
-7.26831361594
-7.3383334859
-7.40801115462
-7.47732439119
-7.54624981979
-7.61476278554
-7.68283727971
-7.75044599163
-7.81756033481
-7.88415030846
-7.95018431301
-8.01562913862
-8.0804500932
-8.14461100915
-8.20807405254
-8.27079960799
-8.33274637219
-8.39387141203
-8.45413005821
-8.51347576559
-8.57186007065
-8.62923268226
-8.68554145627
-8.74073221477
-8.79474869504
-8.84753263407
-8.89902389028
-8.94916044578
-8.99787837889
-9.04511155104
-9.09079173629
-9.13484878694
-9.17721049673
-9.21780288707
-9.25655011377
-9.29337437174
-9.32819576524
-9.36093275591
-9.39150219554
-9.41981922534
-9.4457972661
-9.4693477082
-9.49038047032
-9.50880438944
-9.52452695974
-9.53745415315
-9.54749070111
-9.554540639
-9.55850713864
-9.5592921653
-9.55679660005
-9.55092059196
-9.54156447401
-9.52862902512
-9.5120122405
-9.49161222167
-9.46732667942
-9.43905359239
-9.40669074546
-9.37013528794
-9.32928375596
-9.28403203903
-9.23427565298
-9.17990880451
-9.12082334639
-9.0569090432
-8.98805332742
-8.91413994489
-8.8350463811
-8.75064197314
-8.66078717945
-8.56533083535
-8.46410525576
-8.35692057311
-8.24355881295
-8.12376504956
-7.99723446384
-7.8635936327
-7.72237201094
-7.5729584872
-7.41452857505
-7.24591839873
-7.06541054546
-6.87041976527
-6.6570072771
-6.41934993763
-6.15809728645
-5.93482253881
0.341982859149
-0.840374390693
-1.44904859995
-1.80307091255
-2.04568822411
-2.21625166536
-2.34432324903
-2.44882586562
-2.53990173834
-2.6231802536
-2.70195294164
-2.77816982298
-2.85299014363
-2.92710208263
-3.00090793423
-3.0746344497
-3.14840119526
-3.22226397229
-3.29624140064
-3.37033143631
-3.44452241932
-3.51879792333
-3.593141299
-3.66753728336
-3.7419723939
-3.81643521555
-3.89091633472
-3.96540814845
-4.03990453433
-4.11440053527
-4.18889221621
-4.26337644743
-4.33785057063
-4.412312236
-4.48675934338
-4.56118993333
-4.63560207183
-4.70999378692
-4.78436296739
-4.85870735793
-4.93302461728
-5.00731221283
-5.08156743656
-5.15578741381
-5.22996912497
-5.30410935441
-5.37820459549
-5.45225108901
-5.52624479114
-5.60018137611
-5.67405619765
-5.74786425285
-5.82160016368
-5.89525806138
-5.96883159052
-6.04231399339
-6.11569809515
-6.18897625388
-6.26214034371
-6.33518167147
-6.40809095842
-6.48085836115
-6.55347339739
-6.62592487756
-6.69820089435
-6.77028879066
-6.84217510645
-6.91384558657
-6.98528516002
-7.05647785512
-7.12740671188
-7.19805375503
-7.26840000594
-7.33842547327
-7.40810908332
-7.4774285992
-7.54636058691
-7.61488039334
-7.68296210219
-7.75057847347
-7.81770087709
-7.88429923192
-7.95034195701
-8.01579593752
-8.08062651225
-8.14479745932
-8.20827091939
-8.27100733231
-8.33296546333
-8.3941023756
-8.45437332578
-8.51373174581
-8.57212926482
-8.62951570423
-8.68583891847
-8.74104458947
-8.79507634515
-8.84787599485
-8.89938357076
-8.94953708124
-8.99827254129
-9.04552374058
-9.09122243804
-9.13529857611
-9.17767993851
-9.21829242645
-9.25706017372
-9.29390555722
-9.32874874409
-9.36150799304
-9.39209987348
-9.42043943949
-9.4464403964
-9.4700142775
-9.49107084855
-9.50951883202
-9.52526587194
-9.53821810647
-9.54828013524
-9.55535576121
-9.55934824678
-9.56015991595
-9.55769184336
-9.55184398157
-9.54251607745
-9.52960732013
-9.51301786516
-9.49264628884
-9.46839069449
-9.4401494724
-9.40782115894
-9.37130382087
-9.33049492837
-9.28529120097
-9.23558928492
-9.18128551815
-9.12227446888
-9.05844861876
-8.98969828564
-8.91591120092
-8.83697067184
-8.75275309925
-8.66312699571
-8.56795171793
-8.46707430099
-8.36032384706
-8.2475062319
-8.12839862458
-8.0027410745
-7.87022388365
-7.73047034664
-7.58301559866
-7.4272769549
-7.26251812206
-7.08781976349
-6.90213218771
-6.70448452353
-6.49378763341
-6.27005378249
-6.05463934125
-0.633859691789
-1.11522852365
-1.50648893624
-1.79810324876
-2.01967704614
-2.18761322446
-2.31971499747
-2.42950347747
-2.52536228848
-2.61250704261
-2.69424896924
-2.77268317398
-2.84913009194
-2.92441921952
-2.99906693484
-3.07338876361
-3.14757163784
-3.22172163682
-3.29589469433
-3.37011603007
-3.44439336665
-3.51872472131
-3.59310333931
-3.6675208478
-3.74196854269
-3.816438268
-3.89092276997
-3.96541585528
-4.0399123576
-4.1144079361
-4.18889897152
-4.26338249548
-4.33785596979
-4.41231711764
-4.48676385859
-4.56119420988
-4.63560619302
-4.70999780744
-4.78436695038
-4.85871136531
-4.93302869167
-5.00731641157
-5.08157182603
-5.15579208188
-5.22997413697
-5.30411475744
-5.37821050113
-5.4522575666
-5.52625187761
-5.60018909483
-5.6740645728
-5.74787330072
-5.82160990477
-5.89526854393
-5.96884287426
-6.04232613245
-6.11571114576
-6.18899027186
-6.26215538273
-6.33519779413
-6.40810824486
-6.48087690844
-6.55349331833
-6.62594627102
-6.69822383604
-6.77031337431
-6.84220144755
-6.91387379035
-6.98531530409
-7.0565100217
-7.12744102382
-7.19809034986
-7.26843899369
-7.33846695579
-7.40815320713
-7.4774755444
-7.54641049951
-7.61493337762
-7.6830182966
-7.75063808604
-7.81776411273
-7.88436622578
-7.95041283102
-8.01587089021
-8.08070578237
-8.1448812209
-8.20835928812
-8.2711004708
-8.33306362259
-8.39420582068
-8.45448225178
-8.51384631208
-8.57224968612
-8.62964223919
-8.68597180265
-8.74118401433
-8.7952224811
-8.84802903903
-8.89954376832
-8.94970459188
-8.99844748325
-9.04570622983
-9.09141258679
-9.13549655116
-9.17788601254
-9.21850683486
-9.25728301534
-9.2941369273
-9.32898889364
-9.36175731008
-9.39235894319
-9.42070876283
-9.44672013594
-9.47030478032
-9.49137261637
-9.50983225889
-9.52559127714
-9.53855604214
-9.5486314174
-9.55572107503
-9.55972803155
-9.56055459747
-9.55810226927
-9.55227167576
-9.54296298034
-9.53007609006
-9.51351049142
-9.49316508997
-9.46893844548
-9.44072918859
-9.40843624541
-9.37195846287
-9.33119452716
-9.28604240484
-9.23639967357
-9.18216412467
-9.12323295398
-9.05950198927
-8.99086482958
-8.91721269283
-8.83843415758
-8.75441307795
-8.6650267084
-8.57014471534
-8.46962768837
-8.36332296829
-8.25106059949
-8.13264976102
-8.00787324147
-7.87648065155
-7.73818032074
-7.59263233653
-7.43944371075
-7.27817450762
-7.10836907558
-6.92966905603
-6.7420926371
-6.54615492576
-6.34293033536
-6.14076227267
-1.18532134067
-1.37166608947
-1.61411570226
-1.83658263045
-2.02377314019
-2.17780109783
-2.3062386741
-2.4165291441
-2.51432372256
-2.60368385237
-2.68745473953
-2.7675811002
-2.84537069298
-2.92169253225
-2.9971170494
-3.07201310669
-3.14661427342
-3.22106477175
-3.29545085495
-3.36982128799
-3.44420143405
-3.51860260031
-3.59302831653
-3.66747659238
-3.74194408729
-3.81642623228
-3.89091825144
-3.96541565388
-4.03991445381
-4.11441114376
-4.18890262047
-4.26338619173
-4.33785950721
-4.41232043402
-4.48676696776
-4.56119715221
-4.63560899737
-4.71000048495
-4.78436954115
-4.85871393466
-4.93303129507
-5.00731909835
-5.08157465657
-5.15579512549
-5.22997745932
-5.30411838115
-5.37821440306
-5.45226175258
-5.52625637809
-5.60019394271
-5.67406980302
-5.74787892342
-5.8216159235
-5.89527498155
-5.96884978024
-6.04233354843
-6.11571912121
-6.1889988621
-6.26216460904
-6.33520769265
-6.40811888816
-6.48088837489
-6.55350566991
-6.62595954343
-6.69823803496
-6.77032850531
-6.84221758855
-6.91389104034
-6.98533372691
-7.05652966597
-7.12746195551
-7.19811266055
-7.26846277051
-7.3384922555
-7.40818008074
-7.47750407897
-7.54644080953
-7.61496556165
-7.68305242627
-7.75067423683
-7.81780238585
-7.8844067324
-7.95045567476
-8.01591617773
-8.08075363035
-8.14493174102
-8.20841258646
-8.27115666197
-8.33312282741
-8.39426816616
-8.45454788857
-8.51391543118
-8.57232249618
-8.62971888383
-8.68605235091
-8.74126857541
-8.79531126399
-8.84812228836
-8.89964169705
-8.94980744062
-8.99855531519
-9.04581925963
-9.09153103929
-9.13562058668
-9.17801591915
-9.21864302607
-9.25742582069
-9.29428645197
-9.32914519304
-9.36192054189
-9.39252930683
-9.42088637563
-9.44690501921
-9.470497021
-9.49157256814
-9.51004034247
-9.52580774971
-9.53878115938
-9.54886571071
-9.55596530307
-9.5599828367
-9.5608203546
-9.55837953119
-9.55256158116
-9.54326701019
-9.53039546254
-9.5138465408
-9.49351990707
-9.46931502737
-9.44113119629
-9.40886776257
-9.37242422132
-9.33170052799
-9.28659648295
-9.23701132413
-9.18284441358
-9.12399527205
-9.06036311101
-8.99184562846
-8.91833841787
-8.83973537536
-8.75592778405
-8.6668026908
-8.57224147672
-8.47211879962
-8.36630039055
-8.25464104121
-8.13698249734
-8.01315019842
-7.88295146388
-7.74617365647
-7.60258600561
-7.45194817226
-7.29403141954
-7.12865957743
-6.95579499271
-6.77569940876
-6.58899683134
-6.39654743687
-6.20146108656
-1.52266772226
-1.57442827438
-1.71832524245
-1.8826180862
-2.03695068683
-2.17500836386
-2.29716233024
-2.40595071762
-2.50439469402
-2.59522486029
-2.68063237578
-2.76227006211
-2.84133986141
-2.91869362818
-2.99492296516
-3.07043171308
-3.14549053062
-3.22027732922
-3.29490687894
-3.36945120026
-3.44395389808
-3.51844030953
-3.59292433555
-3.66741180349
-3.74190527051
-3.81640429068
-3.89090700774
-3.96541097837
-4.03991363334
-4.11441247173
-4.18890506509
-4.26338913414
-4.33786260509
-4.41232351725
-4.48676995148
-4.56120000443
-4.63561171717
-4.71000308633
-4.7843720528
-4.85871641907
-4.93303381223
-5.0073217019
-5.08157741508
-5.15579811262
-5.229980757
-5.3041220496
-5.37821847007
-5.45226624834
-5.52626132158
-5.60019933983
-5.67407566877
-5.74788530679
-5.8216228284
-5.89528239519
-5.96885771105
-6.04234203084
-6.11572819755
-6.18900856629
-6.26217497917
-6.33521878003
-6.40813076553
-6.48090111444
-6.55351933744
-6.62597422575
-6.69825383742
-6.77034551225
-6.84223584254
-6.91391058772
-6.98535463862
-7.05655200832
-7.12748577552
-7.1981380144
-7.26848975211
-7.3385209727
-7.40821061506
-7.47753650089
-7.54647522972
-7.6150021277
-7.68309125677
-7.75071540423
-7.81784598522
-7.88445291722
-7.95050458914
-8.01596789921
-8.08080822243
-8.14498933053
-8.20847336187
-8.27122080675
-8.33319046267
-8.39433937505
-8.45462278795
-8.51399418768
-8.5724052808
-8.62980580261
-8.68614344437
-8.74136393748
-8.79541109534
-8.8482267845
-8.89975094337
-8.94992142071
-8.99867405194
-9.04594283534
-9.09165958278
-9.13575413148
-9.17815452831
-9.21878689944
-9.25757519467
-9.2944414249
-9.3293057753
-9.36208684774
-9.39270166057
-9.42106517983
-9.44709047004
-9.47068918901
-9.49177171297
-9.51024695573
-9.52602233481
-9.53900401627
-9.54909716918
-9.55620599251
-9.56023354432
-9.56108193808
-9.55865275137
-9.55284748587
-9.54356715888
-9.53071166924
-9.51418069739
-9.49387424975
-9.46969254251
-9.44153569854
-9.40930380786
-9.37289712226
-9.33221664782
-9.2871639304
-9.23764031067
-9.18354725314
-9.12478662396
-9.06126070519
-8.99287154057
-8.91951995457
-8.84110554274
-8.75752676975
-8.66868045053
-8.57446018282
-8.47475530565
-8.36945006257
-8.25842300596
-8.14154647401
-8.01868566122
-7.88969987942
-7.75444396997
-7.61277446678
-7.46456286482
-7.30971806891
-7.14821903861
-6.98016406528
-6.8058310547
-6.62563784234
-6.43991052229
-6.24929159132
-1.72674244388
-1.7217611369
-1.80573767842
-1.92652686671
-2.0531697117
-2.17584916726
-2.29074619678
-2.39694257213
-2.49522550536
-2.58701467098
-2.67377553886
-2.75679046039
-2.83709436552
-2.91548105919
-2.99253838594
-3.06869090582
-3.14423883351
-3.21939028557
-3.29428720254
-3.36902465403
-3.44366492359
-3.51824793605
-3.59279856796
-3.66733207087
-3.74185616711
-3.81637534383
-3.8908910543
-3.96540319347
-4.03991081254
-4.11441252758
-4.18890669373
-4.26339155829
-4.33786538337
-4.41232640388
-4.48677279883
-4.56120272359
-4.6356142819
-4.71000551048
-4.78437436346
-4.85871865787
-4.93303604306
-5.00732399414
-5.0815798406
-5.15580072277
-5.22998359316
-5.30412514501
-5.37822183122
-5.45226987507
-5.52626520753
-5.60020348528
-5.67408009048
-5.74789003439
-5.82162789917
-5.89528784324
-5.96886357371
-6.04234834834
-6.11573499438
-6.18901587005
-6.26218283171
-6.33522723107
-6.40813986715
-6.48091089825
-6.55352981038
-6.62598540886
-6.69826578556
-6.77035828323
-6.84224947893
-6.91392513953
-6.98537018263
-7.05656863013
-7.12750353633
-7.19815695041
-7.26850991381
-7.33854244507
-7.40823348239
-7.47756080895
-7.54650100712
-7.61502943521
-7.6831201848
-7.75074602804
-7.81787836332
-7.88448713337
-7.95054075414
-8.01600610446
-8.08084852402
-8.14503179822
-8.20851812729
-8.27126803148
-8.33324026456
-8.39439184181
-8.45467806501
-8.51405247411
-8.57246674444
-8.62987054627
-8.68621154794
-8.74143554894
-8.79548642308
-8.8483059768
-8.89983406291
-8.95000853495
-8.99876528866
-9.04603836964
-9.09175968266
-9.13585898943
-9.17826426583
-9.21890164352
-9.25769508534
-9.29456659575
-9.32943637159
-9.36222304688
-9.39284366471
-9.42121322553
-9.44724474972
-9.4708498271
-9.49193891549
-9.51042115453
-9.5262041221
-9.53919390312
-9.54929556724
-9.55641336074
-9.56045061726
-9.5613098053
-9.5588925999
-9.55310032374
-9.54383435082
-9.53099519017
-9.51448287467
-9.49419765496
-9.47004018489
-9.44191139158
-9.40971241113
-9.37334458875
-9.33270995217
-9.28771139609
-9.23825221731
-9.18423627965
-9.1255680994
-9.06215290505
-8.99389670397
-8.92070551724
-8.84248494675
-8.75914061747
-8.67057833512
-8.57670291946
-8.47741775591
-8.37262470546
-8.26222383853
-8.14611429184
-8.02419524709
-7.89636838986
-7.76254094073
-7.62263296961
-7.47658946896
-7.32439844501
-7.16611115462
-7.00186280939
-6.83188103421
-6.65640481488
-6.47547089602
-6.28890602474
-1.8498713114
-1.82441269679
-1.87377263249
-1.96393224574
-2.0688571531
-2.17817911493
-2.28601601115
-2.38924000855
-2.48691376454
-2.57930414978
-2.66717554424
-2.75141934887
-2.83287446103
-2.91225236178
-2.99012013985
-3.06691208804
-3.14295128495
-3.21847230173
-3.29364223745
-3.36857816295
-3.44336062281
-3.51804408644
-3.59266474602
-3.66724629752
-3.74180268466
-3.81634329777
-3.89087291366
-3.96539386546
-4.03990690706
-4.1144118145
-4.18890776944
-4.26339357715
-4.33786784304
-4.41232901499
-4.48677538627
-4.56120518336
-4.63561657471
-4.71000765234
-4.78437638176
-4.8587205843
-4.93303793678
-5.00732593302
-5.08158190129
-5.15580294651
-5.22998599035
-5.30412773591
-5.37822464057
-5.45227293363
-5.52626854744
-5.60020712439
-5.674084045
-5.74789432326
-5.82163252129
-5.89529278434
-5.96886884113
-6.04235397739
-6.1157410225
-6.18902233186
-6.26218976884
-6.33523468805
-6.40814788608
-6.48091950649
-6.55353902125
-6.62599524565
-6.69827630301
-6.7703695486
-6.84226154429
-6.91393804717
-6.98538398326
-7.05658338218
-7.12751929021
-7.19817374276
-7.2685277894
-7.33856147757
-7.40825375399
-7.47758237116
-7.5465238829
-7.61505366629
-7.68314585798
-7.75077323898
-7.81790717356
-7.88451758384
-7.9505729057
-8.01604004652
-8.08088434835
-8.14506957929
-8.20855793561
-8.2713099582
-8.33328441893
-8.39443833715
-8.45472701772
-8.51410397497
-8.57252084289
-8.6299273099
-8.68627109303
-8.74149801357
-8.7955519172
-8.84837452438
-8.89990564407
-8.95008320062
-8.99884313297
-9.04611945556
-9.09184419275
-9.13594714383
-9.17835621357
-9.21899744281
-9.25779476116
-9.29467028102
-9.3295443585
-9.36233563854
-9.39296099483
-9.42133537948
-9.44737191919
-9.47098228606
-9.49207697251
-9.51056514321
-9.52635448711
-9.5393512861
-9.54946058888
-9.55658658443
-9.56063262021
-9.56150153271
-9.55909539637
-9.55331547777
-9.54406316266
-9.53123947391
-9.51474504857
-9.4944805243
-9.4703469157
-9.44224582193
-9.41007942792
-9.37375035246
-9.33316176262
-9.28821773369
-9.23882325945
-9.18488447981
-9.12630872877
-9.06300435954
-8.99488094643
-8.921849098
-8.84382029471
-8.76070732177
-8.67242428118
-8.57888588451
-8.48000797967
-8.37570808556
-8.26590517106
-8.15052118793
-8.02948281598
-7.90272440387
-7.77019193948
-7.63184968744
-7.48768931764
-7.33774185773
-7.18208973747
-7.02086936146
-6.85426560723
-6.68243624235
-6.50537901674
-6.32289056043
-1.92391286129
-1.8928616524
-1.92279242362
-1.99256448635
-2.08173296109
-2.18060960219
-2.28248866795
-2.38296134961
-2.47988795103
-2.57263412172
-2.66137124703
-2.74663754012
-2.82908240572
-2.90933000792
-2.98791886764
-3.06528548812
-3.1417694669
-3.21762694746
-3.29304656634
-3.36816467126
-3.44307805626
-3.51785427352
-3.5925397578
-3.66716605412
-3.74175238209
-3.81631295834
-3.89085555524
-3.96538475437
-4.03990289364
-4.11441082851
-4.18890850438
-4.26339523816
-4.3378699434
-4.41233125846
-4.48677760066
-4.56120727741
-4.63561851667
-4.71000945049
-4.78437806486
-4.85872218485
-4.93303950667
-5.00732753627
-5.08158359389
-5.15580476039
-5.22998793198
-5.30412982546
-5.37822689932
-5.45227537308
-5.52627119133
-5.60020999111
-5.67408713884
-5.74789765472
-5.82163609485
-5.89529659736
-5.96887290923
-6.04235834373
-6.11574573256
-6.18902741547
-6.2621952502
-6.33524059002
-6.40815422587
-6.48092629259
-6.55354625878
-6.62600295087
-6.6982845171
-6.7703783273
-6.84227093674
-6.91394809506
-6.98539472668
-7.056594857
-7.12753153013
-7.19818678792
-7.26854168822
-7.33857627794
-7.40826949551
-7.47759908767
-7.54654160733
-7.61507243744
-7.68316572699
-7.75079425889
-7.81792938023
-7.88454100102
-7.95059757525
-8.01606604603
-8.08091177861
-8.14509852571
-8.20858844539
-8.27134207824
-8.33331824665
-8.39447400769
-8.45476465427
-8.51414364782
-8.57256258238
-8.62997119441
-8.68631725851
-8.74154656734
-8.79560289899
-8.84842792602
-8.89996145586
-8.95014149101
-8.9989040336
-9.04618301107
-9.09191049658
-9.1360163739
-9.17842849364
-9.21907281792
-9.25787325425
-9.29475202888
-9.32962963324
-9.36242468327
-9.39305383799
-9.42143200698
-9.44747251457
-9.47108721902
-9.4921866625
-9.51067986318
-9.52647450459
-9.53947714471
-9.54959304884
-9.55672638917
-9.56078040095
-9.56165799299
-9.55926177024
-9.55349328178
-9.54425385988
-9.53144476826
-9.5149671748
-9.49472232861
-9.4706117884
-9.44253777653
-9.41040334761
-9.37411221986
-9.33356871945
-9.28867824794
-9.23934750022
-9.18548458979
-9.12699942541
-9.06380358788
-8.99581016602
-8.92293390711
-8.8450915651
-8.76220249613
-8.67418855753
-8.58097362829
-8.48248447572
-8.37865173976
-8.26941042865
-8.15470159751
-8.03447404456
-7.90868755636
-7.77731675488
-7.64035710015
-7.49783175034
-7.34979851243
-7.19635880118
-7.03765277242
-6.87385734112
-6.70513468201
-6.5315725316
-6.35319111548
-1.96614534717
-1.93458057553
-1.95422576636
-2.01167105409
-2.09068455019
-2.18246335077
-2.28008069653
-2.37846860976
-2.47475026483
-2.56768398731
-2.6570164123
-2.74302029807
-2.82619596353
-2.90709493716
-2.98622907708
-3.06403326319
-3.14085758758
-3.21697345067
-3.2925853435
-3.36784405507
-3.44285867948
-3.51770672545
-3.59244229276
-3.66710229606
-3.74171297974
-3.81628923667
-3.89084192317
-3.96537754076
-4.03989965999
-4.11440997661
-4.18890901897
-4.26339649726
-4.3378715555
-4.41233297634
-4.48677928719
-4.56120887451
-4.63562000666
-4.71001083228
-4.78437935483
-4.85872341726
-4.93304072806
-5.00732878696
-5.08158489581
-5.15580613267
-5.22998939073
-5.30413139845
-5.3782286073
-5.45227721322
-5.52627317479
-5.60021215548
-5.67408950107
-5.74790020805
-5.82163882664
-5.89529949612
-5.96887598587
-6.04236163527
-6.11574927863
-6.18903124775
-6.26219939398
-6.33524506235
-6.40815902721
-6.48093141875
-6.55355171477
-6.62600875558
-6.69829070061
-6.77038492314
-6.84227797764
-6.91395561847
-6.98540276983
-7.05660344352
-7.12754067776
-7.19819653098
-7.26855207334
-7.33858733282
-7.40828122536
-7.47761151427
-7.54655478924
-7.61508643578
-7.68318056755
-7.75080993855
-7.81794590383
-7.88455840437
-7.95061590808
-8.01608534576
-8.08093208082
-8.14511988346
-8.20861091655
-8.27136571819
-8.33334312925
-8.39450022121
-8.45479227883
-8.51417274796
-8.57259321049
-8.63000341955
-8.68635116075
-8.74158216901
-8.79564017812
-8.84846688412
-8.90000210807
-8.95018388284
-8.9989482857
-9.04622916931
-9.09195859401
-9.13606654382
-9.17848084738
-9.21912744235
-9.25793027606
-9.29481159893
-9.32969192227
-9.36248979454
-9.39312177395
-9.42150279345
-9.44754635694
-9.47116447088
-9.49226768318
-9.51076494962
-9.52656394695
-9.53957142017
-9.54969283921
-9.55683246198
-9.56089351851
-9.56177889424
-9.55939149191
-9.55363332376
-9.54440584948
-9.53161044717
-9.51514869008
-9.49492249199
-9.47083407409
-9.44278630904
-9.41068300273
-9.37442877408
-9.33392905379
-9.28909064814
-9.23982202253
-9.1860331707
-9.12763627181
-9.06454591221
-8.99667867744
-8.9239534037
-8.84629159249
-8.76361821501
-8.67586215615
-8.58295597872
-8.48483628532
-8.38144480119
-8.27273005882
-8.15864910138
-8.03916914872
-7.91427073991
-7.78395121606
-7.64823010024
-7.50715520687
-7.36080723653
-7.20930802712
-7.05281630648
-6.89153244931
-6.72567581896
-6.55546828559
-6.38117506095
-1.98539344098
-1.95429654327
-1.96952085616
-2.02118788964
-2.09524529638
-2.18344711555
-2.27885080948
-2.37611966907
-2.47203185464
-2.56504249818
-2.654677648
-2.7410681625
-2.82463246523
-2.90588085832
-2.98530920068
-3.06335045102
-3.14035971149
-3.21661626432
-3.29233302605
-3.36766852859
-3.44273850999
-3.5176258957
-3.59238906367
-3.66706833886
-3.74169153576
-3.8162762511
-3.89083446887
-3.96537360162
-4.03989790661
-4.11440955071
-4.18890936663
-4.26339726974
-4.3378725272
-4.41233400664
-4.4867803062
-4.56120985915
-4.63562095121
-4.71001172575
-4.78438019816
-4.85872423673
-4.93304155327
-5.00732963336
-5.0815857658
-5.15580704288
-5.22999036476
-5.30413245344
-5.37822975471
-5.45227844576
-5.52627449949
-5.60021361183
-5.67409110197
-5.74790192615
-5.82164064394
-5.89530141943
-5.96887803588
-6.0423638312
-6.1157516379
-6.18903379617
-6.26220216451
-6.33524807079
-6.40816225884
-6.4809348567
-6.55355536342
-6.62601263431
-6.69829482576
-6.77038930481
-6.84228263182
-6.91396057738
-6.98540806932
-7.05660910263
-7.12754670127
-7.19820293041
-7.26855887013
-7.33859453999
-7.40828884374
-7.47761956389
-7.54656332321
-7.61509550237
-7.68319016832
-7.75082004616
-7.81795651992
-7.88456958008
-7.95062769476
-8.01609774268
-8.08094506052
-8.14513346041
-8.20862515895
-8.27138070144
-8.33335890612
-8.39451682426
-8.45480974567
-8.51419114845
-8.57261261498
-8.63002387301
-8.68637267975
-8.74160472393
-8.79566370693
-8.84849138903
-8.90002763876
-8.950210456
-8.99897595154
-9.04625795867
-9.09198851312
-9.13609768775
-9.17851335399
-9.21916144509
-9.25796593611
-9.29484902653
-9.32973112284
-9.36253076761
-9.39316460242
-9.42154762642
-9.44759341773
-9.4712139818
-9.49231984598
-9.51082011001
-9.52662254071
-9.53963392185
-9.54975975545
-9.55690444288
-9.56097145327
-9.56186370081
-9.55948413358
-9.55373513647
-9.54451845304
-9.53173571816
-9.51528888198
-9.49508040473
-9.47101311998
-9.44299052333
-9.41091714916
-9.37469856175
-9.33424134534
-9.28945355575
-9.24024528721
-9.18652857655
-9.12821787975
-9.06523041183
-8.99748591691
-8.92490733341
-8.8474209093
-8.76495674283
-8.67744992103
-8.58484072568
-8.48707476243
-8.38410399034
-8.27588896484
-8.16240072548
-8.04362247387
-7.91955252653
-7.79020830529
-7.65563055237
-7.51589041646
-7.37109268572
-7.22138551166
-7.06695979537
-6.90805857174
-6.7449771174
-6.5780675138
-6.40778623354
-1.98539330527
-1.95429624175
-1.96952082485
-2.02118816031
-2.0952450882
-2.18344717448
-2.27885099325
-2.37611967691
-2.4720318639
-2.5650425966
-2.65467772138
-2.74106819891
-2.82463252616
-2.90588093437
-2.98530925749
-3.06335049264
-3.14035972465
-3.21661624065
-3.29233298791
-3.36766849144
-3.44273849566
-3.51762594096
-3.59238917745
-3.66706848317
-3.74169166811
-3.81627637119
-3.89083459113
-3.96537372209
-4.03989803512
-4.11440970898
-4.18890955722
-4.26339748151
-4.33787275186
-4.41233424605
-4.48678057591
-4.56121016735
-4.6356212924
-4.71001208693
-4.78438057062
-4.85872462753
-4.93304196253
-5.00733005266
-5.08158618823
-5.15580748999
-5.22999086043
-5.30413299324
-5.37823032691
-5.45227904838
-5.52627514789
-5.60021434496
-5.67409193497
-5.74790282554
-5.82164158131
-5.89530240302
-5.96887908359
-6.04236494298
-6.11575281264
-6.18903505307
-6.26220354285
-6.33524959101
-6.40816390356
-6.48093660392
-6.5535572161
-6.62601460349
-6.69829690176
-6.77039147233
-6.84228490023
-6.91396297615
-6.98541062572
-7.05661182621
-7.12754958619
-7.19820596582
-7.26856205051
-7.33859786766
-7.40829233735
-7.47762325768
-7.54656724798
-7.61509965678
-7.68319452687
-7.75082459982
-7.81796129475
-7.88457460444
-7.95063296131
-8.01610320945
-8.08095069334
-8.14513927785
-8.20863122082
-8.27138705126
-8.33336555649
-8.39452378624
-8.45481705337
-8.51419886268
-8.57262077095
-8.63003246183
-8.68638168013
-8.74161411046
-8.79567342988
-8.84850143959
-8.90003804616
-8.95022117611
-8.99898695806
-9.04626930107
-9.09200021124
-9.13610982552
-9.17852608012
-9.21917490018
-9.2579802385
-9.29486421909
-9.32974713201
-9.36254756768
-9.39318233568
-9.42156651573
-9.44761366025
-9.47123568326
-9.49234312965
-9.51084532524
-9.52665022035
-9.53966450478
-9.54979364191
-9.55694219456
-9.56101396157
-9.56191205559
-9.55953935428
-9.55379842071
-9.54459136224
-9.53182023408
-9.51538736958
-9.4951956568
-9.47114848572
-9.44314995048
-9.41110529122
-9.37492108586
-9.33450519568
-9.28976683153
-9.24061750542
-9.1869713848
-9.12874534051
-9.06585908306
-8.99823521654
-8.9258005752
-8.84848617899
-8.76622725166
-8.67896467666
-8.58664565278
-8.48922437507
-8.38666270023
-8.27893228554
-8.1660172169
-8.04791566172
-7.92464276675
-7.79623526002
-7.66275448743
-7.52429524393
-7.3809888956
-7.23301428472
-7.08060240595
-6.92404587932
-6.76371196728
-6.60005585806
-6.43365889279
-1.96614493735
-1.93457989947
-1.95422557017
-2.01167179274
-2.09068400871
-2.18246348866
-2.28008118429
-2.37846866993
-2.47475032544
-2.56768425533
-2.65701662187
-2.7430204297
-2.82619615756
-2.90709514599
-2.98622923163
-3.06403338977
-3.14085764458
-3.21697339549
-3.29258523208
-3.36784394764
-3.44285864723
-3.51770686061
-3.59244261315
-3.66710270833
-3.7417133776
-3.81628960637
-3.89084229469
-3.96537790747
-4.0399000475
-4.1144104396
-4.18890956986
-4.26339712062
-4.33787223374
-4.41233370986
-4.48678011081
-4.5612098084
-4.63562103507
-4.71001191837
-4.78438047117
-4.85872457672
-4.93304193603
-5.00733003279
-5.08158617177
-5.15580749313
-5.22999088909
-5.30413301456
-5.37823031492
-5.45227901851
-5.5262751298
-5.60021436336
-5.67409199415
-5.74790289681
-5.82164164101
-5.89530245337
-5.9688791252
-6.0423649667
-6.11575281156
-6.18903503975
-6.26220353835
-6.33524960752
-6.40816393454
-6.4809366401
-6.55355725915
-6.62601464532
-6.69829690995
-6.77039142167
-6.84228480021
-6.91396285124
-6.98541048105
-7.05661164619
-7.12754935034
-7.19820565068
-7.2685616296
-7.33859733147
-7.40829170724
-7.4776225673
-7.54656650399
-7.6150988287
-7.6831935925
-7.75082358853
-7.81796024565
-7.88457349155
-7.95063170147
-8.01610174021
-8.0809490173
-8.14513743424
-8.20862922098
-8.27138485009
-8.33336311263
-8.39452111685
-8.4548142121
-8.51419589215
-8.57261766683
-8.63002916641
-8.68637812289
-8.74161027235
-8.79566930848
-8.84849701073
-8.90003327489
-8.95021598633
-8.99898127837
-9.04626317849
-9.09199372568
-9.1361030486
-9.17851912836
-9.21916782567
-9.25797308486
-9.29485701223
-9.3297398442
-9.3625401752
-9.39317494533
-9.42155935203
-9.44760690913
-9.4712294472
-9.49233752094
-9.51084062106
-9.52664688407
-9.53966297743
-9.5497943364
-9.55694565841
-9.56102101621
-9.56192380375
-9.55955688076
-9.55382292313
-9.54462441152
-9.53186385329
-9.51544391833
-9.49526784406
-9.47123964075
-9.44326411249
-9.41124718309
-9.37509632397
-9.3347207005
-9.29003085903
-9.24093971426
-9.18736336732
-9.12922101874
-9.06643511079
-8.99893134218
-8.92664014435
-8.84949693738
-8.76744216359
-8.68042268476
-8.5883925428
-8.49131440988
-8.38915990714
-8.28191165835
-8.16956644938
-8.05213716391
-7.92965542497
-7.80217713754
-7.66978539587
-7.53259900927
-7.3907779999
-7.24453278854
-7.09413408627
-6.93992181897
-6.78232077934
-6.6218550461
-6.45917335371
-1.92391214104
-1.892861241
-1.92279182561
-1.99256552076
-2.0817323282
-2.18060974889
-2.28248929394
-2.382961519
-2.47988812465
-2.57263449208
-2.66137155606
-2.74663780649
-2.82908275192
-2.90933033176
-2.98791911606
-3.06528571926
-3.14176959916
-3.21762689836
-3.29304640903
-3.36816451294
-3.44307802123
-3.5178544885
-3.59254023836
-3.66716669081
-3.74175303625
-3.81631359397
-3.89085618885
-3.96538537902
-4.03990354091
-4.1144115633
-4.18890936067
-4.26339623182