/*--------------------------------*- C++ -*----------------------------------*\
| =========                 |                                                 |
| \\      /  F ield         | OpenFOAM: The Open Source CFD Toolbox           |
|  \\    /   O peration     | Version:  2106                                  |
|   \\  /    A nd           | Website:  www.openfoam.com                      |
|    \\/     M anipulation  |                                                 |
\*---------------------------------------------------------------------------*/
FoamFile
{
    version     2.0;
    format      ascii;
    arch        "LSB;label=32;scalar=64";
    class       volScalarField;
    location    "0.002";
    object      p;
}
// * * * * * * * * * * * * * * * * * * * * * * * * * * * * * * * * * * * * * //

dimensions      [0 2 -2 0 0 0 0];

internalField   nonuniform List<scalar> 
160000
(
12.9886
0.00123327
22.272
-3.54536
20.4154
1.68037
14.2938
6.92976
10.6899
9.03356
9.68359
9.48078
9.5525
9.54933
9.56356
9.57655
9.58991
9.6039
9.61825
9.63291
9.64807
9.66338
9.67893
9.69468
9.71052
9.7264
9.74214
9.75793
9.77358
9.78879
9.80393
9.81871
9.83297
9.84686
9.86025
9.87307
9.88526
9.89685
9.90773
9.91783
9.92726
9.93582
9.94347
9.95019
9.95607
9.96116
9.96512
9.96809
9.97024
9.9714
9.97149
9.97061
9.96885
9.96601
9.96203
9.95726
9.95159
9.94505
9.93759
9.92923
9.92007
9.91012
9.8995
9.8881
9.876
9.8634
9.85033
9.83679
9.82257
9.80795
9.79309
9.77796
9.76258
9.74691
9.73118
9.71553
9.69991
9.68442
9.66902
9.65381
9.63891
9.62436
9.6103
9.59663
9.58337
9.57063
9.55848
9.54711
9.53645
9.52653
9.51731
9.50879
9.5012
9.4945
9.48875
9.48396
9.48008
9.4772
9.4752
9.47416
9.4741
9.47506
9.47705
9.48001
9.48397
9.48878
9.49449
9.5011
9.50858
9.517
9.52622
9.53624
9.54703
9.55846
9.57059
9.58326
9.59646
9.61014
9.6242
9.63869
9.65348
9.66858
9.68394
9.69946
9.71512
9.73077
9.74641
9.76193
9.77728
9.79245
9.80731
9.82183
9.83594
9.84958
9.86275
9.87536
9.88739
9.89879
9.90948
9.91944
9.92857
9.93686
9.94427
9.95081
9.95648
9.96118
9.96503
9.96785
9.96973
9.97065
9.97052
9.96945
9.96732
9.96422
9.96017
9.95512
9.94923
9.94242
9.93475
9.92628
9.91694
9.90688
9.89599
9.88442
9.87217
9.85927
9.84586
9.83191
9.81751
9.80275
9.78765
9.7723
9.75674
9.74103
9.72521
9.70934
9.6935
9.67775
9.66216
9.6468
9.63173
9.61699
9.60265
9.58875
9.57532
9.56244
9.55017
9.53857
9.52768
9.51754
9.50818
9.49962
9.4919
9.48504
9.47907
9.47403
9.46993
9.46682
9.46469
9.46356
9.46343
9.46428
9.46611
9.46889
9.47263
9.47732
9.48295
9.4895
9.49694
9.50523
9.51432
9.52417
9.53475
9.54602
9.55795
9.5705
9.58363
9.59726
9.61133
9.62579
9.64056
9.65561
9.67087
9.6863
9.70183
9.71741
9.73297
9.74842
9.7637
9.77875
9.79354
9.80799
9.82209
9.83575
9.84888
9.86151
9.87348
9.8848
9.89543
9.9053
9.91444
9.92273
9.93018
9.93675
9.94236
9.94712
9.95088
9.95372
9.95562
9.95649
9.95643
9.95533
9.95325
9.95021
9.9462
9.94129
9.93542
9.92865
9.921
9.9125
9.90319
9.89309
9.8823
9.87078
9.8586
9.84579
9.8324
9.81856
9.80428
9.78964
9.77467
9.75938
9.7439
9.72823
9.71248
9.69673
9.68099
9.66538
9.6499
9.63466
9.61972
9.60507
9.59091
9.57713
9.56387
9.55116
9.53901
9.52756
9.51677
9.50672
9.49745
9.48898
9.48142
9.47472
9.46893
9.46409
9.46017
9.45727
9.45531
9.45434
9.45434
9.45531
9.4573
9.46024
9.4642
9.46907
9.47486
9.48159
9.48914
9.49764
9.5069
9.51696
9.52775
9.5392
9.55135
9.56408
9.57737
9.59121
9.60545
9.62014
9.63512
9.65037
9.66586
9.68146
9.69725
9.713
9.72872
9.74439
9.7599
9.77527
9.79028
9.80494
9.81925
9.83315
9.8466
9.85935
9.87145
9.88298
9.8938
9.90393
9.91323
9.92179
9.92951
9.93628
9.94214
9.94708
9.95109
9.9541
9.95621
9.95739
9.95749
9.95661
9.95472
9.95186
9.94808
9.94334
9.93771
9.93117
9.92379
9.91548
9.90635
9.8966
9.88591
9.87447
9.8626
9.84999
9.83678
9.82326
9.80921
9.7947
9.78003
9.765
9.74961
9.73431
9.71878
9.70307
9.68766
9.67217
9.65684
9.64181
9.62704
9.61264
9.59855
9.58503
9.57189
9.55971
9.545
9.54807
9.4771
9.68018
9.03039
10.6872
6.92712
14.2917
1.67832
20.4141
-3.54673
22.2711
0.00133165
12.9873
-0.000685856
-12.9047
9.2716
-16.4393
7.46345
-11.2174
1.37527
-5.97126
-2.21567
-3.868
-3.21859
-3.42055
-3.34935
-3.35214
-3.33716
-3.32454
-3.31116
-3.29726
-3.28298
-3.26822
-3.25315
-3.23783
-3.22219
-3.20649
-3.19068
-3.17476
-3.15897
-3.14322
-3.12767
-3.11233
-3.0972
-3.08255
-3.0682
-3.05429
-3.04095
-3.02807
-3.01591
-3.00433
-2.99337
-2.98332
-2.97395
-2.96541
-2.9577
-2.9509
-2.94507
-2.94008
-2.93606
-2.933
-2.93089
-2.92979
-2.92962
-2.93054
-2.93246
-2.93525
-2.93903
-2.9438
-2.94959
-2.95616
-2.9636
-2.972
-2.98113
-2.99104
-3.00161
-3.01299
-3.02505
-3.03768
-3.05095
-3.06456
-3.07872
-3.09331
-3.10821
-3.12336
-3.13865
-3.15417
-3.16986
-3.18555
-3.2012
-3.21667
-3.23207
-3.24727
-3.2622
-3.27679
-3.29089
-3.3046
-3.31782
-3.33048
-3.34261
-3.35402
-3.36478
-3.37475
-3.38391
-3.39236
-3.39993
-3.40668
-3.41246
-3.41726
-3.42113
-3.424
-3.42599
-3.427
-3.42704
-3.42608
-3.4241
-3.4212
-3.41729
-3.41248
-3.40671
-3.40003
-3.39254
-3.38415
-3.37498
-3.36497
-3.35418
-3.34274
-3.33061
-3.31795
-3.30476
-3.29106
-3.27699
-3.26245
-3.24764
-3.23252
-3.21718
-3.20171
-3.18606
-3.1704
-3.15475
-3.13919
-3.12388
-3.10872
-3.0939
-3.0794
-3.06527
-3.05163
-3.03843
-3.02581
-3.0138
-3.00242
-2.99178
-2.98183
-2.97272
-2.96438
-2.95691
-2.95035
-2.94464
-2.93996
-2.93613
-2.93336
-2.93151
-2.93062
-2.93075
-2.93179
-2.93387
-2.93693
-2.94094
-2.94597
-2.95186
-2.9587
-2.96643
-2.97492
-2.98435
-2.99442
-3.00532
-3.01689
-3.02912
-3.04199
-3.05538
-3.0693
-3.08366
-3.0984
-3.11349
-3.12884
-3.1444
-3.16013
-3.17596
-3.19183
-3.20767
-3.22342
-3.239
-3.25437
-3.26945
-3.28419
-3.29855
-3.31246
-3.32588
-3.33876
-3.35102
-3.36263
-3.37354
-3.3837
-3.39307
-3.40163
-3.40935
-3.4162
-3.42215
-3.42718
-3.43126
-3.43436
-3.43648
-3.4376
-3.43775
-3.43691
-3.43509
-3.43231
-3.42857
-3.42388
-3.41826
-3.41172
-3.4043
-3.39602
-3.38693
-3.37707
-3.36648
-3.35519
-3.34324
-3.33068
-3.31756
-3.30394
-3.28986
-3.27541
-3.26062
-3.24558
-3.23032
-3.2149
-3.19937
-3.18379
-3.16823
-3.15278
-3.13749
-3.12242
-3.10762
-3.09316
-3.07906
-3.0654
-3.05228
-3.03966
-3.0277
-3.01639
-3.00575
-2.9959
-2.98676
-2.97848
-2.97104
-2.96445
-2.95882
-2.95406
-2.95028
-2.94744
-2.94555
-2.94469
-2.94476
-2.94588
-2.94796
-2.95099
-2.95501
-2.95991
-2.96577
-2.97252
-2.98017
-2.98868
-2.99799
-3.00812
-3.01893
-3.03047
-3.04264
-3.05541
-3.06877
-3.08258
-3.09686
-3.11152
-3.1265
-3.14181
-3.15727
-3.17293
-3.18866
-3.2044
-3.22016
-3.23576
-3.25126
-3.2665
-3.28143
-3.29608
-3.31024
-3.32404
-3.33732
-3.35003
-3.36218
-3.37362
-3.38441
-3.39446
-3.40372
-3.4122
-3.41976
-3.42646
-3.43225
-3.4371
-3.44104
-3.44394
-3.4459
-3.44686
-3.44685
-3.44588
-3.44389
-3.44097
-3.437
-3.43214
-3.42635
-3.4196
-3.41204
-3.40352
-3.39428
-3.38422
-3.37344
-3.36197
-3.3498
-3.33708
-3.32381
-3.30999
-3.29575
-3.28106
-3.26608
-3.25083
-3.23531
-3.21969
-3.2039
-3.18814
-3.17241
-3.1567
-3.1412
-3.12585
-3.11089
-3.09619
-3.08187
-3.06804
-3.05466
-3.04189
-3.02973
-3.01819
-3.00736
-2.99719
-2.98789
-2.97938
-2.97169
-2.96493
-2.95907
-2.95413
-2.95005
-2.94701
-2.94492
-2.94378
-2.94367
-2.94455
-2.94643
-2.94925
-2.95303
-2.95784
-2.96345
-2.96999
-2.9774
-2.98565
-2.99479
-3.00464
-3.01526
-3.02662
-3.0386
-3.05118
-3.06432
-3.07794
-3.09194
-3.10639
-3.12121
-3.13616
-3.15151
-3.16692
-3.18241
-3.19808
-3.21354
-3.22905
-3.24431
-3.25931
-3.27416
-3.28852
-3.30258
-3.31616
-3.32926
-3.34148
-3.35633
-3.35322
-3.42428
-3.22195
-3.87112
-2.21846
-5.97387
1.37323
-11.2194
7.46201
-16.44
9.27016
-12.9038
-0.00197215
22.2667
9.2678
31.505
5.7109
29.6278
10.9216
23.5061
16.1565
19.9061
18.2537
18.9012
18.6991
18.7699
18.7671
18.782
18.7947
18.808
18.8219
18.8362
18.851
18.8661
18.8814
18.8969
18.9127
18.9285
18.9444
18.9602
18.9759
18.9915
19.0068
19.0219
19.0366
19.051
19.0649
19.0782
19.0911
19.1033
19.1148
19.1257
19.1358
19.1452
19.1538
19.1615
19.1682
19.1741
19.1791
19.1831
19.1862
19.1883
19.1894
19.1895
19.1887
19.1868
19.1839
19.1801
19.1754
19.1696
19.163
19.1556
19.1473
19.1381
19.1281
19.1175
19.1061
19.0941
19.0815
19.0683
19.0547
19.0405
19.026
19.0111
18.9959
18.9805
18.9649
18.9493
18.9336
18.9179
18.9024
18.8871
18.8719
18.857
18.8424
18.8283
18.8146
18.8014
18.7887
18.7766
18.7652
18.7544
18.7445
18.7353
18.7268
18.7193
18.7126
18.7068
18.702
18.698
18.6952
18.6932
18.6922
18.6922
18.6931
18.6951
18.698
18.7019
18.7067
18.7125
18.7192
18.7267
18.7351
18.7443
18.7543
18.765
18.7764
18.7885
18.8012
18.8144
18.8281
18.8422
18.8567
18.8716
18.8867
18.902
18.9175
18.9332
18.9488
18.9644
18.9799
18.9953
19.0104
19.0253
19.0398
19.0539
19.0676
19.0808
19.0934
19.1054
19.1168
19.1275
19.1374
19.1465
19.1548
19.1623
19.1688
19.1745
19.1792
19.1831
19.1859
19.1877
19.1887
19.1885
19.1874
19.1853
19.1822
19.1782
19.1732
19.1673
19.1605
19.1528
19.1443
19.1349
19.1248
19.114
19.1024
19.0901
19.0772
19.0638
19.0499
19.0355
19.0208
19.0057
18.9903
18.9748
18.959
18.9432
18.9273
18.9115
18.8958
18.8802
18.8648
18.8497
18.835
18.8206
18.8067
18.7933
18.7804
18.7682
18.7566
18.7457
18.7355
18.7262
18.7176
18.7099
18.703
18.6971
18.692
18.6879
18.6848
18.6827
18.6816
18.6814
18.6823
18.6841
18.6869
18.6906
18.6953
18.701
18.7075
18.715
18.7232
18.7323
18.7422
18.7528
18.764
18.776
18.7885
18.8016
18.8153
18.8293
18.8438
18.8586
18.8736
18.8889
18.9043
18.9199
18.9354
18.951
18.9664
18.9817
18.9968
19.0116
19.026
19.0401
19.0538
19.0669
19.0795
19.0915
19.1028
19.1134
19.1233
19.1325
19.1407
19.1482
19.1547
19.1604
19.1651
19.1689
19.1717
19.1736
19.1745
19.1745
19.1733
19.1713
19.1682
19.1642
19.1593
19.1534
19.1467
19.139
19.1305
19.1212
19.1111
19.1003
19.0888
19.0766
19.0638
19.0504
19.0366
19.0223
19.0077
18.9927
18.9774
18.9619
18.9462
18.9305
18.9148
18.899
18.8834
18.868
18.8527
18.8378
18.8231
18.8089
18.7951
18.7818
18.7691
18.757
18.7455
18.7347
18.7247
18.7155
18.707
18.6995
18.6927
18.687
18.6821
18.6782
18.6753
18.6733
18.6723
18.6723
18.6733
18.6753
18.6783
18.6822
18.6871
18.6929
18.6996
18.7072
18.7156
18.7249
18.7349
18.7457
18.7572
18.7694
18.7821
18.7954
18.8092
18.8235
18.8382
18.8531
18.8684
18.8839
18.8995
18.9153
18.931
18.9468
18.9624
18.9779
18.9933
19.0083
19.023
19.0373
19.0511
19.0645
19.0773
19.0895
19.101
19.1118
19.122
19.1313
19.1398
19.1475
19.1543
19.1602
19.1651
19.1691
19.1722
19.1742
19.1754
19.1755
19.1746
19.1727
19.1699
19.1661
19.1614
19.1558
19.1492
19.1418
19.1335
19.1244
19.1145
19.1039
19.0925
19.0806
19.068
19.0549
19.0412
19.0272
19.0128
18.998
18.983
18.9677
18.9522
18.9367
18.9211
18.9056
18.8902
18.8749
18.8599
18.8451
18.8307
18.8166
18.803
18.79
18.7776
18.7629
18.766
18.6954
18.8979
18.2505
19.9034
16.1539
23.5039
10.9196
29.6263
5.7095
31.5039
9.26729
22.266
-3.5581
-16.4495
5.70436
-19.9656
3.9021
-14.7438
-2.17361
-9.50371
-5.75623
-7.40397
-6.75626
-6.95747
-6.88644
-6.88911
-6.87404
-6.86157
-6.84809
-6.83425
-6.81985
-6.80518
-6.79006
-6.77474
-6.75917
-6.74341
-6.72762
-6.71171
-6.69591
-6.68019
-6.66461
-6.64928
-6.63419
-6.61949
-6.60515
-6.59125
-6.5779
-6.56504
-6.55284
-6.54126
-6.53034
-6.52025
-6.51086
-6.50236
-6.49467
-6.48782
-6.48199
-6.47701
-6.47299
-6.46991
-6.4678
-6.46673
-6.46656
-6.46749
-6.46936
-6.47219
-6.47602
-6.48074
-6.48649
-6.49309
-6.50056
-6.50892
-6.518
-6.52796
-6.53858
-6.54996
-6.56198
-6.57458
-6.58785
-6.60149
-6.61566
-6.63019
-6.64505
-6.66025
-6.6756
-6.69116
-6.70678
-6.72243
-6.73813
-6.75364
-6.76905
-6.78422
-6.79909
-6.8137
-6.82782
-6.84157
-6.85479
-6.86743
-6.87952
-6.89091
-6.90169
-6.91169
-6.92089
-6.92933
-6.93685
-6.94356
-6.94933
-6.95415
-6.95808
-6.96098
-6.96298
-6.96394
-6.96394
-6.963
-6.961
-6.95813
-6.95423
-6.94944
-6.94368
-6.937
-6.92948
-6.92104
-6.91185
-6.90185
-6.89109
-6.8797
-6.86759
-6.85496
-6.84178
-6.82807
-6.81397
-6.7994
-6.78456
-6.76943
-6.75407
-6.73858
-6.72293
-6.7073
-6.69168
-6.67614
-6.66083
-6.64566
-6.63084
-6.61634
-6.60221
-6.58857
-6.57537
-6.56276
-6.55075
-6.53937
-6.52875
-6.51879
-6.50967
-6.50134
-6.49387
-6.48733
-6.4816
-6.47693
-6.47309
-6.4703
-6.46844
-6.46754
-6.46769
-6.46873
-6.47084
-6.4739
-6.4779
-6.48292
-6.48879
-6.49564
-6.50335
-6.51185
-6.52126
-6.53134
-6.54223
-6.55381
-6.56605
-6.57892
-6.59228
-6.60624
-6.62059
-6.63533
-6.65043
-6.66578
-6.68136
-6.6971
-6.71293
-6.7288
-6.74463
-6.76036
-6.77593
-6.79129
-6.80638
-6.82114
-6.83551
-6.84942
-6.86282
-6.87568
-6.88795
-6.89957
-6.91048
-6.92064
-6.93
-6.93857
-6.94629
-6.95315
-6.95911
-6.96412
-6.96818
-6.97127
-6.97338
-6.97452
-6.97468
-6.97385
-6.97203
-6.96924
-6.96549
-6.9608
-6.95518
-6.94865
-6.94124
-6.93297
-6.92387
-6.914
-6.90339
-6.8921
-6.88015
-6.8676
-6.85448
-6.84085
-6.82677
-6.81232
-6.79754
-6.7825
-6.76724
-6.75181
-6.73628
-6.72072
-6.70516
-6.68972
-6.67442
-6.65936
-6.64456
-6.6301
-6.61601
-6.60235
-6.58923
-6.57662
-6.56467
-6.55336
-6.5427
-6.53285
-6.52368
-6.51541
-6.50797
-6.50139
-6.49576
-6.491
-6.48723
-6.48439
-6.4825
-6.48164
-6.4817
-6.48283
-6.4849
-6.48792
-6.49195
-6.49683
-6.50272
-6.50946
-6.51711
-6.52563
-6.53493
-6.54507
-6.55586
-6.56742
-6.57958
-6.59234
-6.60569
-6.61949
-6.63378
-6.64844
-6.66342
-6.67873
-6.69418
-6.70984
-6.72556
-6.74129
-6.75706
-6.77266
-6.78815
-6.80341
-6.81834
-6.833
-6.84718
-6.86098
-6.87424
-6.88696
-6.89911
-6.91056
-6.92136
-6.9314
-6.94065
-6.94912
-6.95667
-6.96338
-6.96918
-6.97402
-6.97795
-6.98085
-6.98284
-6.9838
-6.9838
-6.98282
-6.98081
-6.97789
-6.97393
-6.96908
-6.96328
-6.95653
-6.94897
-6.94046
-6.93123
-6.92117
-6.91037
-6.89891
-6.88674
-6.87402
-6.86074
-6.84691
-6.83269
-6.81801
-6.80303
-6.78776
-6.77225
-6.75663
-6.74085
-6.72509
-6.70934
-6.69363
-6.67817
-6.66281
-6.64784
-6.63313
-6.6188
-6.60499
-6.59161
-6.57884
-6.56666
-6.55508
-6.54428
-6.53413
-6.52483
-6.51631
-6.50866
-6.50189
-6.49599
-6.49105
-6.48699
-6.48395
-6.48185
-6.48072
-6.48063
-6.48148
-6.48335
-6.48619
-6.48995
-6.49475
-6.50036
-6.50692
-6.51434
-6.5226
-6.53173
-6.54159
-6.55221
-6.56355
-6.57552
-6.5881
-6.6012
-6.61485
-6.62888
-6.64331
-6.65813
-6.67312
-6.68844
-6.70387
-6.71936
-6.73501
-6.75047
-6.76597
-6.78122
-6.79626
-6.81108
-6.82545
-6.83953
-6.85309
-6.86615
-6.87853
-6.89332
-6.89032
-6.96113
-6.75959
-7.40707
-5.75895
-9.50626
-2.17558
-14.7457
3.90092
-19.9667
5.70361
-16.4495
-3.55852
20.3959
7.44585
29.6141
3.89459
27.7485
9.09056
21.6449
14.3137
18.0545
16.4064
17.0525
16.851
16.9217
16.919
16.934
16.9464
16.9599
16.9738
16.9882
17.0029
17.018
17.0333
17.0489
17.0646
17.0804
17.0963
17.1121
17.1278
17.1434
17.1587
17.1738
17.1886
17.2029
17.2168
17.2301
17.243
17.2552
17.2668
17.2777
17.2878
17.2972
17.3057
17.3134
17.3202
17.3261
17.3311
17.3351
17.3381
17.3402
17.3413
17.3415
17.3406
17.3387
17.3359
17.332
17.3273
17.3216
17.315
17.3075
17.2992
17.2901
17.2801
17.2695
17.2581
17.246
17.2334
17.2202
17.2066
17.1924
17.1779
17.163
17.1478
17.1324
17.1169
17.1012
17.0856
17.0699
17.0544
17.039
17.0239
17.009
16.9944
16.9803
16.9665
16.9533
16.9406
16.9285
16.9171
16.9064
16.8964
16.8872
16.8788
16.8712
16.8645
16.8588
16.8539
16.85
16.8471
16.8451
16.8441
16.8441
16.845
16.847
16.8499
16.8538
16.8586
16.8644
16.8711
16.8786
16.887
16.8962
16.9062
16.917
16.9283
16.9404
16.953
16.9662
16.98
16.9941
17.0086
17.0235
17.0386
17.054
17.0695
17.0851
17.1007
17.1163
17.1319
17.1472
17.1624
17.1772
17.1917
17.2059
17.2195
17.2327
17.2453
17.2573
17.2687
17.2794
17.2893
17.2984
17.3068
17.3142
17.3207
17.3265
17.3311
17.335
17.3378
17.3397
17.3406
17.3404
17.3393
17.3372
17.3342
17.3301
17.3251
17.3193
17.3124
17.3047
17.2962
17.2868
17.2767
17.2658
17.2543
17.242
17.2291
17.2158
17.2018
17.1875
17.1727
17.1576
17.1423
17.1267
17.111
17.0951
17.0793
17.0634
17.0477
17.0321
17.0168
17.0017
16.9869
16.9725
16.9586
16.9452
16.9324
16.9201
16.9085
16.8976
16.8875
16.8781
16.8695
16.8618
16.8549
16.849
16.8439
16.8399
16.8368
16.8346
16.8335
16.8333
16.8342
16.836
16.8388
16.8426
16.8473
16.8529
16.8594
16.8669
16.8751
16.8842
16.8941
16.9047
16.916
16.9279
16.9405
16.9536
16.9672
16.9813
16.9957
17.0105
17.0256
17.0408
17.0563
17.0718
17.0874
17.1029
17.1184
17.1336
17.1487
17.1635
17.178
17.1921
17.2057
17.2188
17.2314
17.2434
17.2547
17.2654
17.2752
17.2844
17.2927
17.3001
17.3067
17.3123
17.3171
17.3208
17.3237
17.3256
17.3265
17.3264
17.3253
17.3232
17.3202
17.3161
17.3112
17.3053
17.2986
17.291
17.2824
17.2732
17.263
17.2522
17.2407
17.2285
17.2157
17.2024
17.1886
17.1743
17.1596
17.1446
17.1293
17.1139
17.0982
17.0825
17.0668
17.051
17.0354
17.0199
17.0046
16.9897
16.975
16.9608
16.947
16.9338
16.9211
16.9089
16.8975
16.8867
16.8766
16.8674
16.8589
16.8514
16.8447
16.8389
16.8341
16.8301
16.8272
16.8252
16.8242
16.8243
16.8252
16.8273
16.8302
16.8342
16.839
16.8448
16.8515
16.8591
16.8676
16.8768
16.8869
16.8977
16.9091
16.9213
16.934
16.9473
16.9612
16.9754
16.9901
17.0051
17.0203
17.0358
17.0515
17.0672
17.083
17.0987
17.1144
17.1299
17.1452
17.1602
17.1749
17.1892
17.2031
17.2165
17.2292
17.2414
17.253
17.2638
17.274
17.2832
17.2918
17.2994
17.3062
17.3121
17.317
17.3211
17.3241
17.3262
17.3273
17.3274
17.3266
17.3247
17.3219
17.3181
17.3133
17.3077
17.3011
17.2937
17.2854
17.2763
17.2665
17.2558
17.2445
17.2325
17.2199
17.2069
17.1932
17.1792
17.1647
17.1499
17.1349
17.1196
17.1041
17.0887
17.073
17.0576
17.0421
17.0268
17.0118
16.997
16.9826
16.9685
16.9549
16.9418
16.9295
16.9148
16.9179
16.8474
17.0492
16.4034
18.0518
14.3112
21.6428
9.0886
27.747
3.89324
29.6131
7.44523
20.3954
1.65019
-11.2454
10.8975
-14.7616
9.08047
-9.54774
3.00401
-4.31699
-0.576119
-2.22159
-1.57523
-1.77619
-1.7053
-1.70797
-1.6929
-1.68047
-1.66698
-1.65314
-1.63872
-1.62406
-1.60892
-1.59359
-1.57804
-1.56226
-1.5465
-1.53059
-1.51479
-1.49907
-1.48349
-1.46818
-1.45307
-1.43836
-1.42403
-1.41012
-1.39677
-1.38391
-1.37171
-1.36012
-1.34922
-1.33913
-1.32972
-1.32121
-1.31353
-1.30669
-1.30085
-1.29582
-1.29183
-1.28877
-1.28664
-1.28558
-1.28544
-1.28635
-1.28821
-1.29104
-1.2949
-1.29961
-1.30535
-1.31192
-1.31939
-1.32775
-1.33684
-1.34681
-1.35744
-1.36884
-1.38086
-1.39345
-1.40669
-1.42033
-1.4345
-1.44903
-1.46389
-1.47908
-1.49444
-1.51002
-1.52567
-1.54131
-1.557
-1.57251
-1.58792
-1.60309
-1.61796
-1.63256
-1.64668
-1.66042
-1.67365
-1.6863
-1.6984
-1.70978
-1.72056
-1.73055
-1.73974
-1.74818
-1.7557
-1.7624
-1.76818
-1.773
-1.77694
-1.77984
-1.78185
-1.78281
-1.78282
-1.78187
-1.77986
-1.777
-1.77308
-1.76829
-1.76253
-1.75585
-1.74834
-1.7399
-1.73071
-1.7207
-1.70996
-1.69858
-1.6865
-1.67386
-1.66067
-1.64695
-1.63284
-1.61828
-1.60343
-1.58828
-1.57292
-1.55744
-1.5418
-1.52618
-1.51057
-1.49503
-1.47972
-1.46455
-1.44971
-1.4352
-1.42107
-1.40744
-1.39424
-1.38163
-1.36962
-1.35823
-1.34761
-1.33765
-1.32854
-1.32022
-1.31276
-1.30621
-1.30048
-1.29581
-1.29194
-1.28915
-1.28729
-1.2864
-1.28655
-1.28761
-1.28971
-1.29277
-1.29677
-1.3018
-1.30767
-1.31451
-1.32221
-1.33069
-1.34011
-1.35017
-1.36109
-1.37267
-1.38489
-1.39778
-1.41115
-1.4251
-1.43945
-1.45419
-1.46929
-1.48464
-1.50024
-1.51598
-1.53182
-1.54767
-1.56349
-1.57921
-1.59479
-1.61016
-1.62526
-1.64002
-1.65438
-1.66829
-1.68169
-1.69455
-1.70682
-1.71843
-1.72933
-1.73948
-1.74885
-1.75743
-1.76516
-1.77203
-1.77797
-1.78298
-1.78703
-1.79012
-1.79224
-1.79339
-1.79356
-1.79272
-1.7909
-1.7881
-1.78434
-1.77964
-1.77403
-1.7675
-1.76009
-1.75181
-1.74272
-1.73284
-1.72224
-1.71095
-1.699
-1.68644
-1.67332
-1.65968
-1.64561
-1.63117
-1.6164
-1.60135
-1.58608
-1.57065
-1.55512
-1.53955
-1.52401
-1.50858
-1.49329
-1.47823
-1.46343
-1.44896
-1.43487
-1.42122
-1.4081
-1.3955
-1.38355
-1.37224
-1.36157
-1.35171
-1.34254
-1.33426
-1.32682
-1.32026
-1.31463
-1.30987
-1.30609
-1.30326
-1.30137
-1.3005
-1.30056
-1.3017
-1.30376
-1.30677
-1.3108
-1.31569
-1.32158
-1.32832
-1.33597
-1.3445
-1.35379
-1.36394
-1.37472
-1.38628
-1.39843
-1.41118
-1.42455
-1.43834
-1.45264
-1.46731
-1.48229
-1.4976
-1.51305
-1.5287
-1.54442
-1.56014
-1.57592
-1.59151
-1.60701
-1.62227
-1.6372
-1.65187
-1.66605
-1.67985
-1.69311
-1.70582
-1.71799
-1.72943
-1.74024
-1.75028
-1.75951
-1.76798
-1.77552
-1.78223
-1.78802
-1.79286
-1.7968
-1.7997
-1.80171
-1.80267
-1.80266
-1.80168
-1.79966
-1.79674
-1.79278
-1.78792
-1.78212
-1.77538
-1.76783
-1.75933
-1.7501
-1.74004
-1.72923
-1.71777
-1.7056
-1.69288
-1.67959
-1.66575
-1.65154
-1.63686
-1.62188
-1.60662
-1.5911
-1.57548
-1.55971
-1.54394
-1.52819
-1.5125
-1.49703
-1.48169
-1.46671
-1.452
-1.43767
-1.42386
-1.41046
-1.39769
-1.38551
-1.37391
-1.36314
-1.35297
-1.34369
-1.33517
-1.32751
-1.32074
-1.31483
-1.3099
-1.30585
-1.30281
-1.30071
-1.29959
-1.2995
-1.30035
-1.30221
-1.30505
-1.30882
-1.31359
-1.31922
-1.32579
-1.33321
-1.34148
-1.3506
-1.36046
-1.3711
-1.38242
-1.39437
-1.40696
-1.42006
-1.43368
-1.44775
-1.46216
-1.477
-1.49199
-1.50732
-1.52275
-1.53825
-1.55388
-1.56934
-1.58483
-1.60008
-1.61513
-1.62994
-1.64433
-1.65842
-1.67198
-1.68513
-1.69737
-1.71216
-1.70921
-1.7798
-1.57855
-2.22464
-0.578837
-4.31947
3.002
-9.54964
9.07924
-14.7628
10.8969
-11.2458
1.65008
14.2524
1.336
23.4707
-2.20283
21.6234
2.99247
15.5345
8.21315
11.9507
10.305
10.9506
10.7495
10.8203
10.8175
10.8326
10.845
10.8585
10.8724
10.8868
10.9015
10.9166
10.9319
10.9475
10.9633
10.979
10.9949
11.0107
11.0264
11.042
11.0573
11.0724
11.0872
11.1015
11.1154
11.1288
11.1416
11.1538
11.1654
11.1763
11.1864
11.1958
11.2043
11.212
11.2188
11.2247
11.2297
11.2337
11.2368
11.2389
11.2399
11.2401
11.2392
11.2373
11.2345
11.2306
11.2259
11.2202
11.2136
11.2062
11.1978
11.1887
11.1787
11.1681
11.1567
11.1447
11.1321
11.1188
11.1052
11.091
11.0765
11.0616
11.0464
11.0311
11.0155
10.9999
10.9842
10.9685
10.953
10.9376
10.9225
10.9076
10.893
10.8789
10.8651
10.8519
10.8392
10.8271
10.8157
10.8049
10.795
10.7858
10.7774
10.7698
10.7631
10.7574
10.7525
10.7486
10.7457
10.7437
10.7427
10.7427
10.7436
10.7456
10.7485
10.7524
10.7572
10.763
10.7697
10.7772
10.7856
10.7948
10.8048
10.8155
10.8269
10.839
10.8516
10.8648
10.8786
10.8927
10.9072
10.9221
10.9372
10.9526
10.9681
10.9837
10.9993
11.0149
11.0305
11.0458
11.061
11.0758
11.0903
11.1045
11.1181
11.1313
11.1439
11.1559
11.1673
11.1779
11.1879
11.197
11.2053
11.2128
11.2193
11.225
11.2297
11.2336
11.2364
11.2383
11.2391
11.239
11.2379
11.2358
11.2328
11.2288
11.2237
11.2179
11.211
11.2033
11.1948
11.1854
11.1753
11.1644
11.1528
11.1406
11.1277
11.1143
11.1004
11.0861
11.0713
11.0562
11.0409
11.0253
11.0096
10.9937
10.9779
10.9621
10.9463
10.9307
10.9154
10.9003
10.8855
10.8711
10.8572
10.8438
10.8309
10.8187
10.8071
10.7962
10.786
10.7767
10.7681
10.7604
10.7535
10.7475
10.7425
10.7385
10.7354
10.7332
10.7321
10.7319
10.7328
10.7346
10.7374
10.7412
10.7459
10.7515
10.758
10.7655
10.7737
10.7828
10.7927
10.8033
10.8146
10.8265
10.8391
10.8522
10.8658
10.8799
10.8944
10.9091
10.9242
10.9394
10.9549
10.9704
10.986
11.0015
11.017
11.0322
11.0473
11.0621
11.0766
11.0907
11.1043
11.1174
11.13
11.142
11.1533
11.164
11.1738
11.183
11.1913
11.1987
11.2053
11.2109
11.2156
11.2194
11.2223
11.2242
11.225
11.225
11.2238
11.2218
11.2188
11.2147
11.2098
11.2039
11.1972
11.1895
11.181
11.1717
11.1616
11.1508
11.1393
11.1271
11.1143
11.101
11.0872
11.0729
11.0582
11.0432
11.0279
11.0125
10.9968
10.9811
10.9654
10.9496
10.934
10.9185
10.9032
10.8883
10.8736
10.8595
10.8457
10.8324
10.8197
10.8075
10.7961
10.7853
10.7752
10.766
10.7575
10.75
10.7433
10.7375
10.7327
10.7287
10.7258
10.7238
10.7228
10.7229
10.7238
10.7259
10.7288
10.7328
10.7376
10.7434
10.7501
10.7577
10.7662
10.7754
10.7855
10.7963
10.8077
10.8199
10.8326
10.8459
10.8598
10.874
10.8887
10.9037
10.9189
10.9345
10.9501
10.9659
10.9816
10.9974
11.013
11.0285
11.0438
11.0588
11.0735
11.0879
11.1017
11.1151
11.1278
11.14
11.1516
11.1624
11.1726
11.1819
11.1904
11.198
11.2048
11.2107
11.2157
11.2197
11.2227
11.2248
11.2259
11.226
11.2252
11.2233
11.2205
11.2167
11.2119
11.2063
11.1997
11.1923
11.184
11.1749
11.1651
11.1544
11.1431
11.1311
11.1186
11.1055
11.0918
11.0778
11.0633
11.0485
11.0335
11.0182
11.0027
10.9873
10.9716
10.9562
10.9407
10.9254
10.9104
10.8956
10.8812
10.8671
10.8535
10.8404
10.8281
10.8134
10.8164
10.7459
10.9473
10.302
11.948
8.21068
15.5324
2.99057
21.622
-2.20412
23.4698
1.33541
14.2522
6.87465
-6.02429
16.1074
-9.54662
14.2786
-4.34212
8.19963
0.881956
4.61962
2.9748
3.62053
3.41957
3.49041
3.4877
3.50279
3.5152
3.52871
3.54255
3.55697
3.57163
3.58676
3.60211
3.61764
3.63343
3.64918
3.66508
3.68088
3.6966
3.71218
3.72751
3.7426
3.75732
3.77166
3.78557
3.79891
3.81179
3.82397
3.83556
3.84647
3.85655
3.86597
3.87448
3.88216
3.88901
3.89486
3.89989
3.90388
3.90694
3.90906
3.91011
3.91026
3.90935
3.90747
3.90465
3.90079
3.89609
3.89035
3.88378
3.87632
3.86795
3.85886
3.84887
3.83825
3.82684
3.81482
3.80222
3.78899
3.77535
3.76118
3.74665
3.73179
3.71658
3.70124
3.68564
3.67
3.65436
3.63868
3.62317
3.60776
3.59259
3.57773
3.56312
3.549
3.53526
3.52202
3.50937
3.49725
3.48588
3.47511
3.46513
3.45593
3.4475
3.43998
3.43329
3.4275
3.42268
3.41871
3.41582
3.41382
3.41286
3.41285
3.41379
3.41581
3.41867
3.4226
3.42738
3.43313
3.43983
3.44733
3.45578
3.46496
3.47496
3.4857
3.49707
3.50915
3.52178
3.53498
3.5487
3.56282
3.57739
3.59224
3.60739
3.62276
3.63823
3.65387
3.66948
3.68509
3.70062
3.71595
3.73112
3.74596
3.76047
3.7746
3.78823
3.80144
3.81404
3.82605
3.83745
3.84807
3.85802
3.86713
3.87544
3.8829
3.88946
3.89518
3.89987
3.90375
3.90652
3.90838
3.90927
3.90912
3.90807
3.90595
3.9029
3.89889
3.89387
3.88801
3.88116
3.87347
3.86497
3.85557
3.84551
3.83458
3.82299
3.81077
3.79787
3.78451
3.77058
3.75624
3.7415
3.72638
3.71102
3.69542
3.67969
3.66387
3.64802
3.6322
3.61646
3.60088
3.58551
3.57041
3.55566
3.5413
3.52738
3.51396
3.5011
3.48885
3.47725
3.46635
3.4562
3.44681
3.43823
3.4305
3.42364
3.4177
3.4127
3.40864
3.40554
3.40341
3.40226
3.40211
3.40295
3.40478
3.40758
3.41134
3.41603
3.42165
3.42818
3.43561
3.44388
3.45297
3.46283
3.47344
3.48473
3.49667
3.50924
3.52237
3.53601
3.55008
3.56452
3.57928
3.59433
3.6096
3.62504
3.64058
3.65614
3.67167
3.6871
3.70238
3.71744
3.73225
3.74673
3.76081
3.77447
3.78757
3.80016
3.81211
3.82343
3.83411
3.84397
3.85314
3.86141
3.86885
3.87541
3.88104
3.8858
3.88959
3.89243
3.89432
3.89518
3.89512
3.89398
3.89192
3.8889
3.88487
3.87999
3.87409
3.86735
3.8597
3.85117
3.84188
3.83173
3.82095
3.8094
3.79725
3.7845
3.77113
3.75733
3.74302
3.72835
3.71337
3.69806
3.68263
3.66698
3.65126
3.63553
3.61976
3.60416
3.58866
3.5734
3.55847
3.5438
3.52961
3.51582
3.50255
3.48984
3.47767
3.46623
3.45542
3.44539
3.43616
3.42771
3.42017
3.41346
3.40767
3.40283
3.39888
3.39598
3.39397
3.39301
3.39302
3.394
3.39603
3.39895
3.40291
3.40777
3.41357
3.4203
3.42785
3.43634
3.44558
3.45564
3.46645
3.47791
3.49009
3.50281
3.51611
3.52994
3.54415
3.55884
3.57381
3.58907
3.60461
3.62021
3.636
3.65176
3.66751
3.6832
3.69866
3.71399
3.72897
3.74368
3.75802
3.77182
3.78522
3.798
3.81018
3.82178
3.83255
3.84273
3.852
3.86052
3.86818
3.87495
3.88086
3.88579
3.88984
3.89288
3.89497
3.89609
3.89618
3.89533
3.89346
3.89063
3.88685
3.8821
3.87646
3.86989
3.86245
3.85418
3.84506
3.83521
3.82457
3.81325
3.80131
3.78872
3.77562
3.76199
3.74794
3.73351
3.71867
3.70367
3.68834
3.6729
3.65741
3.64178
3.62634
3.61084
3.59561
3.58054
3.56574
3.55133
3.5372
3.52364
3.51046
3.49832
3.48357
3.48652
3.41598
3.61721
2.97178
4.61692
0.879519
8.19756
-4.34398
14.2772
-9.54785
16.1068
-6.0248
6.87451
10.6196
-2.28381
19.842
-5.81431
18.0043
-0.616449
11.922
4.6044
8.34109
6.6962
7.34176
7.14077
7.21158
7.20887
7.22395
7.23636
7.24987
7.26371
7.27812
7.29281
7.30793
7.32328
7.33882
7.3546
7.37034
7.38624
7.40204
7.41776
7.43334
7.44867
7.46377
7.4785
7.49284
7.50674
7.52008
7.53297
7.54514
7.55672
7.56764
7.57773
7.58713
7.59564
7.60333
7.61018
7.61603
7.62106
7.62505
7.6281
7.63022
7.63128
7.63142
7.6305
7.62864
7.62581
7.62196
7.61725
7.61152
7.60495
7.59748
7.58911
7.58002
7.57004
7.5594
7.54799
7.53597
7.52337
7.51014
7.49648
7.48232
7.46778
7.45292
7.43771
7.42238
7.40679
7.39116
7.37551
7.35984
7.34434
7.32893
7.31376
7.29889
7.28428
7.27017
7.25641
7.24316
7.23052
7.2184
7.20702
7.19625
7.18627
7.17708
7.16865
7.16114
7.15443
7.14864
7.14382
7.13986
7.13697
7.13496
7.13399
7.13399
7.13494
7.13696
7.13981
7.14374
7.14852
7.15428
7.16098
7.16848
7.17692
7.1861
7.1961
7.20685
7.21821
7.2303
7.24292
7.25613
7.26985
7.28397
7.29854
7.31339
7.32854
7.34391
7.35938
7.37501
7.39062
7.40623
7.42177
7.43709
7.45226
7.4671
7.48161
7.49575
7.50938
7.52259
7.5352
7.54722
7.55862
7.56924
7.57919
7.58829
7.5966
7.60406
7.61063
7.61636
7.62104
7.62491
7.62768
7.62954
7.63043
7.63028
7.62922
7.62711
7.62405
7.62005
7.61503
7.60916
7.60231
7.59461
7.58611
7.57672
7.56663
7.55571
7.54411
7.53189
7.519
7.50565
7.49173
7.47739
7.46265
7.44753
7.43217
7.41658
7.40085
7.38503
7.36918
7.35335
7.33761
7.32203
7.30666
7.29157
7.27681
7.26245
7.24853
7.23511
7.22225
7.20999
7.1984
7.1875
7.17734
7.16795
7.15937
7.15164
7.14479
7.13885
7.13384
7.12978
7.12668
7.12455
7.1234
7.12325
7.1241
7.12593
7.12872
7.13248
7.13717
7.1428
7.14934
7.15676
7.16504
7.17412
7.18398
7.19458
7.20587
7.21782
7.23039
7.24352
7.25716
7.27122
7.28566
7.30043
7.31548
7.33076
7.3462
7.36173
7.3773
7.39282
7.40825
7.42353
7.4386
7.45341
7.46789
7.48197
7.49563
7.50873
7.52132
7.53327
7.54459
7.55526
7.56512
7.57428
7.58256
7.58999
7.59655
7.60219
7.60695
7.61075
7.61359
7.61548
7.61634
7.61628
7.61514
7.61307
7.61006
7.60603
7.60115
7.59524
7.5885
7.58085
7.57231
7.56303
7.55288
7.5421
7.53056
7.5184
7.50566
7.49228
7.47848
7.46417
7.44949
7.43452
7.41921
7.40378
7.38813
7.37241
7.35669
7.34091
7.32531
7.30981
7.29455
7.27963
7.26495
7.25077
7.23697
7.2237
7.21098
7.19882
7.18737
7.17657
7.16654
7.15732
7.14886
7.14133
7.13461
7.12882
7.12398
7.12003
7.11712
7.11512
7.11415
7.11417
7.11516
7.11719
7.12011
7.12407
7.12893
7.13473
7.14146
7.14901
7.15749
7.16673
7.17679
7.1876
7.19907
7.21125
7.22397
7.23727
7.2511
7.26532
7.28
7.29498
7.31024
7.32579
7.34138
7.35718
7.37293
7.38869
7.40438
7.41983
7.43517
7.45014
7.46485
7.47918
7.49298
7.50638
7.51916
7.53135
7.54294
7.55373
7.5639