/*--------------------------------*- C++ -*----------------------------------*\
| =========                 |                                                 |
| \\      /  F ield         | OpenFOAM: The Open Source CFD Toolbox           |
|  \\    /   O peration     | Version:  2106                                  |
|   \\  /    A nd           | Website:  www.openfoam.com                      |
|    \\/     M anipulation  |                                                 |
\*---------------------------------------------------------------------------*/
FoamFile
{
    version     2.0;
    format      ascii;
    arch        "LSB;label=32;scalar=64";
    class       surfaceScalarField;
    location    "0.002";
    object      phi;
}
// * * * * * * * * * * * * * * * * * * * * * * * * * * * * * * * * * * * * * //

dimensions      [0 3 -1 0 0 0 0];

oriented        oriented;

internalField   nonuniform List<scalar> 
319200
(
1.20557e-06
-2.06368e-06
0.000442557
-0.000446362
-3.96455e-06
0.000445944
9.59199e-05
-9.99016e-05
-1.94777e-06
9.83821e-05
1.66911e-05
-1.81207e-05
-2.33247e-06
1.93517e-05
1.91213e-07
-2.13998e-06
-2.73309e-06
3.09974e-06
-2.52001e-06
3.65423e-08
-2.62383e-06
1.32736e-07
-2.45849e-06
1.12906e-07
-2.15864e-06
-2.69335e-07
-2.10065e-06
-7.34518e-08
-1.63973e-06
-2.79163e-07
-1.30908e-06
-3.861e-07
-1.17082e-06
-1.3863e-07
-1.00531e-06
8.62101e-09
-8.82247e-07
-2.89683e-07
-1.04818e-06
2.76497e-07
-1.07896e-06
2.22483e-07
-1.09662e-06
-8.78747e-08
-1.19628e-06
1.91524e-07
-1.17696e-06
1.43846e-07
-1.00015e-06
-7.81055e-08
-6.7555e-07
-3.69005e-07
-5.93972e-07
-7.80077e-10
-3.6191e-07
7.66855e-08
-1.04377e-07
-5.49531e-07
-3.07519e-08
-2.76865e-08
-8.43368e-08
4.66164e-07
-6.59423e-08
-1.92207e-07
-1.16327e-07
-2.00294e-08
-1.47289e-07
2.12329e-07
-1.70831e-07
5.51066e-08
-1.28743e-07
7.53899e-08
8.58698e-08
-2.6506e-07
3.52146e-07
-4.60356e-07
3.75434e-07
7.19787e-08
3.93763e-07
1.35952e-07
6.26829e-07
-2.54398e-07
8.09776e-07
-3.33644e-07
8.33308e-07
-1.70282e-07
6.0786e-07
2.68896e-07
4.13385e-07
4.62961e-07
5.21078e-07
-9.00898e-08
6.66608e-07
-4.57012e-07
7.81589e-07
-2.20257e-07
9.60548e-07
-6.40939e-08
1.07796e-06
-1.44896e-07
1.05415e-06
1.00501e-07
1.11963e-06
1.35819e-07
1.40449e-06
-4.27128e-07
1.50443e-06
-5.36388e-07
1.28068e-06
1.41147e-07
9.99431e-07
6.38839e-07
8.08035e-07
4.33054e-07
6.06121e-07
2.49436e-07
5.07793e-07
1.16036e-07
5.96789e-07
-2.32521e-07
8.17253e-07
-4.57061e-07
9.79915e-07
-2.18164e-07
1.07724e-06
6.96376e-08
1.05817e-06
2.02973e-07
8.86718e-07
3.65549e-07
7.15514e-07
5.00943e-07
6.25027e-07
2.25476e-07
7.20215e-07
-2.86003e-07
7.55195e-07
-2.90671e-07
6.62167e-07
-6.9328e-10
6.53198e-07
-9.19725e-08
7.50045e-07
-3.90723e-07
8.68376e-07
-3.95431e-07
8.56671e-07
3.16341e-08
8.39495e-07
2.16708e-07
1.00937e-06
-1.92245e-08
1.1624e-06
-1.31692e-07
1.26728e-06
-2.41191e-08
1.21524e-06
2.02116e-07
1.13015e-06
1.57068e-07
1.00569e-06
6.64403e-08
7.89773e-07
2.44149e-07
6.79685e-07
2.99776e-07
6.94979e-07
1.08669e-07
8.78057e-07
-2.83293e-07
1.09651e-06
-4.09139e-07
1.1714e-06
-1.57189e-07
1.29335e-06
-7.37109e-09
1.44537e-06
-5.34049e-08
1.65066e-06
-2.53276e-07
1.71149e-06
-2.51957e-07
1.55156e-06
8.52527e-08
1.32904e-06
2.77269e-07
1.11486e-06
2.48385e-07
1.0062e-06
5.32424e-08
9.54972e-07
3.15047e-09
8.6411e-07
1.71835e-07
8.36432e-07
1.63911e-07
8.87749e-07
-7.54659e-09
1.03312e-06
-2.42646e-07
1.12185e-06
-2.32853e-07
1.05238e-06
2.31887e-08
9.445e-07
2.21726e-07
8.2245e-07
2.84662e-07
8.80294e-07
-1.48258e-08
9.76088e-07
-1.66116e-07
1.0306e-06
-1.37807e-07
9.95862e-07
3.93301e-08
8.0926e-07
2.23576e-07
6.90143e-07
1.42692e-07
6.12496e-07
4.46969e-09
5.74441e-07
-1.17904e-07
5.8476e-07
-9.39986e-08
6.00435e-07
7.41986e-08
7.0946e-07
9.07664e-08
8.97675e-07
-2.59311e-08
1.15087e-06
-2.70133e-07
1.50265e-06
-4.73521e-07
1.67512e-06
-3.3008e-07
1.80176e-06
-1.70467e-07
1.75738e-06
6.78461e-08
1.71133e-06
1.16202e-07
1.80151e-06
-5.7676e-08
1.91625e-06
-1.91146e-07
2.19046e-06
-4.16684e-07
2.44068e-06
-3.69599e-07
2.62961e-06
-1.98517e-07
2.81487e-06
-7.15058e-08
2.8972e-06
5.93446e-08
3.08859e-06
-8.98323e-08
3.27316e-06
-1.93268e-07
3.44226e-06
-2.90127e-07
3.55195e-06
-2.69704e-07
3.49903e-06
-3.38698e-08
3.35894e-06
1.72001e-07
3.07908e-06
4.12631e-07
2.70905e-06
4.96767e-07
2.35596e-06
4.09978e-07
1.93514e-06
4.05825e-07
1.66346e-06
1.92519e-07
1.38266e-06
1.60839e-07
1.17595e-06
1.0891e-07
1.0203e-06
1.40816e-07
8.73046e-07
2.41469e-07
7.92183e-07
2.3857e-07
5.7377e-07
3.56463e-07
4.08575e-07
2.39703e-07
1.63818e-07
2.48006e-07
-7.54903e-08
1.62505e-07
-2.90773e-07
7.32164e-08
-4.93674e-07
4.15837e-08
-5.57495e-07
-3.59183e-08
-5.77253e-07
2.198e-08
-5.47639e-07
6.70744e-08
-4.63767e-07
5.89084e-08
-4.28906e-07
1.32763e-07
-3.2554e-07
5.78063e-08
-2.57992e-07
4.92747e-08
-1.92453e-07
-3.14798e-08
-1.20415e-07
-1.21599e-07
-6.35643e-08
-1.70026e-07
-2.50174e-08
-1.90914e-07
-4.3056e-08
-1.60463e-07
-1.32764e-07
-1.05625e-07
-2.31901e-07
-6.2354e-08
-3.62546e-07
3.59467e-08
-4.29609e-07
4.94362e-08
-5.09922e-07
8.92773e-08
-5.96094e-07
1.06163e-07
-6.58305e-07
9.28101e-08
-7.37747e-07
1.47556e-07
-8.2781e-07
1.90051e-07
-9.3626e-07
2.12292e-07
-1.05653e-06
2.01492e-07
-1.16113e-06
1.61208e-07
-1.22789e-06
1.13873e-07
-1.24879e-06
6.37239e-08
-1.22204e-06
1.90594e-10
-1.14507e-06
-7.69571e-08
-1.00966e-06
-1.51508e-07
-8.17393e-07
-2.07972e-07
-5.77271e-07
-2.4276e-07
-3.17598e-07
-2.60573e-07
-7.20374e-08
-2.55051e-07
1.34862e-07
-2.33096e-07
2.68612e-07
-1.65625e-07
2.98832e-07
-6.10011e-08
2.14314e-07
5.92213e-08
1.76169e-08
1.73798e-07
-2.49759e-07
2.51669e-07
-5.51478e-07
2.98248e-07
-8.55932e-07
3.06453e-07
-1.12154e-06
2.72881e-07
-1.31859e-06
2.05503e-07
-1.42076e-06
1.06824e-07
-1.40722e-06
-1.21034e-08
-1.26759e-06
-1.39588e-07
-1.00535e-06
-2.61808e-07
-6.45709e-07
-3.61987e-07
-2.32379e-07
-4.17118e-07
1.76233e-07
-4.17223e-07
5.27259e-07
-3.6292e-07
7.80393e-07
-2.69621e-07
9.17205e-07
-1.55072e-07
9.33077e-07
-3.66196e-08
8.32611e-07
8.06572e-08
6.19909e-07
1.911e-07
3.16345e-07
2.84432e-07
-4.25448e-08
3.50447e-07
-4.21618e-07
3.85673e-07
-7.59037e-07
3.50021e-07
-1.01374e-06
2.60797e-07
-1.15587e-06
1.38583e-07
-1.18154e-06
1.77951e-08
-1.11012e-06
-7.97235e-08
-9.7e-07
-1.48485e-07
-7.91214e-07
-1.95141e-07
-5.97459e-07
-2.17775e-07
-4.04863e-07
-2.11629e-07
-2.44454e-07
-1.65927e-07
-1.5614e-07
-9.12715e-08
-1.61121e-07
-1.02384e-08
-2.51958e-07
5.80814e-08
-3.87601e-07
1.09833e-07
-5.28268e-07
1.39874e-07
-6.47796e-07
1.32779e-07
-7.35992e-07
9.37334e-08
-7.85919e-07
4.08434e-08
-7.92363e-07
2.52529e-09
-7.59991e-07
-5.77493e-09
-6.84438e-07
-2.36116e-08
-6.25112e-07
-1.24168e-08
-5.70585e-07
-3.85816e-08
-5.28087e-07
-3.10088e-08
-5.80785e-07
7.80812e-08
-6.29025e-07
9.96943e-08
-7.3627e-07
1.42534e-07
-8.29936e-07
1.03876e-07
-8.49308e-07
1.15972e-08
-8.61784e-07
-7.27722e-09
-7.80371e-07
-1.05358e-07
-7.00134e-07
-1.32908e-07
-6.00575e-07
-1.62092e-07
-4.56241e-07
-1.93858e-07
-3.62956e-07
-1.20053e-07
-2.83578e-07
-8.41582e-08
-3.04754e-07
2.59699e-08
-4.24405e-07
1.54979e-07
-6.07255e-07
2.55854e-07
-9.25501e-07
3.96846e-07
-1.22174e-06
3.34038e-07
-1.53094e-06
2.94756e-07
-1.76008e-06
1.89182e-07
-1.86693e-06
6.05112e-08
-1.9029e-06
-1.66278e-09
-1.78887e-06
-1.48656e-07
-1.66321e-06
-1.26525e-07
-1.57502e-06
-4.97078e-08
-1.59136e-06
5.83783e-08
-1.7247e-06
1.45344e-07
-1.89159e-06
1.49766e-07
-2.137e-06
2.22307e-07
-2.32047e-06
1.63841e-07
-2.52689e-06
1.68265e-07
-2.6963e-06
1.34021e-07
-2.77821e-06
8.76703e-08
-2.79703e-06
7.08065e-08
-2.65626e-06
-7.83854e-08
-2.44911e-06
-1.93956e-07
-2.19415e-06
-2.92505e-07
-1.92102e-06
-3.53246e-07
-1.7491e-06
-2.50694e-07
-1.56269e-06
-2.45052e-07
-1.44388e-06
-1.17297e-07
-1.34145e-06
-5.7089e-08
-1.21332e-06
-9.29411e-08
-1.10667e-06
-1.08978e-07
-9.26376e-07
-2.29268e-07
-8.0362e-07
-1.74769e-07
-7.06803e-07
-1.24914e-07
-5.75604e-07
-1.3076e-07
-4.0738e-07
-1.41596e-07
-6.75607e-08
-2.74969e-07
3.47547e-07
-3.97779e-07
7.57165e-07
-4.68806e-07
1.13785e-06
-4.41105e-07
1.33625e-06
-2.0517e-07
1.4801e-06
-7.86775e-08
1.49587e-06
4.38673e-08
1.43799e-06
6.53406e-08
1.39185e-06
1.76812e-08
1.25552e-06
1.21283e-07
1.18411e-06
5.52523e-08
1.08811e-06
9.90591e-08
1.01965e-06
5.98919e-08
1.02695e-06
-3.87149e-08
9.80222e-07
-1.50209e-08
1.00666e-06
-4.21893e-08
9.7078e-07
5.69777e-08
9.47006e-07
5.22537e-08
9.39948e-07
5.85574e-09
9.18947e-07
-2.41667e-08
8.76694e-07
-2.74772e-08
6.75562e-07
1.36214e-07
4.95986e-07
1.88575e-07
2.83956e-07
2.34195e-07
1.51126e-07
1.23403e-07
7.70358e-08
3.48356e-08
6.74112e-08
3.39552e-08
1.50294e-07
3.93524e-09
3.43724e-07
-1.79132e-07
6.60784e-07
-3.85284e-07
1.03131e-06
-4.24732e-07
1.24922e-06
-1.74667e-07
1.43179e-06
-8.32311e-08
1.43742e-06
1.20282e-09
1.35144e-06
5.52898e-09
1.15796e-06
1.00379e-07
7.97762e-07
3.60042e-07
5.06519e-07
3.75161e-07
2.53946e-07
2.75667e-07
9.92219e-08
1.54505e-07
-4.89753e-08
1.808e-07
-1.00497e-07
1.36802e-07
-9.7123e-08
2.52467e-08
-5.76721e-08
-6.44907e-08
-7.98082e-08
5.19938e-08
-1.09796e-07
1.68519e-07
-1.30909e-08
7.80395e-08
1.14754e-07
-1.21646e-07
2.79008e-07
-2.43009e-07
3.49288e-07
-9.89052e-08
3.74567e-07
-4.62085e-08
3.55427e-07
-1.17671e-07
2.81789e-07
-9.94236e-08
1.10068e-07
1.07531e-07
-7.74478e-08
1.85831e-07
-2.40485e-07
1.28169e-07
-3.53283e-07
1.61102e-07
-3.94184e-07
1.47518e-07
-4.36956e-07
8.59349e-08
-5.83873e-07
8.36857e-08
-8.58685e-07
2.59249e-07
-1.23829e-06
2.92224e-07
-1.52391e-06
1.44721e-07
-1.7676e-06
3.41177e-07
-1.92613e-06
4.31472e-07
-2.01346e-06
1.06925e-07
-1.80824e-06
-3.36606e-07
-1.52599e-06
-2.72986e-07
-1.33506e-06
-7.53428e-08
-1.08097e-06
-2.68707e-07
-8.33089e-07
-2.09606e-07
-7.16471e-07
5.1621e-08
-6.91805e-07
-2.85136e-08
-7.51403e-07
-8.57827e-08
-9.35579e-07
2.05658e-07
-1.22518e-06
4.10876e-07
-1.40832e-06
1.88722e-07
-1.38893e-06
3.47835e-08
-1.35749e-06
-6.08134e-08
-1.30027e-06
-5.15995e-08
-1.31742e-06
1.52553e-07
-1.27114e-06
-6.26654e-08
-9.80105e-07
-3.41841e-07
-8.4262e-07
-5.7111e-08
-8.85792e-07
-1.2766e-07
-8.62142e-07
-3.62597e-08
-9.18156e-07
1.77902e-07
-8.73565e-07
-2.02642e-07
-7.84203e-07
-1.3979e-07
-7.5599e-07
1.50734e-07
-5.93843e-07
-3.16331e-07
-4.03486e-07
-2.9274e-07
-3.82688e-07
1.25963e-07
-3.59713e-07
-1.51384e-07
-3.48389e-07
-1.99788e-08
-5.25189e-07
1.66488e-07
-6.30322e-07
1.23541e-07
-7.57252e-07
1.43743e-07
-8.15555e-07
-5.43824e-08
-7.50203e-07
1.23061e-07
-5.91437e-07
-1.33368e-07
-2.68848e-07
-3.59669e-07
-5.6686e-08
-4.5648e-08
2.23614e-07
-2.41323e-07
3.57313e-07
-9.50049e-08
3.9783e-07
1.43939e-07
3.24354e-07
7.37342e-08
-2.08728e-07
5.65679e-07
-3.28429e-07
3.65321e-07
-3.68993e-06
3.27228e-06
-1.73562e-06
-1.67202e-06
-2.12638e-05
1.94314e-05
-3.4966e-06
-1.76401e-05
-0.000102169
9.8408e-05
-2.83689e-06
-9.96205e-05
-0.000449258
0.00044544
-6.82638e-06
-0.000445479
-1.94068e-06
-0.000448004
0.00044188
-0.000448352
-0.000446018
-0.000127403
0.000124995
-0.00010044
-0.000126862
-3.58789e-05
3.38192e-05
-2.16244e-05
-3.2369e-05
-9.12242e-06
6.85228e-06
-4.49058e-06
-6.7728e-06
-2.07827e-06
6.95715e-07
-9.66958e-07
-1.0811e-06
-5.56652e-07
-2.73073e-07
-3.79176e-07
-6.65744e-08
-3.29153e-07
-3.17569e-07
-3.6137e-07
-4.98686e-08
-4.15872e-07
-2.19746e-07
-5.4829e-07
-2.52001e-07
-6.05083e-07
-8.41595e-08
-5.49933e-07
-4.02273e-08
-6.44148e-07
-2.07871e-07
-5.4682e-07
1.79673e-07
-4.61291e-07
1.3419e-07
-4.81092e-07
-7.99713e-08
-4.23605e-07
1.49044e-07
-3.90996e-07
9.90833e-08
-4.42205e-07
-2.32392e-08
-4.95029e-07
-3.09416e-07
-5.67424e-07
6.89747e-08
-5.48578e-07
6.36586e-08
-7.30132e-07
-3.64004e-07
-7.31568e-07
-2.74517e-08
-5.55068e-07
2.88012e-07
-6.31589e-07
-1.15482e-07
-5.82182e-07
-7.13619e-08
-3.64369e-07
-1.19796e-08
-2.39232e-07
-7.05846e-08
-1.36003e-07
-2.56144e-08
-1.50655e-07
-2.53289e-07
-1.21408e-07
-4.91577e-07
-4.1948e-08
-4.0145e-09
-1.93289e-08
1.15604e-07
-1.23503e-07
-1.56174e-07
-2.1401e-07
-2.46635e-07
-2.84445e-07
-9.50121e-08
-2.31615e-07
2.13471e-07
-1.7446e-07
3.97568e-07
-2.37384e-07
-2.46735e-08
-3.85355e-07
-3.02606e-07
-4.12778e-07
-1.94302e-07
-3.60102e-07
-1.21241e-07
-4.05081e-07
-9.95332e-08
-4.45093e-07
1.44929e-07
-4.32919e-07
1.21654e-07
-5.10866e-07
-3.60504e-07
-5.67534e-07
-4.8438e-07
-5.24569e-07
1.04443e-07
-3.3883e-07
4.51306e-07
-1.91209e-07
2.73361e-07
-9.1142e-08
1.46153e-07
-4.78924e-08
7.92239e-08
-8.24354e-08
-1.97762e-07
-1.14689e-07
-4.32876e-07
-9.47327e-08
-2.45092e-07
-1.04479e-07
7.88567e-08
-1.25652e-07
2.29695e-07
-1.24823e-07
3.69208e-07
-5.50674e-08
4.27507e-07
-2.84566e-08
1.9479e-07
-1.09939e-07
-1.96788e-07
-1.86206e-07
-2.02403e-07
-1.62611e-07
-2.48079e-08
-1.27666e-07
-1.37925e-07
-1.28352e-07
-3.96476e-07
-1.39705e-07
-3.81934e-07
-9.44429e-08
-9.77122e-09
-3.73997e-08
1.60375e-07
-1.22504e-08
-4.86296e-08
5.50082e-08
-2.0694e-07
1.0198e-07
-7.4808e-08
1.50524e-07
1.60218e-07
1.32252e-07
1.84656e-07
1.23935e-07
7.47996e-08
1.84557e-07
1.75691e-07
2.96561e-07
1.82689e-07
3.02774e-07
1.04134e-07
1.78759e-07
-1.53828e-07
3.97987e-08
-2.62613e-07
-2.80235e-08
-8.23303e-08
-5.0618e-08
1.46884e-08
-4.24765e-08
-7.15667e-08
-3.30087e-08
-2.72282e-07
-2.86208e-08
-2.55588e-07
3.44714e-08
2.9678e-08
6.49544e-08
2.50897e-07
1.13971e-07
1.97274e-07
1.4609e-07
1.6741e-08
2.31354e-07
-8.71145e-08
3.22959e-07
7.46778e-08
4.05463e-07
7.96634e-08
3.62377e-07
4.23262e-08
2.44984e-07
-1.13626e-07
1.34603e-07
-1.15506e-07
9.79571e-08
5.81782e-08
1.15451e-07
1.98211e-07
1.51285e-07
2.42549e-07
1.67754e-07
-3.81105e-08
1.75985e-07
-1.80723e-07
2.15763e-07
-1.78049e-07
2.96354e-07
-3.2511e-08
3.29265e-07
2.03677e-07
3.39851e-07
1.41133e-07
2.90428e-07
5.63764e-08
2.37824e-07
-6.61747e-08
2.28021e-07
-8.68158e-08
2.42468e-07
5.30378e-08
2.55509e-07
6.62724e-08
2.34376e-07
-1.62402e-08
1.69302e-07
-2.10993e-07
1.03962e-07
-4.08427e-07
8.6842e-08
-3.11192e-07
1.13294e-07
-1.9439e-07
1.83855e-07
3.30673e-09
2.3951e-07
7.17793e-08
2.48295e-07
-5.29442e-08
2.14301e-07
-1.45786e-07
1.42934e-07
-3.36847e-07
7.33563e-08
-2.91663e-07
3.56552e-08
-1.51215e-07
-3.23232e-08
4.67828e-09
-5.98479e-08
9.02855e-08
-1.5599e-07
5.13614e-09
-2.46495e-07
-1.05098e-07
-3.32742e-07
-2.04926e-07
-3.84214e-07
-2.18875e-07
-3.5997e-07
-6.04213e-08
-3.02126e-07
1.1023e-07
-1.82537e-07
2.89756e-07
-6.32934e-08
3.76531e-07
-7.84387e-09
3.55059e-07
6.95523e-08
3.28564e-07
7.05582e-08
1.90522e-07
8.30107e-08
1.4709e-07
7.54842e-08
1.15557e-07
5.89367e-08
1.56346e-07
4.98428e-08
2.48408e-07
1.63668e-08
2.68855e-07
3.99658e-08
3.29965e-07
3.29565e-08
2.45217e-07
7.50226e-08
2.05594e-07
1.13141e-07
1.24069e-07
1.58737e-07
2.67442e-08
1.82108e-07
1.72332e-08
1.88327e-07
-4.26437e-08
1.71177e-07
3.87366e-08
1.51871e-07
8.49858e-08
1.04512e-07
1.03261e-07
8.17075e-08
1.51682e-07
4.0639e-08
9.56273e-08
2.83622e-08
5.98903e-08
3.4846e-08
-3.83557e-08
2.0472e-08
-1.07343e-07
2.47595e-08
-1.74752e-07
9.83483e-09
-1.76576e-07
2.65984e-09
-1.53666e-07
-3.12743e-09
-1.00184e-07
-1.94257e-08
-4.70245e-08
-1.64083e-08
3.09451e-08
-2.54314e-08
5.58812e-08
-1.79589e-08
7.95859e-08
1.64708e-09
8.53421e-08
1.73011e-08
7.67661e-08
6.44233e-08
1.00159e-07
1.22565e-07
1.31259e-07
1.82151e-07
1.51813e-07
2.23483e-07
1.59475e-07
2.3728e-07
1.47079e-07
2.26557e-07
1.24217e-07
2.04907e-07
8.44366e-08
1.83974e-07
1.96492e-08
1.64857e-07
-5.91414e-08
1.48861e-07
-1.358e-07
1.3573e-07
-1.93914e-07
1.25089e-07
-2.30706e-07
1.0969e-07
-2.44454e-07
8.14396e-08
-2.27535e-07
3.5196e-08
-1.88866e-07
-1.13545e-08
-1.21428e-07
-4.264e-08
-3.1392e-08
-3.92132e-08
5.52865e-08
7.33983e-09
1.27775e-07
8.94047e-08
1.70754e-07
1.92198e-07
1.96885e-07
2.88048e-07
2.12119e-07
3.71662e-07
1.90621e-07
4.29939e-07
1.47945e-07
4.50317e-07
8.60152e-08
4.29403e-07
7.0902e-09
3.76831e-07
-8.94605e-08
3.18751e-07
-2.05745e-07
2.71629e-07
-3.15297e-07
2.41333e-07
-3.85217e-07
2.14997e-07
-3.87839e-07
1.83144e-07
-3.27926e-07
1.43534e-07
-2.28121e-07
1.06892e-07
-1.18373e-07
8.33477e-08
-1.43895e-08
8.17883e-08
8.06914e-08
1.07798e-07
1.64474e-07
1.63586e-07
2.29359e-07
2.46881e-07
2.68739e-07
3.57481e-07
2.76572e-07
4.6584e-07
2.4224e-07
5.3917e-07
1.86901e-07
5.65857e-07
1.10621e-07
5.50246e-07
3.21501e-08
5.1359e-07
-4.3762e-08
4.75221e-07
-1.10154e-07
4.40192e-07
-1.59777e-07
4.08258e-07
-1.85529e-07
3.86959e-07
-1.90307e-07
3.78751e-07
-1.58069e-07
3.8191e-07
-9.51161e-08
3.86908e-07
-1.61611e-08
3.83002e-07
6.10025e-08
3.75766e-07
1.16312e-07
3.8055e-07
1.34848e-07
4.06107e-07
1.07553e-07
4.41156e-07
5.92458e-08
4.74618e-07
7.55116e-09
5.02372e-07
-2.59632e-08
5.17115e-07
-2.21789e-08
5.33149e-07
-4.17177e-08
5.11759e-07
7.17023e-09
4.74452e-07
-2.46367e-09
4.56044e-07
-1.33934e-08
4.2025e-07
1.12938e-07
4.55276e-07
6.32052e-08
4.61648e-07
1.34255e-07
4.60567e-07
1.03061e-07
4.75973e-07
-5.23746e-09
4.46263e-07
2.16074e-08
4.66735e-07
-1.26305e-07
4.49698e-07
-1.16482e-07
4.24627e-07
-1.38253e-07
4.1649e-07
-1.87827e-07
3.69376e-07
-7.57733e-08
3.50498e-07
-6.82651e-08
3.12298e-07
6.18096e-08
2.88934e-07
1.77099e-07
3.24345e-07
2.20112e-07
3.66936e-07
3.54004e-07
4.53556e-07
2.464e-07
5.02721e-07
2.43621e-07
5.34416e-07
1.55174e-07
5.60323e-07
3.2736e-08
5.3374e-07
2.37083e-08
4.95644e-07
-1.11662e-07
4.32528e-07
-6.51506e-08
3.95042e-07
-1.48227e-08
3.69027e-07
8.14481e-08
3.36094e-07
1.75819e-07
3.18634e-07
1.65828e-07
3.33061e-07
2.07571e-07
3.93883e-07
1.03327e-07
4.74057e-07
8.82411e-08
5.52275e-07
5.50642e-08
6.15691e-07
2.24666e-08
6.2964e-07
5.47885e-08
6.09883e-07
-5.96597e-08
5.32104e-07
-1.15334e-07
4.33094e-07
-1.91135e-07
3.41647e-07
-2.58936e-07
2.85115e-07
-1.91141e-07
2.46898e-07
-2.02741e-07
2.16573e-07
-8.06644e-08
1.9343e-07
-2.56225e-08
1.66085e-07
-5.70235e-08
1.49985e-07
-8.59402e-08
1.35177e-07
-2.09719e-07
1.61336e-07
-1.97758e-07
1.88961e-07
-1.50415e-07
2.05557e-07
-1.4658e-07
1.55779e-07
-9.29824e-08
1.03064e-07
-2.2541e-07
4.58693e-09
-3.03819e-07
-1.02527e-07
-3.66575e-07
-2.00866e-07
-3.4684e-07
-2.42491e-07
-1.65758e-07
-2.40379e-07
-8.09697e-08
-2.2416e-07
2.84199e-08
-2.06791e-07
4.83512e-08
-1.86583e-07
-2.66109e-09
-1.18726e-07
5.37443e-08
-9.11996e-08
2.86938e-08
-8.44295e-08
9.24118e-08
-1.14733e-07
8.80149e-08
-1.60331e-07
3.16923e-09
-1.7425e-07
-3.86786e-09
-1.62347e-07
-5.44101e-08
-1.38696e-07
3.46399e-08
-1.35685e-07
5.04669e-08
-1.70844e-07
4.13273e-08
-2.19413e-07
2.39737e-08
-2.34879e-07
-1.28218e-08
-2.41819e-07
1.42176e-07
-1.99383e-07
1.44948e-07
-1.46577e-07
1.79616e-07
-8.35412e-08
5.80415e-08
-3.55373e-08
-1.47938e-08
1.54807e-08
-1.6655e-08
1.8943e-08
2.04725e-09
-6.25939e-08
-9.74458e-08
-2.09668e-07
-2.40253e-07
-2.9939e-07
-3.36908e-07
-3.01424e-07
-1.72419e-07
-3.10188e-07
-7.34838e-08
-3.70469e-07
6.08626e-08
-4.69921e-07
1.02929e-07
-4.88006e-07
1.17047e-07
-4.43572e-07
3.15739e-07
-3.38928e-07
2.71339e-07
-2.70329e-07
2.07582e-07
-2.11971e-07
9.62407e-08
-1.42209e-07
1.11426e-07
-1.24789e-07
1.20539e-07
-1.20367e-07
2.14126e-08
-1.13608e-07
-7.33278e-08
-4.55076e-08
-1.9824e-08
-5.21388e-09
1.26859e-07
-1.96119e-08
9.43001e-08
-1.07076e-07
-3.32359e-08
-2.17416e-07
-1.35109e-07
-2.82543e-07
-3.65433e-08
-3.23216e-07
-5.34442e-09
-4.04625e-07
-3.38259e-08
-4.19973e-07
-8.14036e-08
-3.59958e-07
4.93992e-08
-3.2119e-07
1.47369e-07
-3.18351e-07
1.23856e-07
-3.62323e-07
2.0236e-07
-3.60898e-07
1.42552e-07
-3.71263e-07
9.33855e-08
-3.39425e-07
5.15559e-08
-2.27443e-07
1.48374e-07
-1.8487e-07
2.49591e-07
-1.41167e-07
1.00546e-07
3.73201e-08
1.62257e-07
1.37026e-07
3.29241e-07
1.51314e-08
2.25468e-07
-1.59906e-07
-1.62895e-07
-2.01897e-07
-2.32006e-07
-2.13475e-07
-6.50255e-08
-3.17581e-07
-1.63506e-07
-3.45249e-07
-1.80402e-07
-3.25144e-07
3.05799e-08
-3.99802e-07
4.47853e-08
-5.04316e-07
1.81556e-08
-4.20034e-07
1.19422e-07
-3.73971e-07
3.60715e-07
-4.50345e-07
2.62799e-07
-5.20414e-07
1.06465e-07
-5.68225e-07
-1.37022e-08
-4.95474e-07
-1.26032e-07
-4.01713e-07
6.33197e-08
-4.01125e-07
-6.20354e-08
-3.6663e-07
-3.8117e-07
-2.1193e-07
-2.10528e-07
-2.01809e-07
-1.37649e-07
-1.14438e-07
-1.30411e-07
-5.06602e-08
1.138e-07
-1.34345e-07
-1.16349e-07
-8.35318e-08
-1.94397e-07
-9.55031e-08
1.65508e-07
-2.89788e-07
-1.15286e-07
-2.92959e-07
-2.90516e-07
-2.28297e-07
6.66157e-08
-3.42516e-07
-3.15008e-08
-2.53357e-07
-1.09527e-07
-1.69765e-07
8.29506e-08
-8.36487e-08
3.7535e-08
-3.61405e-08
9.33937e-08
2.376e-08
-1.16218e-07
9.31722e-08
5.31653e-08
4.2599e-08
-8.67686e-08
-5.02385e-08
-2.66528e-07
-9.30351e-08
-5.66274e-09
-2.50109e-07
-8.3788e-08
-2.86561e-07
-5.88072e-08
-2.8941e-07
1.47208e-07
-2.42493e-07
2.84215e-08
1.81275e-07
1.43508e-07
1.21095e-06
-6.62189e-07
3.50251e-06
9.77482e-07
8.06843e-06
-6.23656e-06
2.0217e-05
7.28105e-06
3.43574e-05
-3.17779e-05
9.81362e-05
3.46252e-05
0.000124547
-0.000126031
0.000443873
0.000126112
0.000442632
-0.000444235
0.00044476
0.000443907
-2.85198e-06
0.000124471
-0.000126581
0.000125148
0.00012432
5.48283e-05
-5.65405e-05
3.50845e-05
5.35609e-05
1.68797e-05
-1.41604e-05
9.13471e-06
1.45948e-05
4.19109e-06
-1.82862e-06
1.98857e-06
2.90055e-06
7.94941e-07
1.15295e-07
1.59802e-07
3.58927e-07
-1.51113e-08
1.08154e-07
-2.49176e-07
-8.0802e-08
-2.66273e-07
-3.59417e-08
-3.41092e-07
-1.4655e-07
-5.04344e-07
-9.231e-08
-4.90848e-07
-1.01109e-07
-4.83622e-07
-4.30657e-08
-6.08556e-07
-8.27857e-08
-4.56221e-07
2.94703e-08
-3.42534e-07
1.99046e-08
-4.17451e-07
-9.89771e-09
-3.07203e-07
3.8001e-08
-1.93487e-07
-1.24931e-08
-2.3247e-07
1.75824e-08
-4.08156e-07
-1.34284e-07
-3.5468e-07
1.77693e-08
-2.59448e-07
-2.80133e-08
-4.73682e-07
-1.50117e-07
-5.43813e-07
4.65896e-08
-2.36848e-07
-1.9332e-08
-3.07812e-07
-4.73472e-08
-3.39889e-07
-3.62909e-08
-2.63206e-07
-9.22554e-08
-2.55288e-07
-8.176e-08
-1.75029e-07
-1.04023e-07
-2.69987e-07
-1.59062e-07
-5.31717e-07
-2.31729e-07
-4.49673e-07
-8.70156e-08
-3.27092e-07
-3.72064e-09
-3.5546e-07
-1.27164e-07
-4.98943e-07
-1.08571e-07
-5.99851e-07
7.78274e-09
-4.27448e-07
4.43049e-08
-1.18086e-07
8.25855e-08
-9.80562e-08
-4.61118e-08
-3.19981e-07
-7.6285e-08
-4.19268e-07
-9.50412e-08
-4.02041e-07
-1.39999e-07
-4.65151e-07
-3.69781e-08
-3.11068e-07
-9.20384e-09
-1.62061e-07
-2.54042e-08
-3.7721e-07
-1.47954e-07
-7.26818e-07
-1.42775e-07
-7.18305e-07
9.45362e-08
-3.63599e-07
9.96757e-08
-1.71345e-07
7.59075e-08
-6.62082e-08
3.3317e-08
-2.15976e-08
3.5547e-08
-1.77449e-07
-3.89167e-08
-4.37126e-07
-1.75904e-07
-6.07755e-07
-7.79914e-08
-5.53843e-07
2.46199e-08
-4.60274e-07
1.37493e-07
-2.62013e-07
1.73949e-07
6.00886e-08
1.08603e-07
1.82721e-07
7.22272e-08
1.76868e-08
-3.19279e-08
-1.65449e-07
-1.4692e-08
-1.61583e-07
-2.34051e-08
-1.59282e-07
-1.41281e-07
-3.77382e-07
-1.83181e-07
-5.75214e-07
-1.85676e-07
-5.54368e-07
-2.91053e-08
-3.80558e-07
-1.3188e-08
-3.32987e-07
-9.7703e-08
-4.30686e-07
-1.10789e-07
-4.41375e-07
-6.57043e-08
-3.42723e-07
6.07945e-08
-2.74416e-07
1.19066e-07
-2.48182e-07
5.41946e-08
-1.70629e-07
1.01655e-07
-1.0615e-08
2.1505e-08
6.7497e-08
2.40433e-08
-6.75009e-08
-1.69195e-08
-2.46217e-07
-7.8855e-08
-3.11638e-07
-1.28068e-08
-2.01224e-07
-9.43e-08
-1.71068e-07
-1.01998e-07
-2.96715e-07
-1.48175e-07
-4.43607e-07
-1.11506e-07
-4.54922e-07
3.89778e-08
-2.89271e-07
8.67426e-08
-1.79552e-07
9.15449e-08
-2.00168e-07
3.94409e-08
-2.31502e-07
-5.75435e-08
-2.01593e-07
4.22854e-08
-9.74618e-08
-2.41985e-08
-9.52994e-08
4.25492e-08
-2.07904e-07
1.21773e-09
-3.38567e-07
1.76753e-08
-3.61541e-07
8.54858e-08
-2.03987e-07
4.50416e-08
-3.64907e-08
7.5618e-08
-2.76465e-08
-5.04614e-08
-1.43554e-07
-6.80446e-08
-2.79838e-07
-4.15406e-08
-2.73362e-07
-3.69588e-08
-1.81023e-07
1.12599e-07
-7.20772e-08
3.392e-08
-5.89176e-08
4.8207e-08
-1.27976e-07
9.9545e-09
-1.69197e-07
-4.11642e-08
-1.28281e-07
1.18349e-08
-1.02637e-08
-5.35717e-08
6.71666e-08
-9.35898e-08
1.14854e-08
-1.54621e-07
-1.56391e-07
-2.42859e-07
-3.09768e-07
-1.62917e-07
-3.37304e-07
-1.7013e-07
-2.56553e-07
-7.57523e-08
-1.20333e-07
-6.00513e-08
-6.13044e-08
-1.09083e-07
-9.96324e-08
-1.06444e-07
-2.537e-07
-1.80159e-07
-3.97108e-07
-1.42062e-07
-4.40932e-07
-1.003e-07
-3.7344e-07
-5.89114e-08
-2.69229e-07
-1.37784e-08
-2.14034e-07
-5.05896e-08
-2.51652e-07
-6.63411e-08
-3.83589e-07
-7.13488e-08
-5.33313e-07
-6.95545e-08
-6.20218e-07
2.38412e-08
-5.928e-07
8.04123e-08
-4.58873e-07
1.55733e-07
-2.93392e-07
2.12635e-07
-1.57387e-07
2.2031e-07
-6.43414e-08
2.35735e-07
-7.28213e-08
1.99269e-07
-1.25229e-07
2.00706e-07
-1.95869e-07
1.87504e-07
-2.21692e-07
1.82007e-07
-1.9776e-07
2.22664e-07
-1.09281e-07
1.78527e-07
2.20839e-09
2.18194e-07
8.23474e-08
1.66236e-07
1.37544e-07
1.51553e-07
1.40598e-07
1.2128e-07
9.09561e-08
7.63658e-08
3.1667e-08
7.72732e-08
-5.34552e-08
4.39238e-08
-8.25412e-08
6.86579e-08
-6.838e-08
7.00193e-08
-2.70679e-08
6.00053e-08
6.43448e-08
5.8747e-08
1.32598e-07
2.72597e-08
1.96923e-07
-3.63064e-09
1.93272e-07
-3.41597e-08
1.59243e-07
-7.34125e-08
6.77501e-08
-8.31637e-08
-2.10415e-08
-8.65035e-08
-9.76162e-08
-7.48018e-08
-1.61948e-07
-3.39412e-08
-1.8381e-07
-2.49162e-08
-2.00213e-07
4.60343e-08
-1.7773e-07
3.19371e-08
-1.61863e-07
6.3506e-08
-1.42006e-07
6.66897e-08
-1.16505e-07
5.28977e-08
-8.65816e-08
7.12832e-08
-3.52723e-08
8.03441e-08
2.10423e-08
9.59796e-08
8.51309e-08
9.6542e-08
1.40959e-07
9.28158e-08
1.87527e-07
7.87997e-08
2.21752e-07
5.05051e-08
2.33436e-07
7.9165e-09
2.18817e-07
-4.38485e-08
1.82027e-07
-9.70066e-08
1.30209e-07
-1.39241e-07
6.65881e-08
-1.64585e-07
-8.34837e-09
-1.68304e-07
-8.29036e-08
-1.52983e-07
-1.52257e-07
-1.19821e-07
-1.97632e-07
-7.57427e-08
-2.06379e-07
-2.14706e-08
-1.81821e-07
3.23482e-08
-1.32024e-07
7.95854e-08
-6.66734e-08
1.07053e-07
1.16079e-08
1.20781e-07
1.00259e-07
1.26469e-07
1.85049e-07
1.09213e-07
2.51734e-07
8.395e-08
2.92204e-07
4.65922e-08
3.00849e-07
-2.16336e-09
2.80293e-07
-7.00555e-08
2.23699e-07
-1.49252e-07
1.28891e-07
-2.18497e-07
5.86323e-09
-2.58288e-07
-1.16715e-07
-2.60699e-07
-2.15641e-07
-2.25255e-07
-2.77117e-07
-1.64502e-07
-3.01968e-07
-9.26945e-08
-3.00745e-07
-1.50893e-08
-2.73491e-07
5.4638e-08
-2.15312e-07
1.08503e-07
-1.29998e-07
1.46831e-07
-2.80215e-08
1.69346e-07
7.26426e-08
1.7773e-07
1.55769e-07
1.60182e-07
2.11523e-07
1.31932e-07
2.386e-07
8.45726e-08
2.36364e-07
3.58595e-08
2.0882e-07
-1.45254e-08
1.59716e-07
-5.95334e-08
9.63825e-08
-9.53087e-08
3.12979e-08
-1.19534e-07
-3.53991e-08
-1.2256e-07
-8.65444e-08
-1.05509e-07
-1.13811e-07
-6.62216e-08
-1.11485e-07
-1.70657e-08
-8.0072e-08
3.04983e-08
-2.76115e-08
6.43744e-08
3.08569e-08
7.70361e-08
6.98513e-08
6.98451e-08
8.99255e-08
4.11075e-08
8.6747e-08
1.27612e-08
7.32599e-08
-1.1096e-08
5.89252e-08
-7.50213e-09
3.72925e-08
-2.05342e-08
3.0164e-08
1.37166e-08
1.70841e-08
1.04641e-08
3.65549e-09
4.14121e-10
4.56072e-08
7.15861e-08
8.42401e-08
2.50159e-08
1.49933e-07
6.87191e-08
1.95768e-07
5.72364e-08
2.19703e-07
-2.90858e-08
2.00201e-07
4.13917e-08
1.64301e-07
-8.99551e-08
9.85351e-08
-5.02311e-08
4.13267e-08
-8.07249e-08
-4.6554e-08
-1.00016e-07
-1.03093e-07
-1.98075e-08
-1.5254e-07
-1.97274e-08
-1.57851e-07
6.63372e-08
-1.09181e-07
1.28244e-07
-2.11045e-08
1.32537e-07
1.104e-07
2.2329e-07
2.21896e-07
1.35436e-07
3.00411e-07
1.65176e-07
3.33025e-07
1.22421e-07
3.24841e-07
4.09095e-08
2.67134e-07
8.14971e-08
1.78638e-07
-2.3394e-08
8.9964e-08
2.27013e-08
4.93571e-08
2.46022e-08
7.05121e-08
5.93733e-08
1.35757e-07
1.10402e-07
2.16785e-07
8.53736e-08
2.85842e-07
1.39452e-07
3.22917e-07
6.7111e-08
3.3415e-07
7.74133e-08
3.46025e-07
4.28485e-08
3.73646e-07
-6.27267e-09
4.09614e-07
1.74051e-08
4.23976e-07
-7.49091e-08
4.00124e-07
-9.13757e-08
3.3936e-07
-1.29703e-07
2.54003e-07
-1.73238e-07
1.83384e-07
-1.20756e-07
1.35566e-07
-1.5489e-07
1.51749e-07
-9.5516e-08
2.06596e-07
-7.78958e-08
2.72775e-07
-1.20575e-07
2.80809e-07
-9.23249e-08
2.5186e-07
-1.79952e-07
2.06085e-07
-1.51156e-07
1.86634e-07
-1.29834e-07
2.27784e-07
-1.86864e-07
2.46171e-07
-1.11314e-07
2.52247e-07
-2.32048e-07
1.54334e-07
-2.06515e-07
2.22912e-08
-2.34914e-07
-1.12534e-07
-2.12149e-07
-1.47195e-07
-1.30844e-07
-1.29028e-07
-9.84507e-08
-5.47111e-08
-4.52946e-08
2.4871e-08
-3.13724e-08
3.6504e-08
-1.49795e-08
7.13638e-08
1.86502e-08
7.20538e-08
2.85922e-08
1.17313e-07
4.76097e-08
1.60298e-07
4.44081e-08
1.59322e-07
3.0359e-09
1.24629e-07
3.06723e-08
7.93864e-08
-8.04899e-09
8.25359e-08
3.27503e-08
1.12585e-07
2.09259e-08
1.38546e-07
1.54443e-08
1.1806e-07
4.46791e-08
8.33724e-08
2.21009e-08
1.07713e-07
1.17751e-07
1.85887e-07
6.64155e-08
2.76085e-07
8.88427e-08
2.88794e-07
4.4513e-08
3.09343e-07
-3.58366e-08
2.82323e-07
1.10807e-08
3.43313e-07
-5.73723e-08
3.08382e-07
-6.16954e-08
1.99819e-07
-1.32195e-07
2.15774e-08
-1.59159e-07
-5.80627e-08
-9.22983e-08
-8.01006e-08
-5.09156e-08
-3.13677e-08
1.1857e-08
-9.11838e-09
8.05206e-08
-1.26435e-08
1.21514e-07
1.05068e-07
1.99393e-07
2.21653e-07
1.55614e-07
2.86499e-07
1.43465e-07
2.60628e-07
1.23362e-07
3.01415e-07
7.22023e-08
2.9539e-07
1.27875e-07
3.00989e-07
1.62316e-08
2.21293e-07
5.40075e-09
2.02387e-07
-2.22323e-09
3.25775e-07
3.95665e-09
3.59671e-07
6.24173e-08
3.46392e-07
-1.92541e-08
2.23744e-07
-1.36697e-08
2.08752e-07
-2.19395e-08
2.44978e-07
-3.98381e-08
1.77708e-07
3.5898e-08
9.6924e-08
1.8822e-09
9.18066e-08
5.70438e-08
1.41185e-07
9.9172e-08
1.88449e-07
7.57915e-08
2.07411e-07
1.81975e-07
2.61627e-07
8.7015e-08
2.49912e-07
1.04028e-07
2.23126e-07
7.85294e-08
2.61915e-07
1.10716e-07
3.55465e-07
1.56668e-07
3.64193e-07
9.23134e-08
3.73287e-07
1.53369e-07
5.50228e-07
1.5067e-07
6.76938e-07
9.70709e-08
5.3135e-07
-1.70073e-08
3.90482e-07
-9.1314e-08
3.58338e-07
-3.36589e-08
2.83651e-07
-8.71197e-08
1.58161e-07
-5.2808e-08
2.12722e-07
-2.43596e-08
2.84333e-07
-2.74602e-08
1.93975e-07
1.08872e-07
2.39862e-07
7.30443e-08
4.24435e-07
1.7377e-07
5.27725e-07
1.5816e-07
5.72024e-07
6.43899e-08
5.23536e-07
3.53104e-08
4.24672e-07
-2.84357e-08
5.18642e-07
-2.67992e-08
5.64158e-07
-1.05546e-07
3.69899e-07
-1.9028e-07
2.78434e-07
-1.17737e-07
2.78474e-07
-1.36424e-07
2.4514e-07
-1.01445e-07
3.92837e-07
-3.34933e-08
3.64584e-07
-8.48749e-08
2.19638e-07
-5.16875e-08
4.09678e-07
-2.07491e-08
3.47836e-07
-4.66844e-08
1.46188e-07