/*--------------------------------*- C++ -*----------------------------------*\
| =========                 |                                                 |
| \\      /  F ield         | OpenFOAM: The Open Source CFD Toolbox           |
|  \\    /   O peration     | Version:  2106                                  |
|   \\  /    A nd           | Website:  www.openfoam.com                      |
|    \\/     M anipulation  |                                                 |
\*---------------------------------------------------------------------------*/
FoamFile
{
    version     2.0;
    format      ascii;
    arch        "LSB;label=32;scalar=64";
    class       surfaceScalarField;
    location    "0.002";
    object      phiB;
}
// * * * * * * * * * * * * * * * * * * * * * * * * * * * * * * * * * * * * * //

dimensions      [1 2 -2 0 0 -1 0];

oriented        oriented;

internalField   nonuniform List<scalar> 
319200
(
1.76938e-06
2.03016e-06
8.61125e-07
-4.5061e-07
2.83655e-06
3.90733e-07
1.93541e-06
-3.62527e-07
1.11968e-06
-1.21014e-06
7.21918e-08
-1.18657e-06
-6.42603e-07
-6.82258e-07
-8.84105e-07
-1.84948e-07
-8.05884e-07
1.12841e-07
-6.02996e-07
2.24532e-07
-3.92589e-07
2.27424e-07
-2.2889e-07
1.86178e-07
-1.1738e-07
1.39303e-07
-4.77346e-08
1.01159e-07
-1.19746e-08
7.49623e-08
1.1354e-08
6.00499e-08
1.80531e-08
5.07963e-08
2.48051e-08
4.82368e-08
3.03776e-08
4.7472e-08
3.04858e-08
4.82234e-08
3.98616e-08
5.17915e-08
4.76613e-08
5.32745e-08
5.55064e-08
5.63107e-08
7.30634e-08
6.01667e-08
8.71891e-08
6.09653e-08
1.01162e-07
6.31735e-08
1.23757e-07
6.55311e-08
1.41529e-07
6.42491e-08
1.55448e-07
6.38072e-08
1.76717e-07
6.41815e-08
1.93888e-07
6.08401e-08
2.02634e-07
5.7336e-08
2.1529e-07
5.63315e-08
2.28098e-07
5.28677e-08
2.31045e-07
4.75358e-08
2.32666e-07
4.56492e-08
2.39353e-07
4.46304e-08
2.41347e-07
4.0522e-08
2.36488e-07
3.75955e-08
2.35799e-07
3.86965e-08
2.4006e-07
3.88555e-08
2.39088e-07
3.61133e-08
2.34041e-07
3.54816e-08
2.34865e-07
3.81232e-08
2.40252e-07
3.87538e-08
2.40673e-07
3.60713e-08
2.36646e-07
3.50416e-08
2.37077e-07
3.72177e-08
2.4236e-07
3.79422e-08
2.44182e-07
3.50196e-08
2.40529e-07
3.26949e-08
2.38816e-07
3.42568e-08
2.43276e-07
3.65853e-08
2.48917e-07
3.56221e-08
2.50436e-07
3.30398e-08
2.504e-07
3.33105e-08
2.55093e-07
3.65663e-08
2.64925e-07
3.85725e-08
2.7408e-07
3.69624e-08
2.78813e-07
3.42895e-08
2.81611e-07
3.40917e-08
2.87309e-07
3.59929e-08
2.96017e-07
3.6405e-08
3.02563e-07
3.33276e-08
3.03825e-07
2.87481e-08
3.01607e-07
2.61393e-08
2.99375e-07
2.63192e-08
2.99178e-07
2.67874e-08
2.99302e-07
2.5067e-08
2.96708e-07
2.13851e-08
2.91323e-07
1.83157e-08
2.85443e-07
1.81763e-08
2.82001e-07
2.06193e-08
2.82497e-07
2.31562e-08
2.84941e-07
2.37463e-08
2.86925e-07
2.24305e-08
2.88499e-07
2.0986e-08
2.90504e-07
2.12033e-08
2.93941e-07
2.32363e-08
2.99353e-07
2.56157e-08
3.05674e-07
2.64966e-08
3.11963e-07
2.49567e-08
3.17326e-07
2.1786e-08
3.19968e-07
1.87117e-08
3.20237e-07
1.67901e-08
3.20245e-07
1.6068e-08
3.20135e-07
1.59372e-08
3.19431e-07
1.53907e-08
3.18081e-07
1.38115e-08
3.14713e-07
1.13905e-08
3.09089e-07
8.68568e-09
3.03613e-07
6.5007e-09
2.99394e-07
5.71117e-09
2.96011e-07
6.47516e-09
2.94465e-07
8.15775e-09
2.95037e-07
1.00907e-08
2.96132e-07
1.17364e-08
2.97936e-07
1.25325e-08
3.01543e-07
1.23054e-08
3.05546e-07
1.13726e-08
3.08538e-07
9.96861e-09
3.11059e-07
8.24175e-09
3.12748e-07
6.55613e-09
3.12581e-07
5.0974e-09
3.11371e-07
3.71348e-09
3.10038e-07
2.35092e-09
3.07922e-07
1.07874e-09
3.04618e-07
-1.01597e-10
3.00552e-07
-1.12602e-09
2.96016e-07
-1.88724e-09
2.91774e-07
-2.42852e-09
2.88871e-07
-2.7961e-09
2.86794e-07
-2.90613e-09
2.845e-07
-2.80724e-09
2.82885e-07
-2.72404e-09
2.83057e-07
-2.71273e-09
2.839e-07
-2.69155e-09
2.8418e-07
-2.81983e-09
2.84483e-07
-3.35302e-09
2.85028e-07
-4.2457e-09
2.8458e-07
-5.35318e-09
2.82774e-07
-6.68171e-09
2.80683e-07
-8.13206e-09
2.7866e-07
-9.43411e-09
2.76049e-07
-1.04865e-08
2.72786e-07
-1.14263e-08
2.69391e-07
-1.23132e-08
2.65866e-07
-1.30087e-08
2.62183e-07
-1.34077e-08
2.5908e-07
-1.35864e-08
2.5706e-07
-1.36946e-08
2.55557e-07
-1.38683e-08
2.53971e-07
-1.42492e-08
2.52376e-07
-1.49e-08
2.50715e-07
-1.57122e-08
2.48508e-07
-1.65702e-08
2.45722e-07
-1.74874e-08
2.42879e-07
-1.84624e-08
2.40129e-07
-1.93777e-08
2.37076e-07
-2.01401e-08
2.33579e-07
-2.07939e-08
2.30027e-07
-2.1415e-08
2.26781e-07
-2.198e-08
2.23884e-07
-2.24041e-08
2.21374e-07
-2.26663e-08
2.19345e-07
-2.2866e-08
2.17635e-07
-2.31774e-08
2.15824e-07
-2.37585e-08
2.13571e-07
-2.46479e-08
2.10756e-07
-2.57168e-08
2.0741e-07
-2.67554e-08
2.03723e-07
-2.76232e-08
1.99978e-07
-2.83173e-08
1.96337e-07
-2.89211e-08
1.92733e-07
-2.95161e-08
1.89054e-07
-3.01195e-08
1.85317e-07
-3.06825e-08
1.81609e-07
-3.11453e-08
1.78007e-07
-3.15004e-08
1.74677e-07
-3.18028e-08
1.71827e-07
-3.21081e-08
1.69416e-07
-3.24337e-08
1.67091e-07
-3.28074e-08
1.64538e-07
-3.33049e-08
1.61696e-07
-3.39739e-08
1.58554e-07
-3.47611e-08
1.54976e-07
-3.55624e-08
1.50977e-07
-3.62887e-08
1.46987e-07
-3.68709e-08
1.43502e-07
-3.72784e-08
1.40439e-07
-3.75552e-08
1.37159e-07
-3.78223e-08
1.33317e-07
-3.82232e-08
1.29352e-07
-3.88101e-08
1.25816e-07
-3.94491e-08
1.22561e-07
-3.99167e-08
1.19064e-07
-4.01365e-08
1.15293e-07
-4.02385e-08
1.11739e-07
-4.03684e-08
1.08666e-07
-4.05648e-08
1.05731e-07
-4.0836e-08
1.02463e-07
-4.12125e-08
9.8869e-08
-4.16869e-08
9.53319e-08
-4.21793e-08
9.1949e-08
-4.25744e-08
8.83087e-08
-4.27911e-08
8.41618e-08
-4.28574e-08
8.00543e-08
-4.28964e-08
7.68225e-08
-4.29888e-08
7.44803e-08
-4.31035e-08
7.20507e-08
-4.32171e-08
6.86321e-08
-4.34108e-08
6.43226e-08
-4.37605e-08
5.99199e-08
-4.41889e-08
5.59485e-08
-4.45006e-08
5.22666e-08
-4.45473e-08
4.85828e-08
-4.43378e-08
4.50519e-08
-4.4009e-08
4.20958e-08
-4.37043e-08
3.96804e-08
-4.34866e-08
3.71141e-08
-4.33767e-08
3.37642e-08
-4.34228e-08
2.97821e-08
-4.36516e-08
2.58582e-08
-4.39652e-08
2.23503e-08
-4.41678e-08
1.89269e-08
-4.41199e-08
1.51162e-08
-4.38368e-08
1.10223e-08
-4.34442e-08
7.32803e-09
-4.30702e-08
4.54519e-09
-4.27665e-08
2.36029e-09
-4.25116e-08
-1.28825e-10
-4.22895e-08
-3.51899e-09
-4.2134e-08
-7.59366e-09
-4.20581e-08
-1.17167e-08
-4.19798e-08
-1.54708e-08
-4.17768e-08
-1.88034e-08
-4.13969e-08
-2.1826e-08
-4.08804e-08
-2.46951e-08
-4.03131e-08
-2.75632e-08
-3.97979e-08
-3.04912e-08
-3.94229e-08
-3.346e-08
-3.91983e-08
-3.6489e-08
-3.90318e-08
-3.96647e-08
-3.87966e-08
-4.306e-08
-3.84255e-08
-4.66229e-08
-3.79362e-08
-5.00953e-08
-3.73962e-08
-5.31777e-08
-3.68743e-08
-5.59329e-08
-3.64028e-08
-5.88649e-08
-3.5973e-08
-6.23661e-08
-3.55623e-08
-6.62214e-08
-3.51433e-08
-6.98522e-08
-3.46558e-08
-7.2903e-08
-3.40157e-08
-7.5442e-08
-3.31995e-08
-7.77135e-08
-3.23043e-08
-7.98701e-08
-3.14795e-08
-8.19866e-08
-3.082e-08
-8.41782e-08
-3.03357e-08
-8.65756e-08
-2.99787e-08
-8.92484e-08
-2.96692e-08
-9.22036e-08
-2.93168e-08
-9.54084e-08
-2.88705e-08
-9.87531e-08
-2.83533e-08
-1.02072e-07
-2.78195e-08
-1.05306e-07
-2.72901e-08
-1.08541e-07
-2.67347e-08
-1.11833e-07
-2.60965e-08
-1.15054e-07
-2.53184e-08
-1.17943e-07
-2.43696e-08
-1.20279e-07
-2.32868e-08
-1.22028e-07
-2.21852e-08
-1.23394e-07
-2.1209e-08
-1.24769e-07
-2.04652e-08
-1.26507e-07
-1.99831e-08
-1.28689e-07
-1.96995e-08
-1.31186e-07
-1.94751e-08
-1.33907e-07
-1.91606e-08
-1.3681e-07
-1.86809e-08
-1.39749e-07
-1.80554e-08
-1.42575e-07
-1.73338e-08
-1.45304e-07
-1.65492e-08
-1.47959e-07
-1.57285e-08
-1.50304e-07
-1.48906e-08
-1.52035e-07
-1.40169e-08
-1.53223e-07
-1.30897e-08
-1.54244e-07
-1.21801e-08
-1.55312e-07
-1.14234e-08
-1.56562e-07
-1.08985e-08
-1.58381e-07
-1.05811e-08
-1.60985e-07
-1.04027e-08
-1.63951e-07
-1.02701e-08
-1.66802e-07
-1.0038e-08
-1.69616e-07
-9.5934e-09
-1.72496e-07
-8.95204e-09
-1.75166e-07
-8.17096e-09
-1.77477e-07
-7.23242e-09
-1.79449e-07
-6.11316e-09
-1.80641e-07
-4.89053e-09
-1.80468e-07
-3.66175e-09
-1.79323e-07
-2.48499e-09
-1.78214e-07
-1.49586e-09
-1.77361e-07
-8.69406e-10
-1.76663e-07
-6.03872e-10
-1.76877e-07
-5.44485e-10
-1.78566e-07
-6.23701e-10
-1.80952e-07
-8.46201e-10
-1.83394e-07
-1.09118e-09
-1.86425e-07
-1.21617e-09
-1.90257e-07
-1.22473e-09
-1.94159e-07
-1.12252e-09
-1.97692e-07
-8.27138e-10
-2.0079e-07
-3.16916e-10
-2.03129e-07
3.59267e-10
-2.04657e-07
1.22632e-09
-2.05588e-07
2.33005e-09
-2.05396e-07
3.67153e-09
-2.03583e-07
5.32073e-09
-2.00851e-07
7.27575e-09
-1.97654e-07
9.21462e-09
-1.93743e-07
1.06897e-08
-1.90069e-07
1.13664e-08
-1.87885e-07
1.09391e-08
-1.86875e-07
9.29633e-09
-1.87024e-07
6.87973e-09
-1.89404e-07
4.45448e-09
-1.93689e-07
2.71174e-09
-1.98547e-07
2.2462e-09
-2.03582e-07
3.26692e-09
-2.08028e-07
5.20645e-09
-2.10582e-07
7.09235e-09
-2.11667e-07
8.19207e-09
-2.125e-07
8.26672e-09
-2.13171e-07
7.80949e-09
-2.13781e-07
7.95834e-09
-2.14107e-07
9.57302e-09
-2.12318e-07
1.25219e-08
-2.07595e-07
1.5774e-08
-2.0128e-07
1.7819e-08
-1.94648e-07
1.76373e-08
-1.89078e-07
1.5719e-08
-1.85846e-07
1.37203e-08
-1.84249e-07
1.30798e-08
-1.82835e-07
1.39095e-08
-1.81033e-07
1.48105e-08
-1.79299e-07
1.40598e-08
-1.79661e-07
1.13816e-08
-1.83671e-07
8.34144e-09
-1.89783e-07
6.99457e-09
-1.95195e-07
8.04559e-09
-1.98284e-07
1.0109e-08
-1.9929e-07
1.11844e-08
-2.00362e-07
1.09031e-08
-2.02564e-07
1.08539e-08
-2.03868e-07
1.27342e-08
-2.01912e-07
1.62919e-08
-1.96335e-07
1.93617e-08
-1.89518e-07
2.03997e-08
-1.84415e-07
2.02941e-08
-1.803e-07
2.0949e-08
-1.74405e-07
2.26923e-08
-1.66685e-07
2.38148e-08
-1.59813e-07
2.29254e-08
-1.5598e-07
2.09893e-08
-1.54151e-07
1.99788e-08
-1.51643e-07
2.00813e-08
-1.48497e-07
1.97447e-08
-1.47091e-07
1.83541e-08
-1.4794e-07
1.7297e-08
-1.48606e-07
1.77109e-08
-1.47579e-07
1.87064e-08
-1.46501e-07
1.90512e-08
-1.46729e-07
1.91957e-08
-1.4708e-07
2.00811e-08
-1.4637e-07
2.12795e-08
-1.45737e-07
2.18985e-08
-1.46272e-07
2.21374e-08
-1.47151e-07
2.26203e-08
-1.4801e-07
2.32239e-08
-1.49163e-07
2.3738e-08
-1.50174e-07
2.44675e-08
-1.50593e-07
2.54868e-08
-1.50577e-07
2.68137e-08
-1.48962e-07
2.88365e-08
-1.44328e-07
3.13581e-08
-1.38283e-07
3.38439e-08
-1.307e-07
3.68324e-08
-1.1895e-07
4.05429e-08
-1.04679e-07
4.36912e-08
-9.04477e-08
4.64061e-08
-7.33167e-08
4.97169e-08
-5.38151e-08
5.22143e-08
-3.69373e-08
5.33625e-08
-1.94944e-08
5.48835e-08
-9.84322e-10
5.56606e-08
1.25821e-08
5.47325e-08
2.44362e-08
5.4275e-08
3.63134e-08
5.30801e-08
4.12421e-08
5.04181e-08
4.40769e-08
4.82576e-08
4.474e-08
4.49454e-08
3.64762e-08
3.98443e-08
2.55399e-08
3.41456e-08
3.02872e-09
2.4473e-08
-3.55601e-08
1.05737e-08
-9.49191e-08
-9.81575e-09
-1.9516e-07
-3.97478e-08
-3.4809e-07
-7.85268e-08
-5.79037e-07
-1.24968e-07
-8.94981e-07
-1.67366e-07
-1.26974e-06
-1.83896e-07
-1.58975e-06
-1.39021e-07
-1.60243e-06
1.20139e-09
-9.48382e-07
2.25133e-07
5.25856e-07
3.97134e-07
1.96843e-06
2.12456e-07
1.06918e-06
-5.64541e-07
-3.89427e-07
-1.4155e-06
4.42366e-07
-8.23882e-07
-2.04381e-06
-7.30304e-07
2.69635e-07
1.69195e-06
7.4809e-07
2.08381e-06
2.15899e-07
1.08791e-06
-3.3513e-07
1.14313e-06
-6.51446e-07
5.76779e-07
-6.1126e-07
-1.44451e-07
-3.64277e-07
-5.85716e-07
-1.01266e-07
-6.94122e-07
7.78125e-08
-5.99942e-07
1.61014e-07
-4.33755e-07
1.77478e-07
-2.7565e-07
1.60438e-07
-1.55425e-07
1.33812e-07
-7.38912e-08
1.0921e-07
-2.68836e-08
9.0609e-08
2.28542e-09
7.91535e-08
1.5709e-08
7.18666e-08
2.35635e-08
6.92062e-08
3.05396e-08
6.86272e-08
3.3862e-08
6.91231e-08
4.13511e-08
7.16e-08
5.08225e-08
7.34052e-08
5.934e-08
7.5379e-08
7.381e-08
7.83326e-08
8.93506e-08
7.9482e-08
1.03351e-07
8.04357e-08
1.22277e-07
8.18925e-08
1.41232e-07
8.12317e-08
1.56185e-07
7.98669e-08
1.73322e-07
7.92266e-08
1.90429e-07
7.68505e-08
2.01843e-07
7.3149e-08
2.11955e-07
7.07485e-08
2.23013e-07
6.80783e-08
2.29424e-07
6.37359e-08
2.31623e-07
6.04179e-08
2.35216e-07
5.87833e-08
2.38571e-07
5.62141e-08
2.37587e-07
5.31576e-08
2.35699e-07
5.21847e-08
2.37011e-07
5.22629e-08
2.38349e-07
5.09502e-08
2.36667e-07
4.9404e-08
2.35388e-07
4.97094e-08
2.37456e-07
5.04002e-08
2.39644e-07
4.9257e-08
2.38877e-07
4.74638e-08
2.37739e-07
4.71678e-08
2.39272e-07
4.75444e-08
2.41659e-07
4.6476e-08
2.41851e-07
4.43618e-08
2.40928e-07
4.34435e-08
2.42282e-07
4.41295e-08
2.46362e-07
4.44839e-08
2.50527e-07
4.34295e-08
2.53454e-07
4.23812e-08
2.57054e-07
4.28604e-08
2.63331e-07
4.41021e-08
2.71307e-07
4.42034e-08
2.78508e-07
4.27491e-08
2.83762e-07
4.11232e-08
2.88141e-07
4.04315e-08
2.93118e-07
4.01537e-08
2.98176e-07
3.88843e-08
3.01338e-07
3.60818e-08
3.01501e-07
3.28539e-08
2.99648e-07
3.06033e-08
2.97525e-07
2.94893e-08
2.95879e-07
2.84795e-08
2.93957e-07
2.67544e-08
2.9098e-07
2.46408e-08
2.87369e-07
2.31359e-08
2.84333e-07
2.29117e-08
2.83112e-07
2.37573e-08
2.84074e-07
2.47673e-08
2.86438e-07
2.50867e-08
2.89231e-07
2.4611e-08
2.92107e-07
2.3969e-08
2.95432e-07
2.37812e-08
2.99703e-07
2.40496e-08
3.04674e-07
2.42463e-08
3.09581e-07
2.37583e-08
3.13972e-07
2.23196e-08
3.17371e-07
2.01628e-08
3.19117e-07
1.77352e-08
3.19247e-07
1.54737e-08
3.18252e-07
1.36693e-08
3.1638e-07
1.22071e-08
3.13957e-07
1.07938e-08
3.1117e-07
9.36255e-09
3.07822e-07
7.94028e-09
3.04156e-07
6.60083e-09
3.00753e-07
5.59209e-09
2.97906e-07
5.11472e-09
2.95975e-07
5.15612e-09
2.95396e-07
5.58899e-09
2.96134e-07
6.19554e-09
2.97814e-07
6.66702e-09
3.00197e-07
6.76041e-09
3.03092e-07
6.40185e-09
3.06018e-07
5.57212e-09
3.08506e-07
4.28774e-09
3.10369e-07
2.72203e-09
3.11324e-07
1.05597e-09
3.1108e-07
-7.09195e-10
3.09698e-07
-2.55059e-09
3.07331e-07
-4.30469e-09
3.04142e-07
-5.8488e-09
3.00491e-07
-7.12884e-09
2.96647e-07
-8.10854e-09
2.92757e-07
-8.81277e-09
2.89251e-07
-9.27951e-09
2.86577e-07
-9.51156e-09
2.84676e-07
-9.56974e-09
2.833e-07
-9.61824e-09
2.82596e-07
-9.77315e-09
2.82775e-07
-1.00076e-08
2.83397e-07
-1.03401e-08
2.83774e-07
-1.09443e-08
2.8372e-07
-1.19174e-08
2.83205e-07
-1.31423e-08
2.82002e-07
-1.44651e-08
2.8007e-07
-1.57916e-08
2.77592e-07
-1.70434e-08
2.74668e-07
-1.8208e-08
2.71429e-07
-1.93126e-08
2.68162e-07
-2.02874e-08
2.65091e-07
-2.10119e-08
2.62273e-07
-2.14789e-08
2.59722e-07
-2.18137e-08
2.57516e-07
-2.21532e-08
2.55696e-07
-2.25538e-08
2.54044e-07
-2.30334e-08
2.52215e-07
-2.36425e-08
2.50091e-07
-2.44263e-08
2.47706e-07
-2.53522e-08
2.4506e-07
-2.63335e-08
2.42203e-07
-2.72828e-08
2.39251e-07
-2.81355e-08
2.36197e-07
-2.8891e-08
2.32949e-07
-2.96083e-08
2.2958e-07
-3.03114e-08
2.26368e-07
-3.09356e-08
2.23572e-07
-3.14001e-08
2.21218e-07
-3.17159e-08
2.1913e-07
-3.20129e-08
2.17097e-07
-3.24571e-08
2.14937e-07
-3.31349e-08
2.12486e-07
-3.40027e-08
2.09648e-07
-3.4934e-08
2.06422e-07
-3.58147e-08
2.0288e-07
-3.66127e-08
1.99166e-07
-3.736e-08
1.95457e-07
-3.80779e-08
1.91851e-07
-3.87448e-08
1.88324e-07
-3.93285e-08
1.84811e-07
-3.98234e-08
1.81312e-07
-4.02538e-08
1.77909e-07
-4.06486e-08
1.74705e-07
-4.102e-08
1.71773e-07
-4.13769e-08
1.69125e-07
-4.17375e-08
1.66621e-07
-4.21298e-08
1.63951e-07
-4.26089e-08
1.60905e-07
-4.32384e-08
1.57569e-07
-4.40025e-08
1.54106e-07
-4.47736e-08
1.50546e-07
-4.54206e-08
1.46903e-07
-4.59132e-08
1.43286e-07
-4.62996e-08
1.39799e-07
-4.66531e-08
1.36443e-07
-4.70441e-08
1.33082e-07
-4.74979e-08
1.29504e-07
-4.7984e-08
1.25678e-07
-4.84556e-08
1.21871e-07
-4.88598e-08
1.18308e-07
-4.91405e-08
1.14912e-07
-4.93113e-08
1.11589e-07
-4.9478e-08
1.08425e-07
-4.97209e-08
1.05394e-07
-5.00207e-08
1.0222e-07
-5.03443e-08
9.8698e-08
-5.07062e-08
9.49034e-08
-5.11026e-08
9.10567e-08
-5.14681e-08
8.73801e-08
-5.17298e-08
8.39674e-08
-5.18619e-08
8.06843e-08
-5.19002e-08
7.73541e-08
-5.19333e-08
7.40192e-08
-5.20433e-08
7.07853e-08
-5.22409e-08
6.75083e-08
-5.24892e-08
6.39235e-08
-5.27641e-08
6.00017e-08
-5.30369e-08
5.59744e-08
-5.32304e-08
5.21004e-08
-5.32604e-08
4.85099e-08
-5.31132e-08
4.51843e-08
-5.28593e-08
4.20548e-08
-5.26093e-08
3.91237e-08
-5.24563e-08
3.63692e-08
-5.24242e-08
3.35295e-08
-5.24732e-08
3.02212e-08
-5.25646e-08
2.63552e-08
-5.26828e-08
2.22537e-08
-5.27807e-08
1.83199e-08
-5.27669e-08
1.47343e-08
-5.25845e-08
1.14397e-08
-5.2266e-08
8.26949e-09
-5.1899e-08
5.1022e-09
-5.15697e-08
1.95224e-09
-5.13281e-08
-1.14627e-09
-5.11661e-08
-4.30643e-09
-5.10314e-08
-7.68044e-09
-5.08805e-08
-1.12205e-08
-5.06954e-08
-1.47216e-08
-5.04416e-08
-1.80634e-08
-5.00707e-08
-2.12462e-08
-4.95912e-08
-2.42601e-08
-4.90887e-08
-2.71201e-08
-4.86474e-08
-2.99898e-08
-4.82893e-08
-3.30764e-08
-4.79988e-08
-3.64026e-08
-4.77477e-08
-3.98055e-08
-4.74773e-08
-4.31461e-08
-4.71158e-08
-4.64052e-08
-4.66462e-08
-4.95961e-08
-4.61274e-08
-5.27169e-08
-4.56311e-08
-5.57997e-08
-4.51836e-08
-5.8909e-08
-4.47665e-08
-6.20831e-08
-4.43395e-08
-6.53246e-08
-4.3857e-08
-6.8585e-08
-4.32844e-08
-7.17021e-08
-4.26131e-08
-7.44832e-08
-4.18653e-08
-7.69067e-08
-4.10881e-08
-7.91411e-08
-4.03482e-08
-8.13683e-08
-3.97119e-08
-8.36862e-08
-3.92035e-08
-8.6172e-08
-3.8788e-08
-8.89002e-08
-3.84001e-08
-9.18575e-08
-3.79862e-08
-9.49484e-08
-3.75223e-08
-9.80968e-08
-3.70103e-08
-1.01287e-07
-3.6469e-08
-1.04519e-07
-3.59118e-08
-1.07767e-07
-3.53205e-08
-1.10971e-07
-3.46478e-08
-1.14022e-07
-3.38509e-08
-1.16752e-07
-3.29245e-08
-1.19032e-07
-3.19144e-08
-1.20881e-07
-3.09102e-08
-1.2247e-07
-3.00161e-08
-1.24049e-07
-2.93038e-08
-1.25863e-07
-2.87763e-08
-1.28048e-07
-2.83725e-08
-1.30564e-07
-2.80009e-08
-1.33265e-07
-2.75748e-08
-1.36048e-07
-2.70411e-08
-1.38865e-07
-2.63977e-08
-1.4163e-07
-2.5678e-08
-1.44209e-07
-2.49067e-08
-1.46542e-07
-2.40858e-08
-1.48653e-07
-2.32172e-08
-1.5051e-07
-2.2314e-08
-1.52043e-07
-2.13994e-08
-1.53343e-07
-2.05181e-08
-1.54649e-07
-1.97462e-08
-1.56171e-07
-1.91506e-08
-1.58051e-07
-1.87266e-08
-1.60416e-07
-1.84005e-08
-1.63258e-07
-1.80765e-08
-1.66338e-07
-1.76739e-08
-1.69348e-07
-1.71432e-08
-1.72115e-07
-1.64694e-08
-1.7456e-07
-1.56482e-08
-1.76564e-07
-1.4656e-08
-1.77995e-07
-1.34923e-08
-1.78805e-07
-1.22357e-08
-1.7897e-07
-1.09959e-08
-1.78574e-07
-9.85294e-09
-1.77955e-07
-8.89626e-09
-1.77478e-07
-8.24488e-09
-1.77279e-07
-7.92848e-09
-1.77519e-07
-7.83297e-09
-1.78566e-07
-7.84851e-09
-1.80588e-07
-7.94212e-09
-1.83375e-07
-8.04267e-09
-1.86738e-07
-8.00908e-09
-1.90578e-07
-7.7496e-09
-1.94555e-07
-7.24658e-09
-1.98131e-07
-6.4733e-09
-2.00957e-07
-5.42512e-09
-2.02866e-07
-4.17471e-09
-2.03698e-07
-2.81677e-09
-2.03493e-07
-1.44675e-09
-2.02428e-07
-1.60051e-10
-2.006e-07
1.02316e-09
-1.98257e-07
2.13853e-09
-1.95773e-07
3.13185e-09
-1.9328e-07
3.89465e-09
-1.90952e-07
4.40933e-09
-1.89313e-07
4.6495e-09
-1.88699e-07
4.49348e-09
-1.89067e-07
3.90826e-09
-1.9053e-07
3.03118e-09
-1.93268e-07
2.06688e-09
-1.97022e-07
1.32304e-09
-2.01311e-07
1.18617e-09
-2.05702e-07
1.82602e-09
-2.09524e-07
3.1033e-09
-2.12113e-07
4.74296e-09
-2.13338e-07
6.38207e-09
-2.13305e-07
7.71692e-09
-2.12228e-07
8.78734e-09
-2.10545e-07
9.89873e-09
-2.08259e-07
1.13137e-08
-2.0494e-07
1.30862e-08
-2.00593e-07
1.49096e-08
-1.95664e-07
1.61641e-08
-1.90798e-07
1.6419e-08
-1.86833e-07
1.58095e-08
-1.84282e-07
1.49093e-08
-1.82995e-07
1.43487e-08
-1.82509e-07
1.4296e-08
-1.82471e-07
1.4271e-08
-1.83104e-07
1.36942e-08
-1.85126e-07
1.25415e-08
-1.88672e-07
1.14737e-08
-1.92919e-07
1.13687e-08
-1.96691e-07
1.24893e-08
-1.99008e-07
1.41891e-08
-1.99877e-07
1.56539e-08
-2.00172e-07
1.67637e-08
-2.00142e-07
1.81679e-08
-1.98898e-07
2.04531e-08
-1.95446e-07
2.32174e-08
-1.90024e-07
2.54268e-08
-1.84137e-07
2.65972e-08
-1.78819e-07
2.72526e-08
-1.73669e-07
2.81425e-08
-1.67959e-07
2.91507e-08
-1.62028e-07
2.94453e-08
-1.57238e-07
2.87597e-08
-1.54324e-07
2.78847e-08
-1.52309e-07
2.75863e-08
-1.50124e-07
2.76387e-08
-1.48274e-07
2.74268e-08
-1.47657e-07
2.71118e-08
-1.47757e-07
2.74077e-08
-1.47376e-07
2.84e-08
-1.46509e-07
2.9456e-08
-1.46013e-07
3.03064e-08
-1.45987e-07
3.13211e-08
-1.45835e-07
3.26075e-08
-1.45597e-07
3.37674e-08
-1.45918e-07
3.46289e-08
-1.46754e-07
3.54526e-08
-1.47673e-07
3.63604e-08
-1.48679e-07
3.72968e-08
-1.4952e-07
3.8413e-08
-1.4952e-07
3.97935e-08
-1.48615e-07
4.14128e-08
-1.46556e-07
4.35142e-08
-1.42097e-07
4.61677e-08
-1.35284e-07
4.89777e-08
-1.26928e-07
5.19917e-08
-1.1592e-07
5.55481e-08
-1.01913e-07
5.90461e-08
-8.70084e-08
6.20719e-08
-7.09004e-08
6.52247e-08
-5.25566e-08
6.8103e-08
-3.5062e-08
6.99551e-08
-1.87488e-08
7.15737e-08
-1.85744e-09
7.2852e-08
1.22873e-08
7.28949e-08
2.33931e-08
7.27112e-08
3.36191e-08
7.21536e-08
3.91548e-08
7.05994e-08
4.09129e-08
6.8903e-08
3.97422e-08
6.66395e-08
3.0907e-08
6.30101e-08
1.56471e-08
5.85209e-08
-1.09647e-08
5.13903e-08
-5.58957e-08
4.07055e-08
-1.24915e-07
2.49442e-08
-2.33898e-07
1.6663e-09
-3.94454e-07
-2.89849e-08
-6.21353e-07
-6.52899e-08
-9.1138e-07
-9.74556e-08
-1.22486e-06
-1.0514e-07
-1.44956e-06
-5.33019e-08
-1.37843e-06
9.95985e-08
-7.76124e-07
3.68398e-07
3.41188e-07
6.68818e-07
1.19151e-06
7.3802e-07
2.18479e-07
2.98471e-07
2.00213e-07
3.48782e-07
-7.89664e-07
8.08756e-07
4.80123e-07
-2.48621e-07
-5.96475e-07
1.15991e-06
2.01199e-07
1.53275e-06
7.54184e-08
7.71496e-07
-2.03339e-07
1.18326e-06
-3.48052e-07
8.23565e-07
-3.16022e-07
1.18297e-07
-1.81151e-07
-4.06633e-07
-3.25749e-08
-6.10815e-07
7.7197e-08
-5.83402e-07
1.35522e-07
-4.50658e-07
1.53637e-07
-3.0225e-07
1.48243e-07
-1.80042e-07
1.33487e-07
-9.25166e-08
1.17995e-07
-3.83943e-08
1.05183e-07
-4.92794e-09
9.68477e-08
1.31183e-08
9.15415e-08
2.29634e-08
8.92459e-08
3.0933e-08
8.89481e-08
3.63578e-08
8.93468e-08
4.32033e-08
9.10875e-08
5.28097e-08
9.28968e-08
6.22944e-08
9.43394e-08
7.49353e-08
9.64045e-08
9.04568e-08
9.75503e-08
1.05051e-07
9.79103e-08
1.21562e-07
9.84793e-08
1.39738e-07
9.79063e-08
1.55552e-07
9.61743e-08
1.70939e-07
9.45632e-08
1.86758e-07
9.23263e-08
1.99417e-07
8.88489e-08
2.0914e-07
8.55637e-08
2.18596e-07
8.26692e-08
2.26163e-07
7.90038e-08
2.29946e-07
7.52965e-08
2.32554e-07
7.27736e-08
2.35506e-07
7.05691e-08
2.36631e-07
6.79254e-08
2.35789e-07
6.59455e-08
2.35691e-07
6.51505e-08
2.36764e-07
6.43078e-08
2.3691e-07
6.28443e-08
2.36066e-07
6.18193e-08
2.3634e-07
6.1573e-08
2.3784e-07
6.09157e-08
2.38545e-07
5.93394e-08
2.3809e-07
5.78739e-08
2.38197e-07
5.7135e-08
2.3957e-07
5.63366e-08
2.40989e-07
5.48388e-08
2.41643e-07
5.32853e-08
2.42606e-07
5.25691e-08
2.45287e-07
5.24785e-08
2.49488e-07
5.2097e-08
2.53926e-07
5.11971e-08
2.5828e-07
5.05041e-08
2.63467e-07
5.04514e-08
2.69923e-07
5.04551e-08
2.76805e-07
4.96737e-08
2.8294e-07
4.81232e-08
2.87744e-07
4.6446e-08
2.91745e-07
4.49728e-08
2.95381e-07
4.34315e-08
2.98111e-07
4.13663e-08
2.99249e-07
3.86654e-08
2.98541e-07
3.58395e-08
2.96569e-07
3.35152e-08
2.94216e-07
3.1818e-08
2.91805e-07
3.03822e-08
2.89468e-07
2.88503e-08
2.87198e-07
2.73861e-08
2.85123e-07
2.63976e-08
2.8396e-07
2.60202e-08
2.84227e-07
2.61049e-08
2.85864e-07
2.6309e-08
2.88592e-07
2.62627e-08
2.91985e-07
2.58319e-08
2.95754e-07
2.51342e-08
2.99841e-07
2.43671e-08
3.04078e-07
2.36206e-08
3.08172e-07
2.27321e-08
3.11933e-07
2.14152e-08
3.15088e-07
1.96047e-08
3.17067e-07
1.74521e-08
3.17619e-07
1.51011e-08
3.16985e-07
1.27386e-08
3.15246e-07
1.05635e-08
3.12612e-07
8.65484e-09
3.0956e-07
7.05083e-09
3.06292e-07
5.72173e-09
3.0308e-07
4.57847e-09
3.00322e-07
3.66086e-09
2.9808e-07
3.03251e-09
2.96546e-07
2.62769e-09
2.96075e-07
2.39333e-09
2.96644e-07
2.30378e-09
2.98035e-07
2.21659e-09
3.00049e-07
1.92991e-09
3.02461e-07
1.3364e-09
3.04924e-07
4.30365e-10
3.07007e-07
-7.82891e-10
3.08498e-07
-2.29344e-09
3.09291e-07
-4.03529e-09
3.09133e-07
-5.91776e-09
3.07911e-07
-7.83436e-09
3.05734e-07
-9.6633e-09
3.02767e-07
-1.13466e-08
2.99334e-07
-1.28425e-08
2.95759e-07
-1.40501e-08
2.92239e-07
-1.49272e-08
2.89059e-07
-1.55474e-08
2.86488e-07
-1.59952e-08
2.84571e-07
-1.63298e-08
2.83272e-07
-1.66183e-08
2.82605e-07
-1.69286e-08
2.82556e-07
-1.73176e-08
2.82832e-07
-1.78595e-08
2.82898e-07
-1.86555e-08
2.8254e-07
-1.97433e-08
2.81847e-07
-2.10058e-08
2.80689e-07
-2.22997e-08
2.78879e-07
-2.36122e-08
2.76508e-07
-2.49536e-08
2.73723e-07
-2.6243e-08
2.70664e-07
-2.73874e-08
2.67592e-07
-2.83378e-08
2.64671e-07
-2.90884e-08
2.61902e-07
-2.96969e-08
2.59344e-07
-3.02422e-08
2.57095e-07
-3.07527e-08
2.55165e-07
-3.12395e-08
2.534e-07
-3.17702e-08
2.51493e-07
-3.24464e-08
2.49249e-07
-3.33101e-08
2.46745e-07
-3.42897e-08
2.44115e-07
-3.52612e-08
2.41397e-07
-3.61622e-08
2.38559e-07
-3.70083e-08
2.35531e-07
-3.78311e-08
2.32293e-07
-3.86347e-08
2.29022e-07
-3.93762e-08
2.25988e-07
-3.99846e-08
2.23317e-07
-4.04383e-08
2.20934e-07
-4.08181e-08
2.1867e-07
-4.12565e-08
2.16391e-07
-4.1843e-08
2.1404e-07
-4.25753e-08
2.1155e-07
-4.33865e-08
2.08794e-07
-4.42119e-08
2.05675e-07
-4.50264e-08
2.0221e-07
-4.58324e-08
1.98538e-07
-4.66243e-08
1.94855e-07
-4.73662e-08
1.91284e-07
-4.80148e-08
1.87809e-07
-4.85663e-08
1.84343e-07
-4.90582e-08
1.80851e-07
-4.95254e-08
1.77428e-07
-4.99762e-08
1.74248e-07
-5.0397e-08
1.71393e-07
-5.07721e-08
1.68744e-07
-5.11239e-08
1.66105e-07
-5.15243e-08
1.63299e-07
-5.20404e-08
1.60207e-07
-5.26815e-08
1.56861e-07
-5.34005e-08
1.53422e-07
-5.41039e-08
1.49974e-07
-5.46897e-08
1.46477e-07
-5.51408e-08
1.4294e-07
-5.55416e-08
1.39428e-07
-5.59669e-08
1.3593e-07
-5.64185e-08
1.32416e-07
-5.68756e-08
1.28906e-07
-5.73222e-08
1.2536e-07
-5.77254e-08
1.21725e-07
-5.80608e-08
1.18099e-07
-5.83426e-08
1.1464e-07
-5.8592e-08
1.11346e-07
-5.88234e-08
1.08138e-07
-5.90697e-08
1.04976e-07
-5.93593e-08
1.01764e-07
-5.96775e-08
9.83294e-08
-6.00023e-08
9.46465e-08
-6.03392e-08
9.08856e-08
-6.06727e-08
8.7229e-08
-6.0939e-08
8.37638e-08
-6.10942e-08
8.04874e-08
-6.11677e-08
7.7295e-08
-6.12308e-08
7.40413e-08
-6.1348e-08
7.06668e-08
-6.15475e-08
6.71776e-08
-6.1803e-08
6.35517e-08
-6.20557e-08
5.97893e-08
-6.2261e-08
5.59923e-08
-6.23896e-08
5.22882e-08
-6.24028e-08
4.87453e-08
-6.22853e-08
4.54048e-08
-6.20925e-08
4.2284e-08
-6.19153e-08
3.93091e-08
-6.18105e-08
3.63334e-08
-6.17867e-08
3.32237e-08
-6.18258e-08
2.98775e-08
-6.18919e-08
2.62422e-08
-6.19492e-08
2.2409e-08
-6.19766e-08
1.86088e-08
-6.19438e-08
1.50282e-08
-6.1802e-08
1.16893e-08
-6.15401e-08
8.52557e-09
-6.1223e-08
5.44945e-09
-6.09335e-08
2.33433e-09
-6.07018e-08
-9.20542e-10
-6.05201e-08
-4.27772e-09
-6.0376e-08
-7.63256e-09
-6.02344e-08
-1.09767e-08
-6.00314e-08
-1.43498e-08
-5.97282e-08
-1.76794e-08
-5.93443e-08
-2.08423e-08
-5.89214e-08
-2.38476e-08
-5.84907e-08
-2.68101e-08
-5.80865e-08
-2.98007e-08
-5.77406e-08
-3.2854e-08
-5.74466e-08
-3.60325e-08
-5.71604e-08
-3.93428e-08
-5.68414e-08
-4.26724e-08
-5.647e-08
-4.59152e-08
-5.60383e-08
-4.90788e-08
-5.55607e-08
-5.22143e-08
-5.50834e-08
-5.53461e-08
-5.46462e-08
-5.85031e-08
-5.4234e-08
-6.17121e-08
-5.37915e-08
-6.49294e-08
-5.328e-08
-6.80474e-08
-5.26936e-08
-7.09752e-08
-5.20356e-08
-7.36864e-08
-5.13209e-08
-7.62056e-08
-5.05941e-08
-7.85819e-08
-4.9915e-08
-8.08969e-08
-4.93193e-08
-8.32657e-08
-4.88022e-08
-8.57899e-08
-4.83383e-08
-8.85152e-08
-4.7898e-08
-9.14312e-08
-4.74513e-08
-9.44974e-08
-4.6976e-08
-9.7653e-08
-4.64674e-08
-1.00831e-07
-4.59313e-08
-1.03995e-07
-4.53638e-08
-1.0713e-07
-4.47417e-08
-1.10199e-07
-4.40328e-08
-1.13111e-07
-4.32165e-08
-1.15751e-07
-4.23015e-08
-1.18039e-07
-4.13353e-08
-1.20003e-07
-4.03936e-08
-1.21784e-07
-3.95507e-08
-1.23576e-07
-3.88481e-08
-1.25542e-07
-3.82803e-08
-1.27745e-07
-3.77995e-08
-1.30159e-07
-3.73357e-08
-1.32728e-07
-3.68245e-08
-1.35403e-07
-3.62309e-08
-1.38139e-07
-3.55538e-08
-1.40854e-07
-3.48102e-08
-1.43429e-07
-3.40128e-08
-1.45755e-07
-3.31668e-08
-1.47797e-07
-3.22786e-08
-1.49581e-07
-3.13579e-08
-1.51159e-07
-3.04256e-08
-1.52619e-07
-2.95292e-08
-1.54087e-07
-2.87378e-08
-1.55715e-07
-2.80935e-08
-1.5768e-07
-2.75686e-08
-1.60092e-07
-2.70956e-08
-1.62871e-07
-2.66218e-08
-1.65761e-07
-2.61089e-08
-1.68539e-07
-2.55022e-08
-1.71136e-07
-2.47456e-08
-1.73505e-07
-2.38261e-08
-1.75461e-07
-2.27598e-08
-1.76788e-07
-2.1561e-08
-1.7749e-07
-2.027e-08
-1.77715e-07
-1.89814e-08
-1.77564e-07
-1.7807e-08
-1.77212e-07
-1.68231e-08
-1.76974e-07
-1.60762e-08
-1.77088e-07
-1.55847e-08
-1.77652e-07
-1.53068e-08
-1.78795e-07
-1.5158e-08
-1.80665e-07
-1.50585e-08
-1.83252e-07
-1.49329e-08
-1.86394e-07
-1.46954e-08
-1.89884e-07
-1.42739e-08
-1.93451e-07
-1.36237e-08
-1.96762e-07
-1.2699e-08
-1.99538e-07
-1.14882e-08
-2.01549e-07
-1.00639e-08
-2.02528e-07
-8.52708e-09
-2.02399e-07
-6.94981e-09
-2.01374e-07
-5.40814e-09
-1.99644e-07
-3.99776e-09
-1.97381e-07
-2.78936e-09
-1.94916e-07
-1.82928e-09
-1.92606e-07
-1.14741e-09
-1.90737e-07
-7.07975e-10
-1.89602e-07
-4.44906e-10
-1.89388e-07
-3.44488e-10
-1.90067e-07
-3.95604e-10
-1.91604e-07
-5.28761e-10
-1.94051e-07
-6.77007e-10
-1.97241e-07
-7.69285e-10
-2.00785e-07
-6.41684e-10
-2.04396e-07
-1.18784e-10
-2.07772e-07
8.68245e-10
-2.10407e-07
2.31169e-09
-2.11931e-07
4.1099e-09
-2.12201e-07
6.03988e-09
-2.11212e-07
7.89122e-09
-2.0924e-07
9.56679e-09
-2.06564e-07
1.1061e-08
-2.03259e-07
1.24615e-08
-1.99481e-07
1.38596e-08
-1.95447e-07
1.51566e-08
-1.9134e-07
1.61004e-08
-1.87537e-07
1.65006e-08
-1.84594e-07
1.63659e-08
-1.82897e-07
1.59575e-08
-1.82462e-07
1.56248e-08
-1.83019e-07
1.55055e-08
-1.84282e-07
1.54932e-08
-1.86195e-07
1.54296e-08
-1.88789e-07
1.53237e-08
-1.91915e-07
1.54905e-08
-1.95144e-07
1.63245e-08
-1.97685e-07
1.78964e-08
-1.98874e-07
1.98904e-08
-1.98805e-07
2.19021e-08
-1.97886e-07
2.38392e-08
-1.96119e-07
2.59498e-08
-1.9317e-07
2.83592e-08
-1.88804e-07
3.07644e-08
-1.83456e-07
3.2688e-08
-1.77938e-07
3.39635e-08
-1.72702e-07
3.48619e-08
-1.677e-07
3.56923e-08
-1.62725e-07
3.63311e-08
-1.58117e-07
3.64814e-08
-1.54615e-07
3.62346e-08
-1.52258e-07
3.60681e-08
-1.50369e-07
3.62639e-08
-1.48649e-07
3.66482e-08
-1.47425e-07
3.70517e-08
-1.46811e-07
3.76904e-08
-1.46356e-07
3.88035e-08
-1.457e-07
4.02272e-08
-1.45055e-07
4.1648e-08
-1.44772e-07
4.30489e-08
-1.44755e-07
4.45481e-08
-1.44797e-07
4.6051e-08
-1.45138e-07
4.73986e-08
-1.45914e-07
4.8641e-08
-1.46809e-07
4.99034e-08
-1.47631e-07
5.12114e-08
-1.48221e-07
5.26709e-08
-1.48004e-07
5.43999e-08
-1.46604e-07
5.63774e-08
-1.4396e-07
5.86884e-08
-1.39367e-07
6.14848e-08
-1.32345e-07
6.46024e-08
-1.23423e-07
6.78558e-08
-1.12523e-07
7.14339e-08
-9.8992e-08
7.51624e-08
-8.38657e-08
7.85556e-08
-6.80556e-08
8.17954e-08
-5.08303e-08
8.4919e-08
-3.3531e-08
8.73232e-08
-1.75811e-08
8.91923e-08
-1.92652e-09