/*--------------------------------*- C++ -*----------------------------------*\
| =========                 |                                                 |
| \\      /  F ield         | OpenFOAM: The Open Source CFD Toolbox           |
|  \\    /   O peration     | Version:  2106                                  |
|   \\  /    A nd           | Website:  www.openfoam.com                      |
|    \\/     M anipulation  |                                                 |
\*---------------------------------------------------------------------------*/
FoamFile
{
    version     2.0;
    format      ascii;
    arch        "LSB;label=32;scalar=64";
    class       volVectorField;
    location    "0.002";
    object      U;
}
// * * * * * * * * * * * * * * * * * * * * * * * * * * * * * * * * * * * * * //

dimensions      [0 1 -1 0 0 0 0];

internalField   nonuniform List<vector> 
160000
(
(5.10237 4.15327 0)
(5.27161 4.15327 0)
(5.40128 4.15327 0)
(5.49025 4.15327 0)
(5.53785 4.15327 0)
(5.54392 4.15327 0)
(5.50874 4.15327 0)
(5.43312 4.15327 0)
(5.31831 4.15327 0)
(5.16601 4.15327 0)
(4.97834 4.15327 0)
(4.75782 4.15327 0)
(4.50732 4.15327 0)
(4.23003 4.15327 0)
(3.92942 4.15327 0)
(3.60917 4.15327 0)
(3.27314 4.15327 0)
(2.92532 4.15327 0)
(2.56975 4.15327 0)
(2.2105 4.15327 0)
(1.85159 4.15327 0)
(1.49695 4.15327 0)
(1.15036 4.15327 0)
(0.815426 4.15327 0)
(0.49549 4.15327 0)
(0.19363 4.15327 0)
(-0.0873919 4.15327 0)
(-0.345165 4.15327 0)
(-0.577652 4.15327 0)
(-0.78321 4.15327 0)
(-0.960606 4.15327 0)
(-1.10903 4.15327 0)
(-1.22808 4.15327 0)
(-1.31778 4.15327 0)
(-1.37858 4.15327 0)
(-1.4113 4.15327 0)
(-1.41713 4.15327 0)
(-1.39762 4.15327 0)
(-1.35463 4.15327 0)
(-1.2903 4.15327 0)
(-1.20701 4.15327 0)
(-1.10735 4.15327 0)
(-0.994055 4.15327 0)
(-0.869978 4.15327 0)
(-0.738034 4.15327 0)
(-0.60116 4.15327 0)
(-0.462264 4.15327 0)
(-0.324182 4.15327 0)
(-0.189636 4.15327 0)
(-0.0611947 4.15327 0)
(0.0587679 4.15327 0)
(0.168101 4.15327 0)
(0.264908 4.15327 0)
(0.347572 4.15327 0)
(0.414775 4.15327 0)
(0.465511 4.15327 0)
(0.499099 4.15327 0)
(0.515182 4.15327 0)
(0.51373 4.15327 0)
(0.495031 4.15327 0)
(0.459679 4.15327 0)
(0.408559 4.15327 0)
(0.342823 4.15327 0)
(0.263867 4.15327 0)
(0.173303 4.15327 0)
(0.0729222 4.15327 0)
(-0.0353339 4.15327 0)
(-0.149414 4.15327 0)
(-0.267195 4.15327 0)
(-0.386518 4.15327 0)
(-0.50523 4.15327 0)
(-0.621219 4.15327 0)
(-0.732455 4.15327 0)
(-0.837021 4.15327 0)
(-0.933149 4.15327 0)
(-1.01925 4.15327 0)
(-1.09393 4.15327 0)
(-1.15603 4.15327 0)
(-1.20463 4.15327 0)
(-1.23907 4.15327 0)
(-1.25897 4.15327 0)
(-1.2642 4.15327 0)
(-1.25492 4.15327 0)
(-1.23154 4.15327 0)
(-1.19474 4.15327 0)
(-1.14544 4.15327 0)
(-1.08479 4.15327 0)
(-1.01413 4.15327 0)
(-0.934977 4.15327 0)
(-0.849015 4.15327 0)
(-0.758026 4.15327 0)
(-0.663884 4.15327 0)
(-0.568511 4.15327 0)
(-0.473843 4.15327 0)
(-0.381797 4.15327 0)
(-0.294234 4.15327 0)
(-0.212925 4.15327 0)
(-0.139522 4.15327 0)
(-0.0755252 4.15327 0)
(-0.0222561 4.15327 0)
(0.0191648 4.15327 0)
(0.0478394 4.15327 0)
(0.063108 4.15327 0)
(0.0645616 4.15327 0)
(0.0520491 4.15327 0)
(0.0256811 4.15327 0)
(-0.0141725 4.15327 0)
(-0.0668882 4.15327 0)
(-0.1316 4.15327 0)
(-0.207213 4.15327 0)
(-0.292426 4.15327 0)
(-0.385751 4.15327 0)
(-0.485542 4.15327 0)
(-0.590021 4.15327 0)
(-0.697313 4.15327 0)
(-0.805481 4.15327 0)
(-0.912555 4.15327 0)
(-1.01657 4.15327 0)
(-1.11562 4.15327 0)
(-1.20784 4.15327 0)
(-1.29152 4.15327 0)
(-1.36506 4.15327 0)
(-1.42706 4.15327 0)
(-1.4763 4.15327 0)
(-1.5118 4.15327 0)
(-1.53283 4.15327 0)
(-1.5389 4.15327 0)
(-1.52983 4.15327 0)
(-1.50569 4.15327 0)
(-1.46685 4.15327 0)
(-1.41395 4.15327 0)
(-1.34792 4.15327 0)
(-1.26994 4.15327 0)
(-1.18144 4.15327 0)
(-1.08405 4.15327 0)
(-0.979634 4.15327 0)
(-0.870195 4.15327 0)
(-0.757881 4.15327 0)
(-0.644938 4.15327 0)
(-0.533668 4.15327 0)
(-0.426401 4.15327 0)
(-0.325442 4.15327 0)
(-0.23304 4.15327 0)
(-0.15134 4.15327 0)
(-0.0823507 4.15327 0)
(-0.0278996 4.15327 0)
(0.0103974 4.15327 0)
(0.0311708 4.15327 0)
(0.0333262 4.15327 0)
(0.0160698 4.15327 0)
(-0.0210713 4.15327 0)
(-0.0782332 4.15327 0)
(-0.155204 4.15327 0)
(-0.251419 4.15327 0)
(-0.365961 4.15327 0)
(-0.497566 4.15327 0)
(-0.644633 4.15327 0)
(-0.805246 4.15327 0)
(-0.977189 4.15327 0)
(-1.15798 4.15327 0)
(-1.3449 4.15327 0)
(-1.53502 4.15327 0)
(-1.72528 4.15327 0)
(-1.91246 4.15327 0)
(-2.0933 4.15327 0)
(-2.2645 4.15327 0)
(-2.4228 4.15327 0)
(-2.56499 4.15327 0)
(-2.68801 4.15327 0)
(-2.78895 4.15327 0)
(-2.86512 4.15327 0)
(-2.9141 4.15327 0)
(-2.93376 4.15327 0)
(-2.9223 4.15327 0)
(-2.87832 4.15327 0)
(-2.80079 4.15327 0)
(-2.68909 4.15327 0)
(-2.54306 4.15327 0)
(-2.36298 4.15327 0)
(-2.14957 4.15327 0)
(-1.90399 4.15327 0)
(-1.62786 4.15327 0)
(-1.32321 4.15327 0)
(-0.99247 4.15327 0)
(-0.638446 4.15327 0)
(-0.264289 4.15327 0)
(0.126545 4.15327 0)
(0.53034 4.15327 0)
(0.943162 4.15327 0)
(1.36091 4.15327 0)
(1.77937 4.15327 0)
(2.19426 4.15327 0)
(2.60131 4.15327 0)
(2.99627 4.15327 0)
(3.37503 4.15327 0)
(3.73361 4.15327 0)
(4.06826 4.15327 0)
(4.37548 4.15327 0)
(4.65207 4.15327 0)
(4.8952 4.15327 0)
(5.1024 4.15327 0)
(5.27163 4.15327 0)
(5.4013 4.15327 0)
(5.49026 4.15327 0)
(5.53786 4.15327 0)
(5.54391 4.15327 0)
(5.50874 4.15327 0)
(5.43311 4.15327 0)
(5.31829 4.15327 0)
(5.16598 4.15327 0)
(4.97831 4.15327 0)
(4.75778 4.15327 0)
(4.50728 4.15327 0)
(4.22999 4.15327 0)
(3.92937 4.15327 0)
(3.60912 4.15327 0)
(3.27309 4.15327 0)
(2.92527 4.15327 0)
(2.5697 4.15327 0)
(2.21045 4.15327 0)
(1.85154 4.15327 0)
(1.4969 4.15327 0)
(1.15031 4.15327 0)
(0.815377 4.15327 0)
(0.495443 4.15327 0)
(0.193587 4.15327 0)
(-0.0874322 4.15327 0)
(-0.345202 4.15327 0)
(-0.577685 4.15327 0)
(-0.783239 4.15327 0)
(-0.96063 4.15327 0)
(-1.10905 4.15327 0)
(-1.22809 4.15327 0)
(-1.3178 4.15327 0)
(-1.37859 4.15327 0)
(-1.4113 4.15327 0)
(-1.41713 4.15327 0)
(-1.39761 4.15327 0)
(-1.35462 4.15327 0)
(-1.29029 4.15327 0)
(-1.207 4.15327 0)
(-1.10733 4.15327 0)
(-0.994037 4.15327 0)
(-0.869958 4.15327 0)
(-0.738014 4.15327 0)
(-0.601139 4.15327 0)
(-0.462243 4.15327 0)
(-0.324162 4.15327 0)
(-0.189617 4.15327 0)
(-0.0611761 4.15327 0)
(0.0587851 4.15327 0)
(0.168116 4.15327 0)
(0.264921 4.15327 0)
(0.347583 4.15327 0)
(0.414783 4.15327 0)
(0.465517 4.15327 0)
(0.499103 4.15327 0)
(0.515183 4.15327 0)
(0.513729 4.15327 0)
(0.495027 4.15327 0)
(0.459673 4.15327 0)
(0.40855 4.15327 0)
(0.342812 4.15327 0)
(0.263854 4.15327 0)
(0.173288 4.15327 0)
(0.0729065 4.15327 0)
(-0.0353505 4.15327 0)
(-0.149432 4.15327 0)
(-0.267213 4.15327 0)
(-0.386536 4.15327 0)
(-0.505247 4.15327 0)
(-0.621236 4.15327 0)
(-0.732471 4.15327 0)
(-0.837036 4.15327 0)
(-0.933163 4.15327 0)
(-1.01926 4.15327 0)
(-1.09394 4.15327 0)
(-1.15603 4.15327 0)
(-1.20463 4.15327 0)
(-1.23908 4.15327 0)
(-1.25897 4.15327 0)
(-1.2642 4.15327 0)
(-1.25491 4.15327 0)
(-1.23153 4.15327 0)
(-1.19473 4.15327 0)
(-1.14543 4.15327 0)
(-1.08478 4.15327 0)
(-1.01411 4.15327 0)
(-0.934965 4.15327 0)
(-0.849002 4.15327 0)
(-0.758013 4.15327 0)
(-0.66387 4.15327 0)
(-0.568497 4.15327 0)
(-0.473829 4.15327 0)
(-0.381783 4.15327 0)
(-0.294221 4.15327 0)
(-0.212913 4.15327 0)
(-0.139512 4.15327 0)
(-0.0755165 4.15327 0)
(-0.022249 4.15327 0)
(0.0191701 4.15327 0)
(0.0478427 4.15327 0)
(0.0631093 4.15327 0)
(0.0645607 4.15327 0)
(0.0520462 4.15327 0)
(0.0256761 4.15327 0)
(-0.0141795 4.15327 0)
(-0.066897 4.15327 0)
(-0.13161 4.15327 0)
(-0.207225 4.15327 0)
(-0.29244 4.15327 0)
(-0.385766 4.15327 0)
(-0.485557 4.15327 0)
(-0.590036 4.15327 0)
(-0.69733 4.15327 0)
(-0.805497 4.15327 0)
(-0.912571 4.15327 0)
(-1.01659 4.15327 0)
(-1.11563 4.15327 0)
(-1.20785 4.15327 0)
(-1.29153 4.15327 0)
(-1.36507 4.15327 0)
(-1.42707 4.15327 0)
(-1.47631 4.15327 0)
(-1.51181 4.15327 0)
(-1.53283 4.15327 0)
(-1.5389 4.15327 0)
(-1.52983 4.15327 0)
(-1.50569 4.15327 0)
(-1.46684 4.15327 0)
(-1.41395 4.15327 0)
(-1.34791 4.15327 0)
(-1.26993 4.15327 0)
(-1.18142 4.15327 0)
(-1.08404 4.15327 0)
(-0.979618 4.15327 0)
(-0.870178 4.15327 0)
(-0.757865 4.15327 0)
(-0.644921 4.15327 0)
(-0.533652 4.15327 0)
(-0.426385 4.15327 0)
(-0.325428 4.15327 0)
(-0.233027 4.15327 0)
(-0.151329 4.15327 0)
(-0.0823414 4.15327 0)
(-0.0278926 4.15327 0)
(0.0104018 4.15327 0)
(0.0311725 4.15327 0)
(0.0333251 4.15327 0)
(0.0160658 4.15327 0)
(-0.0210784 4.15327 0)
(-0.0782432 4.15327 0)
(-0.155217 4.15327 0)
(-0.251435 4.15327 0)
(-0.36598 4.15327 0)
(-0.497587 4.15327 0)
(-0.644656 4.15327 0)
(-0.805271 4.15327 0)
(-0.977215 4.15327 0)
(-1.15801 4.15327 0)
(-1.34493 4.15327 0)
(-1.53505 4.15327 0)
(-1.72531 4.15327 0)
(-1.91249 4.15327 0)
(-2.09332 4.15327 0)
(-2.26452 4.15327 0)
(-2.42282 4.15327 0)
(-2.56501 4.15327 0)
(-2.68803 4.15327 0)
(-2.78896 4.15327 0)
(-2.86513 4.15327 0)
(-2.9141 4.15327 0)
(-2.93376 4.15327 0)
(-2.9223 4.15327 0)
(-2.87831 4.15327 0)
(-2.80077 4.15327 0)
(-2.68907 4.15327 0)
(-2.54304 4.15327 0)
(-2.36295 4.15327 0)
(-2.14953 4.15327 0)
(-1.90395 4.15327 0)
(-1.62782 4.15327 0)
(-1.32316 4.15327 0)
(-0.992418 4.15327 0)
(-0.638391 4.15327 0)
(-0.264232 4.15327 0)
(0.126604 4.15327 0)
(0.530401 4.15327 0)
(0.943224 4.15327 0)
(1.36097 4.15327 0)
(1.77943 4.15327 0)
(2.19432 4.15327 0)
(2.60137 4.15327 0)
(2.99633 4.15327 0)
(3.37509 4.15327 0)
(3.73366 4.15327 0)
(4.06831 4.15327 0)
(4.37552 4.15327 0)
(4.65211 4.15327 0)
(4.89523 4.15327 0)
(5.10237 4.43622 0)
(5.27161 4.43622 0)
(5.40128 4.43622 0)
(5.49025 4.43622 0)
(5.53785 4.43622 0)
(5.54392 4.43622 0)
(5.50874 4.43622 0)
(5.43312 4.43622 0)
(5.31831 4.43622 0)
(5.16601 4.43622 0)
(4.97834 4.43622 0)
(4.75782 4.43622 0)
(4.50732 4.43622 0)
(4.23003 4.43622 0)
(3.92942 4.43622 0)
(3.60917 4.43622 0)
(3.27314 4.43622 0)
(2.92532 4.43622 0)
(2.56975 4.43622 0)
(2.2105 4.43622 0)
(1.85159 4.43622 0)
(1.49695 4.43622 0)
(1.15036 4.43622 0)
(0.815426 4.43622 0)
(0.49549 4.43622 0)
(0.19363 4.43622 0)
(-0.0873919 4.43622 0)
(-0.345165 4.43622 0)
(-0.577652 4.43622 0)
(-0.78321 4.43622 0)
(-0.960606 4.43622 0)
(-1.10903 4.43622 0)
(-1.22808 4.43622 0)
(-1.31778 4.43622 0)
(-1.37858 4.43622 0)
(-1.4113 4.43622 0)
(-1.41713 4.43622 0)
(-1.39762 4.43622 0)
(-1.35463 4.43622 0)
(-1.2903 4.43622 0)
(-1.20701 4.43622 0)
(-1.10735 4.43622 0)
(-0.994055 4.43622 0)
(-0.869978 4.43622 0)
(-0.738034 4.43622 0)
(-0.60116 4.43622 0)
(-0.462264 4.43622 0)
(-0.324182 4.43622 0)
(-0.189636 4.43622 0)
(-0.0611947 4.43622 0)
(0.0587679 4.43622 0)
(0.168101 4.43622 0)
(0.264908 4.43622 0)
(0.347572 4.43622 0)
(0.414775 4.43622 0)
(0.465511 4.43622 0)
(0.499099 4.43622 0)
(0.515182 4.43622 0)
(0.51373 4.43622 0)
(0.495031 4.43622 0)
(0.459679 4.43622 0)
(0.408559 4.43622 0)
(0.342823 4.43622 0)
(0.263867 4.43622 0)
(0.173303 4.43622 0)
(0.0729222 4.43622 0)
(-0.0353339 4.43622 0)
(-0.149414 4.43622 0)
(-0.267195 4.43622 0)
(-0.386518 4.43622 0)
(-0.50523 4.43622 0)
(-0.621219 4.43622 0)
(-0.732455 4.43622 0)
(-0.837021 4.43622 0)
(-0.933149 4.43622 0)
(-1.01925 4.43622 0)
(-1.09393 4.43622 0)
(-1.15603 4.43622 0)
(-1.20463 4.43622 0)
(-1.23907 4.43622 0)
(-1.25897 4.43622 0)
(-1.2642 4.43622 0)
(-1.25492 4.43622 0)
(-1.23154 4.43622 0)
(-1.19474 4.43622 0)
(-1.14544 4.43622 0)
(-1.08479 4.43622 0)
(-1.01413 4.43622 0)
(-0.934977 4.43622 0)
(-0.849015 4.43622 0)
(-0.758026 4.43622 0)
(-0.663884 4.43622 0)
(-0.568511 4.43622 0)
(-0.473843 4.43622 0)
(-0.381797 4.43622 0)
(-0.294234 4.43622 0)
(-0.212925 4.43622 0)
(-0.139522 4.43622 0)
(-0.0755252 4.43622 0)
(-0.0222561 4.43622 0)
(0.0191648 4.43622 0)
(0.0478394 4.43622 0)
(0.063108 4.43622 0)
(0.0645616 4.43622 0)
(0.0520491 4.43622 0)
(0.0256811 4.43622 0)
(-0.0141725 4.43622 0)
(-0.0668882 4.43622 0)
(-0.1316 4.43622 0)
(-0.207213 4.43622 0)
(-0.292426 4.43622 0)
(-0.385751 4.43622 0)
(-0.485542 4.43622 0)
(-0.590021 4.43622 0)
(-0.697313 4.43622 0)
(-0.805481 4.43622 0)
(-0.912555 4.43622 0)
(-1.01657 4.43622 0)
(-1.11562 4.43622 0)
(-1.20784 4.43622 0)
(-1.29152 4.43622 0)
(-1.36506 4.43622 0)
(-1.42706 4.43622 0)
(-1.4763 4.43622 0)
(-1.5118 4.43622 0)
(-1.53283 4.43622 0)
(-1.5389 4.43622 0)
(-1.52983 4.43622 0)
(-1.50569 4.43622 0)
(-1.46685 4.43622 0)
(-1.41395 4.43622 0)
(-1.34792 4.43622 0)
(-1.26994 4.43622 0)
(-1.18144 4.43622 0)
(-1.08405 4.43622 0)
(-0.979634 4.43622 0)
(-0.870195 4.43622 0)
(-0.757881 4.43622 0)
(-0.644938 4.43622 0)
(-0.533668 4.43622 0)
(-0.426401 4.43622 0)
(-0.325442 4.43622 0)
(-0.23304 4.43622 0)
(-0.15134 4.43622 0)
(-0.0823507 4.43622 0)
(-0.0278996 4.43622 0)
(0.0103974 4.43622 0)
(0.0311708 4.43622 0)
(0.0333262 4.43622 0)
(0.0160698 4.43622 0)
(-0.0210713 4.43622 0)
(-0.0782332 4.43622 0)
(-0.155204 4.43622 0)
(-0.251419 4.43622 0)
(-0.365961 4.43622 0)
(-0.497566 4.43622 0)
(-0.644633 4.43622 0)
(-0.805246 4.43622 0)
(-0.977189 4.43622 0)
(-1.15798 4.43622 0)
(-1.3449 4.43622 0)
(-1.53502 4.43622 0)
(-1.72528 4.43622 0)
(-1.91246 4.43622 0)
(-2.0933 4.43622 0)
(-2.2645 4.43622 0)
(-2.4228 4.43622 0)
(-2.56499 4.43622 0)
(-2.68801 4.43622 0)
(-2.78895 4.43622 0)
(-2.86512 4.43622 0)
(-2.9141 4.43622 0)
(-2.93376 4.43622 0)
(-2.9223 4.43622 0)
(-2.87832 4.43622 0)
(-2.80079 4.43622 0)
(-2.68909 4.43622 0)
(-2.54306 4.43622 0)
(-2.36298 4.43622 0)
(-2.14957 4.43622 0)
(-1.90399 4.43622 0)
(-1.62786 4.43622 0)
(-1.32321 4.43622 0)
(-0.99247 4.43622 0)
(-0.638446 4.43622 0)
(-0.264289 4.43622 0)
(0.126545 4.43622 0)
(0.53034 4.43622 0)
(0.943162 4.43622 0)
(1.36091 4.43622 0)
(1.77937 4.43622 0)
(2.19426 4.43622 0)
(2.60131 4.43622 0)
(2.99627 4.43622 0)
(3.37503 4.43622 0)
(3.73361 4.43622 0)
(4.06826 4.43622 0)
(4.37548 4.43622 0)
(4.65207 4.43622 0)
(4.8952 4.43622 0)
(5.1024 4.43622 0)
(5.27163 4.43622 0)
(5.4013 4.43622 0)
(5.49026 4.43622 0)
(5.53786 4.43622 0)
(5.54391 4.43622 0)
(5.50874 4.43622 0)
(5.43311 4.43622 0)
(5.31829 4.43622 0)
(5.16598 4.43622 0)
(4.97831 4.43622 0)
(4.75778 4.43622 0)
(4.50728 4.43622 0)
(4.22999 4.43622 0)
(3.92937 4.43622 0)
(3.60912 4.43622 0)
(3.27309 4.43622 0)
(2.92527 4.43622 0)
(2.5697 4.43622 0)
(2.21045 4.43622 0)
(1.85154 4.43622 0)
(1.4969 4.43622 0)
(1.15031 4.43622 0)
(0.815377 4.43622 0)
(0.495443 4.43622 0)
(0.193587 4.43622 0)
(-0.0874322 4.43622 0)
(-0.345202 4.43622 0)
(-0.577685 4.43622 0)
(-0.783239 4.43622 0)
(-0.96063 4.43622 0)
(-1.10905 4.43622 0)
(-1.22809 4.43622 0)
(-1.3178 4.43622 0)
(-1.37859 4.43622 0)
(-1.4113 4.43622 0)
(-1.41713 4.43622 0)
(-1.39761 4.43622 0)
(-1.35462 4.43622 0)
(-1.29029 4.43622 0)
(-1.207 4.43622 0)
(-1.10733 4.43622 0)
(-0.994037 4.43622 0)
(-0.869958 4.43622 0)
(-0.738014 4.43622 0)
(-0.601139 4.43622 0)
(-0.462243 4.43622 0)
(-0.324162 4.43622 0)
(-0.189617 4.43622 0)
(-0.0611761 4.43622 0)
(0.0587851 4.43622 0)
(0.168116 4.43622 0)
(0.264921 4.43622 0)
(0.347583 4.43622 0)
(0.414783 4.43622 0)
(0.465517 4.43622 0)
(0.499103 4.43622 0)
(0.515183 4.43622 0)
(0.513729 4.43622 0)
(0.495027 4.43622 0)
(0.459673 4.43622 0)
(0.40855 4.43622 0)
(0.342812 4.43622 0)
(0.263854 4.43622 0)
(0.173288 4.43622 0)
(0.0729065 4.43622 0)
(-0.0353505 4.43622 0)
(-0.149432 4.43622 0)
(-0.267213 4.43622 0)
(-0.386536 4.43622 0)
(-0.505247 4.43622 0)
(-0.621236 4.43622 0)
(-0.732471 4.43622 0)
(-0.837036 4.43622 0)
(-0.933163 4.43622 0)
(-1.01926 4.43622 0)
(-1.09394 4.43622 0)
(-1.15603 4.43622 0)
(-1.20463 4.43622 0)
(-1.23908 4.43622 0)
(-1.25897 4.43622 0)
(-1.2642 4.43622 0)
(-1.25491 4.43622 0)
(-1.23153 4.43622 0)
(-1.19473 4.43622 0)
(-1.14543 4.43622 0)
(-1.08478 4.43622 0)
(-1.01411 4.43622 0)
(-0.934965 4.43622 0)
(-0.849002 4.43622 0)
(-0.758013 4.43622 0)
(-0.66387 4.43622 0)
(-0.568497 4.43622 0)
(-0.473829 4.43622 0)
(-0.381783 4.43622 0)
(-0.294221 4.43622 0)
(-0.212913 4.43622 0)
(-0.139512 4.43622 0)
(-0.0755165 4.43622 0)
(-0.022249 4.43622 0)
(0.0191701 4.43622 0)
(0.0478427 4.43622 0)
(0.0631093 4.43622 0)
(0.0645607 4.43622 0)
(0.0520462 4.43622 0)
(0.0256761 4.43622 0)
(-0.0141795 4.43622 0)
(-0.066897 4.43622 0)
(-0.13161 4.43622 0)
(-0.207225 4.43622 0)
(-0.29244 4.43622 0)
(-0.385766 4.43622 0)
(-0.485557 4.43622 0)
(-0.590036 4.43622 0)
(-0.69733 4.43622 0)
(-0.805497 4.43622 0)
(-0.912571 4.43622 0)
(-1.01659 4.43622 0)
(-1.11563 4.43622 0)
(-1.20785 4.43622 0)
(-1.29153 4.43622 0)
(-1.36507 4.43622 0)
(-1.42707 4.43622 0)
(-1.47631 4.43622 0)
(-1.51181 4.43622 0)
(-1.53283 4.43622 0)
(-1.5389 4.43622 0)
(-1.52983 4.43622 0)
(-1.50569 4.43622 0)
(-1.46684 4.43622 0)
(-1.41395 4.43622 0)
(-1.34791 4.43622 0)
(-1.26993 4.43622 0)
(-1.18142 4.43622 0)
(-1.08404 4.43622 0)
(-0.979618 4.43622 0)
(-0.870178 4.43622 0)
(-0.757865 4.43622 0)
(-0.644921 4.43622 0)
(-0.533652 4.43622 0)
(-0.426385 4.43622 0)
(-0.325428 4.43622 0)
(-0.233027 4.43622 0)
(-0.151329 4.43622 0)
(-0.0823414 4.43622 0)
(-0.0278926 4.43622 0)
(0.0104018 4.43622 0)
(0.0311725 4.43622 0)
(0.0333251 4.43622 0)
(0.0160658 4.43622 0)
(-0.0210784 4.43622 0)
(-0.0782432 4.43622 0)
(-0.155217 4.43622 0)
(-0.251435 4.43622 0)
(-0.36598 4.43622 0)
(-0.497587 4.43622 0)
(-0.644656 4.43622 0)
(-0.805271 4.43622 0)
(-0.977215 4.43622 0)
(-1.15801 4.43622 0)
(-1.34493 4.43622 0)
(-1.53505 4.43622 0)
(-1.72531 4.43622 0)
(-1.91249 4.43622 0)
(-2.09332 4.43622 0)
(-2.26452 4.43622 0)
(-2.42282 4.43622 0)
(-2.56501 4.43622 0)
(-2.68803 4.43622 0)
(-2.78896 4.43622 0)
(-2.86513 4.43622 0)
(-2.9141 4.43622 0)
(-2.93376 4.43622 0)
(-2.9223 4.43622 0)
(-2.87831 4.43622 0)
(-2.80077 4.43622 0)
(-2.68907 4.43622 0)
(-2.54304 4.43622 0)
(-2.36295 4.43622 0)
(-2.14953 4.43622 0)
(-1.90395 4.43622 0)
(-1.62782 4.43622 0)
(-1.32316 4.43622 0)
(-0.992418 4.43622 0)
(-0.638391 4.43622 0)
(-0.264232 4.43622 0)
(0.126604 4.43622 0)
(0.530401 4.43622 0)
(0.943224 4.43622 0)
(1.36097 4.43622 0)
(1.77943 4.43622 0)
(2.19432 4.43622 0)
(2.60137 4.43622 0)
(2.99633 4.43622 0)
(3.37509 4.43622 0)
(3.73366 4.43622 0)
(4.06831 4.43622 0)
(4.37552 4.43622 0)
(4.65211 4.43622 0)
(4.89523 4.43622 0)
(5.10237 4.68535 0)
(5.27161 4.68535 0)
(5.40128 4.68535 0)
(5.49025 4.68535 0)
(5.53785 4.68535 0)
(5.54392 4.68535 0)
(5.50874 4.68535 0)
(5.43312 4.68535 0)
(5.31831 4.68535 0)
(5.16601 4.68535 0)
(4.97834 4.68535 0)
(4.75782 4.68535 0)
(4.50732 4.68535 0)
(4.23003 4.68535 0)
(3.92942 4.68535 0)
(3.60917 4.68535 0)
(3.27314 4.68535 0)
(2.92532 4.68535 0)
(2.56975 4.68535 0)
(2.2105 4.68535 0)
(1.85159 4.68535 0)
(1.49695 4.68535 0)
(1.15036 4.68535 0)
(0.815426 4.68535 0)
(0.49549 4.68535 0)
(0.19363 4.68535 0)
(-0.0873919 4.68535 0)
(-0.345165 4.68535 0)
(-0.577652 4.68535 0)
(-0.78321 4.68535 0)
(-0.960606 4.68535 0)
(-1.10903 4.68535 0)
(-1.22808 4.68535 0)
(-1.31778 4.68535 0)
(-1.37858 4.68535 0)
(-1.4113 4.68535 0)
(-1.41713 4.68535 0)
(-1.39762 4.68535 0)
(-1.35463 4.68535 0)
(-1.2903 4.68535 0)
(-1.20701 4.68535 0)
(-1.10735 4.68535 0)
(-0.994055 4.68535 0)
(-0.869978 4.68535 0)
(-0.738034 4.68535 0)
(-0.60116 4.68535 0)
(-0.462264 4.68535 0)
(-0.324182 4.68535 0)
(-0.189636 4.68535 0)
(-0.0611947 4.68535 0)
(0.0587679 4.68535 0)
(0.168101 4.68535 0)
(0.264908 4.68535 0)
(0.347572 4.68535 0)
(0.414775 4.68535 0)
(0.465511 4.68535 0)
(0.499099 4.68535 0)
(0.515182 4.68535 0)
(0.51373 4.68535 0)
(0.495031 4.68535 0)
(0.459679 4.68535 0)
(0.408559 4.68535 0)
(0.342823 4.68535 0)
(0.263867 4.68535 0)
(0.173303 4.68535 0)
(0.0729222 4.68535 0)
(-0.0353339 4.68535 0)
(-0.149414 4.68535 0)
(-0.267195 4.68535 0)
(-0.386518 4.68535 0)
(-0.50523 4.68535 0)
(-0.621219 4.68535 0)
(-0.732455 4.68535 0)
(-0.837021 4.68535 0)
(-0.933149 4.68535 0)
(-1.01925 4.68535 0)
(-1.09393 4.68535 0)
(-1.15603 4.68535 0)
(-1.20463 4.68535 0)
(-1.23907 4.68535 0)
(-1.25897 4.68535 0)
(-1.2642 4.68535 0)
(-1.25492 4.68535 0)
(-1.23154 4.68535 0)
(-1.19474 4.68535 0)
(-1.14544 4.68535 0)
(-1.08479 4.68535 0)
(-1.01413 4.68535 0)
(-0.934977 4.68535 0)
(-0.849015 4.68535 0)
(-0.758026 4.68535 0)
(-0.663884 4.68535 0)
(-0.568511 4.68535 0)
(-0.473843 4.68535 0)
(-0.381797 4.68535 0)
(-0.294234 4.68535 0)
(-0.212925 4.68535 0)
(-0.139522 4.68535 0)
(-0.0755252 4.68535 0)
(-0.0222561 4.68535 0)
(0.0191648 4.68535 0)
(0.0478394 4.68535 0)
(0.063108 4.68535 0)
(0.0645616 4.68535 0)
(0.0520491 4.68535 0)
(0.0256811 4.68535 0)
(-0.0141725 4.68535 0)
(-0.0668882 4.68535 0)
(-0.1316 4.68535 0)
(-0.207213 4.68535 0)
(-0.292426 4.68535 0)
(-0.385751 4.68535 0)
(-0.485542 4.68535 0)
(-0.590021 4.68535 0)
(-0.697313 4.68535 0)
(-0.805481 4.68535 0)
(-0.912555 4.68535 0)
(-1.01657 4.68535 0)
(-1.11562 4.68535 0)
(-1.20784 4.68535 0)
(-1.29152 4.68535 0)
(-1.36506 4.68535 0)
(-1.42706 4.68535 0)
(-1.4763 4.68535 0)
(-1.5118 4.68535 0)
(-1.53283 4.68535 0)
(-1.5389 4.68535 0)
(-1.52983 4.68535 0)
(-1.50569 4.68535 0)
(-1.46685 4.68535 0)
(-1.41395 4.68535 0)
(-1.34792 4.68535 0)
(-1.26994 4.68535 0)
(-1.18144 4.68535 0)
(-1.08405 4.68535 0)
(-0.979634 4.68535 0)
(-0.870195 4.68535 0)
(-0.757881 4.68535 0)
(-0.644938 4.68535 0)
(-0.533668 4.68535 0)
(-0.426401 4.68535 0)
(-0.325442 4.68535 0)
(-0.23304 4.68535 0)
(-0.15134 4.68535 0)
(-0.0823507 4.68535 0)
(-0.0278996 4.68535 0)
(0.0103974 4.68535 0)
(0.0311708 4.68535 0)
(0.0333262 4.68535 0)
(0.0160698 4.68535 0)
(-0.0210713 4.68535 0)
(-0.0782332 4.68535 0)
(-0.155204 4.68535 0)
(-0.251419 4.68535 0)
(-0.365961 4.68535 0)
(-0.497566 4.68535 0)
(-0.644633 4.68535 0)
(-0.805246 4.68535 0)
(-0.977189 4.68535 0)
(-1.15798 4.68535 0)
(-1.3449 4.68535 0)
(-1.53502 4.68535 0)
(-1.72528 4.68535 0)
(-1.91246 4.68535 0)
(-2.0933 4.68535 0)
(-2.2645 4.68535 0)
(-2.4228 4.68535 0)
(-2.56499 4.68535 0)
(-2.68801 4.68535 0)
(-2.78895 4.68535 0)
(-2.86512 4.68535 0)
(-2.9141 4.68535 0)
(-2.93376 4.68535 0)
(-2.9223 4.68535 0)
(-2.87832 4.68535 0)
(-2.80079 4.68535 0)
(-2.68909 4.68535 0)
(-2.54306 4.68535 0)
(-2.36298 4.68535 0)
(-2.14957 4.68535 0)
(-1.90399 4.68535 0)
(-1.62786 4.68535 0)
(-1.32321 4.68535 0)
(-0.99247 4.68535 0)
(-0.638446 4.68535 0)
(-0.264289 4.68535 0)
(0.126545 4.68535 0)
(0.53034 4.68535 0)
(0.943162 4.68535 0)
(1.36091 4.68535 0)
(1.77937 4.68535 0)
(2.19426 4.68535 0)
(2.60131 4.68535 0)
(2.99627 4.68535 0)
(3.37503 4.68535 0)
(3.73361 4.68535 0)
(4.06826 4.68535 0)
(4.37548 4.68535 0)
(4.65207 4.68535 0)
(4.8952 4.68535 0)
(5.1024 4.68535 0)
(5.27163 4.68535 0)
(5.4013 4.68535 0)
(5.49026 4.68535 0)
(5.53786 4.68535 0)
(5.54391 4.68535 0)
(5.50874 4.68535 0)
(5.43311 4.68535 0)
(5.31829 4.68535 0)
(5.16598 4.68535 0)
(4.97831 4.68535 0)
(4.75778 4.68535 0)
(4.50728 4.68535 0)
(4.22999 4.68535 0)
(3.92937 4.68535 0)
(3.60912 4.68535 0)
(3.27309 4.68535 0)
(2.92527 4.68535 0)
(2.5697 4.68535 0)
(2.21045 4.68535 0)
(1.85154 4.68535 0)
(1.4969 4.68535 0)
(1.15031 4.68535 0)
(0.815377 4.68535 0)
(0.495443 4.68535 0)
(0.193587 4.68535 0)
(-0.0874322 4.68535 0)
(-0.345202 4.68535 0)
(-0.577685 4.68535 0)
(-0.783239 4.68535 0)
(-0.96063 4.68535 0)
(-1.10905 4.68535 0)
(-1.22809 4.68535 0)
(-1.3178 4.68535 0)
(-1.37859 4.68535 0)
(-1.4113 4.68535 0)
(-1.41713 4.68535 0)
(-1.39761 4.68535 0)
(-1.35462 4.68535 0)
(-1.29029 4.68535 0)
(-1.207 4.68535 0)
(-1.10733 4.68535 0)
(-0.994037 4.68535 0)
(-0.869958 4.68535 0)
(-0.738014 4.68535 0)
(-0.601139 4.68535 0)
(-0.462243 4.68535 0)
(-0.324162 4.68535 0)
(-0.189617 4.68535 0)
(-0.0611761 4.68535 0)
(0.0587851 4.68535 0)
(0.168116 4.68535 0)
(0.264921 4.68535 0)
(0.347583 4.68535 0)
(0.414783 4.68535 0)
(0.465517 4.68535 0)
(0.499103 4.68535 0)
(0.515183 4.68535 0)
(0.513729 4.68535 0)
(0.495027 4.68535 0)
(0.459673 4.68535 0)
(0.40855 4.68535 0)
(0.342812 4.68535 0)
(0.263854 4.68535 0)
(0.173288 4.68535 0)
(0.0729065 4.68535 0)
(-0.0353505 4.68535 0)
(-0.149432 4.68535 0)
(-0.267213 4.68535 0)
(-0.386536 4.68535 0)
(-0.505247 4.68535 0)
(-0.621236 4.68535 0)
(-0.732471 4.68535 0)
(-0.837036 4.68535 0)
(-0.933163 4.68535 0)
(-1.01926 4.68535 0)
(-1.09394 4.68535 0)
(-1.15603 4.68535 0)
(-1.20463 4.68535 0)
(-1.23908 4.68535 0)
(-1.25897 4.68535 0)
(-1.2642 4.68535 0)
(-1.25491 4.68535 0)
(-1.23153 4.68535 0)
(-1.19473 4.68535 0)
(-1.14543 4.68535 0)
(-1.08478 4.68535 0)
(-1.01411 4.68535 0)
(-0.934965 4.68535 0)
(-0.849002 4.68535 0)
(-0.758013 4.68535 0)
(-0.66387 4.68535 0)
(-0.568497 4.68535 0)
(-0.473829 4.68535 0)
(-0.381783 4.68535 0)
(-0.294221 4.68535 0)
(-0.212913 4.68535 0)
(-0.139512 4.68535 0)
(-0.0755165 4.68535 0)
(-0.022249 4.68535 0)
(0.0191701 4.68535 0)
(0.0478427 4.68535 0)
(0.0631093 4.68535 0)
(0.0645607 4.68535 0)
(0.0520462 4.68535 0)
(0.0256761 4.68535 0)
(-0.0141795 4.68535 0)
(-0.066897 4.68535 0)
(-0.13161 4.68535 0)
(-0.207225 4.68535 0)
(-0.29244 4.68535 0)
(-0.385766 4.68535 0)
(-0.485557 4.68535 0)
(-0.590036 4.68535 0)
(-0.69733 4.68535 0)
(-0.805497 4.68535 0)
(-0.912571 4.68535 0)
(-1.01659 4.68535 0)
(-1.11563 4.68535 0)
(-1.20785 4.68535 0)
(-1.29153 4.68535 0)
(-1.36507 4.68535 0)
(-1.42707 4.68535 0)
(-1.47631 4.68535 0)
(-1.51181 4.68535 0)
(-1.53283 4.68535 0)
(-1.5389 4.68535 0)
(-1.52983 4.68535 0)
(-1.50569 4.68535 0)
(-1.46684 4.68535 0)
(-1.41395 4.68535 0)
(-1.34791 4.68535 0)
(-1.26993 4.68535 0)
(-1.18142 4.68535 0)
(-1.08404 4.68535 0)
(-0.979618 4.68535 0)
(-0.870178 4.68535 0)
(-0.757865 4.68535 0)
(-0.644921 4.68535 0)
(-0.533652 4.68535 0)
(-0.426385 4.68535 0)
(-0.325428 4.68535 0)
(-0.233027 4.68535 0)
(-0.151329 4.68535 0)
(-0.0823414 4.68535 0)
(-0.0278926 4.68535 0)
(0.0104018 4.68535 0)
(0.0311725 4.68535 0)
(0.0333251 4.68535 0)
(0.0160658 4.68535 0)
(-0.0210784 4.68535 0)
(-0.0782432 4.68535 0)
(-0.155217 4.68535 0)
(-0.251435 4.68535 0)
(-0.36598 4.68535 0)
(-0.497587 4.68535 0)
(-0.644656 4.68535 0)
(-0.805271 4.68535 0)
(-0.977215 4.68535 0)
(-1.15801 4.68535 0)
(-1.34493 4.68535 0)
(-1.53505 4.68535 0)
(-1.72531 4.68535 0)
(-1.91249 4.68535 0)
(-2.09332 4.68535 0)
(-2.26452 4.68535 0)
(-2.42282 4.68535 0)
(-2.56501 4.68535 0)
(-2.68803 4.68535 0)
(-2.78896 4.68535 0)
(-2.86513 4.68535 0)
(-2.9141 4.68535 0)
(-2.93376 4.68535 0)
(-2.9223 4.68535 0)
(-2.87831 4.68535 0)
(-2.80077 4.68535 0)
(-2.68907 4.68535 0)
(-2.54304 4.68535 0)
(-2.36295 4.68535 0)
(-2.14953 4.68535 0)
(-1.90395 4.68535 0)
(-1.62782 4.68535 0)
(-1.32316 4.68535 0)
(-0.992418 4.68535 0)
(-0.638391 4.68535 0)
(-0.264232 4.68535 0)
(0.126604 4.68535 0)
(0.530401 4.68535 0)
(0.943224 4.68535 0)
(1.36097 4.68535 0)
(1.77943 4.68535 0)
(2.19432 4.68535 0)
(2.60137 4.68535 0)
(2.99633 4.68535 0)
(3.37509 4.68535 0)
(3.73366 4.68535 0)
(4.06831 4.68535 0)
(4.37552 4.68535 0)
(4.65211 4.68535 0)
(4.89523 4.68535 0)
(5.10237 4.89834 0)
(5.27161 4.89834 0)
(5.40128 4.89834 0)
(5.49025 4.89834 0)
(5.53785 4.89834 0)
(5.54392 4.89834 0)
(5.50874 4.89834 0)
(5.43312 4.89834 0)
(5.31831 4.89834 0)
(5.16601 4.89834 0)
(4.97834 4.89834 0)
(4.75782 4.89834 0)
(4.50732 4.89834 0)
(4.23003 4.89834 0)
(3.92942 4.89834 0)
(3.60917 4.89834 0)
(3.27314 4.89834 0)
(2.92532 4.89834 0)
(2.56975 4.89834 0)
(2.2105 4.89834 0)
(1.85159 4.89834 0)
(1.49695 4.89834 0)
(1.15036 4.89834 0)
(0.815426 4.89834 0)
(0.49549 4.89834 0)
(0.19363 4.89834 0)
(-0.0873919 4.89834 0)
(-0.345165 4.89834 0)
(-0.577652 4.89834 0)
(-0.78321 4.89834 0)
(-0.960606 4.89834 0)
(-1.10903 4.89834 0)
(-1.22808 4.89834 0)
(-1.31778 4.89834 0)
(-1.37858 4.89834 0)
(-1.4113 4.89834 0)
(-1.41713 4.89834 0)
(-1.39762 4.89834 0)
(-1.35463 4.89834 0)
(-1.2903 4.89834 0)
(-1.20701 4.89834 0)
(-1.10735 4.89834 0)
(-0.994055 4.89834 0)
(-0.869978 4.89834 0)
(-0.738034 4.89834 0)
(-0.60116 4.89834 0)
(-0.462264 4.89834 0)
(-0.324182 4.89834 0)
(-0.189636 4.89834 0)
(-0.0611947 4.89834 0)
(0.0587679 4.89834 0)
(0.168101 4.89834 0)
(0.264908 4.89834 0)
(0.347572 4.89834 0)
(0.414775 4.89834 0)
(0.465511 4.89834 0)
(0.499099 4.89834 0)
(0.515182 4.89834 0)
(0.51373 4.89834 0)
(0.495031 4.89834 0)
(0.459679 4.89834 0)
(0.408559 4.89834 0)
(0.342823 4.89834 0)
(0.263867 4.89834 0)
(0.173303 4.89834 0)
(0.0729222 4.89834 0)
(-0.0353339 4.89834 0)
(-0.149414 4.89834 0)
(-0.267195 4.89834 0)
(-0.386518 4.89834 0)
(-0.50523 4.89834 0)
(-0.621219 4.89834 0)
(-0.732455 4.89834 0)
(-0.837021 4.89834 0)
(-0.933149 4.89834 0)
(-1.01925 4.89834 0)
(-1.09393 4.89834 0)
(-1.15603 4.89834 0)
(-1.20463 4.89834 0)
(-1.23907 4.89834 0)
(-1.25897 4.89834 0)
(-1.2642 4.89834 0)
(-1.25492 4.89834 0)
(-1.23154 4.89834 0)
(-1.19474 4.89834 0)
(-1.14544 4.89834 0)
(-1.08479 4.89834 0)
(-1.01413 4.89834 0)
(-0.934977 4.89834 0)
(-0.849015 4.89834 0)
(-0.758026 4.89834 0)
(-0.663884 4.89834 0)
(-0.568511 4.89834 0)
(-0.473843 4.89834 0)
(-0.381797 4.89834 0)
(-0.294234 4.89834 0)
(-0.212925 4.89834 0)
(-0.139522 4.89834 0)
(-0.0755252 4.89834 0)
(-0.0222561 4.89834 0)
(0.0191648 4.89834 0)
(0.0478394 4.89834 0)
(0.063108 4.89834 0)
(0.0645616 4.89834 0)
(0.0520491 4.89834 0)
(0.0256811 4.89834 0)
(-0.0141725 4.89834 0)
(-0.0668882 4.89834 0)
(-0.1316 4.89834 0)
(-0.207213 4.89834 0)
(-0.292426 4.89834 0)
(-0.385751 4.89834 0)
(-0.485542 4.89834 0)
(-0.590021 4.89834 0)
(-0.697313 4.89834 0)
(-0.805481 4.89834 0)
(-0.912555 4.89834 0)
(-1.01657 4.89834 0)
(-1.11562 4.89834 0)
(-1.20784 4.89834 0)
(-1.29152 4.89834 0)
(-1.36506 4.89834 0)
(-1.42706 4.89834 0)
(-1.4763 4.89834 0)
(-1.5118 4.89834 0)
(-1.53283 4.89834 0)
(-1.5389 4.89834 0)
(-1.52983 4.89834 0)
(-1.50569 4.89834 0)
(-1.46685 4.89834 0)
(-1.41395 4.89834 0)
(-1.34792 4.89834 0)
(-1.26994 4.89834 0)
(-1.18144 4.89834 0)
(-1.08405 4.89834 0)
(-0.979634 4.89834 0)
(-0.870195 4.89834 0)
(-0.757881 4.89834 0)
(-0.644938 4.89834 0)
(-0.533668 4.89834 0)
(-0.426401 4.89834 0)
(-0.325442 4.89834 0)
(-0.23304 4.89834 0)
(-0.15134 4.89834 0)
(-0.0823507 4.89834 0)
(-0.0278996 4.89834 0)
(0.0103974 4.89834 0)
(0.0311708 4.89834 0)
(0.0333262 4.89834 0)
(0.0160698 4.89834 0)
(-0.0210713 4.89834 0)
(-0.0782332 4.89834 0)
(-0.155204 4.89834 0)
(-0.251419 4.89834 0)
(-0.365961 4.89834 0)
(-0.497566 4.89834 0)
(-0.644633 4.89834 0)
(-0.805246 4.89834 0)
(-0.977189 4.89834 0)
(-1.15798 4.89834 0)
(-1.3449 4.89834 0)
(-1.53502 4.89834 0)
(-1.72528 4.89834 0)
(-1.91246 4.89834 0)
(-2.0933 4.89834 0)
(-2.2645 4.89834 0)
(-2.4228 4.89834 0)
(-2.56499 4.89834 0)
(-2.68801 4.89834 0)
(-2.78895 4.89834 0)
(-2.86512 4.89834 0)
(-2.9141 4.89834 0)
(-2.93376 4.89834 0)
(-2.9223 4.89834 0)