/*--------------------------------*- C++ -*----------------------------------*\
| =========                 |                                                 |
| \\      /  F ield         | OpenFOAM: The Open Source CFD Toolbox           |
|  \\    /   O peration     | Version:  2106                                  |
|   \\  /    A nd           | Website:  www.openfoam.com                      |
|    \\/     M anipulation  |                                                 |
\*---------------------------------------------------------------------------*/
FoamFile
{
    version     2.0;
    format      ascii;
    arch        "LSB;label=32;scalar=64";
    class       volVectorField;
    location    "0.355";
    object      U;
}
// * * * * * * * * * * * * * * * * * * * * * * * * * * * * * * * * * * * * * //

dimensions      [0 1 -1 0 0 0 0];

internalField   nonuniform List<vector> 
11200
(
(0.662462403029 0.150569446063 0)
(0.558948662041 0.103243390056 0)
(0.383850709821 0.0513512255015 0)
(0.283747556319 0.0248708564459 0)
(0.232075220423 0.012417046361 0)
(0.20190852633 0.00662281794202 0)
(0.183197861595 0.00380291551965 0)
(0.171276405772 0.00231587117033 0)
(0.163510211397 0.00146450766883 0)
(0.158388662002 0.000944893536625 0)
(0.155006510055 0.000615178019176 0)
(0.152786541287 0.000402234935344 0)
(0.151346377021 0.000264233327896 0)
(0.150428125695 0.000175251175914 0)
(0.149856507236 0.000118361525603 0)
(0.149512292084 8.21605848445e-05 0)
(0.149314718268 5.88662240753e-05 0)
(0.149209343598 4.3315742485e-05 0)
(0.149159471806 3.29344069831e-05 0)
(0.149142219512 2.81860397173e-05 0)
(0.149144362509 2.76840864464e-05 0)
(0.149156624834 2.9889985554e-05 0)
(0.149172232743 3.30504782412e-05 0)
(0.149187766386 3.59661573382e-05 0)
(0.149201961203 3.86017576654e-05 0)
(0.149214217118 4.10409313534e-05 0)
(0.149224366273 4.33183033905e-05 0)
(0.149232515335 4.54649940263e-05 0)
(0.149238900796 4.7520256283e-05 0)
(0.149243804514 4.95311679763e-05 0)
(0.149247511506 5.15598123954e-05 0)
(0.149250289528 5.36968848734e-05 0)
(0.149252335675 5.60253580302e-05 0)
(0.149253820049 5.84067264975e-05 0)
(0.149254875999 6.07676152238e-05 0)
(0.149255589868 6.30884927402e-05 0)
(0.149256058464 6.53798754779e-05 0)
(0.149256366011 6.76544451073e-05 0)
(0.149256566157 6.99238929976e-05 0)
(0.149256688249 7.21942854363e-05 0)
(0.14925675317 7.44667209721e-05 0)
(0.149256778002 7.67422313301e-05 0)
(0.149256774739 7.90205043775e-05 0)
(0.149256751966 8.13003478462e-05 0)
(0.149256715845 8.35800625504e-05 0)
(0.149256671151 8.58572504151e-05 0)
(0.149256621934 8.81290680433e-05 0)
(0.149256572169 9.03927139765e-05 0)
(0.149256526509 9.26451016039e-05 0)
(0.149256490161 9.48831566751e-05 0)
(0.149256469871 9.71036265417e-05 0)
(0.149256475313 9.93035417026e-05 0)
(0.149256519754 0.000101479958725 0)
(0.149256621597 0.000103629444787 0)
(0.149256806717 0.000105747594605 0)
(0.149257111351 0.000107828815095 0)
(0.149257586694 0.000109865982161 0)
(0.149258308143 0.000111849271274 0)
(0.149259385168 0.000113766116616 0)
(0.149260976129 0.00011559162096 0)
(0.149263329006 0.000117269440068 0)
(0.14926685146 0.000118716923943 0)
(0.149272010722 0.000119974412819 0)
(0.149279455232 0.000121235279895 0)
(0.149290218097 0.000122963498647 0)
(0.149305820283 0.000125337444997 0)
(0.14932864888 0.000128117626131 0)
(0.149362398558 0.000131078442226 0)
(0.149412661684 0.000134004777548 0)
(0.149487667658 0.000136783299872 0)
(0.149599352375 0.000140691726499 0)
(0.149770551189 0.000151554486573 0)
(0.150039027049 0.00017227887879 0)
(0.150467931305 0.000202528393147 0)
(0.151193058535 0.000232453482309 0)
(0.15249204145 0.000191654675375 0)
(0.155021007289 -0.000216761759153 0)
(0.162374214943 -0.00211001729965 0)
(0.187702060488 -0.0107881790299 0)
(0.204357654286 -0.0496578092302 0)
(0.965408251322 0.289214710334 0)
(0.961962839832 0.252656041087 0)
(0.823574348206 0.15902144186 0)
(0.698139303978 0.0959957310862 0)
(0.610225377965 0.0582481138539 0)
(0.548971384491 0.0362148528599 0)
(0.506588759694 0.0231612848372 0)
(0.477567117119 0.0151375151107 0)
(0.457745316676 0.0100177550489 0)
(0.444228262094 0.0066581411497 0)
(0.435053076283 0.00441555627332 0)
(0.428872872208 0.00290686580262 0)
(0.424753932323 0.00189105821388 0)
(0.422046358943 0.0012100448265 0)
(0.420297498751 0.000757162431261 0)
(0.419192867157 0.000459254285551 0)
(0.418515240272 0.000265852576052 0)
(0.418116072578 0.000142396845533 0)
(0.417895449479 6.61063366672e-05 0)
(0.417786380105 2.30888611248e-05 0)
(0.41774494832 1.40397341553e-06 0)
(0.417741654858 -1.01669017344e-05 0)
(0.417756237655 -1.37181776033e-05 0)
(0.417778182642 -1.32713892111e-05 0)
(0.417802464333 -1.08389242178e-05 0)
(0.417825823209 -7.49564445671e-06 0)
(0.417846565698 -3.87912460852e-06 0)
(0.417864092844 -3.59479090749e-07 0)
(0.417878408308 2.86181326291e-06 0)
(0.41788982735 5.68086172761e-06 0)
(0.417898821459 8.03369444749e-06 0)
(0.417905884582 9.83607044955e-06 0)
(0.417911218954 1.10050784608e-05 0)
(0.41791505802 1.1857707397e-05 0)
(0.417917780444 1.26794388558e-05 0)
(0.417919661377 1.34356108046e-05 0)
(0.417920942713 1.41092036418e-05 0)
(0.417921816206 1.4724067241e-05 0)
(0.417922408204 1.53092201654e-05 0)
(0.417922790406 1.58781845411e-05 0)
(0.417923015502 1.64313683007e-05 0)
(0.417923126772 1.69739382396e-05 0)
(0.417923154851 1.75096378539e-05 0)
(0.41792312222 1.80416391424e-05 0)
(0.417923044989 1.85729550828e-05 0)
(0.4179229353 1.91061016874e-05 0)
(0.41792280373 1.96427759203e-05 0)
(0.417922660708 2.01851102452e-05 0)
(0.417922518064 2.07352662091e-05 0)
(0.417922389456 2.12952916669e-05 0)
(0.417922292692 2.18651030204e-05 0)
(0.41792225268 2.24447128493e-05 0)
(0.417922303179 2.3034120516e-05 0)
(0.417922490632 2.36329667372e-05 0)
(0.417922880425 2.42404447591e-05 0)
(0.417923565209 2.48558941344e-05 0)
(0.41792467675 2.54765119143e-05 0)
(0.417926409383 2.60906929845e-05 0)
(0.417929041154 2.6681456043e-05 0)
(0.417932961535 2.7217834525e-05 0)
(0.417938775616 2.76492558955e-05 0)
(0.417947581335 2.79282764708e-05 0)
(0.41796086402 2.82152342649e-05 0)
(0.417980764336 2.77572449196e-05 0)
(0.418010044561 2.51429812437e-05 0)
(0.418052311714 1.931033527e-05 0)
(0.41811375952 9.45175603911e-06 0)
(0.418204505192 -5.96636358259e-06 0)
(0.418340147702 -2.94678119255e-05 0)
(0.418545578124 -6.4732679874e-05 0)
(0.418862686724 -0.00011595166112 0)
(0.419361062427 -0.000188093617013 0)
(0.420154161073 -0.000307862427405 0)
(0.421445621472 -0.000532819844128 0)
(0.42362705659 -0.000999779012177 0)
(0.42741710028 -0.00209041518458 0)
(0.434237797736 -0.00485622608348 0)
(0.448263915701 -0.012253619901 0)
(0.474642277292 -0.0342408644359 0)
(0.478163064433 -0.0987676188195 0)
(1.02222096138 0.238416185909 0)
(1.08213750851 0.295926650772 0)
(1.03447718174 0.239503063904 0)
(0.954615343052 0.174290161383 0)
(0.879991968178 0.121345464987 0)
(0.818614326573 0.0830993805667 0)
(0.771410719844 0.0567316635847 0)
(0.736634238201 0.0387409650792 0)
(0.711624258425 0.0264327836367 0)
(0.693916425043 0.0179731013744 0)
(0.681541193834 0.0121424446266 0)
(0.672999879943 0.00812490482725 0)
(0.66718039341 0.00536631753098 0)
(0.663271401925 0.00348444096661 0)
(0.660688209153 0.00221255729612 0)
(0.659013863335 0.00136337706505 0)
(0.657954161151 0.000805238491988 0)
(0.6573038474 0.000445910845044 0)
(0.656921408683 0.000221062378856 0)
(0.656709823751 8.5574750879e-05 0)
(0.656602940735 8.35132096625e-06 0)
(0.656561373993 -3.37264326673e-05 0)
(0.656557456542 -5.68607626742e-05 0)
(0.656570915656 -6.68795310893e-05 0)
(0.656592429376 -6.84866310511e-05 0)
(0.65661623399 -6.55649182461e-05 0)
(0.656639021955 -6.05536978329e-05 0)
(0.656659186148 -5.48636543451e-05 0)
(0.65667614111 -4.92793021733e-05 0)
(0.656689864833 -4.42076677151e-05 0)
(0.656700603857 -3.98436692675e-05 0)
(0.65670874189 -3.63054218009e-05 0)
(0.656714974978 -3.36996444593e-05 0)
(0.656719993765 -3.18608203644e-05 0)
(0.656723842103 -3.08136691036e-05 0)
(0.656726535903 -3.03069053166e-05 0)
(0.656728386611 -3.02516318763e-05 0)
(0.65672967353 -3.0562910576e-05 0)
(0.656730564271 -3.10908397501e-05 0)
(0.656731148857 -3.17529767883e-05 0)
(0.656731501592 -3.25198655759e-05 0)
(0.656731687741 -3.33563671034e-05 0)
(0.656731752405 -3.42377559184e-05 0)
(0.656731729492 -3.51448216508e-05 0)
(0.656731643777 -3.60627143055e-05 0)
(0.656731513626 -3.69803425256e-05 0)
(0.656731355063 -3.7890083127e-05 0)
(0.656731184221 -3.87862626146e-05 0)
(0.656731018642 -3.96642263818e-05 0)
(0.656730876654 -4.05185831619e-05 0)
(0.656730782468 -4.13462448524e-05 0)
(0.656730771769 -4.21430954826e-05 0)
(0.65673089357 -4.29074136481e-05 0)
(0.656731216217 -4.36425531848e-05 0)
(0.656731836951 -4.43622321399e-05 0)
(0.656732892339 -4.50971077993e-05 0)
(0.656734571152 -4.5903326297e-05 0)
(0.656737152336 -4.6874958855e-05 0)
(0.656741044956 -4.81374145818e-05 0)
(0.656746845985 -4.99112561718e-05 0)
(0.656755492027 -5.27090858847e-05 0)
(0.656768632287 -5.7526973308e-05 0)
(0.656787574356 -6.51743977901e-05 0)
(0.65681376225 -7.65109680713e-05 0)
(0.656851052107 -9.32355809731e-05 0)
(0.65690615262 -0.000117740402793 0)
(0.656988437237 -0.000153228482869 0)
(0.65711169763 -0.000204987656242 0)
(0.657297749288 -0.000281537432333 0)
(0.657581983771 -0.000396751541441 0)
(0.658022526377 -0.000574977679187 0)
(0.658708565465 -0.000863478116008 0)
(0.659787144403 -0.00135231948251 0)
(0.661515783625 -0.00221460618015 0)
(0.664336612894 -0.00381285351893 0)
(0.668945329537 -0.0069458064057 0)
(0.676367724621 -0.0133520049289 0)
(0.688611492449 -0.0268423223022 0)
(0.705235415743 -0.056317086405 0)
(0.700486656978 -0.113078866064 0)
(1.02251475011 0.170807150033 0)
(1.10138973539 0.276496476381 0)
(1.11752421603 0.266664796766 0)
(1.09214653886 0.219901695984 0)
(1.05187806761 0.168168844159 0)
(1.0102081135 0.123567392879 0)
(0.973494556765 0.0888375175942 0)
(0.943864398389 0.0630063675611 0)
(0.921142618136 0.0442232001343 0)
(0.904283867395 0.0307423888329 0)
(0.892074639771 0.0211562902399 0)
(0.883404258236 0.0143954646347 0)
(0.877352395218 0.00966794420636 0)
(0.873197409668 0.00639383294537 0)
(0.87039261058 0.00415116017167 0)
(0.868533699784 0.0026344857224 0)
(0.867327281252 0.00162401162254 0)
(0.866563856978 0.000962669727173 0)
(0.866096079122 0.000539115767659 0)
(0.865821817232 0.000275146790309 0)
(0.865670954672 0.000117061698938 0)
(0.865594686285 2.87862427013e-05 0)
(0.865563611583 -1.93304988165e-05 0)
(0.865560787805 -4.12664597648e-05 0)
(0.865572116863 -4.76701737944e-05 0)
(0.865589109146 -4.55291654557e-05 0)
(0.865607405404 -3.91592364209e-05 0)
(0.865624731422 -3.11478989709e-05 0)
(0.865640003205 -2.29663279551e-05 0)
(0.86565285363 -1.53821234749e-05 0)
(0.865663314265 -8.72440722563e-06 0)
(0.865671588479 -3.04589631522e-06 0)
(0.865677929459 1.73241338391e-06 0)
(0.865682545056 5.46338785078e-06 0)
(0.86568585221 8.03086243471e-06 0)
(0.865688238774 9.7881813304e-06 0)
(0.865689860076 1.11413915199e-05 0)
(0.865691012167 1.22856296205e-05 0)
(0.86569187103 1.32537147901e-05 0)
(0.86569245501 1.41395112903e-05 0)
(0.865692812258 1.49339765754e-05 0)
(0.865693007484 1.56595437692e-05 0)
(0.865693079546 1.63318179866e-05 0)
(0.86569305937 1.69678696066e-05 0)
(0.865692969379 1.7582097353e-05 0)
(0.865692826079 1.81843875596e-05 0)
(0.865692644575 1.87824219699e-05 0)
(0.865692441421 1.9382234027e-05 0)
(0.865692237477 1.99916654273e-05 0)
(0.865692055656 2.06208721658e-05 0)
(0.865691926339 2.12545357728e-05 0)
(0.865691891595 2.18795547112e-05 0)
(0.865692004719 2.24792350136e-05 0)
(0.86569233565 2.30275040838e-05 0)
(0.865692978774 2.34883702174e-05 0)
(0.865694065419 2.38274662022e-05 0)
(0.865695780882 2.40020609574e-05 0)
(0.865698418001 2.38951116879e-05 0)
(0.865702380644 2.33610153276e-05 0)
(0.865708084562 2.19852185976e-05 0)
(0.865716006167 1.92025742405e-05 0)
(0.865727762213 1.4301989283e-05 0)
(0.865745938607 5.45952003369e-06 0)
(0.865773507166 -8.90947144161e-06 0)
(0.865814335645 -3.08050847926e-05 0)
(0.865874347225 -6.41894106536e-05 0)
(0.865962880248 -0.000115935315824 0)
(0.866094446271 -0.000196801424688 0)
(0.866291591723 -0.000324044041262 0)
(0.86658912997 -0.000526132428224 0)
(0.867040655348 -0.000852004457341 0)
(0.867731217556 -0.00138858244195 0)
(0.868797140188 -0.00228461286213 0)
(0.870451633484 -0.00381464585755 0)
(0.873013510556 -0.00650286653576 0)
(0.876881548743 -0.0113585801863 0)
(0.882378072678 -0.0202506881361 0)
(0.889686031907 -0.0364495854694 0)
(0.89636008966 -0.0654867236358 0)
(0.886529764914 -0.110034314781 0)
(1.01287874611 0.118961020797 0)
(1.08820668473 0.231806935102 0)
(1.13741362429 0.25310676292 0)
(1.15409079836 0.228992751536 0)
(1.14994201759 0.188368356506 0)
(1.13538454052 0.146579841356 0)
(1.11758881068 0.110150962832 0)
(1.10059484136 0.0808162190728 0)
(1.08612438722 0.0582265732244 0)
(1.07459071726 0.0413189817009 0)
(1.06579123634 0.0289160168123 0)
(1.05928773563 0.0199600964276 0)
(1.0545994877 0.0135815563443 0)
(1.05129046699 0.0090974390956 0)
(1.04899952688 0.00598614950326 0)
(1.04744306181 0.0038569615602 0)
(1.046406167 0.00242159271501 0)
(1.04573023091 0.00147014464605 0)
(1.04530065536 0.000851696332996 0)
(1.04503613869 0.000459010807195 0)
(1.04487975738 0.000216751595588 0)
(1.04479212335 7.30129853029e-05 0)
(1.0447482416 -5.50825613867e-06 0)
(1.04473132672 -4.40120390885e-05 0)
(1.04472906145 -5.9388738176e-05 0)
(1.04473453154 -6.1721939363e-05 0)
(1.04474346596 -5.7247869399e-05 0)
(1.04475333655 -4.98054922512e-05 0)
(1.04476276366 -4.16460166281e-05 0)
(1.04477107699 -3.39903729897e-05 0)
(1.04477802616 -2.74249218176e-05 0)
(1.04478359864 -2.21530846534e-05 0)
(1.04478794056 -1.81293607849e-05 0)
(1.04479126338 -1.51410979765e-05 0)
(1.04479382184 -1.28105323938e-05 0)
(1.0447959091 -1.1014634095e-05 0)
(1.04479763704 -9.52647377757e-06 0)
(1.04479895146 -8.23772368402e-06 0)
(1.04479992248 -7.21962265505e-06 0)
(1.04480060094 -6.55135592249e-06 0)
(1.0448010082 -6.17226414304e-06 0)
(1.04480123149 -5.96386908359e-06 0)
(1.04480131702 -5.8763976832e-06 0)
(1.04480130281 -5.85985355689e-06 0)
(1.04480121301 -5.8733709482e-06 0)
(1.04480106548 -5.89787969278e-06 0)
(1.04480087784 -5.92338965528e-06 0)
(1.04480067135 -5.9455321183e-06 0)
(1.0448004727 -5.96776356217e-06 0)
(1.04480028783 -6.00320375107e-06 0)
(1.04480013135 -6.03480653201e-06 0)
(1.04480004917 -6.06052300812e-06 0)
(1.04480009609 -6.08693093729e-06 0)
(1.04480034774 -6.12932828009e-06 0)
(1.04480092731 -6.22713417153e-06 0)
(1.044802013 -6.49687779264e-06 0)
(1.04480379324 -7.1975795947e-06 0)
(1.04480656359 -8.60717339746e-06 0)
(1.04481063376 -1.12173744262e-05 0)
(1.04481647502 -1.504952416e-05 0)
(1.04482510101 -1.99848949384e-05 0)
(1.04483766416 -2.62199698654e-05 0)
(1.04485545821 -3.6030096768e-05 0)
(1.04488078367 -5.2398994029e-05 0)
(1.04491710996 -7.95414473966e-05 0)
(1.04496959024 -0.000123702113299 0)
(1.04504582717 -0.00019464916966 0)
(1.04515716739 -0.000307959160378 0)
(1.0453207543 -0.000488793164486 0)
(1.045562446 -0.00077816776916 0)
(1.0459209136 -0.00124339095103 0)
(1.04645399859 -0.00199608643892 0)
(1.04724579391 -0.0032267650596 0)
(1.04840921078 -0.00526615887831 0)
(1.05007151034 -0.00869103081579 0)
(1.0522892902 -0.0144949868328 0)
(1.05481849787 -0.0242848410314 0)
(1.05686953093 -0.0403702101882 0)
(1.05573673282 -0.0655900548165 0)
(1.04212315079 -0.0994471745201 0)
(1.00447482946 0.0814039948482 0)
(1.06917234935 0.181288537328 0)
(1.13080563913 0.216950417309 0)
(1.1737499344 0.21078915375 0)
(1.19865256086 0.183690074627 0)
(1.21019976717 0.149751680687 0)
(1.21350242248 0.116779141122 0)
(1.21251708302 0.0882206745929 0)
(1.20973080288 0.0650481473421 0)
(1.20651099335 0.0470209050354 0)
(1.2035189075 0.0334068044251 0)
(1.20101120375 0.0233557282 0)
(1.19903418067 0.0160720092426 0)
(1.19753848664 0.0108795088186 0)
(1.1964409997 0.00723418284149 0)
(1.19565524895 0.0047135129863 0)
(1.19510453172 0.00299762341773 0)
(1.19472609797 0.00184915516335 0)
(1.19447109688 0.00109495489134 0)
(1.19430276715 0.000610606188847 0)
(1.19419410917 0.000307981931234 0)
(1.19412580669 0.0001257645412 0)
(1.19408473994 2.22198075533e-05 0)
(1.19406146494 -3.24547416222e-05 0)
(1.19404914903 -5.72728590121e-05 0)
(1.19404363505 -6.45980319637e-05 0)
(1.19404212206 -6.2375605062e-05 0)
(1.19404279143 -5.55205187009e-05 0)
(1.19404452757 -4.69432859976e-05 0)
(1.19404667221 -3.82574156939e-05 0)
(1.19404885285 -3.02638010465e-05 0)
(1.19405087767 -2.32674962183e-05 0)
(1.19405267749 -1.72917961015e-05 0)
(1.19405424689 -1.22633551373e-05 0)
(1.19405560242 -8.07595750951e-06 0)
(1.19405676315 -4.67519962952e-06 0)
(1.19405770178 -2.06458558135e-06 0)
(1.19405836528 -1.75511192845e-07 0)
(1.19405871351 1.14149806318e-06 0)
(1.19405882182 1.99621883896e-06 0)
(1.19405887122 2.67290893308e-06 0)
(1.1940588979 3.27413664902e-06 0)
(1.19405887612 3.79985487237e-06 0)
(1.19405882321 4.25801403833e-06 0)
(1.19405873357 4.66122329241e-06 0)
(1.19405859837 5.02652794733e-06 0)
(1.19405842137 5.36603585156e-06 0)
(1.19405820979 5.68292700758e-06 0)
(1.19405797251 5.9683379688e-06 0)
(1.19405775145 6.20522145037e-06 0)
(1.19405759417 6.41765625747e-06 0)
(1.19405753026 6.59916991183e-06 0)
(1.1940576081 6.72297212185e-06 0)
(1.19405788445 6.74784522185e-06 0)
(1.19405839184 6.61315805691e-06 0)
(1.19405911176 6.22678396728e-06 0)
(1.19406013601 5.44189394874e-06 0)
(1.19406161953 3.86312734805e-06 0)
(1.19406424574 1.09479922675e-06 0)
(1.1940690399 -3.16450314683e-06 0)
(1.19407651493 -9.69442108121e-06 0)
(1.19408661408 -1.98704841529e-05 0)
(1.19410011328 -3.57133932381e-05 0)
(1.19411900249 -6.01418254659e-05 0)
(1.19414540867 -9.7737205359e-05 0)
(1.19418215561 -0.00015581648699 0)
(1.19423323552 -0.000246025390458 0)
(1.19430428288 -0.000386842087568 0)
(1.19440318323 -0.00060772245944 0)
(1.19454071409 -0.000955996282768 0)
(1.19473091923 -0.00150817072129 0)
(1.19499057011 -0.00238851684284 0)
(1.19533447759 -0.00380024478383 0)
(1.19575989201 -0.00607625888887 0)
(1.19620647256 -0.00975535920252 0)
(1.19645448015 -0.0156812904757 0)
(1.19591710127 -0.0250648510759 0)
(1.19343984174 -0.0393615654997 0)
(1.18668769901 -0.0598143009796 0)
(1.17014242477 -0.0851129400875 0)
(0.99896232031 0.0544316227075 0)
(1.05310954411 0.133401606222 0)
(1.11628263395 0.17077755697 0)
(1.17301264959 0.175143870413 0)
(1.21791237111 0.159583604282 0)
(1.25049846578 0.134951017691 0)
(1.27288477612 0.108411654143 0)
(1.28776706355 0.0838849688899 0)
(1.29745249963 0.0630565691818 0)
(1.30366054748 0.0462999179853 0)
(1.30759211806 0.0333205112176 0)
(1.3100534536 0.0235495202098 0)
(1.31157335553 0.0163599036793 0)
(1.31249463659 0.0111713106908 0)
(1.31303830842 0.00749150180763 0)
(1.31334637945 0.00492448055072 0)
(1.31350977346 0.00316294945054 0)
(1.3135863842 0.0019747457702 0)
(1.31361274209 0.00118819067538 0)
(1.31361157497 0.000678623188984 0)
(1.31359672073 0.000357002713583 0)
(1.31357638408 0.000160748921653 0)
(1.31355537531 4.6464708337e-05 0)
(1.31353606643 -1.58732250467e-05 0)
(1.31351939577 -4.60609788744e-05 0)
(1.31350569479 -5.70702473067e-05 0)
(1.31349477845 -5.73242443507e-05 0)
(1.3134863095 -5.20851754759e-05 0)
(1.3134798997 -4.45224677275e-05 0)
(1.31347516387 -3.64606411572e-05 0)
(1.31347175084 -2.88725982663e-05 0)
(1.31346935775 -2.22117417074e-05 0)
(1.31346772508 -1.66295936186e-05 0)
(1.31346662468 -1.21333330768e-05 0)
(1.31346589137 -8.65748475151e-06 0)
(1.31346542786 -6.10038187354e-06 0)
(1.31346513314 -4.32484676562e-06 0)
(1.31346491774 -3.1235149162e-06 0)
(1.31346477856 -2.26710286071e-06 0)
(1.31346480178 -1.5512682895e-06 0)
(1.31346495057 -9.76448136084e-07 0)
(1.31346504654 -5.644961071e-07 0)
(1.31346503833 -2.06401860945e-07 0)
(1.31346495796 1.26677640022e-07 0)
(1.31346482723 4.33287125633e-07 0)
(1.31346465808 7.22836420583e-07 0)
(1.31346445402 1.00686089645e-06 0)
(1.31346421795 1.29514885521e-06 0)
(1.31346395994 1.59743542977e-06 0)
(1.31346371374 1.9175094976e-06 0)
(1.31346350279 2.20500124799e-06 0)
(1.3134633346 2.42079364586e-06 0)
(1.3134632396 2.52017215977e-06 0)
(1.31346327105 2.43914244883e-06 0)
(1.31346351818 2.0925847551e-06 0)
(1.31346410082 1.3946352329e-06 0)
(1.31346497928 2.91469906338e-07 0)
(1.31346626457 -1.39341803438e-06 0)
(1.31346837969 -3.90487475638e-06 0)
(1.31347152464 -7.9717781807e-06 0)
(1.31347591496 -1.48741140449e-05 0)
(1.31348178298 -2.61794001933e-05 0)
(1.31348940802 -4.34842296463e-05 0)
(1.31349927742 -6.99647988235e-05 0)
(1.31351171088 -0.000110649825207 0)
(1.31352679439 -0.000173285586394 0)
(1.31354415094 -0.000269954058131 0)
(1.31356247467 -0.000419608481224 0)
(1.3135785821 -0.000652060262964 0)
(1.31358557548 -0.00101452259721 0)
(1.31356941009 -0.00158198622544 0)
(1.31350266815 -0.00247347332365 0)
(1.31333115199 -0.0038761915452 0)
(1.31294733344 -0.00608243772697 0)
(1.31214128579 -0.0095365942762 0)
(1.31050777583 -0.014880035301 0)
(1.30729366305 -0.0229407851606 0)
(1.30128968644 -0.0345588999009 0)
(1.29062868494 -0.050171414885 0)
(1.27183963658 -0.0685514615437 0)
(0.995736068793 0.0346338573682 0)
(1.0417951201 0.0905689197993 0)
(1.10222834086 0.121549563726 0)
(1.1649140499 0.129605832519 0)
(1.2220255766 0.122009266531 0)
(1.26951881294 0.106019936218 0)
(1.30680210947 0.0870975536396 0)
(1.3349952041 0.0686366785278 0)
(1.35574460407 0.0523698362463 0)
(1.37069597603 0.0389256148747 0)
(1.38128254257 0.028298069974 0)
(1.38866244305 0.0201712733671 0)
(1.39373007797 0.0141175061545 0)
(1.3971563308 0.00970533126445 0)
(1.39943405144 0.00655059001394 0)
(1.40091935287 0.0043344489714 0)
(1.40186587933 0.00280413894914 0)
(1.40245188069 0.00176573707032 0)
(1.40280095989 0.00107418925953 0)
(1.4029976392 0.000623229546882 0)
(1.40309884398 0.000336404271278 0)
(1.403142282 0.00015961880899 0)
(1.40315252828 5.51605648362e-05 0)
(1.40314502611 -3.00088865215e-06 0)
(1.40312925415 -3.21245707073e-05 0)
(1.40311083998 -4.3891246213e-05 0)
(1.40309279069 -4.57607017759e-05 0)
(1.40307663069 -4.24182111415e-05 0)
(1.40306296138 -3.67272329367e-05 0)
(1.40305185646 -3.03645492451e-05 0)
(1.40304311421 -2.42447664715e-05 0)
(1.40303640939 -1.88148373896e-05 0)
(1.40303138073 -1.42433697153e-05 0)
(1.40302767839 -1.05322766575e-05 0)
(1.40302500459 -7.58102239608e-06 0)
(1.40302312722 -5.26482272538e-06 0)
(1.40302186984 -3.46095372156e-06 0)
(1.40302108196 -2.02574767342e-06 0)
(1.40302059849 -8.54281931653e-07 0)
(1.4030202246 7.68196147217e-08 0)
(1.4030198924 7.85239229224e-07 0)
(1.40301968323 1.27384860676e-06 0)
(1.40301958391 1.64453096394e-06 0)
(1.40301950331 1.96266597435e-06 0)
(1.40301940722 2.26530233317e-06 0)
(1.40301928827 2.57070991356e-06 0)
(1.40301914491 2.88823916699e-06 0)
(1.40301897927 3.22250328871e-06 0)
(1.40301879312 3.57389288785e-06 0)
(1.40301857961 3.93307997038e-06 0)
(1.40301835 4.25832023312e-06 0)
(1.40301813801 4.5174116385e-06 0)
(1.40301797209 4.67192711794e-06 0)
(1.40301787715 4.66393254835e-06 0)
(1.40301786953 4.405148606e-06 0)
(1.40301795596 3.75207118827e-06 0)
(1.40301815017 2.50073408215e-06 0)
(1.40301844508 5.32626748787e-07 0)
(1.40301907334 -2.5727160921e-06 0)
(1.40302022042 -7.58188811578e-06 0)
(1.40302173322 -1.52933765718e-05 0)
(1.40302328402 -2.70292475199e-05 0)
(1.40302440198 -4.46431943894e-05 0)
(1.40302434544 -7.11206989873e-05 0)
(1.40302162558 -0.000111050499811 0)
(1.40301350546 -0.000171461535974 0)
(1.40299518262 -0.00026322739127 0)
(1.40295847698 -0.000403217583303 0)
(1.40288945572 -0.000617487352059 0)
(1.40276441003 -0.000946642448575 0)
(1.4025433178 -0.00145400482344 0)
(1.40215984723 -0.00223798447131 0)
(1.40150247452 -0.00344760930043 0)
(1.40038289064 -0.0053065778869 0)
(1.39848786364 -0.00813765977542 0)
(1.39530432383 -0.0123756011329 0)
(1.39001931822 -0.0185312915715 0)
(1.38148490407 -0.0270423904839 0)
(1.36820535115 -0.0379906157456 0)
(1.34778908825 -0.0504837457828 0)
(0.994011525968 0.0192358038072 0)
(1.03484761198 0.0523338387814 0)
(1.09199257997 0.072363125844 0)
(1.15662413211 0.0791292300675 0)
(1.2203210753 0.0761045441084 0)
(1.27701934412 0.0673339690753 0)
(1.32424405983 0.0561509009849 0)
(1.36181558605 0.0447990083363 0)
(1.39068513706 0.0345303747631 0)
(1.41226055791 0.0258814294238 0)
(1.42801800785 0.0189465206902 0)
(1.43929860508 0.0135849784148 0)
(1.44722781652 0.00955653011337 0)
(1.45270385081 0.00660011068283 0)
(1.456418655 0.00447418498732 0)
(1.45889112071 0.00297350784182 0)
(1.46050196636 0.00193276294846 0)
(1.46152534493 0.00122368822428 0)
(1.46215534325 0.000749545391119 0)
(1.46252715144 0.000439013172136 0)
(1.46273341294 0.000240517234451 0)
(1.46283654107 0.000117408735784 0)
(1.46287782985 4.40469996842e-05 0)
(1.46288405561 2.68940215901e-06 0)
(1.4628719183 -1.84450449504e-05 0)
(1.46285155458 -2.74381207865e-05 0)
(1.46282899117 -2.94373713921e-05 0)
(1.46280744082 -2.76870342846e-05 0)
(1.46278843121 -2.41848900454e-05 0)
(1.46277250673 -2.01121283614e-05 0)
(1.46275965869 -1.61174430978e-05 0)
(1.46274959289 -1.25234889902e-05 0)
(1.46274189864 -9.45696550265e-06 0)
(1.46273614382 -6.92866165437e-06 0)
(1.46273192983 -4.8848227938e-06 0)
(1.46272891455 -3.25613751012e-06 0)
(1.4627268099 -1.97959626737e-06 0)
(1.46272535907 -1.01407674692e-06 0)
(1.46272434999 -3.14576290868e-07 0)
(1.46272371802 2.06485448211e-07 0)
(1.46272335062 6.86635320489e-07 0)
(1.46272309861 1.1607545057e-06 0)
(1.46272292857 1.58373872602e-06 0)
(1.46272280081 1.96256596006e-06 0)
(1.46272268636 2.3178977679e-06 0)
(1.46272256627 2.66292172544e-06 0)
(1.46272242717 3.00298458805e-06 0)
(1.46272226046 3.33608612256e-06 0)
(1.4627220618 3.65265432508e-06 0)
(1.46272182883 3.93960713393e-06 0)
(1.46272156479 4.18872787855e-06 0)
(1.46272127758 4.36855039838e-06 0)
(1.46272097448 4.4279861555e-06 0)
(1.46272066582 4.29669756952e-06 0)
(1.46272036844 3.88376895759e-06 0)
(1.46272010445 3.07992866917e-06 0)
(1.46271984058 1.76487921146e-06 0)
(1.46271948895 -1.85391585881e-07 0)
(1.46271891765 -3.01003847023e-06 0)
(1.46271798749 -7.57946601137e-06 0)
(1.46271642901 -1.46760986334e-05 0)
(1.46271356403 -2.53955444436e-05 0)
(1.46270827504 -4.1283339443e-05 0)
(1.46269875517 -6.47220672335e-05 0)
(1.46268194306 -9.93123475822e-05 0)
(1.46265269974 -0.000150444778342 0)
(1.46260251878 -0.000226303131954 0)
(1.46251764496 -0.000339353991626 0)
(1.46237561588 -0.000508202864791 0)
(1.4621395911 -0.000761266187929 0)
(1.46174961469 -0.00114229692154 0)
(1.46111110016 -0.00171893874603 0)
(1.46007294706 -0.00258691922002 0)
(1.45839419139 -0.00388577342445 0)
(1.4557009345 -0.00580787735673 0)
(1.45142782169 -0.00859633468918 0)
(1.44475454285 -0.0125112766463 0)
(1.43461214041 -0.0177331214429 0)
(1.41974132212 -0.0242101033492 0)
(1.39829647335 -0.0313962319431 0)
(0.993269661935 0.00617014800807 0)
(1.03158097591 0.0171020443299 0)
(1.08672177086 0.023990646865 0)
(1.1517454764 0.0265606638132 0)
(1.21823527423 0.0258180567429 0)
(1.27925763206 0.0230488839476 0)
(1.3314012294 0.0193656291934 0)
(1.3737758361 0.0155468555568 0)
(1.40691036168 0.0120449276152 0)
(1.43203294072 0.00906639688656 0)
(1.45060193379 0.00666059158936 0)
(1.46402962078 0.00479008792296 0)
(1.47354990164 0.00337842435089 0)
(1.4801753537 0.0023387337976 0)
(1.48470198726 0.00158890938741 0)
(1.48773588461 0.00105828431067 0)
(1.48972700414 0.000689458302762 0)
(1.4910024169 0.000437634276175 0)
(1.49179548064 0.000268882120848 0)
(1.49226983594 0.00015810811348 0)
(1.49253831363 8.71223718732e-05 0)
(1.49267737685 4.29733724142e-05 0)
(1.49273789783 1.65842405848e-05 0)
(1.49275305968 1.66452866285e-06 0)
(1.49274381101 -6.06722437107e-06 0)
(1.49272301142 -9.41159620094e-06 0)
(1.49269835581 -1.02170929334e-05 0)
(1.49267407207 -9.65337964776e-06 0)
(1.49265225752 -8.43920314206e-06 0)
(1.49263375362 -6.99250091179e-06 0)
(1.49261868318 -5.55340934174e-06 0)
(1.49260678413 -4.242014321e-06 0)
(1.49259762684 -3.10575745149e-06 0)
(1.4925907359 -2.15080029154e-06 0)
(1.49258565737 -1.36094724229e-06 0)
(1.49258199123 -7.14446999941e-07 0)
(1.49257940196 -1.89942605572e-07 0)
(1.49257761964 2.34468835376e-07 0)
(1.4925764386 6.04965217789e-07 0)
(1.49257568143 9.73425069898e-07 0)
(1.49257519404 1.27802474602e-06 0)
(1.49257488456 1.56186593489e-06 0)
(1.4925746954 1.84205471016e-06 0)
(1.49257457359 2.12934329462e-06 0)
(1.49257448008 2.43091571256e-06 0)
(1.4925743887 2.74939056983e-06 0)
(1.49257428096 3.08400241245e-06 0)
(1.49257414355 3.43047129058e-06 0)
(1.49257396651 3.78021968168e-06 0)
(1.49257374124 4.11895356212e-06 0)
(1.49257346214 4.42650215643e-06 0)
(1.49257312552 4.67035349186e-06 0)
(1.49257272492 4.80539899051e-06 0)
(1.49257224893 4.77015311638e-06 0)
(1.49257167646 4.4797647717e-06 0)
(1.49257098169 3.81558230815e-06 0)
(1.49257015015 2.62583283398e-06 0)
(1.49256904316 8.25971366556e-07 0)
(1.49256724556 -1.82274815675e-06 0)
(1.49256446174 -5.95005524291e-06 0)
(1.49256029659 -1.20857632095e-05 0)
(1.49255372444 -2.1003269239e-05 0)
(1.49254313404 -3.37908344159e-05 0)
(1.49252598323 -5.20019386965e-05 0)
(1.49249815959 -7.78360892853e-05 0)
(1.49245296163 -0.000114319020966 0)
(1.49237951757 -0.000165829884421 0)
(1.49226076465 -0.000238855082884 0)
(1.49206933536 -0.000341888081755 0)
(1.49176061058 -0.000487479867913 0)
(1.49126231339 -0.000695850997087 0)
(1.49046572314 -0.00100068217139 0)
(1.48920142844 -0.00143436928976 0)
(1.48720355655 -0.00204444190604 0)
(1.48407366693 -0.00289226084951 0)
(1.47923193482 -0.00404530657764 0)
(1.47187150653 -0.00555785031996 0)
(1.46097883873 -0.00743140096046 0)
(1.44540666402 -0.00957194510546 0)
(1.42354539569 -0.0117310257391 0)
(0.993270459734 -0.00616840409209 0)
(1.0315809584 -0.017100377881 0)
(1.08672170434 -0.0239897638743 0)
(1.15174551382 -0.0265602494352 0)
(1.21823535175 -0.0258179957685 0)
(1.27925773367 -0.0230491128561 0)
(1.33140135506 -0.0193660499285 0)