/*--------------------------------*- C++ -*----------------------------------*\
| =========                 |                                                 |
| \\      /  F ield         | OpenFOAM: The Open Source CFD Toolbox           |
|  \\    /   O peration     | Version:  2106                                  |
|   \\  /    A nd           | Website:  www.openfoam.com                      |
|    \\/     M anipulation  |                                                 |
\*---------------------------------------------------------------------------*/
FoamFile
{
    version     2.0;
    format      ascii;
    arch        "LSB;label=32;scalar=64";
    class       volVectorField;
    location    "0.135";
    object      U;
}
// * * * * * * * * * * * * * * * * * * * * * * * * * * * * * * * * * * * * * //

dimensions      [0 1 -1 0 0 0 0];

internalField   nonuniform List<vector> 
11200
(
(0.662462402132 0.150569444968 0)
(0.558948665446 0.103243391674 0)
(0.383850723998 0.051351228799 0)
(0.283747575266 0.0248708601071 0)
(0.232075243291 0.0124170496499 0)
(0.2019085538 0.00662282052387 0)
(0.183197894443 0.00380291729766 0)
(0.171276444849 0.0023158722151 0)
(0.163510257968 0.00146450804016 0)
(0.158388717521 0.000944893286876 0)
(0.155006576394 0.00061517720268 0)
(0.152786621086 0.000402233553385 0)
(0.151346473802 0.000264231298473 0)
(0.15042824396 0.000175248313973 0)
(0.149856652604 0.000118357448474 0)
(0.149512471457 8.21545058238e-05 0)
(0.149314939911 5.88566353071e-05 0)
(0.149209616359 4.330043816e-05 0)
(0.149159803178 3.29129153722e-05 0)
(0.149142623556 2.8163796756e-05 0)
(0.149144861794 2.76574823045e-05 0)
(0.149157230716 2.98790680186e-05 0)
(0.149172954964 3.30423428809e-05 0)
(0.149188623117 3.59567519804e-05 0)
(0.14920296863 3.85928849475e-05 0)
(0.149215388071 4.10344920365e-05 0)
(0.149225709779 4.33154450982e-05 0)
(0.149234035858 4.54661214921e-05 0)
(0.149240597838 4.75244674176e-05 0)
(0.149245672401 4.9534867148e-05 0)
(0.149249538859 5.15541029083e-05 0)
(0.149252461885 5.36673016381e-05 0)
(0.149254639487 5.59701359696e-05 0)
(0.149256238432 5.83475408195e-05 0)
(0.149257399165 6.07162111108e-05 0)
(0.149258211499 6.30499106459e-05 0)
(0.149258760383 6.53535265845e-05 0)
(0.149259130393 6.76357118917e-05 0)
(0.149259381908 6.99103322274e-05 0)
(0.149259545577 7.21849280413e-05 0)
(0.149259641519 7.44613266603e-05 0)
(0.149259686355 7.67401448417e-05 0)
(0.149259692905 7.90210231256e-05 0)
(0.149259671409 8.13027709277e-05 0)
(0.149259630182 8.35836971056e-05 0)
(0.149259576031 8.58614631133e-05 0)
(0.149259514922 8.81332360366e-05 0)
(0.149259452284 9.03960085117e-05 0)
(0.14925939281 9.26470101254e-05 0)
(0.149259341596 9.48832648238e-05 0)
(0.149259305328 9.71021361621e-05 0)
(0.149259292664 9.93009971998e-05 0)
(0.149259315451 0.000101477115941 0)
(0.149259390368 0.000103627488919 0)
(0.14925954116 0.000105748335814 0)
(0.149259802111 0.000107834365579 0)
(0.149260222847 0.000109878312896 0)
(0.149260874878 0.000111870626205 0)
(0.149261864222 0.000113797154169 0)
(0.149263348208 0.000115633727707 0)
(0.149265567711 0.000117328446194 0)
(0.149268927482 0.000118794731806 0)
(0.149273915263 0.00012005899549 0)
(0.149281177062 0.000121305588589 0)
(0.14929174023 0.000122986024468 0)
(0.149307129053 0.000125342355097 0)
(0.149329734087 0.000128128948545 0)
(0.149363275275 0.000131106044919 0)
(0.149413384918 0.000134050593932 0)
(0.149488349232 0.00013685143492 0)
(0.149600185316 0.000140826506399 0)
(0.149771978172 0.000151896032127 0)
(0.150041737923 0.000172809118687 0)
(0.150472890137 0.000203318996763 0)
(0.151201849851 0.000233645575533 0)
(0.152507737391 0.000192976960087 0)
(0.155049515931 -0.000218365667754 0)
(0.162429696637 -0.00212918928682 0)
(0.187896437614 -0.0108967532538 0)
(0.20516658677 -0.0502945252779 0)
(0.965408254277 0.289214714037 0)
(0.961962857318 0.252656050065 0)
(0.823574389642 0.159021453809 0)
(0.698139362126 0.0959957435356 0)
(0.610225449828 0.0582481252717 0)
(0.548971468732 0.0362148626732 0)
(0.506588855163 0.0231612928345 0)
(0.477567222952 0.0151375212956 0)
(0.457745433042 0.0100177593833 0)
(0.444228390436 0.00665814342812 0)
(0.435053219765 0.00441555603516 0)
(0.428873036272 0.00290686220005 0)
(0.424754125088 0.00189104993056 0)
(0.422046591543 0.00121003004171 0)
(0.420297785589 0.000757138766304 0)
(0.419193225984 0.000459218718744 0)
(0.418515692145 0.000265801450315 0)
(0.418116642189 0.00014232653338 0)
(0.417896165837 6.60165147918e-05 0)
(0.417787276185 2.29873060616e-05 0)
(0.417746086664 1.28571187419e-06 0)
(0.417743056007 -1.03350797776e-05 0)
(0.417757908368 -1.39117262174e-05 0)
(0.417780171728 -1.34890896109e-05 0)
(0.417804810994 -1.10797272898e-05 0)
(0.417828554724 -7.75462861524e-06 0)
(0.417849700716 -4.14991470839e-06 0)
(0.417867640347 -6.34878844868e-07 0)
(0.41788236569 2.59044004858e-06 0)
(0.417894178049 5.42501393064e-06 0)
(0.417903534752 7.81096657346e-06 0)
(0.417910937427 9.67393573569e-06 0)
(0.417916610787 1.09123173881e-05 0)
(0.417920762125 1.1793576781e-05 0)
(0.417923757734 1.25941201462e-05 0)
(0.417925878639 1.33524408091e-05 0)
(0.417927347783 1.40418931046e-05 0)
(0.417928362994 1.46674727435e-05 0)
(0.417929067595 1.52629585942e-05 0)
(0.417929538292 1.58424025666e-05 0)
(0.417929828425 1.64075463465e-05 0)
(0.417929982476 1.69618356368e-05 0)
(0.417930034473 1.75082545743e-05 0)
(0.417930010616 1.80492712938e-05 0)
(0.417929930741 1.85878544485e-05 0)
(0.417929809754 1.9126467267e-05 0)
(0.417929660098 1.96673741953e-05 0)
(0.417929493497 2.02131932505e-05 0)
(0.41792932099 2.07671139627e-05 0)
(0.417929155886 2.13298851507e-05 0)
(0.417929016481 2.19027659368e-05 0)
(0.417928926868 2.24870369545e-05 0)
(0.417928919687 2.30834549743e-05 0)
(0.417929039643 2.36918706289e-05 0)
(0.417929348624 2.4310908291e-05 0)
(0.417929934466 2.4938011002e-05 0)
(0.417930924034 2.55697998173e-05 0)
(0.417932500347 2.61992204948e-05 0)
(0.417934931549 2.68058723638e-05 0)
(0.417938604948 2.73581428718e-05 0)
(0.417944105963 2.78110100886e-05 0)
(0.417952511756 2.80965855643e-05 0)
(0.41796533786 2.83541734477e-05 0)
(0.417984723486 2.79562322968e-05 0)
(0.418013486573 2.54650712891e-05 0)
(0.418055248427 1.96871533161e-05 0)
(0.418116168485 9.81581040498e-06 0)
(0.418206441801 -5.68387622052e-06 0)
(0.418341815498 -2.93616431216e-05 0)
(0.418547435582 -6.49411747356e-05 0)
(0.418865632073 -0.000116659550056 0)
(0.419366649473 -0.000189553396064 0)
(0.420165106056 -0.000310755493632 0)
(0.421466821482 -0.000538264771993 0)
(0.423667453998 -0.00101005239247 0)
(0.427494016939 -0.00211140498666 0)
(0.434386500161 -0.00490551329911 0)
(0.44856024363 -0.0123843658788 0)
(0.475274126533 -0.0346217944419 0)
(0.47949768934 -0.100029627442 0)
(1.02222096626 0.238416194649 0)
(1.08213753087 0.295926664517 0)
(1.03447723107 0.239503080472 0)
(0.954615412823 0.174290178818 0)
(0.879992055175 0.121345481832 0)
(0.818614428948 0.0830993963172 0)
(0.771410835708 0.0567316779372 0)
(0.736634366135 0.0387409776309 0)
(0.711624398395 0.0264327936825 0)
(0.693916578807 0.0179731076212 0)
(0.681541365576 0.0121424449746 0)
(0.673000076953 0.00812489621787 0)
(0.667180626579 0.00536629584806 0)
(0.663271686191 0.00348440101537 0)
(0.660688563877 0.00221249288811 0)
(0.659014312533 0.00136328128662 0)
(0.657954733643 0.000805104320187 0)
(0.657304577157 0.000445732210106 0)
(0.6569223355 0.000220835232041 0)
(0.656710989594 8.52973515778e-05 0)
(0.656604376123 8.01976509737e-06 0)
(0.656563138205 -3.41700023554e-05 0)
(0.656559609771 -5.74198955187e-05 0)
(0.656573484474 -6.75028821139e-05 0)
(0.656595458208 -6.91630042933e-05 0)
(0.656619761166 -6.62899188962e-05 0)
(0.656643074092 -6.13195968846e-05 0)
(0.656663778796 -5.56605609179e-05 0)
(0.656681279232 -5.00960199672e-05 0)
(0.656695543877 -4.50311550232e-05 0)
(0.656706810859 -4.06560478194e-05 0)
(0.656715436134 -3.70783695191e-05 0)
(0.656722065899 -3.44112430124e-05 0)
(0.656727387405 -3.25016518983e-05 0)
(0.656731558183 -3.13341216728e-05 0)
(0.656734593088 -3.07372820451e-05 0)
(0.656736706641 -3.05601907332e-05 0)
(0.656738187946 -3.07929612643e-05 0)
(0.656739233454 -3.12649543023e-05 0)
(0.65673993915 -3.18790577289e-05 0)
(0.656740381315 -3.26014881201e-05 0)
(0.65674062681 -3.34017177846e-05 0)
(0.656740725727 -3.4254295347e-05 0)
(0.656740717218 -3.51397170712e-05 0)
(0.656740631023 -3.60411123419e-05 0)
(0.656740489218 -3.69466518404e-05 0)
(0.656740310307 -3.78483369966e-05 0)
(0.656740111506 -3.87401240555e-05 0)
(0.656739907115 -3.96146340257e-05 0)
(0.656739714739 -4.04670700442e-05 0)
(0.656739560751 -4.12909080123e-05 0)
(0.656739479894 -4.20809594464e-05 0)
(0.656739519129 -4.28344115752e-05 0)
(0.656739743323 -4.35522518756e-05 0)
(0.656740243679 -4.42433534146e-05 0)
(0.656741150983 -4.49330982362e-05 0)
(0.656742652049 -4.56743105008e-05 0)
(0.656745009259 -4.65564442581e-05 0)
(0.656748612755 -4.77200789416e-05 0)
(0.656754055026 -4.93834556789e-05 0)
(0.656762234932 -5.20123443703e-05 0)
(0.656774771074 -5.66581382317e-05 0)
(0.656793130765 -6.4132568088e-05 0)
(0.65681875039 -7.53853923886e-05 0)
(0.656855286956 -9.20401734095e-05 0)
(0.656909487649 -0.000116566977669 0)
(0.656990882012 -0.000152191547148 0)
(0.657113372317 -0.00020425808413 0)
(0.657298969403 -0.00028140471292 0)
(0.657583432274 -0.000397710538314 0)
(0.658025537945 -0.000577875069911 0)
(0.658715566237 -0.000869766082174 0)
(0.659802531509 -0.00136450288207 0)
(0.661547520664 -0.00223726380831 0)
(0.664399119258 -0.0038549194976 0)
(0.669065090059 -0.00702619618528 0)
(0.676593239964 -0.0135139879722 0)
(0.689029568092 -0.0271893360105 0)
(0.705996993426 -0.057101034459 0)
(0.701772255106 -0.114915255354 0)
(1.02251475558 0.170807160202 0)
(1.10138975937 0.27649649101 0)
(1.11752426832 0.26666481412 0)
(1.09214661337 0.219901714531 0)
(1.05187816133 0.1681688627 0)
(1.01020822476 0.123567410921 0)
(0.973494683724 0.0888375347246 0)
(0.94386453966 0.063006382943 0)
(0.921142773767 0.0442232121857 0)
(0.904284039281 0.0307423949031 0)
(0.892074832279 0.0211562863275 0)
(0.883404478828 0.0143954451541 0)
(0.877352654869 0.00966790184084 0)
(0.873197723229 0.00639375862944 0)
(0.870392997103 0.00415104326062 0)
(0.868534182717 0.00263431440496 0)
(0.867327888515 0.00162377360348 0)
(0.866564620975 0.00096235315824 0)
(0.866097037166 0.000538709899436 0)
(0.86582300938 0.000274641623868 0)
(0.865672408221 0.00011645045965 0)
(0.86559642827 2.80788799818e-05 0)
(0.865565735618 -2.01400805509e-05 0)
(0.865563356352 -4.21787202264e-05 0)
(0.865575135848 -4.86623124092e-05 0)
(0.86559260671 -4.6580030457e-05 0)
(0.865611408163 -4.02480144607e-05 0)
(0.865629254267 -3.22526648278e-05 0)
(0.865645048251 -2.40648562529e-05 0)
(0.865658410344 -1.64530850261e-05 0)
(0.865669362669 -9.7500606823e-06 0)
(0.865678105155 -4.01402963001e-06 0)
(0.865684895403 8.48681317344e-07 0)
(0.865689954433 4.72575313616e-06 0)
(0.865693635776 7.50738072115e-06 0)
(0.865696345513 9.41310195699e-06 0)
(0.865698215678 1.08073856799e-05 0)
(0.865699516971 1.20190143757e-05 0)
(0.865700511427 1.30489505719e-05 0)
(0.865701212546 1.39722675909e-05 0)
(0.865701655129 1.48137597775e-05 0)
(0.865701903445 1.55867442047e-05 0)
(0.865702004432 1.63030080763e-05 0)
(0.865701994825 1.69752718712e-05 0)
(0.865701901852 1.76189922072e-05 0)
(0.86570174391 1.8245276521e-05 0)
(0.865701537328 1.88637311178e-05 0)
(0.865701301027 1.94863140882e-05 0)
(0.86570105265 2.01298928687e-05 0)
(0.865700814481 2.07824192821e-05 0)
(0.865700617941 2.14381498991e-05 0)
(0.865700502178 2.20907420182e-05 0)
(0.865700520072 2.27270921045e-05 0)
(0.86570074223 2.33236633754e-05 0)
(0.865701260587 2.38420577814e-05 0)
(0.865702198201 2.42281348839e-05 0)
(0.865703731877 2.44278366107e-05 0)
(0.865706121498 2.43820891748e-05 0)
(0.865709751808 2.39154342165e-05 0)
(0.86571507845 2.2667775518e-05 0)
(0.865722500455 2.00085969171e-05 0)
(0.86573357311 1.52890539226e-05 0)
(0.865750895214 6.75907895396e-06 0)
(0.865777493721 -7.39119853072e-06 0)
(0.865817314732 -2.91762061912e-05 0)
(0.865876246369 -6.25067367818e-05 0)
(0.865963653324 -0.000114342270121 0)
(0.866094140436 -0.000195592243021 0)
(0.866290454974 -0.00032375886656 0)
(0.866587790887 -0.000527723662284 0)
(0.867040445085 -0.000857124295607 0)
(0.867734670258 -0.00140006196934 0)
(0.86880888464 -0.00230739902265 0)
(0.870479988376 -0.00385770018141 0)
(0.873073175603 -0.00658292164704 0)
(0.876998008079 -0.0115081417287 0)
(0.882593736736 -0.0205351934591 0)
(0.890066275509 -0.0370027130062 0)
(0.89699141367 -0.0665777294431 0)
(0.887459229568 -0.112178721401 0)
(1.01287875174 0.11896103061 0)
(1.08820670936 0.231806948892 0)
(1.13741367801 0.253106779467 0)
(1.15409087536 0.228992769491 0)
(1.14994211519 0.188368374849 0)
(1.13538465745 0.146579859625 0)
(1.11758894544 0.110150980496 0)
(1.1005949928 0.080816234918 0)
(1.08612455544 0.0582265849314 0)
(1.07459090387 0.0413189854655 0)
(1.06579144491 0.0289160070119 0)
(1.05928797207 0.0199600653299 0)
(1.05459976043 0.0135814939348 0)
(1.05129078707 0.00909733308129 0)
(1.04899990811 0.00598598556913 0)
(1.04744352075 0.00385672392227 0)
(1.046406723 0.00242126498033 0)
(1.04573090609 0.00146971099246 0)
(1.04530147481 0.000851142767896 0)
(1.04503712991 0.000458325631405 0)
(1.04488094703 0.00021592801975 0)
(1.04479355291 7.20680015161e-05 0)
(1.04474993975 -6.54210730081e-06 0)
(1.04473331899 -4.51688768471e-05 0)
(1.04473139161 -6.06478788454e-05 0)
(1.04473722275 -6.30522518311e-05 0)
(1.04474653671 -5.86163183261e-05 0)
(1.04475680012 -5.11766461717e-05 0)
(1.04476662647 -4.29837756273e-05 0)
(1.04477533792 -3.52601791039e-05 0)
(1.0447826767 -2.85945608753e-05 0)
(1.04478862094 -2.31968773341e-05 0)
(1.04479330248 -1.90354225036e-05 0)
(1.04479692541 -1.59258783706e-05 0)
(1.04479972072 -1.35267680217e-05 0)
(1.04480194888 -1.1659802306e-05 0)
(1.04480382863 -1.01649814051e-05 0)
(1.04480532407 -8.81314075227e-06 0)
(1.04480640677 -7.68605020913e-06 0)
(1.0448071843 -6.86494313686e-06 0)
(1.04480768484 -6.36662491613e-06 0)
(1.04480796638 -6.07385177152e-06 0)
(1.04480808169 -5.91898755828e-06 0)
(1.04480807674 -5.85643456985e-06 0)
(1.04480798379 -5.83653103842e-06 0)
(1.04480782398 -5.83485880273e-06 0)
(1.04480761993 -5.84097719121e-06 0)
(1.04480739857 -5.85444910761e-06 0)
(1.04480715854 -5.8883969792e-06 0)
(1.04480690537 -5.92048074814e-06 0)
(1.04480667732 -5.94218912038e-06 0)
(1.04480651451 -5.95521924626e-06 0)
(1.04480646616 -5.96511950821e-06 0)
(1.04480659953 -5.98416754559e-06 0)
(1.04480701313 -6.03922198546e-06 0)
(1.04480787069 -6.1964970756e-06 0)
(1.04480942084 -6.64163570597e-06 0)
(1.04481192218 -7.75716448214e-06 0)
(1.04481566191 -9.96676206463e-06 0)
(1.04482106904 -1.3702067273e-05 0)
(1.04482911715 -1.86700263635e-05 0)
(1.04484103906 -2.48398090799e-05 0)
(1.0448580585 -3.4449523624e-05 0)
(1.04488240973 -5.04958240735e-05 0)
(1.04491758686 -7.73088901776e-05 0)
(1.04496874572 -0.000121230097139 0)
(1.0450435183 -0.000192156544103 0)
(1.04515330893 -0.000305861368399 0)
(1.04531538543 -0.000487851411913 0)
(1.04555586626 -0.000779737023842 0)
(1.04591394814 -0.00124984082441 0)
(1.04644836422 -0.00201146845736 0)
(1.04724471875 -0.00325817267988 0)
(1.04841852909 -0.00532618717197 0)
(1.05010128467 -0.00880233509056 0)
(1.05235588557 -0.0146989918482 0)
(1.0549461057 -0.0246581300606 0)
(1.05708794937 -0.0410535370624 0)
(1.05606615142 -0.0668338652282 0)
(1.04251575524 -0.101666846184 0)
(1.00447483517 0.0814040041876 0)
(1.06917237438 0.181288549974 0)
(1.13080569381 0.21695043254 0)
(1.1737500132 0.210789170368 0)
(1.19865266141 0.183690091663 0)
(1.2101998886 0.149751697702 0)
(1.21350256363 0.116779157552 0)
(1.21251724292 0.0882206890639 0)
(1.20973098145 0.0650481571705 0)
(1.20651119143 0.0470209057887 0)
(1.203519127 0.0334067895632 0)
(1.20101144762 0.0233556887734 0)
(1.19903445277 0.0160719337229 0)
(1.19753879146 0.0108793831433 0)
(1.19644134221 0.0072339907198 0)
(1.19565563438 0.0047132365401 0)
(1.1951049655 0.00299724418791 0)
(1.19472658584 0.00184865543525 0)
(1.19447164533 0.00109431926571 0)
(1.19430338365 0.000609822857233 0)
(1.19419480201 0.000307044462892 0)
(1.19412659155 0.000124676113881 0)
(1.19408562343 2.09751249947e-05 0)
(1.19406245821 -3.38349227187e-05 0)
(1.19405027306 -5.87582975395e-05 0)
(1.19404489837 -6.61671135372e-05 0)
(1.19404353438 -6.40001198157e-05 0)
(1.1940443601 -5.71674833096e-05 0)
(1.19404625477 -4.85799613511e-05 0)
(1.19404855564 -3.98554359158e-05 0)
(1.19405088652 -3.18015563422e-05 0)
(1.19405305116 -2.47323125186e-05 0)
(1.19405497381 -1.86770860995e-05 0)
(1.1940566497 -1.35561178279e-05 0)
(1.19405809765 -9.26161529006e-06 0)
(1.19405933682 -5.71549655739e-06 0)
(1.19406036757 -2.88962195453e-06 0)
(1.19406114476 -8.06076665897e-07 0)
(1.194061614 6.96631958098e-07 0)
(1.19406178821 1.70782647271e-06 0)
(1.19406182943 2.47310855237e-06 0)
(1.19406184584 3.14691711924e-06 0)
(1.19406181288 3.74273686043e-06 0)
(1.19406174312 4.26988235597e-06 0)
(1.19406164044 4.73055761203e-06 0)
(1.19406148848 5.14075426494e-06 0)
(1.19406128241 5.51382292512e-06 0)
(1.19406102151 5.85017770546e-06 0)
(1.19406074064 6.13356487062e-06 0)
(1.19406048203 6.39196147238e-06 0)
(1.19406026148 6.63973686403e-06 0)
(1.19406011276 6.86525097255e-06 0)
(1.19406008919 7.0439706684e-06 0)
(1.19406025741 7.13758248087e-06 0)
(1.1940606852 7.08868109384e-06 0)
(1.19406139565 6.81471997917e-06 0)
(1.19406234879 6.18215754974e-06 0)
(1.19406366223 4.89042548049e-06 0)
(1.19406574936 2.36274039678e-06 0)
(1.19406975768 -1.61189966764e-06 0)
(1.19407662829 -7.80401803999e-06 0)
(1.19408613249 -1.76056363981e-05 0)
(1.19409885967 -3.30710647871e-05 0)
(1.19411674753 -5.70962991566e-05 0)
(1.19414193669 -9.42934760214e-05 0)
(1.19417722105 -0.000152046537548 0)
(1.19422656567 -0.00024213626269 0)
(1.19429557672 -0.000383264298311 0)
(1.19439212106 -0.000605299595504 0)
(1.19452700545 -0.000956288169808 0)
(1.19471446306 -0.00151396706687 0)
(1.19497153927 -0.00240452040277 0)
(1.19531343719 -0.00383468708358 0)
(1.19573812871 -0.00614355934081 0)
(1.19618621357 -0.00988072590921 0)
(1.19643849517 -0.0159088286896 0)
(1.19590630353 -0.0254713505684 0)
(1.19342581188 -0.0400781254041 0)
(1.18663264429 -0.0610552675395 0)
(1.16993057752 -0.0872024599696 0)
(0.998962326072 0.0544316315127 0)
(1.05310956948 0.133401617462 0)
(1.11628268952 0.170777570402 0)
(1.17301273003 0.175143884956 0)
(1.21791247434 0.159583618947 0)
(1.25049859124 0.134951032083 0)
(1.27288492288 0.108411667803 0)
(1.28776723068 0.0838849805804 0)
(1.29745268664 0.0630565763249 0)
(1.30366075409 0.0462999162104 0)
(1.30759234397 0.0333204940199 0)
(1.31005369805 0.0235494786835 0)
(1.31157361675 0.0163598263873 0)
(1.31249491118 0.0111711837239 0)
(1.3130385908 0.00749130909167 0)
(1.31334666144 0.00492420445274 0)
(1.31351004408 0.00316257177042 0)
(1.31358662987 0.00197424902523 0)
(1.31361294723 0.00118755960747 0)
(1.31361172276 0.000677846205044 0)
(1.31359679358 0.000356073320136 0)
(1.31357636638 0.000159666864529 0)
(1.31355524885 4.52274117504e-05 0)
(1.31353583083 -1.72534190717e-05 0)
(1.31351904518 -4.75444597676e-05 0)
(1.31350521062 -5.8639318651e-05 0)
(1.31349415926 -5.89523793235e-05 0)
(1.31348555641 -5.3740580501e-05 0)
(1.31347901391 -4.61716767439e-05 0)
(1.31347414806 -3.80699217064e-05 0)
(1.31347060988 -3.04105755596e-05 0)
(1.31346809908 -2.36499883424e-05 0)
(1.31346636315 -1.79420001311e-05 0)
(1.31346517963 -1.32906460891e-05 0)
(1.31346437622 -9.63571427959e-06 0)
(1.31346384847 -6.8825085768e-06 0)
(1.31346351276 -4.90791261847e-06 0)
(1.31346327111 -3.5508806132e-06 0)
(1.31346307501 -2.59017053378e-06 0)
(1.31346301815 -1.82836651871e-06 0)
(1.31346312504 -1.16280561619e-06 0)
(1.31346322298 -6.62971406987e-07 0)
(1.31346321998 -2.43259258213e-07 0)
(1.31346313206 1.52942734665e-07 0)
(1.31346298227 5.19939101524e-07 0)
(1.31346279134 8.63919720236e-07 0)
(1.31346256312 1.19961715482e-06 0)
(1.31346229678 1.54561693069e-06 0)
(1.31346201163 1.92345804014e-06 0)
(1.31346173577 2.30279252402e-06 0)
(1.31346147623 2.64932995436e-06 0)
(1.31346124422 2.93692933323e-06 0)
(1.31346107134 3.12642892493e-06 0)
(1.31346100395 3.156511777e-06 0)
(1.31346111258 2.93746880026e-06 0)
(1.31346151003 2.35159360077e-06 0)
(1.31346228515 1.28898517488e-06 0)
(1.31346336223 -3.35404943268e-07 0)
(1.31346512908 -2.71576531151e-06 0)
(1.31346790763 -6.39029450114e-06 0)
(1.31347177732 -1.27839392949e-05 0)
(1.31347701078 -2.35559388649e-05 0)
(1.31348384699 -4.03067830115e-05 0)
(1.31349272038 -6.6174350035e-05 0)
(1.3135039071 -0.000106213246877 0)
(1.31351742261 -0.000168241826688 0)
(1.31353281176 -0.000264471982596 0)
(1.31354863775 -0.000414049782362 0)
(1.3135615104 -0.000647194094827 0)
(1.31356425483 -0.00101184635372 0)
(1.31354262737 -0.0015842847017 0)
(1.31346872302 -0.00248526937589 0)
(1.31328734164 -0.00390549128721 0)
(1.31288950931 -0.00614320452918 0)
(1.31206271554 -0.00965277454639 0)
(1.31039663178 -0.0150922701034 0)
(1.30712780267 -0.0233169597836 0)
(1.30102634551 -0.035209157101 0)
(1.29018389167 -0.0512657403754 0)
(1.27104946027 -0.0703317155996 0)
(0.995736074604 0.0346338654283 0)
(1.04179514578 0.0905689293061 0)
(1.10222839729 0.121549574848 0)
(1.16491413194 0.129605844243 0)
(1.22202568237 0.122009277857 0)
(1.26951894206 0.106019946859 0)
(1.30680226113 0.087097563397 0)
(1.33499537727 0.0686366865955 0)
(1.35574479776 0.0523698406233 0)
(1.37069618875 0.0389256119584 0)
(1.38128277172 0.0282980542986 0)
(1.38866268416 0.0201712374204 0)
(1.39373032376 0.0141174402857 0)
(1.39715657018 0.00970522373184 0)
(1.39943426865 0.00655042724325 0)
(1.40091952682 0.00433421601175 0)
(1.40186598324 0.00280382032191 0)
(1.40245188233 0.00176531786146 0)
(1.40280082233 0.00107365641142 0)
(1.40299732205 0.000622573199226 0)
(1.40309830459 0.000335619174498 0)
(1.40314147672 0.000158706078952 0)
(1.40315140994 5.41294655825e-05 0)
(1.40314358078 -4.12015898748e-06 0)
(1.40312745287 -3.33635436656e-05 0)
(1.40310863695 -4.52176155276e-05 0)
(1.40309017412 -4.71414206756e-05 0)
(1.40307359461 -4.38239350823e-05 0)
(1.40305950586 -3.81283780096e-05 0)
(1.40304798907 -3.17307564903e-05 0)
(1.40303885043 -2.55480184415e-05 0)
(1.40303177279 -2.00294179982e-05 0)
(1.4030264035 -1.53470277489e-05 0)
(1.4030223982 -1.15125074071e-05 0)
(1.40301945719 -8.43514944298e-06 0)
(1.40301734333 -5.99243583812e-06 0)
(1.40301587637 -4.06436144298e-06 0)
(1.40301491227 -2.52800095877e-06 0)
(1.40301429823 -1.25678515308e-06 0)
(1.40301385955 -2.15953539869e-07 0)
(1.40301347092 6.05055778157e-07 0)
(1.40301317568 1.19406426239e-06 0)
(1.40301301594 1.63709075271e-06 0)
(1.40301290562 2.00682728547e-06 0)
(1.4030127902 2.35411765924e-06 0)
(1.40301265652 2.70195810913e-06 0)
(1.40301250035 3.06178129337e-06 0)
(1.40301231976 3.44085231819e-06 0)
(1.40301210708 3.84412774401e-06 0)
(1.40301185606 4.25010990062e-06 0)
(1.40301158424 4.62772616868e-06 0)
(1.40301132091 4.95270360889e-06 0)
(1.40301109134 5.19005547248e-06 0)
(1.40301092254 5.28564384885e-06 0)
(1.40301083893 5.15809258242e-06 0)
(1.40301084956 4.68027353461e-06 0)
(1.40301093951 3.65410630229e-06 0)
(1.40301115212 1.8799382356e-06 0)
(1.40301153196 -8.42096619849e-07 0)
(1.40301222248 -5.43886219832e-06 0)
(1.4030132718 -1.26656619434e-05 0)
(1.40301429509 -2.3832819353e-05 0)
(1.40301473838 -4.07836532714e-05 0)
(1.40301379653 -6.64868026105e-05 0)
(1.40300991024 -0.00010554102831 0)
(1.40300023652 -0.000165033173231 0)
(1.40297986105 -0.000255942364094 0)
(1.40294037549 -0.000395232128366 0)
(1.40286743832 -0.000609286307984 0)
(1.40273672965 -0.000939322668451 0)
(1.40250774334 -0.00144988697846 0)
(1.40211294415 -0.00224048083099 0)
(1.40143837761 -0.0034631133696 0)
(1.40029231278 -0.00534636663783 0)
(1.3983558547 -0.00822090503476 0)
(1.39510617151 -0.0125342928382 0)
(1.38971351227 -0.0188175343774 0)
(1.38100150208 -0.0275380423578 0)
(1.36742637855 -0.0388174683946 0)
(1.34651716736 -0.0518087670249 0)
(0.994011531823 0.019235810886 0)
(1.03484763799 0.0523338462847 0)
(1.09199263727 0.0723631342322 0)
(1.15662421568 0.0791292383708 0)
(1.22032118336 0.0761045513734 0)
(1.27701947637 0.0673339751712 0)
(1.32424421549 0.0561509061495 0)
(1.36181576397 0.0447990124159 0)
(1.39068533577 0.0345303767244 0)
(1.41226077489 0.025881427039 0)
(1.42801823865 0.0189465104192 0)
(1.43929884225 0.0135849553171 0)
(1.4472280484 0.0095564877938 0)
(1.45270406029 0.00660004130064 0)
(1.4564188184 0.00447407944364 0)
(1.45889120686 0.00297335597694 0)
(1.46050193617 0.00193255420906 0)
(1.46152515157 0.0012234123881 0)
(1.46215493311 0.000749193514769 0)
(1.46252646579 0.000438578538729 0)
(1.46273239029 0.000239996320632 0)
(1.4628351223 0.00011680226684 0)
(1.46287596431 4.33618587296e-05 0)
(1.46288165772 1.94597839652e-06 0)
(1.46286893584 -1.92714681575e-05 0)
(1.4628479807 -2.83255384527e-05 0)
(1.46282479192 -3.03631899388e-05 0)
(1.46280259649 -2.86316186611e-05 0)
(1.46278293907 -2.51285076768e-05 0)
(1.46276637682 -2.10339260897e-05 0)
(1.46275291336 -1.6999091599e-05 0)
(1.46274226733 -1.33482405748e-05 0)
(1.46273403859 -1.02105249158e-05 0)
(1.46272780232 -7.60208216173e-06 0)
(1.46272316271 -5.47352897646e-06 0)
(1.46271977793 -3.75613297333e-06 0)
(1.46271736225 -2.38532313979e-06 0)
(1.46271566679 -1.31867307416e-06 0)
(1.46271445476 -5.22646509573e-07 0)
(1.4627136407 8.95542103575e-08 0)
(1.46271314479 6.09559168155e-07 0)
(1.46271281099 1.13000196228e-06 0)
(1.46271257839 1.61144458983e-06 0)
(1.46271240875 2.04264538342e-06 0)
(1.46271226789 2.44375079532e-06 0)
(1.46271213218 2.83083901078e-06 0)
(1.46271198364 3.21160002561e-06 0)
(1.46271180945 3.58598675542e-06 0)
(1.46271160102 3.94789269173e-06 0)
(1.462711354 4.2944742714e-06 0)
(1.46271107083 4.61814738889e-06 0)
(1.46271075722 4.88934109045e-06 0)
(1.46271041849 5.06155512433e-06 0)
(1.46271006129 5.06912218087e-06 0)
(1.46270969448 4.82281497093e-06 0)
(1.4627093333 4.20889050177e-06 0)
(1.46270900143 3.09860972023e-06 0)
(1.46270860201 1.37883745606e-06 0)
(1.46270790645 -1.22956546752e-06 0)
(1.46270674632 -5.3228799653e-06 0)
(1.46270485732 -1.18196623612e-05 0)
(1.46270157615 -2.18479272327e-05 0)
(1.46269575056 -3.69211102717e-05 0)
(1.46268551019 -5.93926917054e-05 0)
(1.4626676961 -9.28408088509e-05 0)
(1.46263702804 -0.000142688884322 0)
(1.46258490148 -0.000217186171769 0)
(1.46249726965 -0.000328703109088 0)
(1.46235107474 -0.000496022526982 0)
(1.46210851262 -0.000748002082332 0)
(1.46170910931 -0.00112978290259 0)
(1.46105655295 -0.00170834608814 0)
(1.45999601986 -0.00258177853265 0)
(1.4582817469 -0.00389288715985 0)
(1.45553197936 -0.00583892975167 0)
(1.45116833741 -0.00867085660927 0)
(1.44434940804 -0.0126608882012 0)
(1.433972943 -0.0180068481685 0)
(1.41872776937 -0.0246796237824 0)
(1.39668930328 -0.0321581236907 0)
(0.993269667842 0.00617015390663 0)
(1.03158100228 0.01710204964 0)
(1.08672182901 0.0239906522074 0)
(1.15174556134 0.0265606682674 0)
(1.21823538414 0.0258180594115 0)
(1.27925776669 0.0230488850356 0)
(1.33140138796 0.0193656293736 0)
(1.37377601732 0.0155468554955 0)
(1.4069105638 0.0120449275014 0)
(1.43203316061 0.00906639629411 0)
(1.45060216593 0.00666058951724 0)
(1.46402985605 0.00479008280714 0)
(1.47355012597 0.00337841404385 0)
(1.48017554674 0.0023387155358 0)
(1.48470212101 0.00158887972689 0)
(1.4877359224 0.00105823941761 0)
(1.48972690019 0.000689394023223 0)
(1.49100211646 0.000437546587204 0)
(1.49179492104 0.000268767501021 0)
(1.49226894845 0.00015796390371 0)
(1.49253702579 8.69470496868e-05 0)
(1.49267561588 4.27663765116e-05 0)
(1.49273559438 1.63429618625e-05 0)
(1.49275013759 1.38093359553e-06 0)
(1.4927402105 -6.36393320042e-06 0)
(1.49271869599 -9.72482453889e-06 0)
(1.4926932902 -1.05448651693e-05 0)
(1.49266823476 -9.98981494247e-06 0)
(1.4926456453 -8.77739697131e-06 0)
(1.49262637776 -7.32727060818e-06 0)
(1.49261056952 -5.87656201954e-06 0)
(1.49259797452 -4.54595323478e-06 0)
(1.49258817535 -3.38382425884e-06 0)
(1.49258070543 -2.39771205529e-06 0)
(1.49257511572 -1.57263460746e-06 0)
(1.49257100728 -8.87083619467e-07 0)
(1.49256804208 -3.2028013867e-07 0)
(1.4925659448 1.44753334125e-07 0)
(1.49256451685 5.39678249177e-07 0)
(1.49256356969 9.42324056385e-07 0)
(1.49256293449 1.2941237846e-06 0)
(1.49256251803 1.612781256e-06 0)
(1.4925622535 1.92432426041e-06 0)
(1.49256208417 2.24120416361e-06 0)
(1.49256196436 2.57261838547e-06 0)
(1.4925618614 2.92293619421e-06 0)
(1.49256175121 3.29278706184e-06 0)
(1.49256161563 3.67962068377e-06 0)
(1.49256144063 4.07686985327e-06 0)
(1.49256121559 4.47367803386e-06 0)
(1.49256093399 4.85247057699e-06 0)
(1.49256059092 5.18444992625e-06 0)
(1.49256017931 5.42871875646e-06 0)
(1.4925596877 5.52816048272e-06 0)
(1.49255909649 5.40320396236e-06 0)
(1.49255837564 4.942329954e-06 0)
(1.49255749903 3.98554501999e-06 0)
(1.49255636491 2.3313522699e-06 0)
(1.49255458048 -8.65456887041e-08 0)
(1.49255172269 -3.60152151567e-06 0)
(1.49254735502 -9.08820687227e-06 0)
(1.49254053211 -1.72800532456e-05 0)
(1.4925296128 -2.91751617616e-05 0)
(1.4925119895 -4.62825362531e-05 0)
(1.4924834371 -7.07079508731e-05 0)
(1.49243708328 -0.000105462368283 0)
(1.49236205462 -0.000154984195785 0)
(1.49224099258 -0.000225327561117 0)
(1.49204571374 -0.000325050281114 0)
(1.49173003068 -0.000467327508418 0)
(1.49122207679 -0.000675013431068 0)
(1.49041128049 -0.000976444816888 0)
(1.48912281656 -0.00140616038555 0)
(1.48708565284 -0.00201337625081 0)
(1.48389254354 -0.0028608799315 0)
(1.47894899996 -0.00401838675924 0)
(1.47142495604 -0.00554373573263 0)
(1.46027128584 -0.00744365133644 0)
(1.44428708519 -0.00963092579647 0)
(1.42178361389 -0.0118641303941 0)
(0.993270465711 -0.00616839954425 0)
(1.03158098515 -0.017100374927 0)
(1.08672176325 -0.0239897618304 0)
(1.15174559979 -0.0265602491239 0)
(1.21823546298 -0.0258179979044 0)
(1.2792578698 -0.0230491169384 0)