/*--------------------------------*- C++ -*----------------------------------*\
| =========                 |                                                 |
| \\      /  F ield         | OpenFOAM: The Open Source CFD Toolbox           |
|  \\    /   O peration     | Version:  v1706                                 |
|   \\  /    A nd           | Web:      www.OpenFOAM.com                      |
|    \\/     M anipulation  |                                                 |
\*---------------------------------------------------------------------------*/
FoamFile
{
    version     2.0;
    format      ascii;
    class       surfaceScalarField;
    location    "0.0304";
    object      phi;
}
// * * * * * * * * * * * * * * * * * * * * * * * * * * * * * * * * * * * * * //

dimensions      [0 3 -1 0 0 0 0];
oriented        oriented;


internalField   nonuniform List<scalar> 
799
(
8.9977e-34
1.06829e-33
1.18386e-33
1.7466e-33
1.33275e-33
1.81711e-33
1.71661e-33
1.63151e-33
1.95191e-33
1.64167e-33
1.8635e-33
1.81552e-33
1.71674e-33
1.88046e-33
1.7153e-33
1.7947e-33
1.78694e-33
1.71773e-33
1.78525e-33
1.70866e-33
1.72356e-33
1.71566e-33
1.66892e-33
1.67625e-33
1.62895e-33
1.60168e-33
1.56858e-33
1.52029e-33
1.48658e-33
1.44159e-33
1.39931e-33
1.35687e-33
1.30903e-33
1.26596e-33
1.22477e-33
1.18339e-33
1.13901e-33
1.09989e-33
1.06707e-33
1.04036e-33
1.02341e-33
1.00981e-33
9.98765e-34
9.95326e-34
9.91203e-34
9.91127e-34
9.92267e-34
9.99734e-34
1.00872e-33
1.01901e-33
1.02992e-33
1.04045e-33
1.05023e-33
1.06227e-33
1.0713e-33
1.0871e-33
1.10064e-33
1.11644e-33
1.13083e-33
1.13684e-33
1.14695e-33
1.15455e-33
1.16472e-33
1.17107e-33
1.17484e-33
1.17411e-33
1.16599e-33
1.15673e-33
1.14571e-33
1.14004e-33
1.14132e-33
1.14848e-33
1.16219e-33
1.17812e-33
1.19477e-33
1.21894e-33
1.24772e-33
1.28496e-33
1.32389e-33
1.35868e-33
1.38351e-33
1.41586e-33
1.44595e-33
1.47454e-33
1.4956e-33
1.51441e-33
1.53134e-33
1.54977e-33
1.56807e-33
1.58538e-33
1.6034e-33
1.62564e-33
1.64532e-33
1.67353e-33
1.70475e-33
1.74011e-33
1.77697e-33
1.81158e-33
1.84628e-33
1.86819e-33
1.88467e-33
1.89436e-33
1.89747e-33
1.89329e-33
1.88475e-33
1.87267e-33
1.85642e-33
1.84081e-33
1.82633e-33
1.81124e-33
1.79903e-33
1.78384e-33
1.77368e-33
1.76249e-33
1.75741e-33
1.75168e-33
1.74236e-33
1.72751e-33
1.71848e-33
1.71246e-33
1.70897e-33
1.71426e-33
1.72179e-33
1.7327e-33
1.74323e-33
1.75375e-33
1.7651e-33
1.77561e-33
1.78976e-33
1.80405e-33
1.81619e-33
1.82437e-33
1.83565e-33
1.84393e-33
1.85822e-33
1.86979e-33
1.8838e-33
1.89753e-33
1.91389e-33
1.92819e-33
1.94568e-33
1.9643e-33
1.98141e-33
2.00229e-33
2.02086e-33
2.04095e-33
2.0582e-33
2.07392e-33
2.08871e-33
2.1031e-33
2.11401e-33
2.12304e-33
2.13351e-33
2.14109e-33
2.15162e-33
2.16112e-33
2.16855e-33
2.17986e-33
2.18708e-33
2.19093e-33
2.19451e-33
2.19864e-33
2.20203e-33
2.20955e-33
2.21614e-33
2.22422e-33
2.23212e-33
2.24216e-33
2.24642e-33
2.25544e-33
2.26033e-33
2.2688e-33
2.27971e-33
2.29156e-33
2.30195e-33
2.31262e-33
2.32391e-33
2.32767e-33
2.32767e-33
2.32019e-33
2.30058e-33
2.27801e-33
2.25127e-33
2.21632e-33
2.1757e-33
2.14279e-33
2.10658e-33
2.07331e-33
2.04351e-33
2.01466e-33
1.99533e-33
1.97502e-33
1.95677e-33
1.94323e-33
1.93113e-33
1.92273e-33
1.91991e-33
1.91389e-33
1.90825e-33
1.89727e-33
1.87785e-33
1.85429e-33
1.82577e-33
1.80273e-33
1.78307e-33
1.773e-33
1.77315e-33
1.78365e-33
1.80605e-33
1.83593e-33
1.87035e-33
1.90336e-33
1.94775e-33
1.9959e-33
2.0448e-33
2.09388e-33
2.14495e-33
2.1915e-33
2.23137e-33
2.25695e-33
2.27905e-33
2.29344e-33
2.31187e-33
2.33575e-33
2.3587e-33
2.38266e-33
2.40976e-33
2.44291e-33
2.47738e-33
2.51424e-33
2.54584e-33
2.57744e-33
2.60979e-33
2.63254e-33
2.65267e-33
2.67054e-33
2.68521e-33
2.69593e-33
2.70117e-33
2.70705e-33
2.70256e-33
2.69161e-33
2.67224e-33
2.65954e-33
2.64478e-33
2.63083e-33
2.61353e-33
2.59634e-33
2.57602e-33
2.549e-33
2.5165e-33
2.4755e-33
2.42921e-33
2.37588e-33
2.31732e-33
2.25396e-33
2.18943e-33
2.12287e-33
2.05533e-33
1.99213e-33
1.91264e-33
1.84167e-33
1.77848e-33
1.71791e-33
1.66262e-33
1.62199e-33
1.59115e-33
1.56331e-33
1.54131e-33
1.52485e-33
1.51159e-33
1.50012e-33
1.49194e-33
1.48347e-33
1.47379e-33
1.46739e-33
1.45855e-33
1.44595e-33
1.42489e-33
1.39526e-33
1.36969e-33
1.34361e-33
1.31966e-33
1.29925e-33
1.28119e-33
1.26577e-33
1.24765e-33
1.22947e-33
1.21725e-33
1.20427e-33
1.19186e-33
1.17639e-33
1.16033e-33
1.14356e-33
1.12387e-33
1.10538e-33
1.085e-33
1.06335e-33
1.04647e-33
1.03143e-33
1.01262e-33
9.94562e-34
9.78011e-34
9.53937e-34
9.28358e-34
9.00899e-34
8.8021e-34
8.63659e-34
8.53879e-34
8.49309e-34
8.48519e-34
8.51622e-34
8.56136e-34
8.63565e-34
8.60932e-34
8.70171e-34
8.74462e-34
8.87213e-34
9.05179e-34
9.1754e-34
9.54103e-34
9.58309e-34
1.03856e-33
1.01657e-33
1.13524e-33
1.09208e-33
1.2113e-33
1.21678e-33
1.22477e-33
1.41323e-33
1.13976e-33
1.6589e-33
9.94562e-34
1.8144e-33
1.00961e-33
1.50764e-33
1.95452e-33
-6.25927e-34
6.15997e-33
-7.67833e-33
1.4306e-32
-1.0731e-32
-6.43569e-33
6.47549e-32
-1.67686e-31
3.21976e-31
-4.07542e-31
2.74475e-31
4.0552e-31
-1.87677e-30
3.87476e-30
-5.67282e-30
4.90714e-30
1.00117e-30
-1.34914e-29
3.1895e-29
-4.59886e-29
4.23954e-29
-3.93676e-30
-8.03215e-29
1.8492e-28
-2.66204e-28
2.37294e-28
-1.89656e-29
-3.72584e-28
8.5435e-28
-1.13825e-27
9.12218e-28
-1.62546e-29
-1.53382e-27
3.06239e-27
-3.71919e-27
2.66738e-27
5.96502e-28
-4.98426e-27
8.81651e-27
-9.62413e-27
5.34894e-27
3.11165e-27
-1.34532e-26
2.04356e-26
-1.89327e-26
7.97104e-27
1.08524e-26
-2.90658e-26
3.72782e-26
-3.00705e-26
5.71653e-27
2.53609e-26
-4.99041e-26
5.5816e-26
-3.51213e-26
-3.10144e-27
4.45002e-26
-7.02065e-26
6.46626e-26
-3.15727e-26
-1.79833e-26
6.13602e-26
-7.71875e-26
6.136e-26
-1.7983e-26
-3.15729e-26
6.46627e-26
-7.02065e-26
4.45e-26
-3.10122e-27
-3.51215e-26
5.58161e-26
-4.99041e-26
2.53607e-26
5.7167e-27
-3.00706e-26
3.72783e-26
-2.90658e-26
1.08523e-26
7.97113e-27
-1.89327e-26
2.04356e-26
-1.34532e-26
3.1116e-27
5.34898e-27
-9.62416e-27
8.81651e-27
-4.98424e-27
5.96485e-28
2.66739e-27
-3.7192e-27
3.06239e-27
-1.53382e-27
-1.62591e-29
9.1222e-28
-1.13825e-27
8.54348e-28
-3.72583e-28
-1.8967e-29
2.37293e-28
-2.66205e-28
1.84919e-28
-8.03221e-29
-3.9378e-30
4.23943e-29
-4.59896e-29
3.18938e-29
-1.34926e-29
9.99934e-31
4.90583e-30
-5.67408e-30
3.87342e-30
-1.87808e-30
4.042e-31
2.73125e-31
-4.08904e-31
3.20593e-31
-1.69068e-31
6.33654e-32
-7.84365e-33
-1.21522e-32
1.28782e-32
-9.10002e-33
4.73527e-33
-2.05834e-33
5.04052e-34
3.83681e-35
-4.9051e-34
3.03936e-34
-5.26245e-34
1.54901e-34
-3.35909e-34
-1.80556e-35
-1.51968e-34
-9.85534e-35
-3.87443e-35
-9.93058e-35
1.50463e-36
-5.91979e-35
2.18172e-35
-3.38542e-36
4.36344e-35
4.89006e-35
7.3727e-35
8.40714e-35
9.21588e-35
1.06735e-34
1.05324e-34
1.16609e-34
1.12847e-34
1.19054e-34
1.15081e-34
1.15481e-34
1.15857e-34
1.09815e-34
1.06829e-34
1.02362e-34
9.55442e-35
8.5576e-35
7.1376e-35
5.53188e-35
3.77804e-35
1.89196e-35
2.70364e-36
-1.69271e-35
-3.74277e-35
-6.31946e-35
-9.80362e-35
-1.2338e-34
-1.57234e-34
-1.82061e-34
-2.09003e-34
-2.30209e-34
-2.49017e-34
-2.68201e-34
-2.82871e-34
-2.94908e-34
-3.01491e-34
-3.07104e-34
-3.07509e-34
-2.97917e-34
-2.86633e-34
-2.67072e-34
-2.40741e-34
-2.13658e-34
-1.83001e-34
-1.53473e-34
-1.2338e-34
-9.2629e-35
-6.31946e-35
-3.08215e-35
-8.27548e-36
1.20371e-35
3.03748e-35
3.7992e-35
4.18212e-35
3.6887e-35
1.87359e-35
-6.51665e-37
-2.13248e-35
-3.97317e-35
-6.28847e-35
-8.16501e-35
-1.01459e-34
-1.18491e-34
-1.33836e-34
-1.46237e-34
-1.5963e-34
-1.69488e-34
-1.77116e-34
-1.82142e-34
-1.83755e-34
-1.76374e-34
-1.71425e-34
-1.66709e-34
-1.61137e-34
-1.53096e-34
-1.49711e-34
-1.47078e-34
-1.44445e-34
-1.43692e-34
-1.56482e-34
-1.73033e-34
-1.94098e-34
-2.27388e-34
-2.54283e-34
-2.82307e-34
-3.06193e-34
-3.30267e-34
-3.53589e-34
-3.76887e-34
-4.07755e-34
-4.41045e-34
-4.75652e-34
-5.10823e-34
-5.43482e-34
-5.7477e-34
-5.99972e-34
-6.25269e-34
-6.47697e-34
-6.57733e-34
-6.63182e-34
-6.60908e-34
-6.52356e-34
-6.38435e-34
-6.21137e-34
-6.00063e-34
-5.74472e-34
-5.51104e-34
-5.21022e-34
-4.91265e-34
-4.60494e-34
-4.29309e-34
-3.99133e-34
-3.60912e-34
-3.22415e-34
-2.79862e-34
-2.31713e-34
-1.80556e-34
-1.41435e-34
-9.32872e-35
-4.36344e-35
-1.31655e-36
3.91205e-35
6.16899e-35
8.12502e-35
9.0278e-35
9.47919e-35
9.22528e-35
8.12502e-35
6.45817e-35
4.61029e-35
3.01955e-35
9.16886e-36
-1.19842e-35
-3.51003e-35
-6.15019e-35
-8.11561e-35
-1.02315e-34
-1.12095e-34
-1.11343e-34
-1.06829e-34
-9.35694e-35
-7.67363e-35
-5.59535e-35
-2.53907e-35
6.01853e-36
5.11575e-35
9.32872e-35
1.4294e-34
1.91088e-34
2.31337e-34
2.64815e-34
3.00927e-34
3.35392e-34
3.77663e-34
4.12269e-34
4.47628e-34
4.73959e-34
4.89946e-34
5.02077e-34
5.05909e-34
5.00502e-34
4.93708e-34
4.80918e-34
4.61922e-34
4.39165e-34
4.22802e-34
4.06627e-34
3.95718e-34
3.88195e-34
3.84152e-34
3.83681e-34
3.83681e-34
3.8481e-34
3.86503e-34
3.90734e-34
3.92409e-34
3.99371e-34
4.0191e-34
4.02836e-34
4.01149e-34
3.98257e-34
3.95718e-34
3.897e-34
3.7992e-34
3.69387e-34
3.56598e-34
3.49827e-34
3.45219e-34
3.40235e-34
3.408e-34
3.4536e-34
3.54247e-34
3.72773e-34
3.98728e-34
4.25811e-34
4.60041e-34
4.93143e-34
5.28126e-34
5.64237e-34
5.98938e-34
6.31852e-34
6.54515e-34
6.70273e-34
6.72083e-34
6.69156e-34
6.6175e-34
6.48309e-34
6.29125e-34
6.04486e-34
5.7477e-34
5.34145e-34
4.95024e-34
4.52894e-34
4.12457e-34
3.7992e-34
3.53789e-34
3.31019e-34
3.15597e-34
3.11083e-34
3.09954e-34
3.21991e-34
3.38636e-34
3.59325e-34
3.86573e-34
4.12787e-34
4.45501e-34
4.70819e-34
4.93725e-34
5.107e-34
5.15795e-34
5.13123e-34
5.03676e-34
4.81805e-34
4.6422e-34
4.37499e-34
4.10408e-34
3.8152e-34
3.51335e-34
3.24911e-34
2.92505e-34
2.67401e-34
2.43775e-34
2.21745e-34
2.06276e-34
1.95461e-34
1.8996e-34
1.88831e-34
1.86574e-34
1.92593e-34
2.16667e-34
2.37732e-34
2.67825e-34
3.0544e-34
3.45313e-34
3.86691e-34
4.22802e-34
4.46547e-34
4.59759e-34
4.65613e-34
4.59266e-34
4.5317e-34
4.42405e-34
4.32206e-34
4.17865e-34
4.01361e-34
3.81424e-34
3.58197e-34
3.31583e-34
3.04688e-34
2.68577e-34
2.37732e-34
2.03878e-34
1.69459e-34
1.41435e-34
1.07205e-34
7.50906e-35
4.43867e-35
1.35417e-35
-7.52316e-36
-3.31019e-35
-5.7176e-35
-7.14701e-35
-9.49799e-35
-1.08381e-34
-1.24085e-34
-1.39931e-34
-1.4153e-34
-1.56482e-34
-1.45949e-34
-1.50246e-34
-1.45949e-34
-9.78011e-35
-1.30715e-34
-6.01853e-35
-6.24423e-35
-7.72065e-35
5.56714e-35
-7.97455e-35
9.0278e-35
8.87733e-35
-2.66132e-35
3.73149e-34
-1.04384e-35
3.85186e-34
4.54399e-34
7.07177e-35
1.01393e-33
1.84318e-34
8.41842e-34
1.23361e-33
2.11401e-34
2.17617e-33
6.91191e-34
1.69798e-33
2.60005e-33
8.4109e-34
3.74428e-33
1.77697e-33
2.47963e-33
2.94231e-33
)
;

boundaryField
{
    left
    {
        type            calculated;
        value           uniform 0;
    }
    right
    {
        type            calculated;
        value           uniform 0;
    }
    empty
    {
        type            empty;
        value           nonuniform 0();
    }
}


// ************************************************************************* //
