/*--------------------------------*- C++ -*----------------------------------*\
| =========                 |                                                 |
| \\      /  F ield         | OpenFOAM: The Open Source CFD Toolbox           |
|  \\    /   O peration     | Version:  v1706                                 |
|   \\  /    A nd           | Web:      www.OpenFOAM.com                      |
|    \\/     M anipulation  |                                                 |
\*---------------------------------------------------------------------------*/
FoamFile
{
    version     2.0;
    format      ascii;
    class       volVectorField;
    location    "0.0304";
    object      U;
}
// * * * * * * * * * * * * * * * * * * * * * * * * * * * * * * * * * * * * * //

dimensions      [0 1 -1 0 0 0 0];


internalField   nonuniform List<vector> 
800
(
(-3.08271e-21 0 0)
(1.152e-20 0 0)
(-4.75805e-21 0 0)
(-2.10782e-21 0 0)
(9.86063e-23 0 0)
(2.39351e-22 0 0)
(3.50436e-23 0 0)
(-1.83886e-23 0 0)
(-7.1172e-24 0 0)
(3.87322e-25 0 0)
(1.25917e-25 0 0)
(5.32779e-25 0 0)
(7.69823e-24 0 0)
(9.93318e-24 0 0)
(-5.61763e-23 0 0)
(-1.96821e-22 0 0)
(1.8029e-22 0 0)
(2.2065e-21 0 0)
(2.27264e-21 0 0)
(-1.69623e-20 0 0)
(1.69706e-20 0 0)
(-2.2636e-21 0 0)
(-2.2636e-21 0 0)
(-3.76641e-22 0 0)
(3.84937e-22 0 0)
(2.27269e-21 0 0)
(2.20632e-21 0 0)
(-1.71677e-20 0 0)
(1.71508e-20 0 0)
(-4.82235e-23 0 0)
(2.06483e-23 0 0)
(-1.73961e-20 0 0)
(1.7143e-20 0 0)
(1.69743e-22 0 0)
(2.26341e-21 0 0)
(-1.48774e-20 0 0)
(1.9642e-22 0 0)
(1.47463e-20 0 0)
(-4.48983e-21 0 0)
(-2.39472e-21 0 0)
(1.61603e-23 0 0)
(2.53533e-22 0 0)
(4.58563e-23 0 0)
(-1.65807e-23 0 0)
(-8.18029e-25 0 0)
(2.35009e-24 0 0)
(-6.61372e-23 0 0)
(-1.40831e-22 0 0)
(3.85229e-22 0 0)
(2.04414e-21 0 0)
(2.04665e-23 0 0)
(-1.94892e-20 0 0)
(3.3909e-20 0 0)
(-1.68492e-20 0 0)
(4.54674e-21 0 0)
(-1.2663e-20 0 0)
(3.77099e-22 0 0)
(1.45487e-20 0 0)
(-4.5462e-21 0 0)
(-2.38474e-21 0 0)
(2.39424e-23 0 0)
(2.54193e-22 0 0)
(4.56722e-23 0 0)
(-1.79557e-23 0 0)
(-8.18957e-24 0 0)
(3.29565e-25 0 0)
(9.71193e-25 0 0)
(2.23334e-25 0 0)
(-4.16563e-25 0 0)
(-1.45364e-24 0 0)
(7.33816e-25 0 0)
(1.49476e-23 0 0)
(2.00663e-23 0 0)
(-1.06422e-22 0 0)
(-3.84346e-22 0 0)
(3.20714e-22 0 0)
(4.25198e-21 0 0)
(4.63455e-21 0 0)
(-3.22249e-20 0 0)
(3.61657e-20 0 0)
(-1.67357e-20 0 0)
(2.15095e-20 0 0)
(-3.20127e-20 0 0)
(-1.81296e-21 0 0)
(2.9311e-20 0 0)
(-8.78333e-21 0 0)
(-4.73414e-21 0 0)
(2.20844e-23 0 0)
(5.07956e-22 0 0)
(1.10107e-22 0 0)
(-8.10299e-23 0 0)
(-2.693e-22 0 0)
(-1.60423e-23 0 0)
(2.38874e-21 0 0)
(4.48034e-21 0 0)
(-1.46895e-20 0 0)
(-5.5458e-26 0 0)
(1.46894e-20 0 0)
(-4.48005e-21 0 0)
(-2.38693e-21 0 0)
(1.66019e-23 0 0)
(2.53028e-22 0 0)
(4.62208e-23 0 0)
(-1.77019e-23 0 0)
(-8.15717e-24 0 0)
(1.18327e-25 0 0)
(1.83712e-25 0 0)
(5.71743e-25 0 0)
(7.70019e-24 0 0)
(9.93204e-24 0 0)
(-5.6178e-23 0 0)
(-1.96848e-22 0 0)
(1.80248e-22 0 0)
(2.20669e-21 0 0)
(2.27337e-21 0 0)
(-1.69628e-20 0 0)
(1.69628e-20 0 0)
(-2.27337e-21 0 0)
(-2.20666e-21 0 0)
(-1.80208e-22 0 0)
(1.96695e-22 0 0)
(5.55172e-23 0 0)
(-9.67264e-24 0 0)
(-9.18186e-25 0 0)
(9.22904e-24 0 0)
(-4.72225e-23 0 0)
(-1.78899e-22 0 0)
(1.33803e-22 0 0)
(1.95292e-21 0 0)
(2.25724e-21 0 0)
(-1.45683e-20 0 0)
(2.14521e-20 0 0)
(-1.70185e-20 0 0)
(-2.39577e-21 0 0)
(1.46994e-20 0 0)
(-2.1327e-21 0 0)
(-2.54235e-22 0 0)
(-1.67759e-20 0 0)
(1.94147e-20 0 0)
(4.58154e-23 0 0)
(-1.91864e-20 0 0)
(1.67744e-20 0 0)
(-2.07713e-21 0 0)
(-2.1501e-21 0 0)
(-1.826e-22 0 0)
(2.07175e-22 0 0)
(1.72714e-23 0 0)
(-2.523e-22 0 0)
(-8.03643e-23 0 0)
(2.18964e-21 0 0)
(4.66105e-21 0 0)
(-1.24827e-20 0 0)
(2.27262e-21 0 0)
(-2.27293e-21 0 0)
(1.24903e-20 0 0)
(-4.65101e-21 0 0)
(-2.24595e-21 0 0)
(-1.17173e-22 0 0)
(4.32818e-22 0 0)
(2.19647e-21 0 0)
(2.07636e-21 0 0)
(-1.68291e-20 0 0)
(1.89271e-20 0 0)
(-6.48739e-23 0 0)
(-1.69689e-20 0 0)
(2.13944e-20 0 0)
(-1.47463e-20 0 0)
(2.46016e-22 0 0)
(-4.54045e-22 0 0)
(1.51336e-20 0 0)
(-1.93429e-20 0 0)
(1.69905e-20 0 0)
(-1.94249e-20 0 0)
(1.49816e-20 0 0)
(-2.00619e-23 0 0)
(2.47041e-21 0 0)
(-1.48594e-20 0 0)
(-5.57206e-23 0 0)
(1.46659e-20 0 0)
(-2.30025e-21 0 0)
(2.26627e-21 0 0)
(-1.24664e-20 0 0)
(2.52714e-21 0 0)
(-2.22715e-21 0 0)
(1.24643e-20 0 0)
(-4.66828e-21 0 0)
(-2.18275e-21 0 0)
(8.40909e-23 0 0)
(1.94803e-22 0 0)
(-1.48509e-22 0 0)
(1.05881e-22 0 0)
(2.00237e-21 0 0)
(2.45411e-21 0 0)
(-1.47552e-20 0 0)
(1.92363e-20 0 0)
(-1.92362e-20 0 0)
(1.47561e-20 0 0)
(-2.45362e-21 0 0)
(-2.00984e-21 0 0)
(-1.2407e-22 0 0)
(1.86919e-22 0 0)
(4.84797e-23 0 0)
(-1.05315e-23 0 0)
(-7.95242e-24 0 0)
(-5.48993e-25 0 0)
(8.88348e-24 0 0)
(1.78836e-23 0 0)
(-4.62132e-23 0 0)
(-2.52946e-22 0 0)
(-1.68768e-23 0 0)
(2.3854e-21 0 0)
(4.47989e-21 0 0)
(-1.4675e-20 0 0)
(2.76999e-23 0 0)
(1.46021e-20 0 0)
(-4.90267e-21 0 0)
(-2.31834e-21 0 0)
(4.17766e-21 0 0)
(7.13127e-21 0 0)
(-2.72481e-20 0 0)
(2.36428e-20 0 0)
(-1.70937e-20 0 0)
(1.47022e-20 0 0)
(-2.68042e-21 0 0)
(-2.04669e-21 0 0)
(-1.79887e-22 0 0)
(4.40012e-23 0 0)
(4.73923e-22 0 0)
(2.19474e-21 0 0)
(-8.18475e-23 0 0)
(-2.12073e-20 0 0)
(3.17084e-20 0 0)
(-4.42443e-21 0 0)
(-2.13207e-20 0 0)
(1.6838e-20 0 0)
(-1.8408e-21 0 0)
(-2.11163e-21 0 0)
(-2.07518e-22 0 0)
(1.81732e-22 0 0)
(5.61691e-23 0 0)
(-8.37921e-24 0 0)
(-7.46842e-24 0 0)
(-5.3823e-25 0 0)
(6.80183e-25 0 0)
(1.85049e-25 0 0)
(-3.97782e-26 0 0)
(-3.14506e-26 0 0)
(2.47956e-26 0 0)
(9.94922e-26 0 0)
(-7.20944e-26 0 0)
(-1.05807e-24 0 0)
(-1.221e-24 0 0)
(7.895e-24 0 0)
(2.5956e-23 0 0)
(-2.84219e-23 0 0)
(-2.99393e-22 0 0)
(-2.7055e-22 0 0)
(2.37003e-21 0 0)
(6.87519e-21 0 0)
(-1.01916e-20 0 0)
(-1.47356e-20 0 0)
(1.44364e-20 0 0)
(1.01926e-20 0 0)
(-4.48072e-21 0 0)
(2.11004e-21 0 0)
(-1.44129e-20 0 0)
(3.08767e-22 0 0)
(1.4669e-20 0 0)
(-4.68541e-21 0 0)
(-2.25261e-21 0 0)
(1.98921e-21 0 0)
(2.46463e-21 0 0)
(-1.47826e-20 0 0)
(2.14084e-20 0 0)
(-1.4584e-20 0 0)
(2.27352e-21 0 0)
(-1.80019e-22 0 0)
(-4.28282e-21 0 0)
(1.23656e-20 0 0)
(-4.46305e-21 0 0)
(-2.19008e-21 0 0)
(-1.24495e-22 0 0)
(3.60102e-22 0 0)
(2.04804e-21 0 0)
(2.43615e-21 0 0)
(-1.47634e-20 0 0)
(1.92366e-20 0 0)
(-1.92353e-20 0 0)
(1.47562e-20 0 0)
(-2.45366e-21 0 0)
(-2.00979e-21 0 0)
(-1.24235e-22 0 0)
(1.85936e-22 0 0)
(4.82898e-23 0 0)
(-1.46146e-24 0 0)
(1.02867e-23 0 0)
(-5.41688e-23 0 0)
(-2.62418e-22 0 0)
(3.88876e-23 0 0)
(2.58333e-21 0 0)
(4.30711e-21 0 0)
(-1.68789e-20 0 0)
(-2.31212e-21 0 0)
(3.14173e-20 0 0)
(-2.14979e-20 0 0)
(2.0303e-21 0 0)
(6.63057e-21 0 0)
(-1.2066e-20 0 0)
(4.50968e-21 0 0)
(2.13278e-21 0 0)
(-2.20493e-21 0 0)
(-4.65224e-21 0 0)
(1.25007e-20 0 0)
(-4.40787e-21 0 0)
(-2.14412e-21 0 0)
(5.50679e-23 0 0)
(2.34901e-22 0 0)
(3.87542e-23 0 0)
(-1.72448e-23 0 0)
(-7.29853e-24 0 0)
(4.58405e-25 0 0)
(6.58372e-25 0 0)
(-6.19611e-25 0 0)
(3.92402e-25 0 0)
(7.83925e-24 0 0)
(9.85689e-24 0 0)
(-5.72743e-23 0 0)
(-1.97831e-22 0 0)
(1.88955e-22 0 0)
(2.23182e-21 0 0)
(2.2357e-21 0 0)
(-1.7271e-20 0 0)
(1.67645e-20 0 0)
(3.12309e-22 0 0)
(4.36837e-21 0 0)
(-1.29752e-20 0 0)
(-1.63851e-20 0 0)
(3.60173e-20 0 0)
(-2.60049e-21 0 0)
(-3.82237e-20 0 0)
(3.7977e-20 0 0)
(6.39317e-22 0 0)
(-3.60046e-20 0 0)
(3.57753e-20 0 0)
(-2.14352e-20 0 0)
(1.24504e-20 0 0)
(-1.36201e-22 0 0)
(4.74458e-21 0 0)
(-1.22017e-20 0 0)
(-1.51831e-20 0 0)
(3.18875e-20 0 0)
(-2.1709e-20 0 0)
(3.5876e-20 0 0)
(-4.85334e-20 0 0)
(2.39792e-20 0 0)
(2.25333e-21 0 0)
(-2.12834e-20 0 0)
(3.13917e-20 0 0)
(-2.14105e-20 0 0)
(1.47758e-20 0 0)
(-1.92216e-20 0 0)
(1.7142e-20 0 0)
(-9.39735e-23 0 0)
(-1.66605e-20 0 0)
(2.11245e-20 0 0)
(-1.66433e-20 0 0)
(-2.02359e-22 0 0)
(1.67707e-20 0 0)
(-1.8846e-20 0 0)
(1.90062e-20 0 0)
(-1.73393e-20 0 0)
(-1.64779e-21 0 0)
(1.87894e-20 0 0)
(3.71768e-22 0 0)
(-3.43285e-20 0 0)
(3.62408e-20 0 0)
(-1.86129e-20 0 0)
(1.70599e-20 0 0)
(-1.9886e-20 0 0)
(-6.28162e-21 0 0)
(3.08627e-20 0 0)
(-1.67936e-21 0 0)
(-2.71071e-20 0 0)
(3.05865e-20 0 0)
(-4.89225e-20 0 0)
(2.94778e-20 0 0)
(1.19598e-20 0 0)
(1.7044e-20 0 0)
(-4.70213e-20 0 0)
(7.5152e-21 0 0)
(2.16493e-20 0 0)
(-4.16233e-21 0 0)
(-2.39882e-20 0 0)
(2.94305e-20 0 0)
(-8.78727e-21 0 0)
(-8.7489e-21 0 0)
(1.44461e-20 0 0)
(-1.29823e-23 0 0)
(-1.4419e-20 0 0)
(8.93241e-21 0 0)
(8.80511e-21 0 0)
(-3.11501e-20 0 0)
(2.07103e-20 0 0)
(1.46547e-20 0 0)
(-4.07322e-20 0 0)
(5.27261e-20 0 0)
(-3.37384e-20 0 0)
(3.03273e-21 0 0)
(3.91116e-21 0 0)
(-3.93022e-21 0 0)
(-7.16804e-21 0 0)
(2.97557e-20 0 0)
(-1.93578e-20 0 0)
(2.66199e-22 0 0)
(-1.67659e-20 0 0)
(3.41128e-20 0 0)
(-2.1781e-20 0 0)
(-2.15462e-21 0 0)
(2.09363e-20 0 0)
(-1.42561e-20 0 0)
(-1.22363e-20 0 0)
(2.33381e-20 0 0)
(-1.91869e-20 0 0)
(-4.41549e-21 0 0)
(3.37833e-20 0 0)
(-1.93793e-20 0 0)
(-1.92908e-20 0 0)
(1.90266e-20 0 0)
(1.96413e-20 0 0)
(-3.14081e-20 0 0)
(6.28142e-21 0 0)
(-4.43622e-23 0 0)
(-6.58266e-21 0 0)
(3.12493e-20 0 0)
(-1.68228e-20 0 0)
(-1.23148e-20 0 0)
(4.51293e-21 0 0)
(-2.11007e-21 0 0)
(1.22328e-20 0 0)
(-2.48208e-21 0 0)
(2.75311e-21 0 0)
(-1.24863e-20 0 0)
(-3.11717e-22 0 0)
(-6.54992e-21 0 0)
(3.16805e-20 0 0)
(1.94529e-21 0 0)
(-4.81472e-20 0 0)
(2.35527e-20 0 0)
(1.50648e-20 0 0)
(-2.60811e-20 0 0)
(3.12206e-20 0 0)
(-1.71162e-20 0 0)
(2.66874e-21 0 0)
(-1.25343e-20 0 0)
(2.1569e-20 0 0)
(-1.72322e-20 0 0)
(-3.35753e-22 0 0)
(1.91558e-20 0 0)
(-1.43642e-20 0 0)
(4.44098e-21 0 0)
(-1.69954e-20 0 0)
(1.24929e-20 0 0)
(1.00197e-20 0 0)
(-4.54401e-21 0 0)
(2.0855e-21 0 0)
(-1.22314e-20 0 0)
(4.96337e-21 0 0)
(2.17831e-21 0 0)
(-2.4365e-21 0 0)
(-4.4979e-21 0 0)
(1.47625e-20 0 0)
(-1.93628e-21 0 0)
(-1.92788e-20 0 0)
(1.48281e-20 0 0)
(-4.35787e-21 0 0)
(1.45489e-20 0 0)
(-1.71664e-20 0 0)
(4.80127e-21 0 0)
(6.55576e-21 0 0)
(-1.4394e-20 0 0)
(1.81237e-21 0 0)
(1.70968e-20 0 0)
(-1.92739e-20 0 0)
(1.66701e-20 0 0)
(-1.90958e-20 0 0)
(1.70186e-20 0 0)
(5.38044e-23 0 0)
(-1.67737e-20 0 0)
(1.90477e-20 0 0)
(-1.92458e-20 0 0)
(1.49857e-20 0 0)
(-2.57182e-22 0 0)
(2.56403e-22 0 0)
(-1.70872e-20 0 0)
(1.71505e-20 0 0)
(-2.22407e-21 0 0)
(-2.21752e-21 0 0)
(-1.95037e-22 0 0)
(1.86461e-22 0 0)
(1.12318e-22 0 0)
(1.87476e-22 0 0)
(-1.80266e-22 0 0)
(-2.19712e-21 0 0)
(-2.32894e-21 0 0)
(1.67653e-20 0 0)
(-1.6783e-20 0 0)
(4.48735e-21 0 0)
(4.4973e-21 0 0)
(-1.68213e-20 0 0)
(1.65311e-20 0 0)
(-2.38472e-21 0 0)
(-5.37096e-23 0 0)
(4.23435e-21 0 0)
(-1.22948e-20 0 0)
(4.73318e-21 0 0)
(2.15855e-21 0 0)
(-2.44967e-21 0 0)
(-4.72372e-21 0 0)
(1.46332e-20 0 0)
(5.67908e-23 0 0)
(-1.44386e-20 0 0)
(4.54505e-21 0 0)
(1.78691e-22 0 0)
(-4.63815e-21 0 0)
(1.24655e-20 0 0)
(-2.26409e-21 0 0)
(1.39884e-22 0 0)
(-1.68991e-20 0 0)
(1.71982e-20 0 0)
(-2.23542e-21 0 0)
(-2.22414e-21 0 0)
(-1.87529e-22 0 0)
(1.97298e-22 0 0)
(5.70269e-23 0 0)
(-9.84623e-24 0 0)
(-7.83625e-24 0 0)
(-4.54463e-25 0 0)
(7.34226e-25 0 0)
(1.86811e-25 0 0)
(-4.13118e-26 0 0)
(-2.78137e-26 0 0)
(-3.11376e-27 0 0)
(2.47502e-27 0 0)
(2.17721e-26 0 0)
(4.03802e-26 0 0)
(-1.28897e-25 0 0)
(-6.20527e-25 0 0)
(1.06906e-25 0 0)
(6.12091e-24 0 0)
(1.00606e-23 0 0)
(-4.02535e-23 0 0)
(-1.68978e-22 0 0)
(7.85794e-23 0 0)
(1.75637e-21 0 0)
(2.42925e-21 0 0)
(-1.23791e-20 0 0)
(2.37724e-20 0 0)
(-3.37289e-20 0 0)
(1.45751e-20 0 0)
(1.00295e-20 0 0)
(-8.75547e-21 0 0)
(1.44618e-20 0 0)
(-1.68157e-20 0 0)
(2.37723e-21 0 0)
(2.4232e-21 0 0)
(2.36994e-21 0 0)
(2.07804e-21 0 0)
(-1.70742e-20 0 0)
(1.6777e-20 0 0)
(-2.08526e-21 0 0)
(3.36417e-25 0 0)
(2.09236e-21 0 0)
(-1.67661e-20 0 0)
(1.7019e-20 0 0)
(-2.2833e-21 0 0)
(-2.21446e-21 0 0)
(-1.80681e-22 0 0)
(1.97582e-22 0 0)
(5.63638e-23 0 0)
(-1.00015e-23 0 0)
(-7.79586e-24 0 0)
(-4.31626e-25 0 0)
(7.2856e-25 0 0)
(1.83139e-25 0 0)
(1.3291e-26 0 0)
(8.39371e-26 0 0)
(-3.27318e-25 0 0)
(-1.65056e-24 0 0)
(1.26634e-25 0 0)
(1.60203e-23 0 0)
(2.78005e-23 0 0)
(-1.02698e-22 0 0)
(-4.51488e-22 0 0)
(1.63589e-22 0 0)
(4.60886e-21 0 0)
(6.78155e-21 0 0)
(-3.17468e-20 0 0)
(1.65229e-20 0 0)
(1.25235e-20 0 0)
(-2.28997e-21 0 0)
(4.3665e-21 0 0)
(-2.92321e-20 0 0)
(1.95454e-20 0 0)
(-4.51049e-21 0 0)
(1.02506e-20 0 0)
(-4.84912e-21 0 0)
(-1.99234e-21 0 0)
(1.29147e-22 0 0)
(2.3291e-22 0 0)
(3.87845e-23 0 0)
(-8.9181e-25 0 0)
(-5.29561e-23 0 0)
(-2.52335e-22 0 0)
(-1.56763e-23 0 0)
(2.38697e-21 0 0)
(4.479e-21 0 0)
(-1.46908e-20 0 0)
(7.05368e-24 0 0)
(1.47149e-20 0 0)
(-4.50127e-21 0 0)
(-2.66876e-21 0 0)
(-2.91024e-22 0 0)
(2.38813e-21 0 0)
(6.85025e-21 0 0)
(-8.09409e-21 0 0)
(-1.02345e-20 0 0)
(2.39544e-21 0 0)
(1.47081e-20 0 0)
(-6.91307e-21 0 0)
(-7.10349e-21 0 0)
(1.25555e-20 0 0)
(-1.7773e-21 0 0)
(2.37461e-21 0 0)
(-1.46523e-20 0 0)
(2.28176e-22 0 0)
(1.47281e-20 0 0)
(-4.50486e-21 0 0)
(-2.40379e-21 0 0)
(8.00254e-23 0 0)
(4.60177e-22 0 0)
(-1.82622e-22 0 0)
(-2.40317e-21 0 0)
(-2.1398e-21 0 0)
(1.89267e-20 0 0)
(-1.47613e-20 0 0)
(-1.24992e-20 0 0)
(2.38297e-20 0 0)
(-1.45759e-20 0 0)
(-1.30168e-22 0 0)
(-2.5098e-21 0 0)
(1.26896e-20 0 0)
(-4.59629e-21 0 0)
(-2.19976e-21 0 0)
(6.33664e-23 0 0)
(2.42156e-22 0 0)
(4.74235e-23 0 0)
(-2.18879e-25 0 0)
(-5.37279e-23 0 0)
(-2.52575e-22 0 0)
(-1.57337e-23 0 0)
(2.38705e-21 0 0)
(4.48001e-21 0 0)
(-1.46894e-20 0 0)
(-1.11575e-25 0 0)
(1.46886e-20 0 0)
(-4.4805e-21 0 0)
(-2.37965e-21 0 0)
(3.403e-23 0 0)
(2.1501e-22 0 0)
(-1.89082e-22 0 0)
(-8.05522e-23 0 0)
(2.12571e-21 0 0)
(4.46376e-21 0 0)
(-1.23016e-20 0 0)
(4.4802e-21 0 0)
(-7.46748e-26 0 0)
(-4.48009e-21 0 0)
(1.23025e-20 0 0)
(-4.46334e-21 0 0)
(-2.1342e-21 0 0)
(6.12447e-23 0 0)
(2.35312e-22 0 0)
(5.3113e-23 0 0)
(9.8009e-24 0 0)
(-1.02149e-22 0 0)
(-4.31393e-22 0 0)
(1.25194e-22 0 0)
(4.35022e-21 0 0)
(6.68786e-21 0 0)
(-2.94447e-20 0 0)
(2.15851e-20 0 0)
(-3.01983e-22 0 0)
(-4.4762e-21 0 0)
(-2.70665e-21 0 0)
(1.71596e-20 0 0)
(-1.66536e-20 0 0)
(2.32623e-21 0 0)
(4.72848e-23 0 0)
(-4.24562e-21 0 0)
(1.2342e-20 0 0)
(-4.48052e-21 0 0)
(-2.14127e-21 0 0)
(6.32127e-23 0 0)
(2.36147e-22 0 0)
(3.81404e-23 0 0)
(-1.74929e-23 0 0)
(-7.30836e-24 0 0)
(4.46113e-25 0 0)
(8.49631e-25 0 0)
(1.14317e-25 0 0)
(-6.70881e-26 0 0)
(-2.41952e-26 0 0)
(1.49346e-27 0 0)
(-3.55373e-27 0 0)
(-3.34439e-27 0 0)
(5.60306e-26 0 0)
(1.36904e-25 0 0)
(-2.89633e-25 0 0)
(-1.8329e-24 0 0)
(-5.51699e-25 0 0)
(1.65095e-23 0 0)
(3.51597e-23 0 0)
(-9.40456e-23 0 0)
(-5.06118e-22 0 0)
(-1.79699e-23 0 0)
(4.80199e-21 0 0)
(8.86549e-21 0 0)
(-2.98187e-20 0 0)
(1.07465e-22 0 0)
(3.37756e-20 0 0)
(-2.02644e-21 0 0)
(-3.42194e-20 0 0)
(1.92694e-20 0 0)
(-4.04066e-21 0 0)
(1.03685e-20 0 0)
(-4.87617e-21 0 0)
(-2.01029e-21 0 0)
(1.29852e-22 0 0)
(2.41797e-22 0 0)
(4.06506e-23 0 0)
(-6.66658e-23 0 0)
(-1.86097e-22 0 0)
(1.33969e-22 0 0)
(1.95492e-21 0 0)
(2.26462e-21 0 0)
(-1.45659e-20 0 0)
(2.13867e-20 0 0)
(-1.71598e-20 0 0)
(-2.02735e-21 0 0)
(1.67155e-20 0 0)
(-2.00164e-21 0 0)
(-1.92758e-20 0 0)
(1.69232e-20 0 0)
(-2.28114e-21 0 0)
(-2.1775e-21 0 0)
(2.18972e-21 0 0)
(4.66896e-21 0 0)
(-1.46331e-20 0 0)
(-9.94516e-24 0 0)
(1.46813e-20 0 0)
(-4.47309e-21 0 0)
(-2.36807e-21 0 0)
(-2.16356e-23 0 0)
(9.95996e-24 0 0)
(-2.67751e-23 0 0)
(2.17165e-21 0 0)
(4.65261e-21 0 0)
(-1.24748e-20 0 0)
(2.28336e-21 0 0)
(-2.32964e-21 0 0)
(1.22939e-20 0 0)
(-4.46323e-21 0 0)
(-3.01003e-23 0 0)
(2.10062e-21 0 0)
(-1.67181e-20 0 0)
(1.93496e-20 0 0)
(1.94479e-21 0 0)
(-1.6976e-20 0 0)
(2.01722e-21 0 0)
(1.95569e-20 0 0)
(-1.69552e-20 0 0)
(-3.02472e-22 0 0)
(-2.1235e-21 0 0)
(1.46994e-20 0 0)
(-2.40493e-21 0 0)
(-1.69705e-20 0 0)
(2.16305e-20 0 0)
(-1.47099e-20 0 0)
(2.94492e-22 0 0)
(-2.47222e-22 0 0)
(1.48992e-20 0 0)
(-2.18194e-20 0 0)
(1.47468e-20 0 0)
(1.77339e-22 0 0)
(2.51516e-21 0 0)
(-1.4819e-20 0 0)
(2.07223e-22 0 0)
(1.46791e-20 0 0)
(-4.86704e-21 0 0)
(-2.51418e-21 0 0)
)
;

boundaryField
{
    left
    {
        type            noSlip;
    }
    right
    {
        type            noSlip;
    }
    empty
    {
        type            empty;
    }
}


// ************************************************************************* //
