/*--------------------------------*- C++ -*----------------------------------*\
| =========                 |                                                 |
| \\      /  F ield         | OpenFOAM: The Open Source CFD Toolbox           |
|  \\    /   O peration     | Version:  2106                                  |
|   \\  /    A nd           | Website:  www.openfoam.com                      |
|    \\/     M anipulation  |                                                 |
\*---------------------------------------------------------------------------*/
FoamFile
{
    version     2.0;
    format      ascii;
    arch        "LSB;label=32;scalar=64";
    class       volVectorField;
    location    "0.365";
    object      U;
}
// * * * * * * * * * * * * * * * * * * * * * * * * * * * * * * * * * * * * * //

dimensions      [0 1 -1 0 0 0 0];

internalField   nonuniform List<vector> 
11200
(
(0.662462406853 0.150569442752 0)
(0.55894868205 0.103243387476 0)
(0.383850751723 0.0513512232222 0)
(0.28374761733 0.0248708543826 0)
(0.232075299474 0.0124170445027 0)
(0.201908622362 0.00662281628304 0)
(0.183197973538 0.00380291405895 0)
(0.171276532599 0.00231586989981 0)
(0.163510352251 0.00146450656241 0)
(0.15838881624 0.000944892537056 0)
(0.15500667732 0.000615177037031 0)
(0.152786721519 0.000402233885193 0)
(0.151346570439 0.00026423218512 0)
(0.150428332637 0.000175250028153 0)
(0.149856727952 0.000118360521767 0)
(0.149512526673 8.21598237308e-05 0)
(0.149314966768 5.88657616803e-05 0)
(0.149209605743 4.33153460169e-05 0)
(0.14915974698 3.29341096213e-05 0)
(0.149142506553 2.81856629814e-05 0)
(0.149144660468 2.7683863153e-05 0)
(0.149156932933 2.98898030773e-05 0)
(0.149172549819 3.30501983761e-05 0)
(0.14918809126 3.59658092515e-05 0)
(0.149202292655 3.86013995681e-05 0)
(0.149214554089 4.10406040868e-05 0)
(0.149224707866 4.3318039445e-05 0)
(0.14923286083 4.54648798579e-05 0)
(0.149239249728 4.75203114969e-05 0)
(0.149244156758 4.95311660296e-05 0)
(0.149247866996 5.15595031988e-05 0)
(0.14925064783 5.36966080492e-05 0)
(0.149252696392 5.60253207213e-05 0)
(0.149254183477 5.84070353412e-05 0)
(0.149255242097 6.07684030804e-05 0)
(0.149255958264 6.30891738601e-05 0)
(0.149256429019 6.53805784483e-05 0)
(0.149256737987 6.76550737184e-05 0)
(0.149256938828 6.99246254761e-05 0)
(0.149257060977 7.2195214048e-05 0)
(0.149257125156 7.44677446114e-05 0)
(0.149257148702 7.67431901367e-05 0)
(0.149257143407 7.90212540547e-05 0)
(0.149257117985 8.13011117081e-05 0)
(0.149257079059 8.35808510226e-05 0)
(0.149257030948 8.58581669601e-05 0)
(0.149256977578 8.81303429311e-05 0)
(0.149256923096 9.03941683883e-05 0)
(0.149256871922 9.26465727696e-05 0)
(0.149256829259 9.48845546513e-05 0)
(0.149256802009 9.71049629957e-05 0)
(0.149256800086 9.93048624142e-05 0)
(0.149256837136 0.000101481242053 0)
(0.149256932037 0.000103630652334 0)
(0.149257110975 0.000105748612067 0)
(0.149257409845 0.000107829719139 0)
(0.149257879782 0.000109866911614 0)
(0.149258596346 0.000111850510733 0)
(0.149259670743 0.000113766653723 0)
(0.149261258968 0.000115591195413 0)
(0.149263608358 0.00011726934387 0)
(0.149267128187 0.000118717034497 0)
(0.14927228392 0.000119975788288 0)
(0.149279725926 0.000121236332931 0)
(0.149290485999 0.000122964365022 0)
(0.149306082878 0.00012533914218 0)
(0.14932890721 0.000128119989914 0)
(0.149362655824 0.000131080359125 0)
(0.14941291932 0.000134005305886 0)
(0.149487926384 0.000136782816645 0)
(0.149599614057 0.000140691291256 0)
(0.149770819952 0.000151555086019 0)
(0.150039306525 0.000172278430153 0)
(0.150468222862 0.000202525844204 0)
(0.151193361926 0.000232448712031 0)
(0.152492352508 0.000191649380152 0)
(0.155021313033 -0.000216759903992 0)
(0.162374477533 -0.00210998129131 0)
(0.187702083607 -0.0107879980594 0)
(0.204356773074 -0.0496568873002 0)
(0.965408256323 0.289214706359 0)
(0.961962862217 0.252656037747 0)
(0.823574393258 0.159021438797 0)
(0.698139369783 0.0959957283675 0)
(0.61022546396 0.0582481114976 0)
(0.548971490055 0.0362148508536 0)
(0.506588884224 0.0231612831514 0)
(0.477567260051 0.0151375137027 0)
(0.457745477546 0.0100177538524 0)
(0.444228440528 0.00665814007589 0)
(0.435053272032 0.0044155551749 0)
(0.428873085135 0.00290686452502 0)
(0.424754162417 0.00189105669489 0)
(0.422046606196 0.00121004315797 0)
(0.420297762973 0.00075716081809 0)
(0.419193148028 0.000459253006298 0)
(0.418515537252 0.000265851883318 0)
(0.418116385044 0.000142396320428 0)
(0.417895776534 6.61058670854e-05 0)
(0.417786720252 2.30883956862e-05 0)
(0.417745300111 1.40382225847e-06 0)
(0.417742017125 -1.01669856723e-05 0)
(0.41775660925 -1.37181993479e-05 0)
(0.41777856253 -1.32714664417e-05 0)
(0.417802851488 -1.08390656592e-05 0)
(0.417826216799 -7.49582587051e-06 0)
(0.417846965157 -3.879301767e-06 0)
(0.417864497785 -3.59472208233e-07 0)
(0.417878818366 2.86221557755e-06 0)
(0.417890242509 5.68177668164e-06 0)
(0.417899242386 8.03447436222e-06 0)
(0.417906311398 9.83618948941e-06 0)
(0.417911651167 1.1005145639e-05 0)
(0.417915495741 1.18578748681e-05 0)
(0.417918222644 1.26804081391e-05 0)
(0.417920107239 1.34368123988e-05 0)
(0.417921391964 1.41103446474e-05 0)
(0.417922267748 1.4725083701e-05 0)
(0.417922861203 1.53103506007e-05 0)
(0.417923243732 1.58795835678e-05 0)
(0.417923468087 1.64328541569e-05 0)
(0.417923578013 1.69755626051e-05 0)
(0.417923604215 1.75110224444e-05 0)
(0.417923569053 1.80429689001e-05 0)
(0.41792348897 1.85744300465e-05 0)
(0.417923376064 1.9107593733e-05 0)
(0.417923240573 1.96446633722e-05 0)
(0.417923093109 2.01873241127e-05 0)
(0.417922945576 2.07375498724e-05 0)
(0.417922811511 2.1297446628e-05 0)
(0.417922708795 2.18670222878e-05 0)
(0.417922662523 2.24464796049e-05 0)
(0.417922706811 2.30358433585e-05 0)
(0.41792288853 2.36346140285e-05 0)
(0.417923273576 2.42415261613e-05 0)
(0.417923954426 2.48561319938e-05 0)
(0.417925062792 2.54761783494e-05 0)
(0.417926791925 2.60908472745e-05 0)
(0.417929421979 2.66830306206e-05 0)
(0.417933342568 2.72188304197e-05 0)
(0.417939156667 2.76498517772e-05 0)
(0.417947963926 2.79280875679e-05 0)
(0.417961246999 2.82180303001e-05 0)
(0.417981149358 2.77594306824e-05 0)
(0.418010435015 2.51423386018e-05 0)
(0.418052706271 1.93071655335e-05 0)
(0.418114158778 9.44698631386e-06 0)
(0.418204913098 -5.97301899235e-06 0)
(0.418340568671 -2.94770467282e-05 0)
(0.418546016342 -6.47442437321e-05 0)
(0.418863146083 -0.000115964394188 0)
(0.419361545846 -0.000188106161104 0)
(0.420154669916 -0.000307875879905 0)
(0.421446154 -0.00053283291032 0)
(0.423627602944 -0.000999786432725 0)
(0.427417633507 -0.00209040292276 0)
(0.434238254331 -0.0048561570547 0)
(0.448264154145 -0.0122533962941 0)
(0.474641973616 -0.0342402084667 0)
(0.478161636737 -0.0987655939233 0)
(1.02222096681 0.238416185683 0)
(1.08213753161 0.295926649729 0)
(1.03447722742 0.239503062518 0)
(0.954615409538 0.174290160089 0)
(0.879992054947 0.121345463897 0)
(0.818614433073 0.0830993796811 0)
(0.771410845552 0.0567316628684 0)
(0.736634382632 0.0387409645161 0)
(0.711624421205 0.0264327831781 0)
(0.693916605862 0.017973100946 0)
(0.681541392443 0.0121424441115 0)
(0.673000096183 0.0081249041214 0)
(0.667180627226 0.00536631658809 0)
(0.663271653277 0.00348443976617 0)
(0.660688477946 0.00221255592524 0)
(0.659014149377 0.00136337599084 0)
(0.65795446371 0.000805237822525 0)
(0.657304165745 0.00044591076295 0)
(0.656921742146 0.000221062444914 0)
(0.65671017107 8.55748585581e-05 0)
(0.656603300476 8.3516394725e-06 0)
(0.656561745033 -3.37260720978e-05 0)
(0.656557837654 -5.6860512248e-05 0)
(0.656571305574 -6.68792871247e-05 0)
(0.656592827041 -6.84864375587e-05 0)
(0.65661663855 -6.55648508506e-05 0)
(0.656639432891 -6.05538625453e-05 0)
(0.656659603218 -5.4864125141e-05 0)
(0.656676564187 -4.9279940076e-05 0)
(0.656690293478 -4.4207966816e-05 0)
(0.656701037815 -3.98433966572e-05 0)
(0.656709181966 -3.63048450344e-05 0)
(0.656715421531 -3.36986158347e-05 0)
(0.656720447119 -3.18594028556e-05 0)
(0.65672430124 -3.08133553272e-05 0)
(0.656726999094 -3.03063334467e-05 0)
(0.656728853521 -3.02513614373e-05 0)
(0.656730143367 -3.05625486807e-05 0)
(0.656731036227 -3.10902686751e-05 0)
(0.656731621785 -3.17522812414e-05 0)
(0.656731974617 -3.25190293836e-05 0)
(0.656732160234 -3.33552803298e-05 0)
(0.656732223614 -3.42365496188e-05 0)
(0.65673219897 -3.5143865936e-05 0)
(0.656732110957 -3.60616091938e-05 0)
(0.656731978155 -3.69790813552e-05 0)
(0.656731816607 -3.78886442277e-05 0)
(0.656731642159 -3.87846113088e-05 0)
(0.656731472385 -3.96627139449e-05 0)
(0.656731325645 -4.05171501034e-05 0)
(0.656731226379 -4.13448097613e-05 0)
(0.656731210542 -4.21417666311e-05 0)
(0.656731327302 -4.29061992384e-05 0)
(0.656731645096 -4.36415584284e-05 0)
(0.656732261831 -4.43621802628e-05 0)
(0.656733314626 -4.50986516719e-05 0)
(0.65673499265 -4.59056794931e-05 0)
(0.656737574339 -4.68789939119e-05 0)
(0.656741467363 -4.81429155156e-05 0)
(0.656747268235 -4.99170822315e-05 0)
(0.656755915585 -5.27164890217e-05 0)
(0.656769062384 -5.7537405152e-05 0)
(0.656788009127 -6.51866978067e-05 0)
(0.656814200062 -7.6524345967e-05 0)
(0.656851497998 -9.32516040079e-05 0)
(0.656906609092 -0.000117760126583 0)
(0.656988907226 -0.000153251529612 0)
(0.657112185556 -0.000205014208638 0)
(0.657298259799 -0.000281568193646 0)
(0.657582521952 -0.000396787004142 0)
(0.658023097429 -0.000575017302757 0)
(0.658709173242 -0.000863520050402 0)
(0.659787790129 -0.00135235951813 0)
(0.661516463036 -0.0022146357153 0)
(0.66433730967 -0.00381285425252 0)
(0.668946004173 -0.00694573928777 0)
(0.676368293646 -0.0133517841334 0)
(0.688611795886 -0.0268417562252 0)
(0.705235180908 -0.0563157461982 0)
(0.700485558431 -0.11307578224 0)
(1.02251475573 0.170807151504 0)
(1.10138975878 0.27649647607 0)
(1.11752426178 0.266664795665 0)
(1.09214660507 0.219901694763 0)
(1.05187815368 0.168168843022 0)
(1.01020821884 0.123567391848 0)
(0.973494680854 0.0888375166106 0)
(0.943864540768 0.0630063665969 0)
(0.921142778445 0.0442231991396 0)
(0.904284045366 0.0307423877261 0)
(0.892074835213 0.0211562889534 0)
(0.883404471016 0.0143954631922 0)
(0.877352625222 0.00966794270165 0)
(0.873197656803 0.00639383139861 0)
(0.870392874944 0.00415115862726 0)
(0.86853398111 0.00263448426271 0)
(0.867327578949 0.00162401041169 0)
(0.866564170185 0.000962669215943 0)
(0.866096406938 0.000539115709937 0)
(0.865822158794 0.000275147000548 0)
(0.865671308703 0.000117062100021 0)
(0.865595051416 2.87867815617e-05 0)
(0.865563986788 -1.93299996953e-05 0)
(0.865561171951 -4.12661020033e-05 0)
(0.865572508629 -4.76699305664e-05 0)
(0.865589507563 -4.55290393181e-05 0)
(0.865607809876 -3.91593532798e-05 0)
(0.865625141716 -3.11484746577e-05 0)
(0.865640419338 -2.29674744492e-05 0)
(0.865653275626 -1.53837784011e-05 0)
(0.865663742178 -8.72575830695e-06 0)
(0.86567202247 -3.04623813551e-06 0)
(0.865678369447 1.73248390283e-06 0)
(0.865682989929 5.4640781717e-06 0)
(0.865686302112 8.0304181083e-06 0)
(0.865688693532 9.78738592886e-06 0)
(0.865690318608 1.11410787055e-05 0)
(0.865691473876 1.22857351608e-05 0)
(0.865692334701 1.32541446174e-05 0)
(0.865692919652 1.41399116925e-05 0)
(0.865693277145 1.49344446059e-05 0)
(0.865693472017 1.56600954827e-05 0)
(0.865693542728 1.6332960682e-05 0)
(0.865693520791 1.69689847337e-05 0)
(0.865693428836 1.75830813898e-05 0)
(0.86569328303 1.81855078003e-05 0)
(0.865693098474 1.87836353507e-05 0)
(0.865692891622 1.93833768355e-05 0)
(0.865692683602 1.99918058795e-05 0)
(0.865692497499 2.06198174372e-05 0)
(0.86569236331 2.12530184699e-05 0)
(0.865692323443 2.18776199566e-05 0)
(0.865692431604 2.24764086284e-05 0)
(0.865692757603 2.30234445117e-05 0)
(0.865693396609 2.3483323818e-05 0)
(0.86569448157 2.38213956018e-05 0)
(0.865696196275 2.39971087586e-05 0)
(0.86569883215 2.38892472802e-05 0)
(0.86570279732 2.33540428415e-05 0)
(0.865708504594 2.19748714491e-05 0)
(0.865716427844 1.91917605242e-05 0)
(0.865728189842 1.42901859238e-05 0)
(0.865746373915 5.44112844762e-06 0)
(0.865773951085 -8.93136422721e-06 0)
(0.865814791573 -3.0831585348e-05 0)
(0.865874816966 -6.42215180344e-05 0)
(0.865963366779 -0.0001159733756 0)
(0.866094954477 -0.000196846887612 0)
(0.866292127594 -0.000324098456657 0)
(0.866589700454 -0.000526196212909 0)
(0.867041267421 -0.000852076230011 0)
(0.867731876827 -0.00138865850919 0)
(0.868797849571 -0.00228468515292 0)
(0.8704523907 -0.00381469830765 0)
(0.873014302658 -0.00650286669083 0)
(0.876882343362 -0.0113584638773 0)
(0.882378804795 -0.0202503277552 0)
(0.889686586195 -0.0364487265809 0)
(0.896360300575 -0.0654848777897 0)
(0.886529523104 -0.110030601537 0)
(1.01287875183 0.118961023388 0)
(1.08820670827 0.231806935376 0)
(1.13741366989 0.253106762157 0)
(1.15409086395 0.228992750545 0)
(1.14994210253 0.188368355496 0)
(1.13538464421 0.146579840335 0)
(1.1175889326 0.110150961729 0)
(1.10059498106 0.0808162178497 0)
(1.08612454435 0.0582265718553 0)
(1.07459089158 0.0413189801278 0)
(1.06579142773 0.028916014985 0)
(1.05928794405 0.0199600943942 0)
(1.05459971303 0.0135815542373 0)
(1.05129070906 0.009097437046 0)
(1.04899978557 0.00598614789486 0)
(1.04744333701 0.00385696013429 0)
(1.04640645828 0.00242159158769 0)
(1.04573053728 0.00147014393692 0)
(1.04530097583 0.000851696224005 0)
(1.04503647235 0.000459011148097 0)
(1.04488010312 0.000216752169564 0)
(1.04479247999 7.30137122436e-05 0)
(1.04474860777 -5.50734971303e-06 0)
(1.04473170116 -4.40113073384e-05 0)
(1.04472944313 -5.93882374021e-05 0)
(1.04473491953 -6.17216837982e-05 0)
(1.04474385964 -5.72479304434e-05 0)
(1.04475373564 -4.98058472369e-05 0)
(1.04476316807 -4.16469073007e-05 0)
(1.04477148687 -3.39916956695e-05 0)
(1.04477844169 -2.7426357914e-05 0)
(1.04478401962 -2.21546566064e-05 0)
(1.04478836709 -1.81312852659e-05 0)
(1.04479169488 -1.51430104447e-05 0)
(1.04479425781 -1.28116775132e-05 0)
(1.04479634992 -1.10155578238e-05 0)
(1.04479808174 -9.52670766605e-06 0)
(1.04479939866 -8.2376210718e-06 0)
(1.04480037105 -7.21939067049e-06 0)
(1.04480105012 -6.55116744148e-06 0)
(1.0448014575 -6.17233184421e-06 0)
(1.04480168062 -5.96426776124e-06 0)
(1.04480176459 -5.87558901786e-06 0)
(1.04480174782 -5.85858156254e-06 0)
(1.04480165557 -5.87234772911e-06 0)
(1.04480150537 -5.89684208885e-06 0)
(1.04480131447 -5.92217852191e-06 0)
(1.04480110343 -5.94398396259e-06 0)
(1.04480089961 -5.96506792332e-06 0)
(1.04480071041 -5.99977632132e-06 0)
(1.0448005495 -6.03166001361e-06 0)
(1.04480046193 -6.05798233048e-06 0)
(1.04480050333 -6.08571919863e-06 0)
(1.04480075034 -6.12985960105e-06 0)
(1.04480132663 -6.22852740736e-06 0)
(1.04480241233 -6.50317441741e-06 0)
(1.04480419296 -7.2061861047e-06 0)
(1.04480696326 -8.61917000986e-06 0)
(1.04481103353 -1.12305767701e-05 0)
(1.04481687705 -1.50645301277e-05 0)
(1.04482550865 -2.00024154383e-05 0)
(1.04483807571 -2.62374044347e-05 0)
(1.04485587573 -3.60526133904e-05 0)
(1.04488120997 -5.24264519369e-05 0)
(1.04491754794 -7.95768899105e-05 0)
(1.0449700439 -0.000123748250945 0)
(1.04504630024 -0.00019470654909 0)
(1.04515766451 -0.000308028915026 0)
(1.04532128212 -0.000488876659093 0)
(1.04556301299 -0.000778265564228 0)
(1.04592152858 -0.00124350154901 0)
(1.04645466973 -0.00199620531241 0)
(1.04724652836 -0.00322688178822 0)
(1.04841001333 -0.00526625174768 0)
(1.05007238001 -0.00869105723328 0)
(1.05229021608 -0.0144948668273 0)
(1.05481945644 -0.0242844262083 0)
(1.05687048393 -0.040369228836 0)
(1.0557376429 -0.0655880300691 0)
(1.0421240908 -0.0994433355423 0)
(1.00447483527 0.0814039983572 0)
(1.06917237302 0.181288538263 0)
(1.13080568466 0.216950417128 0)
(1.17374999957 0.210789153324 0)
(1.19865264499 0.183690074122 0)
(1.21019986969 0.149751680053 0)
(1.21350254289 0.116779140262 0)
(1.21251722088 0.088220673475 0)
(1.2097309578 0.0650481459902 0)
(1.20651116507 0.0470209034618 0)
(1.20351909596 0.0334068026256 0)
(1.20101140894 0.0233557262099 0)
(1.19903440252 0.0160720071541 0)
(1.19753872519 0.0108795068017 0)
(1.19644125464 0.00723418123431 0)
(1.19565551975 0.00471351194312 0)
(1.19510481806 0.00299762282041 0)
(1.19472639907 0.00184915493347 0)
(1.19447141179 0.00109495514466 0)
(1.19430309487 0.000610606833027 0)
(1.19419444855 0.000307982821352 0)
(1.19412615648 0.000125765550117 0)
(1.19408509874 2.22208066769e-05 0)
(1.19406183149 -3.24538650243e-05 0)
(1.19404952235 -5.72721539617e-05 0)
(1.19404401434 -6.45977281735e-05 0)
(1.19404250683 -6.23759283223e-05 0)
(1.19404318125 -5.55212934031e-05 0)
(1.19404492235 -4.69445071363e-05 0)
(1.19404707224 -3.82588697626e-05 0)
(1.19404925809 -3.02655377776e-05 0)
(1.19405128796 -2.32692893338e-05 0)
(1.19405309306 -1.72934861129e-05 0)
(1.19405466745 -1.22650052698e-05 0)
(1.19405602743 -8.07688988741e-06 0)
(1.19405719242 -4.67552116683e-06 0)
(1.19405813434 -2.06494110518e-06 0)
(1.19405879998 -1.75963844552e-07 0)
(1.19405914948 1.14105383466e-06 0)
(1.19405925805 1.99609202943e-06 0)
(1.19405930699 2.67263953913e-06 0)
(1.19405933396 3.27279364399e-06 0)
(1.19405931092 3.79644159315e-06 0)
(1.19405925431 4.25472864462e-06 0)
(1.19405916176 4.65850021328e-06 0)
(1.19405902385 5.02426377852e-06 0)
(1.19405884354 5.36395526986e-06 0)
(1.19405862851 5.68095402623e-06 0)
(1.19405838695 5.96727453825e-06 0)
(1.19405816005 6.20483854805e-06 0)
(1.19405799657 6.41681489342e-06 0)
(1.19405792645 6.59745878913e-06 0)
(1.19405799824 6.72034617743e-06 0)
(1.19405827 6.74471553415e-06 0)
(1.19405877094 6.60871645757e-06 0)
(1.1940594886 6.22239143149e-06 0)
(1.19406051328 5.43073898647e-06 0)
(1.1940619963 3.84726753658e-06 0)
(1.19406462646 1.07556032605e-06 0)
(1.19406942357 -3.18526862602e-06 0)
(1.19407690299 -9.72032771416e-06 0)
(1.19408700702 -1.99022235197e-05 0)
(1.19410051156 -3.57509843461e-05 0)
(1.19411940905 -6.0186946083e-05 0)
(1.19414582529 -9.77913288558e-05 0)
(1.19418258671 -0.000155883022789 0)
(1.19423368598 -0.000246106712593 0)
(1.19430475751 -0.000386940223923 0)
(1.19440368909 -0.000607839324108 0)
(1.1945412608 -0.000956133140687 0)
(1.19473151761 -0.00150832678538 0)
(1.1949912317 -0.00238868814815 0)
(1.19533521563 -0.00380042097933 0)
(1.19576072184 -0.00607641692776 0)
(1.19620741073 -0.00975545394218 0)
(1.19645554544 -0.0156812388526 0)
(1.19591832061 -0.0250645047963 0)
(1.19344126034 -0.0393606695598 0)
(1.18668940616 -0.0598124323471 0)
(1.17014465016 -0.0851094559279 0)
(0.998962326191 0.054431626907 0)
(1.05310956793 0.133401607787 0)
(1.11628267954 0.170777557485 0)
(1.1730127146 0.175143870719 0)
(1.21791245487 0.159583604472 0)
(1.25049856778 0.134951017657 0)
(1.27288489586 0.108411653753 0)
(1.28776720059 0.0838849681109 0)
(1.29745265357 0.0630565680598 0)
(1.30366071804 0.0462999166173 0)
(1.30759230518 0.0333205096994 0)
(1.3100536573 0.0235495185909 0)
(1.31157357575 0.0163599020073 0)
(1.31249487325 0.0111713093102 0)
(1.31303856133 0.00749150067262 0)
(1.31334664809 0.00492447993604 0)
(1.31351005727 0.00316294949373 0)
(1.31358668247 0.00197474628669 0)
(1.31361305397 0.00118819158477 0)
(1.31361189944 0.000678624357539 0)
(1.31359705657 0.000357004044146 0)
(1.31357672992 0.000160750339802 0)
(1.3135557297 4.64661194884e-05 0)
(1.31353642822 -1.58719892343e-05 0)
(1.31351976404 -4.60598893098e-05 0)
(1.31350606865 -5.70696373874e-05 0)
(1.31349515758 -5.73242795464e-05 0)
(1.31348669365 -5.20859868888e-05 0)
(1.31348028868 -4.45236462683e-05 0)
(1.31347555769 -3.64619018736e-05 0)
(1.31347214981 -2.88740474971e-05 0)
(1.31346976192 -2.22132929922e-05 0)
(1.31346813427 -1.66309091671e-05 0)
(1.31346703876 -1.21345264544e-05 0)
(1.3134663098 -8.65824279564e-06 0)
(1.31346585014 -6.10093814755e-06 0)
(1.31346555838 -4.32532338275e-06 0)
(1.31346534506 -3.12405083022e-06 0)
(1.3134652073 -2.2676344357e-06 0)
(1.31346523068 -1.55195752216e-06 0)
(1.31346537793 -9.76661418095e-07 0)
(1.31346547161 -5.64770326555e-07 0)
(1.31346546208 -2.08867610885e-07 0)
(1.31346538064 1.23923789029e-07 0)
(1.31346524719 4.31107897089e-07 0)
(1.31346507464 7.20857723609e-07 0)
(1.31346486664 1.00467895975e-06 0)
(1.3134646261 1.2923092293e-06 0)
(1.31346436281 1.59309178386e-06 0)
(1.31346411056 1.91155412305e-06 0)
(1.31346389344 2.19776260839e-06 0)
(1.31346371915 2.41208304014e-06 0)
(1.31346361867 2.5107941703e-06 0)
(1.31346364504 2.42977415661e-06 0)
(1.31346388935 2.08132382629e-06 0)
(1.31346446721 1.38473062351e-06 0)
(1.31346534294 2.78596910991e-07 0)
(1.31346663036 -1.40707868733e-06 0)
(1.31346874754 -3.92248941265e-06 0)
(1.31347189306 -7.99438392644e-06 0)
(1.31347628532 -1.4901782011e-05 0)
(1.31348215688 -2.62166858961e-05 0)
(1.31348978677 -4.35290823565e-05 0)
(1.31349966302 -7.00203298714e-05 0)
(1.31351210515 -0.000110717979047 0)
(1.31352720088 -0.000173368904215 0)
(1.31354457465 -0.000270056084465 0)
(1.31356292073 -0.000419732582758 0)
(1.31357905779 -0.000652209510907 0)
(1.3135860912 -0.00101469931444 0)
(1.31356997832 -0.00158219079674 0)
(1.31350330345 -0.0024737039712 0)
(1.31333187395 -0.00387644118891 0)
(1.31294816881 -0.00608268734114 0)
(1.31214226989 -0.00953680483635 0)
(1.31050895854 -0.01488013372 0)
(1.30729512087 -0.0229406425093 0)
(1.30129154254 -0.0345583040504 0)
(1.29063113791 -0.0501700226098 0)
(1.27184304281 -0.0685487701239 0)
(0.995736074735 0.0346338620499 0)
(1.04179514405 0.0905689219153 0)
(1.10222838654 0.121549564952 0)
(1.16491411492 0.129605833582 0)
(1.22202566032 0.122009267451 0)
(1.26951891486 0.106019936864 0)
(1.30680222908 0.0870975538666 0)
(1.33499534096 0.0686366782952 0)
(1.3557447578 0.0523698355792 0)
(1.37069614641 0.0389256138872 0)
(1.38128272946 0.0282980688567 0)
(1.38866264638 0.0201712722509 0)
(1.39373029781 0.0141175050292 0)
(1.39715656702 0.00970533053201 0)
(1.39943430368 0.00655058976608 0)
(1.4009196208 0.00433444918308 0)
(1.40186616237 0.00280413973262 0)
(1.40245217806 0.00176573833656 0)
(1.40280127075 0.00107419086149 0)
(1.40299796249 0.000623231353247 0)
(1.40309917839 0.000336406200912 0)
(1.4031426261 0.000159620801851 0)
(1.40315288057 5.51626292249e-05 0)
(1.40314538565 -2.99865121919e-06 0)
(1.40312962005 -3.21229214725e-05 0)
(1.40311121136 -4.38903002812e-05 0)
(1.40309316705 -4.57602172562e-05 0)
(1.40307701186 -4.24184448148e-05 0)
(1.40306334756 -3.6727870052e-05 0)
(1.4030522476 -3.03654799114e-05 0)
(1.40304351019 -2.42455543234e-05 0)
(1.40303681042 -1.88158317123e-05 0)
(1.40303178688 -1.42443183213e-05 0)
(1.40302808938 -1.0533119378e-05 0)
(1.40302541983 -7.58177493805e-06 0)
(1.40302354615 -5.26543810773e-06 0)
(1.40302229169 -3.46147024029e-06 0)
(1.40302150577 -2.02620413069e-06 0)
(1.40302102328 -8.54829714565e-07 0)
(1.40302064973 7.57736576468e-08 0)
(1.40302031687 7.84187503739e-07 0)
(1.40302010524 1.27377159264e-06 0)
(1.40302000387 1.64567434263e-06 0)
(1.40301992141 1.96387187992e-06 0)
(1.40301982244 2.26643440986e-06 0)
(1.4030196999 2.57160134596e-06 0)
(1.40301955233 2.88871566087e-06 0)
(1.40301938185 3.22230529071e-06 0)
(1.40301919028 3.57286925944e-06 0)
(1.40301897064 3.93131368529e-06 0)
(1.40301873445 4.25541600711e-06 0)
(1.4030185164 4.51291254518e-06 0)
(1.40301834538 4.66691560317e-06 0)
(1.4030182448 4.65667563378e-06 0)
(1.40301823161 4.39584210472e-06 0)
(1.40301831416 3.73842995346e-06 0)
(1.4030185069 2.48422350355e-06 0)
(1.40301880055 5.16014513237e-07 0)
(1.40301942882 -2.59642257614e-06 0)
(1.40302057726 -7.61025790939e-06 0)
(1.40302208977 -1.53274754861e-05 0)
(1.4030236432 -2.70723805423e-05 0)
(1.40302476485 -4.46963454092e-05 0)
(1.40302471178 -7.11857006775e-05 0)
(1.40302199792 -0.00011113071942 0)
(1.40301388693 -0.000171559619981 0)
(1.40299557721 -0.000263347417826 0)
(1.40295888964 -0.000403364370498 0)
(1.40288989385 -0.000617665992091 0)
(1.40276488478 -0.000946857318579 0)
(1.40254384245 -0.00145425822465 0)
(1.40216043784 -0.00223827851882 0)
(1.40150315563 -0.00344794330591 0)
(1.4003836988 -0.00530694164462 0)
(1.39848885079 -0.00813802829061 0)
(1.39530556706 -0.0123759232741 0)
(1.39002093415 -0.0185314739919 0)
(1.38148707751 -0.0270422816029 0)
(1.36820836801 -0.0379899735606 0)
(1.3477934032 -0.0504822137998 0)
(0.994011531939 0.0192358087875 0)
(1.03484763602 0.0523338413762 0)
(1.09199262572 0.0723631277441 0)
(1.15662419717 0.0791292318395 0)
(1.22032115907 0.0761045456967 0)
(1.2770194461 0.0673339703525 0)
(1.32424417948 0.0561509018533 0)
(1.36181572294 0.0447990087671 0)
(1.39068529085 0.0345303747577 0)
(1.41226072843 0.025881429045 0)
(1.42801819498 0.0189465201508 0)
(1.4392988086 0.0135849779628 0)
(1.44722803648 0.00955652983921 0)
(1.4527040872 0.00660011073256 0)
(1.45641890736 0.0044741856324 0)
(1.4588913887 0.00297350899272 0)
(1.46050224951 0.00193276451937 0)
(1.46152564243 0.00122369015854 0)
(1.46215565417 0.000749547603908 0)
(1.46252747463 0.000439015574566 0)
(1.46273374702 0.000240519769468 0)
(1.46283688466 0.000117411308571 0)
(1.46287818174 4.40495311266e-05 0)
(1.46288441428 2.69191016992e-06 0)
(1.46287228285 -1.84432381331e-05 0)
(1.46285192479 -2.74370439914e-05 0)
(1.4628293664 -2.94368394525e-05 0)
(1.46280782076 -2.76869810896e-05 0)
(1.46278881603 -2.41850109151e-05 0)
(1.46277289668 -2.01126982424e-05 0)
(1.46276005369 -1.61179955905e-05 0)
(1.46274999281 -1.25240311212e-05 0)
(1.46274230364 -9.45753931521e-06 0)
(1.46273655357 -6.92919463913e-06 0)
(1.46273234397 -4.88542910631e-06 0)
(1.46272933247 -3.2567766241e-06 0)
(1.46272723058 -1.98023962193e-06 0)
(1.4627257816 -1.01469593765e-06 0)
(1.46272477353 -3.15171911927e-07 0)
(1.46272414159 2.06126566576e-07 0)
(1.46272377367 6.85845322472e-07 0)
(1.46272351985 1.16025938735e-06 0)
(1.46272334744 1.58415105492e-06 0)
(1.4627232173 1.96329028035e-06 0)
(1.46272309981 2.31864142707e-06 0)
(1.46272297592 2.66337971794e-06 0)
(1.46272283228 3.00289985709e-06 0)
(1.46272266048 3.33521730328e-06 0)
(1.46272245616 3.65088370433e-06 0)
(1.46272221658 3.93688308734e-06 0)
(1.46272194546 4.18474376776e-06 0)
(1.46272165259 4.36345447462e-06 0)
(1.46272134354 4.42010392462e-06 0)
(1.46272102854 4.28772184654e-06 0)
(1.46272072624 3.87351153489e-06 0)
(1.46272045662 3.0666837665e-06 0)
(1.46272019297 1.74984336345e-06 0)
(1.46271983924 -2.04822016728e-07 0)
(1.46271926553 -3.03474548389e-06 0)
(1.46271833593 -7.61099376682e-06 0)
(1.46271677463 -1.47149483816e-05 0)
(1.46271390916 -2.54413771782e-05 0)
(1.46270862165 -4.13415350671e-05 0)
(1.46269910288 -6.47943648164e-05 0)
(1.46268229297 -9.94015454884e-05 0)
(1.46265305464 -0.000150554429125 0)
(1.46260288157 -0.000226437443747 0)
(1.46251801939 -0.000339519007782 0)
(1.46237600876 -0.000508406215444 0)
(1.46214001407 -0.00076151503002 0)
(1.46175008078 -0.00114259428468 0)
(1.46111162474 -0.00171929213132 0)
(1.46007355719 -0.00258733875202 0)
(1.45839492941 -0.00388626172499 0)
(1.45570186289 -0.00580842896881 0)
(1.45142903615 -0.00859692954428 0)
(1.44475618789 -0.012511870694 0)
(1.4346144411 -0.0177336352739 0)
(1.41974462376 -0.0242104098436 0)
(1.39830130309 -0.0313961329461 0)
(0.993269667904 0.00617015312731 0)
(1.03158099998 0.0171020473598 0)
(1.08672181661 0.0239906494262 0)
(1.15174554143 0.026560666312 0)
(1.21823535796 0.0258180590311 0)
(1.27925773402 0.023048885823 0)
(1.33140134904 0.0193656306623 0)
(1.37377597297 0.0155468566597 0)
(1.40691051546 0.0120449283613 0)
(1.43203311129 0.00906639729979 0)
(1.45060212109 0.0066605918316 0)
(1.46402982453 0.00479008825768 0)
(1.47355012177 0.0033784250422 0)
(1.4801755903 0.00233873483448 0)
(1.48470223996 0.00158891092675 0)
(1.48773615295 0.00105828636031 0)
(1.48972728767 0.000689460680921 0)
(1.49100271483 0.000437636882967 0)
(1.49179579193 0.000268884916631 0)
(1.49227015934 0.000158111051801 0)
(1.49253864771 8.71253906008e-05 0)
(1.4926777202 4.29763707159e-05 0)
(1.49273824927 1.65869701827e-05 0)
(1.49275341794 1.6666842289e-06 0)
(1.49274417516 -6.06559343459e-06 0)
(1.49272338105 -9.41047116846e-06 0)
(1.49269873041 -1.02164799223e-05 0)
(1.49267445158 -9.65314307966e-06 0)
(1.49265264195 -8.43910751164e-06 0)
(1.49263414311 -6.99244935788e-06 0)
(1.49261907784 -5.55351788146e-06 0)
(1.49260718371 -4.24213391137e-06 0)
(1.49259803153 -3.1059530223e-06 0)
(1.49259114535 -2.15116652762e-06 0)
(1.49258607109 -1.36134245074e-06 0)
(1.49258240875 -7.1503415684e-07 0)
(1.49257982238 -1.90606338672e-07 0)
(1.49257804201 2.33907645611e-07 0)
(1.49257686204 6.04496431772e-07 0)
(1.49257610486 9.73197342957e-07 0)
(1.49257561651 1.27807281805e-06 0)
(1.49257530544 1.56204397943e-06 0)
(1.49257511403 1.8427768233e-06 0)
(1.49257498965 2.13027896963e-06 0)
(1.49257489291 2.43193875054e-06 0)
(1.49257479741 2.75036249315e-06 0)
(1.4925746848 3.08465379064e-06 0)
(1.49257454196 3.43043880919e-06 0)
(1.492574359 3.77900122514e-06 0)
(1.4925741271 4.11618088454e-06 0)
(1.49257384117 4.42224708999e-06 0)
(1.49257349725 4.66626530349e-06 0)
(1.49257309177 4.79768935553e-06 0)
(1.49257261131 4.75972581603e-06 0)
(1.49257203128 4.46940291733e-06 0)
(1.49257133169 3.8027146542e-06 0)
(1.4925704972 2.61409293973e-06 0)
(1.49256938561 8.05748454231e-07 0)
(1.49256758503 -1.8476261044e-06 0)
(1.49256479985 -5.98331593696e-06 0)
(1.49256063295 -1.21267150577e-05 0)
(1.49255405807 -2.10521045381e-05 0)
(1.49254346439 -3.38511351707e-05 0)
(1.49252631159 -5.20774856971e-05 0)
(1.49249848644 -7.79295334745e-05 0)
(1.4924532886 -0.000114435281338 0)
(1.49237984621 -0.000165973476096 0)
(1.49226109637 -0.00023903411833 0)
(1.49206967563 -0.000342113593828 0)
(1.49176097279 -0.000487760315369 0)
(1.49126270903 -0.000696181471023 0)
(1.49046616076 -0.00100107476742 0)
(1.48920193404 -0.0014348531834 0)
(1.48720417553 -0.00204503738658 0)
(1.48407446466 -0.00289298546922 0)
(1.47923301276 -0.00404617628163 0)
(1.47187302063 -0.00555887907266 0)
(1.46098103067 -0.00743259322005 0)
(1.44540990487 -0.0095732980587 0)
(1.42355025124 -0.0117325187625 0)
(0.993270465685 -0.00616839895205 0)
(1.03158098244 -0.0171003744424 0)
(1.08672175002 -0.0239897606687 0)
(1.15174557871 -0.0265602462255 0)
(1.21823543524 -0.0258179927823 0)
(1.27925783535 -0.0230491103127 0)