/*--------------------------------*- C++ -*----------------------------------*\
| =========                 |                                                 |
| \\      /  F ield         | OpenFOAM: The Open Source CFD Toolbox           |
|  \\    /   O peration     | Version:  2106                                  |
|   \\  /    A nd           | Website:  www.openfoam.com                      |
|    \\/     M anipulation  |                                                 |
\*---------------------------------------------------------------------------*/
FoamFile
{
    version     2.0;
    format      ascii;
    arch        "LSB;label=32;scalar=64";
    class       volScalarField;
    location    "0.38";
    object      p;
}
// * * * * * * * * * * * * * * * * * * * * * * * * * * * * * * * * * * * * * //

dimensions      [0 2 -2 0 0 0 0];

internalField   nonuniform List<scalar> 
9600
(
2.26466882708
-0.633338160378
-1.53757297627
-1.92318430874
-2.14251593198
-2.28245777005
-2.38636328364
-2.47391308613
-2.55341192248
-2.62880236505
-2.70217724327
-2.77468678731
-2.84696062038
-2.91932984044
-2.99195062475
-3.06487891597
-3.13811505425
-3.21163077764
-3.28538580166
-3.35933728202
-3.43344417467
-3.50767203164
-3.58199053548
-3.65637536699
-3.73080713599
-3.80527077434
-3.8797547903
-3.95425046503
-4.02875102137
-4.10325116129
-4.1777466811
-4.2522341644
-4.3267108784
-4.40117456514
-4.47562322678
-4.5500549583
-4.62446779221
-4.69885973504
-4.77322874202
-4.84757269922
-4.92188947636
-4.99617676141
-5.07043174458
-5.14465154403
-5.21883310321
-5.29297318507
-5.36706830934
-5.44111485935
-5.51510879473
-5.58904562083
-5.66292042965
-5.73672796967
-5.81046280566
-5.88411922466
-5.95769113581
-6.03117198707
-6.10455471275
-6.17783160101
-6.2509942928
-6.32403395319
-6.3969412784
-6.46970646251
-6.54231911583
-6.61476815511
-6.68704174203
-6.75912725669
-6.83101121856
-6.9026792105
-6.97411599404
-7.04530553953
-7.11623093202
-7.18687423272
-7.25721642334
-7.32723738959
-7.39691595169
-7.46622990161
-7.53515596642
-7.60366964052
-7.67174498351
-7.73935453929
-7.80646939384
-7.87305927245
-7.93909259095
-8.00453637915
-8.06935618394
-8.1335159194
-8.19697760542
-8.25970139034
-8.32164586972
-8.3827682177
-8.44302388667
-8.50236627242
-8.56074683284
-8.61811527414
-8.67441936391
-8.72960486941
-8.7836157639
-8.83639405119
-8.8878796257
-8.93801047208
-8.98672268129
-9.03395015173
-9.07962455688
-9.12367584047
-9.16603191185
-9.20661883547
-9.24536089549
-9.28218052606
-9.31699799538
-9.34973150554
-9.38029778653
-9.4086119575
-9.4345872447
-9.45813532601
-9.47916680216
-9.49759064919
-9.51331372037
-9.5262417135
-9.53627982146
-9.54333202956
-9.54730073159
-9.54808747972
-9.54559342208
-9.53971896589
-9.5303640497
-9.51742903825
-9.50081232142
-9.48041212123
-9.45612651972
-9.42785371314
-9.39549103964
-9.35893474014
-9.31808121051
-9.27282712346
-9.22306806738
-9.16869753329
-9.10960744706
-9.04568826298
-8.97682665183
-8.90290481407
-8.82379985743
-8.73938133597
-8.64951003951
-8.55403393445
-8.45278411054
-8.34557039499
-8.23217327574
-8.1123371164
-7.98575525235
-7.85205026912
-7.71074889477
-7.56123590834
-7.40268148876
-7.23391471742
-7.05320950503
-6.85796979963
-6.64424491333
-6.40620910268
-6.14450127471
-5.91968038136
0.35312569293
-0.829224507212
-1.43790031737
-1.79192547726
-2.03454325684
-2.20510530632
-2.33317672549
-2.43767982797
-2.52875531874
-2.61203399057
-2.6908079275
-2.76702606313
-2.84184723595
-2.91596002675
-2.98976643553
-3.06349310351
-3.13726006917
-3.21112310606
-3.28510071931
-3.359191304
-3.43338306696
-3.50765936635
-3.58200367023
-3.65640060039
-3.73083643509
-3.80529969142
-3.87978111185
-3.9542733611
-4.02877043833
-4.1032673935
-4.17776016612
-4.25224538687
-4.32672036025
-4.40118283765
-4.47563073242
-4.55006202315
-4.62447466213
-4.698866623
-4.77323587403
-4.84758026246
-4.92189758626
-4.99618552363
-5.07044138579
-5.14466206349
-5.21884451766
-5.29298557545
-5.3670817984
-5.44112943976
-5.51512450061
-5.58906251749
-5.66293861428
-5.73674757074
-5.81048395
-5.88414205775
-5.95771582842
-6.03119869516
-6.10458351904
-6.17786258843
-6.25102759265
-6.32406972282
-6.39697968184
-6.46974769227
-6.54236340697
-6.6148157556
-6.68709283588
-6.75918195099
-6.83106964083
-6.90274157582
-6.9741825664
-7.04537659573
-7.11630677282
-7.18695515962
-7.25730270105
-7.32732927903
-7.3970137668
-7.46633400722
-7.53526673217
-7.60378742355
-7.67187012838
-7.73948735464
-7.80661014369
-7.87320824516
-7.93925021272
-8.00470319505
-8.06953267496
-8.13370244664
-8.19717455216
-8.25990922178
-8.32186503152
-8.38299911216
-8.44326701133
-8.50262223587
-8.56101619379
-8.61839851606
-8.67471698408
-8.72991732881
-8.78394347167
-8.83673749089
-8.88823938788
-8.93838713222
-8.98711676323
-9.03436225477
-9.080055188
-9.12412542446
-9.16650098361
-9.20710801251
-9.24587074996
-9.28271163898
-9.31755098944
-9.35030674743
-9.38089532274
-9.40923194492
-9.43523028315
-9.45880194443
-9.47985717401
-9.49830506191
-9.51405278054
-9.52700583713
-9.53706912919
-9.54414687447
-9.54814177567
-9.54895533795
-9.54648863987
-9.54064216456
-9.53131550688
-9.51840733917
-9.50181783432
-9.48144621642
-9.45719064882
-9.42894953789
-9.39662113725
-9.36010276649
-9.31929142522
-9.27408450802
-9.22437946411
-9.17007223199
-9.11105640221
-9.04722436096
-8.97846618074
-8.90466866001
-8.82571494531
-8.74148128655
-8.65183616963
-8.55663803461
-8.45573215139
-8.3489471631
-8.23608671472
-8.11692680569
-7.99120651631
-7.85861136166
-7.7187602118
-7.57118195082
-7.4152854432
-7.25032329366
-7.07536005292
-6.88931940854
-6.69118708883
-6.47979684422
-6.25505972283
-6.03794910451
-0.622716067331
-1.10408132387
-1.49534069213
-1.78695660886
-2.00853187266
-2.17646717591
-2.30856824052
-2.4183572423
-2.51421627014
-2.60136120624
-2.683104151
-2.76153961753
-2.83798732461
-2.91327702658
-2.98792526711
-3.0622473013
-3.13643044795
-3.21058083475
-3.28475408078
-3.35897578784
-3.43325384214
-3.50758606154
-3.58196563587
-3.65638408823
-3.73083255266
-3.80530281917
-3.87978773226
-3.95428132326
-4.02877852264
-4.10327496118
-4.17776695769
-4.25225138248
-4.32672566197
-4.40118760779
-4.47563512951
-4.55006616214
-4.62447861164
-4.69887042957
-4.77323963987
-4.84758414292
-4.92190165584
-4.99618979099
-5.07044592041
-5.14466697932
-5.21884985353
-5.29299136467
-5.36708804104
-5.4411361708
-5.51513169753
-5.58907016038
-5.6629467412
-5.7367562973
-5.81049337752
-5.88415227055
-5.9577269156
-6.03121072926
-6.1045965247
-6.17787657434
-6.25104261261
-6.32408586265
-6.39699705165
-6.46976641261
-6.54238358164
-6.61483747146
-6.68711615301
-6.75920687648
-6.83109616218
-6.90276972734
-6.97421248117
-7.04540845651
-7.11634076401
-7.18699144498
-7.25734141332
-7.327370554
-7.39705777633
-7.46638094245
-7.53531675727
-7.60384065962
-7.67192667499
-7.73954730572
-7.80667359358
-7.87327531093
-7.93932108712
-8.00477815854
-8.06961196995
-8.13378617524
-8.19726279497
-8.26000219908
-8.32196305825
-8.38310242827
-8.44337578392
-8.50273670503
-8.56113664786
-8.61852518037
-8.67485007453
-8.73005704674
-8.78408989434
-8.83689068281
-8.88839956585
-8.9385545115
-8.9872914685
-9.03454443447
-9.08024508678
-9.12432319006
-9.16670681274
-9.20732220416
-9.24609352405
-9.2829430692
-9.31779125936
-9.3505562117
-9.38115436236
-9.40950100018
-9.43550987024
-9.45909268913
-9.48015930277
-9.49861858236
-9.51437815588
-9.52734383559
-9.53742027049
-9.54451155023
-9.54852068201
-9.54934940083
-9.54689880444
-9.54106958806
-9.53176184986
-9.51887520619
-9.50230940546
-9.48196413179
-9.45773777523
-9.42952845515
-9.39723500636
-9.36075621056
-9.31999011469
-9.27483449073
-9.22518787393
-9.17094863269
-9.11201286009
-9.04827531236
-8.97962925969
-8.90596556669
-8.82717302734
-8.74313497565
-8.65372810924
-8.55882153119
-8.4582740208
-8.35193248987
-8.23962466843
-8.12115717108
-7.99631172222
-7.86483371956
-7.72642679129
-7.58074408323
-7.42738311784
-7.26589121185
-7.09579440513
-6.91670581324
-6.72860216378
-6.53192703355
-6.32766925603
-6.12403729569
-1.17417532359
-1.36052005486
-1.60296828365
-1.82543520691
-2.0126272726
-2.16665520199
-2.29509205633
-2.4053828698
-2.50317811118
-2.59253861018
-2.67631019869
-2.75643754476
-2.83422783649
-2.91055009067
-2.98597518023
-3.06087158396
-3.1354730593
-3.2099240106
-3.28431033355
-3.35868098933
-3.43306172241
-3.50746378778
-3.58189054916
-3.65633984641
-3.7308081696
-3.8052909342
-3.87978345601
-3.9542814071
-4.02878087473
-4.10327830328
-4.17777057616
-4.25225494304
-4.32672902879
-4.40119074286
-4.47563803698
-4.5500688685
-4.62448117003
-4.69887288041
-4.77324203937
-4.84758661593
-4.92190431127
-4.99619265841
-5.07044903836
-5.14467041739
-5.21885361311
-5.29299539117
-5.3670922888
-5.44114056332
-5.51513617663
-5.58907478198
-5.66295162126
-5.73676154406
-5.81049907168
-5.88415846515
-5.9577336392
-6.0312180008
-6.10460440228
-6.17788510127
-6.25105183323
-6.32409584397
-6.39700790547
-6.46977822381
-6.54239636985
-6.61485121417
-6.68713081117
-6.75922237653
-6.83111243617
-6.90278685059
-6.97423059306
-7.04542771871
-7.11636131233
-7.18701339615
-7.25736487731
-7.32739563498
-7.39708458169
-7.46640959336
-7.53534735308
-7.60387322222
-7.67196116368
-7.73958371118
-7.806712011
-7.87331589985
-7.93936398571
-8.00482348854
-8.06965985797
-8.13383669152
-8.19731596005
-8.26005811869
-8.32202197477
-8.38316457538
-8.4434413004
-8.50280575973
-8.56120946733
-8.61860190835
-8.67493079528
-8.73014188365
-8.78417894544
-8.8369840143
-8.88849735942
-8.93865703662
-8.9873989863
-9.03465709129
-9.08036311804
-9.12444686151
-9.16683642031
-9.20745816678
-9.24623619728
-9.28309249435
-9.31794742059
-9.35071937496
-9.38132476326
-9.40967861242
-9.4356947735
-9.45928525296
-9.48035986189
-9.49882707063
-9.51459461181
-9.52756880801
-9.5376544302
-9.54475537046
-9.54877473298
-9.54961449748
-9.54717576242
-9.54135931518
-9.53206552138
-9.51919415497
-9.50264512714
-9.48231874643
-9.45811431317
-9.42993030718
-9.39766604749
-9.36122149833
-9.32049620514
-9.27538911996
-9.22579974546
-9.17162843182
-9.11277421697
-9.04913507205
-8.98060825096
-8.90708915023
-8.82847200566
-8.74464742634
-8.65550143143
-8.56091494287
-8.46076069767
-8.35490433738
-8.24319931041
-8.12548373818
-8.00158123486
-7.87129525987
-7.73440845977
-7.5906836741
-7.43987162576
-7.28173123152
-7.11607008723
-6.94282634818
-6.76223127162
-6.5748667538
-6.38155440297
-6.18538037679
-1.51151982634
-1.56328190159
-1.70717861439
-1.87147048255
-2.02580419093
-2.16386252808
-2.28601613913
-2.39480460385
-2.49324934896
-2.5840800558
-2.66948799404
-2.75112631917
-2.8301967304
-2.90755088834
-2.98378090323
-3.05929022119
-3.1343493983
-3.20913658928
-3.2837663988
-3.35831090232
-3.43281410906
-3.50730144121
-3.58178661027
-3.65627518861
-3.73076951955
-3.80526916131
-3.87977236652
-3.95427684733
-4.02878012946
-4.10327963469
-4.17777292141
-4.25225772712
-4.32673195672
-4.40119364358
-4.47564080475
-4.5500714711
-4.62448366672
-4.69887535093
-4.77324450149
-4.84758913676
-4.92190698872
-4.99619552018
-5.07045212249
-5.14467380464
-5.21885731916
-5.29299936293
-5.36709646808
-5.44114496384
-5.51514088741
-5.58907988084
-5.66295721299
-5.73676769116
-5.81050577942
-5.88416573033
-5.95774147517
-6.03122644337
-6.10461345985
-6.17789477885
-6.25106216075
-6.32410691497
-6.39701985663
-6.46979118426
-6.54241039237
-6.61486627488
-6.6871468938
-6.7592395179
-6.8311306751
-6.90280621226
-6.97425117328
-7.04544965801
-7.11638473038
-7.18703839773
-7.25739159445
-7.32742421488
-7.39711514164
-7.46644220751
-7.53538206612
-7.60391005668
-7.67200013509
-7.73962487525
-7.80675552979
-7.87336202724
-7.93941293583
-8.00487537267
-8.0697147444
-8.13389462424
-8.19737694745
-8.26012221402
-8.3220893819
-8.38323557554
-8.44351607756
-8.50288445084
-8.56129226908
-8.61868894393
-8.67502205444
-8.73023740316
-8.78427886982
-8.83708848022
-8.88860648284
-8.93877092757
-8.98751768578
-9.03478055798
-9.08049140867
-9.12458014626
-9.1669748514
-9.20760192328
-9.24638549322
-9.28324740575
-9.31810787848
-9.35088555758
-9.38149714023
-9.40985757234
-9.43588041187
-9.45947776916
-9.48055967276
-9.49903438338
-9.51480946528
-9.52779152993
-9.53788568892
-9.54499583757
-9.5490250826
-9.5498756068
-9.54744860713
-9.54164489717
-9.53236524427
-9.51950997768
-9.50297906378
-9.4826728849
-9.45849163834
-9.43033484873
-9.39810235354
-9.36169467018
-9.32101275951
-9.27595750618
-9.22642992182
-9.17233217012
-9.11356603936
-9.05003282974
-8.98163430541
-8.90827104819
-8.82984283575
-8.74624763372
-8.65738117662
-8.56313670485
-8.46340131183
-8.35805875109
-8.24698734848
-8.13005606945
-8.00712794541
-7.87805852099
-7.74269809443
-7.60089799859
-7.45252206786
-7.29746889559
-7.13570573775
-6.967314189
-6.79255324335
-6.61182293433
-6.4254447362
-6.23408633198
-1.71559396134
-1.71061377571
-1.79459144055
-1.91537953702
-2.04202281322
-2.16470319205
-2.27960049544
-2.38579683718
-2.48408028772
-2.57586996878
-2.66263105789
-2.7456463898
-2.82595086723
-2.9043380303
-2.98139614185
-3.05754946334
-3.13309787314
-3.20824963648
-3.28314676081
-3.35788441747
-3.43252522661
-3.50710920161
-3.58166100689
-3.65619562659
-3.730720561
-3.80524029419
-3.87975641324
-3.95426898828
-4.02877719434
-4.10327957059
-4.17777442654
-4.25226003079
-4.32673461055
-4.40119637465
-4.47564346037
-4.55007398583
-4.62448607889
-4.69887775038
-4.77324691141
-4.84759154627
-4.92190945495
-4.99619808247
-5.0704548024
-5.1446766825
-5.21886041657
-5.29300262465
-5.36709982463
-5.44114841528
-5.51514451067
-5.58908376155
-5.66296137645
-5.73677218551
-5.81051069959
-5.88417113809
-5.95774738294
-6.03123284296
-6.10462034483
-6.17790213975
-6.25107001245
-6.32411532582
-6.39702893833
-6.46980105505
-6.54242110267
-6.61487777493
-6.68715911192
-6.7592524507
-6.83114437363
-6.9028207485
-6.974266639
-7.04546614757
-7.11640232166
-7.1870571635
-7.25741163075
-7.32744562722
-7.39713800516
-7.46646655289
-7.53540790524
-7.6039374069
-7.67202903241
-7.73965539336
-7.80678781171
-7.87339627011
-7.93944927413
-8.00491381617
-8.06975528304
-8.13393732293
-8.19742189885
-8.2601694745
-8.32213904701
-8.38328786921
-8.44357123329
-8.50294259119
-8.56135352097
-8.61875348682
-8.67509000455
-8.73030885499
-8.78435399425
-8.83716743981
-8.88868941764
-8.93885801122
-8.98760901507
-9.03487616715
-9.08059140251
-9.12468477679
-9.16708434341
-9.20771639243
-9.24650508729
-9.28337234992
-9.31823825067
-9.35102144833
-9.38163892347
-9.41000568621
-9.43603497686
-9.45963875744
-9.48072733628
-9.49920916723
-9.51499164829
-9.52798139786
-9.53808379639
-9.5452029141
-9.54924187397
-9.55010307291
-9.5476878812
-9.54189715072
-9.53263191307
-9.51979310758
-9.50328103486
-9.4829960307
-9.45883903457
-9.4307108274
-9.39851196324
-9.36214337294
-9.32150710743
-9.27650607641
-9.22704328953
-9.17302285567
-9.1143491922
-9.05092679191
-8.98266170624
-8.90945971367
-8.8312263357
-8.74786688372
-8.65928612952
-8.56538896778
-8.46607674355
-8.36124971916
-8.25080814295
-8.1346488876
-8.01266925177
-7.88476752342
-7.75084690756
-7.6108237252
-7.46463727605
-7.31226824601
-7.15376052411
-6.98924103502
-6.81892899165
-6.64306179955
-6.46168826532
-6.27467525491
-1.83872336441
-1.81326454016
-1.8626264114
-1.95278542585
-2.05771027911
-2.16703291962
-2.27487053619
-2.37809456743
-2.47576851039
-2.56815932155
-2.65603080197
-2.74027486541
-2.82173058174
-2.90110917323
-2.97897786837
-3.05577075067
-3.13181051911
-3.20733177313
-3.28250186023
-3.35743807327
-3.43222118644
-3.5069056741
-3.58152745055
-3.65610996561
-3.73066703125
-3.80520808866
-3.87973806432
-3.9542594383
-4.0287730855
-4.10327872496
-4.17777543724
-4.25226200432
-4.32673699147
-4.40119884896
-4.4756458956
-4.55007633764
-4.62448836187
-4.69888002615
-4.77324919668
-4.84759377543
-4.92191162271
-4.99620024918
-5.07045698697
-5.14467891189
-5.21886273038
-5.29300504933
-5.36710240563
-5.44115124101
-5.51514767178
-5.58908731395
-5.66296530696
-5.73677645296
-5.81051530269
-5.88417610728
-5.95775274341
-6.03123858684
-6.10462644684
-6.17790860049
-6.251076882
-6.32412268776
-6.39703687632
-6.46980963541
-6.54243036666
-6.61488772136
-6.68716971914
-6.75926374576
-6.83115644911
-6.90283370041
-6.97428052609
-7.04548099119
-7.11641813372
-7.18707397552
-7.25742950795
-7.32746464882
-7.39715822676
-7.46648799863
-7.53543060358
-7.60396142777
-7.67205449906
-7.73968245098
-7.80681658075
-7.87342684074
-7.93948169793
-8.0049480884
-8.06979139016
-8.13397532626
-8.19746192479
-8.26021161873
-8.32218335997
-8.38333444736
-8.44362019898
-8.50299398135
-8.56140734384
-8.61880985693
-8.67514908821
-8.73037082735
-8.78441907548
-8.83723579124
-8.88876103052
-8.93893288113
-8.98768712696
-9.03495750027
-9.08067601438
-9.12477285741
-9.16717609911
-9.20781191729
-9.24660445847
-9.28347583479
-9.31834611499
-9.35113379316
-9.38175594472
-9.41012779161
-9.43616248132
-9.45977167053
-9.48086571612
-9.49935345025
-9.51514237231
-9.52813898661
-9.53824873083
-9.54537583627
-9.5494235352
-9.55029442002
-9.54789015978
-9.54211171615
-9.53286022425
-9.52003703736
-9.50354306088
-9.48327892397
-9.4591459776
-9.43104590236
-9.39888024414
-9.3625507544
-9.32196041151
-9.27701383806
-9.22761610235
-9.17367331108
-9.11509261098
-9.05178171945
-8.98365041655
-8.91060926765
-8.83256968541
-8.74944414208
-8.66114527749
-8.56758823639
-8.46868799371
-8.36435983278
-8.25452261342
-8.13909686505
-8.01800801955
-7.89118815495
-7.75858007714
-7.62014569991
-7.47587312703
-7.32578949812
-7.16997342257
-7.00856049673
-6.84173381528
-6.6696599379
-6.49235585379
-6.30965754508
-1.9127659209
-1.88171320821
-1.91164591008
-1.98141808316
-2.07058647802
-2.16946327169
-2.27134308153
-2.37181598518
-2.46874253813
-2.56148903758
-2.65022623644
-2.73549275116
-2.81793827526
-2.89818678688
-2.97677668076
-3.05414423884
-3.13062881902
-3.20648653607
-3.28190633452
-3.35702484187
-3.43193898556
-3.50671624101
-3.58140270817
-3.65602971793
-3.73061648908
-3.80517737796
-3.87972034119
-3.95425005716
-4.02876892462
-4.10327772208
-4.17777623251
-4.25226370502
-4.32673903787
-4.40120094272
-4.4756479484
-4.55007836993
-4.62449038056
-4.69888204261
-4.77325120486
-4.84759569668
-4.921913426
-4.99620200208
-5.07045872618
-5.14468063808
-5.21886446979
-5.29300686281
-5.36710438443
-5.44115348078
-5.51515021677
-5.58909017857
-5.66296847779
-5.73677988664
-5.81051897924
-5.88418006725
-5.95775702493
-6.03124316456
-6.10463125704
-6.17791362269
-6.25108218208
-6.32412837687
-6.39704303454
-6.46981628182
-6.54243750263
-6.61489536062
-6.68717788336
-6.75927249863
-6.83116589337
-6.90284390824
-6.97429149899
-7.04549269436
-7.11643055759
-7.18708714766
-7.2574434713
-7.32747944185
-7.39717387384
-7.46650451302
-7.53544801488
-7.60397981713
-7.67207400843
-7.73970324226
-7.80683875825
-7.87345044079
-7.93950673648
-8.00497455277
-8.06981923585
-8.13400455438
-8.19749264659
-8.26024398448
-8.3222174422
-8.3833702738
-8.44365783985
-8.50303349148
-8.56144873568
-8.6188532468
-8.67519466295
-8.73041877351
-8.78446957519
-8.8372890173
-8.88881695493
-8.93899141817
-8.98774826479
-9.03502123644
-9.08074239571
-9.12484203667
-9.16724825647
-9.20788714891
-9.24668280606
-9.28355743866
-9.31843125518
-9.35122264556
-9.38184854623
-9.41022435919
-9.43626334701
-9.45987698715
-9.48097557405
-9.49946819444
-9.51526255781
-9.52826510669
-9.5383812547
-9.54551537784
-9.5495708839
-9.55045053236
-9.54805622258
-9.54228915809
-9.53305058111
-9.52024205518
-9.50376516664
-9.48352116205
-9.45941165732
-9.43133884746
-9.39920529586
-9.36291394121
-9.32236882591
-9.27747606438
-9.22814257465
-9.17427629137
-9.11578710756
-9.05258610111
-8.98458642288
-8.91170289069
-8.83385243813
-8.7509543195
-8.66292840024
-8.56969864309
-8.47119230454
-8.36733836081
-8.25807145404
-8.14333149101
-8.02306656636
-7.89723564137
-7.76581121689
-7.62878794829
-7.48618735263
-7.33806642444
-7.18452558144
-7.02570992573
-6.86179820809
-6.69296557336
-6.51932225281
-6.34092103798
-1.95499931585
-1.92343250148
-1.94307893519
-2.00052466054
-2.0795383929
-2.17131699363
-2.26893483413
-2.36732315183
-2.46360467915
-2.55653864314
-2.6458712448
-2.73187542527
-2.81505181332
-2.89595178808
-2.97508699081
-3.05289204492
-3.12971693252
-3.20583308621
-3.28144529525
-3.35670456948
-3.43172000622
-3.50656899439
-3.58130534434
-3.65596581766
-3.73057674244
-3.80515323283
-3.87970635827
-3.95424266504
-4.02876568281
-4.10327698472
-4.17777689473
-4.25226503663
-4.3267405967
-4.40120250107
-4.47564947703
-4.55007993043
-4.62449198964
-4.69888365271
-4.77325276582
-4.84759716814
-4.92191477553
-4.99620325331
-5.0704599262
-5.14468179753
-5.21886563479
-5.29300812573
-5.36710585232
-5.44115522136
-5.51515224323
-5.58909244889
-5.66297094265
-5.73678251159
-5.81052176039
-5.88418304121
-5.95776022592
-6.03124659742
-6.10463490395
-6.17791747291
-6.25108627157
-6.3241327658
-6.39704774918
-6.46982128746
-6.54244277662
-6.61490095404
-6.68718390518
-6.75927906582
-6.83117308755
-6.90285173152
-6.97429988589
-7.04550157547
-7.11643991033
-7.18709699511
-7.25745385241
-7.32749039245
-7.39718542899
-7.46651671629
-7.53546093148
-7.60399353453
-7.67208861322
-7.73971879557
-7.80685527694
-7.87346791703
-7.93952519322
-8.00499404851
-8.06983981205
-8.1340262241
-8.19751546324
-8.26026805378
-8.32224279407
-8.38339681571
-8.44368550893
-8.50306232211
-8.56147881438
-8.61888474498
-8.67522783118
-8.73045376672
-8.78450645319
-8.83732786226
-8.88885774427
-8.93903401943
-8.98779265631
-9.03506749535
-9.08079060448
-9.12489228049
-9.16730068142
-9.20794188634
-9.24673994368
-9.28361700461
-9.31849340785
-9.35128762374
-9.38191642514
-9.41029513764
-9.43633719752
-9.45995419698
-9.48105644474
-9.49955311238
-9.51535198502
-9.52835950298
-9.53848106888
-9.54562125267
-9.5496836512
-9.55057112859
-9.54818577541
-9.5424290675
-9.53320250373
-9.52040781166
-9.50394702231
-9.48372204822
-9.45963494559
-9.43158838295
-9.39948577764
-9.3632313155
-9.32273028655
-9.27789020752
-9.22861969641
-9.17482839627
-9.11642874962
-9.0533351744
-8.98546412094
-8.91273418795
-8.83506699494
-8.75238811082
-8.66462478181
-8.57170881313
-8.47357777869
-8.37017288701
-8.26144266445
-8.14734334498
-8.02784164266
-7.90291846933
-7.77257004262
-7.63681682435
-7.49570678099
-7.34932157563
-7.19778411605
-7.04126164074
-6.87996092317
-6.71411243169
-6.54395948961
-6.369793778
-1.97424784015
-1.94314919253
-1.95837393847
-2.01004117906
-2.08409914217
-2.17230074782
-2.26770466354
-2.36497407591
-2.46088622597
-2.55389702137
-2.64353245278
-2.72992335135
-2.81348839729
-2.89473778937
-2.97416716312
-3.05220921059
-3.12921898665
-3.20547590127
-3.28119313289
-3.35652935296
-3.43160016583
-3.50648833245
-3.58125204608
-3.65593158469
-3.73055492656
-3.80513991418
-3.87969872389
-3.95423874402
-4.02876408587
-4.10327675824
-4.17777739181
-4.25226583903
-4.32674148075
-4.40120338026
-4.47565036384
-4.55008089309
-4.62449303887
-4.69888472119
-4.77325379135
-4.84759811758
-4.92191563888
-4.99620404017
-5.07046065441
-5.14468248809
-5.21886634244
-5.29300895216
-5.36710689829
-5.44115653119
-5.51515378966
-5.58909413563
-5.66297267975
-5.73678429562
-5.81052362499
-5.88418501551
-5.95776231648
-6.03124880129
-6.10463723765
-6.17791998587
-6.25108900561
-6.32413572047
-6.39705087425
-6.46982451542
-6.5424461093
-6.61490449899
-6.68718782266
-6.75928346754
-6.83117798736
-6.90285705826
-6.97430553988
-7.04550749059
-7.11644607935
-7.18710345122
-7.25746063246
-7.32749751633
-7.39719291695
-7.46652460974
-7.53546929685
-7.6040024415
-7.67209809891
-7.73972887028
-7.80686593862
-7.87347914621
-7.93953697741
-8.00500642462
-8.0698528558
-8.13403999898
-8.19753002529
-8.26028347476
-8.32225908163
-8.38341385057
-8.44370315366
-8.50308057078
-8.56149775569
-8.61890453839
-8.67524869237
-8.73047581672
-8.78452966307
-8.83735221129
-8.88888326849
-8.93906061594
-8.98782028431
-9.03509628722
-9.0808206767
-9.12492365883
-9.16733346212
-9.20797617183
-9.24677583574
-9.28365449518
-9.31853256103
-9.35132862196
-9.38195939895
-9.41034002778
-9.43638403377
-9.46000328012
-9.4811082369
-9.49960804921
-9.51541045224
-9.52842185921
-9.53854781901
-9.54569314132
-9.54976150456
-9.55065576837
-9.54827821731
-9.54253074999
-9.5333152212
-9.52053348204
-9.50408774422
-9.48388054431
-9.45981464115
-9.43179325592
-9.39972053268
-9.36350184811
-9.32304374372
-9.2782549403
-9.22904579664
-9.17532793523
-9.11701605048
-9.05402741999
-8.98628178611
-8.91370157648
-8.83621257667
-8.75374602213
-8.66623663722
-8.57362358593
-8.47585313414
-8.37287743391
-8.26465757163
-8.15116446623
-8.03238105906
-7.9083071391
-7.77895966937
-7.64438132208
-7.50464555803
-7.35985975895
-7.21017426385
-7.05578828606
-6.89695542547
-6.73398017418
-6.56723230944
-6.39718928719
-1.97424758038
-1.94314947107
-1.95837408862
-2.01004108983
-2.08409868327
-2.1723007814
-2.26770464455
-2.36497396356
-2.4608863436
-2.55389719488
-2.64353260849
-2.72992352836
-2.81348859203
-2.89473790068
-2.97416715673
-3.05220913846
-3.12921889949
-3.20547586892
-3.28119320196
-3.35652952285
-3.43160036123
-3.50648843481
-3.58125201371
-3.65593145368
-3.73055479263
-3.80513989073
-3.87969888272
-3.95423907267
-4.02876450011
-4.10327715646
-4.17777768956
-4.25226600059
-4.32674154507
-4.40120343604
-4.47565048785
-4.55008112961
-4.62449338289
-4.69888512113
-4.77325420665
-4.8475985275
-4.92191604811
-4.99620444883
-5.07046105575
-5.14468288491
-5.21886675736
-5.29300943864
-5.36710753237
-5.44115733351
-5.51515470074
-5.58909505175
-5.66297352502
-5.73678505502
-5.81052437612
-5.88418584056
-5.95776324802
-6.03124983872
-6.10463840681
-6.17792133463
-6.25109053283
-6.32413735721
-6.39705251552
-6.46982610695
-6.54244766896
-6.6149061612
-6.68718975509
-6.75928573607
-6.8311805377
-6.90285977381
-6.97430831174
-7.04551027847
-7.11644892011
-7.18710640656
-7.25746372569
-7.32750075348
-7.39719632433
-7.46652824836
-7.53547322047
-7.60400664316
-7.67210252623
-7.73973347263
-7.8068707065
-7.87348409151
-7.93954210321
-8.00501174798
-8.06985844525
-8.13404594296
-8.19753636294
-8.2602901852
-8.32226611919
-8.38342112495
-8.44371055256
-8.50308812335
-8.56150557056
-8.61891270187
-8.67525730484
-8.73048493143
-8.78453922946
-8.83736209938
-8.88889347976
-8.93907119146
-8.98783123309
-9.03510765855
-9.08083259272
-9.12493615097
-9.16734655195
-9.20798992883
-9.24679035401
-9.28366983531
-9.31854871334
-9.35134562061
-9.38197733326
-9.41035888707
-9.43640385503
-9.4600243501
-9.48113101706
-9.499632976
-9.51543786541
-9.52845209495
-9.53858137419
-9.5457307872
-9.54980406687
-9.55070402772
-9.54833319467
-9.54259393453
-9.53338838405
-9.52061850657
-9.50418670305
-9.48399608203
-9.45995018551
-9.43195290505
-9.39990906974
-9.36372516618
-9.32330893497
-9.27857013926
-9.22942097608
-9.17577538353
-9.11755002206
-9.05466442573
-8.98704161934
-8.91460833077
-8.83729459823
-8.75503652499
-8.66777581603
-8.57545904255
-8.47804068838
-8.37548298952
-8.26775853598
-8.15485208672
-8.0367616481
-7.9135047506
-7.78511854956
-7.65166675846
-7.51324759297
-7.36999661372
-7.22209699789
-7.06978539237
-6.91336628513
-6.7532156776
-6.58980248122
-6.42372391251
-1.954998808
-1.92343324912
-1.94307910813
-2.00052451439
-2.07953724778
-2.17131707959
-2.26893480706
-2.36732289682
-2.46360494139
-2.55653903827
-2.64587165528
-2.73187590253
-2.81505234594
-2.89595213557
-2.97508702497
-3.05289186525
-3.12971668585
-3.20583300059
-3.28144551724
-3.35670508484
-3.43172057149
-3.50656928517
-3.58130526328
-3.65596547535
-3.73057638996
-3.80515316281
-3.8797067591
-3.95424352835
-4.02876680397
-4.10327810422
-4.17777779568
-4.25226560418
-4.32674091152
-4.40120277957
-4.47564993109
-4.55008070249
-4.62449304494
-4.698884814
-4.77325393004
-4.84759831544
-4.92191589841
-4.99620435757
-5.07046099916
-5.14468284101
-5.21886674858
-5.29300948628
-5.36710767624
-5.44115757767
-5.51515499092
-5.58909529962
-5.66297365067
-5.7367850479
-5.8105242713
-5.88418568778
-5.95776310208
-6.03124974195
-6.1046384098
-6.17792147055
-6.25109076652
-6.32413756674
-6.39705258083
-6.4698259957
-6.54244745503
-6.61490596071
-6.68718966753
-6.75928577407
-6.8311806185
-6.90285978621
-6.97430818875
-7.04551002281
-7.11644857573
-7.18710601431
-7.257463287
-7.32750023683
-7.39719572663
-7.46652761732
-7.53547260173
-7.60400602053
-7.67210182123
-7.73973260057
-7.80686961666
-7.87348276608
-7.93954054107
-8.00500997595
-8.06985654749
-8.13404402908
-8.19753446058
-8.26028819847
-8.32226392958
-8.38341863752
-8.44370772283
-8.50308500627
-8.56150228303
-8.6189092487
-8.67525364829
-8.73048105731
-8.78453506716
-8.83735748005
-8.88888839155
-8.93906575446
-8.98782551903
-9.035101686
-9.08082638171
-9.12492971988
-9.16733988148
-9.20798304705
-9.24678336331
-9.28366283847
-9.31854169198
-9.35133851916
-9.38197016575
-9.41035170612
-9.43639676826
-9.46001760759
-9.48112491284
-9.4996278457
-9.51543410246
-9.5284501506
-9.53858175776
-9.54573404566
-9.54981094974
-9.55071551228
-9.54835043623
-9.54261832885
-9.53342153897
-9.52066232848
-9.50424341635
-9.48406837932
-9.46004147974
-9.43206730823
-9.40005131554
-9.36390108667
-9.32352577063
-9.27883622733
-9.22974622673
-9.17617194527
-9.11803212931
-9.05524859073
-8.98774754925
-8.9154601342
-8.83832096042
-8.75627067909
-8.66925744564
-8.57723543732
-8.48016742334
-8.37802539447
-8.27079308692
-8.15846884815
-8.04106541823
-7.91861764898
-7.79118287257
-7.6588465888
-7.52173196962
-7.38000232717
-7.23387470427
-7.08362498913
-6.92960365979
-6.77224319932
-6.61207845908
-6.44976971766
-1.91276577143
-1.88171431215
-1.91164553677
-1.98141825362
-2.07058521551
-2.16946331
-2.27134307195
-2.37181580709
-2.46874284754
-2.56148941542
-2.65022667546
-2.73549333098
-2.81793898646
-2.89818734931
-2.97677684244
-3.0541440382
-3.13062847933
-3.2064864403
-3.28190673083
-3.35702569577
-3.4319399313
-3.50671681361
-3.58140275342
-3.65602937736
-3.73061611631
-3.80517736407
-3.87972092692
-3.95425125557
-4.02877048182
-4.10327930071
-4.17777755992
-4.25226463345