/*--------------------------------*- C++ -*----------------------------------*\
| =========                 |                                                 |
| \\      /  F ield         | OpenFOAM: The Open Source CFD Toolbox           |
|  \\    /   O peration     | Version:  2106                                  |
|   \\  /    A nd           | Website:  www.openfoam.com                      |
|    \\/     M anipulation  |                                                 |
\*---------------------------------------------------------------------------*/
FoamFile
{
    version     2.0;
    format      ascii;
    arch        "LSB;label=32;scalar=64";
    class       volVectorField;
    location    "0.435";
    object      U;
}
// * * * * * * * * * * * * * * * * * * * * * * * * * * * * * * * * * * * * * //

dimensions      [0 1 -1 0 0 0 0];

internalField   nonuniform List<vector> 
11200
(
(0.662462403718 0.150569442812 0)
(0.558948674611 0.103243389378 0)
(0.383850741317 0.0513512252305 0)
(0.283747601647 0.0248708560587 0)
(0.232075280082 0.0124170457019 0)
(0.201908601477 0.00662281698796 0)
(0.183197953417 0.00380291430438 0)
(0.171276515313 0.00231586977197 0)
(0.163510339565 0.00146450616093 0)
(0.158388809442 0.000944891971385 0)
(0.155006677188 0.000615176410045 0)
(0.152786728423 0.000402233248908 0)
(0.151346584448 0.000264231505853 0)
(0.150428353733 0.000175249164532 0)
(0.149856756229 0.000118359293525 0)
(0.149512562307 8.21580792107e-05 0)
(0.149315009826 5.88633337551e-05 0)
(0.149209656483 4.33124294471e-05 0)
(0.149159805762 3.29308370033e-05 0)
(0.149142574716 2.8182923222e-05 0)
(0.149144739253 2.76809797625e-05 0)
(0.14915702277 2.98870091801e-05 0)
(0.149172651352 3.30476111427e-05 0)
(0.149188205098 3.59633511304e-05 0)
(0.14920241949 3.85989841074e-05 0)
(0.149214694447 4.10381286785e-05 0)
(0.149224862169 4.33154601192e-05 0)
(0.149233029469 4.54622058421e-05 0)
(0.149239433023 4.75175756652e-05 0)
(0.149244354778 4.95284468668e-05 0)
(0.149248079724 5.15569672874e-05 0)
(0.149250875283 5.36940867515e-05 0)
(0.149252938499 5.60227846733e-05 0)
(0.149254439451 5.84042548219e-05 0)
(0.149255510861 6.0765575698e-05 0)
(0.149256239564 6.30868986728e-05 0)
(0.149256722057 6.53782852736e-05 0)
(0.149257042263 6.76531536053e-05 0)
(0.149257254222 6.99228231783e-05 0)
(0.149257386881 7.21935119759e-05 0)
(0.149257461348 7.44662765818e-05 0)
(0.149257494759 7.67420242366e-05 0)
(0.149257499039 7.90205260324e-05 0)
(0.149257482983 8.1300644638e-05 0)
(0.149257452822 8.35806098352e-05 0)
(0.149257413088 8.58581184779e-05 0)
(0.149257367795 8.81304140954e-05 0)
(0.149257321287 9.03943770279e-05 0)
(0.149257278289 9.26468529385e-05 0)
(0.149257244048 9.48848872318e-05 0)
(0.14925722563 9.71053136299e-05 0)
(0.149257232876 9.93052456168e-05 0)
(0.14925727921 0.000101481755401 0)
(0.149257383265 0.00010363136781 0)
(0.149257570864 0.000105749540414 0)
(0.149257877854 0.00010783070611 0)
(0.149258355397 0.000109867624701 0)
(0.1492590796 0.000111850546164 0)
(0.14926016027 0.000113766780604 0)
(0.14926175647 0.000115590659425 0)
(0.149264114997 0.000117267097877 0)
(0.149267645768 0.000118713897982 0)
(0.149272815548 0.000119970612071 0)
(0.149280272269 0.000121232151954 0)
(0.149291050839 0.000122964398705 0)
(0.149306672773 0.00012534052139 0)
(0.14932952862 0.000128120699048 0)
(0.149363313872 0.000131079644202 0)
(0.149413620972 0.000134003265349 0)
(0.149488679767 0.000136779327488 0)
(0.149600425909 0.000140688336899 0)
(0.149771703437 0.000151558993106 0)
(0.150040272872 0.000172278384989 0)
(0.150469276451 0.000202517151976 0)
(0.151194505938 0.00023242985674 0)
(0.152493577556 0.000191624332238 0)
(0.155022578522 -0.000216766707375 0)
(0.162375659093 -0.00210988396106 0)
(0.187702610114 -0.0107874882633 0)
(0.204354913734 -0.049654479269 0)
(0.965408254826 0.289214707288 0)
(0.961962862184 0.252656041821 0)
(0.823574397359 0.159021443564 0)
(0.698139376164 0.095995732937 0)
(0.610225473195 0.0582481154484 0)
(0.548971503438 0.0362148540662 0)
(0.506588903151 0.0231612856365 0)
(0.477567285862 0.0151375155929 0)
(0.457745511448 0.0100177553435 0)
(0.444228483464 0.006658141377 0)
(0.435053324613 0.00441555648629 0)
(0.428873147703 0.00290686595894 0)
(0.424754235113 0.00189105824062 0)
(0.422046689212 0.00121004468762 0)
(0.420297856777 0.000757162133575 0)
(0.419193253197 0.000459253774916 0)
(0.418515654532 0.000265851747944 0)
(0.418116515271 0.000142395801678 0)
(0.417895920764 6.61052098756e-05 0)
(0.417786879551 2.30882999508e-05 0)
(0.41774547554 1.40383498478e-06 0)
(0.41774220954 -1.01669724963e-05 0)
(0.417756818817 -1.37185043208e-05 0)
(0.417778789322 -1.3271972585e-05 0)
(0.417803095551 -1.08397760497e-05 0)
(0.417826477973 -7.49682747629e-06 0)
(0.4178472432 -3.8806322333e-06 0)
(0.417864792434 -3.61175869597e-07 0)
(0.417879129424 2.86007896341e-06 0)
(0.41789056971 5.67915295923e-06 0)
(0.417899585136 8.03185052687e-06 0)
(0.417906669421 9.83391109782e-06 0)
(0.417912024341 1.10030013356e-05 0)
(0.417915883507 1.18558639105e-05 0)
(0.417918624881 1.267762649e-05 0)
(0.417920523331 1.34347119585e-05 0)
(0.41792182155 1.41088034991e-05 0)
(0.417922710954 1.47243022929e-05 0)
(0.41792331781 1.53098253217e-05 0)
(0.417923713877 1.58792791133e-05 0)
(0.417923951863 1.64329840953e-05 0)
(0.417924075123 1.69758994071e-05 0)
(0.417924114258 1.75118586373e-05 0)
(0.417924091772 1.80441774857e-05 0)
(0.41792402391 1.85758890753e-05 0)
(0.417923922676 1.91093256042e-05 0)
(0.417923798499 1.9646374769e-05 0)
(0.41792366221 2.01889650244e-05 0)
(0.417923525926 2.07389215416e-05 0)
(0.417923403323 2.12985329258e-05 0)
(0.417923312548 2.18677331977e-05 0)
(0.417923278908 2.24467430723e-05 0)
(0.417923336457 2.30356464003e-05 0)
(0.417923531902 2.36341322974e-05 0)
(0.417923930874 2.42411457144e-05 0)
(0.417924625858 2.48562123209e-05 0)
(0.417925748944 2.54761002451e-05 0)
(0.417927495494 2.60893791063e-05 0)
(0.417930143559 2.66796218171e-05 0)
(0.417934084855 2.72150795354e-05 0)
(0.417939925374 2.76431807425e-05 0)
(0.417948764196 2.79221681918e-05 0)
(0.417962086253 2.82092596227e-05 0)
(0.417982034881 2.77431385007e-05 0)
(0.418011369821 2.51122561557e-05 0)
(0.418053698654 1.92664419553e-05 0)
(0.418115224547 9.39715306093e-06 0)
(0.418206068343 -6.03161434245e-06 0)
(0.418341830919 -2.95440698286e-05 0)
(0.41854740581 -6.48195917186e-05 0)
(0.418864685969 -0.000116046351534 0)
(0.419363254638 -0.000188189625626 0)
(0.42015656128 -0.000307970634292 0)
(0.42144823761 -0.000532937354171 0)
(0.423629865659 -0.000999886182012 0)
(0.427420012328 -0.00209045667465 0)
(0.434240578067 -0.00485605077708 0)
(0.448266008846 -0.0122528264805 0)
(0.474642383673 -0.0342383495335 0)
(0.478158900774 -0.0987598830947 0)
(1.0222209661 0.23841618769 0)
(1.08213753308 0.295926654172 0)
(1.0344772334 0.239503068055 0)
(0.954615419263 0.17429016596 0)
(0.879992069013 0.121345469688 0)
(0.818614452611 0.0830993851913 0)
(0.771410871707 0.0567316680304 0)
(0.736634416511 0.0387409693693 0)
(0.711624463823 0.0264327878591 0)
(0.693916658064 0.0179731056177 0)
(0.681541454849 0.0121424489203 0)
(0.67300016921 0.00812490912135 0)
(0.66718071115 0.00536632177492 0)
(0.663271748402 0.00348444520712 0)
(0.660688584652 0.00221256163271 0)
(0.659014268089 0.0013633815423 0)
(0.657954595439 0.000805243231613 0)
(0.657304311372 0.000445915886661 0)
(0.656921902343 0.000221067723081 0)
(0.656710346861 8.55801606367e-05 0)
(0.656603492511 8.35691810388e-06 0)
(0.656561953589 -3.37210815681e-05 0)
(0.656558063287 -5.68558675475e-05 0)
(0.656571548668 -6.68752000506e-05 0)
(0.656593087441 -6.84829052543e-05 0)
(0.656616915967 -6.55618399998e-05 0)
(0.656639726977 -6.05513216652e-05 0)
(0.656659913604 -5.48620731811e-05 0)
(0.656676890591 -4.92784712477e-05 0)
(0.65669063597 -4.42074531875e-05 0)
(0.656701396099 -3.98437087208e-05 0)
(0.656709555078 -3.63057686551e-05 0)
(0.656715809075 -3.36998977163e-05 0)
(0.656720847919 -3.18612928291e-05 0)
(0.656724715701 -3.08144568547e-05 0)
(0.656727428232 -3.0307137869e-05 0)
(0.656729296292 -3.02507440531e-05 0)
(0.656730599594 -3.05611637643e-05 0)
(0.656731505981 -3.10885652952e-05 0)
(0.656732105468 -3.17501547974e-05 0)
(0.656732472152 -3.25165439256e-05 0)
(0.656732671424 -3.33526647679e-05 0)
(0.656732748358 -3.42338728987e-05 0)
(0.656732736905 -3.51410430313e-05 0)
(0.656732661839 -3.6058784894e-05 0)
(0.656732541617 -3.69761367978e-05 0)
(0.656732392462 -3.7885720766e-05 0)
(0.656732230627 -3.87817539352e-05 0)
(0.656732073929 -3.96600648645e-05 0)
(0.656731940773 -4.05148968009e-05 0)
(0.656731855634 -4.13431935653e-05 0)
(0.656731854715 -4.21408336221e-05 0)
(0.65673198748 -4.29060758791e-05 0)
(0.656732322571 -4.36426844347e-05 0)
(0.656732957651 -4.43648625277e-05 0)
(0.656734029124 -4.51028790878e-05 0)
(0.656735726318 -4.59141017694e-05 0)
(0.656738330282 -4.68928887939e-05 0)
(0.656742250194 -4.81649410691e-05 0)
(0.656748082721 -4.99490491087e-05 0)
(0.656756770406 -5.27671011005e-05 0)
(0.656769964445 -5.75969170242e-05 0)
(0.656788960052 -6.52631838903e-05 0)
(0.656815204441 -7.66162469488e-05 0)
(0.656852573263 -9.33618783756e-05 0)
(0.656907778439 -0.000117887378644 0)
(0.656990188355 -0.000153397050237 0)
(0.657113598398 -0.000205180626501 0)
(0.65729982856 -0.000281758441252 0)
(0.657584274379 -0.000397003631542 0)
(0.658025063335 -0.000575262430175 0)
(0.658711379631 -0.000863794454973 0)
(0.659790260102 -0.00135265492771 0)
(0.661519208241 -0.00221492941007 0)
(0.664340307008 -0.00381309269474 0)
(0.668949163568 -0.00694580408678 0)
(0.676371399936 -0.013351415886 0)
(0.688614409274 -0.0268403818644 0)
(0.705236495308 -0.0563120841998 0)
(0.700484484511 -0.113066995643 0)
(1.02251475528 0.170807152847 0)
(1.1013897606 0.276496479737 0)
(1.11752426793 0.266664800439 0)
(1.09214661539 0.219901700019 0)
(1.051878169 0.16816884854 0)
(1.01020824038 0.12356739747 0)
(0.973494709727 0.088837522233 0)
(0.943864578012 0.0630063721915 0)
(0.921142825007 0.0442232047713 0)
(0.904284102032 0.030742393517 0)
(0.89207490257 0.021156294978 0)
(0.88340454951 0.0143954694013 0)
(0.877352715289 0.0096679489839 0)
(0.873197758893 0.00639383776536 0)
(0.870392989265 0.00415116509169 0)
(0.868534108224 0.00263449080708 0)
(0.867327719657 0.00162401694361 0)
(0.866564325434 0.000962675246209 0)
(0.86609657761 0.000539121496735 0)
(0.865822345414 0.000275152472978 0)
(0.865671511967 0.000117067059569 0)
(0.865595272003 2.87912794481e-05 0)
(0.865564224826 -1.93258078479e-05 0)
(0.865561427483 -4.12623013731e-05 0)
(0.865572781833 -4.76666760663e-05 0)
(0.865589798307 -4.55263697006e-05 0)
(0.865608117871 -3.91572060446e-05 0)
(0.865625466564 -3.1146817833e-05 0)
(0.865640760518 -2.29661850756e-05 0)
(0.865653632942 -1.53829376794e-05 0)
(0.865664115379 -8.72584673703e-06 0)
(0.865672410935 -3.04751495303e-06 0)
(0.865678772352 1.73106800405e-06 0)
(0.865683407549 5.46252093938e-06 0)
(0.865686734287 8.03064569219e-06 0)
(0.865689139844 9.78846780947e-06 0)
(0.865690778972 1.11421848007e-05 0)
(0.86569194763 1.22872039423e-05 0)
(0.865692822389 1.32557826497e-05 0)
(0.86569342179 1.41419667936e-05 0)
(0.865693793591 1.49366474873e-05 0)
(0.865694002366 1.56625082102e-05 0)
(0.865694086791 1.63353761272e-05 0)
(0.865694078327 1.69715520264e-05 0)
(0.865693999728 1.7585722872e-05 0)
(0.865693867171 1.81880315852e-05 0)
(0.865693695947 1.87858619655e-05 0)
(0.865693502812 1.93849768556e-05 0)
(0.865693309005 1.99922860956e-05 0)
(0.865693137637 2.06189123236e-05 0)
(0.86569301901 2.12498051755e-05 0)
(0.865692995713 2.18718009145e-05 0)
(0.865693121203 2.24678334653e-05 0)
(0.865693465528 2.30114969218e-05 0)
(0.865694124284 2.34678367301e-05 0)
(0.865695228295 2.38058345154e-05 0)
(0.865696963054 2.39754488417e-05 0)
(0.865699623823 2.3862010389e-05 0)
(0.86570361629 2.33208427035e-05 0)
(0.865709352106 2.19347120705e-05 0)
(0.865717323879 1.91439380354e-05 0)
(0.865729143663 1.4220889678e-05 0)
(0.865747391467 5.34374494816e-06 0)
(0.865775048945 -9.05617659755e-06 0)
(0.865815979222 -3.09803069278e-05 0)
(0.865876111223 -6.44008852354e-05 0)
(0.86596478966 -0.000116191217701 0)
(0.866096531912 -0.000197109966904 0)
(0.866293889499 -0.000324413061913 0)
(0.866591680636 -0.000526567811109 0)
(0.867043503304 -0.000852507756018 0)
(0.867734406492 -0.00138914751038 0)
(0.868800707895 -0.00228521451982 0)
(0.870455601384 -0.00381522636427 0)
(0.873017860564 -0.00650329991085 0)
(0.876886187996 -0.0113586077065 0)
(0.88238278192 -0.0202497930669 0)
(0.889690403317 -0.0364467531202 0)
(0.896363509285 -0.0654800121137 0)
(0.886531673833 -0.110020188278 0)
(1.01287875147 0.118961023574 0)
(1.08820671024 0.231806937907 0)
(1.13741367609 0.253106765708 0)
(1.15409087444 0.228992754618 0)
(1.1499421183 0.188368360052 0)
(1.13538466654 0.14657984533 0)
(1.11758896265 0.110150967054 0)
(1.10059501988 0.0808162234171 0)
(1.08612459287 0.0582265776434 0)
(1.07459095055 0.0413189861926 0)
(1.06579149766 0.0289160213521 0)
(1.05928802537 0.0199601009964 0)
(1.05459980625 0.0135815609662 0)
(1.05129081475 0.00909744379787 0)
(1.0489999042 0.00598615430584 0)
(1.04744346891 0.00385696660539 0)
(1.04640660406 0.00242159802912 0)
(1.04573069805 0.00147015023764 0)
(1.0453011525 0.000851702123393 0)
(1.04503666554 0.000459016570372 0)
(1.04488031349 0.000216757110137 0)
(1.04479270802 7.30181326791e-05 0)
(1.04474885385 -5.50361268319e-06 0)
(1.04473196538 -4.40079406053e-05 0)
(1.04472972542 -5.93852790902e-05 0)
(1.04473521986 -6.1719182306e-05 0)
(1.04474417784 -5.72459705052e-05 0)
(1.04475407146 -4.98045457896e-05 0)
(1.04476352111 -4.16459260356e-05 0)
(1.04477185649 -3.39909410059e-05 0)
(1.04477882739 -2.74261964907e-05 0)
(1.04478442123 -2.2154653062e-05 0)
(1.044788784 -1.81313913376e-05 0)
(1.0447921266 -1.51426542844e-05 0)
(1.04479470399 -1.28115135053e-05 0)
(1.04479680952 -1.10151658346e-05 0)
(1.04479855503 -9.52684273844e-06 0)
(1.04479988633 -8.23742840271e-06 0)
(1.04480087337 -7.21808134135e-06 0)
(1.04480156737 -6.54895085194e-06 0)
(1.04480198939 -6.16971021257e-06 0)
(1.04480222678 -5.96149254816e-06 0)
(1.0448023249 -5.87292484914e-06 0)
(1.04480232193 -5.85606777181e-06 0)
(1.04480224304 -5.87015286923e-06 0)
(1.04480210606 -5.89514379949e-06 0)
(1.04480192852 -5.92104327735e-06 0)
(1.04480173114 -5.9435630178e-06 0)
(1.04480154183 -5.96566018462e-06 0)
(1.04480136759 -6.00187129556e-06 0)
(1.04480122228 -6.03472332773e-06 0)
(1.04480115184 -6.06198648963e-06 0)
(1.04480121142 -6.09062224763e-06 0)
(1.04480147836 -6.13589755557e-06 0)
(1.04480207954 -6.23857154293e-06 0)
(1.04480318584 -6.52241337973e-06 0)
(1.04480498591 -7.23933829881e-06 0)
(1.04480778468 -8.66942712203e-06 0)
(1.04481188837 -1.1306494407e-05 0)
(1.04481777157 -1.51475578254e-05 0)
(1.04482644498 -2.00802349591e-05 0)
(1.04483905872 -2.63332817285e-05 0)
(1.04485692239 -3.61711981809e-05 0)
(1.04488233622 -5.25816184001e-05 0)
(1.04491876981 -7.97766281057e-05 0)
(1.04497138042 -0.000124000085508 0)
(1.04504777528 -0.000195019916399 0)
(1.04515930649 -0.000308413941993 0)
(1.04532312424 -0.000489343744168 0)
(1.04556509378 -0.000778823350018 0)
(1.0459238916 -0.00124415425509 0)
(1.04645736266 -0.00199695041168 0)
(1.04724960209 -0.00322770018956 0)
(1.04841351736 -0.00526708995839 0)
(1.05007635283 -0.00869179604193 0)
(1.05229467239 -0.0144952667766 0)
(1.05482437426 -0.0242840323611 0)
(1.05687580685 -0.0403672136947 0)
(1.0557433388 -0.0655829548439 0)
(1.04213032742 -0.09943283615 0)
(1.00447483493 0.0814039974825 0)
(1.06917237506 0.181288539722 0)
(1.13080569089 0.216950419477 0)
(1.17375001013 0.210789156183 0)
(1.19865266087 0.183690077563 0)
(1.21019989221 0.149751684157 0)
(1.21350257322 0.11677914499 0)
(1.21251726007 0.0882206787276 0)
(1.20973100683 0.06504815166 0)
(1.2065112247 0.0470209094621 0)
(1.20351916667 0.0334068088874 0)
(1.20101149115 0.0233557326637 0)
(1.19903449674 0.0160720137444 0)
(1.19753883178 0.0108795134286 0)
(1.19644137432 0.00723418759575 0)
(1.19565565329 0.00471351800712 0)
(1.19510496586 0.00299762881003 0)
(1.19472656198 0.00184916086099 0)
(1.19447159074 0.00109496077674 0)
(1.19430329063 0.000610612052036 0)
(1.19419466183 0.000307987551425 0)
(1.19412638778 0.00012576975232 0)
(1.19408534842 2.22245181798e-05 0)
(1.19406209964 -3.24505864697e-05 0)
(1.19404980891 -5.72693930169e-05 0)
(1.19404431926 -6.45953314466e-05 0)
(1.19404282995 -6.23738770933e-05 0)
(1.19404352259 -5.55198389811e-05 0)
(1.19404528146 -4.69435953449e-05 0)
(1.19404744818 -3.82584602481e-05 0)
(1.19404965059 -3.0265457414e-05 0)
(1.19405169653 -2.32696422714e-05 0)
(1.19405351663 -1.72944202466e-05 0)
(1.19405510569 -1.22662008948e-05 0)
(1.19405648004 -8.07836463437e-06 0)
(1.19405765892 -4.67697669957e-06 0)
(1.19405861517 -2.0654207559e-06 0)
(1.19405929612 -1.75335184736e-07 0)
(1.19405966097 1.14306343682e-06 0)
(1.19405978439 1.99863994087e-06 0)
(1.19405984783 2.67548690052e-06 0)
(1.19405988885 3.27593776516e-06 0)
(1.19405987981 3.80003986672e-06 0)
(1.19405983686 4.25816887915e-06 0)
(1.19405975773 4.66132688786e-06 0)
(1.19405963339 5.02603317715e-06 0)
(1.19405946703 5.36428705852e-06 0)
(1.19405926633 5.67949986185e-06 0)
(1.19405903951 5.96371840903e-06 0)
(1.19405882863 6.19843553551e-06 0)
(1.19405868252 6.4076436532e-06 0)
(1.19405863056 6.5847659637e-06 0)
(1.19405872119 6.70307245699e-06 0)
(1.19405901065 6.7220022951e-06 0)
(1.19405952703 6.58075056071e-06 0)
(1.19406025701 6.18223272379e-06 0)
(1.19406129917 5.38353708723e-06 0)
(1.19406280004 3.77897483557e-06 0)
(1.19406546993 9.9175543442e-07 0)
(1.19407032534 -3.29121260467e-06 0)
(1.19407785042 -9.85350133571e-06 0)
(1.19408799875 -2.00635040544e-05 0)
(1.19410156298 -3.59460102667e-05 0)
(1.19412053621 -6.04251173784e-05 0)
(1.19414704527 -9.80836148413e-05 0)
(1.19418391795 -0.000156240318655 0)
(1.1942351518 -0.000246542165372 0)
(1.19430638697 -0.00038746934815 0)
(1.19440551747 -0.000608479079909 0)
(1.19454333085 -0.000956898518874 0)
(1.1947338789 -0.00150922720305 0)
(1.19499394139 -0.00238972620686 0)
(1.19533834321 -0.00380158302242 0)
(1.19576435054 -0.00607765158483 0)
(1.19621163706 -0.00975664054337 0)
(1.19646048285 -0.0156821355013 0)
(1.19592411177 -0.025064662395 0)
(1.19344811345 -0.0393593016589 0)
(1.18669769683 -0.0598082450616 0)
(1.17015510283 -0.0851004465568 0)
(0.998962325835 0.0544316250947 0)
(1.05310957001 0.133401608214 0)
(1.11628268587 0.170777558712 0)
(1.17301272526 0.175143872447 0)
(1.21791247081 0.159583606841 0)
(1.25049859027 0.134951020817 0)
(1.27288492608 0.108411657757 0)
(1.28776723961 0.0838849728817 0)
(1.29745270235 0.0630565734805 0)
(1.30366077735 0.046299922464 0)
(1.30759237554 0.0333205157521 0)
(1.31005373917 0.0235495247437 0)
(1.31157366966 0.0163599082491 0)
(1.31249497966 0.0111713153979 0)
(1.31303868076 0.00749150675762 0)
(1.31334678134 0.00492448577745 0)
(1.313510205 0.00316295502078 0)
(1.31358684546 0.00197475163691 0)
(1.31361323308 0.001188196683 0)
(1.31361209546 0.000678629155087 0)
(1.31359727021 0.000357008440907 0)
(1.31357696172 0.000160754233498 0)
(1.31355598004 4.64695058541e-05 0)
(1.3135366971 -1.58689374894e-05 0)
(1.31352005149 -4.60575850337e-05 0)
(1.31350637487 -5.70677907152e-05 0)
(1.31349548222 -5.73228335066e-05 0)
(1.31348703658 -5.20848301988e-05 0)
(1.31348064967 -4.45231157518e-05 0)
(1.31347593606 -3.64620811281e-05 0)
(1.31347254462 -2.88744504062e-05 0)
(1.31347017259 -2.2214063131e-05 0)
(1.31346856035 -1.6631927665e-05 0)
(1.3134674796 -1.21354935831e-05 0)
(1.3134667652 -8.65905149867e-06 0)
(1.31346631993 -6.1009983964e-06 0)
(1.31346604281 -4.3243386402e-06 0)
(1.31346584451 -3.12224349383e-06 0)
(1.31346572162 -2.26551811521e-06 0)
(1.31346575973 -1.549754344e-06 0)
(1.31346592193 -9.74191108788e-07 0)
(1.31346603042 -5.62137562678e-07 0)
(1.3134660348 -2.05919618742e-07 0)
(1.31346596674 1.26611487591e-07 0)
(1.31346584627 4.33172604996e-07 0)
(1.31346568664 7.21672073827e-07 0)
(1.31346549184 1.00345805806e-06 0)
(1.31346526495 1.28800057982e-06 0)
(1.3134650158 1.58487244889e-06 0)
(1.31346477846 1.89916908599e-06 0)
(1.31346457704 2.18024815908e-06 0)
(1.31346441924 2.3884612713e-06 0)
(1.31346433631 2.47944191501e-06 0)
(1.31346438282 2.38918201599e-06 0)
(1.3134646466 2.03236208861e-06 0)
(1.31346524607 1.32734974692e-06 0)
(1.31346613353 2.14222576545e-07 0)
(1.31346744406 -1.4740172539e-06 0)
(1.31346959521 -4.00204488554e-06 0)
(1.3134727727 -8.10207669033e-06 0)
(1.31347720335 -1.50466954641e-05 0)
(1.31348311955 -2.63996039244e-05 0)
(1.31349080506 -4.37582068244e-05 0)
(1.3135007494 -7.03051075499e-05 0)
(1.31351327529 -0.000111072480387 0)
(1.31352847304 -0.000173807957003 0)
(1.31354597013 -0.000270595229804 0)
(1.31356446608 -0.000420391496343 0)
(1.31358078762 -0.000653011430316 0)
(1.31358805058 -0.00101566645246 0)
(1.31357222052 -0.00158333938921 0)
(1.31350589207 -0.00247504755952 0)
(1.31333489541 -0.00387798211358 0)
(1.31295174072 -0.00608439286267 0)
(1.31214654832 -0.00953857969759 0)
(1.31051415696 -0.0148817769272 0)
(1.30730154476 -0.0229417767601 0)
(1.30129964727 -0.0345582730645 0)
(1.29064165581 -0.0501677739677 0)
(1.27185716852 -0.068542723931 0)
(0.995736074358 0.0346338593954 0)
(1.04179514619 0.0905689213672 0)
(1.10222839308 0.12154956513 0)
(1.1649141258 0.129605834281 0)
(1.2220256764 0.122009268867 0)
(1.26951893737 0.106019939136 0)
(1.30680225919 0.0870975571113 0)
(1.33499537974 0.0686366824748 0)
(1.35574480619 0.0523698405956 0)
(1.37069620513 0.0389256194848 0)
(1.38128279913 0.0282980746833 0)
(1.38866272757 0.0201712780916 0)
(1.39373039092 0.0141175109332 0)
(1.39715667257 0.00970533618945 0)
(1.39943442232 0.00655059521692 0)
(1.40091975315 0.00433445449929 0)
(1.40186630918 0.0028041447837 0)
(1.40245234022 0.00176574317886 0)
(1.4028014491 0.00107419545939 0)
(1.40299815779 0.000623235657862 0)
(1.40309939129 0.000336410131837 0)
(1.40314285713 0.000159624252695 0)
(1.40315313025 5.51654299933e-05 0)
(1.40314565374 -2.99685780186e-06 0)
(1.40312990665 -3.21212507059e-05 0)
(1.40311151689 -4.38889860499e-05 0)
(1.40309349135 -4.57595957811e-05 0)
(1.40307735463 -4.24181773957e-05 0)
(1.40306370819 -3.6728140131e-05 0)
(1.40305262572 -3.03662374032e-05 0)
(1.40304390524 -2.4246883036e-05 0)
(1.40303722138 -1.88171235651e-05 0)
(1.40303221307 -1.42456326026e-05 0)
(1.40302853032 -1.05343779395e-05 0)
(1.40302587546 -7.58266521012e-06 0)
(1.40302401637 -5.26573768576e-06 0)
(1.40302277652 -3.46101180905e-06 0)
(1.40302200552 -2.02512093804e-06 0)
(1.40302153807 -8.53006047141e-07 0)
(1.40302117959 7.8133682897e-08 0)
(1.40302086159 7.87013429294e-07 0)
(1.40302066439 1.27657671748e-06 0)
(1.40302057675 1.6477583693e-06 0)
(1.40302050754 1.96496465462e-06 0)
(1.40302042154 2.26628726778e-06 0)
(1.4030203118 2.56985992437e-06 0)
(1.40302017693 2.88489582735e-06 0)
(1.40302001956 3.21572120641e-06 0)
(1.40301984199 3.56275344748e-06 0)
(1.40301963741 3.9170863581e-06 0)
(1.40301941714 4.23667697014e-06 0)
(1.40301921537 4.48900998685e-06 0)
(1.40301906093 4.63606992326e-06 0)
(1.40301897753 4.61808832793e-06 0)
(1.40301898036 4.34704725927e-06 0)
(1.40301907671 3.6800041108e-06 0)
(1.40301929079 2.41772826118e-06 0)
(1.40301959648 4.31058542784e-07 0)
(1.40302024264 -2.71024168366e-06 0)
(1.40302142863 -7.75374839809e-06 0)
(1.40302297778 -1.55056097917e-05 0)
(1.4030245672 -2.72908822961e-05 0)
(1.40302573333 -4.49661885861e-05 0)
(1.40302573587 -7.1519545421e-05 0)
(1.40302308968 -0.000111543781694 0)
(1.40301506296 -0.000172071026792 0)
(1.40299685623 -0.00026397625941 0)
(1.40296029354 -0.000404135821617 0)
(1.40289145434 -0.000618611394832 0)
(1.40276664783 -0.000948008714571 0)
(1.40254586142 -0.00145564092573 0)
(1.40216277598 -0.00223992347423 0)
(1.40150591031 -0.00344988013497 0)
(1.40038701556 -0.00530917144513 0)
(1.39849293416 -0.00814050559051 0)
(1.39531071258 -0.0123785260575 0)
(1.39002758225 -0.0185339514493 0)
(1.38149588553 -0.027044179456 0)
(1.36822034882 -0.0379905515674 0)
(1.34781012154 -0.050480362372 0)
(0.994011531569 0.0192358053883 0)
(1.03484763827 0.0523338399421 0)
(1.09199263256 0.0723631269664 0)
(1.15662420845 0.0791292316257 0)
(1.22032117548 0.0761045462994 0)
(1.27701946883 0.0673339718388 0)
(1.32424420968 0.056150904375 0)
(1.36181576166 0.0447990122943 0)
(1.390685339 0.0345303791853 0)
(1.4122607867 0.0258814341573 0)
(1.42801826398 0.0189465255771 0)
(1.43929888909 0.0135849833615 0)
(1.44722812886 0.00955653515125 0)
(1.45270419188 0.00660011589835 0)
(1.45641902515 0.00447419047904 0)
(1.45889152026 0.00297351370746 0)
(1.46050239551 0.00193276911871 0)
(1.46152580376 0.00122369463515 0)
(1.46215583166 0.000749551878078 0)
(1.46252766904 0.000439019559822 0)
(1.462733959 0.000240523370406 0)
(1.46283711461 0.000117414469424 0)
(1.46287842981 4.40521213701e-05 0)
(1.46288468133 2.69357555658e-06 0)
(1.46287256903 -1.84416571105e-05 0)
(1.46285222943 -2.74358640742e-05 0)
(1.46282968972 -2.94362728772e-05 0)
(1.4628081627 -2.76870042111e-05 0)
(1.46278917606 -2.4185823367e-05 0)
(1.46277327408 -2.01137217922e-05 0)
(1.46276044791 -1.61195088409e-05 0)
(1.46275040309 -1.25257057157e-05 0)
(1.46274272918 -9.4591069056e-06 0)
(1.46273699404 -6.93051059421e-06 0)
(1.46273279916 -4.88613609411e-06 0)
(1.4627298023 -3.2567460713e-06 0)
(1.46272771529 -1.97933761801e-06 0)
(1.46272628154 -1.01291963865e-06 0)
(1.46272528829 -3.12867414941e-07 0)
(1.46272467095 2.09014131402e-07 0)
(1.46272431767 6.88962822892e-07 0)
(1.46272407797 1.16331400556e-06 0)
(1.46272391902 1.58639403965e-06 0)
(1.46272380193 1.96429339454e-06 0)
(1.46272369712 2.31789201721e-06 0)
(1.46272358571 2.6604995787e-06 0)
(1.4627234545 2.99736724196e-06 0)
(1.4627232953 3.32661942753e-06 0)
(1.46272310407 3.6384212842e-06 0)
(1.46272287848 3.91929827647e-06 0)
(1.46272262198 4.16090022446e-06 0)
(1.46272234332 4.33213099315e-06 0)
(1.46272204915 4.3810376426e-06 0)
(1.46272175063 4.23751265288e-06 0)
(1.46272146641 3.80949852188e-06 0)
(1.46272121807 2.99237864446e-06 0)
(1.46272095832 1.66312786247e-06 0)
(1.46272060922 -3.1270149607e-07 0)
(1.46272005707 -3.1567383198e-06 0)
(1.46271915224 -7.75993357211e-06 0)
(1.46271761775 -1.4903126529e-05 0)
(1.46271477928 -2.56778183095e-05 0)
(1.46270952324 -4.16349896689e-05 0)
(1.46270004422 -6.51597943721e-05 0)
(1.46268328298 -9.9855397022e-05 0)
(1.46265410651 -0.00015111850295 0)
(1.46260400961 -0.000227132687655 0)
(1.46251923755 -0.000340376504942 0)
(1.46237734244 -0.000509467540721 0)
(1.46214150867 -0.000762822740485 0)
(1.461751785 -0.00114417344718 0)
(1.46111359132 -0.00172119532391 0)
(1.46007588538 -0.00258964095736 0)
(1.45839778113 -0.00388901168259 0)
(1.45570547022 -0.00581164971788 0)
(1.45143374442 -0.00860060627443 0)
(1.44476252424 -0.0125159189857 0)
(1.43462319878 -0.0177378583065 0)
(1.41975700869 -0.0242144423641 0)
(1.39831915317 -0.0313993925435 0)
(0.99326966758 0.00617014914004 0)
(1.03158100243 0.0171020451504 0)
(1.08672182386 0.0239906477823 0)
(1.15174555327 0.0265606652337 0)
(1.21823537491 0.0258180587323 0)
(1.2792577572 0.0230488866686 0)
(1.33140137959 0.0193656325877 0)
(1.3737760119 0.0155468595839 0)
(1.4069105637 0.012044932153 0)
(1.43203316951 0.00906640176663 0)
(1.45060218985 0.00666059667496 0)
(1.46402990463 0.00479009315224 0)
(1.47355021378 0.00337842974614 0)
(1.48017569455 0.00233873943784 0)
(1.48470235728 0.00158891533841 0)
(1.48773628412 0.00105829055037 0)
(1.4897274333 0.000689464812966 0)
(1.49100287576 0.000437640994573 0)
(1.49179596897 0.000268888932235 0)
(1.49227035323 0.000158114858338 0)
(1.49253885912 8.71288752565e-05 0)
(1.49267794957 4.29794437305e-05 0)
(1.49273849684 1.65896750107e-05 0)
(1.49275368426 1.66911988635e-06 0)
(1.49274446043 -6.06376697609e-06 0)
(1.49272368496 -9.40933014195e-06 0)
(1.49269905305 -1.02159468402e-05 0)
(1.49267479261 -9.65323449858e-06 0)
(1.4926530011 -8.44001336125e-06 0)
(1.4926345198 -6.99395251154e-06 0)
(1.49261947128 -5.55535174314e-06 0)
(1.49260759331 -4.2441104742e-06 0)
(1.49259845646 -3.10771119199e-06 0)
(1.49259158535 -2.1523862905e-06 0)
(1.49258652604 -1.36202419227e-06 0)
(1.49258287846 -7.14921126274e-07 0)
(1.4925803069 -1.89617353218e-07 0)
(1.49257854127 2.35579212747e-07 0)
(1.49257737615 6.064059764e-07 0)
(1.49257663375 9.75754571195e-07 0)
(1.49257615976 1.28071693897e-06 0)
(1.49257586242 1.56442272615e-06 0)
(1.49257568406 1.84435086713e-06 0)
(1.4925755723 2.13058306185e-06 0)
(1.49257548794 2.43027177704e-06 0)
(1.49257540462 2.74620569097e-06 0)
(1.49257530407 3.07756111798e-06 0)
(1.49257517335 3.42008077839e-06 0)
(1.49257500263 3.76484137693e-06 0)
(1.49257478369 4.09727504105e-06 0)
(1.49257451138 4.39741539892e-06 0)
(1.49257418184 4.63350151168e-06 0)
(1.49257378891 4.7574164798e-06 0)
(1.49257331975 4.71046977483e-06 0)
(1.49257275516 4.40542542921e-06 0)
(1.49257206913 3.72173993764e-06 0)
(1.49257124515 2.50476845183e-06 0)
(1.49257014281 6.90030092274e-07 0)
(1.49256835059 -1.98270547075e-06 0)
(1.49256557844 -6.14232699822e-06 0)
(1.49256142637 -1.23212238659e-05 0)
(1.49255486725 -2.12950234397e-05 0)
(1.49254429127 -3.41539842135e-05 0)
(1.4925271595 -5.24545643729e-05 0)
(1.49249936 -7.83990494911e-05 0)
(1.49245419811 -0.000115024900035 0)
(1.49238079988 -0.000166705970902 0)
(1.49226209553 -0.000239951061373 0)
(1.49207073714 -0.000343272719347 0)
(1.4917621497 -0.000489206733153 0)
(1.49126404001 -0.000697893749702 0)
(1.49046765985 -0.00100311992791 0)
(1.48920368847 -0.00143738905342 0)
(1.4872063553 -0.00204817886932 0)
(1.48407730369 -0.00289683769791 0)
(1.47923686476 -0.00405085084624 0)
(1.47187843744 -0.00556448714534 0)
(1.4609888556 -0.00743923596639 0)
(1.44542142569 -0.00958104309337 0)
(1.42356744884 -0.0117414047857 0)
(0.993270465422 -0.00616840336611 0)
(1.03158098514 -0.0171003772928 0)
(1.08672175772 -0.0239897630627 0)
(1.15174559113 -0.0265602480339 0)
(1.21823545302 -0.025817993763 0)
(1.27925785942 -0.0230491100799 0)
(1.33140150569 -0.019366046446 0)