/*--------------------------------*- C++ -*----------------------------------*\
| =========                 |                                                 |
| \\      /  F ield         | OpenFOAM: The Open Source CFD Toolbox           |
|  \\    /   O peration     | Version:  2106                                  |
|   \\  /    A nd           | Website:  www.openfoam.com                      |
|    \\/     M anipulation  |                                                 |
\*---------------------------------------------------------------------------*/
FoamFile
{
    version     2.0;
    format      ascii;
    arch        "LSB;label=32;scalar=64";
    class       surfaceScalarField;
    location    "0.165";
    object      phi;
}
// * * * * * * * * * * * * * * * * * * * * * * * * * * * * * * * * * * * * * //

dimensions      [0 3 -1 0 0 0 0];

oriented        oriented;

internalField   nonuniform List<scalar> 
22100
(
3.38461204079e-05
1.61538795876e-05
2.24572100578e-05
1.13889103492e-05
1.62585532831e-05
6.19865676032e-06
1.2797776374e-05
3.46077686707e-06
1.0804642553e-05
1.99313377786e-06
9.60458954444e-06
1.20005294083e-06
8.85132176896e-06
7.53267688774e-07
8.36435291471e-06
4.86968759287e-07
8.04433497538e-06
3.20017844202e-07
7.8328401111e-06
2.11494778518e-07
7.69339686789e-06
1.39443167237e-07
7.60223989214e-06
9.11569104439e-08
7.54347701277e-06
5.87628251377e-08
7.50633998905e-06
3.71369758063e-08
7.4835003588e-06
2.28395842785e-08
7.4699794015e-06
1.35209067713e-08
7.46241463434e-06
7.56470763605e-09
7.45854645506e-06
3.8681117809e-09
7.45682728255e-06
1.71910179143e-09
7.45642053739e-06
4.0668164393e-10
7.45677026695e-06
-3.49781540997e-10
7.45745638303e-06
-6.86154288656e-10
7.4582147035e-06
-7.58351629555e-10
7.45894003748e-06
-7.25363862921e-10
7.45958444085e-06
-6.44437122196e-10
7.46012854448e-06
-5.44141190479e-10
7.46057091484e-06
-4.42408426038e-10
7.46092001044e-06
-3.49133002298e-10
7.46118873662e-06
-2.68762123062e-10
7.46139117609e-06
-2.02474298513e-10
7.46154069783e-06
-1.49558859416e-10
7.46164898508e-06
-1.08324999813e-10
7.46172574425e-06
-7.6792955886e-11
7.46177909747e-06
-5.33845883852e-11
7.46181308225e-06
-3.40140006334e-11
7.46183258848e-06
-1.95302543838e-11
7.46184229672e-06
-9.72514130199e-12
7.46184568334e-06
-3.39795967023e-12
7.46184470416e-06
9.72937023717e-13
7.4618404741e-06
4.22846055891e-12
7.46183392148e-06
6.55625199176e-12
7.4618256541e-06
8.28039545331e-12
7.46181603574e-06
9.6381127206e-12
7.46180524018e-06
1.08140352044e-11
7.46179327414e-06
1.19763380636e-11
7.46178001716e-06
1.32570236283e-11
7.46176524435e-06
1.47674857496e-11
7.46174862648e-06
1.66088771708e-11
7.46172971806e-06
1.88882623165e-11
7.4617079972e-06
2.16845762527e-11
7.46168287358e-06
2.50775818712e-11
7.46165366073e-06
2.91761078688e-11
7.46161955867e-06
3.40863371095e-11
7.46157967211e-06
3.98888401107e-11
7.4615330677e-06
4.66205030082e-11
7.46147885495e-06
5.42412444332e-11
7.46141627207e-06
6.26147555992e-11
7.46134501634e-06
7.12676635981e-11
7.4612657133e-06
7.92727857699e-11
7.46118071206e-06
8.49355492918e-11
7.46109596978e-06
8.46566838356e-11
7.46102390923e-06
7.19748779139e-11
7.4609729647e-06
5.08735907565e-11
7.46096161381e-06
1.13279060916e-11
7.46102572132e-06
-6.40763728355e-11
7.46122361826e-06
-1.97848867408e-10
7.46165012573e-06
-4.2647114912e-10
7.46245602541e-06
-8.0589195199e-10
7.4638779405e-06
-1.42192998485e-09
7.46627352085e-06
-2.39559799113e-09
7.47009470843e-06
-3.82120886802e-09
7.47656279789e-06
-6.4681599637e-09
7.4873751138e-06
-1.08124457955e-08
7.50562920389e-06
-1.82542162671e-08
7.53896092412e-06
-3.33318059148e-08
7.60846698092e-06
-6.95061101911e-08
7.77580869072e-06
-1.67341697898e-07
8.23260390562e-06
-4.56795055628e-07
9.70682157449e-06
-1.47421735133e-06
-5.48156550792e-06
1.51883872955e-05
5.02175948851e-05
1.5936284684e-05
4.42441116875e-05
1.73623934879e-05
3.77795015994e-05
1.26632667858e-05
3.2646144122e-05
8.5941342457e-06
2.89380919933e-05
5.70118578951e-06
2.63596215535e-05
3.77852323793e-06
2.45875170845e-05
2.52537200071e-06
2.33734749635e-05
1.70101072409e-06
2.25435258529e-05
1.1499668056e-06
2.19782171141e-05
7.76803383727e-07
2.15955145418e-05
5.22145624614e-07
2.13387379409e-05
3.47933412703e-07
2.11684963887e-05
2.29004290537e-07
2.10573387529e-05
1.48294528021e-07
2.0986150818e-05
9.4027432498e-08
2.09416784288e-05
5.79932019154e-08
2.09147966236e-05
3.44464144686e-08
2.08992975639e-05
1.9367073887e-08
2.08910739184e-05
9.94266007216e-09
2.08872737913e-05
4.20673511596e-09
2.08862050937e-05
7.18857898541e-10
2.08864511031e-05
-9.32215034417e-10
2.08873229749e-05
-1.63027641458e-09
2.08884630349e-05
-1.8654847894e-09
2.08896370612e-05
-1.81853234501e-09
2.08907209004e-05
-1.62805129434e-09
2.08916594992e-05
-1.38107422627e-09
2.08924381749e-05
-1.1278702213e-09
2.08930646641e-05
-8.95309258629e-10
2.08935581308e-05
-6.95996267638e-10
2.08939432506e-05
-5.34731588166e-10
2.08942465412e-05
-4.11668439818e-10
2.08944592039e-05
-2.89505161797e-10
2.08946079524e-05
-2.0217845309e-10
2.08947099802e-05
-1.36081072701e-10
2.08947769813e-05
-8.65623746837e-11
2.08948189145e-05
-5.1682029809e-11
2.08948440432e-05
-2.85435348339e-11
2.08948572228e-05
-1.22146628798e-11
2.08948613495e-05
1.0696663095e-13
2.08948588269e-05
9.09619539244e-12
2.08948513163e-05
1.58183213078e-11
2.08948399446e-05
2.10365548735e-11
2.08948254271e-05
2.53453272224e-11
2.08948081384e-05
2.92675499184e-11
2.0894788218e-05
3.31781514696e-11
2.08947656415e-05
3.73394024643e-11
2.08947402649e-05
4.19541396141e-11
2.08947118445e-05
4.72367291135e-11
2.0894680129e-05
5.33041087951e-11
2.08946449042e-05
6.02200432223e-11
2.08946060102e-05
6.80315304434e-11
2.0894563418e-05
7.66889570794e-11
2.08945173672e-05
8.59902819158e-11
2.08944685979e-05
9.5467157687e-11
2.0894418739e-05
1.04175398898e-10
2.0894370848e-05
1.10540898781e-10
2.08943304937e-05
1.1159873394e-10
2.08943069933e-05
1.02691134266e-10
2.08943153457e-05
7.64634120887e-11
2.08943815596e-05
1.8299831296e-11
2.08945549039e-05
-1.0149635027e-10
2.08949035997e-05
-2.97898532411e-10
2.08955453222e-05
-6.30391633923e-10
2.08965945873e-05
-1.1132610187e-09
2.08982219697e-05
-1.82511910233e-09
2.0900787367e-05
-2.99177820222e-09
2.09048415653e-05
-4.86006763912e-09
2.09112586616e-05
-7.8390688131e-09
2.09214710244e-05
-1.26080351554e-08
2.09379846755e-05
-2.03349600496e-08
2.09649668369e-05
-3.34504276089e-08
2.10094028626e-05
-5.5248543058e-08
2.10845469508e-05
-9.33983647929e-08
2.12164846448e-05
-1.6526953725e-07
2.14584584847e-05
-3.11479937046e-07
2.19190833794e-05
-6.27966543617e-07
2.28120536588e-05
-1.34976535017e-06
2.44687889406e-05
-3.13095311292e-06
-7.08908533252e-06
2.60763088457e-05
5.35171053173e-05
1.24191793494e-05
5.29349682826e-05
1.79445304705e-05
4.9653840048e-05
1.59443949511e-05
4.58401813091e-05
1.24077928904e-05
4.24400922194e-05
9.10127477531e-06
3.97291721539e-05
6.48944318095e-06
3.76873055628e-05
4.56723846003e-06
3.61976626238e-05
3.19065353699e-06
3.51326118823e-05
2.21501743091e-06
3.4382366729e-05
1.52704843157e-06
3.3860625653e-05
1.04388660676e-06
3.35023453276e-05
7.06213653478e-07
3.32596003521e-05
4.71749185235e-07
3.30975899859e-05
3.10304812827e-07
3.29913338653e-05
2.00283465313e-07
3.29230919627e-05
1.26235009365e-07
3.28804040179e-05
7.71342585408e-08
3.28546189375e-05
4.51520584245e-08
3.28397919805e-05
2.47695324615e-08
3.28318657085e-05
1.2132939054e-08
3.28279965518e-05
4.5879608674e-09
3.28269984654e-05
6.58241040235e-11
3.28271798403e-05
-1.81170187693e-09
3.28280290569e-05
-2.71475805794e-09
3.28291458128e-05
-2.93534797563e-09
3.28302942309e-05
-2.77653067684e-09
3.28313515705e-05
-2.43847365703e-09
3.28322635278e-05
-2.03988511249e-09
3.28330152518e-05
-1.64709315684e-09
3.28336128372e-05
-1.2936423102e-09
3.28340712624e-05
-9.93212959553e-10
3.28344079942e-05
-7.48450451406e-10
3.2834676073e-05
-5.57627329629e-10
3.28348936957e-05
-4.19839211837e-10
3.28350432981e-05
-2.85715320842e-10
3.28351444118e-05
-1.87700031865e-10
3.28352119661e-05
-1.19248375641e-10
3.28352553571e-05
-7.19378336077e-11
3.28352815224e-05
-3.83758996427e-11
3.28352943827e-05
-1.27407872694e-11
3.28352974795e-05
6.0172719917e-12
3.28352933001e-05
2.0016089181e-11
3.28352836482e-05
3.07003257316e-11
3.28352697629e-05
3.92350778775e-11
3.28352524071e-05
4.66268012606e-11
3.28352320496e-05
5.35386118399e-11
3.28352089807e-05
6.03989932479e-11
3.28351833652e-05
6.75330869909e-11
3.28351551969e-05
7.53404220025e-11
3.2835124558e-05
8.387527057e-11
3.28350917632e-05
9.29714983938e-11
3.28350573589e-05
1.02423254158e-10
3.28350222803e-05
1.1177747661e-10
3.28349881478e-05
1.20147621075e-10
3.28349577445e-05
1.25904299647e-10
3.28349356451e-05
1.26299842864e-10
3.28349286844e-05
1.1749083292e-10
3.28349476265e-05
9.2609434864e-11
3.28350095217e-05
4.07184079894e-11
3.28351433225e-05
-5.74357933848e-11
3.28353998811e-05
-2.38364733437e-10
3.28358665044e-05
-5.68193766347e-10
3.28365682236e-05
-9.99644644312e-10
3.28375895629e-05
-1.65172282401e-09
3.28391846227e-05
-2.70829364323e-09
3.2841737154e-05
-4.37761793244e-09
3.28457523138e-05
-7.00691324014e-09
3.28520479646e-05
-1.11557129353e-08
3.28619439985e-05
-1.7735125539e-08
3.28776174112e-05
-2.82815328813e-08
3.29027507464e-05
-4.54684388994e-08
3.29427327732e-05
-7.34325783607e-08
3.30074637085e-05
-1.19979547706e-07
3.31140512495e-05
-1.99985953686e-07
3.3291740407e-05
-3.42958711079e-07
3.35891640311e-05
-6.08903512334e-07
3.4078173046e-05
-1.11697541427e-06
3.48261555811e-05
-2.09774775394e-06
3.56981998869e-05
-4.00299726509e-06
-7.17046293994e-06
3.57795781542e-05
5.35105664295e-05
8.9086128976e-06
5.55742221516e-05
1.58808746867e-05
5.5242482374e-05
1.62761346522e-05
5.3597785752e-05
1.40524894179e-05
5.15418474181e-05
1.115721301e-05
4.95802795629e-05
8.45101092483e-06
4.79243504489e-05
6.22316746026e-06
4.66181384864e-05
4.49686539198e-06
4.56304656032e-05
3.20269021572e-06
4.49051165821e-05
2.25239736314e-06
4.43840893289e-05
1.56491377633e-06
4.40166931253e-05
1.07360977854e-06
4.37619665903e-05
7.26475643717e-07
4.35882679567e-05
4.84003367507e-07
4.34718685904e-05
3.16682747875e-07
4.33953585434e-05
2.02744968012e-07
4.33461883357e-05
1.26304376572e-07
4.33154508618e-05
7.58894489023e-08
4.32969147255e-05
4.33055995946e-08
4.32862889897e-05
2.27586182773e-08
4.32806865774e-05
1.01903243906e-08
4.3277879418e-05
2.87293409302e-09
4.32770524882e-05
-9.84828707981e-10
4.3277271282e-05
-2.93361405008e-09
4.32779598999e-05
-3.6240290573e-09
4.32788242178e-05
-3.640911128e-09
4.32796984615e-05
-3.31277866077e-09
4.32804975029e-05
-2.83898697636e-09
4.3281184968e-05
-2.33461945572e-09
4.32817526123e-05
-1.86134459884e-09
4.32822072458e-05
-1.44789814401e-09
4.32825616186e-05
-1.10286891625e-09
4.32828255572e-05
-8.21603597742e-10
4.3283003622e-05
-5.97934609652e-10
4.32831383285e-05
-4.20448185013e-10
4.32832267317e-05
-2.76122330745e-10
4.32832817534e-05
-1.74276136334e-10
4.32833230329e-05
-1.1321078392e-10
4.32833488639e-05
-6.41962565058e-11
4.32833620471e-05
-2.59161020936e-11
4.32833660532e-05
2.01754557053e-12
4.32833628344e-05
2.32361733418e-11
4.32833540385e-05
3.94966776211e-11
4.32833408685e-05
5.24125402199e-11
4.32833239791e-05
6.35334147428e-11
4.32833037801e-05
7.37513457479e-11
4.3283280568e-05
8.35991765229e-11
4.32832546038e-05
9.34520248698e-11
4.32832262912e-05
1.03588806047e-10
4.3283196152e-05
1.13960262948e-10
4.32831647867e-05
1.24311412573e-10
4.32831331279e-05
1.34078839566e-10
4.32831025998e-05
1.42311922524e-10
4.32830752824e-05
1.47478947335e-10
4.32830540981e-05
1.47111426853e-10
4.32830432081e-05
1.37212800263e-10
4.32830495979e-05
1.11099969774e-10
4.32830849043e-05
5.72715436053e-11
4.32831675514e-05
-4.19881619496e-11
4.32833183016e-05
-2.08273361924e-10
4.32835375701e-05
-4.57731193819e-10
4.32839590192e-05
-9.89711699762e-10
4.32846992614e-05
-1.73991688531e-09
4.32859216226e-05
-2.87407766888e-09
4.32878311656e-05
-4.61780829975e-09
4.32907768326e-05
-7.32326720031e-09
4.32953195635e-05
-1.15496504826e-08
4.3302341453e-05
-1.81776129024e-08
4.33132315327e-05
-2.86252205189e-08
4.33301606618e-05
-4.52107120607e-08
4.33564616979e-05
-7.17695438459e-08
4.33977453385e-05
-1.14716279941e-07
4.34629342032e-05
-1.85168463792e-07
4.35658764507e-05
-3.02928259209e-07
4.37267375587e-05
-5.03819895073e-07
4.397045528e-05
-8.52621157142e-07
4.43141874222e-05
-1.46070739002e-06
4.47197498092e-05
-2.50331021801e-06
4.49461019695e-05
-4.22934965104e-06
-6.64719429384e-06
4.44228338579e-05
5.27351379565e-05
6.17347489995e-06
5.57309343154e-05
1.28850782426e-05
5.73114740582e-05
1.46955948166e-05
5.76109914689e-05
1.37529719068e-05
5.71335222377e-05
1.16346821451e-05
5.63194676817e-05
9.26506538062e-06
5.544898751e-05
7.09364753648e-06
5.46629769742e-05
5.28287583913e-06
5.40136814545e-05
3.85198565135e-06
5.35061501799e-05
2.75992855583e-06
5.31242543377e-05
1.94680953449e-06
5.2844984894e-05
1.35287913683e-06
5.26454387766e-05
9.26021674283e-07
5.25057146891e-05
6.23727365235e-07
5.24097201065e-05
4.12677237192e-07
5.23450143176e-05
2.67450663019e-07
5.2302276757e-05
1.69041846198e-07
5.22746899047e-05
1.03476219087e-07
5.22573657242e-05
6.06297107417e-08
5.22468574509e-05
3.32668324066e-08
5.2240758197e-05
1.6289521967e-08
5.22374498611e-05
6.18121052394e-09
5.22359516613e-05
5.1330560587e-10
5.22354443181e-05
-2.42634092882e-09
5.22355099333e-05
-3.68971308599e-09
5.22358561487e-05
-3.98719050973e-09
5.22363112562e-05
-3.76794919406e-09
5.22367786244e-05
-3.30642002073e-09
5.22372071586e-05
-2.76321976993e-09
5.2237574141e-05
-2.22838461209e-09
5.22378728703e-05
-1.7466730704e-09
5.22381060763e-05
-1.33611433454e-09
5.22382839656e-05
-9.99529549299e-10
5.22384183539e-05
-7.32355623975e-10
5.22385199953e-05
-5.2211300522e-10
5.2238604687e-05
-3.60823560542e-10
5.22386720345e-05
-2.41620755769e-10
5.22387150888e-05
-1.56257257286e-10
5.22387490126e-05
-9.81157477882e-11
5.2238765516e-05
-4.24237298903e-11
5.22387715025e-05
-3.98226431083e-12
5.22387696616e-05
2.50640283486e-11
5.2238761945e-05
4.72084550769e-11
5.22387496771e-05
6.46902909146e-11
5.22387337378e-05
7.94939853996e-11
5.22387147229e-05
9.27799423292e-11
5.22386932031e-05
1.05105837416e-10
5.22386702371e-05
1.16380062882e-10
5.22386448955e-05
1.28889505203e-10
5.22386170123e-05
1.41818013356e-10
5.22385878682e-05
1.53443194028e-10
5.22385584742e-05
1.63459565621e-10
5.22385302973e-05
1.70474436013e-10
5.22385056089e-05
1.72167325957e-10
5.22384884017e-05
1.64336683436e-10
5.22384884168e-05
1.37222461663e-10
5.22385132446e-05
8.62748693525e-11
5.22385760712e-05
-5.59360864952e-12
5.22386875264e-05
-1.53505308939e-10
5.22388623943e-05
-3.83221940758e-10
5.223918204e-05
-7.77463428647e-10
5.22396763451e-05
-1.4840852926e-09
5.22404200039e-05
-2.48362029424e-09
5.22415454398e-05
-3.99952366783e-09
5.22432555591e-05
-6.32790137916e-09
5.22458520491e-05
-9.91973560372e-09
5.22497875069e-05
-1.54851239263e-08
5.22557547607e-05
-2.41449157724e-08
5.22648169099e-05
-3.76874364916e-08
5.2278600464e-05
-5.89943210497e-08
5.22995808375e-05
-9.27499506262e-08
5.23315026622e-05
-1.46638143684e-07
5.23797605694e-05
-2.33426408978e-07
5.24513662835e-05
-3.74534043107e-07
5.25533160314e-05
-6.05769714851e-07
5.268633513e-05
-9.85640183471e-07
5.2828371242e-05
-1.60274326303e-06
5.28978923313e-05
-2.5728312599e-06
5.26815907494e-05
-4.01304827103e-06
-5.83743392849e-06
5.18718307572e-05
5.19834864166e-05
4.18998842273e-06
5.50586638254e-05
9.80990072914e-06
5.76386129561e-05
1.21156455789e-05
5.93259027953e-05
1.20656819608e-05
6.02280147348e-05
1.07325701137e-05
6.05929258221e-05
8.90015420507e-06
6.06482826468e-05
7.03829063053e-06
6.05531880942e-05
5.37797031711e-06
6.04029534259e-05
4.00222024692e-06
6.02479128259e-05
2.91496907861e-06
6.01107872043e-05
2.08393507192e-06
5.99990275926e-05
1.46463865663e-06
5.99125123354e-05
1.01253683429e-06
5.98479203688e-05
6.88319231352e-07
5.98010167346e-05
4.59580769539e-07
5.97677320266e-05
3.00735272908e-07
5.97445906283e-05
1.92183154258e-07
5.972881206e-05
1.19254706739e-07
5.97182639141e-05
7.11777855287e-08
5.97113577544e-05
4.01729268588e-08
5.97069384695e-05
2.07087408157e-08
5.970420468e-05
8.91493066147e-09
5.9702595768e-05
2.12214452701e-09
5.97016914233e-05
-1.52207176256e-09
5.97012333533e-05
-3.23171596054e-09
5.97010441009e-05
-3.79800591813e-09
5.97010081358e-05
-3.73205112515e-09
5.97010527967e-05
-3.35114739575e-09
5.97011343535e-05
-2.84484297788e-09
5.97012271351e-05
-2.32122396589e-09
5.97013172454e-05
-1.83682690946e-09
5.97013980437e-05
-1.4169473766e-09
5.97014680328e-05
-1.06955382469e-09
5.97015278527e-05
-7.922081971e-10
5.97015783165e-05
-5.72597987228e-10
5.97016185259e-05
-4.01034176072e-10
5.97016469142e-05
-2.69995460342e-10
5.9701663289e-05
-1.72623835911e-10
5.97016626581e-05
-9.74895573539e-11
5.97016541743e-05
-3.39604008578e-11
5.9701647505e-05
2.66283629418e-12
5.9701638282e-05
3.42721663695e-11
5.97016273685e-05
5.81251136448e-11
5.97016154211e-05
7.66584795075e-11
5.97016011318e-05
9.38081388346e-11
5.97015842125e-05
1.09711939415e-10
5.97015645627e-05
1.24748683978e-10
5.97015417585e-05
1.39167203684e-10
5.97015176233e-05
1.5301612458e-10
5.97014934763e-05
1.65961393693e-10
5.97014695774e-05
1.77325580357e-10
5.9701447168e-05
1.85832679609e-10
5.97014279951e-05
1.89612884428e-10
5.97014140528e-05
1.86105567429e-10
5.97014062809e-05
1.72128835051e-10
5.97013988781e-05
1.44644642832e-10
5.97013943506e-05
9.07951398069e-11
5.97014034405e-05
-1.474016235e-11
5.97014554477e-05
-2.05582758296e-10
5.97016245038e-05
-5.52339293519e-10
5.97019061646e-05
-1.05918635836e-09
5.97022703675e-05
-1.84835474764e-09
5.97028185172e-05
-3.03182942522e-09
5.97036339398e-05
-4.81497878326e-09
5.97048293326e-05
-7.52329417136e-09
5.97065684434e-05
-1.16588396452e-08
5.97090882549e-05
-1.80049544605e-08
5.97127312359e-05
-2.77879635494e-08
5.97179862738e-05
-4.29425657618e-08
5.97255352796e-05
-6.65433884243e-08
5.97362850282e-05
-1.0349974168e-07
5.97513029492e-05
-1.61656102604e-07
5.97714380978e-05
-2.5356159193e-07
5.97961167587e-05
-3.99212736927e-07
5.98201975479e-05
-6.29850538843e-07
5.9826786226e-05
-9.92228848925e-07
5.97736973108e-05
-1.54965419722e-06
5.95725224117e-05
-2.37165622841e-06
5.90641805859e-05
-3.50470652513e-06
-4.85899006407e-06
5.80857369701e-05
5.14373053133e-05
2.7526830346e-06
5.42658204146e-05
6.98138551053e-06
5.72496429639e-05
9.13182291576e-06
5.97900271964e-05
9.52529762129e-06
6.17201275777e-05
8.80246964827e-06
6.30883024158e-05
7.53197929417e-06
6.40167158715e-05
6.10987711035e-06
6.46292355705e-05
4.76545055641e-06
6.50258024327e-05
3.60565331985e-06
6.52790769129e-05
2.66169452458e-06
6.5438971867e-05
1.92404003299e-06
6.55386886052e-05
1.36492182213e-06
6.55999270582e-05
9.51298278451e-07
6.56367417982e-05
6.51504386475e-07
6.56581928309e-05
4.38129635144e-07
6.56701009913e-05
2.88827017591e-07
6.56761901676e-05
1.86093891921e-07
6.56788264085e-05
1.16618389995e-07
6.56794967691e-05
7.05073563985e-08
6.56791204627e-05
4.05491667393e-08
6.56782529289e-05
2.15762042133e-08
6.56772218249e-05
9.94595896921e-09
6.56762123368e-05
3.13155642484e-09
6.56753028349e-05
-6.12642791746e-10
6.56745337963e-05
-2.46274793688e-09
6.56739050381e-05
-3.16931818852e-09
6.56734056847e-05
-3.23277046327e-09
6.56730182727e-05
-2.96380329643e-09
6.56727238169e-05
-2.55044692932e-09
6.56725041602e-05
-2.10161703023e-09
6.56723431953e-05
-1.67590431463e-09
6.56722272589e-05
-1.3010513229e-09
6.56721443129e-05
-9.86646641986e-10
6.56720837279e-05
-7.31652512997e-10
6.567203968e-05
-5.28561486333e-10
6.56720079751e-05
-3.69320256943e-10
6.56719827135e-05
-2.4471630916e-10
6.56719606954e-05
-1.50598311597e-10
6.56719442535e-05
-8.10617948633e-11
6.56719417629e-05
-3.15011951251e-11
6.56719398885e-05
4.50257675246e-12
6.56719322798e-05
4.18574286396e-11
6.56719220027e-05
6.83997389871e-11
6.56719089383e-05
8.97381002932e-11
6.56718941691e-05
1.08598074715e-10
6.56718777364e-05
1.2616196647e-10
6.56718594655e-05
1.43033096834e-10
6.56718392684e-05
1.59378584209e-10
6.56718180725e-05
1.74224284393e-10
6.56717972969e-05
1.86726510491e-10
6.56717757848e-05
1.98792944883e-10
6.5671754148e-05
2.07410743271e-10
6.56717334401e-05
2.10284408615e-10
6.56717152945e-05
2.04254584355e-10
6.56717026534e-05
1.84791255166e-10
6.56717016902e-05
1.45613886966e-10
6.56717110683e-05
8.14066105226e-11
6.56717228239e-05
-2.6543138714e-11
6.56717863611e-05
-2.69176104713e-10
6.56718685156e-05
-6.34531514501e-10
6.56719996053e-05
-1.19031937589e-09
6.56721857562e-05
-2.03456517047e-09
6.56724415176e-05
-3.28764183124e-09
6.56727821918e-05
-5.15568209548e-09
6.56732167825e-05
-7.95790702773e-09
6.56737404802e-05
-1.21825627817e-08
6.56743204806e-05
-1.85849973454e-08
6.56748658047e-05
-2.83333578929e-08
6.56751685631e-05
-4.32454039844e-08
6.56747930897e-05
-6.61679936732e-08
6.56728629065e-05
-1.01569627839e-07
6.56676199117e-05
-1.56413145412e-07
6.5655496975e-05
-2.41438654514e-07
6.5629312164e-05
-3.73027873254e-07
6.55748147321e-05
-5.75353101893e-07
6.54645761081e-05
-8.81990212211e-07
6.52490373432e-05
-1.33411531752e-06
6.48473804645e-05
-1.9699991862e-06
6.41456953277e-05
-2.8030214407e-06
-3.76461864371e-06
6.30513240643e-05
5.10850423007e-05
1.66764065018e-06
5.36118443946e-05
4.45458328989e-06
5.66873162087e-05
6.05635098496e-06
5.96894461173e-05
6.5231676091e-06
6.22997266423e-05
6.192189046e-06
6.44136881303e-05
5.4180177434e-06
6.60471842093e-05
4.4763809786e-06
6.72686157036e-05
3.54401900988e-06
6.81598946996e-05
2.71437426262e-06
6.87977612723e-05
2.02382787749e-06
6.92467456399e-05
1.47505557534e-06
6.95579644842e-05
1.05370287541e-06
6.97704311923e-05
7.38831461644e-07
6.99131743132e-05
5.08761159544e-07
7.00073855069e-05
3.43918343632e-07
7.00682951762e-05
2.27917260236e-07
7.01066973122e-05
1.47691677135e-07
7.01301396964e-05
9.31759360425e-08
7.01438288457e-05
5.68181427013e-08
7.01513048861e-05
3.3073062183e-08
7.01549371891e-05
1.79438308166e-08
7.01562846553e-05
8.59841529426e-09
7.01563560033e-05
3.06013117457e-09
7.01557635798e-05
-2.02905433033e-11
7.01549018491e-05
-1.60108619698e-09
7.01539772919e-05
-2.24483069836e-09
7.01531075401e-05
-2.36309039234e-09
7.01523462607e-05
-2.20259129937e-09
7.01517106759e-05
-1.91491896815e-09
7.01511979517e-05
-1.58893742898e-09
7.01507951828e-05
-1.2731761838e-09
7.01504854525e-05
-9.91364996222e-10
7.01502511826e-05
-7.52417847098e-10
7.01500762306e-05
-5.56722916113e-10
7.0149947606e-05
-3.99932246007e-10
7.01498546355e-05
-2.76327919829e-10
7.01497901358e-05
-1.80197761174e-10
7.01497468708e-05
-1.0733419629e-10
7.01497172236e-05
-5.14338029757e-11
7.01496866097e-05
-9.21069601818e-13
7.01496616839e-05
2.93914012533e-11
7.01496471937e-05
5.63191231806e-11
7.01496357254e-05
7.98537573261e-11
7.01496249808e-05
1.00484842803e-10
7.01496141349e-05
1.19461854747e-10
7.01496027671e-05
1.37559987937e-10
7.01495907099e-05
1.55129871999e-10
7.01495779641e-05
1.72162047972e-10
7.01495638634e-05
1.88339091418e-10
7.01495474663e-05
2.03091232295e-10
7.01495306455e-05
2.15543798578e-10
7.01495140369e-05
2.23954483981e-10
7.01494983737e-05
2.2591870105e-10
7.01494843501e-05
2.18280173646e-10
7.0149471999e-05
1.97147138048e-10
7.01494594489e-05
1.58150178078e-10
7.01494429387e-05
9.79047655753e-11
7.01494360277e-05
-1.96460464204e-11
7.01494279705e-05
-2.61141144311e-10
7.01494365984e-05
-6.43196095259e-10
7.01494439053e-05
-1.19768641265e-09
7.01494259379e-05
-2.01666103632e-09
7.01493540065e-05
-3.21574362596e-09
7.01491731235e-05
-4.97481589394e-09
7.01487815629e-05
-7.56638099939e-09
7.01480004868e-05
-1.14015445325e-08
7.01465246532e-05
-1.71092304542e-08
7.01438326422e-05
-2.56413966076e-08
7.01390364762e-05
-3.84492920263e-08
7.01306374378e-05
-5.77690486888e-08
7.01161304577e-05
-8.70627274611e-08
7.009130387e-05
-1.31586582387e-07
7.00489927891e-05
-1.99127499489e-07
6.99771056831e-05
-3.01140675517e-07
6.98554776843e-05
-4.53725095999e-07
6.96513252327e-05
-6.77837782023e-07
6.93141574225e-05
-9.96947471312e-07
6.87734577257e-05
-1.42929929892e-06
6.79450857818e-05
-1.97464955359e-06
-2.58818882797e-06
6.67686560189e-05
5.08804131329e-05
7.87227428878e-07
5.31704660188e-05
2.16453027368e-06
5.62177494753e-05
3.00906741318e-06
5.94382693844e-05
3.30264760279e-06
6.24449691228e-05
3.18548923779e-06
6.50382524666e-05
2.82473434339e-06
6.71548659654e-05
2.35976743059e-06
6.88135643895e-05
1.88532053588e-06
7.00731703154e-05
1.45476827477e-06
7.10056671972e-05
1.09133091706e-06
7.16812634027e-05
7.99459274681e-07
7.21614226704e-05
5.73543502339e-07
7.2496603508e-05
4.03650517224e-07
7.27264799658e-05
2.78884599475e-07
7.28812787523e-05
1.89119465063e-07
7.29834683658e-05
1.25727567552e-07
7.30494119582e-05
8.17480154331e-08
7.30908138041e-05
5.17740270726e-08
7.31159073876e-05
3.17244982034e-08
7.31303914151e-05
1.85889714836e-08
7.31381454864e-05
1.01896919352e-08
7.31417651016e-05
4.97872786465e-09
7.31429518696e-05
1.87328826347e-09
7.31428039855e-05
1.27520629035e-10
7.31419793579e-05
-7.76529517847e-10
7.31408947144e-05
-1.16025555097e-09
7.31397778574e-05
-1.24629747748e-09
7.31387482073e-05
-1.17300075096e-09
7.31378582428e-05
-1.02500917924e-09
7.31371219059e-05
-8.52649502232e-10
7.31365318515e-05
-6.83170920347e-10
7.31360707422e-05
-5.30306270024e-10
7.31357177719e-05
-3.99489672965e-10
7.31354523679e-05
-2.91335292352e-10
7.31352562257e-05
-2.03776182204e-10
7.31351137536e-05
-1.33824766973e-10
7.31350118102e-05
-7.82324874201e-11
7.31349380868e-05
-3.36114620073e-11
7.31348821922e-05
4.44242074483e-12
7.31348504154e-05
3.08234067201e-11
7.31348257078e-05
5.40576779948e-11
7.31348073218e-05
7.46657708447e-11
7.3134793577e-05
9.35720784681e-11
7.3134782657e-05
1.11401048131e-10
7.31347732653e-05
1.28878323538e-10
7.31347644796e-05
1.46393826679e-10
7.31347556321e-05
1.64032043298e-10
7.3134746235e-05
1.81596443589e-10
7.31347359901e-05
1.98581573548e-10
7.31347247935e-05
2.14238634648e-10
7.31347126586e-05
2.2760605052e-10
7.31346996171e-05
2.36936456061e-10
7.31346857103e-05
2.39796640232e-10
7.31346709827e-05
2.32996779936e-10
7.31346556118e-05
2.12509732125e-10
7.31346401105e-05
1.73637053481e-10
7.31346256177e-05
1.12395489456e-10
7.31345973801e-05
8.60471481437e-12
7.3134550519e-05
-2.14282165255e-10
7.31344750623e-05
-5.67775998014e-10
7.31343486909e-05
-1.07137270175e-09
7.31341279654e-05
-1.79598168004e-09
7.31337430801e-05
-2.83087969038e-09
7.31330770423e-05
-4.3087987843e-09
7.31319331974e-05
-6.42257803605e-09
7.31299850576e-05
-9.45346786888e-09
7.31267030938e-05
-1.38273261474e-08
7.31212170686e-05
-2.01554097063e-08
7.31120945207e-05
-2.93268114136e-08
7.30970078263e-05
-4.26824530462e-08
7.30722274938e-05
-6.2282459574e-08
7.30317711513e-05
-9.11302271917e-08
7.29660164168e-05
-1.33372677698e-07
7.28597768369e-05
-1.9490100194e-07
7.26896088573e-05
-2.83557138384e-07
7.24205623409e-05
-4.08791278001e-07
7.20035568118e-05
-5.79941966879e-07
7.13762765954e-05
-8.02018936997e-07
7.04715078054e-05
-1.06988077894e-06
-1.35901721105e-06
6.92423361917e-05
5.07871725406e-05
5.47971859105e-11
5.29516496991e-05
5.29852940854e-11
5.59606882186e-05
2.87835707367e-11
5.92633215831e-05
1.41483495887e-11
6.24488080474e-05
2.7087114986e-12
6.52735484709e-05
-6.13395768533e-12
6.76333278635e-05
-1.20137274399e-11
6.95186632823e-05
-1.49395017417e-11
7.09734468475e-05
-1.53609668413e-11
7.2064791553e-05
-1.38769024066e-11
7.28642618417e-05
-1.1116954195e-11
7.34378129651e-05
-7.73050194192e-12
7.3841467747e-05
-4.3704149269e-12
7.41203539268e-05
-1.67638694098e-12
7.43094735382e-05
-2.30508657284e-13
7.44352014695e-05
-4.34649039465e-13
7.45169519662e-05
-2.5418942685e-12
7.45687322505e-05
-6.31405469397e-12
7.4600467807e-05
-1.11178701193e-11
7.4619072692e-05
-1.59782952299e-11
7.46292820891e-05
-1.97738563808e-11
7.46342821643e-05
-2.1418004064e-11
7.46361758382e-05
-2.04580398239e-11
7.46363214651e-05
-1.81774187452e-11
7.46355605068e-05
-1.56380829233e-11
7.46344126874e-05
-1.25026204662e-11
7.46331752691e-05
-8.94189320014e-12
7.46320072153e-05
-5.00174718303e-12
7.46309823564e-05
-2.02677561805e-13
7.46301258092e-05
3.84170363951e-12
7.46294341009e-05
8.47643622404e-12
7.46288903057e-05
1.34320323308e-11
7.46284721007e-05
1.86795880794e-11
7.46281564676e-05
2.42920542771e-11
7.46279222495e-05
3.04592567001e-11
7.4627751142e-05
3.73099342277e-11
7.46276279917e-05
4.49370670087e-11
7.46275410326e-05
5.334804764e-11
7.46274828435e-05
6.26142549704e-11
7.46274414043e-05
7.22274043678e-11
7.46274131596e-05
8.22508390949e-11
7.46273942047e-05
9.3568116911e-11
7.46273815887e-05
1.06157153466e-10
7.46273730572e-05
1.19936698132e-10
7.46273670361e-05
1.34938138437e-10
7.46273624155e-05
1.5107516942e-10
7.4627358394e-05
1.6811170321e-10
7.46273543731e-05
1.85648388243e-10
7.46273498655e-05
2.03077286077e-10
7.46273444891e-05
2.19564172482e-10
7.46273380376e-05
2.33988562465e-10
7.46273302653e-05
2.4464299644e-10
7.46273207823e-05
2.49230284644e-10
7.46273089395e-05
2.44811028378e-10
7.46272936568e-05
2.27783892701e-10
7.46272732892e-05
1.94008795712e-10
7.46272464162e-05
1.39280294063e-10
7.46272037248e-05
5.13075855452e-11
7.46271076605e-05
-1.1822639416e-10
7.46269696163e-05
-4.29768389409e-10
7.46267409694e-05
-8.42766730422e-10
7.46263621823e-05
-1.41722484462e-09
7.46257357422e-05
-2.20447199236e-09
7.46247030563e-05
-3.27615029313e-09
7.46230045959e-05
-4.7241481903e-09
7.46202190508e-05
-6.66794080349e-09
7.46156820828e-05
-9.29036970155e-09
7.46083144569e-05
-1.27878247543e-08
7.45963540675e-05
-1.73665033807e-08
7.45769741759e-05
-2.33026369302e-08
7.45457643524e-05
-3.10726517901e-08
7.44958613632e-05
-4.12271985374e-08
7.44164136005e-05
-5.39248784482e-08
7.42908355453e-05
-6.93229013074e-08
7.40944402627e-05
-8.71618782866e-08
7.37919181674e-05
-1.06269133926e-07
7.33358375432e-05
-1.23861357566e-07
7.2668561161e-05
-1.34742489789e-07
7.17303823931e-05
-1.3170197374e-07
-1.06179487078e-07
7.04775446542e-05
5.07871715066e-05
-7.87116799395e-07