/*--------------------------------*- C++ -*----------------------------------*\
| =========                 |                                                 |
| \\      /  F ield         | OpenFOAM: The Open Source CFD Toolbox           |
|  \\    /   O peration     | Version:  2106                                  |
|   \\  /    A nd           | Website:  www.openfoam.com                      |
|    \\/     M anipulation  |                                                 |
\*---------------------------------------------------------------------------*/
FoamFile
{
    version     2.0;
    format      ascii;
    arch        "LSB;label=32;scalar=64";
    class       volVectorField;
    location    "0.165";
    object      U;
}
// * * * * * * * * * * * * * * * * * * * * * * * * * * * * * * * * * * * * * //

dimensions      [0 1 -1 0 0 0 0];

internalField   nonuniform List<vector> 
11200
(
(0.662462404853 0.150569442544 0)
(0.558948678301 0.10324338853 0)
(0.383850747383 0.0513512241909 0)
(0.283747610352 0.0248708551471 0)
(0.232075290293 0.0124170451297 0)
(0.201908611817 0.00662281675909 0)
(0.183197962249 0.00380291440504 0)
(0.171276521295 0.00231587015123 0)
(0.163510341572 0.00146450678276 0)
(0.158388806664 0.000944892808447 0)
(0.15500666909 0.000615177435412 0)
(0.152786714575 0.000402234472062 0)
(0.151346564427 0.000264232979387 0)
(0.150428326977 0.000175250967797 0)
(0.14985672195 0.00011836149942 0)
(0.14951251956 8.21607485962e-05 0)
(0.149314957665 5.88665130837e-05 0)
(0.149209594065 4.33160182282e-05 0)
(0.149159732204 3.29343972533e-05 0)
(0.14914248929 2.81862970421e-05 0)
(0.149144641753 2.76843045214e-05 0)
(0.149156913286 2.98903958028e-05 0)
(0.149172530328 3.30509715968e-05 0)
(0.149188073373 3.59667029464e-05 0)
(0.14920227816 3.86023468994e-05 0)
(0.149214544965 4.1041536568e-05 0)
(0.149224706317 4.33188911455e-05 0)
(0.149232869181 4.54655171163e-05 0)
(0.149239270208 4.75205698986e-05 0)
(0.149244191228 4.95307542833e-05 0)
(0.149247916924 5.15573406844e-05 0)
(0.14925071494 5.36908401715e-05 0)
(0.149252781838 5.60172849636e-05 0)
(0.149254286939 5.83983351575e-05 0)
(0.149255364049 6.0759943648e-05 0)
(0.149256099673 6.30822716776e-05 0)
(0.149256588375 6.53752387134e-05 0)
(0.149256913365 6.76509484753e-05 0)
(0.149257129146 6.99212121828e-05 0)
(0.14925726478 7.21924321994e-05 0)
(0.149257340861 7.44656358631e-05 0)
(0.149257374667 7.67417754899e-05 0)
(0.149257378359 7.90205532923e-05 0)
(0.149257360671 8.13007691089e-05 0)
(0.149257327878 8.35806811215e-05 0)
(0.149257284619 8.58579762294e-05 0)
(0.149257234875 8.8129930253e-05 0)
(0.149257182575 9.03935273408e-05 0)
(0.149257131779 9.26456840864e-05 0)
(0.149257087501 9.48832359088e-05 0)
(0.149257056953 9.71031658776e-05 0)
(0.149257050108 9.93026528407e-05 0)
(0.149257080204 0.000101478769704 0)
(0.149257165025 0.000103628288986 0)
(0.149257329263 0.000105747322031 0)
(0.149257608037 0.000107830674696 0)
(0.149258050978 0.000109871576432 0)
(0.149258730062 0.000111860519328 0)
(0.149259752233 0.000113784068263 0)
(0.149261274539 0.000115618142737 0)
(0.149263537524 0.000117309467933 0)
(0.149266947648 0.00011877038631 0)
(0.149271986789 0.000120033409821 0)
(0.149279298424 0.00012128481697 0)
(0.149289910322 0.000122978055866 0)
(0.149305343143 0.000125338908212 0)
(0.149327981878 0.000128123822827 0)
(0.149361533819 0.000131097343994 0)
(0.149411612049 0.000134038689338 0)
(0.149486477913 0.000136833634178 0)
(0.149598115248 0.000140774493572 0)
(0.149769477951 0.000151726167722 0)
(0.15003847376 0.000172551600102 0)
(0.150468435704 0.00020293715192 0)
(0.151195521825 0.00023304571181 0)
(0.152498218998 0.000192231528084 0)
(0.155034300793 -0.000217881140239 0)
(0.162402787277 -0.00212052784456 0)
(0.187804433596 -0.010845061918 0)
(0.204774318301 -0.0499833877658 0)
(0.965408255341 0.289214706498 0)
(0.961962862737 0.252656039672 0)
(0.823574396429 0.159021440928 0)
(0.698139374338 0.0959957303646 0)
(0.610225469841 0.0582481133852 0)
(0.548971497607 0.0362148525763 0)
(0.506588893682 0.0231612847459 0)
(0.477567271825 0.0151375152599 0)
(0.457745492053 0.0100177555122 0)
(0.444228458099 0.00665814200262 0)
(0.435053292854 0.0044155575209 0)
(0.428873109199 0.00290686740911 0)
(0.424754189505 0.00189106015146 0)
(0.422046635999 0.00121004708494 0)
(0.420297795272 0.000757165021476 0)
(0.419193182653 0.000459257162051 0)
(0.418515574229 0.00026585560356 0)
(0.41811642455 0.000142399788215 0)
(0.417895819531 6.61088770689e-05 0)
(0.417786768437 2.30912783001e-05 0)
(0.417745355786 1.40592573983e-06 0)
(0.417742082503 -1.01660571919e-05 0)
(0.417756686483 -1.37185861641e-05 0)
(0.417778654424 -1.32735721527e-05 0)
(0.417802961152 -1.08433368912e-05 0)
(0.417826347472 -7.50258404986e-06 0)
(0.417847120153 -3.88873313414e-06 0)
(0.417864680402 -3.71677092176e-07 0)
(0.417879031633 2.84747439582e-06 0)
(0.417890488233 5.66545451829e-06 0)
(0.417899521087 8.01928182127e-06 0)
(0.417906627202 9.82596791699e-06 0)
(0.417912007776 1.09980341511e-05 0)
(0.417915891899 1.18509674402e-05 0)
(0.41791865899 1.2667959188e-05 0)
(0.417920584197 1.34230782903e-05 0)
(0.417921905294 1.40977315783e-05 0)
(0.417922813116 1.47130915278e-05 0)
(0.41792343618 1.52989000804e-05 0)
(0.417923845913 1.58694672746e-05 0)
(0.417924094292 1.64247029044e-05 0)
(0.417924224667 1.69695114337e-05 0)
(0.417924267572 1.75075120018e-05 0)
(0.417924245381 1.80417584558e-05 0)
(0.417924174388 1.857541863e-05 0)
(0.417924066735 1.91110104524e-05 0)
(0.417923932799 1.96506733568e-05 0)
(0.417923782847 2.01964948237e-05 0)
(0.417923627758 2.07507695311e-05 0)
(0.417923480817 2.13145595191e-05 0)
(0.417923360368 2.1888215149e-05 0)
(0.41792329123 2.24722151465e-05 0)
(0.417923306601 2.30667008042e-05 0)
(0.417923451727 2.36712579005e-05 0)
(0.417923789617 2.42848793052e-05 0)
(0.417924410133 2.49060376231e-05 0)
(0.417925441287 2.55330176919e-05 0)
(0.417927069099 2.61568092078e-05 0)
(0.417929565597 2.67576464967e-05 0)
(0.417933318225 2.73050876268e-05 0)
(0.417938912601 2.77550408059e-05 0)
(0.417947435158 2.80408486203e-05 0)
(0.417960393289 2.83130900668e-05 0)
(0.417979917748 2.79067022925e-05 0)
(0.418008808726 2.53943806427e-05 0)
(0.418050677823 1.96186896498e-05 0)
(0.418111680689 9.77562799324e-06 0)
(0.418201972027 -5.66529489331e-06 0)
(0.418337226848 -2.92405860925e-05 0)
(0.418542467528 -6.46547935963e-05 0)
(0.418859813917 -0.000116130126712 0)
(0.419359214992 -0.000188681544873 0)
(0.42015475258 -0.000309209689863 0)
(0.421451225857 -0.000535545420718 0)
(0.423642423425 -0.00100515428134 0)
(0.42745144241 -0.00210165737871 0)
(0.434309808617 -0.00488269492036 0)
(0.448413600427 -0.0123231411921 0)
(0.474967289163 -0.0344407998335 0)
(0.478851034329 -0.0994204000663 0)
(1.02222096619 0.238416187138 0)
(1.0821375324 0.29592665183 0)
(1.03447723011 0.239503064978 0)
(0.954615413595 0.174290162615 0)
(0.879992060569 0.121345466439 0)
(0.818614440703 0.0830993822279 0)
(0.771410855521 0.0567316655111 0)
(0.736634395409 0.0387409674065 0)
(0.711624437239 0.0264327864952 0)
(0.693916625509 0.0179731048593 0)
(0.681541415951 0.0121424487374 0)
(0.673000123648 0.00812490947959 0)
(0.667180658577 0.00536632261674 0)
(0.663271688402 0.00348444637768 0)
(0.66068851678 0.0022125629036 0)
(0.659014191961 0.00136338266305 0)
(0.657954510697 0.00080524377245 0)
(0.657304217985 0.000445915404615 0)
(0.656921800841 0.000221065820215 0)
(0.656710238366 8.55763473465e-05 0)
(0.656603378921 8.35055082874e-06 0)
(0.656561837556 -3.37312681749e-05 0)
(0.656557947518 -5.68711527725e-05 0)
(0.656571436225 -6.68952252188e-05 0)
(0.656592982482 -6.85083010578e-05 0)
(0.656616822989 -6.55934012894e-05 0)
(0.656639650571 -6.05896637774e-05 0)
(0.656659858456 -5.49075706148e-05 0)
(0.656676861426 -4.93313716551e-05 0)
(0.656690637494 -4.42676335364e-05 0)
(0.656701432858 -3.99101527126e-05 0)
(0.656709626711 -3.63758583925e-05 0)
(0.656715911302 -3.37742841133e-05 0)
(0.656720977385 -3.19373756679e-05 0)
(0.656724878836 -3.08843376135e-05 0)
(0.656727631587 -3.03727484143e-05 0)
(0.656729533602 -3.03038451753e-05 0)
(0.656730864249 -3.06063281709e-05 0)
(0.656731795297 -3.11277971833e-05 0)
(0.656732415727 -3.17826095521e-05 0)
(0.65673279856 -3.25422710078e-05 0)
(0.656733009241 -3.33720049491e-05 0)
(0.656733092639 -3.42470676481e-05 0)
(0.656733082658 -3.51486771266e-05 0)
(0.656733004254 -3.60611367269e-05 0)
(0.656732875974 -3.69733899462e-05 0)
(0.656732713803 -3.78779678348e-05 0)
(0.656732533461 -3.87695819939e-05 0)
(0.656732350313 -3.96427545313e-05 0)
(0.656732182108 -4.04928300474e-05 0)
(0.656732054267 -4.13150880679e-05 0)
(0.656732001945 -4.21051457964e-05 0)
(0.656732072604 -4.28609138815e-05 0)
(0.656732331935 -4.35842285335e-05 0)
(0.65673287294 -4.42852770927e-05 0)
(0.656733829417 -4.49913691965e-05 0)
(0.656735387684 -4.57543195245e-05 0)
(0.656737813622 -4.66656762575e-05 0)
(0.656741505489 -4.78598449292e-05 0)
(0.656747059548 -4.95489072562e-05 0)
(0.656755377111 -5.22097557225e-05 0)
(0.656768089837 -5.69129348705e-05 0)
(0.656786619894 -6.44287835804e-05 0)
(0.656812396794 -7.56844155739e-05 0)
(0.656849128152 -9.23252653597e-05 0)
(0.656903538778 -0.000116798738358 0)
(0.656985098528 -0.000152315667901 0)
(0.657107650608 -0.000204189944729 0)
(0.657293104647 -0.000281002768696 0)
(0.657577038216 -0.000396737747252 0)
(0.658017914579 -0.000575931866298 0)
(0.658705498983 -0.000866172514975 0)
(0.659787870768 -0.00135810491061 0)
(0.661524429621 -0.00222595260171 0)
(0.664360719686 -0.00383455815798 0)
(0.66899878422 -0.00698793417139 0)
(0.676475944357 -0.0134373253336 0)
(0.688819914105 -0.0270247449575 0)
(0.705622637129 -0.056726967693 0)
(0.701146475204 -0.114032429547 0)
(1.02251475521 0.170807153066 0)
(1.10138975937 0.276496478097 0)
(1.11752426359 0.266664797954 0)
(1.092146608 0.219901697153 0)
(1.05187815821 0.168168845514 0)
(1.0102082256 0.123567394508 0)
(0.973494690337 0.0888375195914 0)
(0.943864553525 0.0630063700897 0)
(0.921142794968 0.0442232033291 0)
(0.904284066012 0.030742392758 0)
(0.892074860203 0.0211562948652 0)
(0.88340450046 0.0143954698296 0)
(0.877352659191 0.00966794978052 0)
(0.873197695335 0.00639383866453 0)
(0.870392917888 0.00415116571753 0)
(0.868534028708 0.00263449066355 0)
(0.867327631865 0.00162401539247 0)
(0.866564229551 0.000962671650196 0)
(0.866096474275 0.000539115060123 0)
(0.86582223592 0.000275142440909 0)
(0.865671397847 0.000117052619022 0)
(0.865595154979 2.87713135334e-05 0)
(0.865564108962 -1.93523493024e-05 0)
(0.865561316784 -4.12965578517e-05 0)
(0.865572679137 -4.77089731555e-05 0)
(0.865589707546 -4.55770720578e-05 0)
(0.86560804333 -3.92164653824e-05 0)
(0.865625412377 -3.12143472403e-05 0)
(0.865640730457 -2.30415362999e-05 0)
(0.865653630055 -1.54653963364e-05 0)
(0.865664142535 -8.81463575822e-06 0)
(0.865672471121 -3.14171036646e-06 0)
(0.865678869348 1.63683941286e-06 0)
(0.865683547282 5.37616243279e-06 0)
(0.865686914221 7.96265858817e-06 0)
(0.865689361352 9.73304962666e-06 0)
(0.865691034702 1.10841418151e-05 0)
(0.865692223881 1.22321681439e-05 0)
(0.865693120073 1.32030425834e-05 0)
(0.865693738782 1.40944784708e-05 0)
(0.865694124576 1.48968270473e-05 0)
(0.865694342627 1.5631859902e-05 0)
(0.865694431278 1.63150880554e-05 0)
(0.865694421796 1.69618432724e-05 0)
(0.865694336969 1.75869877888e-05 0)
(0.865694192612 1.82008507272e-05 0)
(0.865694003192 1.88114308805e-05 0)
(0.86569378562 1.94272231552e-05 0)
(0.865693558771 2.00604993201e-05 0)
(0.865693345348 2.0709749702e-05 0)
(0.865693176385 2.1363934387e-05 0)
(0.865693092125 2.20126274226e-05 0)
(0.865693145238 2.26405606835e-05 0)
(0.865693405635 2.3223001985e-05 0)
(0.865693965071 2.37218511236e-05 0)
(0.865694950893 2.40884975383e-05 0)
(0.865696541602 2.42839085042e-05 0)
(0.865699006595 2.42224197836e-05 0)
(0.865702744051 2.373461279e-05 0)
(0.865708199004 2.24428445642e-05 0)
(0.865715752183 1.97342932262e-05 0)
(0.865727013072 1.49874595646e-05 0)
(0.86574459941 6.38762695816e-06 0)
(0.865771479539 -7.80046136265e-06 0)
(0.865811573008 -2.95779709158e-05 0)
(0.865870771765 -6.28580877794e-05 0)
(0.865958417419 -0.000114559927598 0)
(0.866089059997 -0.00019552248307 0)
(0.86628534109 -0.000323132384969 0)
(0.866582263033 -0.000526079367394 0)
(0.867033777847 -0.000853676020388 0)
(0.867725556001 -0.00139347474535 0)
(0.868795007931 -0.00229536140748 0)
(0.870457268777 -0.00383602488423 0)
(0.873034490356 -0.00654376739101 0)
(0.87693108656 -0.0114361828283 0)
(0.88247822421 -0.0203993414597 0)
(0.889870889279 -0.0367390060203 0)
(0.896674879621 -0.066056648249 0)
(0.8870001456 -0.111151261402 0)
(1.01287875134 0.118961024712 0)
(1.08820670873 0.231806937234 0)
(1.1374136713 0.25310676417 0)
(1.15409086646 0.228992752605 0)
(1.14994210681 0.188368357698 0)
(1.13538465106 0.146579842839 0)
(1.11758894266 0.110150964755 0)
(1.10059499496 0.0808162216016 0)
(1.0861245626 0.0582265764878 0)
(1.07459091452 0.0413189857402 0)
(1.06579145547 0.0289160215493 0)
(1.05928797661 0.0199601016878 0)
(1.05459975049 0.0135815618622 0)
(1.05129075152 0.00909744451527 0)
(1.04899983306 0.00598615436008 0)
(1.04744338951 0.00385696525523 0)
(1.04640651614 0.00242159450896 0)
(1.04573060158 0.00147014365599 0)
(1.04530104784 0.000851691514166 0)
(1.04503655354 0.000459000884085 0)
(1.0448801953 0.000216735188397 0)
(1.04479258553 7.29890820155e-05 0)
(1.04474872887 -5.54009040347e-06 0)
(1.04473184037 -4.40542747113e-05 0)
(1.04472960376 -5.94418879039e-05 0)
(1.04473510459 -6.17861493216e-05 0)
(1.04474407226 -5.73228593295e-05 0)
(1.04475397892 -4.98903265593e-05 0)
(1.04476344498 -4.17389639863e-05 0)
(1.04477180033 -3.40890292293e-05 0)
(1.04477879459 -2.75261513495e-05 0)
(1.04478441432 -2.22536844827e-05 0)
(1.04478880422 -1.82271078288e-05 0)
(1.04479217453 -1.52362673115e-05 0)
(1.0447947751 -1.29083777619e-05 0)
(1.04479689127 -1.11143484313e-05 0)
(1.04479865056 -9.63839874544e-06 0)
(1.04480000145 -8.34914403344e-06 0)
(1.04480100443 -7.31556186017e-06 0)
(1.04480171404 -6.6233377803e-06 0)
(1.0448021469 -6.226339931e-06 0)
(1.04480239045 -6.00230092455e-06 0)
(1.04480248952 -5.89789697511e-06 0)
(1.04480248251 -5.86755208215e-06 0)
(1.04480239522 -5.86892576384e-06 0)
(1.04480224538 -5.88112304585e-06 0)
(1.04480205192 -5.89490999424e-06 0)
(1.04480183868 -5.90876182135e-06 0)
(1.04480161787 -5.93223274738e-06 0)
(1.04480139468 -5.96094894347e-06 0)
(1.0448011953 -5.98213385095e-06 0)
(1.04480106224 -5.99617202874e-06 0)
(1.04480104689 -6.00955723244e-06 0)
(1.04480121846 -6.03556333938e-06 0)
(1.04480168202 -6.10366712848e-06 0)
(1.04480261643 -6.29306789014e-06 0)
(1.04480424343 -6.82469132892e-06 0)
(1.04480682011 -8.03752140429e-06 0)
(1.04481064949 -1.03845357164e-05 0)
(1.04481617675 -1.41499404571e-05 0)
(1.04482441554 -1.91166415251e-05 0)
(1.04483654883 -2.5269538066e-05 0)
(1.04485378946 -3.49108488518e-05 0)
(1.04487842269 -5.10204395936e-05 0)
(1.04491392767 -7.78788281562e-05 0)
(1.04496544744 -0.000121782854874 0)
(1.04504059252 -0.000192569871585 0)
(1.0451507299 -0.00030591671559 0)
(1.04531305409 -0.000487165043808 0)
(1.04555354346 -0.000777646766265 0)
(1.04591112827 -0.00124520969619 0)
(1.04644409398 -0.00200236647276 0)
(1.04723729399 -0.00324124902161 0)
(1.04840497237 -0.00529550954702 0)
(1.0500765699 -0.00874722267087 0)
(1.0523119433 -0.0145998477398 0)
(1.05487110642 -0.0244785568192 0)
(1.05696744475 -0.0407263390617 0)
(1.05589055075 -0.0662391108999 0)
(1.04230908612 -0.100605415036 0)
(1.00447483475 0.0814039992022 0)
(1.06917237338 0.181288539727 0)
(1.13080568589 0.216950418674 0)
(1.17375000199 0.210789154867 0)
(1.1986526494 0.183690075852 0)
(1.21019987704 0.14975168223 0)
(1.21350255391 0.11677914317 0)
(1.21251723625 0.088220677308 0)
(1.20973097807 0.0650481508288 0)
(1.20651119056 0.0470209092916 0)
(1.20351912671 0.0334068093222 0)
(1.20101144487 0.0233557335195 0)
(1.1990344436 0.0160720146691 0)
(1.1975387712 0.0108795139413 0)
(1.19644130564 0.00723418712549 0)
(1.19565557589 0.00471351575947 0)
(1.19510487923 0.00299762385589 0)
(1.19472646565 0.0018491522555 0)
(1.19447148443 0.00109494742282 0)
(1.19430317432 0.000610592729396 0)
(1.19419453568 0.000307960909136 0)
(1.19412625233 0.000125734412214 0)
(1.19408520416 2.21787306846e-05 0)
(1.1940619478 -3.25078878862e-05 0)
(1.19404965107 -5.73380974555e-05 0)
(1.19404415659 -6.46761768514e-05 0)
(1.19404266393 -6.24669552767e-05 0)
(1.19404335469 -5.56246894925e-05 0)
(1.19404511308 -4.70592883732e-05 0)
(1.19404728078 -3.83839607963e-05 0)
(1.19404948524 -3.03998222788e-05 0)
(1.19405153384 -2.3412333528e-05 0)
(1.19405335647 -1.74450432012e-05 0)
(1.19405494756 -1.2423297158e-05 0)
(1.19405632343 -8.23980914619e-06 0)
(1.19405750317 -4.83533750118e-06 0)
(1.19405846482 -2.2047819106e-06 0)
(1.19405915873 -2.92988866113e-07 0)
(1.19405953738 1.05261017696e-06 0)
(1.19405965951 1.92494564551e-06 0)
(1.19405971109 2.61451558596e-06 0)
(1.1940597429 3.22966574386e-06 0)
(1.19405972195 3.77207418741e-06 0)
(1.19405966407 4.25245312262e-06 0)
(1.19405956887 4.67899763845e-06 0)
(1.19405942461 5.06688069157e-06 0)
(1.19405923022 5.4274183689e-06 0)
(1.19405898839 5.76123541137e-06 0)
(1.19405872145 6.05432028532e-06 0)
(1.19405847259 6.31177590961e-06 0)
(1.19405827313 6.55352243245e-06 0)
(1.19405815349 6.76966684846e-06 0)
(1.1940581642 6.93439690314e-06 0)
(1.19405836903 7.00847622871e-06 0)
(1.19405882532 6.93481031032e-06 0)
(1.19405953362 6.63100447849e-06 0)
(1.19406049988 5.95004705119e-06 0)
(1.19406185612 4.58122335091e-06 0)
(1.19406411506 1.97271786382e-06 0)
(1.19406837698 -2.09062919188e-06 0)
(1.19407543693 -8.37045924268e-06 0)
(1.19408512653 -1.82846755087e-05 0)
(1.194098085 -3.38454708094e-05 0)
(1.19411627628 -5.79548425771e-05 0)
(1.19414183354 -9.52096686353e-05 0)
(1.19417755406 -0.000152957227846 0)
(1.19422740685 -0.000242913702817 0)
(1.19429700073 -0.000383668270189 0)
(1.19439419322 -0.000604890466087 0)
(1.19452975573 -0.000954288742324 0)
(1.19471781186 -0.00150902174603 0)
(1.19497524175 -0.00239435954376 0)
(1.19531700903 -0.00381538436018 0)
(1.1957406876 -0.00610827671153 0)
(1.19618636733 -0.00981752283263 0)
(1.19643452217 -0.0157967899562 0)
(1.19589730862 -0.0252739803228 0)
(1.19341537352 -0.03973298026 0)
(1.18663857512 -0.0604601653395 0)
(1.17000866617 -0.086203158856 0)
(0.99896232561 0.0544316271301 0)
(1.05310956817 0.13340160867 0)
(1.11628268067 0.170777558386 0)
(1.17301271704 0.175143871598 0)
(1.21791245952 0.159583605615 0)
(1.25049857566 0.134951019387 0)
(1.27288490779 0.108411656386 0)
(1.28776721728 0.0838849718356 0)
(1.29745267556 0.0630565729065 0)
(1.30366074562 0.0462999224378 0)
(1.30759233836 0.033320516233 0)
(1.31005369591 0.0235495255332 0)
(1.31157361962 0.0163599090002 0)
(1.31249492213 0.0111713156189 0)
(1.31303861491 0.00749150584258 0)
(1.3133467062 0.00492448304957 0)
(1.31351011961 0.00316294959981 0)
(1.31358674876 0.00197474254306 0)
(1.31361312398 0.00118818281883 0)
(1.31361197289 0.000678609261047 0)
(1.31359713305 0.000356981164165 0)
(1.31357680886 0.000160718177602 0)
(1.31355581027 4.64229470827e-05 0)
(1.31353651066 -1.59275916642e-05 0)
(1.31351984777 -4.61272345793e-05 0)
(1.31350615208 -5.71495065483e-05 0)
(1.31349523977 -5.74169308207e-05 0)
(1.3134867738 -5.21909197825e-05 0)
(1.31348036591 -4.46402295708e-05 0)
(1.31347563103 -3.65886204055e-05 0)
(1.31347221822 -2.90085628897e-05 0)
(1.31346982455 -2.23530204013e-05 0)
(1.31346819141 -1.6772642707e-05 0)
(1.31346709156 -1.22732240729e-05 0)
(1.31346635888 -8.78841033312e-06 0)
(1.31346589543 -6.21637369663e-06 0)
(1.31346560293 -4.42157685343e-06 0)
(1.31346538967 -3.20546325795e-06 0)
(1.31346524101 -2.3422552309e-06 0)
(1.31346524956 -1.62403928028e-06 0)
(1.31346539234 -1.03053237754e-06 0)
(1.31346548744 -5.98410029454e-07 0)
(1.31346547925 -2.24765017367e-07 0)
(1.31346539531 1.29834499261e-07 0)
(1.31346525488 4.62307792442e-07 0)
(1.31346507227 7.79897662661e-07 0)
(1.31346485111 1.09528426625e-06 0)
(1.31346459283 1.42243935927e-06 0)
(1.31346431277 1.77725733806e-06 0)
(1.31346404314 2.14566255915e-06 0)
(1.31346379833 2.48256262679e-06 0)
(1.3134635861 2.75518268919e-06 0)
(1.31346343718 2.92195452196e-06 0)
(1.31346340017 2.92063468728e-06 0)
(1.31346355198 2.66269088995e-06 0)
(1.31346400901 2.0406692794e-06 0)
(1.31346482581 9.70744482157e-07 0)
(1.31346595266 -6.86140413971e-07 0)
(1.31346780222 -3.08313528866e-06 0)
(1.31347069408 -6.8768327733e-06 0)
(1.31347473693 -1.34230850328e-05 0)
(1.31348017813 -2.43532498333e-05 0)
(1.31348726514 -4.12538034596e-05 0)
(1.31349645663 -6.72717723323e-05 0)
(1.31350804577 -0.000107445763534 0)
(1.31352206957 -0.000169554322916 0)
(1.31353810268 -0.000265749903106 0)
(1.31355476166 -0.000415073376627 0)
(1.31356873148 -0.000647542211937 0)
(1.31357294206 -0.00101075321911 0)
(1.31355322894 -0.00158037719629 0)
(1.31348187474 -0.0024763187332 0)
(1.31330407959 -0.00388762959036 0)
(1.31291148632 -0.00610975540022 0)
(1.31209273085 -0.00959233241921 0)
(1.31043980896 -0.0149855023762 0)
(1.30719407709 -0.0231315762716 0)
(1.30113542338 -0.0348927685446 0)
(1.29037517223 -0.0507376008504 0)
(1.27140072337 -0.0694774515624 0)
(0.995736074101 0.0346338615978 0)
(1.04179514417 0.0905689221207 0)
(1.10222838763 0.121549565122 0)
(1.16491411747 0.129605833758 0)
(1.22202566526 0.122009267988 0)
(1.26951892326 0.106019938093 0)
(1.30680224181 0.0870975560981 0)
(1.33499535875 0.0686366816905 0)
(1.35574478115 0.0523698401486 0)
(1.37069617553 0.0389256194283 0)
(1.38128276437 0.0282980749885 0)
(1.38866268693 0.0201712786047 0)
(1.3937303436 0.0141175113713 0)
(1.39715661767 0.0097053361792 0)
(1.39943435883 0.00655059424431 0)
(1.4009196798 0.00433445198255 0)
(1.40186622452 0.00280414003223 0)
(1.40245224258 0.00176573533006 0)
(1.40280133658 0.00107418358796 0)
(1.40299802832 0.000623218686505 0)
(1.40309924258 0.000336386910865 0)
(1.40314268654 0.000159593716323 0)
(1.40315293459 5.51268710752e-05 0)
(1.40314543245 -3.04305368055e-06 0)
(1.40312965712 -3.21792195235e-05 0)
(1.40311123419 -4.39581907725e-05 0)
(1.40309317291 -4.58394724763e-05 0)
(1.40307699785 -4.2508158109e-05 0)
(1.4030633106 -3.68272843696e-05 0)
(1.40305218521 -3.04730458833e-05 0)
(1.40304342036 -2.43595628347e-05 0)
(1.4030366912 -1.89334983223e-05 0)
(1.40303163747 -1.43629026059e-05 0)
(1.40302791021 -1.06503503867e-05 0)
(1.4030252116 -7.69569283665e-06 0)
(1.40302330871 -5.37391607809e-06 0)
(1.40302202462 -3.56249685314e-06 0)
(1.40302121114 -2.12070205808e-06 0)
(1.40302070623 -9.38990186232e-07 0)
(1.40302031896 8.77163789332e-09 0)
(1.40301997117 7.39693065501e-07 0)
(1.40301973741 1.25275553688e-06 0)
(1.40301961771 1.6449333547e-06 0)
(1.4030195228 1.98171672546e-06 0)
(1.40301941303 2.30421294753e-06 0)
(1.40301928 2.63229184274e-06 0)
(1.40301912176 2.9761474359e-06 0)
(1.40301893925 3.34154149839e-06 0)
(1.40301872997 3.73101398086e-06 0)
(1.40301848628 4.12854597932e-06 0)
(1.4030182226 4.49570189916e-06 0)
(1.40301797129 4.80465548684e-06 0)
(1.40301775872 5.01908781585e-06 0)
(1.40301761109 5.08354339687e-06 0)
(1.40301755047 4.91388372343e-06 0)
(1.40301758207 4.3757164512e-06 0)
(1.40301768455 3.26581677485e-06 0)
(1.40301792562 1.41975975541e-06 0)
(1.40301839795 -1.40326730018e-06 0)
(1.40301922215 -6.1181273216e-06 0)
(1.40302041833 -1.34850064809e-05 0)
(1.40302161622 -2.48176220382e-05 0)
(1.4030222831 -4.19549634504e-05 0)
(1.40302163917 -6.78657146446e-05 0)
(1.40301815515 -0.000107136928335 0)
(1.403009023 -0.000166818966608 0)
(1.4029893788 -0.00025785191549 0)
(1.40295091985 -0.000397126925296 0)
(1.40287946825 -0.00061085751688 0)
(1.40275096134 -0.000939972016857 0)
(1.40252512558 -0.00144844334036 0)
(1.40213494796 -0.00223518262764 0)
(1.40146752314 -0.00345080271398 0)
(1.40033266868 -0.00532157824166 0)
(1.39841408786 -0.0081744196166 0)
(1.395193466 -0.0124507977605 0)
(1.38984889965 -0.0186721611038 0)
(1.38121740257 -0.0272918204665 0)
(1.36777793874 -0.0384126266807 0)
(1.34709714592 -0.0511666566372 0)
(0.994011531274 0.0192358076777 0)
(1.0348476361 0.052333840875 0)
(1.09199262689 0.0723631271728 0)
(1.15662419997 0.0791292313446 0)
(1.22032116442 0.0761045456834 0)
(1.27701945508 0.067333971101 0)
(1.32424419298 0.0561509036349 0)
(1.36181574168 0.0447990116726 0)
(1.39068531528 0.0345303787559 0)
(1.41226075869 0.0258814339474 0)
(1.42801823103 0.0189465255634 0)
(1.43929885039 0.0135849834774 0)
(1.44722808353 0.00955653524439 0)
(1.45270413891 0.00660011575994 0)
(1.45641896332 0.00447418980886 0)
(1.45889144804 0.00297351205348 0)
(1.46050231113 0.0019327660477 0)
(1.46152570508 0.00122368957046 0)
(1.46215571618 0.000749544202058 0)
(1.4625275339 0.000439008547135 0)
(1.46273380105 0.000240508217749 0)
(1.46283693057 0.000117394418777 0)
(1.46287821655 4.40267543623e-05 0)
(1.46288443274 2.66330816964e-06 0)
(1.46287228051 -1.84801452582e-05 0)
(1.46285189855 -2.74820355292e-05 0)
(1.46282931125 -2.94896508449e-05 0)
(1.46280773179 -2.77471118534e-05 0)
(1.46278868856 -2.42519785054e-05 0)
(1.46277272652 -2.01850639195e-05 0)
(1.46275983753 -1.61947788694e-05 0)
(1.4627497281 -1.26037060188e-05 0)
(1.46274198873 -9.53821376373e-06 0)
(1.46273618844 -7.00922062947e-06 0)
(1.46273192941 -4.96292644502e-06 0)
(1.46272886995 -3.32956386673e-06 0)
(1.46272672327 -2.04505230001e-06 0)
(1.46272523503 -1.06772049115e-06 0)
(1.4627241866 -3.55198303415e-07 0)
(1.46272351645 1.81273233332e-07 0)
(1.46272311999 6.70709238645e-07 0)
(1.46272284135 1.15908108746e-06 0)
(1.46272264671 1.60249758794e-06 0)
(1.4627224985 2.0029045427e-06 0)
(1.46272236627 2.38098875389e-06 0)
(1.46272223028 2.75080588361e-06 0)
(1.46272207637 3.11843334402e-06 0)
(1.46272189507 3.48246122228e-06 0)
(1.46272168069 3.83459770884e-06 0)
(1.46272142987 4.16647708843e-06 0)
(1.46272114535 4.47118100797e-06 0)
(1.46272083394 4.71786956962e-06 0)
(1.46272050129 4.857864739e-06 0)
(1.46272015437 4.82373165787e-06 0)
(1.46271980291 4.52587891339e-06 0)
(1.46271946317 3.85216454072e-06 0)
(1.46271915664 2.68017186721e-06 0)
(1.46271878229 9.19609372629e-07 0)
(1.462718115 -1.7330066824e-06 0)
(1.4627170176 -6.00959153832e-06 0)
(1.46271524138 -1.27111087505e-05 0)
(1.46271210486 -2.29551435556e-05 0)
(1.46270646653 -3.82711087211e-05 0)
(1.46269648414 -6.10226132542e-05 0)
(1.46267904329 -9.47893589867e-05 0)
(1.46264890506 -0.000144963772749 0)
(1.4625975193 -0.000219794699549 0)
(1.46251099009 -0.00033164366273 0)
(1.46236649726 -0.000499190121705 0)
(1.46212664879 -0.000751096781102 0)
(1.46173125868 -0.00113188510919 0)
(1.46108478151 -0.0017086398443 0)
(1.46003401353 -0.00257839571574 0)
(1.4583354056 -0.00388242213764 0)
(1.45561084121 -0.00581562782013 0)
(1.45128798724 -0.00862520813203 0)
(1.44453528274 -0.0125776245894 0)
(1.43426609006 -0.0178624535389 0)
(1.41919360686 -0.0244399534242 0)
(1.39743026063 -0.0317776232155 0)
(0.993269667235 0.00617015141509 0)
(1.0315810001 0.0171020461698 0)
(1.08672181802 0.0239906481355 0)
(1.15174554468 0.0265606651414 0)
(1.21823536389 0.0258180583834 0)
(1.27925774367 0.0230488861229 0)
(1.33140136331 0.0193656319864 0)
(1.37377599254 0.0155468589764 0)
(1.40691054076 0.0120449315631 0)
(1.4320331424 0.00906640121064 0)
(1.4506021579 0.00666059616485 0)
(1.464029867 0.00479009270979 0)
(1.47355016954 0.0033784293853 0)
(1.48017564264 0.00233873912733 0)
(1.48470229633 0.00158891500879 0)
(1.48773621249 0.00105829013429 0)
(1.48972734905 0.000689464112343 0)
(1.49100277651 0.000437639780205 0)
(1.49179585191 0.000268886960644 0)
(1.49227021512 0.00015811185247 0)
(1.49253869629 8.71244940303e-05 0)
(1.49267775802 4.29732513971e-05 0)
(1.49273827225 1.658090092e-05 0)
(1.49275342123 1.65637990352e-06 0)
(1.49274415366 -6.0776497419e-06 0)
(1.49272332946 -9.42524310346e-06 0)
(1.492698643 -1.02343525983e-05 0)
(1.49267432243 -9.67402951066e-06 0)
(1.49265246568 -8.46275452435e-06 0)
(1.4926339148 -7.01846027261e-06 0)
(1.49261879322 -5.58126644186e-06 0)
(1.4926068398 -4.27105439302e-06 0)
(1.49259762642 -3.13505343955e-06 0)
(1.49259067901 -2.17924969053e-06 0)
(1.49258554475 -1.38728526365e-06 0)
(1.49258182429 -7.37163716431e-07 0)
(1.49257918238 -2.07283272681e-07 0)
(1.49257734922 2.23303204945e-07 0)
(1.49257612306 5.98249207111e-07 0)
(1.492575326 9.78558804391e-07 0)
(1.49257480171 1.29612092656e-06 0)
(1.49257445955 1.59238577185e-06 0)
(1.49257424233 1.8871626765e-06 0)
(1.492574098 2.19070865813e-06 0)
(1.49257398656 2.51077013107e-06 0)
(1.49257388084 2.85075114377e-06 0)
(1.4925737615 3.21064101685e-06 0)
(1.49257361421 3.58715788515e-06 0)
(1.49257342779 3.9727207548e-06 0)
(1.49257319291 4.35472634268e-06 0)
(1.49257290347 4.71463679716e-06 0)
(1.49257255511 5.02192948247e-06 0)
(1.49257214101 5.23384882657e-06 0)
(1.49257164976 5.29171158766e-06 0)
(1.49257106158 5.11500998698e-06 0)
(1.49257034724 4.59211877985e-06 0)
(1.49256948975 3.5677674176e-06 0)
(1.49256838384 1.85704481191e-06 0)
(1.49256655621 -6.67772368456e-07 0)
(1.49256367846 -4.35945980801e-06 0)
(1.49255940186 -1.00380296976e-05 0)
(1.49255268832 -1.84497747408e-05 0)
(1.49254190029 -3.06176313955e-05 0)
(1.49252446494 -4.806677285e-05 0)
(1.49249621784 -7.29316711137e-05 0)
(1.49245032196 -0.000108189183575 0)
(1.49237593256 -0.000158326489001 0)
(1.49225587124 -0.000229488444601 0)
(1.49206225882 -0.000330207254884 0)
(1.49174957258 -0.000473453673267 0)
(1.49124593339 -0.000680966113033 0)
(1.49044158334 -0.000982981369611 0)
(1.48916398086 -0.00141324256177 0)
(1.48714454038 -0.00202023698097 0)
(1.4839801313 -0.00286601949233 0)
(1.47908308053 -0.00401917240683 0)
(1.47163415319 -0.00553577433792 0)
(1.46060087265 -0.00742002101211 0)
(1.44480743103 -0.00958146555902 0)
(1.42260194607 -0.0117754089433 0)
(0.993270465038 -0.00616840119989 0)
(1.03158098272 -0.0171003762828 0)
(1.08672175182 -0.0239897626347 0)
(1.15174558254 -0.0265602480232 0)
(1.218235442 -0.0258179939882 0)
(1.27925784593 -0.0230491105314 0)
(1.33140148955 -0.0193660470332 0)