/*--------------------------------*- C++ -*----------------------------------*\
| =========                 |                                                 |
| \\      /  F ield         | OpenFOAM: The Open Source CFD Toolbox           |
|  \\    /   O peration     | Version:  2106                                  |
|   \\  /    A nd           | Website:  www.openfoam.com                      |
|    \\/     M anipulation  |                                                 |
\*---------------------------------------------------------------------------*/
FoamFile
{
    version     2.0;
    format      ascii;
    arch        "LSB;label=32;scalar=64";
    class       volVectorField;
    location    "0.33";
    object      U;
}
// * * * * * * * * * * * * * * * * * * * * * * * * * * * * * * * * * * * * * //

dimensions      [0 1 -1 0 0 0 0];

internalField   nonuniform List<vector> 
9600
(
(0.675396176156 0.157677439663 0)
(0.563826157982 0.102430807528 0)
(0.381538937882 0.0510646904418 0)
(0.283853187441 0.0244589898547 0)
(0.23228102871 0.011934823907 0)
(0.201907711863 0.00623035822079 0)
(0.183178407421 0.00352192652037 0)
(0.171271985087 0.00212007540858 0)
(0.16351223843 0.00132523576563 0)
(0.158392657156 0.00084145636085 0)
(0.155010693798 0.000534135509475 0)
(0.152789974346 0.000335039279672 0)
(0.151348685985 0.000205520897024 0)
(0.150429238569 0.000121792105618 0)
(0.149856451511 6.84340767845e-05 0)
(0.149511114819 3.51735294316e-05 0)
(0.149312505119 1.50867919153e-05 0)
(0.149206454622 3.5037592603e-06 0)
(0.149157072541 -2.70660034105e-06 0)
(0.149140961547 -5.61126223305e-06 0)
(0.149143244596 -6.52755725467e-06 0)
(0.14915464108 -6.41829622873e-06 0)
(0.149169580836 -5.78183146389e-06 0)
(0.149184953761 -4.92793499834e-06 0)
(0.149199124674 -4.04268633101e-06 0)
(0.149211372121 -3.22405910801e-06 0)
(0.149221509127 -2.51540135402e-06 0)
(0.149229636374 -1.9285239141e-06 0)
(0.14923599081 -1.45828859559e-06 0)
(0.1492408567 -1.09120862519e-06 0)
(0.149244516669 -8.11038251861e-07 0)
(0.149247225972 -6.01481015987e-07 0)
(0.149249201079 -4.47171696694e-07 0)
(0.149250619985 -3.35445263154e-07 0)
(0.149251625213 -2.55994597803e-07 0)
(0.149252326866 -1.99701946655e-07 0)
(0.149252809346 -1.59642813292e-07 0)
(0.149253136547 -1.3128977377e-07 0)
(0.149253354167 -1.10794765672e-07 0)
(0.149253495341 -9.48447393598e-08 0)
(0.149253584996 -8.22357864356e-08 0)
(0.149253640825 -7.31645599152e-08 0)
(0.14925367412 -6.94683388524e-08 0)
(0.149253691874 -7.03268155748e-08 0)
(0.149253699894 -7.34320137019e-08 0)
(0.149253702369 -7.78010048761e-08 0)
(0.149253701405 -8.37794828073e-08 0)
(0.149253698618 -9.14185373321e-08 0)
(0.149253695059 -9.99552136157e-08 0)
(0.149253691396 -1.08806657456e-07 0)
(0.149253688091 -1.18022013145e-07 0)
(0.149253684847 -1.27939563605e-07 0)
(0.149253681321 -1.3872062994e-07 0)
(0.149253677274 -1.50066167762e-07 0)
(0.149253673055 -1.61691978311e-07 0)
(0.149253669702 -1.73864350655e-07 0)
(0.149253667632 -1.87135810817e-07 0)
(0.149253666472 -2.01745892716e-07 0)
(0.149253665442 -2.17248435649e-07 0)
(0.149253664202 -2.33160123619e-07 0)
(0.149253663583 -2.49982402606e-07 0)
(0.149253664106 -2.68345765932e-07 0)
(0.149253664979 -2.88020133817e-07 0)
(0.149253665646 -3.08712549075e-07 0)
(0.149253665953 -3.30565272168e-07 0)
(0.149253665466 -3.53795984339e-07 0)
(0.149253664108 -3.78692146561e-07 0)
(0.149253662021 -4.05292794006e-07 0)
(0.149253659329 -4.33258122575e-07 0)
(0.149253656689 -4.62453819325e-07 0)
(0.149253654908 -4.93367452173e-07 0)
(0.149253653727 -5.26389300111e-07 0)
(0.149253652181 -5.61249009882e-07 0)
(0.149253649957 -5.97698192065e-07 0)
(0.149253647349 -6.35838932072e-07 0)
(0.149253644835 -6.75949665903e-07 0)
(0.149253642871 -7.18524822898e-07 0)
(0.149253640968 -7.6360370018e-07 0)
(0.149253638145 -8.1052106657e-07 0)
(0.149253634493 -8.59279342226e-07 0)
(0.149253630427 -9.10568515593e-07 0)
(0.149253625808 -9.64632509253e-07 0)
(0.149253620598 -1.02142107077e-06 0)
(0.149253614698 -1.08094013501e-06 0)
(0.149253607999 -1.1431406931e-06 0)
(0.149253600872 -1.20797697996e-06 0)
(0.149253593756 -1.27536550391e-06 0)
(0.149253586892 -1.34520135257e-06 0)
(0.149253580498 -1.41780817894e-06 0)
(0.149253574368 -1.49356527304e-06 0)
(0.149253568148 -1.57248456793e-06 0)
(0.149253562261 -1.65462167902e-06 0)
(0.149253557146 -1.73963728273e-06 0)
(0.149253552992 -1.82698414511e-06 0)
(0.149253550534 -1.91713255744e-06 0)
(0.149253549773 -2.01059250391e-06 0)
(0.149253550049 -2.10717618395e-06 0)
(0.149253552252 -2.20717140654e-06 0)
(0.149253557218 -2.30995217741e-06 0)
(0.149253564777 -2.41359398112e-06 0)
(0.149253576943 -2.51825309255e-06 0)
(0.149253595457 -2.62476993942e-06 0)
(0.14925362014 -2.73327715956e-06 0)
(0.149253653064 -2.84468130391e-06 0)
(0.149253696767 -2.95887149287e-06 0)
(0.149253752935 -3.07425134711e-06 0)
(0.149253825043 -3.19099027425e-06 0)
(0.149253916822 -3.31028201394e-06 0)
(0.149254032311 -3.43370763457e-06 0)
(0.14925417737 -3.56473099896e-06 0)
(0.149254357772 -3.70843339601e-06 0)
(0.149254581476 -3.86666608509e-06 0)
(0.149254860973 -4.03618083227e-06 0)
(0.149255209813 -4.21687112205e-06 0)
(0.149255642316 -4.40713575505e-06 0)
(0.149256178595 -4.60689745924e-06 0)
(0.149256845433 -4.81872315292e-06 0)
(0.14925767357 -5.04548331469e-06 0)
(0.149258699036 -5.287295635e-06 0)
(0.149259967327 -5.5433381092e-06 0)
(0.149261537999 -5.81694794174e-06 0)
(0.149263483777 -6.11334526392e-06 0)
(0.149265891926 -6.43793934086e-06 0)
(0.149268885926 -6.80844722152e-06 0)
(0.149272638292 -7.28578887193e-06 0)
(0.149277277545 -7.99186566361e-06 0)
(0.149282972991 -8.85791148129e-06 0)
(0.14929001206 -9.84833634068e-06 0)
(0.149298729561 -1.09622844995e-05 0)
(0.149309526035 -1.22111566309e-05 0)
(0.149322895539 -1.36139680345e-05 0)
(0.14933945237 -1.51966130998e-05 0)
(0.149359958418 -1.69904795575e-05 0)
(0.149385357832 -1.90344044221e-05 0)
(0.149416824448 -2.13812696442e-05 0)
(0.14945581225 -2.40962924682e-05 0)
(0.149504124553 -2.72566243074e-05 0)
(0.14956400905 -3.09637417644e-05 0)
(0.149638260432 -3.53477604834e-05 0)
(0.149730355766 -4.05710066336e-05 0)
(0.14984463624 -4.68389372079e-05 0)
(0.149986526593 -5.44124321005e-05 0)
(0.150162828349 -6.36301574529e-05 0)
(0.150382086744 -7.4924484827e-05 0)
(0.150655067365 -8.88474837361e-05 0)
(0.150995406592 -0.000106116179592 0)
(0.151420468753 -0.000127662511991 0)
(0.15195251557 -0.000154712735669 0)
(0.152620311949 -0.00018888585708 0)
(0.153461404043 -0.000232328616132 0)
(0.154525472342 -0.000287936206659 0)
(0.155879488585 -0.000359773599088 0)
(0.157616467052 -0.000454252207608 0)
(0.159873164685 -0.000584479772987 0)
(0.162872406354 -0.000787030464119 0)
(0.167029901334 -0.00118360371725 0)
(0.173286353284 -0.00220568365687 0)
(0.184455713525 -0.00545794515487 0)
(0.209037699435 -0.017011597852 0)
(0.263203650271 -0.0592577004586 0)
(0.977201164736 0.296997126981 0)
(0.9626874545 0.250387276815 0)
(0.82064603882 0.158581008236 0)
(0.69782489758 0.0957993477827 0)
(0.610491666523 0.0579132781996 0)
(0.549133316906 0.0359038520697 0)
(0.506705986754 0.0229309357448 0)
(0.477662020301 0.0149788782393 0)
(0.457815298376 0.00990973137305 0)
(0.444277673903 0.00658330867973 0)
(0.435087223604 0.00436198635354 0)
(0.428895551509 0.00286682634536 0)
(0.424768032862 0.00185972061687 0)
(0.422054223578 0.00118457292192 0)
(0.420301041924 0.000736111309334 0)
(0.419193668443 0.000442159911217 0)
(0.418514598752 0.000252860275553 0)
(0.418114822685 0.000133738765804 0)
(0.417893362917 6.10521783379e-05 0)
(0.417782717858 1.85777991001e-05 0)
(0.417738459372 -4.63467233097e-06 0)
(0.417731922203 -1.60104172344e-05 0)
(0.417745138246 -2.03060649946e-05 0)
(0.417767161412 -2.06088330006e-05 0)
(0.417791609936 -1.88560845491e-05 0)
(0.417815022894 -1.62217851138e-05 0)
(0.417835741303 -1.33840622142e-05 0)
(0.417853172896 -1.07060774261e-05 0)
(0.417867321401 -8.35740860318e-06 0)
(0.417878492584 -6.39322473234e-06 0)
(0.417887117982 -4.80608602017e-06 0)
(0.417893653174 -3.5578930836e-06 0)
(0.417898521437 -2.59715308765e-06 0)
(0.417902091583 -1.87091533733e-06 0)
(0.417904672706 -1.33115436278e-06 0)
(0.417906512897 -9.35253926354e-07 0)
(0.417907806102 -6.47787527699e-07 0)
(0.417908702478 -4.42109096175e-07 0)
(0.417909314614 -2.96835995346e-07 0)
(0.417909724733 -1.94854991853e-07 0)
(0.417909993244 -1.24376778518e-07 0)
(0.417910163422 -7.75314489447e-08 0)
(0.41791026683 -4.91009656072e-08 0)
(0.41791032709 -3.35207100948e-08 0)
(0.417910359904 -2.54102264063e-08 0)
(0.417910374548 -2.15880539188e-08 0)
(0.417910377281 -1.95693061712e-08 0)
(0.417910373828 -1.82746742023e-08 0)
(0.41791036768 -1.78135839875e-08 0)
(0.417910360181 -1.82538993896e-08 0)
(0.417910351822 -1.94611457222e-08 0)
(0.417910342577 -2.15011016309e-08 0)
(0.417910332897 -2.44420354768e-08 0)
(0.417910323089 -2.77342093726e-08 0)
(0.417910313117 -3.04813864751e-08 0)
(0.41791030341 -3.25180797626e-08 0)
(0.417910294386 -3.44955077755e-08 0)
(0.417910286326 -3.72577244461e-08 0)
(0.417910278894 -4.06716215016e-08 0)
(0.417910270992 -4.35881601323e-08 0)
(0.41791026269 -4.58851009926e-08 0)
(0.417910255161 -4.84700035377e-08 0)
(0.417910248259 -5.14925431142e-08 0)
(0.417910241015 -5.477726322e-08 0)
(0.417910232813 -5.84271860358e-08 0)
(0.417910223068 -6.23042065799e-08 0)
(0.417910211826 -6.64870158804e-08 0)
(0.417910199719 -7.11217666381e-08 0)
(0.417910187069 -7.56981340175e-08 0)
(0.417910173997 -7.96742781573e-08 0)
(0.417910160882 -8.36996568375e-08 0)
(0.41791014792 -8.86592259802e-08 0)
(0.417910134572 -9.43454664562e-08 0)
(0.417910120245 -1.00088090076e-07 0)
(0.417910104863 -1.05375131433e-07 0)
(0.417910088634 -1.10093180318e-07 0)
(0.417910072234 -1.15243012641e-07 0)
(0.417910056157 -1.21693539202e-07 0)
(0.417910039549 -1.28667872875e-07 0)
(0.417910021416 -1.35502593784e-07 0)
(0.417910001869 -1.42580119246e-07 0)
(0.417909981291 -1.50117703579e-07 0)
(0.417909959839 -1.58235295209e-07 0)
(0.417909937505 -1.67096690882e-07 0)
(0.417909914394 -1.7644061386e-07 0)
(0.417909890965 -1.86013624078e-07 0)
(0.417909867677 -1.95765737685e-07 0)
(0.417909844599 -2.0545235421e-07 0)
(0.417909821787 -2.15304165399e-07 0)
(0.417909799359 -2.26089289389e-07 0)
(0.417909777282 -2.37981080829e-07 0)
(0.417909756453 -2.50940422995e-07 0)
(0.417909738126 -2.64766983084e-07 0)
(0.417909722334 -2.78716112485e-07 0)
(0.417909709374 -2.93236975494e-07 0)
(0.417909699992 -3.0948711055e-07 0)
(0.417909694158 -3.27391801153e-07 0)
(0.417909693915 -3.47562085973e-07 0)
(0.417909702691 -3.71061391508e-07 0)
(0.417909720778 -3.97489192672e-07 0)
(0.417909749619 -4.2718057244e-07 0)
(0.417909792659 -4.61175180961e-07 0)
(0.417909851615 -4.98965279153e-07 0)
(0.417909931488 -5.41679168325e-07 0)
(0.417910039878 -5.91005298061e-07 0)
(0.417910181831 -6.46199687026e-07 0)
(0.417910363323 -7.07463715384e-07 0)
(0.417910592797 -7.75952307186e-07 0)
(0.417910879674 -8.51760635323e-07 0)
(0.417911235809 -9.34865863032e-07 0)
(0.417911679096 -1.01981532451e-06 0)
(0.417912238426 -1.10147348483e-06 0)
(0.417912945096 -1.19099094721e-06 0)
(0.417913832187 -1.29741150127e-06 0)
(0.417914939684 -1.42453253357e-06 0)
(0.417916316526 -1.57620199047e-06 0)
(0.417918026856 -1.76089211687e-06 0)
(0.417920152469 -1.99020352737e-06 0)
(0.417922793174 -2.27555489807e-06 0)
(0.4179260669 -2.62817127107e-06 0)
(0.417930121629 -3.06553985813e-06 0)
(0.41793514483 -3.61243133103e-06 0)
(0.417941360861 -4.29495272425e-06 0)
(0.417949039775 -5.15476625635e-06 0)
(0.417958510302 -6.27572080969e-06 0)
(0.417970248983 -7.79994511108e-06 0)
(0.417984854584 -9.7451510776e-06 0)
(0.418002988198 -1.21695791732e-05 0)
(0.418025475536 -1.51744376768e-05 0)
(0.418053346961 -1.88923292689e-05 0)
(0.4180878809 -2.348877754e-05 0)
(0.418130666663 -2.9171036444e-05 0)
(0.418183676143 -3.6194615418e-05 0)
(0.418249350063 -4.48726220376e-05 0)
(0.418330719089 -5.55989823676e-05 0)
(0.418431548454 -6.88637965855e-05 0)
(0.418556507769 -8.52696407779e-05 0)
(0.418711401648 -0.000105572700783 0)
(0.418903454328 -0.000130721563735 0)
(0.419141661602 -0.00016190140491 0)
(0.41943724703 -0.000200604707525 0)
(0.419804230391 -0.000248713650246 0)
(0.420260179706 -0.000308622677489 0)
(0.420827173698 -0.000383394051394 0)
(0.421533037769 -0.0004769609499 0)
(0.422413017312 -0.000594428268315 0)
(0.423512013611 -0.00074248638113 0)
(0.424887654861 -0.000930034967998 0)
(0.426614614568 -0.00116911399565 0)
(0.428790865476 -0.00147637377242 0)
(0.431547180376 -0.00187562617681 0)
(0.435062321329 -0.00240265277453 0)
(0.43958888201 -0.00311542392702 0)
(0.445501008296 -0.00411878624969 0)
(0.453388801597 -0.00563011069801 0)
(0.464239133774 -0.00816036932846 0)
(0.479776745385 -0.0130156580567 0)
(0.503334020567 -0.0237416053918 0)
(0.541384758284 -0.0502128471673 0)
(0.59802780522 -0.116166097019 0)
(1.03387038352 0.239240961181 0)
(1.08314080846 0.293634388902 0)
(1.03294437867 0.239131934744 0)
(0.954408210589 0.174539018727 0)
(0.880112583103 0.121551464609 0)
(0.818677615293 0.0832335939867 0)
(0.771466791146 0.056825811432 0)
(0.736691570242 0.0388125710836 0)
(0.711672096173 0.0264913162079 0)
(0.693953122934 0.0180235746909 0)
(0.681568195148 0.0121876184647 0)
(0.673018592879 0.00816650254173 0)
(0.667192223318 0.00540556594898 0)
(0.663277739975 0.00352226362168 0)
(0.660690301647 0.00224961290091 0)
(0.659012726236 0.00140002901892 0)
(0.657950517244 0.00084145723064 0)
(0.65729806307 0.000481123805881 0)
(0.65691351821 0.000254194656863 0)
(0.656700325354 0.000115712147121 0)
(0.65659371637 3.47983449043e-05 0)
(0.656551002901 -9.46327519733e-06 0)
(0.656544659612 -3.10077767272e-05 0)
(0.656557356402 -3.90720857457e-05 0)
(0.656578538526 -3.9545073907e-05 0)
(0.65660206082 -3.61175840929e-05 0)
(0.656624589637 -3.1027766531e-05 0)
(0.656644526409 -2.55659814509e-05 0)
(0.656661300596 -2.04213292079e-05 0)
(0.656674915475 -1.59135400743e-05 0)
(0.656685665129 -1.21456287427e-05 0)
(0.656693965154 -9.10266446038e-06 0)
(0.656700252728 -6.70973155866e-06 0)
(0.656704935144 -4.86752669344e-06 0)
(0.656708369169 -3.47562116079e-06 0)
(0.656710851767 -2.44141018204e-06 0)
(0.656712620387 -1.68400705223e-06 0)
(0.656713862415 -1.13765421527e-06 0)
(0.656714722157 -7.50047135302e-07 0)
(0.656715307135 -4.79664435245e-07 0)
(0.656715697433 -2.94720267833e-07 0)
(0.656715952169 -1.71052406576e-07 0)
(0.656716114169 -8.96710156034e-08 0)
(0.656716213881 -3.71468880663e-08 0)
(0.656716272417 -4.41931387226e-09 0)
(0.656716304426 1.48716909281e-08 0)
(0.656716319335 2.60777404919e-08 0)
(0.656716322746 3.25529582903e-08 0)
(0.65671631859 3.60497157988e-08 0)
(0.65671631034 3.83664046905e-08 0)
(0.656716300145 4.01391327951e-08 0)
(0.656716288453 4.19814006328e-08 0)
(0.656716275991 4.40140534209e-08 0)
(0.656716263701 4.62697959855e-08 0)
(0.656716251851 4.9340386315e-08 0)
(0.656716240351 5.35379862411e-08 0)
(0.656716228801 5.88185174458e-08 0)
(0.656716217303 6.44575242375e-08 0)
(0.656716206549 6.9624420677e-08 0)
(0.656716196221 7.48356585406e-08 0)
(0.656716185618 8.09559502887e-08 0)
(0.656716175064 8.76763682415e-08 0)
(0.656716164513 9.44130558633e-08 0)
(0.65671615334 1.00994279879e-07 0)
(0.656716141309 1.07542122148e-07 0)
(0.65671612796 1.14610915131e-07 0)
(0.656716112952 1.22527345483e-07 0)
(0.656716096856 1.31068468057e-07 0)
(0.656716080383 1.40334450767e-07 0)
(0.656716063419 1.50659592319e-07 0)
(0.656716045646 1.61909294241e-07 0)
(0.6567160273 1.73495858631e-07 0)
(0.656716008521 1.85207587428e-07 0)
(0.656715989233 1.97439558632e-07 0)
(0.656715969348 2.10827657317e-07 0)
(0.656715948282 2.25850657927e-07 0)
(0.656715925832 2.42152819794e-07 0)
(0.656715902912 2.58725824365e-07 0)
(0.656715879791 2.75229358257e-07 0)
(0.656715855692 2.92186655673e-07 0)
(0.656715830211 3.10093537493e-07 0)
(0.656715803335 3.29079872702e-07 0)
(0.656715775151 3.49085706192e-07 0)
(0.656715745919 3.70109533058e-07 0)
(0.656715716016 3.92222129743e-07 0)
(0.656715685907 4.15453773884e-07 0)
(0.65671565608 4.39884143274e-07 0)
(0.656715626654 4.65695799467e-07 0)
(0.65671559738 4.9283811718e-07 0)
(0.656715568296 5.20846641716e-07 0)
(0.656715539849 5.49643665187e-07 0)
(0.656715513187 5.79524016819e-07 0)
(0.656715489823 6.10376139988e-07 0)
(0.656715470103 6.42244808085e-07 0)
(0.656715454045 6.74897780811e-07 0)
(0.65671544262 7.07560755866e-07 0)
(0.656715436313 7.40851319118e-07 0)
(0.656715436462 7.75478176408e-07 0)
(0.656715446248 8.10327620803e-07 0)
(0.656715467932 8.46462165178e-07 0)
(0.656715505142 8.846131532e-07 0)
(0.65671556331 9.22165621705e-07 0)
(0.656715645648 9.58499884378e-07 0)
(0.656715757067 9.93349812691e-07 0)
(0.656715906993 1.02377838056e-06 0)
(0.656716104733 1.046924484e-06 0)
(0.656716360588 1.0604795107e-06 0)
(0.656716688557 1.06174300116e-06 0)
(0.656717105971 1.04949212792e-06 0)
(0.656717638414 1.02138885698e-06 0)
(0.656718315239 9.76211049846e-07 0)
(0.65671915617 9.13084270416e-07 0)
(0.656720192237 8.19143929519e-07 0)
(0.656721479119 6.80037547068e-07 0)
(0.656723080339 4.80639093169e-07 0)
(0.656725068628 2.05138747331e-07 0)
(0.656727534152 -1.66221821737e-07 0)
(0.656730591008 -6.59835814435e-07 0)
(0.656734381898 -1.31121910094e-06 0)
(0.656739079098 -2.16131106605e-06 0)
(0.656744894575 -3.25906676129e-06 0)
(0.656752098029 -4.66854301156e-06 0)
(0.656761020282 -6.46449123525e-06 0)
(0.656772068537 -8.73903006905e-06 0)
(0.656785747598 -1.16080112157e-05 0)
(0.656802682283 -1.51962381934e-05 0)
(0.656823646396 -1.97134723666e-05 0)
(0.656849598906 -2.5406650532e-05 0)
(0.656881735467 -3.25737024068e-05 0)
(0.656921534664 -4.15822400241e-05 0)
(0.656970823838 -5.28847769773e-05 0)
(0.657031868577 -6.70421771066e-05 0)
(0.657107480937 -8.47521729435e-05 0)
(0.657201142006 -0.000106877466616 0)
(0.657317168627 -0.00013448907968 0)
(0.657460923579 -0.000168922230487 0)
(0.657639059759 -0.000211836138188 0)
(0.65785984137 -0.000265298266166 0)
(0.658133549185 -0.000331892994938 0)
(0.658472977067 -0.000414854973839 0)
(0.658894074629 -0.00051825372332 0)
(0.659416751072 -0.000647217054502 0)
(0.660065913412 -0.00080823844473 0)
(0.660872811751 -0.00100960847279 0)
(0.661876766401 -0.00126197233255 0)
(0.663127467904 -0.00157912463117 0)
(0.664688036548 -0.00197914068345 0)
(0.666639187956 -0.00248604622939 0)
(0.669085044257 -0.00313238172543 0)
(0.672161416176 -0.00396328542442 0)
(0.676048069601 -0.0050434479278 0)
(0.680987579435 -0.00646975743199 0)
(0.687315248739 -0.00839604063698 0)
(0.695508123869 -0.0110847107144 0)
(0.706266225096 -0.0150205415215 0)
(0.720632288963 -0.0211662669985 0)
(0.740111617909 -0.031515529768 0)
(0.766744716275 -0.0502163524623 0)
(0.802637774642 -0.0856711923869 0)
(0.844038981979 -0.151923312212 0)
(1.03384128408 0.171306943227 0)
(1.10231584291 0.275556752437 0)
(1.1166362073 0.266312375457 0)
(1.09207924974 0.219892603332 0)
(1.05195419775 0.16821031688 0)
(1.01022221346 0.123615336176 0)
(0.973507715881 0.0888850588643 0)
(0.943885944243 0.0630494600035 0)
(0.921162796174 0.0442607961786 0)
(0.904299819347 0.0307744331513 0)
(0.892086132238 0.0211830143002 0)
(0.883411230904 0.0144172987093 0)
(0.877355059906 0.00968544314097 0)
(0.873196213099 0.00640758914347 0)
(0.870388061192 0.00416172537668 0)
(0.868526255401 0.00264232304146 0)
(0.867317296993 0.00162947869064 0)
(0.866551583229 0.000966025979145 0)
(0.866081656194 0.000540572825893 0)
(0.865805297977 0.000274927000166 0)
(0.865652722509 0.000114792088778 0)
(0.865577089683 2.29564106763e-05 0)
(0.865547476312 -2.57257385953e-05 0)
(0.865543937704 -4.80467045079e-05 0)
(0.865553984506 -5.49271332902e-05 0)
(0.865569987029 -5.33285391335e-05 0)
(0.865587523663 -4.75750500233e-05 0)
(0.865604212539 -4.02469928905e-05 0)
(0.865618924738 -3.27992779467e-05 0)
(0.865631270614 -2.59811150951e-05 0)
(0.865641270775 -2.01137730315e-05 0)
(0.865649153655 -1.52730749843e-05 0)
(0.865655231718 -1.14026635251e-05 0)
(0.865659829403 -8.38285910772e-06 0)
(0.865663249191 -6.07463428623e-06 0)
(0.865665754726 -4.34226938318e-06 0)
(0.865667563314 -3.0623956881e-06 0)
(0.865668849782 -2.13029817147e-06 0)
(0.865669751835 -1.46167154615e-06 0)
(0.865670374183 -9.88930495442e-07 0)
(0.865670795832 -6.59595515e-07 0)
(0.865671075923 -4.33681086545e-07 0)
(0.865671257626 -2.81224084262e-07 0)
(0.865671371777 -1.8047556511e-07 0)
(0.865671440062 -1.15843303897e-07 0)
(0.865671477715 -7.59825493746e-08 0)
(0.865671495142 -5.28372126068e-08 0)
(0.865671499926 -4.04754155358e-08 0)
(0.86567149772 -3.48224038997e-08 0)
(0.865671491376 -3.32882265476e-08 0)
(0.865671482034 -3.4851109311e-08 0)
(0.865671470258 -3.83389648648e-08 0)
(0.865671456699 -4.24950453756e-08 0)
(0.865671442548 -4.68969554789e-08 0)
(0.86567142833 -5.14296008803e-08 0)
(0.865671414142 -5.63185554584e-08 0)
(0.865671399637 -6.12249668375e-08 0)
(0.865671384458 -6.57180783469e-08 0)
(0.865671369255 -7.04404503591e-08 0)
(0.865671354323 -7.58396249534e-08 0)
(0.865671339088 -8.14794576968e-08 0)
(0.865671323552 -8.73616539867e-08 0)
(0.865671307682 -9.37475608428e-08 0)
(0.86567129104 -1.00654253721e-07 0)
(0.865671273516 -1.08240699733e-07 0)
(0.865671254688 -1.16297732947e-07 0)
(0.865671234001 -1.24196690698e-07 0)
(0.865671211863 -1.31889743816e-07 0)
(0.865671189021 -1.39933772782e-07 0)
(0.86567116545 -1.48667490559e-07 0)
(0.865671140758 -1.57791576924e-07 0)
(0.865671115006 -1.67030755186e-07 0)
(0.865671088432 -1.76399468016e-07 0)
(0.865671061132 -1.86048736127e-07 0)
(0.865671033105 -1.96341725342e-07 0)
(0.865671003839 -2.0733391236e-07 0)
(0.865670972889 -2.18399295396e-07 0)
(0.865670940746 -2.29457894522e-07 0)
(0.865670907759 -2.41408969799e-07 0)
(0.865670873617 -2.54815616213e-07 0)
(0.865670838069 -2.69636726805e-07 0)
(0.865670801008 -2.85768579898e-07 0)
(0.865670762594 -3.02819064254e-07 0)
(0.865670723051 -3.20267504198e-07 0)
(0.865670682534 -3.38190286547e-07 0)
(0.865670641569 -3.56862247971e-07 0)
(0.865670600847 -3.76268142736e-07 0)
(0.865670560469 -3.96775905528e-07 0)
(0.865670520146 -4.18925277597e-07 0)
(0.865670480113 -4.4280902909e-07 0)
(0.865670441092 -4.6839006761e-07 0)
(0.865670404261 -4.95793833419e-07 0)
(0.865670371128 -5.25688434396e-07 0)
(0.865670342097 -5.59030888147e-07 0)
(0.865670317209 -5.96539605023e-07 0)
(0.865670298336 -6.38918661381e-07 0)
(0.86567028732 -6.85830181169e-07 0)
(0.865670285762 -7.36319456413e-07 0)
(0.865670298494 -7.91464534362e-07 0)
(0.865670328714 -8.51963056884e-07 0)
(0.865670376735 -9.17866834503e-07 0)
(0.865670447022 -9.92037777107e-07 0)
(0.865670545854 -1.07648021028e-06 0)
(0.865670679592 -1.17166521326e-06 0)
(0.865670857591 -1.28071378619e-06 0)
(0.865671090287 -1.40806725791e-06 0)
(0.865671389939 -1.55836853904e-06 0)
(0.865671773207 -1.73824008847e-06 0)
(0.865672258884 -1.95395066484e-06 0)
(0.865672869914 -2.21395537901e-06 0)
(0.865673638936 -2.5364707768e-06 0)
(0.865674603108 -2.93945630765e-06 0)
(0.865675805344 -3.43159910717e-06 0)
(0.865677303402 -4.0313625104e-06 0)
(0.865679168766 -4.7653842681e-06 0)
(0.865681487341 -5.66577583946e-06 0)
(0.865684365103 -6.77088139488e-06 0)
(0.865687933334 -8.12836982382e-06 0)
(0.86569235728 -9.80065607648e-06 0)
(0.865697839692 -1.18638783277e-05 0)
(0.865704628683 -1.44088517744e-05 0)
(0.865713039298 -1.75522759315e-05 0)
(0.865723460346 -2.14381551356e-05 0)
(0.865736364189 -2.62420946678e-05 0)
(0.8657523405 -3.2194847854e-05 0)
(0.865772124382 -3.95773492917e-05 0)
(0.865796619804 -4.87260373114e-05 0)
(0.865826943772 -6.0050393557e-05 0)
(0.865864485258 -7.40654320111e-05 0)
(0.865910967148 -9.14168332702e-05 0)
(0.8659685217 -0.000112905856742 0)
(0.866039789349 -0.000139524151413 0)
(0.866128045482 -0.000172507806184 0)
(0.86623734779 -0.000213393127985 0)
(0.866372724846 -0.000264086555264 0)
(0.866540418917 -0.000326963631478 0)
(0.866748173788 -0.000404982345443 0)
(0.867005602143 -0.000501827879395 0)
(0.867324650837 -0.000622106463531 0)
(0.867720169822 -0.000771585049283 0)
(0.868210648455 -0.00095750913323 0)
(0.868819135398 -0.00118900635447 0)
(0.869574398545 -0.00147761940558 0)
(0.870512431801 -0.00183804411202 0)
(0.871678377908 -0.00228910119965 0)
(0.873129041361 -0.00285510030231 0)
(0.874936190774 -0.00356777332491 0)
(0.877190950026 -0.00446907812403 0)
(0.880009764863 -0.00561545993879 0)
(0.88354260491 -0.00708451168328 0)
(0.887984466006 -0.00898592035117 0)
(0.893591690526 -0.0114803819544 0)
(0.900704992193 -0.0148139544814 0)
(0.909780748459 -0.0193828655557 0)
(0.92142858526 -0.0258588212254 0)
(0.936433883136 -0.0354301231837 0)
(0.955680796646 -0.0502320190185 0)
(0.979811071424 -0.0739820716303 0)
(1.00818077935 -0.112574275656 0)
(1.03494458074 -0.172863333748 0)
(1.02388346529 0.11932198079 0)
(1.08875436151 0.231514426801 0)
(1.13660482907 0.252868943378 0)
(1.15406272964 0.228905048612 0)
(1.15000112446 0.188337386107 0)
(1.13537623618 0.146577291278 0)
(1.11757777342 0.110164819688 0)
(1.10059199328 0.0808376045715 0)
(1.08612240777 0.0582501988315 0)
(1.07458761341 0.0413417846255 0)
(1.06578679132 0.0289362822904 0)
(1.05928156108 0.0199770200002 0)
(1.05459132164 0.0135949304706 0)
(1.05128026263 0.00910742828922 0)
(1.04898735528 0.00599313399349 0)
(1.0474290455 0.00386144178217 0)
(1.04639045137 0.00242413747833 0)
(1.04571298237 0.00147134947172 0)
(1.04528205086 0.000852136877054 0)
(1.04501636847 0.000459263880636 0)
(1.04485924483 0.000217490405536 0)
(1.04477181471 7.47186097284e-05 0)
(1.04472783327 -4.64590783682e-06 0)
(1.04470996676 -4.44459637511e-05 0)
(1.04470704002 -6.05363098269e-05 0)
(1.04471196237 -6.30937881899e-05 0)
(1.04472040248 -5.85443247295e-05 0)
(1.04472984333 -5.08109914147e-05 0)
(1.04473891686 -4.21789164292e-05 0)
(1.0447469632 -3.38912666397e-05 0)
(1.04475374175 -2.65463220102e-05 0)
(1.04475924809 -2.03603103372e-05 0)
(1.04476359879 -1.53364092938e-05 0)
(1.04476695894 -1.13675596192e-05 0)
(1.04476950385 -8.30131368448e-06 0)
(1.04477139956 -5.97766749883e-06 0)
(1.04477278999 -4.24590812333e-06 0)
(1.04477379398 -2.97436679278e-06 0)
(1.04477450815 -2.05447623471e-06 0)
(1.04477500822 -1.39839891666e-06 0)
(1.04477535228 -9.36579282218e-07 0)
(1.04477558478 -6.15782383182e-07 0)
(1.04477573846 -3.95991816148e-07 0)
(1.04477583691 -2.4779742999e-07 0)
(1.04477589733 -1.4961026921e-07 0)
(1.04477593234 -8.56402506226e-08 0)
(1.04477595039 -4.43864943326e-08 0)
(1.04477595666 -1.81107517599e-08 0)
(1.04477595457 -2.2927388812e-09 0)
(1.04477594675 5.67634126663e-09 0)
(1.04477593543 8.54243174188e-09 0)
(1.04477592216 8.91340896353e-09 0)
(1.0447759077 8.87342150649e-09 0)
(1.04477589259 9.11211723545e-09 0)
(1.04477587695 9.53597026323e-09 0)
(1.04477586108 9.69225696519e-09 0)
(1.04477584521 9.5052806458e-09 0)
(1.04477582873 9.64574480397e-09 0)
(1.04477581168 1.02065834685e-08 0)
(1.04477579467 1.08567084305e-08 0)
(1.04477577736 1.1751872976e-08 0)
(1.04477575952 1.27190961432e-08 0)
(1.04477574111 1.35543474958e-08 0)
(1.0447757216 1.44826802271e-08 0)
(1.04477570088 1.54086274911e-08 0)
(1.04477567912 1.63024609726e-08 0)
(1.04477565588 1.77791520382e-08 0)
(1.04477563077 2.01033981984e-08 0)
(1.04477560414 2.26091453882e-08 0)
(1.04477557657 2.46891232232e-08 0)
(1.04477554819 2.65598104008e-08 0)
(1.04477551893 2.88516908456e-08 0)
(1.04477548861 3.1987806416e-08 0)
(1.04477545695 3.59585739295e-08 0)
(1.04477542394 4.01610218259e-08 0)
(1.0447753898 4.41509488942e-08 0)
(1.04477535444 4.84007184383e-08 0)
(1.04477531759 5.32207920364e-08 0)
(1.04477527893 5.80731861206e-08 0)
(1.04477523837 6.25176668823e-08 0)
(1.04477519604 6.65474681697e-08 0)
(1.04477515228 7.03113080121e-08 0)
(1.04477510755 7.4154614985e-08 0)
(1.04477506186 7.8392389244e-08 0)
(1.0447750149 8.30612643595e-08 0)
(1.04477496718 8.81816731125e-08 0)
(1.04477491923 9.37728614687e-08 0)
(1.04477487096 9.92552177608e-08 0)
(1.04477482234 1.03979699883e-07 0)
(1.04477477387 1.08003138347e-07 0)
(1.04477472619 1.11640498876e-07 0)
(1.04477468015 1.14867575404e-07 0)
(1.04477463685 1.16728349944e-07 0)
(1.04477459682 1.15991573758e-07 0)
(1.0447745605 1.12258116306e-07 0)
(1.04477453005 1.04793280731e-07 0)
(1.04477450792 9.2597127309e-08 0)
(1.04477449494 7.54709843049e-08 0)
(1.04477449356 5.15614605908e-08 0)
(1.04477450775 1.65720526598e-08 0)
(1.04477454051 -3.1409050366e-08 0)
(1.0447745972 -9.43281275483e-08 0)
(1.04477468475 -1.75370024903e-07 0)
(1.04477480931 -2.77440487373e-07 0)
(1.04477497966 -4.05635113823e-07 0)
(1.04477520714 -5.66499612772e-07 0)
(1.04477550434 -7.66809339279e-07 0)
(1.04477588867 -1.0163049217e-06 0)
(1.04477638185 -1.3258668938e-06 0)
(1.04477700751 -1.70553769192e-06 0)
(1.04477779647 -2.17134175619e-06 0)
(1.04477878753 -2.74588640152e-06 0)
(1.044780026 -3.4532782845e-06 0)
(1.04478157039 -4.3247406889e-06 0)
(1.04478349489 -5.39991319938e-06 0)
(1.0447858897 -6.72680523496e-06 0)
(1.04478886557 -8.36434969542e-06 0)
(1.04479255817 -1.03846532393e-05 0)
(1.04479713802 -1.28790395024e-05 0)
(1.04480281759 -1.59599615018e-05 0)
(1.04480985466 -1.97619949809e-05 0)
(1.04481857385 -2.44568969131e-05 0)
(1.04482938147 -3.02620340228e-05 0)
(1.04484276921 -3.74398397335e-05 0)
(1.04485934426 -4.63183050219e-05 0)
(1.04487986864 -5.73101677819e-05 0)
(1.04490528327 -7.09218241802e-05 0)
(1.04493674756 -8.77726918051e-05 0)
(1.04497569883 -0.000108630094927 0)
(1.04502392142 -0.000134449582232 0)
(1.04508362791 -0.000166417061261 0)
(1.04515755527 -0.000206000203361 0)
(1.04524909417 -0.00025502320632 0)
(1.04536244635 -0.000315752379017 0)
(1.04550281607 -0.000391000462874 0)
(1.04567665841 -0.000484268078125 0)
(1.04589197797 -0.00059991279394 0)
(1.04615870031 -0.00074336088461 0)
(1.04648914453 -0.000921389782072 0)
(1.04689860089 -0.001142475398 0)
(1.04740606971 -0.00141724389656 0)
(1.04803518352 -0.00175906444115 0)
(1.04881534793 -0.0021848104735 0)
(1.04978321208 -0.00271589135067 0)
(1.05098452063 -0.003379623247 0)
(1.05247647417 -0.00421111726493 0)