/*--------------------------------*- C++ -*----------------------------------*\
| =========                 |                                                 |
| \\      /  F ield         | OpenFOAM: The Open Source CFD Toolbox           |
|  \\    /   O peration     | Version:  2106                                  |
|   \\  /    A nd           | Website:  www.openfoam.com                      |
|    \\/     M anipulation  |                                                 |
\*---------------------------------------------------------------------------*/
FoamFile
{
    version     2.0;
    format      ascii;
    arch        "LSB;label=32;scalar=64";
    class       surfaceScalarField;
    location    "0.085";
    object      phi;
}
// * * * * * * * * * * * * * * * * * * * * * * * * * * * * * * * * * * * * * //

dimensions      [0 3 -1 0 0 0 0];

oriented        oriented;

internalField   nonuniform List<scalar> 
799
(
1.7441e-32
4.48762e-32
5.76711e-32
4.643e-32
2.07906e-32
-4.64285e-32
-1.06388e-31
-1.52841e-31
-1.63462e-31
-1.26269e-31
-7.10358e-32
-9.32741e-33
2.85758e-32
3.77444e-32
1.55805e-32
-2.42292e-32
-7.57056e-32
-1.28648e-31
-1.69213e-31
-1.97427e-31
-1.89499e-31
-1.53598e-31
-9.26177e-32
-2.20369e-32
1.83671e-32
2.72837e-32
-1.45663e-32
-8.53789e-32
-1.51869e-31
-2.04659e-31
-2.07707e-31
-1.8061e-31
-1.34482e-31
-7.96455e-32
-5.49713e-32
-4.41108e-32
-6.15294e-32
-9.96507e-32
-1.29754e-31
-1.66677e-31
-1.75874e-31
-1.6362e-31
-1.40378e-31
-9.38801e-32
-6.88466e-32
-5.87469e-32
-7.48487e-32
-1.23994e-31
-1.64125e-31
-2.00589e-31
-2.02685e-31
-1.69e-31
-1.2597e-31
-7.18063e-32
-4.75205e-32
-5.37959e-32
-8.70054e-32
-1.46194e-31
-1.91689e-31
-2.16922e-31
-2.03828e-31
-1.50746e-31
-8.87013e-32
-3.38225e-32
-2.10543e-32
-6.18359e-32
-1.35667e-31
-2.19208e-31
-2.64651e-31
-2.47142e-31
-1.7576e-31
-7.39963e-32
2.46985e-33
1.90426e-32
-2.79771e-32
-1.21686e-31
-2.08112e-31
-2.52646e-31
-2.41023e-31
-1.81644e-31
-1.15262e-31
-6.61068e-32
-5.05816e-32
-6.54199e-32
-8.93611e-32
-1.15119e-31
-1.34505e-31
-1.52449e-31
-1.72551e-31
-1.84611e-31
-1.82441e-31
-1.51113e-31
-9.8347e-32
-4.47327e-32
-1.18655e-32
-3.05531e-32
-8.89428e-32
-1.70519e-31
-2.39677e-31
-2.52838e-31
-2.17357e-31
-1.3138e-31
-4.0349e-32
1.30926e-32
2.23295e-32
-3.54128e-32
-1.14472e-31
-1.88053e-31
-2.31776e-31
-2.14571e-31
-1.70534e-31
-1.07576e-31
-6.0739e-32
-5.1964e-32
-6.32091e-32
-9.36393e-32
-1.10299e-31
-1.07623e-31
-9.47108e-32
-8.0647e-32
-9.03979e-32
-1.20723e-31
-1.62089e-31
-1.92744e-31
-1.91159e-31
-1.56325e-31
-9.67953e-32
-3.7178e-32
7.91155e-34
6.30535e-33
-2.34891e-32
-7.57176e-32
-1.36534e-31
-1.91717e-31
-2.23445e-31
-2.2605e-31
-1.92208e-31
-1.27943e-31
-5.40781e-32
1.08224e-32
3.62299e-32
1.3783e-32
-4.93112e-32
-1.33396e-31
-1.9813e-31
-2.24523e-31
-2.00932e-31
-1.4059e-31
-7.77682e-32
-3.43688e-32
-3.35016e-32
-6.79974e-32
-1.14925e-31
-1.51947e-31
-1.52407e-31
-1.19441e-31
-6.85706e-32
-2.6784e-32
-2.39056e-32
-6.38822e-32
-1.34931e-31
-2.01706e-31
-2.28581e-31
-1.97612e-31
-1.17359e-31
-2.7944e-32
3.0198e-32
2.23363e-32
-4.41158e-32
-1.3403e-31
-2.04752e-31
-2.11605e-31
-1.65172e-31
-8.76643e-32
-2.49378e-32
-1.84829e-32
-5.44117e-32
-1.23252e-31
-1.72822e-31
-1.74951e-31
-1.3868e-31
-6.76904e-32
-1.82166e-32
-4.76875e-33
-3.38377e-32
-1.01208e-31
-1.57171e-31
-1.93629e-31
-1.85952e-31
-1.38908e-31
-8.35944e-32
-2.77065e-32
-4.7426e-33
-1.33547e-32
-4.49983e-32
-9.36559e-32
-1.31389e-31
-1.55772e-31
-1.59732e-31
-1.42326e-31
-1.16104e-31
-8.09334e-32
-4.75572e-32
-2.54697e-32
-1.86921e-32
-3.76928e-32
-7.71967e-32
-1.23362e-31
-1.59734e-31
-1.626e-31
-1.28306e-31
-6.98945e-32
-1.23455e-32
9.06541e-33
-1.90084e-32
-8.63704e-32
-1.61157e-31
-1.97873e-31
-1.71284e-31
-8.80391e-32
1.55978e-32
8.31355e-32
7.41453e-32
-1.13931e-32
-1.39413e-31
-2.42986e-31
-2.66687e-31
-1.98346e-31
-6.06935e-32
7.48164e-32
1.44878e-31
1.21565e-31
9.94186e-33
-1.24602e-31
-2.22478e-31
-2.41733e-31
-1.6985e-31
-5.50304e-32
5.68706e-32
1.17313e-31
1.02055e-31
3.57027e-32
-5.26926e-32
-1.18017e-31
-1.31561e-31
-9.60968e-32
-2.86497e-32
3.64873e-32
7.02919e-32
6.33586e-32
2.99317e-32
-5.81992e-33
-1.33649e-32
1.80255e-32
6.95411e-32
1.19195e-31
1.30912e-31
9.72203e-32
4.27225e-32
-4.82611e-33
-1.82963e-33
5.94586e-32
1.53208e-31
2.46858e-31
2.9359e-31
2.81083e-31
2.31825e-31
1.73424e-31
1.47963e-31
1.69825e-31
2.21369e-31
2.90032e-31
3.4511e-31
3.79786e-31
4.08097e-31
4.2734e-31
4.55744e-31
4.86367e-31
5.09542e-31
5.35489e-31
5.56416e-31
5.88779e-31
6.34347e-31
6.81794e-31
7.30199e-31
7.66301e-31
8.01072e-31
8.50955e-31
9.27796e-31
1.03336e-30
1.14401e-30
1.22863e-30
1.26288e-30
1.2544e-30
1.23511e-30
1.25673e-30
1.35427e-30
1.52133e-30
1.72446e-30
1.89753e-30
2.00233e-30
2.03642e-30
2.03212e-30
2.05695e-30
2.14545e-30
2.30946e-30
2.51842e-30
2.71672e-30
2.87835e-30
2.98957e-30
3.08137e-30
3.19306e-30
3.34268e-30
3.53923e-30
3.75086e-30
3.95246e-30
4.13193e-30
4.28889e-30
4.45731e-30
4.65491e-30
4.89305e-30
5.16571e-30
5.43807e-30
5.69627e-30
5.92593e-30
6.13882e-30
6.37016e-30
6.63458e-30
6.95453e-30
7.31409e-30
7.68134e-30
8.03659e-30
8.34762e-30
8.63239e-30
8.91581e-30
9.22848e-30
9.61279e-30
1.00567e-29
1.05472e-29
1.10408e-29
1.14849e-29
1.18647e-29
1.21831e-29
1.24435e-29
1.28643e-29
1.3395e-29
1.47532e-29
1.71756e-29
2.07913e-29
2.76689e-29
3.0354e-29
3.31442e-29
1.60765e-29
-2.66691e-29
-7.8035e-29
-1.83616e-28
-1.7424e-28
-1.13428e-28
1.74615e-28
8.18874e-28
1.18427e-27
1.82679e-27
1.06523e-27
-7.526e-28
-3.02785e-27
-7.53419e-27
-7.20453e-27
-5.92215e-27
1.75727e-27
1.68853e-26
2.2677e-26
3.30578e-26
1.66574e-26
-1.36019e-26
-4.09982e-26
-9.04864e-26
-7.13132e-26
-4.21856e-26
3.15794e-26
1.54634e-25
1.62745e-25
1.92007e-25
5.43206e-26
-1.45591e-25
-2.41553e-25
-4.15702e-25
-2.36514e-25
-3.16339e-26
2.19163e-25
5.89205e-25
4.55166e-25
3.83044e-25
-3.70745e-26
-5.43992e-25
-5.8004e-25
-7.54242e-25
-2.54568e-25
2.23638e-25
5.06858e-25
9.15302e-25
5.06868e-25
2.23653e-25
-2.54555e-25
-7.54238e-25
-5.80045e-25
-5.44005e-25
-3.70886e-26
3.83035e-25
4.55164e-25
5.89209e-25
2.19171e-25
-3.16281e-26
-2.36512e-25
-4.15703e-25
-2.41558e-25
-1.45596e-25
5.43169e-26
1.92005e-25
1.62745e-25
1.54634e-25
3.15797e-26
-4.21859e-26
-7.13139e-26
-9.04871e-26
-4.09991e-26
-1.36027e-26
1.66565e-26
3.30569e-26
2.26761e-26
1.68844e-26
1.75654e-27
-5.92278e-27
-7.20508e-27
-7.53468e-27
-3.02837e-27
-7.53136e-28
1.06464e-27
1.82617e-27
1.18364e-27
8.18259e-28
1.74074e-28
-1.13888e-28
-1.74599e-28
-1.83907e-28
-7.83249e-29
-2.70029e-29
1.56374e-29
3.2623e-29
2.98008e-29
2.71573e-29
2.04079e-29
1.69291e-29
1.46271e-29
1.33168e-29
1.27456e-29
1.22404e-29
1.18696e-29
1.14752e-29
1.10796e-29
1.06741e-29
1.02782e-29
9.90095e-30
9.55634e-30
9.23667e-30
8.91842e-30
8.58054e-30
8.20866e-30
7.81177e-30
7.42536e-30
7.07636e-30
6.79139e-30
6.56358e-30
6.36345e-30
6.16514e-30
5.93268e-30
5.66817e-30
5.37921e-30
5.08619e-30
4.82061e-30
4.58839e-30
4.40317e-30
4.25353e-30
4.11962e-30
3.98432e-30
3.82057e-30
3.6236e-30
3.40331e-30
3.18222e-30
2.99456e-30
2.86276e-30
2.78053e-30
2.72922e-30
2.6656e-30
2.55462e-30
2.39727e-30
2.20021e-30
2.01464e-30
1.87673e-30
1.79694e-30
1.77991e-30
1.77369e-30
1.74746e-30
1.67381e-30
1.53967e-30
1.38454e-30
1.23396e-30
1.12948e-30
1.09277e-30
1.10561e-30
1.14388e-30
1.1582e-30
1.11169e-30
9.99016e-31
8.40252e-31
6.85629e-31
5.90159e-31
5.78516e-31
6.42546e-31
7.35196e-31
7.91295e-31
7.71585e-31
6.66652e-31
5.14987e-31
3.74238e-31
2.92299e-31
2.90032e-31
3.44654e-31
4.18655e-31
4.63917e-31
4.60616e-31
4.09473e-31
3.28778e-31
2.54679e-31
1.98614e-31
1.80022e-31
1.88658e-31
2.09654e-31
2.34625e-31
2.34429e-31
2.19524e-31
1.83308e-31
1.42438e-31
1.22654e-31
1.14266e-31
1.34948e-31
1.52797e-31
1.51691e-31
1.33034e-31
8.10583e-32
3.92224e-32
1.65807e-32
2.5022e-32
7.14204e-32
1.11785e-31
1.38932e-31
1.30701e-31
8.82492e-32
4.5157e-32
6.0411e-33
-8.0558e-33
-5.1955e-33
-5.48062e-33
-4.52744e-33
-9.08949e-33
1.62905e-33
4.09752e-32
9.22588e-32
1.40917e-31
1.42499e-31
7.84154e-32
-3.0213e-32
-1.51251e-31
-2.10813e-31
-1.75573e-31
-5.42085e-32
1.15274e-31
2.36406e-31
2.58824e-31
1.62667e-31
-2.12857e-32
-1.91774e-31
-2.85904e-31
-2.49166e-31
-9.631e-32
8.66409e-32
2.32222e-31
2.57517e-31
1.59222e-31
-6.15244e-33
-1.74862e-31
-2.51213e-31
-2.17862e-31
-9.71865e-32
5.7893e-32
1.58314e-31
1.80673e-31
1.1765e-31
6.48497e-33
-8.81625e-32
-1.46438e-31
-1.42939e-31
-9.87521e-32
-4.33831e-32
1.39425e-32
4.62434e-32
6.36091e-32
6.26198e-32
4.18479e-32
1.4033e-32
-2.72948e-32
-6.32104e-32
-8.91563e-32
-9.83541e-32
-8.46965e-32
-5.8473e-32
-1.91645e-32
1.82e-32
5.05906e-32
6.59112e-32
5.7963e-32
3.03409e-32
-2.00308e-32
-6.60368e-32
-1.03046e-31
-1.12757e-31
-8.88967e-32
-5.3279e-32
-1.95e-33
3.34726e-32
5.10537e-32
5.32851e-32
2.75912e-32
3.76158e-35
-3.75857e-32
-7.09842e-32
-8.54752e-32
-8.86891e-32
-6.28542e-32
-2.58475e-32
1.3328e-32
4.48922e-32
4.81136e-32
3.2312e-32
-2.90093e-33
-4.16407e-32
-6.81988e-32
-7.93077e-32
-6.74017e-32
-4.13473e-32
-8.84907e-33
1.89764e-32
3.23496e-32
2.66294e-32
6.46691e-33
-1.82587e-32
-3.72066e-32
-3.73134e-32
-2.86364e-32
-1.47364e-32
-1.02061e-32
-2.3072e-32
-3.40017e-32
-4.07394e-32
-2.0463e-32
1.90688e-32
5.25613e-32
6.68463e-32
3.24023e-32
-2.88328e-32
-9.09219e-32
-1.20887e-31
-8.85529e-32
-1.7529e-32
6.74256e-32
1.16015e-31
1.01979e-31
3.79137e-32
-5.13968e-32
-1.09849e-31
-1.15063e-31
-6.45322e-32
1.58641e-32
7.56823e-32
9.3713e-32
5.64733e-32
-9.45963e-33
-6.41575e-32
-8.45814e-32
-5.23417e-32
7.08005e-33
6.2692e-32
8.7492e-32
6.0411e-32
2.52553e-33
-6.15306e-32
-1.00818e-31
-8.96295e-32
-4.0064e-32
3.14649e-32
9.4178e-32
1.16744e-31
9.91403e-32
4.32319e-32
-2.83029e-32
-8.43211e-32
-1.1526e-31
-1.04054e-31
-5.79825e-32
4.76672e-33
7.4134e-32
1.19495e-31
1.31786e-31
1.04619e-31
3.76798e-32
-4.03558e-32
-1.10646e-31
-1.41557e-31
-1.16003e-31
-4.45281e-32
5.4242e-32
1.35224e-31
1.65374e-31
1.31266e-31
4.27782e-32
-5.70075e-32
-1.25435e-31
-1.31269e-31
-7.09679e-32
2.33073e-32
1.07866e-31
1.43808e-31
1.13379e-31
3.76023e-32
-4.69791e-32
-9.95992e-32
-9.06993e-32
-3.34382e-32
4.90194e-32
1.14344e-31
1.26507e-31
9.23423e-32
1.83919e-32
-5.0049e-32
-7.85215e-32
-6.58322e-32
-3.48774e-33
6.15517e-32
1.04482e-31
1.13078e-31
7.07132e-32
1.96024e-32
-2.86482e-32
-5.098e-32
-3.13445e-32
1.82136e-33
4.69686e-32
7.77775e-32
8.34214e-32
7.53535e-32
5.1011e-32
2.90661e-32
1.60484e-32
8.87733e-33
1.09759e-32
1.34804e-32
1.17361e-32
1.29711e-32
1.31482e-32
2.30221e-32
4.59191e-32
6.99128e-32
9.91523e-32
1.07803e-31
9.39206e-32
5.88876e-32
9.12936e-34
-4.26443e-32
-6.83622e-32
-5.34087e-32
1.87327e-34
6.44434e-32
1.27855e-31
1.51521e-31
1.36443e-31
8.47484e-32
2.12161e-32
-2.76852e-32
-4.80896e-32
-2.66877e-32
4.14376e-33
5.30564e-32
7.35886e-32
7.4368e-32
6.74918e-32
2.28208e-32
1.35695e-32
-1.87628e-32
-2.48298e-32
-4.76987e-33
)
;

boundaryField
{
    left
    {
        type            calculated;
        value           uniform 0;
    }
    right
    {
        type            calculated;
        value           uniform 0;
    }
    empty
    {
        type            empty;
        value           nonuniform List<scalar> 0();
    }
}


// ************************************************************************* //
