/*--------------------------------*- C++ -*----------------------------------*\
| =========                 |                                                 |
| \\      /  F ield         | OpenFOAM: The Open Source CFD Toolbox           |
|  \\    /   O peration     | Version:  2106                                  |
|   \\  /    A nd           | Website:  www.openfoam.com                      |
|    \\/     M anipulation  |                                                 |
\*---------------------------------------------------------------------------*/
FoamFile
{
    version     2.0;
    format      ascii;
    arch        "LSB;label=32;scalar=64";
    class       volScalarField;
    location    "0.22";
    object      p;
}
// * * * * * * * * * * * * * * * * * * * * * * * * * * * * * * * * * * * * * //

dimensions      [0 2 -2 0 0 0 0];

internalField   nonuniform List<scalar> 
9600
(
2.23201536114
-0.665993745205
-1.57022575302
-1.95583723914
-2.17516731363
-2.31511060653
-2.41901598471
-2.50656521522
-2.5860647013
-2.6614548622
-2.73482855799
-2.80733713324
-2.87961022029
-2.95197863542
-3.02459910144
-3.09752739339
-3.17076340092
-3.24427878067
-3.31803323265
-3.39198388571
-3.46609000372
-3.54031722904
-3.61463504912
-3.6890192936
-3.76345076416
-3.83791431497
-3.91239826311
-3.9868936832
-4.06139370074
-4.13589305871
-4.21038777109
-4.28487455305
-4.35935067491
-4.43381391048
-4.50826214065
-4.58269332607
-4.65710562314
-4.73149712223
-4.80586571137
-4.88020935505
-4.95452585608
-5.02881266282
-5.10306717091
-5.17728662041
-5.2514679307
-5.32560780874
-5.39970275361
-5.47374888599
-5.54774211973
-5.62167814227
-5.69555218531
-5.76935919533
-5.84309383805
-5.91675023662
-5.99032208747
-6.0638028426
-6.13718534824
-6.21046181852
-6.2836241057
-6.35666358758
-6.42957096425
-6.5023363171
-6.57494914613
-6.64739823451
-6.71967166569
-6.79175677243
-6.86364007525
-6.93530725396
-7.00674321335
-7.07793202272
-7.14885672245
-7.21949933659
-7.28984093127
-7.35986149843
-7.42953991432
-7.49885397522
-7.56778018552
-7.63629376027
-7.70436880732
-7.77197807841
-7.83909278595
-7.90568283729
-7.9717167532
-8.03716143679
-8.10198228487
-8.16614311237
-8.22960598753
-8.29233139658
-8.35427822203
-8.41540340994
-8.47566211018
-8.53500777883
-8.59339189004
-8.65076405158
-8.70707208069
-8.76226179433
-8.81627705424
-8.86905978364
-8.92054984417
-8.97068517753
-9.01940170735
-9.06663321507
-9.11231158979
-9.15636676637
-9.19872667335
-9.23931737049
-9.27806286125
-9.31488526803
-9.34970501545
-9.38244061431
-9.4130086212
-9.441324001
-9.4673002001
-9.49084879975
-9.51187994888
-9.53030257146
-9.54602395287
-9.55895006934
-9.568985835
-9.57603505945
-9.5800007045
-9.58078470286
-9.57828811329
-9.57241151177
-9.56305520436
-9.55011899289
-9.53350105257
-9.51309990647
-9.48881366591
-9.46054021933
-9.42817725067
-9.39162200201
-9.35077125478
-9.30552144146
-9.25576792746
-9.20140461293
-9.1423244363
-9.07841793925
-9.00957207632
-8.93567049477
-8.85659158048
-8.77220590505
-8.68237526361
-8.58694944302
-8.48576195419
-8.37862550603
-8.26532519669
-8.14560960741
-8.01917772744
-7.88566064489
-7.74459476577
-7.59537811591
-7.43719767718
-7.2689044734
-7.08879799871
-6.89431143493
-6.68152817342
-6.44462200531
-6.18424444929
-5.96402109177
0.320473674166
-0.861879553766
-1.47055308204
-1.82457911668
-2.0671944936
-2.23775771495
-2.36582999192
-2.4703322815
-2.56140787453
-2.64468639906
-2.72345914717
-2.79967604857
-2.87449662533
-2.94860893085
-3.02241506519
-3.09614170931
-3.16990846066
-3.24377105238
-3.31774814429
-3.39183794701
-3.46602884819
-3.54030449732
-3.61464823884
-3.68904465121
-3.76348015677
-3.83794326592
-3.9124245745
-3.98691652163
-4.06141301105
-4.13590914123
-4.21040111155
-4.28488574734
-4.35936022534
-4.4338222281
-4.50826965485
-4.58270037919
-4.65711246009
-4.73150403821
-4.80587295896
-4.88021702656
-4.95453406165
-5.02882156964
-5.10307684646
-5.17729711467
-5.25147931301
-5.32562011363
-5.39971606326
-5.47376331927
-5.5477577278
-5.62169500245
-5.69557042565
-5.76937888231
-5.84311507267
-5.91677321144
-5.99034689506
-6.06382951161
-6.13721404393
-6.21049275774
-6.2836574273
-6.35669939983
-6.42960941687
-6.50237759789
-6.57499345651
-6.64744575755
-6.71972256137
-6.79181124178
-6.86369838803
-6.93536967938
-7.00680994512
-7.0780032491
-7.14893269718
-7.21958033328
-7.28992726033
-7.35995350381
-7.42963786382
-7.49895812214
-7.56789091567
-7.63641145856
-7.70449375425
-7.77211061533
-7.83923332133
-7.90583174073
-7.97187442345
-8.03732829065
-8.10215870064
-8.16632953434
-8.2298029153
-8.29253925804
-8.35449745485
-8.41563448808
-8.47590543995
-8.53526381789
-8.59366120632
-8.65104717633
-8.70736950511
-8.76257402588
-8.81660460763
-8.86940321548
-8.92090968055
-8.97106188992
-9.0197958441
-9.06704533492
-9.11274221686
-9.15681649112
-9.19919605413
-9.23980692661
-9.27857315164
-9.31541675372
-9.35025806625
-9.38301567737
-9.41360605554
-9.44194405025
-9.46794331702
-9.49151550883
-9.51257049269
-9.53101716696
-9.5467630069
-9.55971404827
-9.56977517269
-9.57685012738
-9.58084197029
-9.58165281051
-9.57918366041
-9.57333489665
-9.56400641128
-9.55109721541
-9.53450673182
-9.51413406449
-9.48987797679
-9.46163680943
-9.42930882615
-9.39279214408
-9.35198437632
-9.30678312528
-9.25708551137
-9.20278698419
-9.1437824909
-9.07996585647
-9.01122759227
-8.93745532122
-8.85853317096
-8.77433879454
-8.68474249319
-8.5896052518
-8.48877515969
-8.38208380546
-8.26934098745
-8.15032880282
-8.02479266718
-7.89242886277
-7.75286962856
-7.60566230308
-7.45024074563
-7.28589286287
-7.11173331694
-6.92676417761
-6.73010699365
-6.52082554682
-6.29914336728
-6.08720776453
-0.655368255317
-1.13673600149
-1.52799294527
-1.81961078344
-2.04118378555
-2.20911924265
-2.34122154978
-2.45100994561
-2.54686844373
-2.6340131312
-2.7157551805
-2.79418947463
-2.87063658754
-2.94592606501
-3.02057408726
-3.09489600322
-3.16907882939
-3.24322866007
-3.31740142226
-3.39162254801
-3.46589982852
-3.54023133489
-3.61461031929
-3.68902824898
-3.76347632749
-3.83794633158
-3.91243099903
-3.98692420247
-4.06142083372
-4.13591654291
-4.21040781774
-4.28489174056
-4.35936559801
-4.43382705774
-4.50827407952
-4.58270456339
-4.65711646691
-4.73150794945
-4.80587691719
-4.8802210844
-4.95453822126
-5.02882588781
-5.10308138545
-5.17730191858
-5.25148445064
-5.32562562494
-5.39972199818
-5.47376978166
-5.54776477588
-5.62170264448
-5.69557873868
-5.76938790384
-5.84312477537
-5.91678367519
-5.99035824452
-6.06384174626
-6.13722714986
-6.21050681328
-6.28367252438
-6.35671560875
-6.42962682673
-6.50239628855
-6.57501350482
-6.64746727614
-6.71974562487
-6.79183587174
-6.8637246386
-6.93539771471
-7.00683994498
-7.07803532697
-7.14896695905
-7.21961687712
-7.28996616912
-7.35999491731
-7.42968194333
-7.49900497608
-7.56794070037
-7.63646438726
-7.70454995143
-7.77217019314
-7.83929649539
-7.90589870746
-7.97194532551
-8.03740329153
-8.1022379478
-8.16641318914
-8.22989121736
-8.29263240703
-8.35459560877
-8.41573790367
-8.47601436858
-8.53537842854
-8.59378169152
-8.65117373735
-8.70750232918
-8.76271332556
-8.8167505778
-8.8695560683
-8.9210696606
-8.97122914205
-9.01997049159
-9.06722759099
-9.11293220489
-9.15701431418
-9.19940188147
-9.2400209662
-9.27879568776
-9.31564805189
-9.35049825959
-9.38326499402
-9.4138650754
-9.4422132952
-9.46822304562
-9.49180617372
-9.51287256806
-9.53133096982
-9.54708890009
-9.56005251093
-9.5701268052
-9.57721557291
-9.58122183111
-9.58204786755
-9.57959495605
-9.57376362546
-9.56445430494
-9.55156694679
-9.53500067045
-9.5146545143
-9.49042748065
-9.46221837943
-9.42992606465
-9.39344947546
-9.35268708913
-9.30753743135
-9.25789929648
-9.20367013127
-9.14474670229
-9.08102562107
-9.01240119638
-8.93876512401
-8.86000688658
-8.77601126155
-8.68665713233
-8.59181639604
-8.49135130702
-8.38511187272
-8.2729318892
-8.15462519582
-8.02998078446
-7.89875555831
-7.76066761438
-7.61539083076
-7.4625507339
-7.3017332331
-7.13252029587
-6.9546099801
-6.76811254557
-6.57368456702
-6.37257984448
-6.17342441945
-1.2068279484
-1.39317518157
-1.63562002363
-1.85808942587
-2.0452801089
-2.19930722605
-2.32774503317
-2.43803558784
-2.5358299346
-2.62518993069
-2.70896094136
-2.78908747614
-2.86687723447
-2.94319934205
-3.01862415415
-3.09352030155
-3.16812138085
-3.24257173241
-3.31695757781
-3.3913278378
-3.46570797633
-3.54010931924
-3.61453538147
-3.68898404987
-3.76345188809
-3.83793427919
-3.91242644288
-3.98692394477
-4.06142290092
-4.13591975927
-4.21041143071
-4.28489534026
-4.35936903759
-4.43383025454
-4.50827702216
-4.58270734964
-4.65711915416
-4.73151054534
-4.80587950659
-4.88022374825
-4.95454098445
-5.02882879155
-5.10308445856
-5.17730515776
-5.2514879022
-5.32562932239
-5.3997259048
-5.47377392279
-5.54776920182
-5.62170738072
-5.69558383797
-5.76939343107
-5.84313071056
-5.91679002431
-5.99036511133
-6.06384917892
-6.13723514679
-6.21051540803
-6.28368178376
-6.35672556176
-6.42963751138
-6.50240775448
-6.57502579136
-6.64748044405
-6.71975977687
-6.79185106484
-6.86374086973
-6.93541500361
-7.00685837249
-7.07805498199
-7.14898790579
-7.21963919371
-7.2899899136
-7.36002016727
-7.42970881451
-7.4990335216
-7.56797096799
-7.63649651522
-7.70458405781
-7.7722063381
-7.83933478323
-7.90593925448
-7.97198822558
-8.03744867037
-8.10228591252
-8.16646379861
-8.22994459406
-8.29268870082
-8.35465491243
-8.41580036396
-8.47608017343
-8.53544769927
-8.59385455422
-8.65125035268
-8.70758285044
-8.76279791271
-8.81683936331
-8.86964919123
-8.92116734744
-8.97133163053
-9.02007801851
-9.06734039658
-9.11305059261
-9.15713856083
-9.19953216639
-9.24015740198
-9.27893847647
-9.31579751581
-9.35065464564
-9.383428412
-9.41403563533
-9.44239109687
-9.46840811565
-9.49199866168
-9.51307281246
-9.53153928152
-9.54730558826
-9.56027791211
-9.57036139572
-9.57745992684
-9.58147647649
-9.5823134253
-9.57987237209
-9.57405395969
-9.56475850956
-9.55188623111
-9.53533680608
-9.51500975179
-9.49080462171
-9.46262086984
-9.43035799668
-9.39391593991
-9.35319445179
-9.30809311693
-9.25851236056
-9.20435204001
-9.14551120975
-9.08188932058
-9.01338480217
-8.93989400903
-8.86131203672
-8.77753112437
-8.68843938529
-8.59392023687
-8.49385056302
-8.38809939724
-8.27652529679
-8.15897401586
-8.0352771177
-7.90524944517
-7.76868797089
-7.62537587495
-7.47509083028
-7.3176277526
-7.15284451164
-6.98075033191
-6.80167380475
-6.61632388549
-6.42563880381
-6.23277651959
-1.5441723812
-1.59593795109
-1.73983029517
-1.90412428555
-2.05845770354
-2.19651473137
-2.31866864254
-2.42745709771
-2.52590095777
-2.61673098358
-2.70213855191
-2.78377643474
-2.86284643096
-2.94020041575
-3.01642998793
-3.0919388408
-3.16699758658
-3.24178425372
-3.31641361066
-3.39095779829
-3.46546053616
-3.53994715024
-3.61443151552
-3.6889193405
-3.7634130916
-3.83791231217
-3.91241514282
-3.98691918473
-4.0614220007
-4.13592105219
-4.21041383739
-4.28489819071
-4.35937201128
-4.433833178
-4.50827978647
-4.58270999645
-4.6571217567
-4.73151309982
-4.80588206149
-4.88022638912
-4.95454373131
-5.02883165656
-5.10308747674
-5.17730834602
-5.25149131027
-5.32563302967
-5.39972993823
-5.47377833131
-5.54777407193
-5.62171271297
-5.69558963725
-5.76939978818
-5.84313761718
-5.91679743372
-5.99037307839
-6.06385776275
-6.13724433328
-6.2105252517
-6.28369232511
-6.35673685324
-6.42964963365
-6.50242076496
-6.57503970687
-6.64749529292
-6.71977564299
-6.7918680429
-6.86375901194
-6.93543436536
-7.00687905219
-7.07807705205
-7.14901144974
-7.21966433931
-7.2900167344
-7.36004870468
-7.42973919996
-7.49906588132
-7.5680053394
-7.63653300518
-7.70462284012
-7.77224749623
-7.83937838236
-7.90598541857
-7.97203707025
-8.03750032664
-8.10234051406
-8.1665214292
-8.23000540052
-8.2927528741
-8.3547225158
-8.41587147178
-8.47615497794
-8.53552634509
-8.59393713923
-8.65133701988
-8.70767374011
-8.76289316718
-8.81693909724
-8.86975345012
-8.92127623793
-8.97144524358
-9.02019633857
-9.06746350729
-9.11317861999
-9.15727163584
-9.19967047406
-9.24030104955
-9.27908750914
-9.31595210324
-9.35081498286
-9.38359460686
-9.41420794783
-9.44256990274
-9.46859359625
-9.49219093668
-9.51327216819
-9.53174607707
-9.54752019458
-9.56050070952
-9.57059284644
-9.57770068925
-9.58172722452
-9.58257481465
-9.58014533053
-9.57433976482
-9.56505855999
-9.55220213886
-9.53567058377
-9.51536385735
-9.49118206175
-9.46302535884
-9.43079390009
-9.39438856812
-9.35371061536
-9.30866092872
-9.25914143966
-9.20505449458
-9.14630185124
-9.08278593098
-9.01440940207
-8.94107366823
-8.86267961488
-8.77912704918
-8.69031361066
-8.59613445929
-8.4964810729
-8.39124100101
-8.28029669329
-8.16352434852
-8.04079461166
-7.91197352138
-7.77692447472
-7.63551643329
-7.4876365804
-7.33321265778
-7.17224965674
-7.00487819136
-6.83141424559
-6.65231313772
-6.46790671532
-6.27878347049
-1.74824585135
-1.74327050503
-1.82724355208
-1.94803270359
-2.07467658638
-2.19735571039
-2.3122525441
-2.41844891611
-2.51673181537
-2.60852084907
-2.69528168804
-2.77829679669
-2.85860092176
-2.93698780491
-3.01404532342
-3.09019796241
-3.16574583716
-3.24089717254
-3.31579395188
-3.39053133429
-3.46517170473
-3.53975493776
-3.61430586961
-3.68883966808
-3.76336398023
-3.83788329667
-3.91239910724
-3.98691131536
-4.06141907427
-4.13592102232
-4.21041541282
-4.2849005291
-4.35937464905
-4.43383588407
-4.50828241202
-4.5827125144
-4.65712422304
-4.73151552226
-4.80588445751
-4.88022882446
-4.95454622288
-5.02883420585
-5.10309013059
-5.17731112234
-5.25149422342
-5.32563614681
-5.39973327756
-5.47378188512
-5.54777788775
-5.62171679949
-5.69559397254
-5.76940443955
-5.84314266671
-5.91680285429
-5.99037888381
-6.06386404466
-6.13725113997
-6.21053257429
-6.28370020924
-6.35674534527
-6.4296587518
-6.50243056714
-6.57505024937
-6.64750658695
-6.71978768668
-6.79188088984
-6.86377273561
-6.93544902243
-7.00689469183
-7.07809372185
-7.14902920514
-7.21968326208
-7.2900368831
-7.36007009564
-7.42976191355
-7.49909003828
-7.5680309851
-7.63656018733
-7.70465167324
-7.77227807998
-7.83941079616
-7.90601973206
-7.97207332182
-8.037538599
-8.10238095081
-8.16656411015
-8.2300503843
-8.29280031331
-8.35477254776
-8.41592418375
-8.47621050175
-8.53558481249
-8.59399866399
-8.65140174154
-8.707741787
-8.76296467513
-8.81701422583
-8.86983230526
-8.92135895588
-8.97153204629
-9.0202874019
-9.06755896076
-9.11327859327
-9.15737627655
-9.19978000163
-9.24041565581
-9.27920729726
-9.3160772206
-9.35094564478
-9.38373091871
-9.41435000749
-9.44271800078
-9.46874798447
-9.49235177447
-9.51343972602
-9.53192070102
-9.547702289
-9.56069069431
-9.57079118945
-9.57790807201
-9.58194448404
-9.58280274444
-9.58038484915
-9.57459218011
-9.56532544984
-9.5524852923
-9.53597219429
-9.51568656788
-9.49152903782
-9.46340056045
-9.43120206469
-9.39483523386
-9.35420276328
-9.30920709352
-9.2597516185
-9.20574101464
-9.14707989911
-9.08367363978
-9.01542889842
-8.9422521351
-8.86404997847
-8.78072943017
-8.69219713872
-8.59835941604
-8.499121411
-8.39438751119
-8.28406155143
-8.16804636122
-8.04624533864
-7.91856574726
-7.78492177941
-7.64524296396
-7.49948649998
-7.34765325234
-7.18981054206
-7.02611130296
-6.85679625464
-6.68210967434
-6.50205729193
-6.31637950588
-1.8713743402
-1.84592115709
-1.89527929917
-1.98543805479
-2.0903638413
-2.19968574942
-2.30752247308
-2.41074630271
-2.50842003227
-2.60081037719
-2.68868172411
-2.77292566979
-2.85438100629
-2.93375906991
-3.0116270019
-3.08841906632
-3.16445824222
-3.23997916933
-3.3151490275
-3.39008496492
-3.46486757778
-3.53955126871
-3.61417216799
-3.688753919
-3.76331042938
-3.83785112795
-3.91238086163
-3.98690191659
-4.06141508003
-4.13592022023
-4.21041642927
-4.28490245743
-4.35937694757
-4.43383830662
-4.50828480774
-4.58271480266
-4.65712644391
-4.73151770237
-4.80588658955
-4.88023094114
-4.95454834936
-5.02883635858
-5.10309236551
-5.17731347014
-5.25149667226
-5.32563874708
-5.39973608872
-5.47378491912
-5.5477811948
-5.62172043386
-5.69559793085
-5.76940872328
-5.84314733007
-5.91680789359
-5.99038428872
-6.06386983839
-6.13725734447
-6.21053920463
-6.28370730558
-6.35675293732
-6.42966685601
-6.50243922572
-6.57505952755
-6.64751651922
-6.71979827246
-6.79189216024
-6.86378475532
-6.93546184954
-7.00690838661
-7.0781083423
-7.14904479312
-7.21969989743
-7.29005465579
-7.36008900599
-7.42978197769
-7.49911138295
-7.56805370448
-7.63658430174
-7.70467724873
-7.77230520167
-7.8394395206
-7.90605013196
-7.97210546402
-8.03757254636
-8.10241682356
-8.16660199632
-8.23009029844
-8.29284234727
-8.35481682824
-8.41597076302
-8.47625945054
-8.53563624877
-8.59405269041
-8.65145844043
-8.70780120942
-8.76302689275
-8.81707935873
-8.86990040825
-8.92143006069
-8.97160626069
-9.02036485472
-9.06763977591
-9.11336289494
-9.15746415747
-9.19987159958
-9.24051115152
-9.27930680145
-9.31618085606
-9.35105365339
-9.3838434969
-9.4144672313
-9.44284007733
-9.46887521055
-9.49248439253
-9.51357801573
-9.53206499836
-9.54785301872
-9.56084835024
-9.57095624003
-9.57808110849
-9.58212635008
-9.58299437633
-9.58058722195
-9.57480657286
-9.56555346215
-9.55272881159
-9.53623350299
-9.51596839533
-9.49183457257
-9.46373378009
-9.43156792418
-9.39523941158
-9.35465213846
-9.30971024591
-9.26031867046
-9.20638417606
-9.14781420102
-9.08451701528
-9.01640288557
-8.94338307366
-8.86536977869
-8.78227660561
-8.69401831762
-8.60051135622
-8.50167316985
-8.39742279509
-8.28768209979
-8.17237608535
-8.05143455201
-7.92479618598
-7.79241182203
-7.65425156887
-7.51031473257
-7.36063960825
-7.20531480233
-7.04448280068
-6.87832347135
-6.70698114435
-6.530408238
-6.3483158563
-1.94541635444
-1.91436893819
-1.9442995799
-2.01407049742
-2.103239586
-2.2021162442
-2.30399523431
-2.40446764792
-2.50139417635
-2.59414036362
-2.68287745129
-2.76814383614
-2.85058892366
-2.93083669723
-3.00942567612
-3.08679239006
-3.16327637382
-3.23913381565
-3.31455343978
-3.38967161674
-3.46458517624
-3.53936161017
-3.61404726095
-3.68867365891
-3.76326003174
-3.83782065202
-3.91236337948
-3.98689273107
-4.06141100836
-4.13591917064
-4.21041710708
-4.28490402577
-4.35937888627
-4.43384037687
-4.5082868776
-4.58271677445
-4.65712833108
-4.73151955041
-4.80588838768
-4.88023269373
-4.95455009047
-5.0288381094
-5.10309417493
-5.17731537852
-5.25149866622
-5.32564085529
-5.3997383717
-5.47378737977
-5.54778384734
-5.62172331657
-5.69560101008
-5.76941199665
-5.84315085511
-5.91681170831
-5.99038838031
-6.06387424436
-6.13726210649
-6.21054433667
-6.28371284069
-6.35675890341
-6.42967324878
-6.50244603473
-6.57506678708
-6.6475242825
-6.71980656747
-6.79190099558
-6.86379417076
-6.93547188822
-7.00691909478
-7.07811977727
-7.14905697911
-7.21971286509
-7.29006847886
-7.36010371547
-7.42979756902
-7.49912793122
-7.56807130516
-7.63660298308
-7.70469704119
-7.77232614905
-7.83946166076
-7.90607354597
-7.97213022523
-8.03759867506
-8.10244439657
-8.16663112429
-8.23012100744
-8.29287468655
-8.35485090644
-8.41600663864
-8.47629717876
-8.53567592584
-8.59409440874
-8.65150228623
-8.70784723521
-8.76307512932
-8.81712991915
-8.86995340149
-8.92148551524
-8.97166423722
-9.02042544425
-9.06770308016
-9.11342903939
-9.15753321
-9.19994363669
-9.24058633598
-9.27938522122
-9.31626253212
-9.35113876882
-9.3839323088
-9.41455984122
-9.44293660063
-9.46897590514
-9.492589523
-9.51368785159
-9.53217983834
-9.54797325847
-9.56097452647
-9.5710888746
-9.57822071425
-9.58227368692
-9.5831504453
-9.58075309412
-9.57498350155
-9.56574302276
-9.55293289506
-9.53645440165
-9.51620890553
-9.49209791185
-9.464023828
-9.43188962913
-9.39559852258
-9.35505538709
-9.31016603396
-9.26083701308
-9.20697691879
-9.14849586196
-9.08530503782
-9.01731799702
-8.94445031837
-8.86661939668
-8.78374495569
-8.69574901855
-8.6025568554
-8.50409667677
-8.40030012965
-8.29110410635
-8.17645172444
-8.05629356687
-7.930592081
-7.79932484319
-7.66248976559
-7.5201127879
-7.37225388138
-7.21901274042
-7.06052721834
-6.89695808905
-6.72844434718
-6.55502874876
-6.37665862131
-1.98764985745
-1.95608680823
-1.97573310354
-2.03317732497
-2.11219116455
-2.2039699222
-2.30158732018
-2.39997493959
-2.49625645374
-2.58919022291
-2.67852265422
-2.76452659844
-2.84770245069
-2.92860160832
-3.00773585496
-3.08554010338
-3.16236445018
-3.2384803378
-3.31409231548
-3.38935114435
-3.46436593274
-3.53921414558
-3.61394980574
-3.6886098345
-3.76322053285
-3.83779681772
-3.91234963422
-3.98688545062
-4.06140774441
-4.13591827633
-4.21041756084
-4.28490519338
-4.35938035648
-4.43384195353
-4.50828847556
-4.58271830785
-4.65712978305
-4.7315209635
-4.80588975778
-4.8802340222
-4.95455141729
-5.02883944764
-5.10309553818
-5.17731681872
-5.25150019668
-5.32564247778
-5.39974012361
-5.47378926244
-5.54778585719
-5.62172551348
-5.6956034092
-5.76941454119
-5.84315358312
-5.91681468278
-5.99039159725
-6.06387769251
-6.13726580767
-6.21054829763
-6.28371705955
-6.35676340897
-6.42967806664
-6.50245117162
-6.57507224458
-6.6475300952
-6.71981276306
-6.79190759734
-6.86380120567
-6.93547937219
-7.00692706453
-7.0781283077
-7.14906609874
-7.21972254146
-7.29007874612
-7.36011465282
-7.42980918987
-7.49914025122
-7.56808438774
-7.6366168602
-7.70471172753
-7.77234167783
-7.83947806462
-7.90609088552
-7.97214856982
-8.03761803485
-8.10246480377
-8.16665267996
-8.23014374334
-8.29289859131
-8.35487604114
-8.41603307105
-8.47632494305
-8.53570506769
-8.59412498045
-8.65153435829
-8.7078808672
-8.76311032663
-8.81716673175
-8.86999192394
-8.92152581016
-8.97170635628
-9.02046945202
-9.06774904332
-9.11347704552
-9.15758333163
-9.19999592693
-9.24064091631
-9.27944222445
-9.31632196319
-9.35120071654
-9.38399702705
-9.41462747868
-9.44300723722
-9.46904976222
-9.49266687428
-9.51376897143
-9.53226499758
-9.54806279506
-9.56106894112
-9.57118873684
-9.57832658284
-9.58238626816
-9.5832707133
-9.5808821536
-9.57512263334
-9.56589380499
-9.5530971942
-9.53663444623
-9.51640747832
-9.49231831338
-9.46426986627
-9.43216609809
-9.39591116038
-9.3554108218
-9.31057245042
-9.26130423008
-9.20751640167
-9.14912153123
-9.08603369799
-9.0181695545
-8.94544857657
-8.86779291945
-8.78512796589
-8.69738220709
-8.60448856153
-8.5063847458
-8.40301345816
-8.29432410526
-8.1802747204
-8.06083295492
-7.9359800432
-7.80571411938
-7.6700545077
-7.52904783757
-7.38277259505
-7.23134351784
-7.07491136047
-6.91365647297
-6.74777010019
-6.57743463564
-6.40285921385
-2.0068991895
-1.97580210962
-1.99102809445
-2.04269434668
-2.11675200727
-2.20495358376
-2.30035743922
-2.39762605176
-2.49353802777
-2.58654871786
-2.67618391852
-2.76257448691
-2.84613894766
-2.92738751309
-3.00681596027
-3.08485726445
-3.161866562
-3.23812318173
-3.31384008109
-3.38917573913
-3.46424586237
-3.53913334986
-3.61389653985
-3.68857578887
-3.76319899485
-3.83778375705
-3.91234210534
-3.98688146124
-4.06140597939
-4.13591782615
-4.21041784746
-4.28490588741
-4.35938123008
-4.43384288258
-4.50828943826
-4.58271926645
-4.65713070429
-4.73152186249
-4.80589063673
-4.88023487987
-4.95455229106
-5.02884034493
-5.10309644407
-5.1773177761
-5.25150124101
-5.32564360062
-5.39974133959
-5.47379057047
-5.54778723463
-5.62172699317
-5.69560502532
-5.76941626572
-5.84315541601
-5.91681667621
-5.99039375349
-6.06387999696
-6.13726828894
-6.21055097326
-6.28371990534
-6.35676641549
-6.42968127053
-6.50245459903
-6.57507589031
-6.64753395205
-6.71981684898
-6.79191194023
-6.86380583138
-6.93548429543
-7.00693229814
-7.07813390382
-7.14907208623
-7.21972887593
-7.29008543159
-7.36012177184
-7.42981676713
-7.49914826387
-7.5680928577
-7.63662581437
-7.70472118312
-7.77235166976
-7.8394886087
-7.90610199896
-7.97216031584
-8.03763044644
-8.10247787769
-8.16666647398
-8.23015829394
-8.29291386653
-8.3548920573
-8.41604987968
-8.47634257199
-8.53572353595
-8.59414429573
-8.65155455944
-8.70790203421
-8.76313246497
-8.81718983525
-8.87001606173
-8.92155102806
-8.97173268625
-9.02049694443
-9.06777773378
-9.11350700442
-9.15761461617
-9.20002854077
-9.24067492103
-9.27947777664
-9.31635914122
-9.35123953517
-9.38403763923
-9.41467004575
-9.44305186282
-9.4690966302
-9.49271623726
-9.51382112567
-9.53232023965
-9.54812140417
-9.5611313288
-9.57125550863
-9.57839837815
-9.58246375825
-9.58335480242
-9.58097394642
-9.575223424
-9.56600518085
-9.55322104511
-9.53677296772
-9.51656340417
-9.49249500434
-9.46447111472
-9.43239652453
-9.39617646
-9.35571756231
-9.31092855816
-9.26171933795
-9.20800177516
-9.1496906371
-9.08670280212
-9.01895796909
-8.94637917639
-8.86889288459
-8.78642974943
-8.69892438344
-8.60631665572
-8.50855261838
-8.40558478944
-8.29737372026
-8.18389037239
-8.06511707998
-7.94105155935
-7.81170961451
-7.67712983803
-7.53737902204
-7.39255647844
-7.2428000117
-7.08828896665
-6.92924686602
-6.76594080517
-6.59868952053
-6.4279090161
-2.00690011974
-1.97580158085
-1.99102788298
-2.04269463387
-2.11675196288
-2.2049535573
-2.30035751515
-2.39762610138
-2.49353805899
-2.58654879043
-2.67618401986
-2.76257457534
-2.84613902709
-2.92738757504
-3.00681600081
-3.08485729676
-3.16186659127
-3.23812319551
-3.3138400947
-3.38917577407
-3.46424590187
-3.53913339052
-3.61389658789
-3.68857583249
-3.76319904475
-3.83778383618
-3.91234219054
-3.98688154898
-4.06140610125
-4.13591796108
-4.21041797948
-4.28490605401
-4.35938142959
-4.43384308686
-4.5082896799
-4.58271956626
-4.65713103051
-4.73152220431
-4.80589099368
-4.88023524164
-4.95455267678
-5.02884077151
-5.10309689236
-5.17731826633
-5.25150180191
-5.32564421198
-5.3997419971
-5.47379129037
-5.54778798407
-5.62172775849
-5.69560585277
-5.76941717227
-5.84315639659
-5.91681773705
-5.99039489057
-6.06388120032
-6.13726957808
-6.21055236529
-6.2837213801
-6.35676795071
-6.42968288024
-6.50245631475
-6.57507771167
-6.64753585719
-6.71981883952
-6.79191403045
-6.86380804665
-6.93548665766
-7.00693479922
-7.0781365498
-7.14907490971
-7.2197318615
-7.29008854735
-7.3601250564
-7.42982025707
-7.49915193853
-7.56809671076
-7.63662985818
-7.70472542436
-7.77235613
-7.83949329051
-7.90610689354
-7.97216547622
-8.03763591754
-8.10248362627
-8.16667250259
-8.23016463274
-8.2929204869
-8.35489893732
-8.41605703617
-8.47635002449
-8.53573129717
-8.59415234516
-8.65156288675
-8.70791069684
-8.76314148725
-8.81719920342
-8.87002579127
-8.92156114178
-8.97174320222
-9.02050788848
-9.06778912055
-9.11351887503
-9.15762704509
-9.20004150863
-9.24068839848
-9.279491886
-9.31637402554
-9.35125519395
-9.38405412293
-9.41468751583
-9.4430704647
-9.46911651403
-9.49273758766
-9.51384420246
-9.53234537294
-9.54814890418
-9.56116156942
-9.57128904966
-9.57843587026
-9.58250589892
-9.58340248881
-9.58102826971
-9.57528564963
-9.56607688216
-9.55330415434
-9.53686970526
-9.51667642632
-9.49262765859
-9.46462723196
-9.43258065052
-9.39639429766
-9.35597569313
-9.31123473091
-9.26208307951
-9.20843433076
-9.15020528565
-9.08731550504
-9.01968770439
-8.94724840317
-8.86992817047
-8.78766263269
-8.70039226303
-8.60806353053
-8.51063028537
-8.40805434414
-8.30030667924
-8.18737025455
-8.06924114727
-7.94593270547
-7.81747811166
-7.68393500504
-7.54539196264
-7.40197306285
-7.25384531743
-7.10122557498
-6.94438907374
-6.78367861326
-6.61952217673
-6.45247304094
-1.98765237395
-1.95608534514
-1.97573256333
-2.03317812298
-2.11219099893
-2.20396984688
-2.30158754767
-2.39997507063
-2.49625657549
-2.5891904502
-2.67852292013
-2.76452684102
-2.84770269845
-2.9286018077
-3.007735975
-3.08554019707
-3.16236454259
-3.23848039422
-3.31409237524
-3.38935125767
-3.46436605494
-3.53921426514
-3.61394994648
-3.68860997644
-3.76322069258
-3.83779705079
-3.91234988803
-3.98688572056
-4.06140810394
-4.13591867403
-4.21041795417
-4.28490568053
-4.35938094095
-4.43384257509
-4.50828921832
-4.58271920998
-4.65713075823
-4.73152199085
-4.80589083858
-4.8802351201
-4.95455258341
-5.02884072795
-5.10309688922
-5.17731829762
-5.25150187954
-5.3256442975
-5.39974207548
-5.47379139375
-5.54778809233
-5.62172782745
-5.69560591595
-5.76941726856
-5.84315650337
-5.91681784066
-5.9903950036
-6.06388131409
-6.13726967874
-6.21055245862
-6.28372146361
-6.35676801772
-6.42968292388
-6.50245633575
-6.57507769762
-6.64753579943
-6.7198187394
-6.79191388199
-6.8638078567
-6.9354864529
-7.00693456686
-7.07813625263
-7.14907456646
-7.21973148672
-7.29008809739
-7.36012451816
-7.42981965863
-7.4991512722
-7.56809595886
-7.63662900959
-7.70472445997
-7.77235505552
-7.83949211636
-7.90610559852
-7.97216407636
-8.03763445896
-8.10248206799
-8.16667078066
-8.23016275166
-8.29291844009
-8.35489668681
-8.41605455491
-8.47634729269
-8.53572832144
-8.59414912611
-8.65155937156
-8.70790688196
-8.76313739915
-8.81719481353
-8.87002109529
-8.9215561486
-8.97173791088
-9.02050230397
-9.06778321439
-9.11351263972
-9.15762054163
-9.20003476892
-9.24068135654
-9.2794845821
-9.31636658541
-9.35124763343
-9.38404644544
-9.41467985717
-9.44306296776
-9.46910931912
-9.49273084267
-9.51383812408
-9.53234029828
-9.54814519953
-9.56115959128
-9.57128926295
-9.57843892802
-9.58251252294
-9.5834135627
-9.58104489828
-9.57530911429
-9.56610874877
-9.55334636746
-9.53692452037
-9.51674645251
-9.49271622599
-9.46473826506
-9.43271864758
-9.39656492014
-9.35618568018
-9.31149189226
-9.26239693968
-9.20881626342
-9.15066864744
-9.08787621093
-9.02036476959
-8.94806445546
-8.87090986953
-8.7888414403
-8.7018055507
-8.60975539569
-8.51265235085
-8.41046739181
-8.30318201257
-8.19079110453
-8.07330444145
-7.9507508918
-7.82318168485
-7.69067483687
-7.55334193292
-7.41133411058
-7.26485053304
-7.11414718687
-6.9595482586
-6.80145895335
-6.64038244178
-6.47694834019
-1.94541980363
-1.91436684123
-1.94429894134
-2.01407156014
-2.103239335
-2.20211620228
-2.30399552425
-2.40446783151
-2.50139439462
-2.59414070513
-2.68287786569
-2.76814425476
-2.85058934477
-2.9308370403
-3.00942589486
-3.08679255841
-3.16327652999
-3.23913393363
-3.3145535712
-3.38967180926
-3.46458537581
-3.53936180805
-3.61404749259
-3.68867390036
-3.76326031262
-3.8378210287
-3.91236378993
-3.98689318225
-4.0614115888
-4.13591981735
-4.21041777578
-4.2849048317
-4.35937984401
-4.43384143836