/*--------------------------------*- C++ -*----------------------------------*\
| =========                 |                                                 |
| \\      /  F ield         | OpenFOAM: The Open Source CFD Toolbox           |
|  \\    /   O peration     | Version:  2106                                  |
|   \\  /    A nd           | Website:  www.openfoam.com                      |
|    \\/     M anipulation  |                                                 |
\*---------------------------------------------------------------------------*/
FoamFile
{
    version     2.0;
    format      ascii;
    arch        "LSB;label=32;scalar=64";
    class       surfaceScalarField;
    location    "0.053";
    object      phi;
}
// * * * * * * * * * * * * * * * * * * * * * * * * * * * * * * * * * * * * * //

dimensions      [0 3 -1 0 0 0 0];

oriented        oriented;

internalField   nonuniform List<scalar> 
799
(
1.84852e-32
4.69658e-32
6.08022e-32
5.06068e-32
2.60076e-32
-4.01722e-32
-9.90974e-32
-1.4452e-31
-1.54114e-31
-1.15903e-31
-5.96641e-32
3.04415e-33
4.19402e-32
5.20944e-32
3.09059e-32
-7.93882e-33
-5.8461e-32
-1.10461e-31
-1.50093e-31
-1.77386e-31
-1.68549e-31
-1.31757e-31
-6.98962e-32
1.55579e-33
4.28173e-32
5.257e-32
1.1542e-32
-5.84625e-32
-1.24159e-31
-1.76173e-31
-1.78468e-31
-1.5063e-31
-1.03777e-31
-4.82299e-32
-2.28647e-32
-1.13296e-32
-2.80921e-32
-6.55758e-32
-9.50612e-32
-1.31382e-31
-1.39993e-31
-1.27169e-31
-1.03376e-31
-5.63485e-32
-3.08047e-32
-2.02095e-32
-3.58321e-32
-8.45169e-32
-1.24206e-31
-1.60243e-31
-1.61934e-31
-1.27859e-31
-8.44551e-32
-2.99348e-32
-5.30891e-33
-1.12602e-32
-4.41625e-32
-1.0306e-31
-1.48277e-31
-1.73247e-31
-1.59906e-31
-1.06594e-31
-4.43344e-32
1.07478e-32
2.3704e-32
-1.69061e-32
-9.05699e-32
-1.73964e-31
-2.19272e-31
-2.01639e-31
-1.30145e-31
-2.82818e-32
4.82776e-32
6.49279e-32
1.79683e-32
-7.56848e-32
-1.62067e-31
-2.06562e-31
-1.94906e-31
-1.35503e-31
-6.91084e-32
-1.99471e-32
-4.42682e-33
-1.92759e-32
-4.32386e-32
-6.9022e-32
-8.84408e-32
-1.06424e-31
-1.26571e-31
-1.38684e-31
-1.36568e-31
-1.05297e-31
-5.25965e-32
9.43405e-34
3.37354e-32
1.49696e-32
-4.35051e-32
-1.25169e-31
-1.94418e-31
-2.07674e-31
-1.7229e-31
-8.64111e-32
4.52293e-33
5.78622e-32
6.6999e-32
9.1508e-33
-7.00194e-32
-1.43706e-31
-1.87538e-31
-1.70446e-31
-1.26522e-31
-6.36775e-32
-1.69542e-32
-8.29053e-33
-1.96584e-32
-5.02051e-32
-6.69817e-32
-6.44223e-32
-5.16241e-32
-3.76743e-32
-4.75398e-32
-7.79796e-32
-1.1946e-31
-1.50229e-31
-1.4876e-31
-1.14039e-31
-5.46204e-32
4.88554e-33
4.27443e-32
4.81471e-32
1.82416e-32
-3.4098e-32
-9.50243e-32
-1.50318e-31
-1.82155e-31
-1.84866e-31
-1.51127e-31
-8.69639e-32
-1.32008e-32
5.15982e-32
7.69048e-32
5.43573e-32
-8.83624e-33
-9.30196e-32
-1.57851e-31
-1.84343e-31
-1.60845e-31
-1.00603e-31
-3.7881e-32
5.41818e-33
6.1894e-33
-2.83969e-32
-7.54222e-32
-1.12538e-31
-1.13087e-31
-8.02165e-32
-2.94415e-32
1.22552e-32
1.50418e-32
-2.50266e-32
-9.61667e-32
-1.63035e-31
-1.90004e-31
-1.59125e-31
-7.89673e-32
1.03542e-32
6.84059e-32
6.04494e-32
-6.09978e-33
-9.61054e-32
-1.66923e-31
-1.73872e-31
-1.27535e-31
-5.01207e-32
1.25005e-32
1.88485e-32
-1.71833e-32
-8.61267e-32
-1.35804e-31
-1.38047e-31
-1.01892e-31
-3.10184e-32
1.8337e-32
3.16663e-32
2.47362e-33
-6.50242e-32
-1.21123e-31
-1.5772e-31
-1.50189e-31
-1.03293e-31
-4.81332e-32
7.59816e-33
3.04011e-32
2.16118e-32
-1.02142e-32
-5.90614e-32
-9.69967e-32
-1.21591e-31
-1.25774e-31
-1.08603e-31
-8.26299e-32
-4.77232e-32
-1.46262e-32
7.16882e-33
1.3638e-32
-5.69419e-33
-4.55515e-32
-9.20941e-32
-1.28869e-31
-1.32161e-31
-9.83217e-32
-4.03936e-32
1.66382e-32
3.74954e-32
8.82726e-33
-5.91682e-32
-1.34636e-31
-1.72076e-31
-1.46264e-31
-6.38506e-32
3.89e-32
1.05487e-31
9.5475e-32
8.84799e-33
-1.20339e-31
-2.25159e-31
-2.50199e-31
-1.83289e-31
-4.71695e-32
8.67015e-32
1.55012e-31
1.29825e-31
1.62007e-32
-1.20482e-31
-2.20643e-31
-2.42336e-31
-1.73059e-31
-6.10189e-32
4.79165e-32
1.05195e-31
8.65638e-32
1.66157e-32
-7.56087e-32
-1.4501e-31
-1.62898e-31
-1.32056e-31
-6.95216e-32
-9.6131e-33
1.86364e-32
5.80186e-33
-3.38813e-32
-7.62759e-32
-9.08691e-32
-6.69531e-32
-2.33579e-32
1.79104e-32
2.07399e-32
-2.23483e-32
-8.67887e-32
-1.44843e-31
-1.52957e-31
-1.03406e-31
-2.20444e-32
5.85324e-32
9.14787e-32
6.44374e-32
-1.47407e-34
-7.4684e-32
-1.1713e-31
-1.13139e-31
-8.0391e-32
-3.14872e-32
2.83651e-33
1.57197e-32
2.11545e-32
1.64058e-32
1.9655e-32
2.39207e-32
1.94835e-32
1.65302e-32
7.21871e-33
7.96252e-33
2.04796e-32
3.33992e-32
4.57551e-32
4.42371e-32
3.97714e-32
4.87527e-32
8.29767e-32
1.44165e-31
2.08628e-31
2.45205e-31
2.29509e-31
1.69139e-31
9.59525e-32
6.16285e-32
1.0114e-31
2.08037e-31
3.48817e-31
4.57318e-31
4.95292e-31
4.60252e-31
3.8447e-31
3.35446e-31
3.47665e-31
4.32952e-31
5.60692e-31
6.7527e-31
7.50642e-31
7.73026e-31
7.73408e-31
7.91076e-31
8.44045e-31
9.41293e-31
1.05098e-30
1.14797e-30
1.22017e-30
1.26719e-30
1.32301e-30
1.40536e-30
1.5256e-30
1.67773e-30
1.82695e-30
1.95941e-30
2.06078e-30
2.14283e-30
2.24085e-30
2.36949e-30
2.55124e-30
2.77024e-30
2.99464e-30
3.20478e-30
3.36854e-30
3.5039e-30
3.63589e-30
3.79517e-30
4.02421e-30
4.31104e-30
4.6428e-30
4.97606e-30
5.2583e-30
5.47492e-30
5.62886e-30
5.72352e-30
5.97768e-30
6.34082e-30
7.53065e-30
9.78398e-30
1.32301e-29
1.99378e-29
2.24528e-29
2.50728e-29
7.83496e-30
-3.50805e-29
-8.6616e-29
-1.92366e-28
-1.83158e-28
-1.22514e-28
1.65363e-28
8.09456e-28
1.17469e-27
1.81705e-27
1.05532e-27
-7.62663e-28
-3.03807e-27
-7.54456e-27
-7.21506e-27
-5.93282e-27
1.74645e-27
1.68744e-26
2.26659e-26
3.30466e-26
1.6646e-26
-1.36134e-26
-4.10098e-26
-9.04982e-26
-7.13251e-26
-4.21976e-26
3.15673e-26
1.54622e-25
1.62732e-25
1.91995e-25
5.4308e-26
-1.45603e-25
-2.41566e-25
-4.15714e-25
-2.36527e-25
-3.16468e-26
2.1915e-25
5.89192e-25
4.55153e-25
3.83031e-25
-3.70877e-26
-5.44006e-25
-5.80053e-25
-7.54256e-25
-2.54582e-25
2.23624e-25
5.06844e-25
9.15289e-25
5.06855e-25
2.2364e-25
-2.54568e-25
-7.54251e-25
-5.80059e-25
-5.44018e-25
-3.71017e-26
3.83022e-25
4.55151e-25
5.89196e-25
2.19158e-25
-3.1641e-26
-2.36525e-25
-4.15716e-25
-2.41571e-25
-1.45608e-25
5.43045e-26
1.91993e-25
1.62732e-25
1.54622e-25
3.15677e-26
-4.21978e-26
-7.13257e-26
-9.04988e-26
-4.10107e-26
-1.36141e-26
1.66452e-26
3.30458e-26
2.26651e-26
1.68736e-26
1.74584e-27
-5.93334e-27
-7.21548e-27
-7.54493e-27
-3.03846e-27
-7.6307e-28
1.05486e-27
1.81656e-27
1.17419e-27
8.08973e-28
1.64953e-28
-1.22843e-28
-1.83386e-28
-1.92527e-28
-8.67763e-29
-3.52855e-29
7.52387e-30
2.46786e-29
2.20255e-29
1.95508e-29
1.297e-29
9.65922e-30
7.52466e-30
6.38095e-30
5.97556e-30
5.63505e-30
5.42784e-30
5.1958e-30
4.96127e-30
4.71535e-30
4.47742e-30
4.25649e-30
4.06645e-30
3.8995e-30
3.73207e-30
3.543e-30
3.31784e-30
3.06553e-30
2.82149e-30
2.61259e-30
2.46541e-30
2.373e-30
2.30586e-30
2.23807e-30
2.13365e-30
1.99465e-30
1.82864e-30
1.65599e-30
1.50818e-30
1.39112e-30
1.31844e-30
1.27872e-30
1.25209e-30
1.22144e-30
1.1597e-30
1.06212e-30
9.38623e-31
8.11716e-31
7.15661e-31
6.729e-31
6.77169e-31
7.0984e-31
7.27707e-31
6.95757e-31
6.15004e-31
4.92156e-31
3.78426e-31
3.10027e-31
2.97458e-31
3.45395e-31
4.01939e-31
4.36302e-31
4.21124e-31
3.43384e-31
2.42612e-31
1.44396e-31
9.03476e-32
1.02159e-31
1.6168e-31
2.44819e-31
3.02258e-31
2.97165e-31
2.24226e-31
1.03592e-31
-1.44704e-32
-7.49036e-32
-5.29871e-32
4.31781e-32
1.66576e-31
2.52083e-31
2.60488e-31
1.82415e-31
5.64053e-32
-5.98573e-32
-1.18433e-31
-9.8418e-32
-2.25665e-32
7.16642e-32
1.3619e-31
1.51217e-31
1.17516e-31
5.34002e-32
-4.9367e-33
-4.6026e-32
-5.03962e-32
-2.82683e-32
5.53028e-33
4.26435e-32
5.39546e-32
4.99531e-32
2.40621e-32
-7.03848e-33
-1.75756e-32
-1.7219e-32
1.17324e-32
3.73904e-32
4.36622e-32
3.19697e-32
-1.34364e-32
-4.90706e-32
-6.58623e-32
-5.19038e-32
-3.0544e-34
4.49556e-32
7.67127e-32
7.28205e-32
3.44495e-32
-4.80429e-33
-4.03076e-32
-5.10125e-32
-4.49644e-32
-4.22554e-32
-3.84915e-32
-4.04099e-32
-2.72113e-32
1.44625e-32
6.79281e-32
1.18631e-31
1.2213e-31
5.98438e-32
-4.71025e-32
-1.66567e-31
-2.24658e-31
-1.8804e-31
-6.53778e-32
1.05314e-31
2.27577e-31
2.51054e-31
1.5589e-31
-2.71332e-32
-1.96756e-31
-2.90077e-31
-2.5258e-31
-9.90229e-32
8.45863e-32
2.3078e-31
2.56645e-31
1.58885e-31
-5.98881e-33
-1.74228e-31
-2.50142e-31
-2.16381e-31
-9.53309e-32
6.00999e-32
1.60848e-31
1.83514e-31
1.20778e-31
9.87942e-33
-8.45212e-32
-1.42568e-31
-1.38855e-31
-9.44706e-32
-3.89203e-32
1.85694e-32
5.10296e-32
6.85405e-32
6.76874e-32
4.70407e-32
1.93413e-32
-2.18826e-32
-5.77034e-32
-8.35605e-32
-9.26767e-32
-7.89439e-32
-5.26531e-32
-1.32806e-32
2.41343e-32
5.65685e-32
7.19282e-32
6.40131e-32
3.64211e-32
-1.39267e-32
-5.99145e-32
-9.69104e-32
-1.06611e-31
-8.27495e-32
-4.71341e-32
4.18739e-33
3.9597e-32
5.7161e-32
5.93728e-32
3.36639e-32
6.08774e-33
-3.15612e-32
-6.49939e-32
-7.95213e-32
-8.27759e-32
-5.6987e-32
-2.00295e-32
1.90938e-32
5.06053e-32
5.37733e-32
3.79165e-32
2.64214e-33
-3.61654e-32
-6.27906e-32
-7.39708e-32
-6.21379e-32
-3.61563e-32
-3.74052e-33
2.40079e-32
3.72998e-32
3.14923e-32
1.12396e-32
-1.35763e-32
-3.26189e-32
-3.28221e-32
-2.42417e-32
-1.04428e-32
-6.01251e-33
-1.89809e-32
-3.00129e-32
-3.6859e-32
-1.66864e-32
2.27376e-32
5.61228e-32
7.02979e-32
3.57441e-32
-2.56045e-32
-8.78074e-32
-1.17885e-31
-8.5673e-32
-1.4774e-32
7.00527e-32
1.18515e-31
1.04348e-31
4.01511e-32
-4.92918e-32
-1.07874e-31
-1.13221e-31
-6.28229e-32
1.74357e-32
7.71147e-32
9.50055e-32
5.76259e-32
-8.45002e-33
-6.32969e-32
-8.387e-32
-5.17834e-32
7.48812e-33
6.29523e-32
8.76021e-32
6.03704e-32
2.33425e-33
-6.18773e-32
-1.01324e-31
-9.02915e-32
-4.08819e-32
3.04899e-32
9.30495e-32
1.15461e-31
9.77041e-32
4.16475e-32
-3.0034e-32
-8.62094e-32
-1.17304e-31
-1.06256e-31
-6.03395e-32
2.25342e-33
7.14625e-32
1.16665e-31
1.28797e-31
1.01472e-31
3.43786e-32
-4.38119e-32
-1.14266e-31
-1.45334e-31
-1.1994e-31
-4.86207e-32
4.99929e-32
1.30819e-31
1.60821e-31
1.26562e-31
3.79267e-32
-6.20089e-32
-1.30581e-31
-1.36556e-31
-7.63984e-32
1.77389e-32
1.02162e-31
1.37972e-31
1.07414e-31
3.1513e-32
-5.31948e-32
-1.05937e-31
-9.71549e-32
-4.00059e-32
4.23426e-32
1.07565e-31
1.19633e-31
8.53774e-32
1.13412e-32
-5.71797e-32
-8.57295e-32
-7.31086e-32
-1.08273e-32
5.41561e-32
9.70338e-32
1.05583e-31
6.31784e-32
1.20371e-32
-3.6246e-32
-5.85934e-32
-3.89625e-32
-5.79509e-33
3.93552e-32
7.01753e-32
7.5835e-32
6.77957e-32
4.34907e-32
2.15892e-32
8.62456e-33
1.51366e-33
3.68033e-33
6.26299e-33
4.60418e-33
5.9354e-33
6.21639e-33
1.62042e-32
3.92258e-32
6.33533e-32
9.2732e-32
1.01527e-31
8.77982e-32
5.2927e-32
-4.87934e-33
-4.82641e-32
-7.37958e-32
-5.86448e-32
-4.84642e-33
5.96166e-32
1.23242e-31
1.47132e-31
1.32281e-31
8.08176e-32
1.7523e-32
-3.11326e-32
-5.12877e-32
-2.9633e-32
1.45197e-33
5.06234e-32
7.14204e-32
7.24676e-32
6.58638e-32
2.14606e-32
1.24757e-32
-1.95851e-32
-2.53764e-32
-5.04191e-33
)
;

boundaryField
{
    left
    {
        type            calculated;
        value           uniform 0;
    }
    right
    {
        type            calculated;
        value           uniform 0;
    }
    empty
    {
        type            empty;
        value           nonuniform List<scalar> 0();
    }
}


// ************************************************************************* //
