/*--------------------------------*- C++ -*----------------------------------*\
| =========                 |                                                 |
| \\      /  F ield         | OpenFOAM: The Open Source CFD Toolbox           |
|  \\    /   O peration     | Version:  2106                                  |
|   \\  /    A nd           | Website:  www.openfoam.com                      |
|    \\/     M anipulation  |                                                 |
\*---------------------------------------------------------------------------*/
FoamFile
{
    version     2.0;
    format      ascii;
    arch        "LSB;label=32;scalar=64";
    class       volScalarField;
    location    "0.195";
    object      p;
}
// * * * * * * * * * * * * * * * * * * * * * * * * * * * * * * * * * * * * * //

dimensions      [0 2 -2 0 0 0 0];

internalField   nonuniform List<scalar> 
11200
(
149.63290514
146.704303589
145.590453613
145.063123833
144.695796226
144.401020658
144.139380396
143.890846188
143.646332727
143.401270295
143.152961679
142.899652125
142.64010957
142.373398381
142.098751659
141.815495963
141.523005466
141.220674179
140.907903284
140.584104663
140.2486545
139.900903755
139.54019405
139.165857494
138.777208467
138.37354562
137.954152715
137.518299302
137.065241453
136.594222394
136.104473077
135.595212694
135.065648761
134.514977372
133.942383859
133.347043961
132.728123688
132.084779528
131.416158869
130.721400422
129.99963453
129.249983377
128.471561177
127.663474249
126.824820961
125.954691497
125.0521674
124.116320837
123.146213488
122.140894993
121.099400824
120.020749444
118.903938583
117.74794043
116.55169547
115.314104646
114.034019418
112.710229249
111.34144581
109.926283117
108.463232525
106.950631192
105.386621681
103.769103271
102.095665978
100.363504678
98.5693089794
96.7091188701
94.7781302554
92.7704284758
90.6786245442
88.4933591685
86.2024341677
83.789663916
81.2329644146
78.5006795856
75.5452166385
72.2940181782
68.5934444893
63.8303826309
147.839863052
146.481689197
145.690718607
145.190705739
144.799719605
144.475839851
144.191322172
143.926724033
143.671240883
143.418724256
143.165346771
142.908594774
142.646731162
142.378479417
142.102839066
141.818975265
141.526150606
141.223682262
140.910911786
140.587177287
140.251828579
139.904190134
139.543618201
139.169444597
138.780973279
138.377497173
137.958297207
137.522641104
137.069783648
136.598967084
136.109421366
135.600364138
135.071001038
134.520531814
133.948143742
133.353012571
132.734304047
132.09117461
131.422771668
130.728234009
130.006692124
129.257268415
128.479077413
127.67122587
126.832812719
125.962928885
125.060656863
124.125070027
123.155231584
122.150193081
121.108992369
120.03065087
118.91417
117.758526532
116.562666637
115.325498317
114.045881789
112.722617386
111.354430278
109.93995138
108.477693527
106.966021506
105.403111563
103.786900881
102.115021914
100.384733408
98.5928200301
96.735444481
94.8079674339
92.8047042457
90.718586114
88.5406566949
86.2593684963
83.8595858049
81.3209136456
78.6148441291
75.7005788333
72.5202796039
68.9711462468
64.8582456087
146.844672727
146.19047259
145.638117764
145.200501484
144.828879814
144.506780896
144.217684533
143.947454806
143.686996655
143.43052115
143.17414324
142.91518116
142.651722808
142.38234116
142.105915104
141.821515995
141.528334188
141.225631087
140.912708394
140.588889231
140.253511515
139.905935632
139.545417536
139.171303514
138.782901431
138.379501657
137.960382819
137.524811556
137.072042352
136.601317683
136.111868388
135.602914321
135.073664566
134.52331168
133.951037852
133.356021204
132.737428642
132.094417112
131.426134875
130.731721561
130.010308517
129.261019074
128.482968861
127.675265932
126.837010793
125.967296277
125.065207209
124.12981981
123.160200774
122.15540594
121.11447844
120.036446165
118.920318445
117.765081736
116.569694055
115.33307787
114.054111104
112.731615912
111.364344438
109.950960819
108.490018004
106.979929075
105.418930304
103.805052005
102.136057105
100.40935258
98.6218966029
96.7700905822
94.8496204252
92.8552476074
90.7805225159
88.6173822805
86.3557318994
83.9826551336
81.4814301613
78.8301949931
76.0009718786
72.9621368069
69.677699541
66.1246136695
146.29491152
145.931530467
145.531633328
145.162644269
144.825029468
144.516929449
144.23156908
143.960868664
143.698500784
143.439838408
143.181463447
142.920844296
142.656081068
142.385706445
142.108544315
141.823612135
141.530053573
141.227092431
140.914001575
140.590081071
140.254639972
139.906988083
139.546484159
139.172405008
138.784039862
138.380680968
137.961606707
137.526082489
137.073361675
136.602685729
136.113284315
135.604375498
135.075166611
134.524855926
133.952633246
133.35767302
132.739143111
132.096201224
131.427994637
130.733663453
130.012339811
129.263148054
128.48520525
127.677621324
126.839499113
125.969934348
125.068015425
124.132822948
123.163428961
122.158895775
121.118274356
120.040602169
118.924900256
117.770169404
116.575385236
115.339492014
114.061394725
112.739948859
111.373947483
109.962105
108.503039436
106.995254456
105.437088038
103.826681763
102.161933752
100.440445087
98.6594404894
96.8156680127
94.905274702
92.9236507378
90.8652391434
88.7233104065
86.4896326731
84.1541635224
81.7048129309
79.127480722
76.4074180735
73.5349121907
70.5135538871
67.3805107454
145.960863607
145.729068418
145.427656894
145.116681164
144.811843449
144.519822348
144.240849609
143.971726955
143.708770743
143.448690787
143.188726623
142.92664078
142.660640685
142.389277223
142.111353667
141.825853029
141.531882666
141.228633361
140.915349795
140.591309353
140.255807144
139.908146819
139.547632
139.173552045
138.785209765
138.381888787
137.962862265
137.527393194
137.074733592
136.604124365
136.114795259
135.60596502
135.076841472
134.526621238
133.954490368
133.359625135
132.741190961
132.098345775
131.430240161
130.736014664
130.014803904
129.265734547
128.487926093
127.680491289
126.842536213
125.973160451
125.071457014
124.136512075
123.167404374
122.163204599
121.122974215
120.045763308
118.930608301
117.776528768
116.582523218
115.347563472
114.070586944
112.750489746
111.386114538
109.976240865
108.519566981
107.014680011
105.460043653
103.853963176
102.194544949
100.479647166
98.7068223775
96.8732487129
94.9756467247
93.0101822675
90.9723586443
88.8569112127
86.657731411
84.3679001904
81.9799960647
79.4870086219
76.8847398361
74.1776301305
71.3870383059
68.563659616
145.757471184
145.581569437
145.340375606
145.073051256
144.795866205
144.51923033
144.24754357
143.981045377
143.718284173
143.457279841
143.195997431
142.932569847
142.665371583
142.393011771
142.114297491
141.828191027
141.533770326
141.230195986
140.916685268
140.592492366
140.256893869
139.909177872
139.548634941
139.1745553
138.786228336
138.382933257
137.963940566
137.528511216
137.075895724
136.60533374
136.116054021
135.607274473
135.078202354
134.528034414
133.955957343
133.361148427
132.74277615
132.100000256
131.431972037
130.737835839
130.01672717
129.26777343
128.490096178
127.682810765
126.845026645
125.975847957
125.074373361
124.139695953
123.17090308
122.167075578
121.127286806
120.050601668
118.936074644
117.782747307
116.589645129
115.355773643
114.080114551
112.761616229
111.39918678
109.991679188
108.537876103
107.036484497
105.486121115
103.885270036
102.232264161
100.525253687
98.7621678386
96.9406730733
95.0581296146
93.1115518237
91.0975837337
89.0125137847
86.8523758518
84.6132288401
82.2917879526
79.8867017295
77.4010385385
74.8469550752
72.2514040822
69.6614894977
145.63435449
145.478747205
145.272446417
145.035885932
144.780413016
144.517136482
144.252526885
143.989022547
143.726894207
143.465313998
143.202947851
142.938319223
142.669998307
142.396676527
142.11718169
141.830466205
141.535585134
141.23167264
140.917920698
140.593561387
140.257852864
139.910068676
139.549489953
139.175399114
138.787077255
138.383798617
137.964830854
137.529432735
137.076853258
136.606331215
136.117094967
135.608362397
135.079341006
134.529228288
133.957212136
133.362470746
132.744173036
132.101479564
131.433542531
130.739505502
130.018503873
129.269668877
128.49212655
127.68499637
126.847392677
125.978424886
125.077198042
124.142813028
123.174366602
122.170951136
121.131654059
120.05555764
118.941737556
117.789261217
116.597185463
115.364553243
114.09038893
112.773697204
111.413454233
110.008597164
108.558025849
107.06058061
105.51503233
103.920068484
102.274277321
100.576129682
98.8239613581
97.0159586562
95.1501520645
93.2244273799
91.2365706883
89.1843761228
87.0658649613
84.8797053787
82.6259672955
80.3074101381
77.9315859317
75.5140989326
73.0818337342
70.6741579515
145.560274925
145.41026519
145.223510711
145.007407179
144.767703692
144.514885772
144.256252734
143.995519342
143.734158136
143.472242689
143.209032102
142.943402911
142.674114568
142.399945804
142.119753081
141.83248654
141.537184675
141.232960147
140.918983398
140.594467239
140.258653676
139.910803334
139.550187233
139.17607977
138.787757184
138.384488736
137.96553932
137.530165661
137.077615401
136.607126526
136.117927003
135.609234636
135.080257112
134.530192165
133.958227858
133.363542872
132.745306966
132.102681167
131.434818638
130.740865841
130.01996441
129.271247666
128.493842329
127.686871424
126.84945396
125.980705222
125.07973736
124.145659843
123.177579819
122.174602478
121.13583123
120.060367062
118.947308382
117.795750317
116.604783623
115.37349327
114.10095628
112.786240796
111.428395853
110.02645544
108.579427594
107.086292477
105.545995696
103.957440479
102.319482494
100.630926402
98.8905268681
97.0969980791
95.2490388625
93.3453846089
91.3849035799
89.3667659099
87.2907270647
85.1576008088
82.9700027089
80.7334694981
78.4580426727
76.1603352423
73.8650388365
71.6041748026
145.517998676
145.368551421
145.192137111
144.988400988
144.758871222
144.513166563
144.258811078
144.000177944
143.739477116
143.477389543
143.213599287
142.947248445
142.677245454
142.402441633
142.12172022
141.834033005
141.538407941
141.233942479
140.919791263
140.595152707
140.259256625
139.911353759
139.550707418
139.176586978
138.788261234
138.384999444
137.966063403
137.530708096
137.078180191
136.607717114
136.118546557
135.609886321
135.080944299
134.530918617
133.958997904
133.364361663
132.746180756
132.103617984
131.435828908
130.741962091
130.021157932
129.272553378
128.495280172
127.68846575
126.851234167
125.982706911
125.082003713
124.148243289
123.180544059
122.178024772
121.139805098
120.065006153
118.952750886
117.802164255
116.612373217
115.382506507
114.111694262
112.79906629
111.443755346
110.044891958
108.601604751
107.113020109
105.578262199
103.996454275
102.366723277
100.688208912
98.960080818
97.1815676821
95.3520068468
93.4709257127
91.5381701673
89.5541073616
87.5199342872
85.4381440761
83.3131858475
81.1523594061
78.9669216471
76.7732940122
74.5935342085
72.453836565
145.498722353
145.348844938
145.176883307
144.978950014
144.754391682
144.512276431
144.260145904
144.00264235
143.742321301
143.480166852
143.216083696
142.949356053
142.678974293
142.403830904
142.1228252
141.834910968
141.539111142
141.234515328
140.92026982
140.595565336
140.259625125
139.911694596
139.551032818
139.176905867
138.788581199
138.385325354
137.966399191
137.531056981
137.078544962
136.608100439
136.118951086
135.610314899
135.081400144
134.531405495
133.959520325
133.3649251
132.746791855
132.104284716
131.436560382
130.742768833
130.02205484
129.273557749
128.496412577
127.689751071
126.852702624
125.984395226
125.083956481
124.150514654
123.183199748
122.181144613
121.143486066
120.069366016
118.957932611
117.808341408
116.619756604
115.391352345
114.122314285
112.81183935
111.45914084
110.063450272
108.624015134
107.140108764
105.611034811
104.036135489
102.414804966
100.746509103
99.030815564
97.2674374351
95.4563002828
93.5976412713
91.6921538356
89.7412069893
87.7471449188
85.713722364
83.646649572
81.5542765743
79.4483344506
77.3445882111
75.2627422325
73.2247377673
145.498725054
145.348861114
145.176910426
144.978986357
144.754436479
144.512328838
144.260205
144.002707307
143.742391423
143.480241565
143.216162543
142.949438679
142.679060434
142.403920379
142.122917896
141.835006841
141.53921019
141.234617605
140.920375429
140.595674431
140.259737926
139.911811402
139.551154023
139.177031986
138.788712931
138.385463438
137.966544555
137.53121077
137.078708571
136.608275413
136.119139433
135.610519067
135.081623098
134.531650836
133.959792419
133.365229229
132.747134403
132.104673432
131.437004852
130.743280989
130.022648718
129.274250377
128.49722472
127.690707976
126.85383495
125.985740201
125.085559303
124.1524302
123.185494647
122.183899745
121.146799601
120.073357114
118.9627459
117.814152418
116.626778331
115.399843142
114.132587267
112.824274498
111.474199708
110.081691315
108.646118285
107.166897646
105.643508195
104.075504233
102.462535664
100.804374331
99.1009526339
97.3524207314
95.5592256532
93.7222202827
91.8428528941
89.9233799017
87.9669374371
85.9781544077
83.9635484283
81.9320254323
79.8953786961
77.8686362637
75.8697146045
73.917722358
145.518006831
145.368600325
145.19221907
144.988510763
144.759006463
144.513324555
144.258989011
144.000373351
143.739687924
143.477614041
143.213836109
142.947496535
142.677504033
142.402710161
142.121998367
141.834320628
141.538705054
141.234249247
140.920107994
140.59547987
140.259594877
139.911703982
139.551070762
139.176965002
138.788655938
138.385413035
137.966498622
137.531168278
137.078669381
136.608240187
136.119109457
135.610496265
135.081610059
134.53165088
133.959809702
133.36526889
132.747202751
132.104778179
131.437155385
130.743488697
130.022927447
129.274616982
128.497699705
127.691316253
126.854606776
125.986712318
125.086776326
124.153946295
123.187375558
122.186225262
121.149666544
120.076882941
118.96707308
117.819453747
116.633263315
115.407765816
114.142255619
112.836062504
111.488557682
110.099165231
108.667371541
107.192730862
105.674886072
104.113588676
102.508723934
100.860349395
99.1687642716
97.4345319911
95.6585448445
93.8421804203
91.9873973156
90.0969252684
88.1747200239
86.2260367683
84.2578709182
82.2793805394
80.3022456483
78.3408805868
76.4120156926
74.533107723
145.560288716
145.41034794
145.223649158
145.007592222
144.767931212
144.515151075
144.256551045
143.995846521
143.73451072
143.472617838
143.209427557
142.943816932
142.674545874
142.400393514
142.120216661
141.832965763
141.537679582
141.233471024
140.919510768
140.595011888
140.259216721
139.911386249
139.550791839
139.176708724
138.78841339
138.385176
137.966262186
137.530929609
137.078427069
136.607993953
136.118859928
135.610244872
135.081358997
134.531403128
133.959569097
133.365040247
132.746992038
132.104592731
131.437004165
130.743382626
130.022879834
129.274644014
128.49782107
127.691555894
126.854993795
125.987282073
125.087571757
124.155019535
123.188789882
122.188057452
121.152009743
120.079850097
118.970801124
117.824108634
116.6390461
115.41491997
114.151075804
112.846905621
111.501856266
110.115439294
108.687246658
107.216965131
105.704395616
104.149479182
102.552328736
100.913254529
99.2328005996
97.5118484573
95.7517149123
93.9542104648
92.1217880704
90.2577109809
88.3662868514
86.4531194708
84.5254298916
82.5923931639
80.6654551049
78.7585699624
76.8878819322
75.0703215419
145.63437428
145.478865939
145.272644418
145.036149638
144.780736216
144.517512291
144.252948443
143.989483991
143.727390682
143.465841554
143.203503363
142.938900297
142.670603184
142.397304003
142.11783104
141.831137121
141.536277674
141.232387194
140.91865797
140.594322432
140.258639186
139.910882339
139.550333602
139.176276182
138.787991811
138.384755818
137.965836933
137.530495193
137.077981177
136.607535623
136.118389261
135.609762862
135.080867449
134.530904641
133.959067106
133.364539117
132.746497212
132.104110948
131.436543728
130.742953724
130.02249491
129.274318215
128.49757282
127.69140759
126.854972661
125.987421192
125.08791132
124.155608346
123.18968718
122.189335113
121.153754938
120.082168506
118.973820818
117.82798475
116.643966495
115.421111978
114.158814341
112.856522964
111.513754196
110.130103895
108.705261153
107.239030529
105.731350537
104.182320051
102.59223272
100.961631204
99.291347812
97.5825637657
95.8368899294
94.0564692147
92.2441001125
90.4033827585
88.5388979458
86.6564202268
84.7631797142
82.8681615363
80.9824479623
79.1196136897
77.2956786175
75.5280664479
145.757497627
145.581727846
145.340638349
145.073399394
144.796290952
144.519722296
144.248093668
143.981645987
143.718929068
143.457964004
143.196716921
142.933321662
142.66615353
142.393822354
142.115135812
141.829056693
141.534663369
141.231116793
140.917634538
140.593471109
140.257903372
139.910220041
139.549714245
139.175677617
138.787398313
138.384156718
137.965224994
137.529865726
137.077331396
136.606864157
136.11769584
135.609048118
135.080132822
134.530152355
133.958300198
133.363761488
132.745713697
132.103327496
131.435767651
130.74219403
130.021762708
129.273627156
128.496939606
127.690852589
126.85452064
125.98710224
125.087761968
124.155672928
123.190019489
122.190000388
121.154832254
120.083753662
118.976029829
117.830957998
116.647873796
115.426158676
114.165248686
112.864644624
111.523924166
110.142756565
108.720919853
107.258321219
105.755022227
104.211269223
102.62752841
101.004527943
99.3433110363
97.6452999527
95.9123690875
94.146931136
92.3520406918
90.5315152757
88.6900778097
86.8335184552
84.968897939
83.1048093932
81.2517672676
79.4228538698
77.6341054557
75.9042061217
145.960897376
145.729271353
145.427990852
145.117120729
144.81237657
144.520436709
144.241533746
143.972471491
143.709568148
143.449535069
143.189613123
142.927565989
142.661602087
142.39027316
142.112383235
141.82691597
141.532979242
141.229764191
140.91651566
140.59251125
140.257046571
139.909424893
139.548950757
139.17492489
138.786640696
138.38338363
137.964429297
137.529042753
137.076478272
136.605979327
136.116778752
135.60809904
135.079152769
134.529143075
133.957264212
133.362702202
132.744635521
132.102235939
131.434669419
130.741097154
130.020676777
129.272563793
128.495913026
127.68988019
126.853623724
125.986306843
125.087099841
124.155182699
123.189748083
122.190004778
121.155181593
120.084531799
118.977338361
117.83291995
116.650638055
115.429905094
114.170193433
112.871048151
111.53210017
110.153082065
108.733847001
107.274391394
105.774881452
104.235684817
102.657408035
101.040940643
99.3875057117
97.6987197233
95.9766612949
94.2239479468
92.4438209608
90.6402378083
88.8179718861
86.9827192075
85.1412298716
83.3014959924
81.4731362716
79.6683024868
77.9025098658
76.1956145449
146.29495262
145.93178159
145.532041007
145.163175643
144.825668529
144.517660471
144.232378119
143.961744639
143.699434952
143.440823912
143.182495024
142.921918047
142.657194284
142.386857497
142.109732597
141.824838059
141.531318586
141.228398944
140.915352489
140.591480178
140.256096318
139.908517314
139.548059104
139.174028991
138.785726775
138.382442203
137.963453981
137.528029447
137.07542442
136.60488342
136.115640086
135.606917567
135.077928939
134.527877758
133.955958714
133.36135845
132.743256358
132.100825219
131.433232156
130.739640002
130.019208417
129.271094477
128.494455142
127.688448755
126.8522369
125.984986601
125.085872802
124.15408117
123.188811345
122.189280422
121.15472703
120.084416417
118.977646036
117.833752009
116.652116801
115.432178273
114.173440966
112.875486929
111.537990839
110.16073746
108.743641843
107.286773123
105.790382462
104.254935885
102.681152527
101.070049066
99.4229902461
97.7417459531
96.0285536435
94.2861852555
92.5180161901
90.7280925756
88.9211898431
87.1028583203
85.2794605959
83.4582107928
81.6474064094
79.8574212615
78.1014628432
76.3981682026
146.84472595
146.190786047
145.638609177
145.201129993
144.829625722
144.507625196
144.218611059
143.948451015
143.688052746
143.431629448
143.175297804
142.916377465
142.65295749
142.383611826
142.107220216
141.822854903
141.529707484
141.22704147
140.914160928
140.590390392
140.255061743
139.907504708
139.547040335
139.172988402
138.784653457
138.381328495
137.962294761
137.526821437
137.074165831
136.603573447
136.11427865
135.605505213
135.076466789
134.52636749
133.954402509
133.359758633
132.741614371
132.099143764
131.431514865
130.737891044
130.017432517
129.269298534
128.492647971
127.686641297
126.85044267
125.983222213
125.084158576
124.152441837
123.187276784
122.18788691
121.153518961
120.083447758
118.976982196
117.833472155
116.652316565
115.432972673
114.174967172
112.877910466
111.541510839
110.16559277
108.750118238
107.29521167
105.801189068
104.268591747
102.698225136
101.091202938
99.448996684
97.7734900358
96.067036106
94.3325204562
92.573416315
90.7938332439
88.9985435738
87.1929753543
85.3831444058
83.5754358614
81.7765048538
79.9938999221
78.2347212299
76.5076217927
147.839963733
146.482148261
145.691402705
145.191562011
144.80072491
144.476973389
144.192566935
143.928066954
143.672671775
143.420235095
143.166931225
142.910247781
142.648448515
142.380257349
142.104673844
141.820862789
141.528085884
141.225658589
140.91292365
140.5892324
140.253925338
139.90635298
139.545863386
139.171773171
138.783390648
138.380012184
137.960920672
137.525384264
137.07266195
136.602000761
136.112635676
135.603790802
135.074680071
134.524507879
133.952469795
133.357753523
132.739540431
132.097003496
131.429310883
130.735626856
130.01511278
129.266928436
128.490233717
127.684190496
126.847964652
125.980728393
125.08166289
124.149961319
123.184832277
122.185503727
121.151227562
120.08128492
118.97499236
117.831709032
116.650845116
115.431871828
114.174332955
112.877857371
111.542176181
110.167141148
108.752746456
107.29915418
105.806723877
104.276046752
102.707984811
101.103715229
99.4647794925
97.7931351715
96.0912093854
94.3619759573
92.608982586
90.8363973259
89.0490248753
87.2522825569
85.4520670867
83.6542439931
81.8643414288
80.0871178772
78.31737586
76.5255158743
149.633072374
146.704975154
145.591448392
145.064379586
144.697282696
144.402713202
144.141260424
143.892900148
143.648550735
143.403645326
143.15548905
142.902329182
142.642935562
142.376374494
142.101881115
141.81878407
141.526459521
141.224302809
140.911711363
140.58807772
140.252796529
139.905227963
139.544703083
139.170556659
138.782106545
138.378653521
137.959483739
137.523872163
137.07107641
136.60034202
136.110904005
135.601986627
135.07280389
134.522560228
133.950451206
133.355664243
132.737379547
132.094771118
131.427007755
130.733254071
130.012671809
129.264421371
128.487663375
127.681560497
126.84527956
125.977993884
125.078885973
124.147150579
123.181998185
122.182659055
121.148387886
120.078469173
118.972223467
117.829014681
116.648258635
115.429433066
114.172089415
112.875866716
111.540507727
110.165877892
108.751987566
107.299017955
105.807351176
104.277604893
102.710671842
101.107764331
99.4704638521
97.800778151
96.1012030463
94.374744515
92.6250077203
90.856229691
89.0732996816
87.281736917
85.4875896229
83.6973607225
81.917479263
80.152753349
78.3827871482
76.482985434
56.4347839894
52.8829292835
50.4917522273
48.534918658
46.8638144072
45.4082156662
44.1240534889
42.9815043729
41.9587641587
41.0389576192
40.2085673093
39.4565048787
38.7735198429
38.1517996477
37.5846829711
37.0664442719
36.592127053
36.1574117594
35.7585103536
35.3920815707
35.0551627502
34.7451148586
34.459577712
34.1964337141
33.9537774324
33.7298903962
33.5232190996
33.3323563655
33.1560251354
32.9930642691
32.8424155355
32.7031127098
32.5742722115
32.4550836642
32.3448011133
32.2427371473
32.1482568904
32.0607709664
31.9797470178
31.9047812138
31.8356013975
31.7716351095
31.7124534786
31.6577544839
31.6069833207
31.5601360607
31.5166766999
31.4764576421
31.439222809
31.40473842
31.3727867355
31.3431701142
31.3157043242
31.29021775
31.2665520279
31.2445627859
31.2241146891
31.205081973
31.1873480006
31.1708040563
31.1553511332
31.140897898
31.1273592315
31.1146563053
31.1027162423
31.0914719981
31.0808616857
31.0708292753
31.0613239638
31.0523025032
31.0437206723
31.0355337391
31.0277057852
31.0202040469
31.0129941629
31.006046888
30.9993402464
30.9928672126
30.986590768
30.9804862023
30.9745344143
30.9687181994
30.9630220275
30.9574317728
30.9519348197
30.9465196708
30.9411758038
30.9358937422
30.9306648964
30.9254814088
30.9203360875
30.9152222549
30.9101336186
30.9050642917
30.9000088352
30.8949622618
30.8899200016
30.8848778895
30.8798320594
30.8747787739
30.8697142812
30.8646348124
30.8595366719
30.8544163995
30.8492709215
30.8440975506
30.8388937853
30.8336569634
30.8283839204
30.8230708304
30.8177133407
30.8123068973
30.806847115
30.8013300163
30.7957520255
30.790109806
30.7844000416
30.7786191511
30.7727629623
30.7668264932
30.7608039866
30.7546891886
30.748475975
30.7421588118
30.7357330604
30.7291947193
30.7225400086
30.7157644381
30.708862038
30.7018252536
30.6946457713
30.687315011
30.6798239774
30.6721613507
30.6643092778
30.6562404632
30.6479178784
30.63929494
30.6303225179
30.6209277483
30.6109684102
30.6007806869
30.589719912
30.5777443672
30.563897911
30.5452129269
30.5144901398
30.4523083457
30.3205265898
30.050591833
29.5385566057
28.6516313378
27.2544426111
25.2487826036
22.6029900132
19.3700373965
15.6701135713
11.4789646992
6.5226634246
1.54462900278
59.6163561518
55.5635070014
52.8518517798
50.7001675927
48.8992307914
47.3505819737
45.9959160204
44.7978777259
43.7301615365
42.7730077061
41.9109703864
41.1316273921
40.4247812532
39.7819328771
39.1959145406
38.6606205307
38.1708053495
37.7219253745
37.310017305
36.9315996796
36.5835968537
36.2632767547
35.9682020745
35.6961899728
35.4452796145
35.2137045925
34.9998698601
34.802331568
34.6197804622
34.4510266039
34.2949864239
34.1506715379
34.0171797849
33.8936860442
33.7794343531
33.6737315052
33.5759451711
33.4854918636
33.4018292821
33.3244261709
33.2527003479
33.1863517597
33.1249454379
33.0681638769
33.0155100215
32.9668956819
32.9218351849
32.8801334557
32.8415201971
32.805758242
32.7726299773
32.7419310295
32.7134722437
32.6870801351
32.6625934941
32.6398560771
32.6187251445
32.5990698723
32.5807706272
32.5637193274
32.5478064886
32.5329350894
32.519017531
32.5059716967
32.4937222698
32.482199912
32.471340972
32.4610851254
32.4513760087
32.4421587658
32.4333882836
32.425026386
32.417034545
32.4093764842
32.4020212472
32.3949388077
32.3880999566
32.3814782352
32.3750530542
32.3688056969
32.3627180714
32.3567728503
32.350954239
32.3452478001
32.3396404716
32.3341203413
32.3286765897
32.3232994079
32.3179799222
32.3127099945
32.3074821837
32.3022895468
32.2971255793
32.2919841792
32.2868596728
32.28174682
32.2766408454
32.2715373463
32.2664322274
32.2613214913
32.2562011426
32.2510671692
32.2459156125
32.2407427625
32.2355453355
32.2303204547
32.2250654343
32.2197774003
32.2144530051
32.2090882026
32.2036784528
32.1982190185
32.1927052509
32.1871330658
32.1814986659
32.175798471
32.1700289914
32.1641864303
32.1582665021
32.1522643804
32.1461740282
32.1399898422
32.1337053906
32.1273159379
32.1208167379
32.1142048259
32.1074764635
32.1006283161
32.0936545185
32.0865489108
32.0793033267
32.0719106537
32.0643629063
32.0566487596
32.0487505261
32.0406406089
32.0322794176
32.02361669
32.0145994656
32.0051388096
31.9951365607
31.9845697272
31.9729992992
31.9599956912
31.944104406
31.9213752703
31.8827270044
31.8056269522
31.6471291322
31.3326836027
30.7526423734
29.7714395051
28.2567277533
26.119813704
23.3408892608
19.9777480072
16.1485100458
11.843300618
6.80215422281
1.67479191798
61.8240055315
57.8904837138
55.0237119975
52.7405281396
50.8396400344
49.2145107146
47.8000092623
46.5539974365
45.4469230078
44.4568017858
43.5666359836
42.7629006337
42.0346023758
41.3726593282
40.7694716132
40.2186086776
39.714577745
39.2526443991
38.8286959375
38.4391323129
38.0807822006
37.75083527
37.4467891918
37.1664065227
36.9076797455
36.668802293
36.4481438701
36.2442297406
36.0557230352
35.8814087596
35.7201806851
35.571029576
35.4330331793
35.3053462139
35.1871929591
35.0778589732
34.9766863398
34.8830653869
34.7964364323
34.7162898591
34.6421212123
34.5733875698
34.5097596645
34.4509106944
34.3964192899
34.346056305
34.2994251662
34.2562764613
34.2163401361
34.1793622187
34.1451186626
34.1133979445
34.084003762
34.0567480609
34.0314592678
34.0079842807
33.9861782696
33.9659057592
33.9470403661
33.929461085
33.9130657203
33.8977550112
33.8834358291
33.8700227095
33.8574378733
33.8456069255
33.8344593724
33.8239387487
33.8139902126
33.804562605
33.7956079134
33.7870811142
33.7789417125
33.7711523201
33.763679216
33.7564914149
33.7495608658
33.7428625029
33.7363716771
33.7300662892
33.72392652
33.717934187
33.7120727856
33.7063272845
33.7006840429
33.6951306438
33.6896558367
33.6842493962
33.6789020704
33.6736053876
33.6683516029
33.663133511
33.6579443936
33.6527779678
33.6476283932
33.6424902641
33.6373586515
33.6322289896
33.6270970096
33.6219585593
33.6168095203
33.6116457964
33.6064633865
33.6012585551
33.5960279591
33.5907685976
33.5854776189
33.5801519815
33.5747882464
33.5693823877
33.5639299727
33.5584264139
33.5528670943
33.5472477902
33.5415645041
33.5358133919
33.5299906784
33.5240923818
33.5181140023
33.5120507866
33.5058970074
33.4996475181
33.4932964753
33.4868394286
33.4802718633
33.4735910146
33.4667935052
33.4598762672
33.452833909
33.4456612858
33.4383522674
33.4309009563
33.423299409
33.4155360519
33.4075927719
33.3994417955
33.391041986
33.3823381761
33.3732796071
33.3637640683
33.3536158037
33.3427057906
33.3305605215
33.3164098309
33.2982471768
33.2710658221
33.2239447245
33.1310974064
32.9450217579
32.5856185327
31.9382756531
30.8655942831
29.2387116372
26.9778648844
24.0734127146
20.5861321582
16.6307376882
12.2109648506
7.08173107978
1.80289185279
63.62835498
59.9037166993
57.0001853707
54.6458267648
52.6768750794
50.9939208454
49.5316981951
48.2462023583
47.1060582643
46.0878213793
45.17338312
44.3483882792
43.6012259133
42.9223536164
42.3038264924
41.7389533396
41.2220426516