/*--------------------------------*- C++ -*----------------------------------*\
| =========                 |                                                 |
| \\      /  F ield         | OpenFOAM: The Open Source CFD Toolbox           |
|  \\    /   O peration     | Version:  2106                                  |
|   \\  /    A nd           | Website:  www.openfoam.com                      |
|    \\/     M anipulation  |                                                 |
\*---------------------------------------------------------------------------*/
FoamFile
{
    version     2.0;
    format      ascii;
    arch        "LSB;label=32;scalar=64";
    class       surfaceScalarField;
    location    "0.195";
    object      phi;
}
// * * * * * * * * * * * * * * * * * * * * * * * * * * * * * * * * * * * * * //

dimensions      [0 3 -1 0 0 0 0];

oriented        oriented;

internalField   nonuniform List<scalar> 
22100
(
3.38461202867e-05
1.61538797364e-05
2.24572095788e-05
1.13889104827e-05
1.62585525213e-05
6.19865689934e-06
1.27977753645e-05
3.4607769985e-06
1.08046413167e-05
1.99313388929e-06
9.60458812966e-06
1.2000530323e-06
8.85132022179e-06
7.53267759546e-07
8.36435127244e-06
4.86968808978e-07
8.04433326967e-06
3.20017872159e-07
7.83283836353e-06
2.11494785872e-07
7.69339509485e-06
1.39443158356e-07
7.6022381034e-06
9.11568894422e-08
7.54347521106e-06
5.87627961613e-08
7.50633817351e-06
3.71369444789e-08
7.48349852419e-06
2.28395570232e-08
7.46997754006e-06
1.35208909895e-08
7.46241273498e-06
7.5647105167e-09
7.45854449957e-06
3.86813948429e-09
7.45682526961e-06
1.71913317867e-09
7.45641841795e-06
4.06755278427e-10
7.4567680129e-06
-3.49689922656e-10
7.4574539721e-06
-6.86051084985e-10
7.45821210887e-06
-7.58223092764e-10
7.45893722698e-06
-7.25196255109e-10
7.45958137857e-06
-6.44218706735e-10
7.46012518819e-06
-5.43863422289e-10
7.46056721529e-06
-4.4206676246e-10
7.46091591507e-06
-3.4872636192e-10
7.46118419149e-06
-2.68292420256e-10
7.46138612529e-06
-2.01942234523e-10
7.46153508125e-06
-1.48960971614e-10
7.4616427655e-06
-1.07690125165e-10
7.46171889904e-06
-7.61430338959e-11
7.46177161094e-06
-5.27273130675e-11
7.46180485431e-06
-3.32666465815e-11
7.46182361564e-06
-1.87927143193e-11
7.46183265809e-06
-9.08111544897e-12
7.46183542383e-06
-2.81009064074e-12
7.46183386202e-06
1.5141271456e-12
7.46182911354e-06
4.70062085252e-12
7.46182211686e-06
6.95179733007e-12
7.46181348111e-06
8.59721458737e-12
7.46180357649e-06
9.87370906488e-12
7.46179257569e-06
1.09781648262e-11
7.46178047914e-06
1.20806561318e-11
7.46176715719e-06
1.33096339378e-11
7.46175237485e-06
1.47697710373e-11
7.46173579855e-06
1.65598503399e-11
7.46171698675e-06
1.87906237101e-11
7.46169540215e-06
2.1557183636e-11
7.46167043443e-06
2.49337291264e-11
7.4616413792e-06
2.90145995179e-11
7.46160743706e-06
3.38966541924e-11
7.46156773241e-06
3.96566407411e-11
7.46152136369e-06
4.63201057655e-11
7.46146748153e-06
5.38337368173e-11
7.46140535296e-06
6.20818636202e-11
7.46133475571e-06
7.05546669351e-11
7.46125635499e-06
7.83613217985e-11
7.46117249332e-06
8.38260648237e-11
7.46108914498e-06
8.33172991652e-11
7.46101876844e-06
7.03518412212e-11
7.46096944569e-06
4.92978421706e-11
7.46095985443e-06
9.57209287815e-12
7.46102584241e-06
-6.60133021735e-11
7.46122567257e-06
-1.9985904073e-10
7.46165396907e-06
-4.28330519231e-10
7.46246110506e-06
-8.0717205543e-10
7.46388296386e-06
-1.42190288769e-09
7.46627612799e-06
-2.39321499293e-09
7.47009161411e-06
-3.81553760733e-09
7.47654426662e-06
-6.45270329215e-09
7.48733070011e-06
-1.07864864339e-08
7.50554118168e-06
-1.82105343988e-08
7.53879907777e-06
-3.32579462104e-08
7.60816690781e-06
-6.93678826551e-08
7.77519467006e-06
-1.67027817153e-07
8.23111814169e-06
-4.55923470174e-07
9.70223291851e-06
-1.47111464766e-06
-5.46703136305e-06
1.51692641704e-05
5.0217594796e-05
1.59362847519e-05
4.42441113506e-05
1.73623935745e-05
3.77795010772e-05
1.26632668874e-05
3.26461434427e-05
8.59413435226e-06
2.89380911716e-05
5.7011858865e-06
2.63596206242e-05
3.77852331841e-06
2.45875160789e-05
2.52537205966e-06
2.33734739036e-05
1.70101075698e-06
2.2543524757e-05
1.1499668092e-06
2.19782159928e-05
7.76803355772e-07
2.15955134007e-05
5.22145567972e-07
2.13387367807e-05
3.47933334234e-07
2.11684952051e-05
2.29004199821e-07
2.10573375392e-05
1.48294438476e-07
2.09861495629e-05
9.40273588505e-08
2.09416771155e-05
5.79931607705e-08
2.09147952246e-05
3.44464209459e-08
2.089929604e-05
1.93671429389e-08
2.08910721946e-05
9.94280042143e-09
2.08872718058e-05
4.20697249763e-09
2.08862026587e-05
7.19297264792e-10
2.08864482485e-05
-9.31785034642e-10
2.0887319545e-05
-1.62964455589e-09
2.0888458913e-05
-1.86466729386e-09
2.0889632128e-05
-1.81751365191e-09
2.0890715029e-05
-1.62682178992e-09
2.08916525608e-05
-1.37963614611e-09
2.08924300509e-05
-1.12623885918e-09
2.08930552627e-05
-8.93517695903e-10
2.08935474104e-05
-6.94101417481e-10
2.08939312562e-05
-5.32822839319e-10
2.08942328086e-05
-4.09267735959e-10
2.08944437944e-05
-2.87166830611e-10
2.08945908669e-05
-1.99851794707e-10
2.08946912481e-05
-1.33713332893e-10
2.08947566332e-05
-8.42538437938e-11
2.08947971846e-05
-4.97147508996e-11
2.08948210789e-05
-2.67869096919e-11
2.0894833134e-05
-1.06189840154e-11
2.08948362824e-05
1.48252303476e-12
2.08948329378e-05
1.02374372399e-11
2.08948247593e-05
1.67282365501e-11
2.08948128789e-05
2.17166478916e-11
2.08947980005e-05
2.58256365949e-11
2.08947804817e-05
2.95706898621e-11
2.08947604469e-05
3.33130553361e-11
2.08947378647e-05
3.7313749238e-11
2.08947125951e-05
4.17813888408e-11
2.0894684403e-05
4.69234161791e-11
2.08946530127e-05
5.28767670499e-11
2.08946181881e-05
5.96788050131e-11
2.08945797617e-05
6.73569877604e-11
2.08945377144e-05
7.58590251597e-11
2.0894492308e-05
8.49798489305e-11
2.08944443212e-05
9.42256000777e-11
2.08943954585e-05
1.02616241727e-10
2.08943488476e-05
1.08615271059e-10
2.08943102242e-05
1.09110106449e-10
2.08942889824e-05
9.95440213995e-11
2.08943000986e-05
7.26559832537e-11
2.08943696485e-05
1.371591322e-11
2.08945471741e-05
-1.07215291828e-10
2.08949006599e-05
-3.04230683954e-10
2.08955478503e-05
-6.3766022774e-10
2.0896601298e-05
-1.11950695646e-09
2.08982331681e-05
-1.83178698767e-09
2.09008023767e-05
-2.99760233027e-09
2.09048582107e-05
-4.8630730597e-09
2.09112722253e-05
-7.83598907812e-09
2.09214724015e-05
-1.25934660022e-08
2.09379567729e-05
-2.02999843528e-08
2.09648834751e-05
-3.33794788323e-08
2.10092150794e-05
-5.51181654193e-08
2.10841679454e-05
-9.31634797651e-08
2.12157528121e-05
-1.64842897624e-07
2.14570541947e-05
-3.10669358206e-07
2.19163252961e-05
-6.26299064895e-07
2.28064023136e-05
-1.34600089757e-06
2.4456956165e-05
-3.12166906598e-06
-7.06443421345e-06
2.6054361968e-05
5.35171052454e-05
1.24191793587e-05
5.29349680007e-05
1.79445305151e-05
4.9653839624e-05
1.5944395021e-05
4.58401807651e-05
1.24077929708e-05
4.24400915654e-05
9.10127485103e-06
3.97291714164e-05
6.48944324242e-06
3.76873047647e-05
4.56723849929e-06
3.61976617785e-05
3.19065354547e-06
3.51326110002e-05
2.21501740402e-06
3.43823658165e-05
1.52704836876e-06
3.38606247111e-05
1.04388651267e-06
3.35023443517e-05
7.06213539832e-07
3.32595993327e-05
4.71749068979e-07
3.30975889079e-05
3.10304714723e-07
3.29913327076e-05
2.00283410206e-07
3.29230906941e-05
1.26235023864e-07
3.28804025932e-05
7.71343700772e-08
3.28546172897e-05
4.51522944901e-08
3.28397900164e-05
2.47699237276e-08
3.28318633179e-05
1.21335259924e-08
3.28279936676e-05
4.58881054968e-09
3.28269948264e-05
6.69300499945e-11
3.28271754222e-05
-1.8103523561e-09
3.28280236631e-05
-2.71300327886e-09
3.28291392752e-05
-2.93320225686e-09
3.28302863778e-05
-2.77398196537e-09
3.28313422234e-05
-2.43552234856e-09
3.28322525058e-05
-2.03654824619e-09
3.28330023733e-05
-1.64340368901e-09
3.28335979062e-05
-1.28964991607e-09
3.28340540525e-05
-9.8898607937e-10
3.28343888982e-05
-7.44136311585e-10
3.2834655122e-05
-5.53422069629e-10
3.28348712949e-05
-4.16066409193e-10
3.28350183649e-05
-2.80835127886e-10
3.28351174306e-05
-1.83380471843e-10
3.28351831329e-05
-1.15484579056e-10
3.28352248906e-05
-6.86152111833e-11
3.28352495843e-05
-3.53808339176e-11
3.28352611708e-05
-1.01664900407e-11
3.28352632029e-05
8.15065896683e-12
3.28352581668e-05
2.17189694113e-11
3.28352478746e-05
3.19720126465e-11
3.28352335409e-05
4.01289964847e-11
3.28352159064e-05
4.71777735871e-11
3.28351954244e-05
5.37675247625e-11
3.28351723773e-05
6.03288226451e-11
3.28351469368e-05
6.71824703291e-11
3.28351191273e-05
7.46845676236e-11
3.28350889838e-05
8.29632061912e-11
3.28350567973e-05
9.18010749752e-11
3.28350231178e-05
1.009675347e-10
3.28349889037e-05
1.10000633458e-10
3.28349558209e-05
1.17987774586e-10
3.28349267326e-05
1.23239165654e-10
3.28349063012e-05
1.22976008618e-10
3.28349013067e-05
1.13539819765e-10
3.28349227918e-05
8.75600926516e-11
3.28349879386e-05
3.43386862873e-11
3.28351259159e-05
-6.53727636732e-11
3.28353878224e-05
-2.48236987342e-10
3.28358612423e-05
-5.80676890786e-10
3.28365677031e-05
-1.01073031966e-09
3.28375951737e-05
-1.66517715415e-09
3.28391986299e-05
-2.72301027355e-09
3.28417590921e-05
-4.39230555618e-09
3.28457807846e-05
-7.01935654769e-09
3.28520795653e-05
-1.11619202448e-08
3.28619716224e-05
-1.77281164341e-08
3.2877627485e-05
-2.82494021045e-08
3.29027187017e-05
-4.53912782375e-08
3.2942615587e-05
-7.32764426751e-08
3.3007183341e-05
-1.19685994886e-07
3.31134689589e-05
-1.9944917538e-07
3.32906048411e-05
-3.41978863914e-07
3.35870155869e-05
-6.07080155276e-07
3.40741773208e-05
-1.11346075664e-06
3.48188690613e-05
-2.09069283342e-06
3.56855564653e-05
-3.98835885602e-06
-7.13960690103e-06
3.57607217001e-05
5.35105663607e-05
8.90861285672e-06
5.55742218879e-05
1.58808746877e-05
5.52424819823e-05
1.62761346848e-05
5.35977852489e-05
1.40524894648e-05
5.15418468101e-05
1.11572130554e-05
4.95802788714e-05
8.4510109565e-06
4.79243496907e-05
6.22316746778e-06
4.66181376725e-05
4.49686536542e-06
4.5630464742e-05
3.20269014987e-06
4.49051156793e-05
2.25239725936e-06
4.43840883865e-05
1.56491364332e-06
4.40166921385e-05
1.0736096328e-06
4.3761965548e-05
7.26475508946e-07
4.35882668416e-05
4.84003272569e-07
4.34718673775e-05
3.16682725898e-07
4.33953571965e-05
2.0274505555e-07
4.33461868043e-05
1.26304612139e-07
4.33154490757e-05
7.58898731771e-08
4.32969125933e-05
4.3306258051e-08
4.32862864088e-05
2.27595670016e-08
4.32806834579e-05
1.01916251665e-08
4.32778756899e-05
2.87457203424e-09
4.32770477862e-05
-9.82561268422e-10
4.32772656063e-05
-2.93091973322e-09
4.32779530946e-05
-3.62076859011e-09
4.32788161235e-05
-3.63707034001e-09
4.32796889225e-05
-3.30836377009e-09
4.32804863733e-05
-2.83402790464e-09
4.32811721209e-05
-2.32917149416e-09
4.32817379448e-05
-1.85549071875e-09
4.32821906793e-05
-1.44173899447e-09
4.32825430142e-05
-1.09649441511e-09
4.32828047097e-05
-8.15148058769e-10
4.32829800576e-05
-5.91454167987e-10
4.32831130385e-05
-4.13865535841e-10
4.3283198449e-05
-2.68848479753e-10
4.32832523902e-05
-1.69488858703e-10
4.32832921812e-05
-1.08471904147e-10
4.32833165823e-05
-5.98458234327e-11
4.32833285857e-05
-2.2228393413e-11
4.32833316038e-05
5.08059123338e-12
4.32833275851e-05
2.56946702409e-11
4.32833182224e-05
4.13016339025e-11
4.32833046666e-05
5.36568877922e-11
4.32832875487e-05
6.4269999136e-11
4.32832672832e-05
7.40067287135e-11
4.328324418e-05
8.34011131971e-11
4.32832185042e-05
9.28199331662e-11
4.32831906271e-05
1.02514019479e-10
4.3283161069e-05
1.12465981335e-10
4.32831304298e-05
1.22380232036e-10
4.32830996475e-05
1.3168609339e-10
4.32830701561e-05
1.39423553202e-10
4.32830440395e-05
1.44031051139e-10
4.32830242183e-05
1.42986444377e-10
4.32830149114e-05
1.32213280091e-10
4.32830235108e-05
1.04867667566e-10
4.32830618179e-05
4.91843510915e-11
4.32831487693e-05
-5.26715677308e-11
4.32833041659e-05
-2.20820860821e-10
4.32835276031e-05
-4.71720565182e-10
4.3283957385e-05
-1.01049964127e-09
4.32847077255e-05
-1.76111413166e-09
4.32859396868e-05
-2.89718600744e-09
4.32878590841e-05
-4.64246123146e-09
4.32908148511e-05
-7.34813048085e-09
4.3295366964e-05
-1.15715288317e-08
4.33023954696e-05
-1.81904901317e-08
4.33132856161e-05
-2.86183293259e-08
4.33302015024e-05
-4.51653541712e-08
4.33564638715e-05
-7.16537153621e-08
4.33976631012e-05
-1.14475743616e-07
4.3462686057e-05
-1.84709020927e-07
4.35653191187e-05
-3.02082313668e-07
4.37256225804e-05
-5.02282423221e-07
4.39683633283e-05
-8.49821005731e-07
4.43104518989e-05
-1.45554920776e-06
4.47134419658e-05
-2.49368198945e-06
4.49363485385e-05
-4.21126423582e-06
-6.61350645722e-06
4.44102442619e-05
5.27351378888e-05
6.17347482516e-06
5.57309340608e-05
1.28850782139e-05
5.73114736788e-05
1.46955948224e-05
5.76109909741e-05
1.37529719271e-05
5.71335216285e-05
1.16346821636e-05
5.63194669741e-05
9.26506538282e-06
5.54489867163e-05
7.09364750973e-06
5.46629761044e-05
5.28287577494e-06
5.40136805183e-05
3.85198554698e-06
5.35061491854e-05
2.75992841559e-06
5.31242532907e-05
1.94680937153e-06
5.28449837938e-05
1.35287897097e-06
5.26454376158e-05
9.26021533401e-07
5.25057134542e-05
6.23727283399e-07
5.24097187774e-05
4.12677252738e-07
5.23450128649e-05
2.67450818125e-07
5.23022751403e-05
1.69042186258e-07
5.22746880698e-05
1.03476793513e-07
5.22573636031e-05
6.06305763004e-08
5.22468549691e-05
3.32680564214e-08
5.22407552782e-05
1.6291178182e-08
5.22374463526e-05
6.18336962068e-09
5.22359475809e-05
5.16095695776e-10
5.22354394682e-05
-2.42290555965e-09
5.2235504221e-05
-3.68560175807e-09
5.22358494624e-05
-3.9823735773e-09
5.22363034796e-05
-3.76242588851e-09
5.22367696372e-05
-3.30021669073e-09
5.22371968345e-05
-2.75639059835e-09
5.22375623474e-05
-2.22102097038e-09
5.22378594759e-05
-1.73888529451e-09
5.22380910072e-05
-1.32804809391e-09
5.22382672229e-05
-9.91393749602e-10
5.22384000236e-05
-7.24293974754e-10
5.22385002904e-05
-5.14179716665e-10
5.22385847457e-05
-3.53358594252e-10
5.2238650206e-05
-2.35009597987e-10
5.22386923967e-05
-1.50724872726e-10
5.22387250958e-05
-9.26064019623e-11
5.22387404304e-05
-3.76203032123e-11
5.22387455663e-05
-1.06593803375e-13
5.22387430736e-05
2.81444092102e-11
5.22387348704e-05
4.9472063552e-11
5.22387223046e-05
6.6197025477e-11
5.22387062247e-05
8.03266138104e-11
5.22386872038e-05
9.30035638422e-11
5.22386657768e-05
1.04799314221e-10
5.22386428689e-05
1.15691013149e-10
5.2238618149e-05
1.27187259337e-10
5.22385909009e-05
1.39658802112e-10
5.2238562517e-05
1.50703110497e-10
5.22385340308e-05
1.60106377862e-10
5.22385069266e-05
1.66457589089e-10
5.22384835331e-05
1.67352111367e-10
5.22384680948e-05
1.58352389761e-10
5.22384716558e-05
1.28583983833e-10
5.22384980845e-05
7.8368581696e-11
5.22385648652e-05
-1.76705957978e-11
5.22386786463e-05
-1.66518704157e-10
5.22388588813e-05
-4.01108343409e-10
5.2239186917e-05
-7.99802887925e-10
5.22396874065e-05
-1.5110286026e-09
5.22404399184e-05
-2.51366487572e-09
5.22415759779e-05
-4.03329165875e-09
5.22432983338e-05
-6.36487003557e-09
5.22459082838e-05
-9.95813517587e-09
5.22498577929e-05
-1.55210966723e-08
5.22558384272e-05
-2.41711880736e-08
5.22649106728e-05
-3.76906398627e-08
5.22786960422e-05
-5.89507881978e-08
5.22996608589e-05
-9.26185964403e-08
5.23315348849e-05
-1.46349830582e-07
5.23796870436e-05
-2.32861240826e-07
5.24510867764e-05
-3.73482112313e-07
5.25526651755e-05
-6.03860905741e-07
5.26850592947e-05
-9.8221533012e-07
5.28261329424e-05
-1.59662319375e-06
5.28943810894e-05
-2.56193004989e-06
5.26769226824e-05
-3.99380439125e-06
-5.80416009875e-06
5.18675743665e-05
5.19834863517e-05
4.18998833068e-06
5.5058663578e-05
9.80990068626e-06
5.76386125827e-05
1.21156455733e-05
5.93259022979e-05
1.20656819692e-05
6.02280141066e-05
1.07325701169e-05
6.05929250729e-05
8.90015418745e-06
6.06482817857e-05
7.03829057941e-06
6.05531871307e-05
5.37797022519e-06
6.04029523712e-05
4.0022201146e-06
6.02479116923e-05
2.91496891457e-06
6.01107860018e-05
2.08393489236e-06
5.9999026327e-05
1.46463848431e-06
5.99125110066e-05
1.01253669842e-06
5.98479189719e-05
6.88319166354e-07
5.98010152612e-05
4.59580813736e-07
5.9767730463e-05
3.00735467217e-07
5.9744588956e-05
1.92183544214e-07
5.97288102556e-05
1.1925534525e-07
5.97182619503e-05
7.11787342941e-08
5.97113556036e-05
4.01742590513e-08
5.97069361048e-05
2.07105388079e-08
5.97042020657e-05
8.91727990544e-09
5.97025929022e-05
2.12514288307e-09
5.97016882468e-05
-1.51835091733e-09
5.97012298426e-05
-3.2272805723e-09
5.9701040226e-05
-3.79282202476e-09
5.97010038621e-05
-3.72611067435e-09
5.97010480901e-05
-3.3444794301e-09
5.97011291854e-05
-2.8375108576e-09
5.97012214754e-05
-2.31333052024e-09
5.97013110781e-05
-1.82850637973e-09
5.9701391373e-05
-1.40836450672e-09
5.97014609292e-05
-1.06097779335e-09
5.97015203433e-05
-7.83743941772e-10
5.97015704189e-05
-5.64300045154e-10
5.97016100636e-05
-3.93055472735e-10
5.97016377085e-05
-2.62711644278e-10
5.97016528966e-05
-1.65971936664e-10
5.97016511249e-05
-9.08926032773e-11
5.97016429011e-05
-2.94513108434e-11
5.97016361242e-05
6.62136936629e-12
5.97016266465e-05
3.75796266655e-11
5.97016160191e-05
6.00620935628e-11
5.9701604155e-05
7.80307998513e-11
5.97015899492e-05
9.45060458558e-11
5.97015732055e-05
1.09720384622e-10
5.97015538896e-05
1.2408413828e-10
5.97015317148e-05
1.37827736805e-10
5.97015078977e-05
1.50958871145e-10
5.97014843268e-05
1.63178021527e-10
5.97014611867e-05
1.73783952248e-10
5.97014397246e-05
1.81501567754e-10
5.97014216673e-05
1.84443639409e-10
5.97014089015e-05
1.80045250964e-10
5.97014019718e-05
1.65205240197e-10
5.97013931873e-05
1.3729795261e-10
5.97013915487e-05
7.99554017554e-11
5.97014014377e-05
-2.76273200613e-11
5.97014640863e-05
-2.29240321108e-10
5.97016392083e-05
-5.76284943822e-10
5.97019268982e-05
-1.08754506809e-09
5.97022981599e-05
-1.8823373414e-09
5.97028556725e-05
-3.07122464831e-09
5.97036824357e-05
-4.86010587257e-09
5.97048914553e-05
-7.57394188529e-09
5.9706646731e-05
-1.17134651677e-08
5.97091854472e-05
-1.8059870636e-08
5.97128502487e-05
-2.78360496231e-08
5.97181296421e-05
-4.29700952533e-08
5.97257041089e-05
-6.65253197913e-08
5.97364769981e-05
-1.03391550553e-07
5.97515116522e-05
-1.61384544827e-07
5.97716496005e-05
-2.52999253519e-07
5.97963062673e-05
-3.98138834356e-07
5.98203302881e-05
-6.278849601e-07
5.98268337737e-05
-9.88718871873e-07
5.97736989813e-05
-1.54348869298e-06
5.95727542695e-05
-2.36098570873e-06
5.90655368416e-05
-3.4865859878e-06
-4.82907212948e-06
5.80904479069e-05
5.14373052521e-05
2.75268293643e-06
5.42658201747e-05
6.9813854638e-06
5.72496425955e-05
9.13182290912e-06
5.97900266947e-05
9.52529762813e-06
6.17201269284e-05
8.80246964502e-06
6.30883016219e-05
7.53197926425e-06
6.4016714939e-05
6.10987704336e-06
6.46292345089e-05
4.7654504482e-06
6.50258012554e-05
3.60565317347e-06
6.52790756352e-05
2.66169435182e-06
6.54389705034e-05
1.92403985166e-06
6.55386871681e-05
1.36492165582e-06
6.55999255556e-05
9.51298153972e-07
6.56367402361e-05
6.51504333732e-07
6.56581912149e-05
4.38129685814e-07
6.56700993287e-05
2.88827205896e-07
6.56761884693e-05
1.86094256905e-07
6.56788246894e-05
1.16618979034e-07
6.56794950513e-05
7.05082275257e-08
6.56791187793e-05
4.05503890083e-08
6.56782513269e-05
2.15778543739e-08
6.56772203627e-05
9.94811546716e-09
6.56762110747e-05
3.1343138476e-09
6.56753017577e-05
-6.0913661237e-10
6.56745330467e-05
-2.45865578365e-09
6.56739046829e-05
-3.1645271562e-09
6.56734057888e-05
-3.22726974441e-09
6.56730188967e-05
-2.95762681828e-09
6.56727250155e-05
-2.54365879764e-09
6.56725059766e-05
-2.09431430074e-09
6.56723456627e-05
-1.66821285947e-09
6.56722303973e-05
-1.29312112711e-09
6.56721480437e-05
-9.78650680971e-10
6.56720879809e-05
-7.23714210572e-10
6.56720444307e-05
-5.20790686645e-10
6.56720131615e-05
-3.61834545988e-10
6.56719880537e-05
-2.37656250839e-10
6.56719663984e-05
-1.44371862995e-10
6.56719512775e-05
-7.58276171709e-11
6.5671949421e-05
-2.76471324247e-11
6.56719477644e-05
8.22969528353e-12
6.56719402214e-05
4.50797540832e-11
6.567192988e-05
7.03663150021e-11
6.56719170429e-05
9.08341906663e-11
6.56719025909e-05
1.08928457498e-10
6.56718865163e-05
1.25765940574e-10
6.56718686443e-05
1.41922842327e-10
6.56718488921e-05
1.57540783225e-10
6.56718280292e-05
1.71777457465e-10
6.56718077467e-05
1.83410031563e-10
6.56717868774e-05
1.945947369e-10
6.56717660072e-05
2.02306132651e-10
6.56717462046e-05
2.04176118423e-10
6.56717291906e-05
1.96983414154e-10
6.5671718191e-05
1.76123571481e-10
6.5671720087e-05
1.35335124875e-10
6.56717292008e-05
7.07947837255e-11
6.56717450549e-05
-4.3531528148e-11
6.56718106233e-05
-2.94882681877e-10
6.56718982206e-05
-6.63943735591e-10
6.56720358427e-05
-1.22521849985e-09
6.56722295463e-05
-2.07608833029e-09
6.56724947251e-05
-3.33645561228e-09
6.56728471695e-05
-5.21260633399e-09
6.56732965701e-05
-8.02339805408e-09
6.56738389116e-05
-1.22558644687e-08
6.56744425446e-05
-1.86635631005e-08
6.56750185378e-05
-2.84121001504e-08
6.56753615261e-05
-4.33131415686e-08
6.56750389856e-05
-6.62028406067e-08
6.56731775325e-05
-1.01530157034e-07
6.56680287234e-05
-1.56235793431e-07
6.56560393145e-05
-2.41009912638e-07
6.56300512048e-05
-3.72150797094e-07
6.55758597987e-05
-5.73693609909e-07
6.54661293559e-05
-8.78988438051e-07
6.52514901437e-05
-1.32884959731e-06
6.4851501523e-05
-1.96099752851e-06
6.41529636622e-05
-2.78804761233e-06
-3.74053615239e-06
6.30644272159e-05
5.10850422426e-05
1.66764055235e-06
5.36118441622e-05
4.45458324642e-06
5.66873158455e-05
6.05635098367e-06
5.9689445612e-05
6.52316762066e-06
6.22997259754e-05
6.19218904377e-06
6.44136872998e-05
5.41801770932e-06
6.60471832181e-05
4.47638090432e-06
6.72686145607e-05
3.54401889605e-06
6.815989342e-05
2.71437411635e-06
6.87977598734e-05
2.0238277122e-06
6.924674414e-05
1.47505540948e-06
6.95579629004e-05
1.05370272957e-06
6.97704295402e-05
7.38831356235e-07
6.99131726087e-05
5.08761113481e-07
7.00073837701e-05
3.43918376831e-07
7.00682934355e-05
2.27917395536e-07
7.01066956078e-05
1.47691941022e-07
7.01301380816e-05
9.3176362474e-08
7.01438273912e-05
5.68187762262e-08
7.01513036828e-05
3.30739579507e-08
7.0154936351e-05
1.79450509902e-08
7.01562843208e-05
8.6000175226e-09
7.01563564018e-05
3.06211494803e-09
7.01557645239e-05
-1.73636022692e-11
7.01549038385e-05
-1.59806043615e-09
7.01539804086e-05
-2.2411710282e-09
7.0153111948e-05
-2.3588676545e-09
7.01523521127e-05
-2.19783641219e-09
7.01517181065e-05
-1.90968639469e-09
7.01512070706e-05
-1.58330476067e-09
7.01508060701e-05
-1.26723538289e-09
7.01504981487e-05
-9.85222702319e-10
7.01502656666e-05
-7.46194449277e-10
7.0150092455e-05
-5.50533695192e-10
7.01499655163e-05
-3.93889521061e-10
7.01498741978e-05
-2.70559741681e-10
7.01498113948e-05
-1.74902108688e-10
7.0149769668e-05
-1.02697176952e-10
7.01497409587e-05
-4.71716988135e-11
7.01497107727e-05
2.48813881303e-12
7.01496871694e-05
3.17867877175e-11
7.01496739522e-05
5.82528843048e-11
7.01496632163e-05
8.10602351928e-11
7.01496530331e-05
1.00979474826e-10
7.01496426537e-05
1.19275217045e-10
7.01496316896e-05
1.36698525761e-10
7.0149619995e-05
1.53583688777e-10
7.01496075921e-05
1.69906329404e-10
7.01495940044e-05
1.85323600508e-10
7.0149578117e-05
1.99249438169e-10
7.01495618592e-05
2.10798429094e-10
7.01495459046e-05
2.18201365425e-10
7.01495309885e-05
2.19024833933e-10
7.01495177873e-05
2.10109076131e-10
7.01495062261e-05
1.87604028131e-10
7.0149494358e-05
1.47125569015e-10
7.0149477957e-05
8.71331495459e-11
7.0149473029e-05
-3.86445405386e-11
7.01494703078e-05
-2.92216006171e-10
7.01494831798e-05
-6.76877960339e-10
7.01494956084e-05
-1.23770312418e-09
7.01494841e-05
-2.06463258864e-09
7.01494206078e-05
-3.27301744739e-09
7.01492507912e-05
-5.04284358115e-09
7.01488739999e-05
-7.64666379925e-09
7.01481126395e-05
-1.14945650386e-08
7.01466634114e-05
-1.72143965444e-08
7.01440089661e-05
-2.57577139557e-08
7.01392668732e-05
-3.857110745e-08
7.0130946073e-05
-5.78821011594e-08
7.01165493835e-05
-8.7133526701e-08
7.00918894535e-05
-1.31575923703e-07
7.00498352839e-05
-1.98955802301e-07
6.99783500991e-05
-3.00665706533e-07
6.98573627644e-05
-4.52706366947e-07
6.96542509405e-05
-6.75876647184e-07
6.93188007456e-05
-9.93399418149e-07
6.87809622564e-05
-1.42315939685e-06
6.7957347831e-05
-1.96443297942e-06
-2.57187226051e-06
6.67886837022e-05
5.08804130772e-05
7.8722733432e-07
5.31704657921e-05
2.16453023588e-06
5.62177491159e-05
3.00906741915e-06
5.94382688757e-05
3.30264762075e-06
6.24449684421e-05
3.18548923999e-06
6.50382516098e-05
2.82473431057e-06
6.71548649339e-05
2.3597673579e-06
6.88135631908e-05
1.88532042733e-06
7.00731689651e-05
1.45476814165e-06
7.1005665714e-05
1.09133077426e-06
7.16812618068e-05
7.99459138499e-07
7.21614209815e-05
5.73543386912e-07
7.24966017457e-05
4.03650432995e-07
7.27264781545e-05
2.78884552914e-07
7.28812769248e-05
1.89119460118e-07
7.29834665668e-05
1.25727610685e-07
7.30494102511e-05
8.17481159248e-08
7.30908122734e-05
5.1774200498e-08
7.31159061421e-05
3.17247686745e-08
7.31303905903e-05
1.85893726552e-08
7.31381452428e-05
1.01902647164e-08
7.31417656158e-05
4.97951650878e-09
7.31429532531e-05
1.87435840804e-09
7.31428068315e-05
1.2895034838e-10
7.31419835398e-05
-7.74862541707e-10
7.31409005805e-05
-1.15829073803e-09
7.31397856576e-05
-1.24400865877e-09
7.31387581724e-05
-1.17040114707e-09
7.31378705802e-05
-1.02213241804e-09
7.31371367895e-05
-8.49543330219e-10
7.31365494089e-05
-6.79879030127e-10
7.31360910479e-05
-5.26884673216e-10
7.3135740836e-05
-3.96007532825e-10
7.31354781427e-05
-2.8786944947e-10
7.31352846246e-05
-2.00405811128e-10
7.31351446531e-05
-1.3062798845e-10
7.31350449784e-05
-7.5272442442e-11
7.31349730633e-05
-3.08299175532e-11
7.31349196462e-05
6.19675766679e-12
7.31348895933e-05
3.24919087928e-11
7.31348661424e-05
5.51902074157e-11
7.31348490094e-05
7.53417793785e-11
7.31348363104e-05
9.37170963926e-11
7.3134826236e-05
1.11016663558e-10
7.31348175134e-05
1.27964219622e-10
7.31348092491e-05
1.44929582638e-10
7.31348008149e-05
1.61983615285e-10
7.31347917668e-05
1.78917362274e-10
7.31347818386e-05
1.95208764348e-10
7.31347709665e-05
2.1007170399e-10
7.31347591837e-05
2.22527248314e-10
7.31347465229e-05
2.30803101094e-10
7.31347330392e-05
2.3244118036e-10
7.31347188346e-05
2.2424445006e-10
7.31347041843e-05
2.02180961196e-10
7.31346895777e-05
1.61650510419e-10
7.31346763583e-05
1.00286539233e-10
7.31346488592e-05
-1.12133686545e-11
7.31346033164e-05
-2.46729996443e-10
7.3134530937e-05
-6.04552517379e-10
7.31344088276e-05
-1.11564943507e-09
7.31341934225e-05
-1.84928390795e-09
7.31338155766e-05
-2.89522691304e-09
7.31331591189e-05
-4.38644023205e-09
7.31320289102e-05
-6.51651243214e-09
7.31300998149e-05
-9.56552954961e-09
7.31268444428e-05
-1.39590814462e-08
7.31213988711e-05
-2.03121974032e-08
7.31123386045e-05
-2.95108954374e-08
7.30973464443e-05
-4.28899916138e-08
7.30727043508e-05
-6.24914868247e-08
7.30324661407e-05
-9.1337780197e-08
7.29670581915e-05
-1.33547918807e-07
7.28613713367e-05
-1.94978929748e-07
7.26920893842e-05
-2.83424519319e-07
7.24244696627e-05
-4.08257005585e-07
7.20097649021e-05
-5.78694661505e-07
7.13861788502e-05
-7.99573602e-07
7.04872713627e-05
-1.06552545598e-06
-1.35178886996e-06
6.92671878321e-05
5.07871724861e-05
5.47081816998e-11
5.29516494749e-05
5.29536563165e-11
5.59606878595e-05
2.8795043567e-11
5.92633210703e-05
1.41703712509e-11
6.24488073561e-05
2.7165133081e-12
6.52735475984e-05
-6.16399796031e-12
6.76333268103e-05
-1.20782700129e-11
6.95186620556e-05
-1.5032470813e-11
7.09734454619e-05
-1.54682119819e-11
7.20647900272e-05
-1.39830158787e-11
7.28642601955e-05
-1.12101153285e-11
7.34378112186e-05
-7.80532631599e-12
7.38414659216e-05
-4.4290164376e-12
7.41203520505e-05
-1.72645998155e-12
7.43094716518e-05
-2.85136228813e-13
7.44351996271e-05
-5.04021752789e-13
7.45169502447e-05
-2.63861122154e-12
7.45687307518e-05
-6.44236823277e-12
7.46004666624e-05
-1.12770980118e-11
7.46190720627e-05
-1.6161965994e-11
7.46292821644e-05
-1.99690024018e-11
7.46342831576e-05
-2.16044356969e-11
7.46361779999e-05
-2.06043006684e-11
7.46363250883e-05
-1.82479153794e-11
7.4635565838e-05
-1.57095141202e-11
7.46344200184e-05
-1.25545190732e-11
7.46331848926e-05
-8.95162746634e-12
7.46320194009e-05
-4.96415456902e-12
7.46309973498e-05
-1.23923345837e-13
7.46301438293e-05
3.9442078465e-12
7.4629455302e-05
8.6225541136e-12
7.46289147799e-05
1.36148866322e-11
7.46284998617e-05
1.88878863997e-11
7.46281874574e-05
2.45087440762e-11
7.46279563575e-05
3.06630485675e-11
7.46277882166e-05
3.74760554878e-11
7.46276678712e-05
4.50312481217e-11
7.46275836816e-05
5.33144425905e-11
7.46275274807e-05
6.23499123616e-11
7.46274881249e-05
7.17993287085e-11
7.46274616462e-05
8.16196626431e-11
7.46274442007e-05
9.2740288939e-11
7.46274328035e-05
1.05072422222e-10
7.46274252232e-05
1.18559834076e-10
7.46274199209e-05
1.33231437422e-10
7.46274158232e-05
1.48992446751e-10
7.46274121733e-05
1.65598115239e-10
7.46274084206e-05
1.82631994944e-10
7.46274041249e-05
1.9946114605e-10
7.46273989314e-05
2.15216842428e-10
7.46273926472e-05
2.28758408522e-10
7.46273850313e-05
2.38358621488e-10
7.46273757002e-05
2.4170835612e-10
7.46273640067e-05
2.35869576702e-10
7.46273488427e-05
2.17278962752e-10
7.46273284596e-05
1.81952610783e-10
7.46273020138e-05
1.2664997596e-10
7.46272583757e-05
3.23457027776e-11
7.46271659329e-05
-1.54339723633e-10
7.46270281303e-05
-4.66800621261e-10
7.46268017299e-05
-8.89302268194e-10
7.46264262457e-05
-1.47385489274e-09
7.4625804573e-05
-2.27360956018e-09
7.46247788701e-05
-3.3607932182e-09
7.46230915118e-05
-4.82920992164e-09
7.46203219601e-05
-6.79603104341e-09
7.46158075522e-05
-9.44472917467e-09
7.46084778933e-05
-1.29825929276e-08
7.45965808706e-05
-1.76139259455e-08
7.45773020403e-05
-2.36112120892e-08
7.45462332854e-05
-3.14227856825e-08
7.44965663083e-05
-4.16708568244e-08
7.44175027418e-05
-5.44844247151e-08
7.42925451953e-05
-7.00214616955e-08
7.40971507993e-05
-8.80302297772e-08
7.37962401086e-05
-1.07346420792e-07
7.33427414807e-05
-1.25196058624e-07
7.26795611057e-05
-1.36393409837e-07
7.17477728588e-05
-1.33737254942e-07
-1.08692213563e-07
7.05046760996e-05
5.07871714517e-05
-7.87116882514e-07