/*--------------------------------*- C++ -*----------------------------------*\
| =========                 |                                                 |
| \\      /  F ield         | OpenFOAM: The Open Source CFD Toolbox           |
|  \\    /   O peration     | Version:  2106                                  |
|   \\  /    A nd           | Website:  www.openfoam.com                      |
|    \\/     M anipulation  |                                                 |
\*---------------------------------------------------------------------------*/
FoamFile
{
    version     2.0;
    format      ascii;
    arch        "LSB;label=32;scalar=64";
    class       surfaceScalarField;
    location    "0.135";
    object      phi;
}
// * * * * * * * * * * * * * * * * * * * * * * * * * * * * * * * * * * * * * //

dimensions      [0 3 -1 0 0 0 0];

oriented        oriented;

internalField   nonuniform List<scalar> 
799
(
1.6244e-32
4.24833e-32
5.40855e-32
4.16512e-32
1.48203e-32
-5.3589e-32
-1.14732e-31
-1.62368e-31
-1.74168e-31
-1.38151e-31
-8.40907e-32
-2.3546e-32
1.32008e-32
2.12195e-32
-2.08646e-33
-4.30311e-32
-9.56345e-32
-1.49694e-31
-1.91369e-31
-2.20683e-31
-2.13847e-31
-1.79033e-31
-1.19126e-31
-4.96062e-32
-1.02526e-32
-2.3777e-33
-4.52571e-32
-1.17085e-31
-1.84578e-31
-2.38356e-31
-2.42378e-31
-2.16247e-31
-1.71072e-31
-1.17175e-31
-9.3427e-32
-8.34773e-32
-1.01793e-31
-1.40797e-31
-1.71771e-31
-2.09548e-31
-2.19582e-31
-2.08144e-31
-1.85704e-31
-1.39996e-31
-1.15738e-31
-1.06397e-31
-1.23238e-31
-1.7311e-31
-2.13953e-31
-2.51108e-31
-2.53882e-31
-2.20857e-31
-1.78472e-31
-1.24937e-31
-1.01265e-31
-1.08137e-31
-1.41931e-31
-2.01683e-31
-2.47725e-31
-2.73487e-31
-2.60908e-31
-2.08322e-31
-1.46764e-31
-9.23532e-32
-8.00374e-32
-1.21257e-31
-1.95506e-31
-2.79457e-31
-3.25294e-31
-3.08161e-31
-2.37142e-31
-1.35728e-31
-5.9594e-32
-4.33455e-32
-9.06737e-32
-1.84673e-31
-2.71376e-31
-3.16171e-31
-3.04805e-31
-2.45666e-31
-1.79509e-31
-1.30566e-31
-1.15242e-31
-1.3027e-31
-1.54389e-31
-1.80315e-31
-1.99857e-31
-2.17945e-31
-2.38182e-31
-2.50365e-31
-2.48305e-31
-2.17079e-31
-1.64408e-31
-1.10878e-31
-7.80859e-32
-9.68382e-32
-1.55284e-31
-2.36906e-31
-3.06102e-31
-3.19291e-31
-2.83836e-31
-1.97874e-31
-1.06849e-31
-5.34069e-32
-4.4161e-32
-1.01886e-31
-1.80919e-31
-2.54471e-31
-2.98159e-31
-2.80912e-31
-2.36825e-31
-1.73809e-31
-1.26905e-31
-1.18063e-31
-1.29241e-31
-1.59596e-31
-1.76171e-31
-1.73403e-31
-1.60393e-31
-1.46227e-31
-1.5587e-31
-1.86083e-31
-2.27331e-31
-2.57865e-31
-2.56152e-31
-2.21181e-31
-1.61516e-31
-1.01754e-31
-6.36369e-32
-5.79694e-32
-8.76071e-32
-1.39674e-31
-2.00322e-31
-2.5533e-31
-2.86879e-31
-2.89297e-31
-2.55259e-31
-1.90792e-31
-1.1672e-31
-5.1606e-32
-2.59785e-32
-4.81979e-32
-1.11056e-31
-1.94898e-31
-2.59382e-31
-2.85514e-31
-2.6165e-31
-2.01025e-31
-1.37913e-31
-9.42141e-32
-9.30321e-32
-1.27196e-31
-1.73782e-31
-2.10447e-31
-2.1054e-31
-1.77195e-31
-1.25927e-31
-8.37253e-32
-8.04136e-32
-1.19936e-31
-1.9051e-31
-2.56791e-31
-2.83151e-31
-2.51642e-31
-1.70821e-31
-8.0812e-32
-2.20406e-32
-2.92463e-32
-9.50115e-32
-1.84205e-31
-2.54171e-31
-2.60231e-31
-2.12964e-31
-1.34582e-31
-7.09374e-32
-6.35166e-32
-9.84312e-32
-1.66205e-31
-2.14654e-31
-2.15611e-31
-1.78106e-31
-1.05816e-31
-5.49748e-32
-4.00855e-32
-6.76393e-32
-1.33414e-31
-1.87707e-31
-2.22408e-31
-2.12884e-31
-1.63888e-31
-1.06522e-31
-4.84753e-32
-2.32406e-32
-2.94746e-32
-5.86122e-32
-1.04637e-31
-1.39607e-31
-1.61082e-31
-1.61987e-31
-1.41372e-31
-1.1178e-31
-7.3068e-32
-3.59752e-32
-9.98474e-33
8.95256e-34
-1.38035e-32
-4.87952e-32
-9.02268e-32
-1.21637e-31
-1.19293e-31
-7.95409e-32
-1.54106e-32
4.81347e-32
7.5826e-32
5.43285e-32
-6.14642e-33
-7.3721e-32
-1.0289e-31
-6.83999e-32
2.31051e-32
1.35388e-31
2.11967e-31
2.12418e-31
1.36751e-31
1.90408e-32
-7.37601e-32
-8.62155e-32
-6.13175e-33
1.43771e-31
2.92063e-31
3.75459e-31
3.66047e-31
2.68917e-31
1.49477e-31
6.73381e-32
6.4475e-32
1.53424e-31
2.8601e-31
4.164e-31
4.96076e-31
5.00823e-31
4.5527e-31
3.88493e-31
3.45631e-31
3.55415e-31
4.15112e-31
5.07717e-31
5.98957e-31
6.59846e-31
6.81001e-31
6.76703e-31
6.71147e-31
6.94881e-31
7.58681e-31
8.43757e-31
9.28153e-31
9.75818e-31
9.79326e-31
9.63301e-31
9.55534e-31
9.99642e-31
1.10341e-30
1.24104e-30
1.37999e-30
1.47349e-30
1.50925e-30
1.50976e-30
1.50269e-30
1.53014e-30
1.60653e-30
1.71424e-30
1.84074e-30
1.95537e-30
2.05133e-30
2.14268e-30
2.22676e-30
2.32182e-30
2.42094e-30
2.51449e-30
2.61271e-30
2.70784e-30
2.81634e-30
2.94003e-30
3.06759e-30
3.19812e-30
3.31839e-30
3.43938e-30
3.57755e-30
3.74477e-30
3.94283e-30
4.14808e-30
4.32945e-30
4.46259e-30
4.55516e-30
4.63908e-30
4.76607e-30
4.97117e-30
5.24797e-30
5.56301e-30
5.85018e-30
6.07125e-30
6.22379e-30
6.3401e-30
6.4877e-30
6.7011e-30
6.99216e-30
7.33027e-30
7.65984e-30
7.95481e-30
8.20143e-30
8.43066e-30
8.6818e-30
8.97283e-30
9.31273e-30
9.66963e-30
1.00184e-29
1.03468e-29
1.06545e-29
1.09754e-29
1.13272e-29
1.17212e-29
1.21513e-29
1.25826e-29
1.30012e-29
1.33927e-29
1.37688e-29
1.41646e-29
1.45947e-29
1.50815e-29
1.5609e-29
1.61451e-29
1.66702e-29
1.71519e-29
1.7608e-29
1.80635e-29
1.85488e-29
1.91062e-29
1.97235e-29
2.03878e-29
2.10554e-29
2.16736e-29
2.22275e-29
2.27199e-29
2.3154e-29
2.37483e-29
2.4452e-29
2.59827e-29
2.8577e-29
3.23637e-29
3.94116e-29
4.2266e-29
4.52244e-29
2.83237e-29
-1.42562e-29
-6.54578e-29
-1.70876e-28
-1.61339e-28
-1.00368e-28
1.87833e-28
8.32247e-28
1.1978e-27
1.84047e-27
1.07905e-27
-7.38628e-28
-3.01373e-27
-7.51993e-27
-7.19014e-27
-5.90762e-27
1.77193e-27
1.69001e-26
2.26919e-26
3.30729e-26
1.66726e-26
-1.35867e-26
-4.09828e-26
-9.04709e-26
-7.12976e-26
-4.21699e-26
3.15952e-26
1.5465e-25
1.62761e-25
1.92023e-25
5.43367e-26
-1.45575e-25
-2.41537e-25
-4.15685e-25
-2.36498e-25
-3.16174e-26
2.1918e-25
5.89221e-25
4.55182e-25
3.83061e-25
-3.70578e-26
-5.43976e-25
-5.80023e-25
-7.54226e-25
-2.54552e-25
2.23654e-25
5.06874e-25
9.15319e-25
5.06885e-25
2.2367e-25
-2.54538e-25
-7.54221e-25
-5.80029e-25
-5.43988e-25
-3.70719e-26
3.83051e-25
4.55181e-25
5.89226e-25
2.19188e-25
-3.16117e-26
-2.36496e-25
-4.15687e-25
-2.41542e-25
-1.45579e-25
5.4333e-26
1.92021e-25
1.62761e-25
1.5465e-25
3.15955e-26
-4.21703e-26
-7.12984e-26
-9.04717e-26
-4.09838e-26
-1.35875e-26
1.66716e-26
3.30718e-26
2.26909e-26
1.68991e-26
1.77111e-27
-5.90835e-27
-7.19078e-27
-7.52053e-27
-3.01435e-27
-7.39265e-28
1.07836e-27
1.83974e-27
1.19706e-27
8.31526e-28
1.87184e-28
-1.00936e-28
-1.61807e-28
-1.71277e-28
-6.5858e-29
-1.47007e-29
2.77736e-29
4.4592e-29
4.16014e-29
3.87886e-29
3.1869e-29
2.82193e-29
2.57457e-29
2.42632e-29
2.35195e-29
2.28413e-29
2.22973e-29
2.17296e-29
2.11608e-29
2.05821e-29
2.00131e-29
1.94631e-29
1.89461e-29
1.84545e-29
1.79649e-29
1.74562e-29
1.69143e-29
1.63482e-29
1.57935e-29
1.52771e-29
1.48258e-29
1.44328e-29
1.40687e-29
1.37076e-29
1.33138e-29
1.28892e-29
1.24417e-29
1.19916e-29
1.15706e-29
1.11845e-29
1.0847e-29
1.05469e-29
1.02643e-29
9.98208e-30
9.67325e-30
9.3331e-30
8.97156e-30
8.61117e-30
8.28619e-30
8.01908e-30
7.80358e-30
7.62105e-30
7.42829e-30
7.19027e-30
6.90798e-30
6.58813e-30
6.28189e-30
6.02547e-30
5.82931e-30
5.69808e-30
5.57981e-30
5.4437e-30
5.26233e-30
5.02264e-30
4.7641e-30
4.51227e-30
4.30868e-30
4.17499e-30
4.09297e-30
4.03848e-30
3.96214e-30
3.82706e-30
3.62787e-30
3.38463e-30
3.14756e-30
2.97165e-30
2.88155e-30
2.86909e-30
2.88719e-30
2.87066e-30
2.7802e-30
2.60639e-30
2.38768e-30
2.18171e-30
2.03634e-30
1.97239e-30
1.96705e-30
1.98281e-30
1.97149e-30
1.91324e-30
1.80877e-30
1.67633e-30
1.55203e-30
1.44729e-30
1.38152e-30
1.34443e-30
1.32114e-30
1.30321e-30
1.26148e-30
1.20638e-30
1.13128e-30
1.05279e-30
9.96638e-31
9.53097e-31
9.39814e-31
9.24854e-31
8.92064e-31
8.42822e-31
7.61325e-31
6.91011e-31
6.40901e-31
6.22859e-31
6.4373e-31
6.59494e-31
6.62944e-31
6.31895e-31
5.67473e-31
5.03238e-31
4.43781e-31
4.10119e-31
3.94167e-31
3.75799e-31
3.59367e-31
3.38111e-31
3.32792e-31
3.56742e-31
3.93246e-31
4.27722e-31
4.15699e-31
3.38569e-31
2.17428e-31
8.43986e-32
1.33446e-32
3.75767e-32
1.48404e-31
3.07794e-31
4.19267e-31
4.32446e-31
3.27449e-31
1.35045e-31
-4.35268e-32
-1.45382e-31
-1.16019e-31
2.97827e-32
2.06004e-31
3.45157e-31
3.6432e-31
2.60173e-31
8.92183e-32
-8.48161e-32
-1.66244e-31
-1.37725e-31
-2.16573e-32
1.29036e-31
2.25283e-31
2.43666e-31
1.7686e-31
6.20962e-32
-3.59698e-32
-9.74934e-32
-9.70817e-32
-5.58286e-32
-3.24925e-33
5.14283e-32
8.12141e-32
9.61919e-32
9.29382e-32
7.00218e-32
4.0179e-32
-3.07246e-33
-4.08094e-32
-6.84781e-32
-7.93062e-32
-6.7189e-32
-4.24216e-32
-4.48907e-33
3.15807e-32
6.27451e-32
7.69078e-32
6.7868e-32
3.92198e-32
-1.21164e-32
-5.9032e-32
-9.68953e-32
-1.07402e-31
-8.42925e-32
-4.93768e-32
1.2985e-33
3.61123e-32
5.31226e-32
5.48168e-32
2.86241e-32
6.03358e-34
-3.74518e-32
-7.12544e-32
-8.61192e-32
-8.96791e-32
-6.41632e-32
-2.74501e-32
1.14578e-32
4.27782e-32
4.57807e-32
2.97843e-32
-5.601e-33
-4.4501e-32
-7.1202e-32
-8.24328e-32
-7.06337e-32
-4.46665e-32
-1.22483e-32
1.55188e-32
2.88468e-32
2.30869e-32
2.89491e-33
-2.18412e-32
-4.07906e-32
-4.08884e-32
-3.21909e-32
-1.8262e-32
-1.36957e-32
-2.65161e-32
-3.73901e-32
-4.40662e-32
-2.3719e-32
1.58861e-32
4.94633e-32
6.3834e-32
2.94803e-32
-3.16591e-32
-9.36453e-32
-1.23499e-31
-9.10506e-32
-1.99108e-32
6.51656e-32
1.13877e-31
9.99649e-32
3.60284e-32
-5.31512e-32
-1.1147e-31
-1.16549e-31
-6.58758e-32
1.46611e-32
7.46253e-32
9.28027e-32
5.57096e-32
-1.0072e-32
-6.46225e-32
-8.48974e-32
-5.25057e-32
7.07163e-33
6.2847e-32
8.78103e-32
6.0894e-32
3.17684e-33
-6.07097e-32
-9.98301e-32
-8.84739e-32
-3.87369e-32
3.2965e-32
9.58451e-32
1.18577e-31
1.01137e-31
4.53985e-32
-2.59617e-32
-8.18159e-32
-1.12583e-31
-1.01208e-31
-5.4968e-32
7.9494e-33
7.74833e-32
1.23006e-31
1.35457e-31
1.08446e-31
4.16633e-32
-3.62195e-32
-1.0636e-31
-1.37128e-31
-1.11436e-31
-3.98186e-32
5.90854e-32
1.40199e-31
1.70478e-31
1.36496e-31
4.81302e-32
-5.15397e-32
-1.1985e-31
-1.25574e-31
-6.51662e-32
2.92124e-32
1.13868e-31
1.49902e-31
1.19564e-31
4.38721e-32
-4.06296e-32
-9.31744e-32
-8.4203e-32
-2.68765e-32
5.56421e-32
1.2102e-31
1.33235e-31
9.91117e-32
2.52026e-32
-4.32023e-32
-7.16461e-32
-5.8935e-32
3.42454e-33
6.84754e-32
1.11415e-31
1.20016e-31
7.76436e-32
2.65207e-32
-2.17559e-32
-4.41151e-32
-2.45135e-32
8.608e-33
5.37071e-32
8.44648e-32
9.00485e-32
8.19167e-32
5.75054e-32
3.54839e-32
2.23844e-32
1.51216e-32
1.7127e-32
1.95326e-32
1.76824e-32
1.88078e-32
1.88696e-32
2.86217e-32
5.13937e-32
7.5258e-32
1.04361e-31
1.1287e-31
9.88402e-32
6.3655e-32
5.52558e-33
-3.81906e-32
-6.40759e-32
-4.92848e-32
4.14376e-33
6.82257e-32
1.31462e-31
1.5495e-31
1.3969e-31
8.78059e-32
2.40832e-32
-2.50105e-32
-4.56114e-32
-2.44074e-32
6.21865e-33
5.49221e-32
7.52482e-32
7.58215e-32
6.87407e-32
2.38632e-32
1.44016e-32
-1.81406e-32
-2.44159e-32
-4.56165e-33
)
;

boundaryField
{
    left
    {
        type            calculated;
        value           uniform 0;
    }
    right
    {
        type            calculated;
        value           uniform 0;
    }
    empty
    {
        type            empty;
        value           nonuniform List<scalar> 0();
    }
}


// ************************************************************************* //
