/*--------------------------------*- C++ -*----------------------------------*\
| =========                 |                                                 |
| \\      /  F ield         | OpenFOAM: The Open Source CFD Toolbox           |
|  \\    /   O peration     | Version:  2106                                  |
|   \\  /    A nd           | Website:  www.openfoam.com                      |
|    \\/     M anipulation  |                                                 |
\*---------------------------------------------------------------------------*/
FoamFile
{
    version     2.0;
    format      ascii;
    arch        "LSB;label=32;scalar=64";
    class       volVectorField;
    location    "0.485";
    object      U;
}
// * * * * * * * * * * * * * * * * * * * * * * * * * * * * * * * * * * * * * //

dimensions      [0 1 -1 0 0 0 0];

internalField   nonuniform List<vector> 
11200
(
(0.662462404492 0.150569441724 0)
(0.558948677138 0.103243388251 0)
(0.383850745522 0.0513512241802 0)
(0.283747607755 0.0248708551659 0)
(0.232075287543 0.0124170451872 0)
(0.201908609581 0.00662281682108 0)
(0.183197961051 0.00380291438078 0)
(0.17127652129 0.00231586995417 0)
(0.163510342741 0.00146450635594 0)
(0.15838880894 0.000944891951771 0)
(0.155006672389 0.000615176087884 0)
(0.152786719117 0.000402232702396 0)
(0.151346570949 0.000264230811841 0)
(0.150428336405 0.000175248443146 0)
(0.149856735259 0.000118358798739 0)
(0.149512537779 8.21580732443e-05 0)
(0.149314981947 5.88640850072e-05 0)
(0.149209625756 4.33142356902e-05 0)
(0.149159772423 3.29329929978e-05 0)
(0.149142538671 2.81843917835e-05 0)
(0.149144700331 2.7681666886e-05 0)
(0.149156981939 2.9887407959e-05 0)
(0.149172610111 3.30476475927e-05 0)
(0.149188164824 3.59629473238e-05 0)
(0.149202382374 3.8598217455e-05 0)
(0.149214663126 4.10373364655e-05 0)
(0.149224838862 4.33147727552e-05 0)
(0.14923301541 4.54614973163e-05 0)
(0.149239428458 4.75171030626e-05 0)
(0.149244359157 4.9528487243e-05 0)
(0.149248092003 5.15568470268e-05 0)
(0.149250894198 5.36929241534e-05 0)
(0.149252963458 5.60203451638e-05 0)
(0.149254472058 5.84008617222e-05 0)
(0.149255554031 6.07610023754e-05 0)
(0.149256296679 6.30819563887e-05 0)
(0.149256797277 6.53725730954e-05 0)
(0.14925713941 6.7647338822e-05 0)
(0.149257375713 6.99176959544e-05 0)
(0.149257533855 7.2189269138e-05 0)
(0.149257632405 7.44622608652e-05 0)
(0.149257686064 7.67381539669e-05 0)
(0.149257707188 7.90173479411e-05 0)
(0.149257704724 8.12981413247e-05 0)
(0.149257684384 8.35785488739e-05 0)
(0.149257652217 8.58559670716e-05 0)
(0.149257614236 8.81272967402e-05 0)
(0.149257575331 9.03903546789e-05 0)
(0.14925754131 9.26420222535e-05 0)
(0.149257518918 9.48792303021e-05 0)
(0.14925751512 9.70993041049e-05 0)
(0.149257539186 9.92994734559e-05 0)
(0.149257603119 0.000101476228055 0)
(0.149257723544 0.000103625911346 0)
(0.14925792588 0.000105744543485 0)
(0.149258245407 0.000107826535312 0)
(0.14925873192 0.000109864091152 0)
(0.149259460859 0.000111846976752 0)
(0.149260542952 0.000113762915977 0)
(0.149262136958 0.000115587560865 0)
(0.14926449395 0.000117263326883 0)
(0.149268022931 0.000118708379803 0)
(0.149273189741 0.000119965303924 0)
(0.149280645108 0.00012122814669 0)
(0.149291424478 0.000122962809706 0)
(0.149307051074 0.000125338923676 0)
(0.149329914721 0.000128119626175 0)
(0.14936371039 0.000131078919724 0)
(0.149414029632 0.000134001298015 0)
(0.149489101934 0.000136775947583 0)
(0.149600862665 0.000140686244699 0)
(0.149772162374 0.00015156218825 0)
(0.150040762625 0.000172280072709 0)
(0.150469803138 0.000202515216864 0)
(0.151195075079 0.000232421230628 0)
(0.152494193757 0.000191608544191 0)
(0.155023250696 -0.000216784229349 0)
(0.1623763896 -0.00210989588898 0)
(0.187703374799 -0.0107874823201 0)
(0.204355716217 -0.0496544767874 0)
(0.965408255549 0.289214704916 0)
(0.961962862745 0.252656039177 0)
(0.823574396168 0.159021441236 0)
(0.698139373742 0.0959957311089 0)
(0.610225468999 0.0582481144744 0)
(0.548971496481 0.0362148538205 0)
(0.506588892098 0.0231612858428 0)
(0.477567269358 0.0151375158109 0)
(0.457745488111 0.0100177551875 0)
(0.444228452293 0.00665814049522 0)
(0.435053285137 0.00441555471727 0)
(0.428873099831 0.00290686351504 0)
(0.424754179244 0.00189105545078 0)
(0.422046625912 0.00121004173085 0)
(0.420297786395 0.000757159471937 0)
(0.419193175869 0.000459251824694 0)
(0.418515570552 0.000265850866376 0)
(0.418116424353 0.000142396475253 0)
(0.417895822281 6.61064078847e-05 0)
(0.417786773938 2.30893943884e-05 0)
(0.417745364048 1.40453890864e-06 0)
(0.417742093668 -1.01662930614e-05 0)
(0.417756700221 -1.37182199438e-05 0)
(0.417778670118 -1.32723451277e-05 0)
(0.417802978913 -1.08406905551e-05 0)
(0.417826367166 -7.49814073273e-06 0)
(0.417847140473 -3.88255015157e-06 0)
(0.417864699309 -3.63944497584e-07 0)
(0.41787904647 2.85692332669e-06 0)
(0.417890495465 5.67609807975e-06 0)
(0.417899517326 8.02838388823e-06 0)
(0.417906606667 9.82913809338e-06 0)
(0.417911966564 1.09969450061e-05 0)
(0.417915832095 1.18484427062e-05 0)
(0.417918583106 1.26690657945e-05 0)
(0.417920494601 1.34257284666e-05 0)
(0.417921809906 1.40992498712e-05 0)
(0.417922721392 1.47148879506e-05 0)
(0.41792335256 1.53014044227e-05 0)
(0.417923772824 1.58724537337e-05 0)
(0.417924033081 1.64269963711e-05 0)
(0.417924175159 1.69707191784e-05 0)
(0.417924229045 1.75081034945e-05 0)
(0.417924216675 1.80408668635e-05 0)
(0.417924154004 1.85721894103e-05 0)
(0.417924054611 1.91049271096e-05 0)
(0.417923932034 1.96403744618e-05 0)
(0.417923798176 2.01803978418e-05 0)
(0.417923665657 2.07276595217e-05 0)
(0.417923550279 2.12851594293e-05 0)
(0.417923470553 2.18534899462e-05 0)
(0.417923450362 2.24329179997e-05 0)
(0.417923522012 2.30226206258e-05 0)
(0.417923731034 2.36217409809e-05 0)
(0.417924142811 2.42299786694e-05 0)
(0.417924848412 2.4846416104e-05 0)
(0.417925978252 2.54667171783e-05 0)
(0.417927727933 2.60793939412e-05 0)
(0.417930378097 2.66691400219e-05 0)
(0.417934318129 2.72041570604e-05 0)
(0.417940158045 2.76324345519e-05 0)
(0.417949000128 2.79095451636e-05 0)
(0.417962327293 2.81977591181e-05 0)
(0.41798228377 2.77281920394e-05 0)
(0.41801162787 2.50905779732e-05 0)
(0.418053972459 1.92402232495e-05 0)
(0.418115523036 9.36842933169e-06 0)
(0.418206396551 -6.06399655057e-06 0)
(0.418342195326 -2.95806277636e-05 0)
(0.418547817043 -6.48608235671e-05 0)
(0.418865155372 -0.000116092133205 0)
(0.419363792696 -0.000188237966249 0)
(0.420157182325 -0.00030802766749 0)
(0.421448959577 -0.000533006055641 0)
(0.423630703661 -0.000999970772564 0)
(0.427420982057 -0.00209055330083 0)
(0.434241689505 -0.00485614315797 0)
(0.448267248427 -0.012252888809 0)
(0.474643695851 -0.0342383293814 0)
(0.478160189854 -0.0987596893633 0)
(1.0222209664 0.238416184659 0)
(1.08213753285 0.295926650962 0)
(1.03447723125 0.239503065638 0)
(0.954615415241 0.174290164563 0)
(0.879992062542 0.121345469337 0)
(0.818614442604 0.0830993856213 0)
(0.771410856747 0.0567316687498 0)
(0.736634395164 0.0387409698071 0)
(0.711624434772 0.0264327873301 0)
(0.693916620351 0.0179731039004 0)
(0.681541408063 0.0121424459227 0)
(0.673000113385 0.00812490514129 0)
(0.667180646516 0.00536631727813 0)
(0.663271675419 0.00348444061285 0)
(0.660688503715 0.0022125572976 0)
(0.659014179315 0.00136337764506 0)
(0.657954499289 0.000805241156442 0)
(0.657304207327 0.00044591466583 0)
(0.656921789953 0.000221067038925 0)
(0.656710226758 8.55805206728e-05 0)
(0.656603365569 8.35822154775e-06 0)
(0.656561821297 -3.37191897001e-05 0)
(0.656557927358 -5.68540870786e-05 0)
(0.656571411614 -6.68737006898e-05 0)
(0.656592952495 -6.8481833366e-05 0)
(0.656616786093 -6.55616659161e-05 0)
(0.656639604455 -6.05524801134e-05 0)
(0.656659800317 -5.48645291782e-05 0)
(0.656676787276 -4.92821837744e-05 0)
(0.656690541012 -4.42121133124e-05 0)
(0.656701307123 -3.98492463785e-05 0)
(0.656709470917 -3.63123403253e-05 0)
(0.65671572923 -3.37064999391e-05 0)
(0.656720773569 -3.18684083676e-05 0)
(0.656724650111 -3.08227474034e-05 0)
(0.656727374082 -3.03158846989e-05 0)
(0.656729257709 -3.02594862347e-05 0)
(0.656730581239 -3.05683546918e-05 0)
(0.65673151034 -3.1093963121e-05 0)
(0.656732132238 -3.17538923445e-05 0)
(0.656732518999 -3.25190165853e-05 0)
(0.656732734921 -3.33536450796e-05 0)
(0.656732823539 -3.42332155555e-05 0)
(0.656732818425 -3.51405771373e-05 0)
(0.656732745481 -3.60596551555e-05 0)
(0.656732624237 -3.69784135941e-05 0)
(0.656732472783 -3.78897380714e-05 0)
(0.656732308971 -3.87887921551e-05 0)
(0.656732152669 -3.96702868162e-05 0)
(0.656732024155 -4.05270381443e-05 0)
(0.65673194774 -4.13558231194e-05 0)
(0.656731957937 -4.21528029556e-05 0)
(0.656732102135 -4.29172785399e-05 0)
(0.656732448256 -4.36531668477e-05 0)
(0.656733093771 -4.43749047812e-05 0)
(0.656734173105 -4.51139801323e-05 0)
(0.656735874642 -4.59278242498e-05 0)
(0.656738480862 -4.69098789895e-05 0)
(0.656742402398 -4.81830809793e-05 0)
(0.656748235236 -4.99742068306e-05 0)
(0.656756925091 -5.27999535884e-05 0)
(0.656770125644 -5.76353514087e-05 0)
(0.656789126308 -6.53078280649e-05 0)
(0.656815375835 -7.66679824224e-05 0)
(0.65685276123 -9.34219989087e-05 0)
(0.656907996586 -0.00011795420777 0)
(0.656990444053 -0.000153471612621 0)
(0.657113899882 -0.000205266048864 0)
(0.657300187185 -0.000281855201352 0)
(0.657584702569 -0.000397114966252 0)
(0.658025576184 -0.000575394750906 0)
(0.658711996681 -0.000863951616323 0)
(0.659791004494 -0.00135283691353 0)
(0.661520102683 -0.00221513900989 0)
(0.664341374567 -0.0038133295274 0)
(0.668950429576 -0.00694605591575 0)
(0.676372877743 -0.0133516522375 0)
(0.68861608538 -0.0268405492156 0)
(0.705238322812 -0.0563120824799 0)
(0.700486363456 -0.113066645785 0)
(1.02251475545 0.1708071492 0)
(1.10138976042 0.27649647646 0)
(1.11752426655 0.266664798469 0)
(1.09214661252 0.21990169956 0)
(1.05187816387 0.168168849361 0)
(1.01020823177 0.123567399075 0)
(0.973494696204 0.0888375239322 0)
(0.943864558058 0.0630063733855 0)
(0.921142797383 0.0442232048245 0)
(0.904284066007 0.030742392133 0)
(0.892074857843 0.0211562922576 0)
(0.883404496159 0.0143954657917 0)
(0.877352653608 0.00966794501884 0)
(0.873197689199 0.00639383434373 0)
(0.870392911661 0.00415116234135 0)
(0.86853402381 0.00263448862962 0)
(0.867327627872 0.00162401617944 0)
(0.866564224847 0.000962675622518 0)
(0.866096468779 0.000539123017261 0)
(0.865822228985 0.000275155107982 0)
(0.865671388557 0.000117070871215 0)
(0.865595142739 2.8795742431e-05 0)
(0.865564091616 -1.93212735256e-05 0)
(0.86556129303 -4.12579905809e-05 0)
(0.865572649114 -4.76630458675e-05 0)
(0.865589670288 -4.55240670863e-05 0)
(0.865607997125 -3.91565411227e-05 0)
(0.865625354921 -3.11475282729e-05 0)
(0.865640658705 -2.29687108419e-05 0)
(0.86565353945 -1.53870192704e-05 0)
(0.865664027516 -8.73086795416e-06 0)
(0.865672328398 -3.05390990235e-06 0)
(0.865678694812 1.72362347581e-06 0)
(0.865683334874 5.45439804902e-06 0)
(0.865686670009 8.02146775667e-06 0)
(0.865689087803 9.77852353028e-06 0)
(0.865690743435 1.11341939933e-05 0)
(0.865691933186 1.22813641853e-05 0)
(0.865692829965 1.32524248692e-05 0)
(0.865693450649 1.41403608926e-05 0)
(0.865693842079 1.49366040547e-05 0)
(0.865694067562 1.56638683455e-05 0)
(0.865694163005 1.63376245648e-05 0)
(0.865694159702 1.69736917203e-05 0)
(0.865694082529 1.75867286887e-05 0)
(0.865693948402 1.81875620883e-05 0)
(0.865693774094 1.87826267236e-05 0)
(0.865693578455 1.93783345735e-05 0)
(0.86569338515 1.9982186658e-05 0)
(0.865693218987 2.0605394303e-05 0)
(0.865693109586 2.12352299954e-05 0)
(0.865693097325 2.18569446421e-05 0)
(0.865693233951 2.24526031404e-05 0)
(0.865693588984 2.29963562806e-05 0)
(0.865694257047 2.34531089548e-05 0)
(0.8656953678 2.37905604361e-05 0)
(0.865697106996 2.39591265229e-05 0)
(0.865699772418 2.38432454991e-05 0)
(0.865703765898 2.3298821371e-05 0)
(0.865709498335 2.19076985051e-05 0)
(0.865717475314 1.91143186924e-05 0)
(0.865729306352 1.41813930418e-05 0)
(0.865747566158 5.29207409404e-06 0)
(0.865775240286 -9.11877565354e-06 0)
(0.865816193975 -3.10519466357e-05 0)
(0.865876360149 -6.44863102094e-05 0)
(0.865965082821 -0.000116294877499 0)
(0.866096880576 -0.000197235447395 0)
(0.866294307279 -0.000324565268193 0)
(0.866592181464 -0.000526754228275 0)
(0.867044107052 -0.000852735446967 0)
(0.867735139808 -0.00138942088922 0)
(0.868801598157 -0.00228553724775 0)
(0.870456675969 -0.00381560155816 0)
(0.873019152602 -0.00650372365129 0)
(0.876887736326 -0.0113590627785 0)
(0.882384614269 -0.0202502371127 0)
(0.889692526767 -0.0364471071838 0)
(0.896365909494 -0.0654801348706 0)
(0.886534304033 -0.110019836209 0)
(1.01287875158 0.118961019828 0)
(1.08820671034 0.231806934899 0)
(1.13741367582 0.253106764473 0)
(1.15409087332 0.228992755044 0)
(1.14994211518 0.188368361808 0)
(1.13538466002 0.146579847735 0)
(1.11758895127 0.110150969423 0)
(1.10059500219 0.0808162248789 0)
(1.08612456773 0.0582265778526 0)
(1.07459091744 0.0413189847723 0)
(1.06579145662 0.0289160185061 0)
(1.05928797658 0.0199600970773 0)
(1.05459975015 0.0135815567312 0)
(1.05129075132 0.00909744027464 0)
(1.04899983304 0.00598615163604 0)
(1.04744339065 0.00385696541951 0)
(1.04640651904 0.00242159760646 0)
(1.04573060512 0.00147015154375 0)
(1.04530105137 0.000851705356621 0)
(1.04503655694 0.000459021381769 0)
(1.04488019797 0.000216763185099 0)
(1.04479258655 7.30248309003e-05 0)
(1.04474872835 -5.49681613404e-06 0)
(1.0447318385 -4.40016738134e-05 0)
(1.04472960004 -5.93802038892e-05 0)
(1.04473509899 -6.17159468698e-05 0)
(1.04474406435 -5.72449455385e-05 0)
(1.04475396701 -4.98055026691e-05 0)
(1.04476342637 -4.16491512152e-05 0)
(1.04477177099 -3.39965713171e-05 0)
(1.04477874826 -2.74333938941e-05 0)
(1.04478434742 -2.21625320598e-05 0)
(1.04478871602 -1.81406565378e-05 0)
(1.04479206492 -1.51519978416e-05 0)
(1.04479465144 -1.28196192363e-05 0)
(1.04479677116 -1.10218692195e-05 0)
(1.04479853468 -9.52991420257e-06 0)
(1.04479988647 -8.2384730222e-06 0)
(1.04480089574 -7.21840757678e-06 0)
(1.04480161125 -6.54796215216e-06 0)
(1.04480205319 -6.16684088616e-06 0)
(1.0448023071 -5.95757684454e-06 0)
(1.04480241627 -5.86900650408e-06 0)
(1.04480241889 -5.85270163119e-06 0)
(1.04480234183 -5.86773833221e-06 0)
(1.04480220332 -5.89435824615e-06 0)
(1.04480202242 -5.92280537566e-06 0)
(1.04480182289 -5.94802312142e-06 0)
(1.04480163419 -5.97167262631e-06 0)
(1.04480146665 -6.00721970451e-06 0)
(1.04480133294 -6.0406157229e-06 0)
(1.04480127474 -6.06875952367e-06 0)
(1.04480134692 -6.09807943174e-06 0)
(1.04480162658 -6.14399077753e-06 0)
(1.04480223906 -6.24851279536e-06 0)
(1.044803354 -6.53433508314e-06 0)
(1.04480515959 -7.25809865828e-06 0)
(1.04480796206 -8.69582896621e-06 0)
(1.04481206886 -1.13462521417e-05 0)
(1.04481795771 -1.51927532806e-05 0)
(1.04482663489 -2.01222800028e-05 0)
(1.04483925403 -2.63817889168e-05 0)
(1.04485713013 -3.6230108752e-05 0)
(1.04488256092 -5.26550578163e-05 0)
(1.04491902035 -7.98671584797e-05 0)
(1.04497166811 -0.000124112786774 0)
(1.04504811172 -0.000195161532374 0)
(1.04515970351 -0.000308590553856 0)
(1.04532359472 -0.000489564306128 0)
(1.04556565348 -0.000779098054507 0)
(1.04592456396 -0.00124449114742 0)
(1.04645817693 -0.00199735787082 0)
(1.04725058908 -0.00322818709742 0)
(1.04841471061 -0.00526766019993 0)
(1.05007779433 -0.00869244509838 0)
(1.05229641444 -0.0144959746181 0)
(1.05482646749 -0.0242847559256 0)
(1.05687829306 -0.0403678585483 0)
(1.05574626248 -0.0655833618736 0)
(1.04213372983 -0.0994327365324 0)
(1.00447483502 0.0814039940343 0)
(1.06917237551 0.181288537362 0)
(1.1308056916 0.216950419154 0)
(1.17375001032 0.210789157514 0)
(1.19865265925 0.183690080001 0)
(1.21019988719 0.149751686891 0)
(1.21350256313 0.116779147551 0)
(1.21251724358 0.0882206801196 0)
(1.20973098306 0.0650481514459 0)
(1.20651119331 0.0470209074163 0)
(1.20351912785 0.0334068052209 0)
(1.20101144534 0.0233557275618 0)
(1.19903444464 0.0160720081942 0)
(1.19753877315 0.0108795079774 0)
(1.19644130898 0.0072341833406 0)
(1.19565558159 0.00471351595361 0)
(1.1951048875 0.00299762871144 0)
(1.19472647614 0.00184916287258 0)
(1.19447149699 0.00109496509654 0)
(1.19430318931 0.000610618346206 0)
(1.19419455342 0.000307995098596 0)
(1.19412627329 0.000125777891835 0)
(1.19408522975 2.22325952802e-05 0)
(1.19406197938 -3.24432800467e-05 0)
(1.19404969004 -5.72637551716e-05 0)
(1.19404420491 -6.45920105119e-05 0)
(1.1940427232 -6.23730651303e-05 0)
(1.19404342517 -5.55214249503e-05 0)
(1.19404519372 -4.69472391323e-05 0)
(1.19404736984 -3.82646333795e-05 0)
(1.19404958027 -3.02735984599e-05 0)
(1.19405163263 -2.32783098382e-05 0)
(1.19405345957 -1.73035308553e-05 0)
(1.19405505679 -1.22743744847e-05 0)
(1.19405644204 -8.08479276908e-06 0)
(1.19405763623 -4.68046604573e-06 0)
(1.19405861072 -2.06659621759e-06 0)
(1.19405931129 -1.74754319248e-07 0)
(1.19405969792 1.14419968929e-06 0)
(1.19405984408 2.00098222024e-06 0)
(1.19405992795 2.67906089661e-06 0)
(1.19405998543 3.27961259032e-06 0)
(1.19405998743 3.80188891625e-06 0)
(1.19405995054 4.25802266683e-06 0)
(1.19405987375 4.65902522526e-06 0)
(1.19405974832 5.02075130509e-06 0)
(1.19405957969 5.35670463029e-06 0)
(1.19405937885 5.67025027209e-06 0)
(1.19405915674 5.95453680666e-06 0)
(1.19405895345 6.19103956083e-06 0)
(1.19405881681 6.40010106892e-06 0)
(1.19405877726 6.57658312364e-06 0)
(1.19405888086 6.69409959491e-06 0)
(1.1940591819 6.71133406064e-06 0)
(1.19405970855 6.56658023775e-06 0)
(1.19406044424 6.16265570252e-06 0)
(1.19406148837 5.36049955149e-06 0)
(1.19406299244 3.74448199575e-06 0)
(1.19406566825 9.48049222487e-07 0)
(1.19407053718 -3.34559820374e-06 0)
(1.19407807106 -9.92131306212e-06 0)
(1.19408822446 -2.01418383553e-05 0)
(1.19410180007 -3.60400726958e-05 0)
(1.19412079127 -6.05358169275e-05 0)
(1.1941473256 -9.82143693386e-05 0)
(1.19418423255 -0.000156398096061 0)
(1.19423551146 -0.000246736187092 0)
(1.19430680355 -0.000387710204403 0)
(1.19440600356 -0.000608779178574 0)
(1.19454390356 -0.000957269985995 0)
(1.19473456299 -0.0015096809075 0)
(1.1949947663 -0.00239027606374 0)
(1.19533934235 -0.0038022433718 0)
(1.19576556422 -0.00607843156018 0)
(1.19621311726 -0.00975753734291 0)
(1.19646229406 -0.0156831333995 0)
(1.19592633163 -0.0250657263852 0)
(1.19345082591 -0.0393603422155 0)
(1.18670100374 -0.0598091027056 0)
(1.1701591474 -0.0851008702328 0)
(0.99896232599 0.0544316223761 0)
(1.05310957085 0.133401606948 0)
(1.11628268741 0.170777559473 0)
(1.1730127264 0.175143874663 0)
(1.21791246993 0.159583609955 0)
(1.25049858583 0.134951023974 0)
(1.27288491637 0.108411660363 0)
(1.28776722314 0.0838849743107 0)
(1.29745267855 0.0630565730672 0)
(1.30366074624 0.0462999201942 0)
(1.30759233742 0.0333205117206 0)
(1.31005369481 0.0235495192981 0)
(1.31157361968 0.0163599023302 0)
(1.31249492421 0.0111713096391 0)
(1.31303861976 0.00749150253847 0)
(1.31334671435 0.00492448374538 0)
(1.31351013155 0.00316295537657 0)
(1.31358676477 0.00197475440303 0)
(1.31361314458 0.00118820189617 0)
(1.31361199923 0.000678636377792 0)
(1.31359716665 0.0003570169496 0)
(1.31357685188 0.000160763352076 0)
(1.3135558658 4.64785400656e-05 0)
(1.31353658094 -1.58608928256e-05 0)
(1.31351993644 -4.60511754346e-05 0)
(1.31350626443 -5.7063723261e-05 0)
(1.3134953796 -5.73213427075e-05 0)
(1.31348694368 -5.208613684e-05 0)
(1.31348056668 -4.45264417552e-05 0)
(1.31347586274 -3.64680314528e-05 0)
(1.31347248008 -2.88820841331e-05 0)
(1.31347011556 -2.22225717738e-05 0)
(1.31346851141 -1.66407001598e-05 0)
(1.31346744004 -1.21434968426e-05 0)
(1.31346673776 -8.66498711749e-06 0)
(1.31346630845 -6.10433799977e-06 0)
(1.31346604952 -4.32585810198e-06 0)
(1.31346587112 -3.12183102951e-06 0)
(1.31346577025 -2.26280503759e-06 0)
(1.31346583095 -1.54595322232e-06 0)
(1.31346601313 -9.70368623229e-07 0)
(1.31346613692 -5.59524988493e-07 0)
(1.31346615198 -2.05563368372e-07 0)
(1.31346609025 1.25146625186e-07 0)
(1.31346597207 4.29230203277e-07 0)
(1.31346581214 7.14636556742e-07 0)
(1.31346561647 9.93691323435e-07 0)
(1.31346539073 1.27662684893e-06 0)
(1.31346514639 1.57256929469e-06 0)
(1.31346491707 1.88496246207e-06 0)
(1.31346472665 2.1658961363e-06 0)
(1.31346458181 2.37420946156e-06 0)
(1.31346451179 2.46431464936e-06 0)
(1.31346457015 2.37160428526e-06 0)
(1.31346484428 2.01156848041e-06 0)
(1.31346545311 1.30121016618e-06 0)
(1.31346634356 1.83100044739e-07 0)
(1.31346765508 -1.50746826852e-06 0)
(1.31346981212 -4.04450524675e-06 0)
(1.3134729939 -8.15673992348e-06 0)
(1.31347743066 -1.51192571278e-05 0)
(1.31348335277 -2.64874522544e-05 0)
(1.31349104856 -4.38657650023e-05 0)
(1.31350100979 -7.04353265963e-05 0)
(1.31351355714 -0.000111231329516 0)
(1.31352878342 -0.000174004069417 0)
(1.31354631821 -0.000270837616223 0)
(1.31356486177 -0.0004206921109 0)
(1.3135812431 -0.000653384815672 0)
(1.31358858375 -0.00101612778654 0)
(1.31357285446 -0.00158390312076 0)
(1.31350665375 -0.00247573198875 0)
(1.31333581919 -0.00387880868418 0)
(1.3129528732 -0.00608538104999 0)
(1.31214794825 -0.00953973457855 0)
(1.31051589746 -0.0148830940213 0)
(1.30730372623 -0.0229432322448 0)
(1.30130240003 -0.034559806292 0)
(1.29064514125 -0.0501692513392 0)
(1.27186161959 -0.0685439313061 0)
(0.995736074668 0.034633857983 0)
(1.04179514738 0.0905689215406 0)
(1.10222839505 0.121549567219 0)
(1.16491412742 0.129605837307 0)
(1.22202567585 0.122009272218 0)
(1.2695189328 0.106019942274 0)
(1.30680224897 0.0870975589856 0)
(1.33499536252 0.0686366827615 0)
(1.35574478158 0.052369838798 0)
(1.37069617332 0.0389256158637 0)
(1.38128276056 0.0282980693889 0)
(1.38866268328 0.0201712721395 0)
(1.39373034182 0.0141175045433 0)
(1.39715661885 0.00970533029349 0)
(1.39943436383 0.00655059079629 0)
(1.40091968924 0.00433445233056 0)
(1.401866239 0.00280414535481 0)
(1.40245226292 0.00176574632611 0)
(1.40280136399 0.00107420107584 0)
(1.40299806471 0.000623243215206 0)
(1.40309929054 0.000336418973301 0)
(1.40314274972 0.000159633680601 0)
(1.40315301798 5.51745618435e-05 0)
(1.40314553934 -2.98881312441e-06 0)
(1.40312979332 -3.21150179642e-05 0)
(1.40311140796 -4.38847877281e-05 0)
(1.40309338996 -4.57579404377e-05 0)
(1.40307726317 -4.24194664213e-05 0)
(1.4030636267 -3.67319647366e-05 0)
(1.4030525543 -3.03722313934e-05 0)
(1.40304384372 -2.42546025347e-05 0)
(1.40303716821 -1.8825376782e-05 0)
(1.40303216883 -1.42536840703e-05 0)
(1.40302849712 -1.05417185849e-05 0)
(1.40302585591 -7.58790535114e-06 0)
(1.40302401299 -5.26894246411e-06 0)
(1.40302279136 -3.46261934776e-06 0)
(1.4030220407 -2.02445385991e-06 0)
(1.40302159476 -8.49928279647e-07 0)
(1.40302125784 8.21471598842e-08 0)
(1.40302095888 7.90586848281e-07 0)
(1.40302077681 1.27929181819e-06 0)
(1.40302070058 1.6491413612e-06 0)
(1.40302063788 1.96460710602e-06 0)
(1.40302055392 2.26394243592e-06 0)
(1.40302044367 2.56535783122e-06 0)
(1.40302030852 2.87848301743e-06 0)
(1.40302015317 3.20840599335e-06 0)
(1.40301998086 3.55498945387e-06 0)
(1.40301978531 3.90886794609e-06 0)
(1.40301957687 4.22866328187e-06 0)
(1.40301938751 4.48135102298e-06 0)
(1.40301924454 4.6273086044e-06 0)
(1.40301917162 4.60807967009e-06 0)
(1.40301918322 4.33153232722e-06 0)
(1.40301928435 3.65906373057e-06 0)
(1.40301950366 2.38461014599e-06 0)
(1.4030198104 3.89146850854e-07 0)
(1.40302045498 -2.76769166074e-06 0)
(1.40302164752 -7.82577403668e-06 0)
(1.40302320302 -1.55937319136e-05 0)
(1.40302479631 -2.73960748048e-05 0)
(1.40302596824 -4.50918809561e-05 0)
(1.40302598199 -7.16724123537e-05 0)
(1.40302334959 -0.00011173208195 0)
(1.40301534261 -0.000172303157334 0)
(1.40299716371 -0.00026426104071 0)
(1.4029606357 -0.00040448632555 0)
(1.40289184026 -0.00061904617498 0)
(1.4027670945 -0.000948547401212 0)
(1.40254638994 -0.00145630169087 0)
(1.40216340837 -0.00224072856411 0)
(1.40150667714 -0.00345086097362 0)
(1.40038796657 -0.00531035629998 0)
(1.39849413542 -0.00814191739296 0)
(1.39531224519 -0.0123801786684 0)
(1.39002955979 -0.0185358389741 0)
(1.38149847043 -0.0270462745597 0)
(1.36822375858 -0.0379927776294 0)
(1.34781466582 -0.0504825686542 0)
(0.994011531972 0.0192358057955 0)
(1.0348476397 0.0523338418667 0)
(1.09199263468 0.072363130505 0)
(1.15662420987 0.0791292357892 0)
(1.22032117451 0.0761045500318 0)
(1.27701946334 0.0673339747834 0)
(1.32424419805 0.0561509054223 0)
(1.36181574286 0.0447990109657 0)
(1.39068531293 0.0345303753869 0)
(1.41226075375 0.0258814281842 0)
(1.42801822499 0.0189465180149 0)
(1.43929884476 0.0135849753759 0)
(1.44722807987 0.00955652729069 0)
(1.45270413901 0.00660010898078 0)
(1.45641896828 0.00447418541549 0)
(1.45889145852 0.00297351121918 0)
(1.46050232768 0.00193276953079 0)
(1.4615257287 0.00122369777175 0)
(1.46215574866 0.00074955737978 0)
(1.46252757776 0.000439026819526 0)
(1.46273385962 0.000240531759383 0)
(1.46283700803 0.000117423318632 0)
(1.46287831797 4.40605751645e-05 0)
(1.46288456698 2.70088709532e-06 0)
(1.46287245564 -1.84361434868e-05 0)
(1.46285212045 -2.74321088353e-05 0)
(1.46282958791 -2.94347250081e-05 0)
(1.46280807062 -2.76876424972e-05 0)
(1.46278909469 -2.41889060384e-05 0)
(1.46277320335 -2.01183191557e-05 0)
(1.46276038768 -1.61256279931e-05 0)
(1.46275035243 -1.25322440732e-05 0)
(1.4627426881 -9.46522451492e-06 0)
(1.46273696461 -6.9362703316e-06 0)
(1.46273278382 -4.89087601324e-06 0)
(1.46272980309 -3.26028355332e-06 0)
(1.46272773458 -1.98149722806e-06 0)
(1.4627263215 -1.01353183631e-06 0)
(1.46272534951 -3.12675051146e-07 0)
(1.46272475294 2.09582487864e-07 0)
(1.46272441851 6.89455627395e-07 0)
(1.46272419344 1.16320613596e-06 0)
(1.46272404458 1.58455246876e-06 0)
(1.46272393375 1.95974501666e-06 0)
(1.46272383145 2.31080738089e-06 0)
(1.46272372024 2.65139343258e-06 0)
(1.46272358936 2.98754975594e-06 0)
(1.46272343268 3.31700500349e-06 0)
(1.46272324683 3.6292211247e-06 0)
(1.46272303004 3.91070396657e-06 0)
(1.46272278526 4.15293908135e-06 0)
(1.46272251859 4.32387796892e-06 0)
(1.46272223637 4.3711162403e-06 0)
(1.46272194666 4.22367916843e-06 0)
(1.4627216687 3.79114578024e-06 0)
(1.46272142575 2.96555839069e-06 0)
(1.46272116591 1.62689338825e-06 0)
(1.46272081421 -3.64809127788e-07 0)
(1.46272026344 -3.21979575227e-06 0)
(1.46271936081 -7.83712761657e-06 0)
(1.46271782854 -1.49977509158e-05 0)
(1.4627149909 -2.57943915626e-05 0)
(1.46270973562 -4.17742108568e-05 0)
(1.46270025947 -6.53297586301e-05 0)
(1.46268350337 -0.000100064195684 0)
(1.46265433788 -0.000151374505185 0)
(1.46260425676 -0.000227445436397 0)
(1.4625195012 -0.000340761839487 0)
(1.46237762767 -0.000509947646154 0)
(1.46214183175 -0.000763420988103 0)
(1.46175216461 -0.00114490611182 0)
(1.46111404072 -0.00172209221193 0)
(1.46007643047 -0.00259074819616 0)
(1.45839846926 -0.00389036620999 0)
(1.45570636456 -0.00581328890772 0)
(1.45143493283 -0.00860256824947 0)
(1.44476413085 -0.0125182357695 0)
(1.43462539956 -0.0177405450714 0)
(1.41976005748 -0.0242174937729 0)
(1.39832342721 -0.0314027551469 0)
(0.993269668019 0.00617015145642 0)
(1.03158100387 0.0171020490303 0)
(1.08672182597 0.0239906526975 0)
(1.15174555431 0.0265606704554 0)
(1.21823537307 0.025818063288 0)
(1.27925775037 0.0230488896461 0)
(1.33140136606 0.0193656331145 0)
(1.37377599105 0.0155468569404 0)
(1.40691053567 0.0120449265372 0)
(1.43203313492 0.00906639339615 0)
(1.4506021497 0.00666058684931 0)
(1.46402985993 0.00479008263076 0)
(1.47355016531 0.00337841982978 0)
(1.48017564284 0.00233873119808 0)
(1.48470230209 0.00158890946996 0)
(1.48773622429 0.00105828762917 0)
(1.48972736741 0.000689464909841 0)
(1.49100280251 0.000437643873188 0)
(1.49179588742 0.000268894062461 0)
(1.49227026295 0.000158121549619 0)
(1.49253876027 8.71365735692e-05 0)
(1.49267784306 4.29875036435e-05 0)
(1.49273838463 1.65975805581e-05 0)
(1.49275356939 1.67609964903e-06 0)
(1.49274434654 -6.05796330603e-06 0)
(1.49272357526 -9.40490728493e-06 0)
(1.49269895049 -1.0212870607e-05 0)
(1.49267469966 -9.65163277923e-06 0)
(1.49265291891 -8.44010911257e-06 0)
(1.49263444869 -6.99576468305e-06 0)
(1.49261941122 -5.55911839389e-06 0)
(1.49260754358 -4.24922612882e-06 0)
(1.49259841671 -3.11351240114e-06 0)
(1.4925915576 -2.15824426206e-06 0)
(1.49258651296 -1.36710948845e-06 0)
(1.49258288188 -7.18708490348e-07 0)
(1.49258032871 -1.92071536065e-07 0)
(1.49257858299 2.33981611561e-07 0)
(1.49257743876 6.05601427529e-07 0)
(1.49257671744 9.74915992854e-07 0)
(1.49257626192 1.2792138309e-06 0)
(1.4925759785 1.56138796139e-06 0)
(1.4925758097 1.83952409515e-06 0)
(1.49257570394 2.12374001981e-06 0)
(1.49257562217 2.42146397623e-06 0)
(1.49257553983 2.73615346374e-06 0)
(1.49257544074 3.06725700266e-06 0)
(1.49257531299 3.41036041226e-06 0)
(1.49257514794 3.75636615005e-06 0)
(1.49257493813 4.09081174546e-06 0)
(1.4925746767 4.39284277656e-06 0)
(1.49257435765 4.62789059028e-06 0)
(1.49257397332 4.75057075754e-06 0)
(1.4925735123 4.69691660103e-06 0)
(1.4925729527 4.38474978145e-06 0)
(1.4925722677 3.68994678001e-06 0)
(1.49257144262 2.46002772128e-06 0)
(1.49257033731 6.33258821727e-07 0)
(1.49256854427 -2.05183268816e-06 0)
(1.49256577135 -6.22619749427e-06 0)
(1.49256161642 -1.24220508852e-05 0)
(1.49255505408 -2.14181979333e-05 0)
(1.49254447403 -3.43007957616e-05 0)
(1.49252733677 -5.26316711711e-05 0)
(1.49249953295 -7.86139407112e-05 0)
(1.49245437067 -0.000115289887012 0)
(1.49238097279 -0.000167032892667 0)
(1.49226226341 -0.000240360610538 0)
(1.49207090099 -0.000343791228054 0)
(1.49176232807 -0.000489856513311 0)
(1.49126424566 -0.000698667024797 0)
(1.49046788708 -0.00100405125266 0)
(1.48920395607 -0.00143855059513 0)
(1.48720671343 -0.00204962791864 0)
(1.48407780883 -0.0028986293471 0)
(1.47923759189 -0.00405304473133 0)
(1.47187950834 -0.00556716014194 0)
(1.46099044965 -0.00744246591057 0)
(1.44542380549 -0.00958491176045 0)
(1.42357102806 -0.0117459972278 0)
(0.993270465957 -0.00616839948681 0)
(1.03158098647 -0.0171003719535 0)
(1.08672175946 -0.0239897569707 0)
(1.15174559172 -0.0265602424252 0)
(1.21823545006 -0.0258179892027 0)