/*--------------------------------*- C++ -*----------------------------------*\
| =========                 |                                                 |
| \\      /  F ield         | OpenFOAM: The Open Source CFD Toolbox           |
|  \\    /   O peration     | Version:  2106                                  |
|   \\  /    A nd           | Website:  www.openfoam.com                      |
|    \\/     M anipulation  |                                                 |
\*---------------------------------------------------------------------------*/
FoamFile
{
    version     2.0;
    format      ascii;
    arch        "LSB;label=32;scalar=64";
    class       surfaceScalarField;
    location    "0.105";
    object      phi;
}
// * * * * * * * * * * * * * * * * * * * * * * * * * * * * * * * * * * * * * //

dimensions      [0 3 -1 0 0 0 0];

oriented        oriented;

internalField   nonuniform List<scalar> 
22100
(
3.38461202511e-05
1.6153879755e-05
2.24572094231e-05
1.1388910729e-05
1.6258551945e-05
6.19865740788e-06
1.27977741465e-05
3.46077776768e-06
1.08046392785e-05
1.99313489218e-06
9.60458521436e-06
1.20005414991e-06
8.85131663244e-06
7.53268717114e-07
8.3643476661e-06
4.86969125165e-07
8.04433098229e-06
3.20016828652e-07
7.83283965131e-06
2.1149142487e-07
7.6934033572e-06
1.3943630907e-07
7.60225804832e-06
9.11452272738e-08
7.54351294365e-06
5.87449287535e-08
7.50640117956e-06
3.71115149133e-08
7.48359553821e-06
2.28053564304e-08
7.47011828073e-06
1.34769857886e-08
7.46260737665e-06
7.51069277719e-09
7.45880196755e-06
3.80529029022e-09
7.45714742361e-06
1.65452841168e-09
7.45682724402e-06
3.20254649569e-10
7.45726622885e-06
-4.3885133483e-10
7.45803675633e-06
-7.7037924579e-10
7.4588830741e-06
-8.46199361206e-10
7.459696394e-06
-8.1326208747e-10
7.4604254647e-06
-7.29083105472e-10
7.46104862488e-06
-6.23231324599e-10
7.46156276239e-06
-5.14239596019e-10
7.46197523672e-06
-4.12574609837e-10
7.4622983596e-06
-3.23194847182e-10
7.46254606122e-06
-2.47733846883e-10
7.46273202215e-06
-1.85958702704e-10
7.46286863934e-06
-1.36597115463e-10
7.46296654922e-06
-9.78921054162e-11
7.46303489279e-06
-6.83416827256e-11
7.46308053176e-06
-4.56552454299e-11
7.4631073508e-06
-2.68476972928e-11
7.46312050324e-06
-1.31864549394e-11
7.46312511706e-06
-4.6488998384e-12
7.46312407157e-06
1.01118728754e-12
7.46311900485e-06
5.03209607876e-12
7.46311117848e-06
7.78456437883e-12
7.46310143082e-06
9.69204466537e-12
7.46309025626e-06
1.11091237163e-11
7.46307787606e-06
1.23218006733e-11
7.46306431904e-06
1.35257944035e-11
7.4630494772e-06
1.48518080106e-11
7.46303312858e-06
1.64038613144e-11
7.46301492717e-06
1.82926525231e-11
7.46299447055e-06
2.05606321747e-11
7.46297126288e-06
2.32950855179e-11
7.46294469914e-06
2.66081500671e-11
7.46291406321e-06
3.0619704352e-11
7.46287852753e-06
3.54592258908e-11
7.46283716507e-06
4.12537867227e-11
7.4627889846e-06
4.80892436778e-11
7.46273301851e-06
5.594448154e-11
7.46266846779e-06
6.46318953374e-11
7.4625948281e-06
7.38141134775e-11
7.46251256445e-06
8.24763613654e-11
7.46242383458e-06
8.89162869968e-11
7.46233444198e-06
8.95169838436e-11
7.46225659337e-06
7.7901180692e-11
7.46220002734e-06
5.65449669331e-11
7.46218256208e-06
1.73748415722e-11
7.46224041908e-06
-5.79839192563e-11
7.46243283318e-06
-1.92517325558e-10
7.46285618006e-06
-4.2340101677e-10
7.46366374687e-06
-8.07605677832e-10
7.46509610834e-06
-1.43241348496e-09
7.4675162361e-06
-2.42021223295e-09
7.47137975244e-06
-3.86364551394e-09
7.47794590697e-06
-6.56630841434e-09
7.48890858121e-06
-1.0962843151e-08
7.50740225666e-06
-1.84938017265e-08
7.54112633175e-06
-3.37241135203e-08
7.61136925593e-06
-7.02428971714e-08
7.7804515307e-06
-1.69082174508e-07
8.24228753756e-06
-4.61835886966e-07
9.73510645243e-06
-1.49281878016e-06
-5.57113178286e-06
1.53062383299e-05
5.02175946055e-05
1.59362850633e-05
4.42441106241e-05
1.73623945999e-05
3.77794993419e-05
1.26632686543e-05
3.26461404005e-05
8.59413676475e-06
2.89380867852e-05
5.7011886587e-06
2.63596153437e-05
3.77852581696e-06
2.45875111818e-05
2.52537313197e-06
2.33734719426e-05
1.7010085886e-06
2.25435300687e-05
1.14995883756e-06
2.19782352227e-05
7.7678626966e-07
2.15955559689e-05
5.22115406319e-07
2.13388151999e-05
3.47885689199e-07
2.11686251818e-05
2.28934525186e-07
2.10575377829e-05
1.48198441588e-07
2.0986441248e-05
9.39014474208e-08
2.09420829498e-05
5.78349425873e-08
2.09153381674e-05
3.42552842718e-08
2.08999988169e-05
1.91446154037e-08
2.08919612305e-05
9.69223297651e-09
2.08883473925e-05
3.93430165611e-09
2.08875654281e-05
3.43342070973e-10
2.08879923713e-05
-1.19714265397e-09
2.08890803655e-05
-1.93411032095e-09
2.08904386551e-05
-2.17157873152e-09
2.08918230885e-05
-2.1136346052e-09
2.08931037886e-05
-1.90409670725e-09
2.08942213604e-05
-1.63197321133e-09
2.08951582083e-05
-1.34954063815e-09
2.08959204016e-05
-1.08544546265e-09
2.0896526361e-05
-8.53698070184e-10
2.08970004623e-05
-6.60037361448e-10
2.08973705117e-05
-5.06626586112e-10
2.08976505871e-05
-3.77971381981e-10
2.08978443185e-05
-2.62105955882e-10
2.08979759184e-05
-1.77309669157e-10
2.08980615256e-05
-1.12520054754e-10
2.08981126547e-05
-6.43829116659e-11
2.08981411085e-05
-3.3167961423e-11
2.08981539928e-05
-1.1938230457e-11
2.08981555905e-05
3.36090144452e-12
2.08981492888e-05
1.39976757869e-11
2.08981375274e-05
2.13583505914e-11
2.08981219545e-05
2.66050367192e-11
2.08981035553e-05
3.06890640251e-11
2.08980828391e-05
3.42726163514e-11
2.08980599832e-05
3.7805186386e-11
2.08980349201e-05
4.16166059693e-11
2.08980073621e-05
4.60148130635e-11
2.089797698e-05
5.10707499402e-11
2.0897943392e-05
5.69308152568e-11
2.08979062191e-05
6.37284093808e-11
2.08978651702e-05
7.15359664216e-11
2.08978201254e-05
8.03507772903e-11
2.08977712403e-05
9.00348008516e-11
2.08977191222e-05
1.00200435496e-10
2.08976651911e-05
1.09990202869e-10
2.08976123239e-05
1.17734557651e-10
2.08975656005e-05
1.20853640473e-10
2.08975340597e-05
1.14333620438e-10
2.08975325181e-05
9.06826725401e-11
2.08975867501e-05
3.53572727295e-11
2.08977451002e-05
-8.05207998347e-11
2.08980770692e-05
-2.75578468559e-10
2.08987007541e-05
-6.06477216429e-10
2.08997376385e-05
-1.09499104761e-09
2.09013544458e-05
-1.80939909223e-09
2.0903916735e-05
-2.985762653e-09
2.09079840898e-05
-4.87506300813e-09
2.09144451933e-05
-7.89368699194e-09
2.09247573682e-05
-1.27326344848e-08
2.09414723878e-05
-2.05789283542e-08
2.09688062458e-05
-3.39004390007e-08
2.10138778625e-05
-5.60346877364e-08
2.10901602673e-05
-9.47763295316e-08
2.12241800295e-05
-1.6774391616e-07
2.14701267458e-05
-3.16189488715e-07
2.1938815577e-05
-6.37770838419e-07
2.28492292989e-05
-1.37224939836e-06
2.45435829941e-05
-3.18717234965e-06
-7.24007521819e-06
2.62125267077e-05
5.35171050123e-05
1.24191799808e-05
5.29349671418e-05
1.79445323746e-05
4.96538376801e-05
1.5944398091e-05
4.58401775468e-05
1.24077969525e-05
4.2440087327e-05
9.10127901452e-06
3.9729167169e-05
6.48944617394e-06
3.76873027088e-05
4.56723781136e-06
3.61976658553e-05
3.19064563136e-06
3.51326275125e-05
2.21499729083e-06
3.43824040591e-05
1.52700971633e-06
3.38606975241e-05
1.04382179776e-06
3.35024684964e-05
7.06114440609e-07
3.32597956053e-05
4.71607042054e-07
3.30978819118e-05
3.10111721867e-07
3.29917502521e-05
2.00032724311e-07
3.29236628801e-05
1.25922024091e-07
3.28811607866e-05
7.67572217136e-08
3.28555930565e-05
4.47123353542e-08
3.28410142267e-05
2.42711770936e-08
3.2833370271e-05
1.15784462169e-08
3.2829751683e-05
3.96212835909e-09
3.28290393791e-05
-4.84690095147e-10
3.28295175236e-05
-2.41219315855e-09
3.28306614858e-05
-3.31557497314e-09
3.28320593805e-05
-3.51163815248e-09
3.28334699511e-05
-3.31481212228e-09
3.2834766219e-05
-2.92837838161e-09
3.28358907912e-05
-2.47421034016e-09
3.28368271518e-05
-2.02185216324e-09
3.28375812041e-05
-1.60775355674e-09
3.28381694721e-05
-1.24828869746e-09
3.28386109697e-05
-9.4811273502e-10
3.28389391582e-05
-7.06169920538e-10
3.28391979346e-05
-5.20915470506e-10
3.28393980383e-05
-3.77461253956e-10
3.28395272697e-05
-2.41803429592e-10
3.2839610562e-05
-1.47723689844e-10
3.28396610801e-05
-8.37297378157e-11
3.28396886315e-05
-3.95354238037e-11
3.28396993276e-05
-7.39496960029e-12
3.28396981318e-05
1.51158836325e-11
3.28396887073e-05
3.06986651292e-11
3.28396736872e-05
4.15547065328e-11
3.28396547527e-05
4.95876877376e-11
3.28396329248e-05
5.61165622953e-11
3.28396087719e-05
6.20328384784e-11
3.28395825016e-05
6.80070386193e-11
3.28395539339e-05
7.47164629723e-11
3.28395230354e-05
8.20787799123e-11
3.28394898017e-05
9.02124124799e-11
3.28394543191e-05
9.91742642779e-11
3.28394169265e-05
1.08820834384e-10
3.28393783872e-05
1.18765424334e-10
3.28393401214e-05
1.28227458884e-10
3.28393046174e-05
1.35734234735e-10
3.28392761524e-05
1.38598796112e-10
3.28392616886e-05
1.32422167725e-10
3.28392712385e-05
1.11554342211e-10
3.28393214648e-05
6.43349720912e-11
3.28394401315e-05
-2.78253903211e-11
3.28396773246e-05
-2.01784229302e-10
3.28401195071e-05
-5.22765566912e-10
3.28408046763e-05
-9.60887629284e-10
3.28418050833e-05
-1.60702626736e-09
3.28433738476e-05
-2.66384967821e-09
3.2845906053e-05
-4.34166985644e-09
3.28499134967e-05
-6.99326567263e-09
3.28562265957e-05
-1.11882506945e-08
3.28661874412e-05
-1.78546964613e-08
3.28820113599e-05
-2.85567677022e-08
3.29074453977e-05
-4.60132070121e-08
3.29479872206e-05
-7.44424709701e-08
3.30137448766e-05
-1.21792455239e-07
3.31221880812e-05
-2.03219566112e-07
3.33032390265e-05
-3.4879477452e-07
3.36067922233e-05
-6.19742544596e-07
3.41069824982e-05
-1.13796094082e-06
3.48749141492e-05
-2.14018089449e-06
3.57793966763e-05
-4.09165490103e-06
-7.35832990072e-06
3.58976506756e-05
5.35105662031e-05
8.90861371359e-06
5.55742213069e-05
1.58808771897e-05
5.52424806562e-05
1.62761387268e-05
5.35977831709e-05
1.40524944974e-05
5.15418444761e-05
1.11572178439e-05
4.9580277589e-05
8.45101324804e-06
4.79243519869e-05
6.2231636144e-06
4.66181477969e-05
4.49684999225e-06
4.56304892277e-05
3.20265595394e-06
4.49051639153e-05
2.25233500968e-06
4.43841731226e-05
1.56481244091e-06
4.40168298342e-05
1.07345745603e-06
4.37621764842e-05
7.26260031463e-07
4.35885749191e-05
4.83712896117e-07
4.34722995598e-05
3.16307727882e-07
4.33959425951e-05
2.02278725967e-07
4.33469554239e-05
1.25744260705e-07
4.33164301484e-05
7.52376164253e-08
4.32981322128e-05
4.25692301611e-08
4.32877621744e-05
2.1948663065e-08
4.32823985383e-05
9.32594169571e-09
4.32798945383e-05
2.01943325255e-09
4.32793901927e-05
-1.90780922319e-09
4.32798888121e-05
-3.81424334277e-09
4.32808492389e-05
-4.47217854925e-09
4.32819699457e-05
-4.43565898268e-09
4.32830796589e-05
-4.03821850289e-09
4.32840895348e-05
-3.48417332519e-09
4.32849609415e-05
-2.89329819984e-09
4.32856847082e-05
-2.33152305933e-09
4.32862681729e-05
-1.8317427176e-09
4.32867265641e-05
-1.40650381146e-09
4.3287075615e-05
-1.05524331368e-09
4.3287325374e-05
-7.7071650558e-10
4.32874918247e-05
-5.43961754295e-10
4.32876126582e-05
-3.62682223074e-10
4.32876741465e-05
-2.09245729992e-10
4.32877204453e-05
-1.3005362808e-10
4.32877472889e-05
-6.64064210341e-11
4.32877582547e-05
-1.84023752655e-11
4.32877580625e-05
1.52492235382e-11
4.3287749831e-05
3.88609224725e-11
4.32877359601e-05
5.53606428791e-11
4.32877178574e-05
6.76515111487e-11
4.32876963858e-05
7.7596963374e-11
4.32876720695e-05
8.64114776237e-11
4.32876451964e-05
9.49795068647e-11
4.32876160534e-05
1.03967436439e-10
4.32875848213e-05
1.13396829307e-10
4.32875516987e-05
1.23369152777e-10
4.32875171124e-05
1.33728718746e-10
4.32874818513e-05
1.43996551255e-10
4.32874472077e-05
1.53306442063e-10
4.32874151605e-05
1.60207510681e-10
4.3287388595e-05
1.62319927334e-10
4.32873715173e-05
1.55803231221e-10
4.32873697196e-05
1.34422276195e-10
4.328739406e-05
8.7430372349e-11
4.32874611315e-05
-2.56476021828e-12
4.32875946231e-05
-1.61216082555e-10
4.32877985154e-05
-4.0564983589e-10
4.32881886218e-05
-9.12920728648e-10
4.32888922598e-05
-1.66462345915e-09
4.3290081224e-05
-2.7960815999e-09
4.32919589005e-05
-4.54158852298e-09
4.32948764505e-05
-7.25926416636e-09
4.32994017638e-05
-1.15186425079e-08
4.33064301165e-05
-1.82167292153e-08
4.33173741232e-05
-2.87988688724e-08
4.33344460523e-05
-4.56289067195e-08
4.33610521321e-05
-7.26195271654e-08
4.3402926099e-05
-1.1631662461e-07
4.34692069701e-05
-1.88073439893e-07
4.35741170831e-05
-3.08129660107e-07
4.37384598011e-05
-5.13137418065e-07
4.3988208644e-05
-8.69491251856e-07
4.43420159393e-05
-1.49176807433e-06
4.47632507573e-05
-2.56141549834e-06
4.50103646454e-05
-4.33876859275e-06
-6.85125526178e-06
4.45032897121e-05
5.27351378629e-05
6.17347579527e-06
5.57309339638e-05
1.28850810231e-05
5.73114733884e-05
1.46955992986e-05
5.76109906455e-05
1.37529773047e-05
5.71335218253e-05
1.16346867943e-05
5.6319468891e-05
9.26506635713e-06
5.54489924528e-05
7.09364023582e-06
5.46629889969e-05
5.28285359921e-06
5.40137055036e-05
3.85193952044e-06
5.35061931809e-05
2.75984729428e-06
5.31243255369e-05
1.94667992259e-06
5.28450960991e-05
1.35268661795e-06
5.26456044474e-05
9.25751331569e-07
5.25059518122e-05
6.23365159117e-07
5.24100478091e-05
4.1221139999e-07
5.23454531948e-05
2.66873105243e-07
5.23028479104e-05
1.683494387e-07
5.22754137143e-05
1.02671835306e-07
5.22582602678e-05
5.97227980315e-08
5.22479361514e-05
3.22729466325e-08
5.22420308248e-05
1.52314242541e-08
5.22389579337e-05
5.09242243672e-09
5.22376498368e-05
-5.99695901207e-10
5.22373582249e-05
-3.52269413851e-09
5.22376280336e-05
-4.74210412511e-09
5.22381661531e-05
-4.97391170883e-09
5.22387980261e-05
-4.6702062253e-09
5.22394244766e-05
-4.11069804051e-09
5.22399933676e-05
-3.46221988334e-09
5.22404807164e-05
-2.81887359404e-09
5.22408800376e-05
-2.23106126117e-09
5.22411942199e-05
-1.72069998358e-09
5.22414326016e-05
-1.29366183123e-09
5.22416092657e-05
-9.47431739106e-10
5.22417385295e-05
-6.73275673617e-10
5.22418345101e-05
-4.5869944143e-10
5.22419224117e-05
-2.97166455815e-10
5.22419745565e-05
-1.82206496532e-10
5.22420129958e-05
-1.04856524117e-10
5.2242031107e-05
-3.65393819987e-11
5.22420353899e-05
1.09195785853e-11
5.2242030225e-05
4.39611296658e-11
5.22420185872e-05
6.69312262477e-11
5.22420024457e-05
8.37494188295e-11
5.22419829922e-05
9.70525007015e-11
5.22419610958e-05
1.08359350792e-10
5.22419380208e-05
1.18143213401e-10
5.22419112166e-05
1.30873525387e-10
5.22418821989e-05
1.42496582591e-10
5.22418513966e-05
1.54207050696e-10
5.22418191934e-05
1.65917602208e-10
5.2241786352e-05
1.76790037422e-10
5.22417541315e-05
1.85469402643e-10
5.22417244904e-05
1.89810727596e-10
5.22417005706e-05
1.86255331044e-10
5.22416882925e-05
1.68173792634e-10
5.22417050201e-05
1.17853556218e-10
5.22417529457e-05
3.96778105453e-11
5.22418563998e-05
-1.05891822468e-10
5.2242011422e-05
-3.16182605185e-10
5.22422995696e-05
-6.93811118702e-10
5.22427706746e-05
-1.3840913842e-09
5.22434813342e-05
-2.37536249667e-09
5.2244567971e-05
-3.88278592869e-09
5.2246235169e-05
-6.20882715407e-09
5.22487878338e-05
-9.81195549275e-09
5.22526836067e-05
-1.54144884789e-08
5.22586246404e-05
-2.41578887831e-08
5.22676916893e-05
-3.78660818482e-08
5.22815433968e-05
-5.94808136182e-08
5.2302712209e-05
-9.37885128283e-08
5.23350368488e-05
-1.48641408634e-07
5.23840719956e-05
-2.37108642193e-07
5.2457090485e-05
-3.8114810891e-07
5.25614882262e-05
-6.17535045541e-07
5.26985260134e-05
-1.00652887383e-06
5.28466451188e-05
-1.63988713142e-06
5.29240922017e-05
-2.63886248573e-06
5.27148020459e-05
-4.12947814711e-06
-6.03832660446e-06
5.19018732914e-05
5.19834864639e-05
4.18998928606e-06
5.50586640071e-05
9.80990343201e-06
5.76386134057e-05
1.2115649906e-05
5.93259037622e-05
1.20656870153e-05
6.02280166456e-05
1.07325740337e-05
6.05929293775e-05
8.90015378558e-06
6.06482888711e-05
7.03828090519e-06
6.05531984153e-05
5.37794418186e-06
6.04029697581e-05
4.00216822612e-06
6.02479376683e-05
2.9148793256e-06
6.01108237376e-05
2.08379367908e-06
5.99990797638e-05
1.46443031662e-06
5.99125849077e-05
1.01224584869e-06
5.98480189145e-05
6.87930802983e-07
5.98011475412e-05
4.59082472321e-07
5.97679019009e-05
3.00118542071e-07
5.9744806602e-05
1.91444657611e-07
5.97290810484e-05
1.18397426521e-07
5.9718592377e-05
7.02115894265e-08
5.97117513093e-05
3.91141660139e-08
5.97074028898e-05
1.95799749299e-08
5.97047487954e-05
7.74658824702e-09
5.97032120723e-05
9.37021190896e-10
5.9702384912e-05
-2.69560959807e-09
5.97020028079e-05
-4.36011785661e-09
5.97018862038e-05
-4.85743223309e-09
5.97019183412e-05
-4.70244471066e-09
5.97020252992e-05
-4.21771728636e-09
5.97021619336e-05
-3.59887807104e-09
5.97023025119e-05
-2.95945721702e-09
5.97024328913e-05
-2.36145240974e-09
5.97025466903e-05
-1.83453300951e-09
5.97026422328e-05
-1.3892589226e-09
5.97027215957e-05
-1.02685541778e-09
5.97027872831e-05
-7.390128095e-10
5.97028406466e-05
-5.12089426684e-10
5.9702879471e-05
-3.35992238707e-10
5.97029024227e-05
-2.05144321163e-10
5.97029034968e-05
-1.05917857369e-10
5.97028930492e-05
-2.60960868324e-11
5.97028839753e-05
1.99620986862e-11
5.97028733123e-05
5.45681410495e-11
5.97028625045e-05
7.76762999375e-11
5.97028491877e-05
9.70207460349e-11
5.97028329178e-05
1.13312058883e-10
5.9702813539e-05
1.27770812736e-10
5.97027903648e-05
1.41390804273e-10
5.97027665208e-05
1.54813740292e-10
5.97027410778e-05
1.68025913321e-10
5.97027143782e-05
1.80955570828e-10
5.97026872789e-05
1.93022022015e-10
5.97026610117e-05
2.0303159692e-10
5.9702637327e-05
2.09120641975e-10
5.97026184929e-05
2.08626350298e-10
5.97026067605e-05
1.98002421169e-10
5.97026018629e-05
1.73131753326e-10
5.9702588765e-05
1.31052429191e-10
5.97025930611e-05
3.54939045692e-11
5.97026097618e-05
-1.22505777431e-10
5.97027522186e-05
-4.58611194923e-10
5.97030100306e-05
-9.51658357814e-10
5.97033471178e-05
-1.72123851272e-09
5.9703859121e-05
-2.8874234702e-09
5.970463101e-05
-4.65472443966e-09
5.97057748335e-05
-7.35268055253e-09
5.97074542659e-05
-1.14914273288e-08
5.97099066404e-05
-1.78669411085e-08
5.97134759894e-05
-2.77273688605e-08
5.97186563801e-05
-4.30466600431e-08
5.97261416093e-05
-6.69661970941e-08
5.97368625638e-05
-1.04509563365e-07
5.97519194188e-05
-1.63698280409e-07
5.97722152562e-05
-2.5740443715e-07
5.97972514556e-05
-4.06184211243e-07
5.98219569102e-05
-6.42240437653e-07
5.98294041991e-05
-1.01397602522e-06
5.97769866519e-05
-1.58746948269e-06
5.95748163144e-05
-2.43669211874e-06
5.90599604366e-05
-3.61462209096e-06
-5.03953111556e-06
5.8061164933e-05
5.14373054853e-05
2.75268376306e-06
5.42658210746e-05
6.98138781236e-06
5.72496444029e-05
9.13182659279e-06
5.97900296737e-05
9.52530181428e-06
6.17201312351e-05
8.80247258803e-06
6.30883071919e-05
7.531977975e-06
6.40167213146e-05
6.10986692364e-06
6.46292406359e-05
4.76542496045e-06
6.50258052511e-05
3.60560363277e-06
6.52790745728e-05
2.66160992505e-06
6.54389602359e-05
1.92390783236e-06
6.55386622271e-05
1.36472805493e-06
6.55998791492e-05
9.51028606083e-07
6.56366643631e-05
6.51145268895e-07
6.56580768975e-05
4.37669672221e-07
6.56699369633e-05
2.88258307827e-07
6.5675968274e-05
1.85413292868e-07
6.56785372543e-05
1.15828494078e-07
6.56791319498e-05
6.96170072907e-08
6.56786730051e-05
3.95732417972e-08
6.56777178635e-05
2.05352189371e-08
6.5676598292e-05
8.86620098872e-09
6.56754986738e-05
2.03660943166e-09
6.56745042295e-05
-1.70125294919e-09
6.56736518644e-05
-3.50786946195e-09
6.56729465849e-05
-4.1522664053e-09
6.56723786798e-05
-4.13462581515e-09
6.56719313779e-05
-3.77046501856e-09
6.56715858662e-05
-3.25338824102e-09
6.56713240106e-05
-2.69761775199e-09
6.5671129299e-05
-2.16677256955e-09
6.56709874297e-05
-1.69271803742e-09
6.56708862749e-05
-1.28817192173e-09
6.56708141314e-05
-9.54775758364e-10
6.56707617758e-05
-6.86699030454e-10
6.56707242392e-05
-4.74561713375e-10
6.56706968103e-05
-3.08541412037e-10
6.56706729328e-05
-1.81228802427e-10
6.56706563145e-05
-8.9266188968e-11
6.56706573596e-05
-2.71321991558e-11
6.5670656885e-05
2.04114534942e-11
6.56706493961e-05
6.20023854432e-11
6.56706381231e-05
8.88832125327e-11
6.5670625194e-05
1.09893089125e-10
6.56706106969e-05
1.27778172143e-10
6.56705943488e-05
1.44125951475e-10
6.56705758554e-05
1.59933879517e-10
6.56705551794e-05
1.755709302e-10
6.56705340699e-05
1.8922362569e-10
6.56705118487e-05
2.0324575589e-10
6.56704883059e-05
2.16596461807e-10
6.56704640223e-05
2.27310136724e-10
6.56704399325e-05
2.33189028881e-10
6.56704174155e-05
2.31132107732e-10
6.5670398684e-05
2.16751534867e-10
6.56703880891e-05
1.83773948302e-10
6.56703946945e-05
1.24507176711e-10
6.56703939182e-05
3.63278206072e-11
6.56704428916e-05
-1.71439566915e-10
6.56705068026e-05
-5.22524395727e-10
6.56706125569e-05
-1.05745167691e-09
6.56707686274e-05
-1.87735850499e-09
6.56709864073e-05
-3.1052435513e-09
6.56712791227e-05
-4.94744811716e-09
6.5671653177e-05
-7.72673779915e-09
6.56721005711e-05
-1.19388604756e-08
6.56725829734e-05
-1.83494218803e-08
6.56730005952e-05
-2.81451417116e-08
6.56731342149e-05
-4.31804679015e-08
6.56725335116e-05
-6.63656815008e-08
6.56703061608e-05
-1.02282325935e-07
6.56646483628e-05
-1.58040486088e-07
6.56519207958e-05
-2.44676806158e-07
6.56248100596e-05
-3.79073361584e-07
6.55688012432e-05
-5.86231446307e-07
6.5455916824e-05
-9.01091551035e-07
6.52354567658e-05
-1.36700935761e-06
6.482430677e-05
-2.0255421594e-06
6.41042371527e-05
-2.89455239841e-06
-3.91054795222e-06
6.29752540099e-05
5.1085042572e-05
1.66764116398e-06
5.36118454342e-05
4.45458493718e-06
5.66873184171e-05
6.05635363558e-06
5.96894497102e-05
6.52317059269e-06
6.22997314236e-05
6.19219098233e-06
6.44136932217e-05
5.41801630562e-06
6.60471876396e-05
4.47637262123e-06
6.72686139427e-05
3.5439987276e-06
6.81598821362e-05
2.71433543399e-06
6.87977297002e-05
2.02376226432e-06
6.92466838187e-05
1.47495352516e-06
6.9557857851e-05
1.05355376119e-06
6.97702617982e-05
7.38624361357e-07
6.99129210393e-05
5.084857414e-07
7.00070245934e-05
3.43565891301e-07
7.00678010766e-05
2.27481691336e-07
7.01060438226e-05
1.47170516075e-07
7.01293013174e-05
9.25710536728e-08
7.01427822674e-05
5.61361607017e-08
7.01500303593e-05
3.23252574465e-08
7.01534198924e-05
1.71457568097e-08
7.01545165845e-05
7.76951872557e-09
7.0154332011e-05
2.22112994768e-09
7.01534946033e-05
-8.63942375176e-10
7.01523902817e-05
-2.40366007726e-09
7.01512404375e-05
-3.00252152615e-09
7.01501650903e-05
-3.059347713e-09
7.01492208618e-05
-2.82627429877e-09
7.01484266526e-05
-2.45920119522e-09
7.0147780061e-05
-2.05105566723e-09
7.01472676054e-05
-1.65436885923e-09
7.0146870887e-05
-1.29607454511e-09
7.01465702165e-05
-9.87585819767e-10
7.0146346487e-05
-7.31119208844e-10
7.01461831215e-05
-5.2337441527e-10
7.01460668232e-05
-3.58261915802e-10
7.01459876013e-05
-2.29281695495e-10
7.01459377604e-05
-1.31332164024e-10
7.01459064102e-05
-5.78648481405e-11
7.01458745619e-05
4.74306059643e-12
7.01458541139e-05
4.08505086183e-11
7.01458440744e-05
7.19987109663e-11
7.01458359984e-05
9.68961162553e-11
7.01458281616e-05
1.17666859721e-10
7.01458197368e-05
1.36160212736e-10
7.01458102784e-05
1.53579874927e-10
7.01457996285e-05
1.70623307649e-10
7.0145787704e-05
1.87570264565e-10
7.01457728598e-05
2.04160173405e-10
7.01457560295e-05
2.20163955513e-10
7.0145738054e-05
2.34634652844e-10
7.01457194722e-05
2.45917483947e-10
7.01457009867e-05
2.51666832956e-10
7.01456833974e-05
2.48706003944e-10
7.01456671978e-05
2.32956920043e-10
7.01456514132e-05
1.99586702064e-10
7.01456323105e-05
1.4363848482e-10
7.0145619191e-05
4.94648440877e-11
7.01455910199e-05
-1.43267166248e-10
7.01455821927e-05
-5.13715311403e-10
7.01455680704e-05
-1.04336830839e-09
7.01455228923e-05
-1.83223628966e-09
7.01454150217e-05
-2.99740105731e-09
7.01451861129e-05
-4.71852787113e-09
7.01447297574e-05
-7.27038325049e-09
7.01438613157e-05
-1.10704440134e-08
7.01422642782e-05
-1.67524622546e-08
7.01393974542e-05
-2.52784468913e-08
7.01343442759e-05
-3.81274508309e-08
7.01255646563e-05
-5.7586209774e-08
7.01105045775e-05
-8.72223129404e-08
7.00848252193e-05
-1.32361082796e-07
7.00411707032e-05
-2.01022108183e-07
6.99671331862e-05
-3.05035728022e-07
6.98420006069e-05
-4.61098738867e-07
6.96320360265e-05
-6.9112691639e-07
6.92850966506e-05
-1.02007001106e-06
6.87278717023e-05
-1.46831726843e-06
6.78717337864e-05
-2.03841442334e-06
-2.68852546479e-06
6.66497113816e-05
5.0880413475e-05
7.87227673334e-07
5.31704673237e-05
2.16453109429e-06
5.62177522064e-05
3.00906878976e-06
5.94382736972e-05
3.3026491753e-06
6.24449745268e-05
3.18549025248e-06
6.50382574081e-05
2.8247335338e-06
6.71548672447e-05
2.35976287277e-06
6.88135564908e-05
1.88530952187e-06
7.00731446645e-05
1.45474722936e-06
7.10056114201e-05
1.09129539586e-06
7.16811606825e-05
7.99404071093e-07
7.21612513121e-05
5.73462882137e-07
7.24963368207e-05
4.03538581021e-07
7.27260865571e-05
2.78735755477e-07
7.28807232382e-05
1.88929023387e-07
7.29827126459e-05
1.25492183885e-07
7.30484168364e-05
8.14663149952e-08
7.30895409942e-05
5.14469536814e-08
7.3114321695e-05
3.13555499636e-08
7.31284628833e-05
1.81841500952e-08
7.31358513964e-05
9.75728127317e-09
7.31390919476e-05
4.52894608216e-09
7.31398967273e-05
1.41627630248e-09
7.31393617335e-05
-3.29052169722e-10
7.31381729891e-05
-1.21502047322e-09
7.3136744137e-05
-1.57375293084e-09
7.3135311575e-05
-1.62683864943e-09
7.3133999645e-05
-1.51437429767e-09
7.31328637696e-05
-1.32335239795e-09
7.31319186606e-05
-1.10598983435e-09
7.31311565133e-05
-8.92291395347e-10
7.31305578217e-05
-6.97475521334e-10
7.31300985106e-05
-5.28373086231e-10
7.31297539529e-05
-3.86639665084e-10
7.31295013696e-05
-2.70826384721e-10
7.31293209692e-05
-1.77847011505e-10
7.31291958464e-05
-1.04105439551e-10
7.31291103842e-05
-4.57971343812e-11
7.31290494563e-05
3.13233734853e-12
7.31290188329e-05
3.54103321559e-11
7.31289969837e-05
6.27037853654e-11
7.31289834204e-05
8.55259366944e-11
7.3128974959e-05
1.05292797316e-10
7.31289691345e-05
1.2341752128e-10
7.31289642703e-05
1.40968294481e-10
7.31289592486e-05
1.5858746821e-10
7.31289533343e-05
1.76573397614e-10
7.31289460838e-05
1.94895443684e-10
7.31289372113e-05
2.1312664196e-10
7.3128926665e-05
2.30804468024e-10
7.31289144641e-05
2.46913156218e-10
7.31289006451e-05
2.59779722545e-10
7.31288852381e-05
2.6707758007e-10
7.3128868255e-05
2.65675337582e-10
7.31288497646e-05
2.51440487401e-10
7.31288301757e-05
2.1918003777e-10
7.31288106594e-05
1.63165323564e-10
7.31287788557e-05
8.12690072491e-11
7.3128723513e-05
-8.7948728249e-11
7.31286356528e-05
-4.25894229819e-10
7.31284922695e-05
-9.00033254937e-10
7.31282484076e-05
-1.58841160437e-09
7.31278320199e-05
-2.58101403239e-09
7.3127121461e-05
-4.00795270089e-09
7.31259135855e-05
-6.06247853094e-09
7.31238756599e-05
-9.03252759897e-09
7.31204627496e-05
-1.33396404644e-08
7.31147742532e-05
-1.95900708737e-08
7.31053351693e-05
-2.86885010252e-08
7.30897580974e-05
-4.20092275016e-08
7.30642396182e-05
-6.1703835154e-08
7.30226047188e-05
-9.07260628224e-08
7.29549507365e-05
-1.33367941899e-07
7.28456396491e-05
-1.95724450915e-07
7.26704805291e-05
-2.85939565857e-07
7.2393297779e-05
-4.13944196566e-07
7.19630376207e-05
-5.89809965501e-07
7.13143082069e-05
-8.19587960448e-07
7.03753559823e-05
-1.09946216519e-06
-1.40630571012e-06
6.90931363666e-05
5.07871729235e-05
5.47440312029e-11
5.29516511512e-05
5.28941181169e-11
5.59606912255e-05
2.87638739673e-11
5.92633262572e-05
1.42195210695e-11
6.24488137263e-05
2.87465941911e-12
6.52735532189e-05
-5.86994464459e-12
6.76333277986e-05
-1.16462581119e-11
6.95186517946e-05
-1.44628768321e-11
7.09734137375e-05
-1.47679803389e-11
7.20647221663e-05
-1.31604761498e-11
7.28641363148e-05
-1.02702628812e-11
7.34376057072e-05
-6.74519184179e-12
7.38411472839e-05
-3.23771620155e-12
7.41198832722e-05
-4.43368624731e-13
7.43088109004e-05
1.24812385617e-12
7.44343018752e-05
1.14042780904e-12
7.45157690552e-05
-8.59488027329e-13
7.45672206763e-05
-4.61092630902e-12
7.45985857825e-05
-9.48443802112e-12
7.46167845402e-05
-1.45574321969e-11
7.46265605456e-05
-1.87223147167e-11
7.46311102558e-05
-2.08170602683e-11
7.46325472849e-05
-2.08457902695e-11
7.46322378408e-05
-1.97152176963e-11
7.46310406423e-05
-1.79171026678e-11
7.46294822667e-05
-1.54440749657e-11
7.46278677043e-05
-1.23145436558e-11
7.46263618256e-05
-8.51887071e-12
7.46250423874e-05
-3.9423790837e-12
7.46239348966e-05
1.45007588428e-12
7.4623036015e-05
6.50894902668e-12
7.46223261258e-05
1.23087473936e-11
7.46217791358e-05
1.85111812295e-11
7.46213673682e-05
2.50510500506e-11
7.46210645042e-05
3.20099918929e-11
7.46208471069e-05
3.95734179464e-11
7.4620695173e-05
4.78913775257e-11
7.46205924544e-05
5.70052297214e-11
7.46205287198e-05
6.69466230132e-11
7.462048742e-05
7.67609037891e-11
7.46204631417e-05
8.69906378988e-11
7.46204501018e-05
9.85324315923e-11
7.46204439726e-05
1.11355835755e-10
7.46204417524e-05
1.25557395039e-10
7.46204414279e-05
1.41226713667e-10
7.46204416656e-05
1.58324692339e-10
7.46204415942e-05
1.76672663805e-10
7.46204406333e-05
1.95930518433e-10
7.46204383256e-05
2.15535239985e-10
7.46204344292e-05
2.34804264718e-10
7.46204287724e-05
2.526520685e-10
7.4620421116e-05
2.67481287054e-10
7.46204110664e-05
2.77139614968e-10
7.46203979263e-05
2.78808614196e-10
7.46203804509e-05
2.68897671495e-10
7.46203565557e-05
2.43064757974e-10
7.462032334e-05
1.96385477845e-10
7.46202801334e-05
1.24464572944e-10
7.46202004185e-05
-8.27724386287e-12
7.46200453013e-05
-2.70840240071e-10
7.46198047489e-05
-6.59543477285e-10
7.46194085795e-05
-1.1922696927e-09
7.46187581846e-05
-1.93061146122e-09
7.4617689064e-05
-2.93878378795e-09
7.46159341877e-05
-4.30754147046e-09
7.46130692598e-05
-6.1676150167e-09
7.46084122607e-05
-8.68273591834e-09
7.46008436405e-05
-1.2021605746e-08
7.45885478198e-05
-1.63927951035e-08
7.45686252286e-05
-2.20867211705e-08
7.45366214933e-05
-2.97000921783e-08
7.44854015893e-05
-3.95060294385e-08
7.44037963914e-05
-5.17626072227e-08
7.4274700975e-05
-6.66288805595e-08
7.40725802107e-05
-8.38188279517e-08
7.37607646743e-05
-1.02128758836e-07
7.3289695408e-05
-1.1874087878e-07
7.25985322819e-05
-1.28424972837e-07
7.16230177919e-05
-1.23947629917e-07
-9.66748999911e-08
7.03133871506e-05
5.07871719005e-05
-7.87117150595e-07
5.29516503296e-05