/*--------------------------------*- C++ -*----------------------------------*\
| =========                 |                                                 |
| \\      /  F ield         | OpenFOAM: The Open Source CFD Toolbox           |
|  \\    /   O peration     | Version:  2106                                  |
|   \\  /    A nd           | Website:  www.openfoam.com                      |
|    \\/     M anipulation  |                                                 |
\*---------------------------------------------------------------------------*/
FoamFile
{
    version     2.0;
    format      ascii;
    arch        "LSB;label=32;scalar=64";
    class       volVectorField;
    location    "0.105";
    object      U;
}
// * * * * * * * * * * * * * * * * * * * * * * * * * * * * * * * * * * * * * //

dimensions      [0 1 -1 0 0 0 0];

internalField   nonuniform List<vector> 
11200
(
(0.66246240431 0.150569443284 0)
(0.558948671401 0.103243390398 0)
(0.383850728335 0.0513512278679 0)
(0.283747575114 0.0248708606915 0)
(0.232075235059 0.0124170527285 0)
(0.201908534451 0.00662282635125 0)
(0.183197864451 0.00380292514381 0)
(0.171276411601 0.00231588009098 0)
(0.163510239609 0.00146451268298 0)
(0.158388747914 0.000944890103422 0)
(0.155006709694 0.000615160331378 0)
(0.1527869354 0.000402196137067 0)
(0.151347073712 0.000264165735828 0)
(0.150429261199 0.000175146169712 0)
(0.149858244546 0.000118208462588 0)
(0.149514817578 8.19436548734e-05 0)
(0.149318233646 5.85585939765e-05 0)
(0.149214034702 4.28803886922e-05 0)
(0.149165447568 3.23757104906e-05 0)
(0.149149691981 2.76326533519e-05 0)
(0.149153669476 2.70074346231e-05 0)
(0.1491677123 2.9579639477e-05 0)
(0.149185005403 3.28715181274e-05 0)
(0.149202322037 3.58389157593e-05 0)
(0.149218272777 3.85170589063e-05 0)
(0.149232186567 4.09966368542e-05 0)
(0.149243862076 4.33115143785e-05 0)
(0.149253380149 4.54904205951e-05 0)
(0.149260960818 4.7568246187e-05 0)
(0.149266878961 4.95848377332e-05 0)
(0.149271418097 5.15886468618e-05 0)
(0.149274850503 5.36497940386e-05 0)
(0.149277410879 5.58634354243e-05 0)
(0.149279280795 5.82338725543e-05 0)
(0.14928061954 6.06353291571e-05 0)
(0.149281541247 6.3007838455e-05 0)
(0.149282132636 6.53379888559e-05 0)
(0.149282499096 6.76333744195e-05 0)
(0.149282722914 6.99134777388e-05 0)
(0.14928284693 7.21894197349e-05 0)
(0.149282899649 7.44646821723e-05 0)
(0.149282904004 7.6741565587e-05 0)
(0.149282875958 7.90208747209e-05 0)
(0.149282826039 8.13021192104e-05 0)
(0.149282761201 8.35835656583e-05 0)
(0.149282686463 8.58625547162e-05 0)
(0.149282605939 8.81359333376e-05 0)
(0.149282523121 9.04005279068e-05 0)
(0.149282442087 9.26528800484e-05 0)
(0.149282368439 9.48899325095e-05 0)
(0.149282309326 9.7108805003e-05 0)
(0.149282274173 9.93066968962e-05 0)
(0.149282275721 0.000101480957245 0)
(0.14928233135 0.000103628971536 0)
(0.149282465052 0.000105747667215 0)
(0.149282710655 0.000107832545439 0)
(0.149283116918 0.000109876686974 0)
(0.149283753201 0.000111870868734 0)
(0.149284722474 0.000113800399064 0)
(0.149286178494 0.000115641606134 0)
(0.149288358666 0.000117343584888 0)
(0.149291663015 0.000118820963759 0)
(0.149296586209 0.000120090696721 0)
(0.149303776953 0.000121334625579 0)
(0.149314262662 0.000123000976963 0)
(0.149329574885 0.000125355436273 0)
(0.149352116904 0.000128148942447 0)
(0.149385636408 0.000131135254457 0)
(0.149435807327 0.000134087810395 0)
(0.14951096878 0.000136902874577 0)
(0.149623204425 0.00014095240166 0)
(0.149795853805 0.000152270480407 0)
(0.150067113374 0.000173385507651 0)
(0.15050056598 0.000204202786741 0)
(0.151233116853 0.000235071928537 0)
(0.152545192924 0.000194814981152 0)
(0.15509827986 -0.000219106406259 0)
(0.162502266558 -0.00214759491175 0)
(0.188107145847 -0.0110079467679 0)
(0.206023487831 -0.0509642887554 0)
(0.965408254041 0.289214710604 0)
(0.961962851227 0.252656050555 0)
(0.823574364867 0.159021459609 0)
(0.698139315044 0.095995756296 0)
(0.61022537902 0.0582481447075 0)
(0.548971378595 0.0362148846351 0)
(0.506588762564 0.0231613081913 0)
(0.477567165158 0.0151375146344 0)
(0.457745476663 0.0100177084112 0)
(0.444228641742 0.00665801904483 0)
(0.435053834478 0.00441532323191 0)
(0.428874227186 0.00290648195365 0)
(0.424756166206 0.00189048187668 0)
(0.422049817104 0.0012092354459 0)
(0.420302582542 0.000756083153831 0)
(0.419200018889 0.000457873636249 0)
(0.418524922026 0.000264146595425 0)
(0.418128748566 0.000140363608391 0)
(0.417911567543 6.38382334567e-05 0)
(0.417806322919 2.08960981457e-05 0)
(0.417769697857 -6.24917519181e-07 0)
(0.417771050464 -1.26101729838e-05 0)
(0.417789695454 -1.64708837107e-05 0)
(0.417816000785 -1.61061058322e-05 0)
(0.417844631564 -1.36307978565e-05 0)
(0.417872116015 -1.01589683338e-05 0)
(0.417896662325 -6.34861254316e-06 0)
(0.417917603238 -2.58694525453e-06 0)
(0.417934897197 9.13210749261e-07 0)
(0.417948833589 4.04287549858e-06 0)
(0.417959870577 6.74188103216e-06 0)
(0.417968538619 8.94851363371e-06 0)
(0.41797524949 1.05636421862e-05 0)
(0.417980213149 1.16342889915e-05 0)
(0.417983727298 1.24744738295e-05 0)
(0.417986143275 1.3294203698e-05 0)
(0.417987728651 1.40414758949e-05 0)
(0.417988746052 1.47005033869e-05 0)
(0.417989390082 1.53142631098e-05 0)
(0.417989764984 1.59029075305e-05 0)
(0.417989944606 1.64687454065e-05 0)
(0.417989990019 1.7018125018e-05 0)
(0.417989945216 1.75570836258e-05 0)
(0.417989840372 1.80910294951e-05 0)
(0.417989695642 1.86239508462e-05 0)
(0.417989524955 1.91588441232e-05 0)
(0.41798933864 1.96983252653e-05 0)
(0.417989144215 2.02449887316e-05 0)
(0.417988949679 2.07990310947e-05 0)
(0.417988766237 2.13614457496e-05 0)
(0.417988608996 2.19336136815e-05 0)
(0.417988499559 2.25167552184e-05 0)
(0.417988469061 2.31117734146e-05 0)
(0.417988561417 2.37189175457e-05 0)
(0.417988837784 2.4337346624e-05 0)
(0.417989384371 2.4964784613e-05 0)
(0.417990326311 2.55974895777e-05 0)
(0.417991842687 2.62307834091e-05 0)
(0.417994197153 2.68441507137e-05 0)
(0.417997772711 2.74069678267e-05 0)
(0.418003150476 2.78696546872e-05 0)
(0.418011393338 2.81622575539e-05 0)
(0.418024029257 2.84055348947e-05 0)
(0.418043211732 2.80261901116e-05 0)
(0.418071789293 2.55676772507e-05 0)
(0.418113406385 1.9779729272e-05 0)
(0.418174243574 9.84895536949e-06 0)
(0.418264581678 -5.77187382424e-06 0)
(0.418400316937 -2.96589384876e-05 0)
(0.418606850832 -6.55717464037e-05 0)
(0.418926942597 -0.000117774017832 0)
(0.419431440463 -0.000191345162644 0)
(0.420236069459 -0.0003138781985 0)
(0.421548766549 -0.000543714024254 0)
(0.423769111527 -0.00101989428046 0)
(0.427632420326 -0.00213129118661 0)
(0.43459673584 -0.00495307754678 0)
(0.448918556487 -0.0125140574158 0)
(0.475973441246 -0.035007924308 0)
(0.480923039391 -0.101331751009 0)
(1.02222096461 0.238416195212 0)
(1.08213751988 0.295926675897 0)
(1.03447719664 0.239503105123 0)
(0.954615352077 0.174290215822 0)
(0.87999197069 0.121345524873 0)
(0.818614333771 0.0830994300534 0)
(0.77141076179 0.0567316751279 0)
(0.736634373807 0.0387408963327 0)
(0.711624587378 0.0264325755687 0)
(0.693917100629 0.0179726782359 0)
(0.681542435192 0.0121417161896 0)
(0.673001981792 0.00812377107621 0)
(0.66718373138 0.00536467575583 0)
(0.663276431763 0.00348219476971 0)
(0.660695458567 0.00220962689313 0)
(0.659023916325 0.00135971086398 0)
(0.657967636669 0.000800827372205 0)
(0.657321381127 0.000440805448433 0)
(0.656943654662 0.000215384074487 0)
(0.656737389366 7.95082153081e-05 0)
(0.656635956184 2.01948893483e-06 0)
(0.656599754403 -4.15260454285e-05 0)
(0.656601716625 -6.52975413345e-05 0)
(0.656621191312 -7.51840220449e-05 0)
(0.656648519705 -7.64791611665e-05 0)
(0.656677816698 -7.31419812518e-05 0)
(0.656705676037 -6.76099158304e-05 0)
(0.656730412251 -6.13132003304e-05 0)
(0.65675139309 -5.50619875599e-05 0)
(0.656768580376 -4.92848936196e-05 0)
(0.656782236204 -4.41896712811e-05 0)
(0.656792749108 -3.98809638078e-05 0)
(0.656800669622 -3.64561924585e-05 0)
(0.656806754233 -3.3917982334e-05 0)
(0.65681154408 -3.21662858406e-05 0)
(0.6568150634 -3.11728671437e-05 0)
(0.656817404172 -3.07027621639e-05 0)
(0.656818938332 -3.07658742657e-05 0)
(0.656819943028 -3.11472927104e-05 0)
(0.656820548738 -3.17193992643e-05 0)
(0.656820859829 -3.24347970743e-05 0)
(0.65682096895 -3.32483048661e-05 0)
(0.656820942328 -3.41235854998e-05 0)
(0.656820826133 -3.50320905334e-05 0)
(0.656820651731 -3.5954456737e-05 0)
(0.656820441285 -3.68781111513e-05 0)
(0.656820211187 -3.77945272859e-05 0)
(0.656819971785 -3.86956722295e-05 0)
(0.656819734046 -3.95773615745e-05 0)
(0.656819514701 -4.04334021511e-05 0)
(0.656819335599 -4.12584224038e-05 0)
(0.656819227308 -4.20483927966e-05 0)
(0.656819233688 -4.28006617559e-05 0)
(0.656819417188 -4.35155293815e-05 0)
(0.656819866584 -4.4199859534e-05 0)
(0.65682070945 -4.48753837572e-05 0)
(0.656822132006 -4.55930555902e-05 0)
(0.656824392486 -4.6438746364e-05 0)
(0.656827874413 -4.75599797163e-05 0)
(0.656833159934 -4.91767746165e-05 0)
(0.656841140165 -5.17489904256e-05 0)
(0.656853415949 -5.63012832695e-05 0)
(0.656871522408 -6.371013683e-05 0)
(0.656896909358 -7.4962470898e-05 0)
(0.656933166328 -9.16543533112e-05 0)
(0.656987089613 -0.00011629787395 0)
(0.657068321293 -0.000152152188353 0)
(0.657190891875 -0.000204626181225 0)
(0.657377031482 -0.00028247276902 0)
(0.657662882912 -0.00039996340691 0)
(0.65810787841 -0.00058212820252 0)
(0.658803378922 -0.000877412894521 0)
(0.659900367131 -0.00137792407866 0)
(0.661663488319 -0.00226085648901 0)
(0.664547777299 -0.00389740608722 0)
(0.669273167875 -0.00710640182673 0)
(0.676909785301 -0.0136757116059 0)
(0.689542423547 -0.0275384548686 0)
(0.706859771264 -0.0578968036781 0)
(0.70316755814 -0.116793681401 0)
(1.022514754 0.170807165064 0)
(1.10138974988 0.276496514417 0)
(1.11752423887 0.266664857402 0)
(1.0921465639 0.219901772694 0)
(1.05187809845 0.168168921119 0)
(1.01020816687 0.123567440366 0)
(0.973494669189 0.0888374865804 0)
(0.943864635415 0.0630061850123 0)
(0.921143085131 0.0442227661487 0)
(0.904284721156 0.0307415766359 0)
(0.892076099681 0.0211549498441 0)
(0.883406615206 0.0143934304891 0)
(0.8773560167 0.00966504666513 0)
(0.873202739081 0.00638991269865 0)
(0.87040015986 0.00414608430529 0)
(0.868544034453 0.00262816374947 0)
(0.867340997596 0.00161640965428 0)
(0.866581553695 0.0009538191585 0)
(0.866118331745 0.000529103144505 0)
(0.865849076145 0.000264055886817 0)
(0.865703201965 0.000104929985263 0)
(0.865632342631 1.59884616451e-05 0)
(0.86560762105 -3.1985220797e-05 0)
(0.86561091364 -5.3699570676e-05 0)
(0.865627842244 -5.96169585088e-05 0)
(0.865650156525 -5.67231422237e-05 0)
(0.865673427304 -4.93938345058e-05 0)
(0.865695272689 -4.02775842819e-05 0)
(0.865714544357 -3.09071711421e-05 0)
(0.865730843144 -2.2106886626e-05 0)
(0.865744200385 -1.42659492024e-05 0)
(0.865754861989 -7.49888623123e-06 0)
(0.865763143831 -1.75081859869e-06 0)
(0.865769339415 2.99284851678e-06 0)
(0.86577374319 6.57950155831e-06 0)
(0.865776822568 8.99656945066e-06 0)
(0.865778856853 1.06621771701e-05 0)
(0.86578016121 1.20609642885e-05 0)
(0.865781098913 1.32106828514e-05 0)
(0.865781698642 1.4214965406e-05 0)
(0.865782013971 1.50891100895e-05 0)
(0.865782132886 1.58590174708e-05 0)
(0.865782116215 1.65492419916e-05 0)
(0.865782004425 1.7187009876e-05 0)
(0.865781823341 1.77938970322e-05 0)
(0.865781592271 1.83872837047e-05 0)
(0.865781328872 1.89836523451e-05 0)
(0.865781045881 1.96017842169e-05 0)
(0.865780758258 2.02335648455e-05 0)
(0.865780487386 2.08771821276e-05 0)
(0.865780258445 2.15308367186e-05 0)
(0.865780106927 2.21875934587e-05 0)
(0.865780083251 2.2833881706e-05 0)
(0.865780256414 2.34464907112e-05 0)
(0.865780717531 2.39873092838e-05 0)
(0.865781585616 2.43981940732e-05 0)
(0.865783034154 2.46108768196e-05 0)
(0.865785310074 2.45864205646e-05 0)
(0.865788787986 2.41463915183e-05 0)
(0.865793927362 2.29704609205e-05 0)
(0.865801146444 2.03883628551e-05 0)
(0.865811928227 1.57136532179e-05 0)
(0.86582884627 7.28863138087e-06 0)
(0.865855020348 -6.81592100759e-06 0)
(0.865894444096 -2.86427507611e-05 0)
(0.865953016065 -6.21139214454e-05 0)
(0.866040162531 -0.000114273323096 0)
(0.866170615264 -0.000196174086058 0)
(0.866367355391 -0.000325555128063 0)
(0.866665991371 -0.000531692953922 0)
(0.867121554404 -0.00086489598026 0)
(0.867821537441 -0.00141441514026 0)
(0.868906507705 -0.00233317181935 0)
(0.87059712234 -0.00390370388334 0)
(0.873225050471 -0.006665752669 0)
(0.877210803654 -0.0116603851083 0)
(0.882910751061 -0.0208230917583 0)
(0.890553686665 -0.0375624575941 0)
(0.897735854701 -0.0676840901968 0)
(0.888502570696 -0.114356592612 0)
(1.01287875082 0.118961038867 0)
(1.08820670438 0.231806980928 0)
(1.13741366103 0.253106834905 0)
(1.15409084984 0.228992839232 0)
(1.14994209002 0.188368436249 0)
(1.13538465077 0.14657987065 0)
(1.11758899068 0.110150873835 0)
(1.10059514421 0.0808159127585 0)
(1.08612489421 0.0582259157856 0)
(1.07459154545 0.0413178045437 0)
(1.06579254601 0.0289141212415 0)
(1.05928973648 0.0199572635008 0)
(1.05460244245 0.0135775616851 0)
(1.0512946913 0.0090920715762 0)
(1.04900538438 0.0059792320964 0)
(1.04745095355 0.00384837206557 0)
(1.04641651471 0.00241128212055 0)
(1.04574345508 0.00145815128256 0)
(1.04531715469 0.000838151017942 0)
(1.04505624604 0.000444122117227 0)
(1.04490364856 0.000200860756548 0)
(1.04482028805 5.69484979179e-05 0)
(1.04478081879 -2.14258387214e-05 0)
(1.04476802725 -5.98472958862e-05 0)
(1.0447699601 -7.47040130034e-05 0)
(1.04477944927 -7.60775758261e-05 0)
(1.04479212123 -7.03159845609e-05 0)
(1.04480539663 -6.13568390289e-05 0)
(1.04481786231 -5.15467212362e-05 0)
(1.04482882526 -4.22044265331e-05 0)
(1.04483802541 -3.39970860415e-05 0)
(1.04484545401 -2.71990784704e-05 0)
(1.04485124997 -2.18399974201e-05 0)
(1.04485565088 -1.77812790196e-05 0)
(1.04485893323 -1.47260701141e-05 0)
(1.04486142136 -1.23343682233e-05 0)
(1.0448634843 -1.04634737422e-05 0)
(1.04486511934 -8.79154347634e-06 0)
(1.04486626148 -7.43502754102e-06 0)
(1.04486702303 -6.52171738095e-06 0)
(1.04486744628 -6.00909364346e-06 0)
(1.04486763306 -5.74798550885e-06 0)
(1.04486765771 -5.64833851972e-06 0)
(1.04486757262 -5.62915474432e-06 0)
(1.04486741033 -5.64780953012e-06 0)
(1.04486719748 -5.68323835754e-06 0)
(1.04486695968 -5.72724443403e-06 0)
(1.04486669429 -5.78593428449e-06 0)
(1.04486640313 -5.83817789639e-06 0)
(1.04486611493 -5.87517290961e-06 0)
(1.04486585604 -5.89703215411e-06 0)
(1.04486565863 -5.90663381657e-06 0)
(1.04486556849 -5.90996762073e-06 0)
(1.04486564953 -5.91918884798e-06 0)
(1.04486599265 -5.95838310297e-06 0)
(1.04486674467 -6.07959691458e-06 0)
(1.04486817246 -6.42615164739e-06 0)
(1.04487053753 -7.40522112626e-06 0)
(1.04487413736 -9.43118413356e-06 0)
(1.04487935845 -1.30767690322e-05 0)
(1.04488710562 -1.80256540666e-05 0)
(1.0448986973 -2.42158031088e-05 0)
(1.04491536883 -3.37807305164e-05 0)
(1.0449392823 -4.97506024208e-05 0)
(1.04497396343 -7.65435841947e-05 0)
(1.04502460081 -0.000120587756874 0)
(1.04509888074 -0.000191904395915 0)
(1.04520830118 -0.000306468629541 0)
(1.04537030342 -0.000490131296245 0)
(1.04561132412 -0.000785083271501 0)
(1.04597113936 -0.00126063384229 0)
(1.04650945379 -0.00203177004765 0)
(1.04731350449 -0.00329504998744 0)
(1.04850155152 -0.00539218025359 0)
(1.05020947032 -0.00892008399276 0)
(1.05250663667 -0.0149101165286 0)
(1.05516470876 -0.0250399543814 0)
(1.05740483736 -0.0417485106712 0)
(1.05650056644 -0.068094906489 0)
(1.04301361152 -0.103910023351 0)
(1.00447483498 0.0814040136998 0)
(1.06917237457 0.181288584986 0)
(1.13080569125 0.216950491335 0)
(1.17375001443 0.210789240913 0)
(1.19865267517 0.183690146008 0)
(1.21019992722 0.149751685709 0)
(1.21350264549 0.116779000732 0)
(1.21251739345 0.0882202750239 0)
(1.20973123395 0.0650473362132 0)
(1.20651158883 0.0470194913184 0)
(1.20351972377 0.0334045635382 0)
(1.20101231169 0.0233524128402 0)
(1.19903566719 0.0160673658025 0)
(1.19754045518 0.0108732983063 0)
(1.19644356927 0.00722620451944 0)
(1.1956585513 0.0047036283048 0)
(1.19510870629 0.00298577791558 0)
(1.19473128529 0.00183539622887 0)
(1.1944774345 0.00107944236374 0)
(1.19431037886 0.000593607500202 0)
(1.19420307517 0.000289880458115 0)
(1.19413631877 0.00010711495275 0)
(1.19409683005 3.17689298712e-06 0)
(1.19407504415 -5.12638768908e-05 0)
(1.19406428856 -7.53553178783e-05 0)
(1.19406029176 -8.15733646207e-05 0)
(1.19406021202 -7.79257755696e-05 0)
(1.19406221022 -6.94097729188e-05 0)
(1.19406514531 -5.90364280028e-05 0)
(1.19406834316 -4.85297751404e-05 0)
(1.19407142844 -3.87849751458e-05 0)
(1.19407421003 -3.01837100463e-05 0)
(1.19407661616 -2.27957249889e-05 0)
(1.19407865757 -1.65314338283e-05 0)
(1.19408037876 -1.12696436964e-05 0)
(1.19408182292 -6.90367104288e-06 0)
(1.19408301661 -3.40878048761e-06 0)
(1.19408389188 -8.73773743755e-07 0)
(1.19408434896 8.93352904723e-07 0)
(1.1940844652 2.03384643405e-06 0)
(1.1940844699 2.89613517103e-06 0)
(1.19408445746 3.61533122911e-06 0)
(1.19408441841 4.2007394826e-06 0)
(1.19408434734 4.66918230586e-06 0)
(1.19408422073 5.05941281892e-06 0)
(1.19408403215 5.40313948325e-06 0)
(1.19408378105 5.71470170557e-06 0)
(1.19408349431 5.98755626103e-06 0)
(1.19408320427 6.24136065612e-06 0)
(1.19408292042 6.49474117076e-06 0)
(1.19408266427 6.74810940197e-06 0)
(1.19408247345 6.98731046146e-06 0)
(1.1940823999 7.18764373517e-06 0)
(1.19408251053 7.31097986039e-06 0)
(1.19408288248 7.30026371274e-06 0)
(1.19408356573 7.07452679769e-06 0)
(1.1940844864 6.51505065722e-06 0)
(1.19408572285 5.3513201422e-06 0)
(1.19408758501 2.99683028039e-06 0)
(1.19409123209 -8.88690560039e-07 0)
(1.19409776406 -6.96503899668e-06 0)
(1.19410694939 -1.65986439756e-05 0)
(1.19411929681 -3.19279753782e-05 0)
(1.19413669527 -5.58523459288e-05 0)
(1.19416130011 -9.30237493393e-05 0)
(1.1941959074 -0.000150905752115 0)
(1.19424448653 -0.00024141731892 0)
(1.19431265775 -0.000383499434532 0)
(1.19440833264 -0.000607438955499 0)
(1.1945424273 -0.000961990767228 0)
(1.19472942556 -0.00152609383134 0)
(1.19498675659 -0.00242789597347 0)
(1.19533020152 -0.00387764711184 0)
(1.19575864391 -0.00622061035884 0)
(1.19621382735 -0.0100172086919 0)
(1.19647729426 -0.0161491281322 0)
(1.19595856295 -0.0258928075491 0)
(1.19348402061 -0.0408125810911 0)
(1.18665853245 -0.0623169729307 0)
(1.16980454666 -0.0893110073816 0)
(0.998962326479 0.0544316402146 0)
(1.05310957433 0.133401649859 0)
(1.11628270005 0.170777624175 0)
(1.17301275493 0.175143947294 0)
(1.21791252019 0.159583660937 0)
(1.25049866079 0.134951002661 0)
(1.27288501331 0.108411488085 0)
(1.28776732944 0.0838845387391 0)
(1.29745276646 0.0630557244504 0)
(1.30366076857 0.0462984707043 0)
(1.30759222371 0.0333182407496 0)
(1.3100533481 0.0235461836162 0)
(1.31157291603 0.0163552515752 0)
(1.3124937141 0.0111651076263 0)
(1.31303673126 0.00748354954792 0)
(1.31334395915 0.00491464171059 0)
(1.31350631286 0.00315116938083 0)
(1.31358168746 0.0019610697048 0)
(1.3136066277 0.00117277306763 0)
(1.31360388555 0.000661722903491 0)
(1.31358732123 0.000338973234044 0)
(1.31356523172 0.000142038393699 0)
(1.313542441 2.74096869264e-05 0)
(1.31352136722 -3.4728626602e-05 0)
(1.31350301678 -6.4214580867e-05 0)
(1.31348771355 -7.41464567749e-05 0)
(1.31347534152 -7.30044314304e-05 0)
(1.31346558781 -6.61320345033e-05 0)
(1.31345806979 -5.67927776788e-05 0)
(1.31345240302 -4.68994654932e-05 0)
(1.31344823307 -3.75093046963e-05 0)
(1.31344524715 -2.91447209699e-05 0)
(1.31344317775 -2.20080218098e-05 0)
(1.31344178622 -1.61243793602e-05 0)
(1.31344086222 -1.14478681186e-05 0)
(1.31344026198 -7.89257992709e-06 0)
(1.31343989417 -5.33956756587e-06 0)
(1.31343964852 -3.61665766212e-06 0)
(1.31343948421 -2.42937471365e-06 0)
(1.3134395211 -1.50337466786e-06 0)
(1.31343971144 -7.89519747231e-07 0)
(1.31343982647 -2.64312755943e-07 0)
(1.31343981028 1.74880249377e-07 0)
(1.3134397167 5.42500807465e-07 0)
(1.31343957981 8.59066370774e-07 0)
(1.31343940271 1.15291686347e-06 0)
(1.31343918024 1.45244289654e-06 0)
(1.31343891649 1.78679159357e-06 0)
(1.31343863549 2.15036305482e-06 0)
(1.31343835363 2.51832221191e-06 0)
(1.31343807471 2.86866873931e-06 0)
(1.31343781473 3.17581505944e-06 0)
(1.31343760479 3.39906748976e-06 0)
(1.31343748857 3.47616884015e-06 0)
(1.31343753006 3.31576417139e-06 0)
(1.31343783645 2.79035714057e-06 0)
(1.31343853671 1.76058679925e-06 0)
(1.31343954105 1.93440778367e-07 0)
(1.31344111792 -2.11134699519e-06 0)
(1.31344364858 -5.64834299871e-06 0)
(1.31344726383 -1.18272830312e-05 0)
(1.31345216932 -2.23566146017e-05 0)
(1.31345858876 -3.88853677342e-05 0)
(1.31346692997 -6.45489922803e-05 0)
(1.31347744642 -0.000104443842141 0)
(1.31349012093 -0.000166472608958 0)
(1.31350444793 -0.000262978429311 0)
(1.31351890189 -0.000413339576333 0)
(1.31352996491 -0.000648200461715 0)
(1.3135302902 -0.0010162328506 0)
(1.31350547508 -0.00159496335726 0)
(1.31342725207 -0.00250704187193 0)
(1.31323968069 -0.00394663656384 0)
(1.31283257031 -0.00621794843731 0)
(1.31199106781 -0.00978537680876 0)
(1.31030000332 -0.0153237720781 0)
(1.30698576972 -0.0237157005111 0)
(1.30079772548 -0.0358854226272 0)
(1.28978571351 -0.0523880158139 0)
(1.27031786009 -0.0721352304639 0)
(0.995736075475 0.0346338717846 0)
(1.0417951543 0.0905689545383 0)
(1.1022284181 0.121549616955 0)
(1.1649141749 0.129605892183 0)
(1.22202575091 0.122009306682 0)
(1.26951902827 0.106019912584 0)
(1.30680234001 0.0870973985386 0)
(1.33499539775 0.0686362961488 0)
(1.35574467229 0.052369099604 0)
(1.37069578317 0.0389243657541 0)
(1.38128189601 0.0282961228453 0)
(1.38866108552 0.0201684239293 0)
(1.39372768369 0.0141135444559 0)
(1.39715250676 0.00970005870584 0)
(1.39942834461 0.00654383901388 0)
(1.40091126407 0.00432610247137 0)
(1.40185488333 0.00279414914037 0)
(1.40243745143 0.00175413956664 0)
(1.40278260003 0.00106111069326 0)
(1.40297490912 0.000608884947418 0)
(1.40307138434 0.000321089024178 0)
(1.40310986079 0.000143703833097 0)
(1.40311501882 3.90105782555e-05 0)
(1.40310246903 -1.89250486067e-05 0)
(1.40308178473 -4.75489556676e-05 0)
(1.40305866462 -5.84504477822e-05 0)
(1.40303627113 -5.91525706782e-05 0)
(1.40301619814 -5.44292520491e-05 0)
(1.40299908972 -4.72269904466e-05 0)
(1.40298503954 -3.92980272976e-05 0)
(1.40297384424 -3.16317522406e-05 0)
(1.40296515759 -2.47350582646e-05 0)
(1.40295858261 -1.8823930685e-05 0)
(1.40295372067 -1.39418744109e-05 0)
(1.40295020494 -1.00180528265e-05 0)
(1.4029477339 -6.91590314509e-06 0)
(1.40294608142 -4.49148124158e-06 0)
(1.40294506644 -2.60171071452e-06 0)
(1.40294448399 -1.08947238599e-06 0)
(1.40294407764 8.48615452435e-08 0)
(1.40294376828 9.35370418838e-07 0)
(1.4029436246 1.49352960153e-06 0)
(1.40294358644 1.89963314144e-06 0)
(1.40294355447 2.24464634321e-06 0)
(1.40294349925 2.56842686712e-06 0)
(1.40294341172 2.89322280555e-06 0)
(1.40294328822 3.23469363982e-06 0)
(1.40294312861 3.60593479269e-06 0)
(1.40294292246 4.00787592616e-06 0)
(1.40294266759 4.41602167082e-06 0)
(1.40294238656 4.80728400038e-06 0)
(1.40294210365 5.15810042651e-06 0)
(1.40294184279 5.43292464363e-06 0)
(1.4029416317 5.57799000094e-06 0)
(1.40294149723 5.51437213914e-06 0)
(1.40294145374 5.12281466922e-06 0)
(1.40294150311 4.21171725635e-06 0)
(1.40294167066 2.53073848139e-06 0)
(1.40294188937 -7.23836388184e-08 0)
(1.40294233625 -4.44171593173e-06 0)
(1.40294313783 -1.14350903621e-05 0)
(1.40294386064 -2.23354914617e-05 0)
(1.40294391141 -3.89983972144e-05 0)
(1.40294244682 -6.43976717617e-05 0)
(1.40293785741 -0.000103167904636 0)
(1.40292723892 -0.000162469251874 0)
(1.40290557749 -0.000253373847234 0)
(1.40286426891 -0.000393020410551 0)
(1.40278866209 -0.000608155207745 0)
(1.40265396722 -0.00094062441399 0)
(1.40241915983 -0.00145610840611 0)
(1.40201561997 -0.00225552475416 0)
(1.40132733577 -0.00349383011207 0)
(1.4001593978 -0.00540449183444 0)
(1.39818751165 -0.0083261516536 0)
(1.39487941817 -0.0127192707309 0)
(1.38938892244 -0.0191349363528 0)
(1.380511538 -0.0280698533604 0)
(1.36665588655 -0.039683908799 0)
(1.34527292025 -0.053170666054 0)
(0.994011533018 0.0192358138855 0)
(1.03484764904 0.0523338610972 0)
(1.09199266504 0.0723631600742 0)
(1.15662427051 0.079129268274 0)
(1.22032126567 0.0761045687828 0)
(1.27701956928 0.0673339503765 0)
(1.3242442759 0.0561507935222 0)
(1.36181570988 0.0447987480456 0)
(1.39068503177 0.0345298769462 0)
(1.41226001765 0.0258805887061 0)
(1.42801674341 0.0189452135907 0)
(1.43929623258 0.0135830689633 0)
(1.44722385132 0.00955387847246 0)
(1.45269770894 0.00659658437917 0)
(1.45640966281 0.00446967209919 0)
(1.4588785347 0.00296792947451 0)
(1.46048500261 0.00192608609336 0)
(1.46150321577 0.0012159350601 0)
(1.46212730016 0.000740798537487 0)
(1.4624925292 0.000429414640688 0)
(1.46269166986 0.00023026328565 0)
(1.46278730924 0.000106743522449 0)
(1.46282093571 3.32251887551e-05 0)
(1.46281941792 -7.98100039572e-06 0)
(1.46279970432 -2.88070109367e-05 0)
(1.46277219465 -3.72382775248e-05 0)
(1.4627429845 -3.84648970263e-05 0)
(1.46271540481 -3.57941351979e-05 0)
(1.4626910694 -3.12802761233e-05 0)
(1.46267055984 -2.61550298643e-05 0)
(1.4626538692 -2.11214861435e-05 0)
(1.46264067684 -1.65429530782e-05 0)
(1.46263051723 -1.25784502064e-05 0)
(1.46262288482 -9.26434021956e-06 0)
(1.46261729345 -6.56081793361e-06 0)
(1.46261331146 -4.39092398065e-06 0)
(1.46261057187 -2.6780181572e-06 0)
(1.46260875058 -1.36929882664e-06 0)
(1.46260755121 -4.22615065553e-07 0)
(1.46260685089 2.75507741301e-07 0)
(1.4626065008 8.86464188477e-07 0)
(1.46260630837 1.43345328564e-06 0)
(1.46260621811 1.88963888756e-06 0)
(1.46260617511 2.28569700719e-06 0)
(1.46260614105 2.65332479195e-06 0)
(1.46260609004 3.01286656359e-06 0)
(1.46260600484 3.37477372472e-06 0)
(1.46260587602 3.74072721377e-06 0)
(1.46260569688 4.10510285512e-06 0)
(1.46260546532 4.47006516425e-06 0)
(1.46260518635 4.82340817756e-06 0)
(1.46260486575 5.13522175352e-06 0)
(1.4626045095 5.36010619053e-06 0)
(1.46260412472 5.43344101987e-06 0)
(1.46260372017 5.26564648064e-06 0)
(1.46260330906 4.73853013599e-06 0)
(1.46260291017 3.70616454859e-06 0)
(1.46260244873 2.00470148349e-06 0)
(1.46260168529 -5.40981110518e-07 0)
(1.46260039085 -4.2956796908e-06 0)
(1.46259830554 -1.04632161145e-05 0)
(1.46259477555 -2.01345689696e-05 0)
(1.46258860868 -3.48199262759e-05 0)
(1.46257789242 -5.68582430831e-05 0)
(1.46255939403 -8.98447307069e-05 0)
(1.46252775989 -0.000139253866333 0)
(1.46247426331 -0.000213351602664 0)
(1.46238456988 -0.00032456874673 0)
(1.46223515676 -0.00049191622415 0)
(1.4619874695 -0.000744704372511 0)
(1.46158032739 -0.00112913589821 0)
(1.4609157865 -0.00171243967785 0)
(1.45983584975 -0.00259483141793 0)
(1.45809015043 -0.00392235321144 0)
(1.45528933495 -0.00589729543235 0)
(1.45084240766 -0.0087785989677 0)
(1.4438873879 -0.012850620539 0)
(1.43328947599 -0.0183283331714 0)
(1.41768696489 -0.0252042035214 0)
(1.39507978298 -0.0329790299196 0)
(0.993269669213 0.00617015298178 0)
(1.03158101465 0.0171020521479 0)
(1.08672186032 0.0239906592009 0)
(1.151745622 0.0265606784254 0)
(1.21823547273 0.025818067618 0)
(1.27925786117 0.0230488807615 0)
(1.33140143511 0.0193655960285 0)
(1.37377591804 0.0155467699468 0)
(1.40691015642 0.0120447598375 0)
(1.43203220393 0.00906610997339 0)
(1.45060032348 0.0066601422773 0)
(1.46402668391 0.00478942866021 0)
(1.47354506683 0.00337750632605 0)
(1.48016793269 0.00233751072651 0)
(1.4846911856 0.00158734129355 0)
(1.48772082474 0.0010563436317 0)
(1.48970675987 0.000687132847309 0)
(1.49097605624 0.000434930921535 0)
(1.49176211604 0.00026582855021 0)
(1.49222867658 0.000154752448079 0)
(1.49248871382 8.35314328962e-05 0)
(1.49261888337 3.92297908132e-05 0)
(1.49267028052 1.27656654741e-05 0)
(1.49267625178 -2.14805593569e-06 0)
(1.49265800571 -9.75268469798e-06 0)
(1.49262867327 -1.28970747057e-05 0)
(1.49259607793 -1.34342304829e-05 0)
(1.49256458304 -1.25477441602e-05 0)
(1.49253638886 -1.09752786352e-05 0)
(1.49251238143 -9.15888292095e-06 0)
(1.49249268734 -7.34789550968e-06 0)
(1.49247701712 -5.68037084805e-06 0)
(1.49246487708 -4.21719320502e-06 0)
(1.49245570627 -2.97352003221e-06 0)
(1.49244895102 -1.93796533097e-06 0)
(1.49244410659 -1.08673213747e-06 0)
(1.49244073653 -3.95342155132e-07 0)
(1.49243847855 1.58212406203e-07 0)
(1.49243705627 6.14572324855e-07 0)
(1.49243621844 1.05230449231e-06 0)
(1.49243574506 1.40309967588e-06 0)
(1.4924355082 1.71983029439e-06 0)
(1.49243541998 2.02617645872e-06 0)
(1.49243540702 2.33824822872e-06 0)
(1.49243541836 2.66661876555e-06 0)
(1.4924354204 3.01736122515e-06 0)
(1.49243539067 3.3930824775e-06 0)
(1.49243531439 3.79270170767e-06 0)
(1.49243518055 4.20978572417e-06 0)
(1.49243498154 4.63513710139e-06 0)
(1.49243471365 5.05097232898e-06 0)
(1.49243437316 5.42937971715e-06 0)
(1.49243395382 5.73087796239e-06 0)
(1.49243344434 5.90031619942e-06 0)
(1.49243282352 5.86064836058e-06 0)
(1.49243205355 5.50375991463e-06 0)
(1.49243108935 4.67436724744e-06 0)
(1.49242991306 3.16337443451e-06 0)
(1.49242824995 8.65839041315e-07 0)
(1.49242539482 -2.4654473913e-06 0)
(1.49242083533 -7.65806343693e-06 0)
(1.49241381143 -1.54803455205e-05 0)
(1.49240262696 -2.69399646845e-05 0)
(1.4923846232 -4.34859322667e-05 0)
(1.49235547507 -6.72144441342e-05 0)
(1.4923082524 -0.000101180187906 0)
(1.49223198324 -0.000149744312197 0)
(1.49210895855 -0.000218854736301 0)
(1.49191038769 -0.000317150040828 0)
(1.49158896218 -0.000458264266352 0)
(1.49107249048 -0.000666571651463 0)
(1.49024857377 -0.000967817750042 0)
(1.48893811141 -0.00139788815601 0)
(1.48686487645 -0.00200741592074 0)
(1.48361296831 -0.00286082295087 0)
(1.47857366937 -0.00403034424469 0)
(1.47089431572 -0.00557766791347 0)
(1.45949112892 -0.00751496588375 0)
(1.44311141947 -0.00976188435069 0)
(1.41999225756 -0.0120837162727 0)
(0.993270467119 -0.00616840450101 0)
(1.03158099765 -0.0171003851943 0)
(1.08672179474 -0.0239897743479 0)
(1.15174566052 -0.0265602590494 0)
(1.2182355514 -0.0258179979094 0)
(1.27925796376 -0.0230490966681 0)