/*--------------------------------*- C++ -*----------------------------------*\
| =========                 |                                                 |
| \\      /  F ield         | OpenFOAM: The Open Source CFD Toolbox           |
|  \\    /   O peration     | Version:  2106                                  |
|   \\  /    A nd           | Website:  www.openfoam.com                      |
|    \\/     M anipulation  |                                                 |
\*---------------------------------------------------------------------------*/
FoamFile
{
    version     2.0;
    format      ascii;
    arch        "LSB;label=32;scalar=64";
    class       volScalarField;
    location    "0.1";
    object      p;
}
// * * * * * * * * * * * * * * * * * * * * * * * * * * * * * * * * * * * * * //

dimensions      [1 -1 -2 0 0 0 0];

internalField   nonuniform List<scalar> 
800
(
1
1
1
1
1
1
1
1
1
1
1
1
1
1
1
1
1
1
1
1
1
1
1
1
1
1
1
1
1
1
1
1
1
1
1
1
1
1
1
1
1
1
1
1
1
1
1
1
1
1
1
1
1
1
1
1
1
1
1
1
1
1
1
1
1
1
1
1
1
1
1
1
1
1
1
1
1
1
1
1
1
1
1
1
1
1
1
1
1
1
1
1
1
1
1
1
1
1
1
1
1
1
1
1
1
1
1
1
1
1
1
1
1
1
1
1
1
1
1
1
1
1
1
1
1
1
1
1
1
1
1
1
1
1
1
1
1
1
1
1
1
1
1
1
1
1
1
1
1
1
1
1
1
1
1
1
1
1
1
1
1
1
1
1
1
1
1
1
1
1
1
1
1
1
1
1
1
1
1
1
1
1
1
1
1
1
1
1
1
1
1
1
1
1
1
1
1
1
1
1
1
1
1
1
1
1
1
1
1
1
1
1
1
1
1
1
1
1
1
1
1
1
1
1
1
1
1
1
1
1
1
1
1
1
1
1
1
1
1
1
1
1
1
1
1
1
1
1
1
1
1
1
1
1
1
1
1
1
1
1
1
1
1
1
1
1
1
1
1
1
1
1
1
1
1
1
1
1
1
1
1
1
0.999941
0.998388
0.98997
0.974366
0.95817
0.944343
0.932602
0.922147
0.912412
0.903079
0.893984
0.88505
0.876237
0.867529
0.858915
0.850388
0.841945
0.833582
0.825297
0.817087
0.808952
0.80089
0.792899
0.784979
0.777128
0.769347
0.761633
0.753987
0.746407
0.738893
0.731445
0.724061
0.716742
0.709486
0.702293
0.695163
0.688095
0.681089
0.674143
0.667258
0.660433
0.653668
0.646962
0.640314
0.633724
0.627193
0.620718
0.6143
0.607939
0.601633
0.595383
0.589188
0.583047
0.576961
0.570928
0.564949
0.559023
0.553149
0.547327
0.541556
0.535837
0.530169
0.524551
0.518983
0.513465
0.507997
0.502577
0.497206
0.491883
0.486607
0.48138
0.476199
0.471065
0.465978
0.460936
0.455941
0.450991
0.446086
0.441226
0.43641
0.431639
0.426911
0.422227
0.417587
0.412989
0.408434
0.403922
0.399452
0.395025
0.390638
0.386294
0.381991
0.377729
0.373507
0.369327
0.365186
0.361086
0.357025
0.353005
0.349023
0.345081
0.341177
0.337312
0.333484
0.329695
0.325943
0.322228
0.318553
0.314926
0.311379
0.307994
0.304967
0.302625
0.301306
0.300916
0.300982
0.301408
0.301534
0.301396
0.301164
0.3011
0.301098
0.301134
0.301172
0.3012
0.301238
0.301289
0.301327
0.301351
0.301381
0.301434
0.301496
0.301542
0.301572
0.30159
0.301599
0.301602
0.301605
0.301625
0.301668
0.301705
0.30173
0.301749
0.301762
0.30177
0.301776
0.301788
0.30181
0.301824
0.301826
0.30182
0.301802
0.301771
0.30173
0.301697
0.301682
0.301675
0.301667
0.301656
0.301649
0.301646
0.301638
0.30162
0.301611
0.301616
0.301628
0.30163
0.301632
0.301644
0.301653
0.301652
0.301647
0.301656
0.301681
0.301692
0.301694
0.301702
0.301714
0.301715
0.301711
0.301713
0.301741
0.301762
0.301763
0.30176
0.301762
0.301756
0.301728
0.301703
0.301694
0.301703
0.301696
0.301682
0.301683
0.301683
0.301669
0.301644
0.30164
0.30166
0.301663
0.301649
0.301648
0.301655
0.301654
0.301638
0.301637
0.301672
0.3017
0.301749
0.301879
0.302065
0.302417
0.302848
0.300402
0.300964
0.302436
0.302738
0.30259
0.301983
0.301503
0.301245
0.301049
0.300941
0.300993
0.301473
0.302278
0.302623
0.302592
0.302445
0.302033
0.301361
0.300954
0.300882
0.300954
0.30114
0.301638
0.302266
0.302483
0.30249
0.302359
0.301877
0.301183
0.300923
0.300876
0.300916
0.301222
0.301882
0.302385
0.302435
0.302403
0.302217
0.301711
0.301092
0.300885
0.300925
0.301047
0.301407
0.302035
0.302356
0.302376
0.302332
0.302107
0.30155
0.301076
0.300991
0.301001
0.301149
0.301606
0.302167
0.302329
0.30235
0.302289
0.301993
0.301424
0.301087
0.301066
0.301101
0.301283
0.301744
0.302197
0.302297
0.302268
0.302164
0.301843
0.301326
0.301099
0.301089
0.301133
0.301368
0.301886
0.302075
0.30186
0.298017
0.259284
0.148298
0.101488
0.100002
0.1
0.1
0.1
0.1
0.1
0.1
0.1
0.1
0.1
0.1
0.1
0.1
0.1
0.1
0.1
0.1
0.1
0.1
0.1
0.1
0.1
0.1
0.1
0.1
0.1
0.1
0.1
0.1
0.1
0.1
0.1
0.1
0.1
0.1
0.1
0.1
0.1
0.1
0.1
0.1
0.1
0.1
0.1
0.1
0.1
0.1
0.1
0.1
0.1
0.1
0.1
0.1
0.1
0.1
0.1
0.1
0.1
0.1
0.1
0.1
0.1
0.1
0.1
0.1
0.1
0.1
0.1
0.1
0.1
0.1
0.1
0.1
0.1
0.1
0.1
0.1
0.1
0.1
0.1
0.1
0.1
0.1
0.1
0.1
0.1
0.1
0.1
0.1
0.1
0.1
0.1
0.1
0.1
0.1
0.1
0.1
0.1
0.1
0.1
0.1
0.1
0.1
0.1
0.1
0.1
0.1
0.1
0.1
0.1
0.1
0.1
0.1
0.1
0.1
0.1
0.1
0.1
0.1
0.1
0.1
0.1
0.1
0.1
0.1
0.1
0.1
0.1
0.1
0.1
0.1
0.1
0.1
0.1
0.1
0.1
0.1
0.1
0.1
0.1
0.1
0.1
0.1
0.1
0.1
0.1
0.1
0.1
0.1
0.1
0.1
0.1
0.1
0.1
0.1
0.1
0.1
0.1
0.1
0.1
0.1
0.1
0.1
0.1
0.1
0.1
0.1
0.1
0.1
0.1
0.1
0.1
0.1
0.1
0.1
0.1
0.1
0.1
0.1
0.1
0.1
0.1
0.1
0.1
0.1
0.1
0.1
0.1
0.1
0.1
0.1
0.1
0.1
0.1
0.1
0.1
0.1
0.1
0.1
0.1
0.1
0.1
0.1
0.1
0.1
0.1
0.1
0.1
0.1
0.1
0.1
0.1
0.1
0.1
0.1
0.1
0.1
0.1
0.1
0.1
0.1
0.1
)
;

boundaryField
{
    left
    {
        type            zeroGradient;
    }
    right
    {
        type            zeroGradient;
    }
    empty
    {
        type            empty;
    }
}


// ************************************************************************* //
