/*--------------------------------*- C++ -*----------------------------------*\
| =========                 |                                                 |
| \\      /  F ield         | OpenFOAM: The Open Source CFD Toolbox           |
|  \\    /   O peration     | Version:  2106                                  |
|   \\  /    A nd           | Website:  www.openfoam.com                      |
|    \\/     M anipulation  |                                                 |
\*---------------------------------------------------------------------------*/
FoamFile
{
    version     2.0;
    format      ascii;
    arch        "LSB;label=32;scalar=64";
    class       volScalarField;
    location    "0.1";
    object      rho;
}
// * * * * * * * * * * * * * * * * * * * * * * * * * * * * * * * * * * * * * //

dimensions      [1 -3 0 0 0 0 0];

internalField   nonuniform List<scalar> 
800
(
1.00435
1.00435
1.00435
1.00435
1.00435
1.00435
1.00435
1.00435
1.00435
1.00435
1.00435
1.00435
1.00435
1.00435
1.00435
1.00435
1.00435
1.00435
1.00435
1.00435
1.00435
1.00435
1.00435
1.00435
1.00435
1.00435
1.00435
1.00435
1.00435
1.00435
1.00435
1.00435
1.00435
1.00435
1.00435
1.00435
1.00435
1.00435
1.00435
1.00435
1.00435
1.00435
1.00435
1.00435
1.00435
1.00435
1.00435
1.00435
1.00435
1.00435
1.00435
1.00435
1.00435
1.00435
1.00435
1.00435
1.00435
1.00435
1.00435
1.00435
1.00435
1.00435
1.00435
1.00435
1.00435
1.00435
1.00435
1.00435
1.00435
1.00435
1.00435
1.00435
1.00435
1.00435
1.00435
1.00435
1.00435
1.00435
1.00435
1.00435
1.00435
1.00435
1.00435
1.00435
1.00435
1.00435
1.00435
1.00435
1.00435
1.00435
1.00435
1.00435
1.00435
1.00435
1.00435
1.00435
1.00435
1.00435
1.00435
1.00435
1.00435
1.00435
1.00435
1.00435
1.00435
1.00435
1.00435
1.00435
1.00435
1.00435
1.00435
1.00435
1.00435
1.00435
1.00435
1.00435
1.00435
1.00435
1.00435
1.00435
1.00435
1.00435
1.00435
1.00435
1.00435
1.00435
1.00435
1.00435
1.00435
1.00435
1.00435
1.00435
1.00435
1.00435
1.00435
1.00435
1.00435
1.00435
1.00435
1.00435
1.00435
1.00435
1.00435
1.00435
1.00435
1.00435
1.00435
1.00435
1.00435
1.00435
1.00435
1.00435
1.00435
1.00435
1.00435
1.00435
1.00435
1.00435
1.00435
1.00435
1.00435
1.00435
1.00435
1.00435
1.00435
1.00435
1.00435
1.00435
1.00435
1.00435
1.00435
1.00435
1.00435
1.00435
1.00435
1.00435
1.00435
1.00435
1.00435
1.00435
1.00435
1.00435
1.00435
1.00435
1.00435
1.00435
1.00435
1.00435
1.00435
1.00435
1.00435
1.00435
1.00435
1.00435
1.00435
1.00435
1.00435
1.00435
1.00435
1.00435
1.00435
1.00435
1.00435
1.00435
1.00435
1.00435
1.00435
1.00435
1.00435
1.00435
1.00435
1.00435
1.00435
1.00435
1.00435
1.00435
1.00435
1.00435
1.00435
1.00435
1.00435
1.00435
1.00435
1.00435
1.00435
1.00435
1.00435
1.00435
1.00435
1.00435
1.00435
1.00435
1.00435
1.00435
1.00435
1.00435
1.00435
1.00435
1.00435
1.00435
1.00435
1.00435
1.00435
1.00435
1.00435
1.00435
1.00435
1.00435
1.00435
1.00435
1.00435
1.00435
1.00435
1.00435
1.00435
1.00435
1.00435
1.00435
1.00435
1.00435
1.00435
1.00435
1.00435
1.00435
1.00435
1.00435
1.00435
1.00435
1.00435
1.00435
1.00435
1.00435
1.00435
1.00435
1.00435
1.00435
1.00435
1.00435
1.00435
1.00435
1.00435
1.00435
1.00431
1.00319
0.997141
0.985893
0.974166
0.964109
0.955536
0.947876
0.940721
0.93384
0.927116
0.920491
0.913938
0.907443
0.901001
0.894605
0.888254
0.881946
0.875678
0.86945
0.86326
0.857108
0.850994
0.844916
0.838874
0.832867
0.826897
0.820961
0.815059
0.809193
0.80336
0.797561
0.791796
0.786065
0.780366
0.774701
0.769069
0.763469
0.757902
0.752367
0.746864
0.741393
0.735954
0.730547
0.725171
0.719826
0.714512
0.70923
0.703978
0.698756
0.693565
0.688405
0.683274
0.678174
0.673103
0.668062
0.66305
0.658068
0.653115
0.648191
0.643296
0.638429
0.633592
0.628782
0.624001
0.619249
0.614524
0.609827
0.605158
0.600517
0.595903
0.591317
0.586758
0.582226
0.577721
0.573243
0.568792
0.564368
0.559971
0.5556
0.551256
0.546938
0.542646
0.538381
0.534142
0.529929
0.525742
0.521581
0.517446
0.513337
0.509254
0.505196
0.501165
0.497159
0.493179
0.489225
0.485297
0.481394
0.477516
0.473664
0.469838
0.466036
0.46226
0.458509
0.454783
0.451081
0.447404
0.443754
0.440141
0.436595
0.433201
0.430157
0.427795
0.426465
0.426071
0.426138
0.426566
0.426697
0.426559
0.426328
0.426263
0.426259
0.426296
0.426335
0.426363
0.426404
0.426456
0.426497
0.426523
0.426554
0.426608
0.426671
0.426718
0.42675
0.42677
0.42678
0.426785
0.426789
0.426811
0.426855
0.426893
0.426919
0.426939
0.426954
0.426963
0.426971
0.426984
0.427008
0.427024
0.427028
0.427024
0.427008
0.42698
0.42694
0.426908
0.426893
0.426886
0.42688
0.426872
0.42687
0.42687
0.426865
0.426847
0.426836
0.426841
0.426853
0.426857
0.426864
0.426881
0.426895
0.426898
0.4269
0.426912
0.426939
0.426955
0.42696
0.426971
0.426988
0.426993
0.426993
0.426999
0.427031
0.427057
0.427061
0.427063
0.427069
0.427066
0.427044
0.427023
0.427023
0.427036
0.427032
0.427022
0.427027
0.427035
0.427034
0.427036
0.427078
0.427144
0.427158
0.427136
0.427091
0.42695
0.426558
0.425632
0.423691
0.419865
0.41271
0.400352
0.380925
0.353802
0.321736
0.291332
0.268634
0.2603
0.259543
0.2596
0.259543
0.259361
0.259397
0.259669
0.260065
0.260497
0.260901
0.261409
0.262059
0.262348
0.262384
0.262335
0.262081
0.261634
0.261329
0.261221
0.261157
0.261149
0.261344
0.261651
0.261726
0.261703
0.261607
0.261331
0.260973
0.260895
0.260944
0.261047
0.261313
0.261785
0.26212
0.262156
0.262127
0.261969
0.261586
0.26113
0.260942
0.260902
0.260922
0.261119
0.261511
0.261725
0.261755
0.261769
0.26169
0.2614
0.261154
0.261138
0.261169
0.261285
0.261572
0.261891
0.261949
0.26192
0.261833
0.261594
0.261203
0.260976
0.260954
0.260972
0.261096
0.261407
0.261718
0.261808
0.261826
0.261803
0.261635
0.261336
0.261211
0.261209
0.261232
0.26135
0.261624
0.2617
0.261529
0.259089
0.234662
0.158804
0.124595
0.123439
0.123438
0.123438
0.123438
0.123438
0.123438
0.123438
0.123438
0.123438
0.123438
0.123438
0.123438
0.123438
0.123438
0.123438
0.123438
0.123438
0.123438
0.123438
0.123438
0.123438
0.123438
0.123438
0.123438
0.123438
0.123438
0.123438
0.123438
0.123438
0.123438
0.123438
0.123438
0.123438
0.123438
0.123438
0.123438
0.123438
0.123438
0.123438
0.123438
0.123438
0.123438
0.123438
0.123438
0.123438
0.123438
0.123438
0.123438
0.123438
0.123438
0.123438
0.123438
0.123438
0.123438
0.123438
0.123438
0.123438
0.123438
0.123438
0.123438
0.123438
0.123438
0.123438
0.123438
0.123438
0.123438
0.123438
0.123438
0.123438
0.123438
0.123438
0.123438
0.123438
0.123438
0.123438
0.123438
0.123438
0.123438
0.123438
0.123438
0.123438
0.123438
0.123438
0.123438
0.123438
0.123438
0.123438
0.123438
0.123438
0.123438
0.123438
0.123438
0.123438
0.123438
0.123438
0.123438
0.123438
0.123438
0.123438
0.123438
0.123438
0.123438
0.123438
0.123438
0.123438
0.123438
0.123438
0.123438
0.123438
0.123438
0.123438
0.123438
0.123438
0.123438
0.123438
0.123438
0.123438
0.123438
0.123438
0.123438
0.123438
0.123438
0.123438
0.123438
0.123438
0.123438
0.123438
0.123438
0.123438
0.123438
0.123438
0.123438
0.123438
0.123438
0.123438
0.123438
0.123438
0.123438
0.123438
0.123438
0.123438
0.123438
0.123438
0.123438
0.123438
0.123438
0.123438
0.123438
0.123438
0.123438
0.123438
0.123438
0.123438
0.123438
0.123438
0.123438
0.123438
0.123438
0.123438
0.123438
0.123438
0.123438
0.123438
0.123438
0.123438
0.123438
0.123438
0.123438
0.123438
0.123438
0.123438
0.123438
0.123438
0.123438
0.123438
0.123438
0.123438
0.123438
0.123438
0.123438
0.123438
0.123438
0.123438
0.123438
0.123438
0.123438
0.123438
0.123438
0.123438
0.123438
0.123438
0.123438
0.123438
0.123438
0.123438
0.123438
0.123438
0.123438
0.123438
0.123438
0.123438
0.123438
0.123438
0.123438
0.123438
0.123438
0.123438
0.123438
0.123438
0.123438
0.123438
0.123438
0.123438
0.123438
0.123438
0.123438
0.123438
0.123438
0.123438
0.123438
0.123438
0.123438
)
;

boundaryField
{
    left
    {
        type            calculated;
        value           uniform 0.123438;
    }
    right
    {
        type            calculated;
        value           uniform 1.00435;
    }
    empty
    {
        type            empty;
    }
}


// ************************************************************************* //
