/*--------------------------------*- C++ -*----------------------------------*\
| =========                 |                                                 |
| \\      /  F ield         | OpenFOAM: The Open Source CFD Toolbox           |
|  \\    /   O peration     | Version:  2106                                  |
|   \\  /    A nd           | Website:  www.openfoam.com                      |
|    \\/     M anipulation  |                                                 |
\*---------------------------------------------------------------------------*/
FoamFile
{
    version     2.0;
    format      ascii;
    arch        "LSB;label=32;scalar=64";
    class       volScalarField;
    location    "0.1";
    object      T;
}
// * * * * * * * * * * * * * * * * * * * * * * * * * * * * * * * * * * * * * //

dimensions      [0 0 0 1 0 0 0];

internalField   nonuniform List<scalar> 
800
(
0.003468
0.003468
0.003468
0.003468
0.003468
0.003468
0.003468
0.003468
0.003468
0.003468
0.003468
0.003468
0.003468
0.003468
0.003468
0.003468
0.003468
0.003468
0.003468
0.003468
0.003468
0.003468
0.003468
0.003468
0.003468
0.003468
0.003468
0.003468
0.003468
0.003468
0.003468
0.003468
0.003468
0.003468
0.003468
0.003468
0.003468
0.003468
0.003468
0.003468
0.003468
0.003468
0.003468
0.003468
0.003468
0.003468
0.003468
0.003468
0.003468
0.003468
0.003468
0.003468
0.003468
0.003468
0.003468
0.003468
0.003468
0.003468
0.003468
0.003468
0.003468
0.003468
0.003468
0.003468
0.003468
0.003468
0.003468
0.003468
0.003468
0.003468
0.003468
0.003468
0.003468
0.003468
0.003468
0.003468
0.003468
0.003468
0.003468
0.003468
0.003468
0.003468
0.003468
0.003468
0.003468
0.003468
0.003468
0.003468
0.003468
0.003468
0.003468
0.003468
0.003468
0.003468
0.003468
0.003468
0.003468
0.003468
0.003468
0.003468
0.003468
0.003468
0.003468
0.003468
0.003468
0.003468
0.003468
0.003468
0.003468
0.003468
0.003468
0.003468
0.003468
0.003468
0.003468
0.003468
0.003468
0.003468
0.003468
0.003468
0.003468
0.003468
0.003468
0.003468
0.003468
0.003468
0.003468
0.003468
0.003468
0.003468
0.003468
0.003468
0.003468
0.003468
0.003468
0.003468
0.003468
0.003468
0.003468
0.003468
0.003468
0.003468
0.003468
0.003468
0.003468
0.003468
0.003468
0.003468
0.003468
0.003468
0.003468
0.003468
0.003468
0.003468
0.003468
0.003468
0.003468
0.003468
0.003468
0.003468
0.003468
0.003468
0.003468
0.003468
0.003468
0.003468
0.003468
0.003468
0.003468
0.003468
0.003468
0.003468
0.003468
0.003468
0.003468
0.003468
0.003468
0.003468
0.003468
0.003468
0.003468
0.003468
0.003468
0.003468
0.003468
0.003468
0.003468
0.003468
0.003468
0.003468
0.003468
0.003468
0.003468
0.003468
0.003468
0.003468
0.003468
0.003468
0.003468
0.003468
0.003468
0.003468
0.003468
0.003468
0.003468
0.003468
0.003468
0.003468
0.003468
0.003468
0.003468
0.003468
0.003468
0.003468
0.003468
0.003468
0.003468
0.003468
0.003468
0.003468
0.003468
0.003468
0.003468
0.003468
0.003468
0.003468
0.003468
0.003468
0.003468
0.003468
0.003468
0.003468
0.003468
0.003468
0.003468
0.003468
0.003468
0.003468
0.003468
0.003468
0.003468
0.003468
0.003468
0.003468
0.003468
0.003468
0.003468
0.003468
0.003468
0.003468
0.003468
0.003468
0.003468
0.003468
0.003468
0.003468
0.003468
0.003468
0.003468
0.003468
0.003468
0.003468
0.003468
0.003468
0.003468
0.003468
0.003468
0.003468
0.003468
0.003468
0.003468
0.003468
0.003468
0.003468
0.003468
0.003468
0.003468
0.003468
0.003468
0.003468
0.003468
0.003468
0.00346794
0.0034664
0.00345803
0.00344236
0.00342589
0.00341167
0.00339949
0.00338854
0.00337827
0.00336835
0.00335861
0.00334898
0.00333941
0.00332988
0.00332039
0.00331093
0.00330149
0.00329208
0.00328269
0.00327332
0.00326396
0.00325463
0.0032453
0.003236
0.00322671
0.00321744
0.00320818
0.00319893
0.0031897
0.00318049
0.00317129
0.0031621
0.00315292
0.00314376
0.00313461
0.00312548
0.00311636
0.00310725
0.00309815
0.00308907
0.00308
0.00307095
0.0030619
0.00305287
0.00304386
0.00303485
0.00302586
0.00301688
0.00300791
0.00299896
0.00299001
0.00298108
0.00297217
0.00296326
0.00295437
0.00294548
0.00293661
0.00292776
0.00291891
0.00291008
0.00290126
0.00289245
0.00288365
0.00287486
0.00286609
0.00285733
0.00284858
0.00283984
0.00283111
0.00282239
0.00281369
0.002805
0.00279632
0.00278765
0.00277899
0.00277034
0.00276171
0.00275309
0.00274448
0.00273588
0.00272729
0.00271871
0.00271015
0.0027016
0.00269306
0.00268453
0.00267602
0.00266752
0.00265903
0.00265055
0.00264209
0.00263364
0.0026252
0.00261678
0.00260837
0.00259998
0.0025916
0.00258323
0.00257488
0.00256654
0.00255821
0.0025499
0.00254161
0.00253333
0.00252506
0.00251681
0.00250858
0.00250036
0.00249219
0.00248413
0.00247638
0.00246939
0.00246396
0.00246087
0.00245995
0.00246011
0.00246112
0.00246139
0.00246107
0.0024605
0.00246035
0.00246035
0.00246044
0.00246053
0.00246059
0.00246067
0.00246078
0.00246085
0.0024609
0.00246097
0.00246109
0.00246123
0.00246133
0.0024614
0.00246143
0.00246144
0.00246144
0.00246144
0.00246148
0.00246157
0.00246166
0.00246171
0.00246175
0.00246178
0.00246178
0.00246179
0.00246181
0.00246185
0.00246188
0.00246187
0.00246184
0.00246178
0.0024617
0.00246159
0.00246151
0.00246147
0.00246145
0.00246142
0.00246138
0.00246134
0.00246131
0.00246128
0.00246123
0.00246122
0.00246123
0.00246126
0.00246125
0.00246123
0.00246123
0.00246122
0.00246119
0.00246114
0.00246115
0.0024612
0.0024612
0.00246118
0.00246118
0.00246118
0.00246116
0.00246113
0.00246111
0.00246116
0.00246117
0.00246116
0.00246113
0.00246111
0.00246107
0.00246097
0.0024609
0.00246082
0.00246081
0.00246078
0.00246073
0.0024607
0.00246066
0.00246055
0.00246033
0.00246006
0.00245984
0.00245979
0.0024598
0.00246005
0.00246092
0.00246318
0.0024684
0.0024797
0.00250259
0.00254621
0.00262524
0.00276031
0.00297375
0.00327393
0.00362077
0.00389499
0.00402721
0.0040587
0.00406187
0.00406078
0.00405548
0.00404847
0.00404077
0.00403198
0.00402385
0.00401833
0.0040169
0.00401765
0.0040178
0.00401683
0.00401564
0.00401404
0.00401196
0.00401121
0.00401192
0.00401386
0.00401647
0.0040201
0.00402375
0.00402548
0.00402594
0.00402568
0.00402349
0.00401974
0.00401747
0.00401611
0.00401505
0.00401503
0.00401658
0.00401813
0.00401824
0.00401826
0.00401821
0.00401736
0.00401612
0.00401625
0.00401739
0.00401872
0.00402048
0.00402282
0.00402382
0.00402361
0.00402281
0.00402103
0.00401808
0.00401554
0.00401465
0.00401429
0.00401449
0.00401617
0.00401875
0.00402
0.00402074
0.00402126
0.00402099
0.00401942
0.00401842
0.00401847
0.00401868
0.00401919
0.00402054
0.00402179
0.00402176
0.00402109
0.00402006
0.00401836
0.00401607
0.00401497
0.00401488
0.0040151
0.00401641
0.00401911
0.00402046
0.00402022
0.00400641
0.00384855
0.00325265
0.00283712
0.00282174
0.00282173
0.00282173
0.00282173
0.00282173
0.00282173
0.00282173
0.00282173
0.00282173
0.00282173
0.00282173
0.00282173
0.00282173
0.00282173
0.00282173
0.00282173
0.00282173
0.00282173
0.00282173
0.00282173
0.00282173
0.00282173
0.00282173
0.00282173
0.00282173
0.00282173
0.00282173
0.00282173
0.00282173
0.00282173
0.00282173
0.00282173
0.00282173
0.00282173
0.00282173
0.00282173
0.00282173
0.00282173
0.00282173
0.00282173
0.00282173
0.00282173
0.00282173
0.00282173
0.00282173
0.00282173
0.00282173
0.00282173
0.00282173
0.00282173
0.00282173
0.00282173
0.00282173
0.00282173
0.00282173
0.00282173
0.00282173
0.00282173
0.00282173
0.00282173
0.00282173
0.00282173
0.00282173
0.00282173
0.00282173
0.00282173
0.00282173
0.00282173
0.00282173
0.00282173
0.00282173
0.00282173
0.00282173
0.00282173
0.00282173
0.00282173
0.00282173
0.00282173
0.00282173
0.00282173
0.00282173
0.00282173
0.00282173
0.00282173
0.00282173
0.00282173
0.00282173
0.00282173
0.00282173
0.00282173
0.00282173
0.00282173
0.00282173
0.00282173
0.00282173
0.00282173
0.00282173
0.00282173
0.00282173
0.00282173
0.00282173
0.00282173
0.00282173
0.00282173
0.00282173
0.00282173
0.00282173
0.00282173
0.00282173
0.00282173
0.00282173
0.00282173
0.00282173
0.00282173
0.00282173
0.00282173
0.00282173
0.00282173
0.00282173
0.00282173
0.00282173
0.00282173
0.00282173
0.00282173
0.00282173
0.00282173
0.00282173
0.00282173
0.00282173
0.00282173
0.00282173
0.00282173
0.00282173
0.00282173
0.00282173
0.00282173
0.00282173
0.00282173
0.00282173
0.00282173
0.00282173
0.00282173
0.00282173
0.00282173
0.00282173
0.00282173
0.00282173
0.00282173
0.00282173
0.00282173
0.00282173
0.00282173
0.00282173
0.00282173
0.00282173
0.00282173
0.00282173
0.00282173
0.00282173
0.00282173
0.00282173
0.00282173
0.00282173
0.00282173
0.00282173
0.00282173
0.00282173
0.00282173
0.00282173
0.00282173
0.00282173
0.00282173
0.00282173
0.00282173
0.00282173
0.00282173
0.00282173
0.00282173
0.00282173
0.00282173
0.00282173
0.00282173
0.00282173
0.00282173
0.00282173
0.00282173
0.00282173
0.00282173
0.00282173
0.00282173
0.00282173
0.00282173
0.00282173
0.00282173
0.00282173
0.00282173
0.00282173
0.00282173
0.00282173
0.00282173
0.00282173
0.00282173
0.00282173
0.00282173
0.00282173
0.00282173
0.00282173
0.00282173
0.00282173
0.00282173
0.00282173
0.00282173
0.00282173
0.00282173
0.00282173
0.00282173
0.00282173
0.00282173
0.00282173
0.00282173
0.00282173
0.00282173
)
;

boundaryField
{
    left
    {
        type            zeroGradient;
    }
    right
    {
        type            zeroGradient;
    }
    empty
    {
        type            empty;
    }
}


// ************************************************************************* //
