/*--------------------------------*- C++ -*----------------------------------*\
| =========                 |                                                 |
| \\      /  F ield         | OpenFOAM: The Open Source CFD Toolbox           |
|  \\    /   O peration     | Version:  2106                                  |
|   \\  /    A nd           | Website:  www.openfoam.com                      |
|    \\/     M anipulation  |                                                 |
\*---------------------------------------------------------------------------*/
FoamFile
{
    version     2.0;
    format      ascii;
    arch        "LSB;label=32;scalar=64";
    class       volVectorField;
    location    "0.1";
    object      U;
}
// * * * * * * * * * * * * * * * * * * * * * * * * * * * * * * * * * * * * * //

dimensions      [0 1 -1 0 0 0 0];

internalField   nonuniform List<vector> 
800
(
(-2.99719e-11 0 0)
(-3.61892e-11 0 0)
(-1.16396e-10 0 0)
(-1.64134e-10 0 0)
(-1.92513e-10 0 0)
(-2.13581e-10 0 0)
(-2.22554e-10 0 0)
(-2.90875e-10 0 0)
(-3.39981e-10 0 0)
(-2.81454e-10 0 0)
(-2.02311e-10 0 0)
(-1.49139e-10 0 0)
(-1.08763e-10 0 0)
(-6.58301e-11 0 0)
(-2.06699e-11 0 0)
(4.97311e-11 0 0)
(8.76212e-11 0 0)
(7.83851e-11 0 0)
(4.39892e-11 0 0)
(4.18095e-11 0 0)
(6.25649e-11 0 0)
(3.24242e-11 0 0)
(-1.9791e-11 0 0)
(-7.0814e-11 0 0)
(-1.27095e-10 0 0)
(-1.31593e-10 0 0)
(-1.46334e-10 0 0)
(-1.52358e-10 0 0)
(-1.28505e-10 0 0)
(-1.07747e-10 0 0)
(-1.02324e-10 0 0)
(-1.07245e-10 0 0)
(-1.25473e-10 0 0)
(-7.69407e-11 0 0)
(-8.35723e-12 0 0)
(1.9999e-11 0 0)
(3.71489e-11 0 0)
(4.2635e-11 0 0)
(4.10469e-11 0 0)
(1.14122e-10 0 0)
(1.69212e-10 0 0)
(2.05965e-10 0 0)
(1.09221e-10 0 0)
(9.28472e-11 0 0)
(1.39289e-10 0 0)
(1.42842e-10 0 0)
(9.74425e-11 0 0)
(8.4124e-11 0 0)
(6.33057e-11 0 0)
(3.4164e-11 0 0)
(-1.20968e-11 0 0)
(-1.22562e-10 0 0)
(-1.65244e-10 0 0)
(-1.62429e-10 0 0)
(-1.51699e-10 0 0)
(-1.5058e-10 0 0)
(-1.49759e-10 0 0)
(-1.26028e-10 0 0)
(-9.72751e-11 0 0)
(-4.01934e-11 0 0)
(2.13434e-12 0 0)
(4.07373e-12 0 0)
(-4.47956e-11 0 0)
(-2.63456e-11 0 0)
(-3.0812e-11 0 0)
(-1.92552e-11 0 0)
(1.52155e-11 0 0)
(2.4593e-11 0 0)
(-8.04465e-12 0 0)
(-1.20092e-10 0 0)
(-2.32302e-10 0 0)
(-2.86113e-10 0 0)
(-2.42955e-10 0 0)
(-1.17193e-10 0 0)
(-4.13473e-11 0 0)
(3.44833e-11 0 0)
(8.11956e-11 0 0)
(1.24502e-10 0 0)
(1.75412e-10 0 0)
(2.09427e-10 0 0)
(2.22532e-10 0 0)
(2.09069e-10 0 0)
(2.19943e-10 0 0)
(2.32324e-10 0 0)
(1.88666e-10 0 0)
(8.03059e-11 0 0)
(-4.4043e-11 0 0)
(-1.17034e-10 0 0)
(-1.75014e-10 0 0)
(-1.52126e-10 0 0)
(-1.55442e-10 0 0)
(-1.30775e-10 0 0)
(-1.42232e-10 0 0)
(-1.04902e-10 0 0)
(-7.27128e-11 0 0)
(-9.32201e-11 0 0)
(-1.69239e-10 0 0)
(-2.83306e-10 0 0)
(-3.42492e-10 0 0)
(-3.76208e-10 0 0)
(-3.42356e-10 0 0)
(-3.08292e-10 0 0)
(-3.04807e-10 0 0)
(-2.82842e-10 0 0)
(-2.26115e-10 0 0)
(-1.83494e-10 0 0)
(-1.62516e-10 0 0)
(-1.49877e-10 0 0)
(-1.12485e-10 0 0)
(-1.01006e-10 0 0)
(-6.05901e-11 0 0)
(-1.64796e-11 0 0)
(4.11553e-12 0 0)
(-3.01244e-12 0 0)
(1.08109e-11 0 0)
(-2.47094e-12 0 0)
(-7.43221e-11 0 0)
(-1.19718e-10 0 0)
(-8.60504e-11 0 0)
(-5.66085e-11 0 0)
(-7.55315e-11 0 0)
(-1.07403e-10 0 0)
(-1.27737e-10 0 0)
(-1.00246e-10 0 0)
(-1.45119e-10 0 0)
(-1.74561e-10 0 0)
(-1.40631e-10 0 0)
(-8.77036e-11 0 0)
(-9.95629e-11 0 0)
(-1.1655e-10 0 0)
(-7.78609e-11 0 0)
(-7.68032e-11 0 0)
(-1.19888e-10 0 0)
(-1.53039e-10 0 0)
(-2.10245e-10 0 0)
(-2.43467e-10 0 0)
(-2.4465e-10 0 0)
(-1.83707e-10 0 0)
(-1.20153e-10 0 0)
(-5.78652e-11 0 0)
(1.52684e-11 0 0)
(1.01464e-10 0 0)
(1.79439e-10 0 0)
(2.16945e-10 0 0)
(2.30032e-10 0 0)
(2.03965e-10 0 0)
(1.13711e-10 0 0)
(6.20162e-11 0 0)
(-4.176e-11 0 0)
(-1.40114e-10 0 0)
(-1.85793e-10 0 0)
(-2.18342e-10 0 0)
(-1.98013e-10 0 0)
(-1.88056e-10 0 0)
(-1.88627e-10 0 0)
(-1.56576e-10 0 0)
(-1.30817e-10 0 0)
(-9.43169e-11 0 0)
(-3.52691e-11 0 0)
(3.88033e-11 0 0)
(5.11193e-11 0 0)
(2.58496e-11 0 0)
(2.51493e-11 0 0)
(1.55826e-11 0 0)
(-9.74314e-12 0 0)
(1.69952e-11 0 0)
(3.78625e-11 0 0)
(8.91855e-11 0 0)
(1.36263e-10 0 0)
(1.17863e-10 0 0)
(3.73462e-11 0 0)
(-4.10892e-11 0 0)
(-3.83083e-11 0 0)
(3.1924e-12 0 0)
(4.53243e-12 0 0)
(-5.38278e-11 0 0)
(-1.15666e-10 0 0)
(-1.34681e-10 0 0)
(-8.36623e-11 0 0)
(-2.42149e-11 0 0)
(1.71886e-11 0 0)
(-4.30695e-11 0 0)
(-7.20987e-11 0 0)
(-4.46496e-11 0 0)
(-6.31317e-12 0 0)
(7.44372e-11 0 0)
(1.3191e-10 0 0)
(1.53942e-10 0 0)
(2.07415e-10 0 0)
(2.63892e-10 0 0)
(2.59092e-10 0 0)
(1.9208e-10 0 0)
(1.43426e-10 0 0)
(9.44682e-11 0 0)
(-4.9723e-11 0 0)
(-1.35403e-10 0 0)
(-1.27878e-10 0 0)
(-9.51051e-11 0 0)
(-1.04265e-10 0 0)
(-8.65055e-11 0 0)
(-9.77095e-11 0 0)
(-7.45253e-11 0 0)
(-5.21528e-11 0 0)
(-3.48912e-11 0 0)
(-1.17524e-11 0 0)
(-3.30762e-11 0 0)
(-3.37007e-11 0 0)
(3.89649e-11 0 0)
(9.35575e-11 0 0)
(1.23124e-10 0 0)
(1.0011e-10 0 0)
(8.05124e-11 0 0)
(1.42742e-10 0 0)
(2.07596e-10 0 0)
(2.56154e-10 0 0)
(2.99041e-10 0 0)
(2.87801e-10 0 0)
(2.65523e-10 0 0)
(2.81036e-10 0 0)
(3.52057e-10 0 0)
(3.64326e-10 0 0)
(2.98295e-10 0 0)
(2.12709e-10 0 0)
(1.15588e-10 0 0)
(1.11393e-11 0 0)
(-4.48886e-11 0 0)
(-2.47184e-11 0 0)
(-2.85009e-11 0 0)
(3.23364e-11 0 0)
(1.10346e-11 0 0)
(-2.99049e-13 0 0)
(2.17832e-11 0 0)
(6.95908e-11 0 0)
(1.09654e-10 0 0)
(1.17696e-10 0 0)
(9.11693e-11 0 0)
(9.75706e-11 0 0)
(8.26694e-11 0 0)
(4.25285e-11 0 0)
(4.13197e-11 0 0)
(8.98793e-11 0 0)
(1.12822e-10 0 0)
(9.70843e-11 0 0)
(9.74325e-11 0 0)
(1.4719e-10 0 0)
(1.93649e-10 0 0)
(2.23737e-10 0 0)
(2.30884e-10 0 0)
(1.94747e-10 0 0)
(2.06991e-10 0 0)
(1.43523e-10 0 0)
(2.95783e-11 0 0)
(-8.24145e-11 0 0)
(-1.60071e-10 0 0)
(-2.11141e-10 0 0)
(-2.54471e-10 0 0)
(-2.37531e-10 0 0)
(-1.9341e-10 0 0)
(-9.27331e-11 0 0)
(8.05741e-13 0 0)
(5.59623e-11 0 0)
(7.22184e-11 0 0)
(1.34132e-10 0 0)
(2.26559e-10 0 0)
(2.46968e-10 0 0)
(2.40155e-10 0 0)
(2.73575e-10 0 0)
(3.64452e-10 0 0)
(4.02298e-10 0 0)
(4.04337e-10 0 0)
(4.33674e-10 0 0)
(3.27842e-10 0 0)
(1.209e-10 0 0)
(-9.10843e-11 0 0)
(-2.73234e-10 0 0)
(-4.032e-10 0 0)
(-5.00199e-10 0 0)
(-5.65606e-10 0 0)
(-5.84559e-10 0 0)
(-5.8282e-10 0 0)
(-5.37214e-10 0 0)
(2.22272e-07 0 0)
(4.9795e-05 0 0)
(0.00136005 0 0)
(0.00849102 0 0)
(0.0218459 0 0)
(0.03591 0 0)
(0.0480837 0 0)
(0.0585419 0 0)
(0.0679489 0 0)
(0.0767899 0 0)
(0.0853422 0 0)
(0.0937487 0 0)
(0.102079 0 0)
(0.110366 0 0)
(0.118625 0 0)
(0.126865 0 0)
(0.135092 0 0)
(0.143308 0 0)
(0.151516 0 0)
(0.159718 0 0)
(0.167914 0 0)
(0.176106 0 0)
(0.184295 0 0)
(0.192481 0 0)
(0.200665 0 0)
(0.208847 0 0)
(0.217027 0 0)
(0.225206 0 0)
(0.233385 0 0)
(0.241562 0 0)
(0.249739 0 0)
(0.257915 0 0)
(0.266091 0 0)
(0.274266 0 0)
(0.282441 0 0)
(0.290617 0 0)
(0.298792 0 0)
(0.306968 0 0)
(0.315143 0 0)
(0.323319 0 0)
(0.331495 0 0)
(0.339672 0 0)
(0.347849 0 0)
(0.356026 0 0)
(0.364204 0 0)
(0.372382 0 0)
(0.380561 0 0)
(0.388741 0 0)
(0.396922 0 0)
(0.405103 0 0)
(0.413285 0 0)
(0.421468 0 0)
(0.429652 0 0)
(0.437837 0 0)
(0.446023 0 0)
(0.454211 0 0)
(0.462399 0 0)
(0.470588 0 0)
(0.478779 0 0)
(0.486971 0 0)
(0.495165 0 0)
(0.503359 0 0)
(0.511556 0 0)
(0.519753 0 0)
(0.527953 0 0)
(0.536153 0 0)
(0.544356 0 0)
(0.55256 0 0)
(0.560765 0 0)
(0.568972 0 0)
(0.577181 0 0)
(0.585392 0 0)
(0.593605 0 0)
(0.601819 0 0)
(0.610035 0 0)
(0.618252 0 0)
(0.626471 0 0)
(0.634692 0 0)
(0.642915 0 0)
(0.651139 0 0)
(0.659365 0 0)
(0.667593 0 0)
(0.675822 0 0)
(0.684052 0 0)
(0.692284 0 0)
(0.700517 0 0)
(0.708752 0 0)
(0.716987 0 0)
(0.725223 0 0)
(0.73346 0 0)
(0.741698 0 0)
(0.749936 0 0)
(0.758175 0 0)
(0.766414 0 0)
(0.774652 0 0)
(0.782891 0 0)
(0.791129 0 0)
(0.799367 0 0)
(0.807603 0 0)
(0.81584 0 0)
(0.824075 0 0)
(0.832309 0 0)
(0.840542 0 0)
(0.848774 0 0)
(0.857004 0 0)
(0.865234 0 0)
(0.873463 0 0)
(0.881691 0 0)
(0.889911 0 0)
(0.898103 0 0)
(0.906194 0 0)
(0.913988 0 0)
(0.921028 0 0)
(0.926498 0 0)
(0.929632 0 0)
(0.930541 0 0)
(0.93038 0 0)
(0.929359 0 0)
(0.929074 0 0)
(0.929404 0 0)
(0.929962 0 0)
(0.930102 0 0)
(0.930107 0 0)
(0.93002 0 0)
(0.92993 0 0)
(0.929865 0 0)
(0.929775 0 0)
(0.929657 0 0)
(0.929568 0 0)
(0.929509 0 0)
(0.929438 0 0)
(0.929314 0 0)
(0.929168 0 0)
(0.929057 0 0)
(0.928989 0 0)
(0.928948 0 0)
(0.928927 0 0)
(0.928919 0 0)
(0.92891 0 0)
(0.928861 0 0)
(0.928758 0 0)
(0.928667 0 0)
(0.928609 0 0)
(0.928568 0 0)
(0.928538 0 0)
(0.928522 0 0)
(0.928512 0 0)
(0.928482 0 0)
(0.928428 0 0)
(0.928392 0 0)
(0.928385 0 0)
(0.928397 0 0)
(0.928439 0 0)
(0.92851 0 0)
(0.92861 0 0)
(0.928691 0 0)
(0.928728 0 0)
(0.928744 0 0)
(0.928761 0 0)
(0.928785 0 0)
(0.928799 0 0)
(0.928807 0 0)
(0.928828 0 0)
(0.928867 0 0)
(0.928889 0 0)
(0.928876 0 0)
(0.928851 0 0)
(0.928844 0 0)
(0.928836 0 0)
(0.928808 0 0)
(0.928785 0 0)
(0.92879 0 0)
(0.928799 0 0)
(0.928783 0 0)
(0.928727 0 0)
(0.928697 0 0)
(0.928691 0 0)
(0.928673 0 0)
(0.928642 0 0)
(0.928637 0 0)
(0.928647 0 0)
(0.928643 0 0)
(0.928583 0 0)
(0.928535 0 0)
(0.928532 0 0)
(0.928536 0 0)
(0.928526 0 0)
(0.928537 0 0)
(0.928597 0 0)
(0.928657 0 0)
(0.928671 0 0)
(0.928657 0 0)
(0.928685 0 0)
(0.928725 0 0)
(0.928723 0 0)
(0.928717 0 0)
(0.928745 0 0)
(0.928795 0 0)
(0.928795 0 0)
(0.928751 0 0)
(0.928756 0 0)
(0.928792 0 0)
(0.928794 0 0)
(0.928777 0 0)
(0.928781 0 0)
(0.928821 0 0)
(0.928828 0 0)
(0.928768 0 0)
(0.928778 0 0)
(0.928894 0 0)
(0.92914 0 0)
(0.92946 0 0)
(0.930316 0 0)
(0.931725 0 0)
(0.925157 0 0)
(0.926363 0 0)
(0.930939 0 0)
(0.931775 0 0)
(0.93131 0 0)
(0.929565 0 0)
(0.928029 0 0)
(0.927212 0 0)
(0.926596 0 0)
(0.926225 0 0)
(0.926328 0 0)
(0.927811 0 0)
(0.930222 0 0)
(0.931292 0 0)
(0.931212 0 0)
(0.930809 0 0)
(0.929611 0 0)
(0.927631 0 0)
(0.926465 0 0)
(0.926256 0 0)
(0.926486 0 0)
(0.927095 0 0)
(0.928607 0 0)
(0.930513 0 0)
(0.931187 0 0)
(0.931216 0 0)
(0.93083 0 0)
(0.92939 0 0)
(0.927316 0 0)
(0.92654 0 0)
(0.926386 0 0)
(0.926522 0 0)
(0.927464 0 0)
(0.929454 0 0)
(0.930968 0 0)
(0.93112 0 0)
(0.931024 0 0)
(0.930461 0 0)
(0.928934 0 0)
(0.927079 0 0)
(0.926424 0 0)
(0.926532 0 0)
(0.926891 0 0)
(0.927956 0 0)
(0.92983 0 0)
(0.930767 0 0)
(0.930825 0 0)
(0.930663 0 0)
(0.929976 0 0)
(0.928285 0 0)
(0.926854 0 0)
(0.926571 0 0)
(0.926592 0 0)
(0.927024 0 0)
(0.928384 0 0)
(0.930049 0 0)
(0.930516 0 0)
(0.930572 0 0)
(0.930359 0 0)
(0.929454 0 0)
(0.92773 0 0)
(0.926711 0 0)
(0.926655 0 0)
(0.926778 0 0)
(0.927349 0 0)
(0.928765 0 0)
(0.930146 0 0)
(0.930489 0 0)
(0.930425 0 0)
(0.930137 0 0)
(0.929192 0 0)
(0.927653 0 0)
(0.926983 0 0)
(0.92697 0 0)
(0.927112 0 0)
(0.927831 0 0)
(0.929394 0 0)
(0.929977 0 0)
(0.929337 0 0)
(0.917974 0 0)
(0.797468 0 0)
(0.317585 0 0)
(0.0112545 0 0)
(1.20289e-05 0 0)
(-4.39757e-11 0 0)
(-2.61304e-10 0 0)
(-2.287e-10 0 0)
(-1.95039e-10 0 0)
(-1.4469e-10 0 0)
(-6.81001e-11 0 0)
(-3.77868e-11 0 0)
(-1.66533e-11 0 0)
(4.20448e-12 0 0)
(2.97429e-11 0 0)
(-1.81989e-11 0 0)
(-7.37101e-11 0 0)
(-6.40807e-11 0 0)
(-1.61576e-11 0 0)
(9.52667e-12 0 0)
(-1.91494e-11 0 0)
(-6.33929e-11 0 0)
(-6.97755e-11 0 0)
(-1.22639e-10 0 0)
(-1.5661e-10 0 0)
(-8.78662e-11 0 0)
(-4.49096e-11 0 0)
(-8.03544e-11 0 0)
(-5.64263e-11 0 0)
(-2.63012e-11 0 0)
(-4.16182e-11 0 0)
(-1.29075e-11 0 0)
(-5.9371e-11 0 0)
(-9.46568e-11 0 0)
(-2.27747e-11 0 0)
(-2.95875e-11 0 0)
(-4.65617e-11 0 0)
(-1.08658e-11 0 0)
(5.21636e-11 0 0)
(2.35878e-11 0 0)
(-8.74048e-11 0 0)
(-1.71982e-10 0 0)
(-2.36632e-10 0 0)
(-2.86984e-10 0 0)
(-2.58576e-10 0 0)
(-1.43843e-10 0 0)
(-9.90103e-11 0 0)
(-1.41052e-10 0 0)
(-1.99388e-10 0 0)
(-1.45656e-10 0 0)
(-1.49321e-10 0 0)
(-1.78292e-10 0 0)
(-1.44782e-10 0 0)
(-1.51816e-10 0 0)
(-1.54353e-10 0 0)
(-6.66003e-11 0 0)
(4.2388e-12 0 0)
(5.97066e-12 0 0)
(-7.92779e-11 0 0)
(-1.84323e-10 0 0)
(-2.44489e-10 0 0)
(-2.51279e-10 0 0)
(-2.04775e-10 0 0)
(-1.43674e-10 0 0)
(-6.87655e-11 0 0)
(6.95765e-12 0 0)
(7.82791e-11 0 0)
(1.00815e-10 0 0)
(9.07832e-11 0 0)
(1.15088e-10 0 0)
(1.10643e-10 0 0)
(9.55459e-11 0 0)
(1.47489e-10 0 0)
(2.54669e-10 0 0)
(2.68324e-10 0 0)
(1.52109e-10 0 0)
(-1.53244e-11 0 0)
(-1.69614e-10 0 0)
(-2.38152e-10 0 0)
(-2.43422e-10 0 0)
(-2.24851e-10 0 0)
(-1.6815e-10 0 0)
(-3.34112e-11 0 0)
(1.00799e-10 0 0)
(9.0255e-11 0 0)
(2.80843e-11 0 0)
(-9.79636e-11 0 0)
(-2.17245e-10 0 0)
(-2.56404e-10 0 0)
(-2.09549e-10 0 0)
(-1.3886e-10 0 0)
(-9.87085e-11 0 0)
(-7.45749e-11 0 0)
(-1.02506e-10 0 0)
(-6.51202e-11 0 0)
(2.36406e-11 0 0)
(6.19241e-11 0 0)
(6.08158e-11 0 0)
(4.81359e-11 0 0)
(5.44746e-11 0 0)
(6.67977e-11 0 0)
(4.40817e-11 0 0)
(1.2099e-10 0 0)
(1.37741e-10 0 0)
(1.2325e-10 0 0)
(1.61085e-10 0 0)
(1.611e-10 0 0)
(1.33383e-10 0 0)
(1.3191e-10 0 0)
(7.44363e-11 0 0)
(-1.88362e-11 0 0)
(-4.41438e-11 0 0)
(5.48638e-11 0 0)
(1.21034e-10 0 0)
(1.20364e-10 0 0)
(7.5479e-11 0 0)
(4.66669e-11 0 0)
(3.71719e-11 0 0)
(-4.35563e-11 0 0)
(-1.185e-10 0 0)
(-8.68149e-11 0 0)
(-5.02089e-12 0 0)
(1.10594e-10 0 0)
(1.8858e-10 0 0)
(1.88787e-10 0 0)
(1.50558e-10 0 0)
(6.87543e-11 0 0)
(4.02367e-11 0 0)
(-1.45022e-11 0 0)
(-7.12735e-11 0 0)
(-2.02363e-10 0 0)
(-3.91421e-10 0 0)
(-4.72703e-10 0 0)
(-4.37827e-10 0 0)
(-3.69556e-10 0 0)
(-2.32714e-10 0 0)
(-1.10153e-10 0 0)
(2.6606e-11 0 0)
(1.08911e-10 0 0)
(1.79629e-10 0 0)
(2.14251e-10 0 0)
(1.70818e-10 0 0)
(1.36997e-10 0 0)
(8.57173e-11 0 0)
(5.64869e-12 0 0)
(-4.65146e-11 0 0)
(-3.90966e-11 0 0)
(5.18717e-11 0 0)
(1.24456e-10 0 0)
(1.4116e-10 0 0)
(8.57531e-11 0 0)
(7.45649e-11 0 0)
(1.10493e-10 0 0)
(1.52755e-10 0 0)
(2.10996e-10 0 0)
(2.74761e-10 0 0)
(2.62905e-10 0 0)
(2.2369e-10 0 0)
(1.33772e-10 0 0)
(1.0075e-10 0 0)
(9.62304e-11 0 0)
(1.50745e-11 0 0)
(-4.39448e-11 0 0)
(-5.20729e-11 0 0)
(-1.70942e-11 0 0)
(3.33787e-11 0 0)
(1.31907e-11 0 0)
(-1.5085e-11 0 0)
(2.18687e-11 0 0)
(1.58035e-10 0 0)
(2.36e-10 0 0)
(1.58102e-10 0 0)
(8.66717e-11 0 0)
(6.26003e-11 0 0)
(3.09556e-11 0 0)
(8.69296e-12 0 0)
(-3.45245e-11 0 0)
(-6.26242e-11 0 0)
(-7.03234e-11 0 0)
(-5.90759e-11 0 0)
(-5.97345e-11 0 0)
(-8.00838e-11 0 0)
(-4.1193e-11 0 0)
(5.26241e-11 0 0)
(1.29816e-10 0 0)
(1.06537e-10 0 0)
(4.97169e-11 0 0)
(-7.07214e-12 0 0)
(-2.04233e-12 0 0)
(5.85218e-11 0 0)
(9.17536e-11 0 0)
(7.72994e-11 0 0)
(1.10504e-10 0 0)
(1.79603e-10 0 0)
(2.05622e-10 0 0)
(2.14701e-10 0 0)
(1.90198e-10 0 0)
(1.49262e-10 0 0)
(-8.78904e-12 0 0)
(-1.47963e-10 0 0)
(-1.90928e-10 0 0)
(-9.30234e-11 0 0)
(3.15756e-11 0 0)
(2.57802e-11 0 0)
(1.60681e-11 0 0)
(-2.41691e-11 0 0)
(-2.40847e-11 0 0)
(5.21446e-11 0 0)
(9.5026e-11 0 0)
(1.10213e-10 0 0)
(8.60698e-11 0 0)
(3.49896e-11 0 0)
(7.80209e-11 0 0)
(1.20092e-10 0 0)
(1.06237e-10 0 0)
(1.144e-10 0 0)
(9.92981e-11 0 0)
(4.81394e-11 0 0)
(1.42225e-11 0 0)
(-7.09348e-11 0 0)
(-8.49568e-11 0 0)
(-2.1124e-11 0 0)
(-4.71294e-12 0 0)
(-1.46388e-11 0 0)
(1.86227e-11 0 0)
(2.00678e-11 0 0)
)
;

boundaryField
{
    left
    {
        type            noSlip;
    }
    right
    {
        type            noSlip;
    }
    empty
    {
        type            empty;
    }
}


// ************************************************************************* //
