/*--------------------------------*- C++ -*----------------------------------*\
| =========                 |                                                 |
| \\      /  F ield         | OpenFOAM: The Open Source CFD Toolbox           |
|  \\    /   O peration     | Version:  2106                                  |
|   \\  /    A nd           | Website:  www.openfoam.com                      |
|    \\/     M anipulation  |                                                 |
\*---------------------------------------------------------------------------*/
FoamFile
{
    version     2.0;
    format      ascii;
    arch        "LSB;label=32;scalar=64";
    class       volVectorField;
    location    "0.055";
    object      U;
}
// * * * * * * * * * * * * * * * * * * * * * * * * * * * * * * * * * * * * * //

dimensions      [0 1 -1 0 0 0 0];

internalField   nonuniform List<vector> 
11200
(
(0.662461854792 0.150569977013 0)
(0.558946200958 0.103244359017 0)
(0.383846250316 0.0513522285523 0)
(0.283742934792 0.0248714951422 0)
(0.232074319106 0.0124167537638 0)
(0.201917979811 0.00662081234733 0)
(0.183227511603 0.00379829718998 0)
(0.171339282806 0.00230778810797 0)
(0.163621906079 0.00145233361061 0)
(0.158566119439 0.000928372518763 0)
(0.155266425452 0.000594499378128 0)
(0.153143631589 0.000378014868425 0)
(0.151811840828 0.00023739259479 0)
(0.151008568693 0.000146788894595 0)
(0.150553465955 8.90371002677e-05 0)
(0.150322044489 5.22488094304e-05 0)
(0.150227688788 2.90242372238e-05 0)
(0.15021217332 1.83585043694e-05 0)
(0.150241533163 2.07081292271e-05 0)
(0.150292309427 2.63317099309e-05 0)
(0.150347148751 3.07509944065e-05 0)
(0.150397968924 3.37600361121e-05 0)
(0.150441217866 3.55272547873e-05 0)
(0.150475379597 3.66015254702e-05 0)
(0.150501262993 3.87605261835e-05 0)
(0.150520598996 4.13082495328e-05 0)
(0.150534478802 4.36828535473e-05 0)
(0.150544034669 4.58196435871e-05 0)
(0.150550385332 4.78072897783e-05 0)
(0.150554477214 4.9771717002e-05 0)
(0.150557055415 5.18596672124e-05 0)
(0.150558622868 5.41804515283e-05 0)
(0.150559500965 5.65401715109e-05 0)
(0.150559930349 5.88440931095e-05 0)
(0.1505600987 6.10889169069e-05 0)
(0.150560134078 6.33085486123e-05 0)
(0.150560102861 6.55227861886e-05 0)
(0.150560043683 6.77424599405e-05 0)
(0.150559977823 6.99735593987e-05 0)
(0.150559913933 7.22180222282e-05 0)
(0.150559853344 7.44751026821e-05 0)
(0.150559794536 7.67427297026e-05 0)
(0.150559736048 7.90182657631e-05 0)
(0.150559677784 8.12987937193e-05 0)
(0.150559620419 8.35809097197e-05 0)
(0.150559563828 8.58604820336e-05 0)
(0.150559506664 8.81330837579e-05 0)
(0.150559448159 9.0394661494e-05 0)
(0.150559390983 9.26420260196e-05 0)
(0.150559341824 9.487320471e-05 0)
(0.150559309583 9.70865255981e-05 0)
(0.150559303653 9.927982835e-05 0)
(0.150559333946 0.000101450490705 0)
(0.1505594133 0.000103595794336 0)
(0.150559560937 0.000105713137759 0)
(0.150559805928 0.000107799945998 0)
(0.150560191376 0.000109852026866 0)
(0.150560781561 0.000111860459044 0)
(0.150561672267 0.000113810173019 0)
(0.15056300783 0.000115675642209 0)
(0.150565023069 0.000117405464706 0)
(0.150568115781 0.000118916797305 0)
(0.150572819341 0.000120200980625 0)
(0.150579816257 0.000121450030202 0)
(0.150590153137 0.000123127817205 0)
(0.150605429435 0.000125527239184 0)
(0.150628178369 0.000128383727489 0)
(0.150662372133 0.000131428312433 0)
(0.150714033709 0.000134420206675 0)
(0.150791942992 0.000137329240067 0)
(0.150908751769 0.000142017301146 0)
(0.151090255222 0.0001554904052 0)
(0.151376714574 0.000177846751854 0)
(0.151834195441 0.000209716470544 0)
(0.152606278778 0.000241134523814 0)
(0.153987829305 0.000195805584901 0)
(0.156668179225 -0.000251838755745 0)
(0.164339242678 -0.00232793014495 0)
(0.191019147371 -0.0118565158318 0)
(0.21318190265 -0.0554239195362 0)
(0.965407629684 0.289216439378 0)
(0.961960571416 0.252658349132 0)
(0.823572559537 0.159021899052 0)
(0.698144739221 0.0959914580879 0)
(0.610250146437 0.058235382938 0)
(0.549034152035 0.0361891351711 0)
(0.506715381987 0.0231177819642 0)
(0.477790264222 0.0150719744002 0)
(0.458102840064 0.00992734451181 0)
(0.444760373227 0.0065421636086 0)
(0.435798715264 0.0042758228063 0)
(0.429865844789 0.00274762777647 0)
(0.426019460043 0.00171849469188 0)
(0.423598598727 0.00103139546834 0)
(0.422138382873 0.000579681964423 0)
(0.421312576544 0.000289372274954 0)
(0.420895017939 0.000109584158069 0)
(0.420731623916 7.52579321678e-06 0)
(0.420714336161 -4.19271713884e-05 0)
(0.420769567173 -5.98857698046e-05 0)
(0.420855471161 -6.23171730625e-05 0)
(0.420948504037 -5.67965020074e-05 0)
(0.421034974548 -4.78392505028e-05 0)
(0.421108971766 -3.78707500348e-05 0)
(0.421168485051 -2.71707141609e-05 0)
(0.421213598643 -1.71779990429e-05 0)
(0.421246500109 -8.725653758e-06 0)
(0.421269780536 -1.95301848962e-06 0)
(0.421285824596 3.26469249768e-06 0)
(0.421296692485 7.09728701579e-06 0)
(0.421304017569 9.6590366094e-06 0)
(0.421308696161 1.10941432183e-05 0)
(0.421311363281 1.20985038476e-05 0)
(0.421312759939 1.29123210508e-05 0)
(0.421313445993 1.35596287822e-05 0)
(0.421313755632 1.41186726668e-05 0)
(0.421313852253 1.46295594686e-05 0)
(0.421313834582 1.51166950879e-05 0)
(0.421313761209 1.55973053298e-05 0)
(0.42131366226 1.60813447283e-05 0)
(0.421313551375 1.65732657191e-05 0)
(0.421313433928 1.70744796188e-05 0)
(0.42131331142 1.75850867493e-05 0)
(0.421313183115 1.81046110938e-05 0)
(0.421313046109 1.86318457489e-05 0)
(0.421312895917 1.9165017564e-05 0)
(0.421312728141 1.97029970723e-05 0)
(0.421312541208 2.02457146621e-05 0)
(0.421312340414 2.07943835547e-05 0)
(0.421312138359 2.13527278534e-05 0)
(0.421311952183 2.19243036412e-05 0)
(0.42131180274 2.25111783163e-05 0)
(0.421311717081 2.31144079579e-05 0)
(0.421311733721 2.37344201315e-05 0)
(0.421311909102 2.43709518779e-05 0)
(0.421312324609 2.50227482918e-05 0)
(0.421313096342 2.56859167058e-05 0)
(0.421314394392 2.63510875072e-05 0)
(0.421316469886 2.70026213846e-05 0)
(0.421319691043 2.76073264832e-05 0)
(0.421324640597 2.8098771116e-05 0)
(0.421332367242 2.84010017259e-05 0)
(0.421344494963 2.85697251328e-05 0)
(0.421363310309 2.81517699089e-05 0)
(0.421391790528 2.55592140933e-05 0)
(0.421433803613 1.94000612049e-05 0)
(0.421495942748 8.77038106153e-06 0)
(0.421589249997 -8.03167500278e-06 0)
(0.421730903647 -3.38341379249e-05 0)
(0.421948500317 -7.27275719429e-05 0)
(0.422288459988 -0.000129232875616 0)
(0.42282667832 -0.000208932383766 0)
(0.423688119403 -0.000344080468694 0)
(0.425098178879 -0.000596566165996 0)
(0.427487346972 -0.00111537595853 0)
(0.431653001073 -0.00231822352718 0)
(0.439182130484 -0.00536579821525 0)
(0.454613229562 -0.0135341773394 0)
(0.484061088439 -0.0378033091774 0)
(0.493743560469 -0.110024731804 0)
(1.02222066968 0.238418673478 0)
(1.08213737829 0.295928350527 0)
(1.03448171599 0.239497840924 0)
(0.954634832153 0.174270320448 0)
(0.880043771642 0.121301357405 0)
(0.818724054274 0.0830198127317 0)
(0.771612689839 0.0566051747073 0)
(0.736970793772 0.0385576931677 0)
(0.712143683835 0.0261864657704 0)
(0.694669512303 0.0176627109275 0)
(0.682576871888 0.0117730507063 0)
(0.674360563887 0.00770752726176 0)
(0.668897805982 0.00491678960023 0)
(0.665363541624 0.00302152575339 0)
(0.66315791751 0.00175574951058 0)
(0.661849195376 0.000930925146281 0)
(0.661130264164 0.000412633932868 0)
(0.660784970816 0.000103714004354 0)
(0.660667627487 -6.81200363e-05 0)
(0.660677473039 -0.000155173494549 0)
(0.660748249815 -0.000186457060496 0)
(0.660842851434 -0.0001853773099 0)
(0.660938792364 -0.000167788924236 0)
(0.661024510799 -0.000143535816 0)
(0.661095303642 -0.000118731777739 0)
(0.661150482382 -9.62042577195e-05 0)
(0.661191651271 -7.71317113159e-05 0)
(0.661221209247 -6.17799931155e-05 0)
(0.66124164794 -4.98870341514e-05 0)
(0.661255219668 -4.09832137545e-05 0)
(0.661263872457 -3.46341415671e-05 0)
(0.661269553421 -3.05530025467e-05 0)
(0.661273400403 -2.82604449671e-05 0)
(0.66127569152 -2.72588131925e-05 0)
(0.661276928263 -2.71906760176e-05 0)
(0.661277568822 -2.76208586349e-05 0)
(0.661277846335 -2.83293756205e-05 0)
(0.661277915903 -2.91933340154e-05 0)
(0.661277874521 -3.0135794684e-05 0)
(0.661277775741 -3.11108028199e-05 0)
(0.661277647505 -3.20934280948e-05 0)
(0.661277503827 -3.30710168432e-05 0)
(0.661277350682 -3.40377530919e-05 0)
(0.661277188509 -3.49917551288e-05 0)
(0.661277013671 -3.59333677354e-05 0)
(0.66127682072 -3.68636879604e-05 0)
(0.661276604392 -3.77822524813e-05 0)
(0.661276362611 -3.86863619178e-05 0)
(0.661276102705 -3.95705578652e-05 0)
(0.661275841001 -4.04259974014e-05 0)
(0.661275599063 -4.1245737111e-05 0)
(0.661275405055 -4.20251875608e-05 0)
(0.66127529769 -4.27612057781e-05 0)
(0.661275332564 -4.34526531536e-05 0)
(0.661275591264 -4.41026593019e-05 0)
(0.661276192923 -4.47241404585e-05 0)
(0.661277310354 -4.53529335724e-05 0)
(0.661279199132 -4.60718654462e-05 0)
(0.66128223312 -4.70275654475e-05 0)
(0.661286962218 -4.84647112774e-05 0)
(0.661294277753 -5.08674641916e-05 0)
(0.661305758598 -5.52147736667e-05 0)
(0.661323178976 -6.26671532115e-05 0)
(0.661348093407 -7.43301064741e-05 0)
(0.661384107582 -9.18248052617e-05 0)
(0.661438479892 -0.00011786645143 0)
(0.661521608932 -0.000156058521943 0)
(0.661648680679 -0.000212405789797 0)
(0.661843852799 -0.000296647219655 0)
(0.662146498901 -0.000424680559306 0)
(0.662621379547 -0.00062431892987 0)
(0.663368390097 -0.000948924235555 0)
(0.664553813741 -0.00149869534981 0)
(0.666469071466 -0.00246666230477 0)
(0.669615555428 -0.00425619694197 0)
(0.674797061981 -0.00775699432117 0)
(0.683230647391 -0.0149229135803 0)
(0.697244338884 -0.0300836952174 0)
(0.716915462386 -0.0633898849574 0)
(0.716605635157 -0.129096820326 0)
(1.02251478726 0.170809331902 0)
(1.10139148544 0.276495117773 0)
(1.11753329998 0.266649776407 0)
(1.09217400987 0.219859988349 0)
(1.05194182529 0.168084384597 0)
(1.01033382361 0.123421957325 0)
(0.973715830366 0.088612759757 0)
(0.944222007697 0.0626867106295 0)
(0.921682555962 0.0437989414967 0)
(0.905054265171 0.0302122612835 0)
(0.893121856121 0.0205288275182 0)
(0.884768677538 0.0136887971991 0)
(0.87906458437 0.00890801973578 0)
(0.875275242378 0.00561141513059 0)
(0.872839788622 0.00337822284845 0)
(0.871339882792 0.00190071397107 0)
(0.8704697968 0.000953954227518 0)
(0.870010051011 0.000373932873041 0)
(0.869803717494 4.22568906132e-05 0)
(0.869748284324 -0.000131550843167 0)
(0.86977744869 -0.000204251617217 0)
(0.869843996359 -0.000217242030807 0)
(0.869921285834 -0.000198505199002 0)
(0.869995054385 -0.000165745068835 0)
(0.870058566959 -0.00012955411905 0)
(0.870109673049 -9.56175363827e-05 0)
(0.870148816579 -6.66083958777e-05 0)
(0.870177626806 -4.33256482674e-05 0)
(0.870198115957 -2.54860822078e-05 0)
(0.870212227774 -1.23046611192e-05 0)
(0.870221572684 -2.84298111528e-06 0)
(0.870227354225 3.73592352205e-06 0)
(0.870230634659 7.75281899483e-06 0)
(0.870232347079 1.00533966992e-05 0)
(0.870233273076 1.15849574393e-05 0)
(0.870233845261 1.26806657628e-05 0)
(0.870234139604 1.35024677475e-05 0)
(0.870234252652 1.415396724e-05 0)
(0.870234260105 1.47085916256e-05 0)
(0.870234204485 1.52183729749e-05 0)
(0.870234108552 1.57165599585e-05 0)
(0.870233984995 1.62225260729e-05 0)
(0.870233839705 1.67454191642e-05 0)
(0.870233672783 1.72875468783e-05 0)
(0.870233479518 1.78479985121e-05 0)
(0.870233253702 1.84268733546e-05 0)
(0.870232990777 1.90310187582e-05 0)
(0.870232691047 1.9663445964e-05 0)
(0.870232365734 2.03170787315e-05 0)
(0.870232033403 2.09928516185e-05 0)
(0.870231716804 2.16900037452e-05 0)
(0.870231447482 2.24026513636e-05 0)
(0.87023126994 2.31188227748e-05 0)
(0.870231247443 2.38184742463e-05 0)
(0.870231469286 2.44688677308e-05 0)
(0.870232056306 2.5015519566e-05 0)
(0.870233166138 2.53712957966e-05 0)
(0.870235025805 2.54224401165e-05 0)
(0.870237975293 2.50744280504e-05 0)
(0.870242440855 2.40561646472e-05 0)
(0.870248913016 2.16450260904e-05 0)
(0.870258669857 1.69668716534e-05 0)
(0.870274340102 8.5774160676e-06 0)
(0.870299481853 -5.92006801607e-06 0)
(0.870338358873 -2.87895548131e-05 0)
(0.870397178879 -6.43033939129e-05 0)
(0.870486036207 -0.000120214155023 0)
(0.870620861473 -0.000208756614547 0)
(0.870826668187 -0.000349607047075 0)
(0.87114248276 -0.000575220676112 0)
(0.871629091529 -0.000941213348305 0)
(0.872383394022 -0.00154593019246 0)
(0.873561816619 -0.00255789850097 0)
(0.875411664871 -0.00428877130364 0)
(0.878308542784 -0.00733282283198 0)
(0.882744086086 -0.0128381346166 0)
(0.889179873534 -0.0229557666619 0)
(0.897973779935 -0.0415239326205 0)
(0.906815146044 -0.0751627131645 0)
(0.899381079149 -0.128420350756 0)
(1.01287896508 0.118962273795 0)
(1.08820916555 0.231801380754 0)
(1.13742331118 0.253081050046 0)
(1.1541163798 0.228929395461 0)
(1.14999704281 0.188246043061 0)
(1.13548793759 0.14637476795 0)
(1.11776481241 0.109839454895 0)
(1.10087233285 0.0803783418471 0)
(1.08653559812 0.0576500154726 0)
(1.07516924481 0.0406022997762 0)
(1.06656954212 0.0280704136917 0)
(1.06029440523 0.0190092315299 0)
(1.05585663809 0.0125593379919 0)
(1.0528116975 0.0080442095885 0)
(1.05078872635 0.00494401409687 0)
(1.04949426313 0.00286515394238 0)
(1.04870448875 0.00151261531615 0)
(1.04825341717 0.000667045690473 0)
(1.04802039847 0.000167198397038 0)
(1.04792263434 -0.000100832914886 0)
(1.04790436244 -0.000223910938138 0)
(1.0479271237 -0.000260162797496 0)
(1.04796732171 -0.000248461544181 0)
(1.04801138359 -0.00021396994945 0)
(1.04805214042 -0.000172066608668 0)
(1.04808645191 -0.000131392794873 0)
(1.04811357003 -9.62146035008e-05 0)
(1.04813398884 -6.80691747837e-05 0)
(1.04814872198 -4.69198502985e-05 0)
(1.04815890064 -3.19164260556e-05 0)
(1.04816561115 -2.18667557538e-05 0)
(1.04816988037 -1.5465857026e-05 0)
(1.04817269519 -1.14003651915e-05 0)
(1.04817482715 -8.70805887491e-06 0)
(1.0481764414 -6.77873297943e-06 0)
(1.04817745618 -5.60207748145e-06 0)
(1.04817801921 -5.07753461927e-06 0)
(1.04817829613 -4.92269642357e-06 0)
(1.04817840714 -4.95398534823e-06 0)
(1.04817842231 -5.06218021881e-06 0)
(1.0481783787 -5.19309071027e-06 0)
(1.04817829549 -5.32027319017e-06 0)
(1.04817818099 -5.43133276695e-06 0)
(1.04817803665 -5.52214455213e-06 0)
(1.04817786073 -5.59370747011e-06 0)
(1.04817765423 -5.65104569922e-06 0)
(1.04817741279 -5.7055443825e-06 0)
(1.04817712173 -5.75907856859e-06 0)
(1.04817678733 -5.79672143513e-06 0)
(1.04817643334 -5.81206390364e-06 0)
(1.04817608117 -5.80490477457e-06 0)
(1.04817575838 -5.77736875658e-06 0)
(1.04817550468 -5.73552361313e-06 0)
(1.04817537727 -5.6915192404e-06 0)
(1.04817545747 -5.66714059021e-06 0)
(1.04817586204 -5.70239571763e-06 0)
(1.04817677835 -5.87692978445e-06 0)
(1.0481785516 -6.39045034923e-06 0)
(1.04818157164 -7.81327262699e-06 0)
(1.04818609045 -1.08409937034e-05 0)
(1.04819283249 -1.57547442248e-05 0)
(1.04820332054 -2.22391678609e-05 0)
(1.04821887633 -3.19987821175e-05 0)
(1.04824151386 -4.83966989722e-05 0)
(1.0482750221 -7.63800799311e-05 0)
(1.04832492741 -0.00012303697569 0)
(1.04839945059 -0.000199416784283 0)
(1.04851099971 -0.000323181556766 0)
(1.04867857788 -0.00052295649045 0)
(1.04893127082 -0.000845460189478 0)
(1.04931320816 -0.00136748106951 0)
(1.04989115233 -0.00221686441297 0)
(1.05076390309 -0.00361209811294 0)
(1.05206812657 -0.00593333214358 0)
(1.05396753896 -0.00984568057879 0)
(1.05657016722 -0.016503441067 0)
(1.05968967656 -0.0278058796885 0)
(1.06256135659 -0.046577603936 0)
(1.06235872044 -0.0764949035011 0)
(1.0491404173 -0.118220366142 0)
(1.00447510698 0.0814042514251 0)
(1.0691744688 0.18127940914 0)
(1.13081223565 0.216916813509 0)
(1.17376477024 0.210711080144 0)
(1.19868099658 0.18354335059 0)
(1.21024878898 0.14950961461 0)
(1.21358039367 0.116415435549 0)
(1.21263341901 0.0877133196553 0)
(1.20989561576 0.0643836007186 0)
(1.20673467867 0.0461976254698 0)
(1.20381163529 0.0324372486737 0)
(1.2013823013 0.0222662343165 0)
(1.19949144368 0.0149004673083 0)
(1.19808750339 0.009671223928 0)
(1.19708459913 0.00603672485034 0)
(1.19639319296 0.00357152341335 0)
(1.19593354386 0.00194843604527 0)
(1.19564013724 0.000919758012822 0)
(1.19546180972 0.000300847550491 0)
(1.19536065219 -4.28509641745e-05 0)
(1.19530942089 -0.00021023336628 0)
(1.19528856293 -0.000270115275164 0)
(1.19528484209 -0.000269090482666 0)
(1.19528983952 -0.000237631364384 0)
(1.19529842586 -0.000194621290864 0)
(1.19530768719 -0.000150894552068 0)
(1.19531615199 -0.000111966534874 0)
(1.19532321728 -8.00111688492e-05 0)
(1.1953287862 -5.52479681705e-05 0)
(1.1953330305 -3.68482211388e-05 0)
(1.19533621537 -2.35340317128e-05 0)
(1.1953386243 -1.39949091768e-05 0)
(1.19534049315 -7.21113436862e-06 0)
(1.19534190247 -2.58210210531e-06 0)
(1.19534275831 2.29584612065e-07 0)
(1.195343081 1.76802599669e-06 0)
(1.1953432001 2.6724264714e-06 0)
(1.19534332255 3.27675947619e-06 0)
(1.19534343062 3.67742536866e-06 0)
(1.19534350158 3.95748326333e-06 0)
(1.19534352284 4.18730436257e-06 0)
(1.19534349703 4.41036986095e-06 0)
(1.19534342883 4.64875608704e-06 0)
(1.19534331818 4.9105737636e-06 0)
(1.19534315853 5.1950162051e-06 0)
(1.1953429372 5.49488636951e-06 0)
(1.19534265179 5.79408662586e-06 0)
(1.19534232281 6.08351100698e-06 0)
(1.1953419686 6.37553831153e-06 0)
(1.19534159708 6.68730646255e-06 0)
(1.19534122691 7.0168291399e-06 0)
(1.19534088904 7.35122215041e-06 0)
(1.19534062645 7.66858749121e-06 0)
(1.19534049949 7.93435064629e-06 0)
(1.19534059008 8.09412435706e-06 0)
(1.19534099638 8.06339933366e-06 0)
(1.19534178572 7.71721476903e-06 0)
(1.19534284802 6.87111044512e-06 0)
(1.19534420302 5.13717322966e-06 0)
(1.19534661684 1.65181390571e-06 0)
(1.19535157916 -4.05934691332e-06 0)
(1.19535949562 -1.33548667556e-05 0)
(1.19537048142 -2.87027296552e-05 0)
(1.19538618473 -5.31620026656e-05 0)
(1.19540887646 -9.17733577648e-05 0)
(1.19544144732 -0.000152706827326 0)
(1.19548801449 -0.000249086537516 0)
(1.19555449693 -0.000401868459669 0)
(1.19564940022 -0.000644667609627 0)
(1.19578474044 -0.00103163621244 0)
(1.19597667051 -0.00165044711737 0)
(1.19624511311 -0.00264409187117 0)
(1.19660971148 -0.00424777705112 0)
(1.19707459252 -0.00684888716499 0)
(1.19758677532 -0.0110790859417 0)
(1.1979280828 -0.017940251287 0)
(1.19748811605 -0.0289076742602 0)
(1.19501726035 -0.0458574017965 0)
(1.18791147407 -0.0706352637709 0)
(1.169981174 -0.102635718873 0)
(0.99896260602 0.05443117008 0)
(1.05311068265 0.133390805492 0)
(1.11628395752 0.170741544373 0)
(1.1730115963 0.175062809816 0)
(1.21790411216 0.159433622002 0)
(1.25047540299 0.13470597416 0)
(1.27283619424 0.108045980707 0)
(1.28767924701 0.0833773624832 0)
(1.2973094565 0.0623939408698 0)
(1.30344530707 0.0454807584721 0)
(1.30728840641 0.0323568430222 0)
(1.30964744523 0.0224668659937 0)
(1.31105517736 0.0151951370595 0)
(1.3118593612 0.00996873567355 0)
(1.31228629404 0.00629789526203 0)
(1.31248296092 0.00378401706494 0)
(1.31254443219 0.00211286270624 0)
(1.31253154871 0.00104231290192 0)
(1.3124824506 0.000389402000519 0)
(1.31242035093 1.85300551001e-05 0)
(1.31235855976 -0.000168990317634 0)
(1.31230369582 -0.00024329094324 0)
(1.31225832723 -0.00025227407217 0)
(1.31222274128 -0.000227512693861 0)
(1.31219602647 -0.000188806943853 0)
(1.31217673931 -0.000147715038768 0)
(1.31216332735 -0.000110288540993 0)
(1.31215435334 -7.90884561612e-05 0)
(1.31214860892 -5.46176278158e-05 0)
(1.31214514326 -3.63111819648e-05 0)
(1.31214322163 -2.31630661736e-05 0)
(1.31214225759 -1.40900466371e-05 0)
(1.31214182606 -8.1530427796e-06 0)
(1.31214167198 -4.56387490814e-06 0)
(1.31214167035 -2.55341621778e-06 0)
(1.31214189334 -1.38055039673e-06 0)
(1.31214229314 -6.37065417141e-07 0)
(1.31214260631 -2.18304819823e-07 0)
(1.31214277577 3.75685597193e-08 0)
(1.31214287726 2.05894804232e-07 0)
(1.31214294177 3.37550040315e-07 0)
(1.3121429709 4.68586841652e-07 0)
(1.31214296027 6.20578138559e-07 0)
(1.31214290337 8.04584857783e-07 0)
(1.3121427921 1.02635248681e-06 0)
(1.31214261793 1.29252628741e-06 0)
(1.3121423762 1.61713939162e-06 0)
(1.31214207531 2.00870956939e-06 0)
(1.31214174198 2.45536273967e-06 0)
(1.31214138883 2.92937778183e-06 0)
(1.31214101473 3.41360549437e-06 0)
(1.31214063315 3.885968708e-06 0)
(1.31214026905 4.31025597833e-06 0)
(1.31213995748 4.62988344189e-06 0)
(1.31213974579 4.75832209913e-06 0)
(1.31213970353 4.56641175372e-06 0)
(1.31213995237 3.87025344349e-06 0)
(1.31214064969 2.46134826586e-06 0)
(1.31214168052 2.86760899022e-07 0)
(1.31214328686 -2.91625183694e-06 0)
(1.31214586688 -8.42434847963e-06 0)
(1.31214942178 -1.83128427956e-05 0)
(1.31215413027 -3.45246267314e-05 0)
(1.31216027187 -6.03412393493e-05 0)
(1.31216799506 -0.000101262619808 0)
(1.31217708243 -0.000165903239665 0)
(1.31218669936 -0.000267807418549 0)
(1.31219482612 -0.000428391862664 0)
(1.31219729099 -0.000681709703677 0)
(1.31218593201 -0.00108189339923 0)
(1.31214469114 -0.00171499754434 0)
(1.31204219082 -0.00271832238579 0)
(1.31181736627 -0.00431031597253 0)
(1.31135079289 -0.00683492794673 0)
(1.31040984937 -0.0108212785874 0)
(1.30854421643 -0.0170479949571 0)
(1.30490995753 -0.0265584297945 0)
(1.29811879225 -0.0405091554583 0)
(1.28595873001 -0.0597487760486 0)
(1.26432188441 -0.0834682221668 0)
(0.995736360193 0.03463311786 0)
(1.0417951505 0.0905588671304 0)
(1.10222398881 0.121517659181 0)
(1.16489642214 0.129535271497 0)
(1.22197978201 0.121879877974 0)
(1.26942295817 0.105809749091 0)
(1.30662690117 0.0867851851953 0)
(1.33470451626 0.0682043703422 0)
(1.35529721614 0.0518066795373 0)
(1.37004844224 0.038230313543 0)
(1.38039287369 0.027480574502 0)
(1.38749406033 0.0192528065221 0)
(1.39225540288 0.0131288451853 0)
(1.3953594274 0.00868360438449 0)
(1.39731192308 0.00553517246527 0)
(1.39848176223 0.00336271156328 0)
(1.39913382788 0.0019077693555 0)
(1.39945506224 0.00096815605547 0)
(1.39957467475 0.000389346302932 0)
(1.39957980743 5.57491557477e-05 0)
(1.39952695435 -0.000117149963892 0)
(1.39945096054 -0.000189855606218 0)
(1.39937214526 -0.000204035708315 0)
(1.39930100117 -0.000187312679616 0)
(1.39924189942 -0.000157157157447 0)
(1.39919562861 -0.000123895460354 0)
(1.39916108031 -9.30432701652e-05 0)
(1.3991363244 -6.70451074578e-05 0)
(1.39911925421 -4.65176989361e-05 0)
(1.39910793009 -3.11062629151e-05 0)
(1.39910072024 -2.00261214817e-05 0)
(1.39909632596 -1.23701931513e-05 0)
(1.39909379186 -7.24273603072e-06 0)
(1.39909249513 -3.87322745153e-06 0)
(1.39909199129 -1.64520233121e-06 0)
(1.39909186144 -1.6212683368e-07 0)
(1.39909185336 7.1588166981e-07 0)
(1.39909196072 1.16824022029e-06 0)
(1.39909215261 1.42877402993e-06 0)
(1.39909233401 1.61803281902e-06 0)
(1.39909247843 1.78900494919e-06 0)
(1.39909258107 1.96945281863e-06 0)
(1.39909263935 2.17512550671e-06 0)
(1.39909264952 2.41478591172e-06 0)
(1.39909260711 2.69385178197e-06 0)
(1.39909250913 3.01700870327e-06 0)
(1.39909235627 3.39044573718e-06 0)
(1.39909214907 3.82019680724e-06 0)
(1.39909187655 4.3026371278e-06 0)
(1.39909154234 4.81058020371e-06 0)
(1.3990911699 5.32752712123e-06 0)
(1.39909077513 5.835093397e-06 0)
(1.39909037345 6.30302997872e-06 0)
(1.39908998506 6.68261208446e-06 0)
(1.39908963431 6.89898365557e-06 0)
(1.39908934339 6.8408293632e-06 0)
(1.39908912083 6.33832726853e-06 0)
(1.39908896589 5.11534102995e-06 0)
(1.39908885315 2.80634912198e-06 0)
(1.39908857565 -7.77689919832e-07 0)
(1.39908816133 -6.89179335118e-06 0)
(1.39908748264 -1.69926254561e-05 0)
(1.39908574477 -3.30123053225e-05 0)
(1.39908181497 -5.80751055655e-05 0)
(1.39907379089 -9.71445452781e-05 0)
(1.39905829465 -0.000157950181371 0)
(1.39902950307 -0.000252552787216 0)
(1.39897749952 -0.000399828055553 0)
(1.39888573668 -0.000629506504897 0)
(1.39872687554 -0.00098816061409 0)
(1.39845503149 -0.00154827051995 0)
(1.39799297838 -0.00242307430257 0)
(1.39721123289 -0.00378768723322 0)
(1.39589276028 -0.00590770728372 0)
(1.39367597251 -0.00917264373968 0)
(1.38996548144 -0.0141215695368 0)
(1.38380854433 -0.0214216567292 0)
(1.37382478527 -0.0317274749084 0)
(1.35813912563 -0.0453831265906 0)
(1.33376868609 -0.0617349889476 0)
(0.994011831284 0.0192351675637 0)
(1.03484675262 0.0523267720968 0)
(1.0919836306 0.072341258433 0)
(1.15659315745 0.0790813189265 0)
(1.22024522185 0.0760171128832 0)
(1.27686544093 0.067192383287 0)
(1.32396819612 0.055940963438 0)
(1.36136403827 0.0445089518787 0)
(1.38999688814 0.0341529689298 0)
(1.41127136002 0.0254157903117 0)
(1.42666558526 0.0183991937734 0)
(1.43752829165 0.0129699781914 0)
(1.44499776505 0.00889423637928 0)
(1.44998898869 0.0059151789077 0)
(1.45321278472 0.00379284490207 0)
(1.45520691443 0.00232074332116 0)
(1.45636898203 0.00132985140741 0)
(1.45698649062 0.000686457033844 0)
(1.45726244608 0.000287544414361 0)
(1.45733644126 5.55670814833e-05 0)
(1.45730101837 -6.65617893997e-05 0)
(1.45721494017 -0.000119703315994 0)
(1.45711365839 -0.000132212316813 0)
(1.45701663776 -0.000122980890938 0)
(1.45693307755 -0.000104015319789 0)
(1.45686597023 -8.24659059361e-05 0)
(1.45681484522 -6.21998943681e-05 0)
(1.45677756162 -4.49782139176e-05 0)
(1.45675141285 -3.12993063632e-05 0)
(1.4567337467 -2.09766093389e-05 0)
(1.45672225842 -1.35069255389e-05 0)
(1.45671508962 -8.29227770633e-06 0)
(1.45671083403 -4.74978810625e-06 0)
(1.45670848095 -2.40065143841e-06 0)
(1.45670729866 -9.18806554365e-07 0)
(1.45670681723 -4.63145973894e-08 0)
(1.45670673799 5.12705590006e-07 0)
(1.45670684663 9.28970212011e-07 0)
(1.45670703396 1.22834398303e-06 0)
(1.45670723882 1.46616408934e-06 0)
(1.45670742948 1.68802744809e-06 0)
(1.45670758914 1.92151783842e-06 0)
(1.45670770759 2.18181158323e-06 0)
(1.456707777 2.47616816103e-06 0)
(1.45670779069 2.80738945743e-06 0)
(1.45670774364 3.1756251653e-06 0)
(1.45670763377 3.5786438088e-06 0)
(1.4567074621 4.01113349752e-06 0)
(1.45670722863 4.46885622759e-06 0)
(1.45670693608 4.95865111179e-06 0)
(1.45670659007 5.46979703046e-06 0)
(1.45670619222 5.97837910428e-06 0)
(1.45670574173 6.44734193381e-06 0)
(1.45670523579 6.82070168969e-06 0)
(1.4567046688 7.01597310863e-06 0)
(1.45670403082 6.91531538695e-06 0)
(1.45670330785 6.35761683548e-06 0)
(1.45670249685 5.13117616842e-06 0)
(1.45670153715 2.97112166498e-06 0)
(1.45669992441 -3.56449851412e-07 0)
(1.45669699535 -5.38119826347e-06 0)
(1.45669216164 -1.3918963938e-05 0)
(1.45668421716 -2.74841576582e-05 0)
(1.45667094674 -4.84684201275e-05 0)
(1.45664871152 -8.06547852321e-05 0)
(1.45661147791 -0.000129823747348 0)
(1.45654932057 -0.000204787849728 0)
(1.45644589399 -0.00031908674695 0)
(1.4562747361 -0.000494025276091 0)
(1.45599362938 -0.000762535853917 0)
(1.45553407162 -0.00117389496577 0)
(1.45478504412 -0.00180366031646 0)
(1.45356886833 -0.00276557292021 0)
(1.45160369243 -0.00422633928671 0)
(1.44844906348 -0.00642032647605 0)
(1.4434320052 -0.00965493414107 0)
(1.43556120132 -0.0142838957459 0)
(1.42350447988 -0.0206128579414 0)
(1.40560887423 -0.0287347292404 0)
(1.37947260908 -0.0382259752822 0)
(0.993269979351 0.0061698770174 0)
(1.0315796325 0.0170995057576 0)
(1.08671028278 0.0239828938658 0)
(1.15170712974 0.026543735961 0)
(1.21814283919 0.025787213711 0)
(1.27907174616 0.0229989900632 0)
(1.33106996384 0.0192917086106 0)
(1.37323582069 0.0154447898721 0)
(1.40608972796 0.0119121864462 0)
(1.43085602649 0.00890266627047 0)
(1.44899530364 0.00646815209974 0)
(1.46192861238 0.00457383179752 0)
(1.47090471764 0.00314547510259 0)
(1.47695574393 0.00209772156695 0)
(1.48089980734 0.00134903161288 0)
(1.48336521092 0.000828322493544 0)
(1.4848219214 0.000476915588086 0)
(1.48561296029 0.000248119094819 0)
(1.48598247305 0.000105810058155 0)
(1.48609952234 2.27003365248e-05 0)
(1.48607709778 -2.13768738076e-05 0)
(1.48598763601 -4.08636664555e-05 0)
(1.48587528827 -4.58107892986e-05 0)
(1.48576475522 -4.29256059601e-05 0)
(1.48566810795 -3.64768031279e-05 0)
(1.48558969585 -2.90148598683e-05 0)
(1.48552949315 -2.19293534493e-05 0)
(1.48548530128 -1.58640211155e-05 0)
(1.48545411847 -1.10108081095e-05 0)
(1.48543292093 -7.31548935295e-06 0)
(1.48541904169 -4.61394254866e-06 0)
(1.48541030993 -2.70342036768e-06 0)
(1.48540506559 -1.38528067233e-06 0)
(1.48540210269 -4.95006400321e-07 0)
(1.48540057766 9.32084138087e-08 0)
(1.4853999272 5.0317831088e-07 0)
(1.48539976868 7.90395824606e-07 0)
(1.48539985609 1.0112051101e-06 0)
(1.48540005921 1.20485770803e-06 0)
(1.48540030181 1.39877161543e-06 0)
(1.48540054115 1.61025260742e-06 0)
(1.4854007546 1.84997056074e-06 0)
(1.48540092909 2.12450142696e-06 0)
(1.48540105547 2.43740470421e-06 0)
(1.48540112684 2.79070297574e-06 0)
(1.48540113834 3.18566811865e-06 0)
(1.48540108757 3.62296310242e-06 0)
(1.485400974 4.10176758606e-06 0)
(1.48540079626 4.61891056631e-06 0)
(1.48540055295 5.1704333978e-06 0)
(1.48540024222 5.74440341952e-06 0)
(1.48539985762 6.32080104286e-06 0)
(1.48539938672 6.868810985e-06 0)
(1.48539881014 7.34255774524e-06 0)
(1.48539809844 7.67550307203e-06 0)
(1.48539720506 7.77226734442e-06 0)
(1.48539605579 7.49642842661e-06 0)
(1.48539455676 6.64749539733e-06 0)
(1.48539264576 4.91615011948e-06 0)
(1.48538985187 1.99820553344e-06 0)
(1.48538487329 -2.0801395568e-06 0)
(1.48537672556 -8.12122393391e-06 0)
(1.48536406411 -1.77365657244e-05 0)
(1.48534381796 -3.23146402978e-05 0)
(1.48531119733 -5.38034210658e-05 0)
(1.48525855451 -8.51653071732e-05 0)
(1.48517352101 -0.000130694681843 0)
(1.48503572932 -0.000196915410412 0)
(1.48481251789 -0.000295063317757 0)
(1.48445349053 -0.000441636260353 0)
(1.48387807775 -0.00065568043314 0)
(1.48295725053 -0.000966260266319 0)
(1.48148909889 -0.00141555149404 0)
(1.479161344 -0.00206145879422 0)
(1.47549996896 -0.00297893004286 0)
(1.46980487815 -0.00425594082915 0)
(1.4610831499 -0.00597649132157 0)
(1.44804395638 -0.00818153700463 0)
(1.42914111104 -0.0108221484316 0)
(1.40222591913 -0.0136852108864 0)
(0.993270776283 -0.00616821812307 0)
(1.03157961098 -0.0170978414252 0)
(1.08671020763 -0.0239819558049 0)
(1.15170715579 -0.0265432384811 0)
(1.21814290584 -0.0257870624094 0)
(1.27907183738 -0.0229991308025 0)