/*--------------------------------*- C++ -*----------------------------------*\
| =========                 |                                                 |
| \\      /  F ield         | OpenFOAM: The Open Source CFD Toolbox           |
|  \\    /   O peration     | Version:  2106                                  |
|   \\  /    A nd           | Website:  www.openfoam.com                      |
|    \\/     M anipulation  |                                                 |
\*---------------------------------------------------------------------------*/
FoamFile
{
    version     2.0;
    format      ascii;
    arch        "LSB;label=32;scalar=64";
    class       volScalarField;
    location    "0.1";
    object      p;
}
// * * * * * * * * * * * * * * * * * * * * * * * * * * * * * * * * * * * * * //

dimensions      [0 2 -2 0 0 0 0];

internalField   nonuniform List<scalar> 
9600
(
2.21137131933
-0.686638903043
-1.59087009295
-1.97648070067
-2.19581185647
-2.33575444828
-2.43965918734
-2.52720819162
-2.6067066131
-2.68209547514
-2.75546756076
-2.82797385374
-2.90024409024
-2.97260927621
-3.04522612947
-3.118150726
-3.19138339616
-3.26489610506
-3.33864888999
-3.41259921985
-3.48670652504
-3.56093653521
-3.6352591262
-3.70965014931
-3.78409036004
-3.85856459065
-3.93306104292
-4.00757059166
-4.08208616403
-4.15660226964
-4.23111459032
-4.3056196339
-4.38011452608
-4.454596808
-4.52906425359
-4.60351482672
-4.67794657831
-4.75235749435
-4.82674550278
-4.90110847435
-4.97544413575
-5.04975009124
-5.12402367698
-5.19826203797
-5.27246213672
-5.34662072615
-5.42073424716
-5.4947988964
-5.5688106547
-5.6427651335
-5.71665759116
-5.7904830207
-5.86423600992
-5.93791071038
-6.01150090487
-6.08499990369
-6.15840052461
-6.23169516756
-6.30487567551
-6.37793329793
-6.45085880547
-6.52364233121
-6.59627328264
-6.66874049021
-6.74103206476
-6.81313525224
-6.88503663307
-6.95672203636
-7.02817629045
-7.09938337459
-7.17032642331
-7.24098748077
-7.31134758658
-7.38138677954
-7.4510838735
-7.52041657626
-7.58936152911
-7.65789403335
-7.72598807387
-7.79361636072
-7.86075014594
-7.92735931026
-7.99341236498
-8.05887616607
-8.12371602979
-8.18789584915
-8.25137774277
-8.31412210332
-8.37608780112
-8.43723181336
-8.49750925132
-8.55687366423
-8.61527659508
-8.67266752536
-8.72899435689
-8.78420296377
-8.83823695895
-8.89103834942
-8.94254720083
-8.99270114322
-9.04143609836
-9.08868623985
-9.13438329322
-9.17845707819
-9.22083571783
-9.26144509838
-9.30020921594
-9.33705038921
-9.37188889599
-9.40464319681
-9.43522990981
-9.46356388455
-9.48955862124
-9.51312596701
-9.53417593435
-9.55261721374
-9.56835724561
-9.5813021661
-9.59135683954
-9.59842504327
-9.60240985296
-9.60321326478
-9.60073628129
-9.59487965795
-9.58554393159
-9.57262772159
-9.55603059065
-9.53565105555
-9.51138685788
-9.48313621901
-9.45079739858
-9.4142675929
-9.37344371443
-9.32822284347
-9.27850077369
-9.22417179743
-9.16512965479
-9.10126574457
-9.03246826857
-8.95862245605
-8.87960791366
-8.79529753885
-8.70555621963
-8.61023633605
-8.50917552832
-8.40219221976
-8.28907763122
-8.16958837248
-8.0434340876
-7.91025929686
-7.76961719028
-7.62092730254
-7.46340534428
-7.29593584612
-7.11685481382
-6.92363188002
-6.71237810927
-6.47717523325
-6.21836992284
-6.00498777911
0.299830323717
-0.882524238958
-1.49119807163
-1.84522241563
-2.08783876224
-2.25840176926
-2.38647323891
-2.49097547478
-2.58205043651
-2.6653280299
-2.7440996965
-2.82031504592
-2.89513351456
-2.9692434379
-3.04304696989
-3.11677094307
-3.19053536683
-3.26439624589
-3.33837244786
-3.41246244579
-3.486654955
-3.56093352356
-3.63528184019
-3.70968461867
-3.78412829347
-3.85860135427
-3.93309429971
-4.0075994195
-4.08211047225
-4.15662241298
-4.23113114391
-4.30563324237
-4.38012581039
-4.45460635469
-4.5290725875
-4.603522368
-4.67795368815
-4.75236451117
-4.82675270841
-4.90111610235
-4.97545237924
-5.04975899744
-5.12403332485
-5.19827245996
-5.27247339911
-5.34663292131
-5.42074750198
-5.49481329201
-5.56882624808
-5.64278200982
-5.7166758281
-5.7905027062
-5.86425726644
-5.93793365722
-6.01152565219
-6.08502659307
-6.15842927787
-6.23172609477
-6.30490894963
-6.37796909487
-6.45089726803
-6.52368364326
-6.59631761963
-6.66878798751
-6.74108293666
-6.81318974853
-6.88509493469
-6.95678437047
-7.02824294452
-7.09945457054
-7.17040238644
-7.24106848857
-7.31143389037
-7.38147867594
-7.45118174106
-7.52052075114
-7.58947231449
-7.65801174129
-7.72611299444
-7.79374885486
-7.86089065146
-7.92750819821
-7.99357001431
-8.05904304056
-8.12389252502
-8.18808233711
-8.25157469316
-8.31432994463
-8.37630695146
-8.43746281135
-8.49775257431
-8.55712974391
-8.61554602025
-8.67295081464
-8.72929188893
-8.78451528008
-8.8385645955
-8.89138170086
-8.94290690474
-8.99307791977
-9.04183035783
-9.08909844161
-9.13481407746
-9.17890694179
-9.22130519218
-9.26193481877
-9.30071964197
-9.33758193118
-9.37244200894
-9.40521828575
-9.43582734621
-9.46418411357
-9.49020183764
-9.51379244321
-9.53486615146
-9.5533316043
-9.56909616882
-9.5820660972
-9.59214630874
-9.59924042855
-9.60325149393
-9.60408167898
-9.60163200229
-9.59580307032
-9.58649444451
-9.57360566578
-9.55703600072
-9.53668525324
-9.51245193584
-9.48423424901
-9.45193117363
-9.41544117294
-9.37466178996
-9.32949115987
-9.27982717385
-9.22556600033
-9.16660351162
-9.10283431568
-9.03415008911
-8.96044070454
-8.88159194481
-8.79748374478
-8.70799054875
-8.61297703086
-8.51229574645
-8.40578523649
-8.29326357308
-8.17452305633
-8.04932260285
-7.91737650517
-7.77834045727
-7.63179213626
-7.4772090358
-7.31393957513
-7.14118437691
-6.95808381433
-6.76400913143
-6.5584569852
-6.34220242611
-6.13963182325
-0.676011763801
-1.15737981649
-1.54863824444
-1.84025431345
-2.0618277929
-2.22976350557
-2.36186507209
-2.47165343913
-2.56751166975
-2.65465571358
-2.73639700395
-2.8148302303
-2.89127579656
-2.96656343972
-3.0412094967
-3.11552943773
-3.18971057631
-3.26385927082
-3.33803161384
-3.41225326618
-3.48653221831
-3.56086679304
-3.63525015446
-3.70967413836
-3.78412996371
-3.85860939706
-3.93310514295
-4.00761095348
-4.08212154004
-4.15663245129
-4.23113996168
-4.30564087281
-4.38013238568
-4.45461206042
-4.52907764271
-4.60352695844
-4.67795795043
-4.75236857505
-4.8267566866
-4.90112006241
-4.97545637439
-5.04976312324
-5.12403767626
-5.19827718954
-5.27247851648
-5.34663842109
-5.42075342747
-5.49481970233
-5.56883317737
-5.64278953675
-5.71668403064
-5.79051162128
-5.86426691489
-5.93794408276
-6.01153688107
-6.08503868735
-6.15844232089
-6.23174012859
-6.30492403444
-6.37798531937
-6.45091468546
-6.52370233342
-6.59633769654
-6.66880949633
-6.7411059202
-6.81321434737
-6.88512125139
-6.95681246699
-7.02827296513
-7.09948665777
-7.17043663963
-7.24110504228
-7.31147285465
-7.3815201351
-7.45122585483
-7.52056769021
-7.58952221506
-7.65806477526
-7.72616931138
-7.79380856802
-7.86095393801
-7.92757522619
-7.99364090731
-8.05911801344
-8.12397180864
-8.1881660825
-8.2516631173
-8.31442327827
-8.37640531382
-8.43756640077
-8.49786164187
-8.55724440853
-8.61566648597
-8.67307738637
-8.72942470764
-8.78465454334
-8.83871064571
-8.89153464081
-8.94306676458
-8.99324500326
-9.04200488202
-9.0892804593
-9.13500382454
-9.17910462261
-9.22151087334
-9.2621487215
-9.30094205954
-9.3378130575
-9.37268201448
-9.40546740286
-9.43608630767
-9.46445343643
-9.4904818647
-9.51408346079
-9.53516851318
-9.5536457327
-9.56942248341
-9.58240498557
-9.59249839655
-9.59960649107
-9.6036321796
-9.60447776825
-9.6020444137
-9.59623297856
-9.58694432521
-9.57407800337
-9.55753291093
-9.53720883679
-9.51300498428
-9.4848199175
-9.45255293597
-9.4161035768
-9.37537041817
-9.33025229767
-9.28064877661
-9.22645812835
-9.16757826606
-9.10390690239
-9.03533934253
-8.96176960094
-8.88308936447
-8.79918551863
-8.70994120373
-8.61523298869
-8.51492793024
-8.40888324745
-8.29694213275
-8.17892980921
-8.05464991836
-7.92387922722
-7.78636244756
-7.64180739067
-7.48988814197
-7.33026038444
-7.16260528989
-6.9867754554
-6.80313556685
-6.61275511371
-6.4174064653
-6.22657484166
-1.22747215845
-1.41381826586
-1.65626531244
-1.87873334006
-2.06592394025
-2.21995163964
-2.34838891989
-2.45867941778
-2.55647376975
-2.64583340543
-2.72960389612
-2.80972970717
-2.88751837924
-2.96383911879
-3.03926247508
-3.11415720141
-3.1887571057
-3.2632067609
-3.33759255889
-3.41196358383
-3.48634551678
-3.56074989075
-3.63518017407
-3.70963470338
-3.7841099876
-3.85860140709
-3.9331041948
-4.00761385587
-4.08212630171
-4.15663787484
-4.23114536694
-4.30564592516
-4.38013694772
-4.45461609898
-4.52908121753
-4.60353017429
-4.67796089549
-4.7523713384
-4.82675936689
-4.90112274317
-4.9754591228
-5.04976597828
-5.12404063823
-5.19828031139
-5.27248189237
-5.34664205985
-5.42075734361
-5.49482392969
-5.56883770784
-5.6427943554
-5.71668919276
-5.79051711925
-5.86427281278
-5.93795044133
-6.01154373521
-6.08504607915
-6.15845030657
-6.23174873846
-6.30493329625
-6.37799529568
-6.45092540151
-6.52371380169
-6.59635000172
-6.66882270084
-6.74112004558
-6.81322945582
-6.88513742066
-6.95682971571
-7.02829133349
-7.0995062344
-7.17045749697
-7.24112727726
-7.31149656831
-7.38154537045
-7.45125267626
-7.52059618965
-7.58955246096
-7.65809687582
-7.72620339184
-7.79384470433
-7.86099222982
-7.92761578464
-7.99368378907
-8.0591633277
-8.12401970666
-8.18821663651
-8.25171644883
-8.31447959407
-8.37646470088
-8.43762895338
-8.49792757338
-8.55731380735
-8.61573941756
-8.67315408945
-8.72950531065
-8.7847390997
-8.8387994567
-8.89162795966
-8.94316465048
-8.99334769782
-9.04211273131
-9.08939364179
-9.13512254929
-9.17922917179
-9.22164140793
-9.26228542781
-9.30108521554
-9.3379629309
-9.37283883676
-9.40563122519
-9.43625696078
-9.46463113647
-9.49066692197
-9.51427605786
-9.53536886107
-9.55385418429
-9.56963938237
-9.5826305815
-9.59273306991
-9.59985083298
-9.60388681128
-9.60474344705
-9.60232209053
-9.59652338438
-9.58724829995
-9.57439709144
-9.55786902669
-9.53756402289
-9.51338213355
-9.48522268156
-9.45298535633
-9.41657072901
-9.37587883689
-9.33080953978
-9.28126394662
-9.22714268339
-9.16834594105
-9.10477459314
-9.03632801889
-8.96290466067
-8.88440230622
-8.80071530065
-8.71173558271
-8.61735175822
-8.51744594551
-8.4118940938
-8.30056434119
-8.18331432151
-8.05999031487
-7.93042687284
-7.79444774504
-7.65186987397
-7.50251759684
-7.34625161327
-7.18301986549
-7.01296136432
-6.83658906704
-6.65485663862
-6.46892549436
-6.28210915529
-1.56481739133
-1.61658063941
-1.76047531159
-1.924768637
-2.07910145622
-2.21715919245
-2.33931285512
-2.44810124409
-2.54654525627
-2.63737515535
-2.7227824202
-2.80441983728
-2.88348909734
-2.96084211086
-3.03707067837
-3.11257858282
-3.18763659076
-3.26242295585
-3.33705260821
-3.41159779498
-3.48610243557
-3.56059204342
-3.6350806359
-3.70957412818
-3.78407513873
-3.85858311291
-3.93309621304
-4.0076120315
-4.08212794419
-4.15664128993
-4.23114951628
-4.30565022087
-4.38014108533
-4.45461992181
-4.52908468337
-4.60353333204
-4.67796381772
-4.75237409856
-4.82676204707
-4.90112541473
-4.97546185033
-5.04976882937
-5.12404366297
-5.19828352194
-5.27248530458
-5.34664571592
-5.42076127566
-5.49482820219
-5.56884237301
-5.64279945559
-5.71669478642
-5.79052327342
-5.86427952017
-5.93795771395
-6.01155157702
-6.08505447949
-6.15845933497
-6.2317584704
-6.3049437722
-6.37800657678
-6.45093753071
-6.52372677482
-6.59636387593
-6.66883756661
-6.74113592525
-6.81324642284
-6.88515559805
-6.95684914903
-7.02831207092
-7.09952838186
-7.17048112341
-7.24115246665
-7.31152346195
-7.38157405855
-7.45128323193
-7.52062872866
-7.58958705342
-7.65813359523
-7.72624236913
-7.79388600911
-7.86103594415
-7.92766210573
-7.99373284943
-8.05921517977
-8.12407450096
-8.18827452447
-8.25177751855
-8.31454397251
-8.37653250988
-8.43770028656
-8.49800260687
-8.55739266053
-8.61582212718
-8.67324085402
-8.72959629394
-8.78483428989
-8.83889902744
-8.89173214948
-8.94327341407
-8.99346104848
-9.04223086138
-9.08951659185
-9.13525038665
-9.17936210333
-9.22177953259
-9.26242880198
-9.30123395341
-9.33811716278
-9.37299880017
-9.40579718196
-9.43642904915
-9.46480956893
-9.49085200221
-9.51446801173
-9.53556790488
-9.55406063584
-9.56985368867
-9.58285316083
-9.59296429205
-9.60009122978
-9.60413698932
-9.60500418958
-9.60259455147
-9.5968087312
-9.58754763377
-9.57471213152
-9.55820200328
-9.53791723854
-9.513758463
-9.48562593635
-9.45341989596
-9.4170416884
-9.37639294697
-9.33137493674
-9.28189027681
-9.22784202057
-9.16913285817
-9.10566675094
-9.03734732758
-8.96407768347
-8.88576169704
-8.80230151021
-8.71359783093
-8.61955077258
-8.52005737559
-8.41501162698
-8.30430487983
-8.18782479464
-8.0654557537
-7.93708150982
-7.80258978959
-7.66187963503
-7.51487754232
-7.36156434179
-7.20201271504
-7.03644127662
-6.86527000585
-6.68905171218
-6.50812767583
-6.32291957367
-1.7688914938
-1.76391320704
-1.84788810413
-1.96867743763
-2.09532037996
-2.2180001529
-2.33289702346
-2.4390933151
-2.53737641687
-2.62916548361
-2.71592617875
-2.79894099385
-2.87924463848
-2.95763085345
-3.03468771571
-3.1108398076
-3.1863873427
-3.26153871735
-3.33643608562
-3.41117470418
-3.48581712804
-3.5604035157
-3.63495913288
-3.70949805843
-3.78402946443
-3.85855736296
-3.93308318744
-4.00760686137
-4.08212741405
-4.15664333139
-4.23115282192
-4.30565400598
-4.38014492415
-4.45462358496
-4.52908805968
-4.60353641716
-4.67796666133
-4.75237676045
-4.82676459265
-4.90112789953
-4.97546432432
-5.04977134868
-5.12404626221
-5.19828622357
-5.27248818431
-5.34664880336
-5.42076456949
-5.49483173571
-5.56884618546
-5.64280354806
-5.71669916424
-5.79052795459
-5.86428450586
-5.93796306612
-6.01155738414
-6.08506076367
-6.15846613021
-6.23176581379
-6.30495165908
-6.37801504403
-6.45094665181
-6.52373656747
-6.59637436031
-6.66884881242
-6.74114795715
-6.81325925438
-6.88516930977
-6.95686380063
-7.02832768809
-7.09954502638
-7.17049885056
-7.24117132353
-7.31154353753
-7.38159541972
-7.45130592646
-7.52065285101
-7.58961267823
-7.65816076653
-7.72627118112
-7.79391655677
-7.86106828999
-7.92769633984
-7.99376904839
-8.05925341305
-8.12411491506
-8.18831723111
-8.25182255009
-8.31459146915
-8.37658262771
-8.43775307007
-8.49805820189
-8.55745125707
-8.61588375015
-8.67330562219
-8.72966446237
-8.78490592132
-8.8389741878
-8.89181111049
-8.94335633666
-8.99354801211
-9.04232210265
-9.08961227222
-9.13535056437
-9.17946697101
-9.22188930241
-9.26254361482
-9.30135392613
-9.33824237452
-9.37312942102
-9.405933483
-9.43657118852
-9.46495768177
-9.49100631914
-9.51462880656
-9.53573542208
-9.55423511938
-9.57003554992
-9.58304291312
-9.59316242714
-9.60029837515
-9.60435383598
-9.60523141978
-9.60283331779
-9.59706049228
-9.58781368317
-9.57499412109
-9.55850227975
-9.5382383747
-9.51410342997
-9.48599868855
-9.45382512825
-9.41748471711
-9.3768805326
-9.33191541398
-9.2824934262
-9.22851995014
-9.16990029374
-9.10654131859
-9.03835070734
-8.96523605914
-8.88710681603
-8.80387263448
-8.71544264752
-8.62172721644
-8.5226368637
-8.41808174055
-8.30797302794
-8.19222365072
-8.07074912611
-7.94347088056
-7.81032256547
-7.67125730634
-7.52626073001
-7.37536979954
-7.21869220741
-7.05642486613
-6.88884370376
-6.71619125496
-6.53837279683
-6.35485922286
-1.89202029597
-1.86656431852
-1.91592329178
-2.00608304044
-2.11100779501
-2.22033014501
-2.32816711501
-2.43139091281
-2.52906482643
-2.62145525784
-2.70932654067
-2.79357029456
-2.87502532561
-2.95440296867
-3.03227050212
-3.10906232865
-3.18510149056
-3.26062274892
-3.3357934481
-3.4107308387
-3.48551567788
-3.56020256628
-3.63482766929
-3.70941510785
-3.78397882904
-3.85852800509
-3.9330675695
-4.00759985432
-4.08212559464
-4.15664447455
-4.23115550364
-4.30565734125
-4.38014841521
-4.45462697068
-4.52909120609
-4.60353929046
-4.67796929004
-4.7523791904
-4.82676688103
-4.90113009972
-4.97546647793
-5.04977350823
-5.1240484723
-5.19828850784
-5.27249058327
-5.34665136652
-5.42076731055
-5.49483467256
-5.56884936499
-5.64280699594
-5.71670291298
-5.79053205711
-5.86428898673
-5.93796792495
-6.0115626124
-6.08506638105
-6.15847217513
-6.23177234556
-6.30495868517
-6.37802256539
-6.45095472473
-6.52374522196
-6.59638360616
-6.6688587196
-6.74115857416
-6.8132705715
-6.88518137074
-6.95687668267
-7.02834143853
-7.09955971601
-7.17051454959
-7.24118806545
-7.31156138709
-7.38161444663
-7.45132616641
-7.5206743803
-7.58963557747
-7.65818506497
-7.72629694701
-7.79394387948
-7.86109720971
-7.92772693183
-7.99380140609
-8.05928756879
-8.12415095679
-8.18835529586
-8.25186268161
-8.31463373522
-8.37662715301
-8.43779987008
-8.49810732824
-8.55750288129
-8.61593789899
-8.67336230268
-8.72972388964
-8.78496820052
-8.83903928028
-8.89187915864
-8.94342747723
-8.9936222535
-9.04239958969
-9.08969317104
-9.1354349011
-9.17955484249
-9.22198088953
-9.26263907748
-9.30145344116
-9.33834604455
-9.37323733944
-9.40604588686
-9.43668831187
-9.46507965345
-9.49113334213
-9.5147612122
-9.53587353565
-9.55437921082
-9.57018595428
-9.58320010487
-9.59332692682
-9.6004708644
-9.60453512448
-9.60542218636
-9.6030345326
-9.59727367217
-9.5880403483
-9.57523589078
-9.55876141895
-9.53851760194
-9.51440576063
-9.48632793778
-9.45418608639
-9.41788282372
-9.37732240395
-9.33240929245
-9.28304896826
-9.2291488651
-9.17061684664
-9.10736253038
-9.03929738494
-8.9663332673
-8.8883844307
-8.80536717221
-8.71719844772
-8.62379753212
-8.52508636614
-8.42098894157
-8.31143257939
-8.19634988901
-8.07568025951
-7.94937230426
-7.8173901414
-7.67971938055
-7.53637551674
-7.38741522708
-7.23294190605
-7.07310548434
-6.908072725
-6.73792939919
-6.56248556909
-6.38118726302
-1.9660621842
-1.93501288604
-1.96494309351
-2.03471556114
-2.12388375954
-2.22276061232
-2.32463994632
-2.42511238715
-2.52203906455
-2.61478536552
-2.70352242009
-2.78878864965
-2.87123353462
-2.95148106963
-3.03006985576
-3.1074365491
-3.18392075802
-3.25977875494
-3.33519941414
-3.41031925021
-3.48523522331
-3.56001502069
-3.63470506993
-3.7093369228
-3.78393069491
-3.8584997806
-3.93305225178
-4.0075926769
-4.08212336109
-4.15664510008
-4.23115765552
-4.30566017313
-4.38015142865
-4.45462991043
-4.52909394905
-4.60354179643
-4.67797157391
-4.75238128313
-4.82676882618
-4.90113194876
-4.97546826821
-5.04977528354
-5.12405028011
-5.19829036454
-5.27249251173
-5.3466534195
-5.42076951231
-5.49483703408
-5.5688519197
-5.64280976602
-5.71670590656
-5.79053529541
-5.86429246965
-5.93797165239
-6.01156664546
-6.08507075121
-6.15847688373
-6.23177743446
-6.30496417857
-6.37802845096
-6.45096103798
-6.52375200088
-6.59639084447
-6.66886645901
-6.74116688036
-6.81327944164
-6.88519081159
-6.95688675103
-7.02835217251
-7.09957116434
-7.17052677349
-7.24120108072
-7.31157522796
-7.38162918247
-7.45134182154
-7.520690984
-7.58965320377
-7.65820376344
-7.72631676748
-7.79396488765
-7.86111943022
-7.92775041837
-7.99382625912
-8.05931381541
-8.1241786234
-8.1883844996
-8.25189348585
-8.31466617667
-8.37666135915
-8.43783588941
-8.49814515599
-8.55754267201
-8.61597975177
-8.67340617955
-8.72976992458
-8.78501655652
-8.83908993314
-8.89193218196
-8.94348302957
-8.9936803433
-9.04246026825
-9.08975659741
-9.13550115129
-9.17962396831
-9.22205296584
-9.2627141987
-9.3015317764
-9.33842773631
-9.37332244913
-9.40613457249
-9.43678077792
-9.4651760435
-9.49123382416
-9.51486603476
-9.5359830354
-9.55449370173
-9.57030577829
-9.58332569137
-9.59345874698
-9.60060954672
-9.60468158087
-9.60557723325
-9.60319899669
-9.5974489412
-9.58822807339
-9.57543770288
-9.55897945219
-9.5387546164
-9.51466479469
-9.4866126437
-9.45450116472
-9.4182336851
-9.37771540343
-9.33285238995
-9.2835515713
-9.22972217286
-9.17127443716
-9.10812046185
-9.04017511267
-8.96735436299
-8.88957671661
-8.80676403867
-8.71884024005
-8.62573230341
-8.52737148004
-8.42369323666
-8.31463809735
-8.20015347559
-8.08019638285
-7.95473499771
-7.82375331564
-7.68725644952
-7.5452749273
-7.39787170852
-7.24514106227
-7.08720215037
-6.92417431402
-6.75611381597
-6.58291828249
-6.40431422321
-2.00829512086
-1.97673168302
-1.9963763392
-2.05382229614
-2.13283558112
-2.22461429052
-2.3222320449
-2.42061976089
-2.51690137065
-2.60983524232
-2.6991676636
-2.78517147329
-2.86834717882
-2.94924620944
-3.02838040828
-3.10618478799
-3.18300951503
-3.25912610266
-3.33473925467
-3.40999990731
-3.48501727399
-3.55986899779
-3.63460932337
-3.70927567306
-3.78389290134
-3.85847752491
-3.93304007858
-4.00758688294
-4.08212145359
-4.15664544707
-4.23115922492
-4.30566230713
-4.38015372515
-4.45463216029
-4.52909605696
-4.60354372965
-4.67797334326
-4.75238290892
-4.82677033417
-4.90113337573
-4.97546964084
-5.04977662957
-5.1240516428
-5.19829176904
-5.27249396328
-5.34665495533
-5.42077116347
-5.49483880646
-5.56885383711
-5.6428118521
-5.71670816147
-5.79053773212
-5.8642951056
-5.93797449465
-6.01156971671
-6.08507407551
-6.15848045328
-6.23178126798
-6.30496831169
-6.37803288108
-6.45096578648
-6.52375710969
-6.59639629829
-6.66887225467
-6.74117307748
-6.81328606959
-6.88519787733
-6.95689429552
-7.02836022445
-7.09957975163
-7.17053594502
-7.24121084307
-7.31158559011
-7.38164021354
-7.45135355759
-7.52070343007
-7.58966641112
-7.6582177718
-7.72633160001
-7.79398060124
-7.86113604236
-7.9277679291
-7.99384474953
-8.05933334362
-8.12419918866
-8.18840616933
-8.25191631763
-8.31469016666
-8.37668659419
-8.43786244509
-8.49817299038
-8.55757186632
-8.6160104491
-8.67343834417
-8.72980357706
-8.78505185023
-8.8391268786
-8.89197079112
-8.94352344959
-8.99372260979
-9.04250435943
-9.08980262245
-9.13554921869
-9.17967415221
-9.22210534512
-9.26276878553
-9.30158867701
-9.338487129
-9.37338442038
-9.40619919272
-9.43684821232
-9.46524650053
-9.49130748422
-9.51494308425
-9.53606372378
-9.55457836173
-9.57039475795
-9.58341948759
-9.5935578102
-9.60071437394
-9.60479301243
-9.60569626978
-9.60332647485
-9.59758607095
-9.58837655443
-9.57559926165
-9.5591561073
-9.53894903208
-9.51488004356
-9.48685224678
-9.45476964333
-9.41853641782
-9.37805854083
-9.33324350373
-9.28399968132
-9.23023799089
-9.17187095777
-9.10881288582
-9.04098155922
-8.96829680979
-8.89068105053
-8.80806086057
-8.72036623394
-8.62753093939
-8.52949388944
-8.42619983864
-8.31760028665
-8.20365444559
-8.08433246869
-7.95961725045
-7.8295071475
-7.69402109726
-7.55320074192
-7.40711531513
-7.25586069062
-7.09955332354
-6.938319062
-6.77226331667
-6.60144100947
-6.42589269876
-2.02754360451
-1.99644779821
-2.01167132616
-2.06333910789
-2.13739659093
-2.22559797758
-2.32100210352
-2.41827089025
-2.51418292944
-2.60719367595
-2.69682890022
-2.7832193665
-2.86678369327
-2.94803219436
-3.02746068127
-3.10550220151
-3.18251196647
-3.2587693689
-3.33448751118
-3.40982506922
-3.48489786714
-3.55978893645
-3.63455676281
-3.70924199313
-3.78387212065
-3.85846528026
-3.93303337611
-4.00758370101
-4.08212042481
-4.15664566544
-4.23116012371
-4.30566353323
-4.38015505453
-4.45463347684
-4.5290973098
-4.60354489809
-4.67797443275
-4.75238393264
-4.82677130063
-4.90113430598
-4.97547054672
-5.04977751242
-5.1240525336
-5.19829270001
-5.27249493939
-5.34665598529
-5.42077227039
-5.49483999238
-5.56885511641
-5.64281324974
-5.71670967455
-5.79053936235
-5.86429686467
-5.93797637646
-6.01157174733
-6.08507629164
-6.15848284283
-6.2317838213
-6.30497105998
-6.37803582858
-6.45096893262
-6.52376049453
-6.59639992408
-6.66887609276
-6.7411771584
-6.81329043419
-6.88520253441
-6.95689927319
-7.02836554506
-7.09958541824
-7.1705419886
-7.24121727453
-7.31159239079
-7.3816474167
-7.45136120759
-7.52071153625
-7.58967500302
-7.65822687299
-7.72634121187
-7.79399076847
-7.86114678787
-7.92777922228
-7.99385663513
-8.05934589539
-8.12421239451
-8.18842004942
-8.2519309304
-8.3147054846
-8.37670264169
-8.43787932447
-8.49819067401
-8.55759034544
-8.61602986118
-8.6734586995
-8.72982481942
-8.78507408213
-8.83915013563
-8.89199502515
-8.9435487689
-8.99374909363
-9.04253197277
-9.08983138877
-9.13557921017
-9.1797054436
-9.22213801649
-9.26280286093
-9.30162419194
-9.33852421995
-9.3734231961
-9.40623970648
-9.43689057777
-9.46529090109
-9.49135412457
-9.51499213965
-9.53611543172
-9.55463299858
-9.57045267875
-9.58348117307
-9.59362381934
-9.60078514566
-9.60486924513
-9.60577901169
-9.60341667447
-9.59768478994
-9.58848538795
-9.57572005174
-9.55929085786
-9.53910032288
-9.51505099204
-9.4870463095
-9.45499112798
-9.41879063813
-9.37835156526
-9.33358265359
-9.28439369559
-9.23069712906
-9.17240769199
-9.10944188341
-9.04171999692
-8.96916543495
-8.89170436987
-8.80926750933
-8.7217901608
-8.62921228786
-8.53147965812
-8.42854482931
-8.32036864146
-8.20692062526
-8.08818189726
-7.96414773345
-7.83482933319
-7.70025847072
-7.56048987252
-7.4156051213
-7.26571555715
-7.11095954716
-6.95150359384
-6.78753702095
-6.61927681984
-6.447018468
-2.02754362014
-1.99644778382
-2.01167134104
-2.06333913788
-2.13739660069
-2.22559798784
-2.32100211038
-2.41827088784
-2.51418291922
-2.60719366434
-2.69682889802
-2.78321938098
-2.86678372617
-2.94803224393
-3.02746074499
-3.10550228048
-3.18251205657
-3.25876946002
-3.33448760212
-3.40982516525
-3.48489797008
-3.55978904588
-3.63455687166
-3.70924209324
-3.78387221654
-3.858465377
-3.93303347628
-4.00758381838
-4.08212056749
-4.15664582356
-4.23116029351
-4.30566372088
-4.38015526143
-4.45463370691
-4.52909757279
-4.60354519089
-4.67797475245
-4.75238427822
-4.82677166405
-4.9011346872
-4.97547094674
-5.04977791426
-5.12405294319
-5.1982931464
-5.27249542454
-5.34665650278
-5.42077283304
-5.49484059975
-5.56885576963
-5.64281396538
-5.71671044791
-5.79054018501
-5.86429775175
-5.93797732852
-6.01157276256
-6.08507739671
-6.15848403903
-6.23178509085
-6.30497242628
-6.37803730006
-6.45097048218
-6.5237621425
-6.59640169824
-6.66887797139
-6.74117913999
-6.81329254768
-6.88520479033
-6.95690169076
-7.02836813461
-7.09958815485
-7.17054488291
-7.2412203576
-7.31159564169
-7.38165082418
-7.45136479979
-7.52071532205
-7.58967899624
-7.6582310873
-7.72634562346
-7.7939953904
-7.86115166184
-7.92778432248
-7.99386195301
-8.05935148106
-8.12421823452
-8.18842612703
-8.25193729725
-8.31471211643
-8.37670950439
-8.43788650696
-8.49819818357
-8.5575981088
-8.61603795388
-8.67346717486
-8.72983360783
-8.78508322244
-8.8391596781
-8.8920048958
-8.94355898165
-8.99375973585
-9.04254304039
-9.0898428849
-9.13559115083
-9.17971783931
-9.22215095925
-9.26281641264
-9.30163833891
-9.33853901899
-9.37343874834
-9.40625608968
-9.43690787596
-9.46530925216
-9.49137370677
-9.51501313871
-9.53613809291
-9.55465762184
-9.57047953405
-9.58351069139
-9.59365659742
-9.60082167519
-9.60491009575
-9.60582520591
-9.60346933697
-9.597744978
-9.58855455377
-9.57580003676
-9.5593836832
-9.53920848335
-9.51517764762
-9.48719499847
-9.45516603339
-9.41899697838
-9.37859538383
-9.33387118824
-9.28473564828
-9.23110257912
-9.17288884335
-9.11001325411
-9.04239837987
-8.96997090935
-8.89266081
-8.81040275746
-8.72313692034
-8.63080906101
-8.53337156411
-8.43078438338
-8.32301678002
-8.21004824424
-8.09187052887
-7.96849090363
-7.83993405475
-7.70624648525
-7.56750002364
-7.4237959174
-7.27527154944
-7.12210231654
-6.96451062013
-6.80277415586
-6.63724529598
-6.46839654905
-2.00829515196
-1.97673164455
-1.99637638272
-2.05382238062
-2.13283561494
-2.22461432228
-2.32223206701
-2.42061975649
-2.51690134511
-2.60983521779
-2.69916766335
-2.78517151496
-2.8683472727
-2.94924635723
-3.02838060272
-3.10618502586
-3.18300978063
-3.25912637131
-3.33473952703
-3.41000019573
-3.48501757916
-3.55986931813
-3.63460964244
-3.70927597138
-3.78389319172
-3.85847782236
-3.93304038922
-4.00758724008
-4.08212187654
-4.15664591234
-4.23115973141
-4.30566287321
-4.38015434549
-4.45463284805
-4.52909684105
-4.60354460591
-4.67797430571
-4.75238395273
-4.82677142873
-4.9011345174
-4.97547083479
-5.04977784419
-5.12405289217
-5.19829312003
-5.27249541955
-5.34665650487
-5.42077284584
-5.49484062244
-5.5688557906
-5.64281399134
-5.71671047729
-5.79054020374
-5.86429777036
-5.93797735207
-6.0115727721
-6.08507739922
-6.15848404074
-6.23178507312
-6.30497240143
-6.37803728637
-6.4509704464
-6.52376207175
-6.59640162216
-6.66887788315
-6.74117902468
-6.81329241891
-6.88520464794
-6.95690153935
-7.02836798686
-7.09958797596
-7.17054464345
-7.24122007684
-7.31159531391
-7.38165042987
-7.45136434716
-7.52071479761
-7.58967838655
-7.65823040784
-7.7263448494
-7.79399449488
-7.86115067602
-7.92778323482
-7.9938607162
-8.05935011069
-8.12421672256
-8.18842442335
-8.25193541916
-8.31471005782
-8.37670720078
-8.43788400145
-8.49819551881
-8.55759518933
-8.61603476416
-8.67346377097
-8.72982992383
-8.78507923618
-8.83915546009
-8.89200039082
-8.94355411515
-8.99375453807
-9.04253752771
-9.08983706971
-9.13558502611
-9.17971136094
-9.22214415974
-9.2628093606
-9.30163103855
-9.33853147559
-9.37343103365
-9.40624828522
-9.43690006463
-9.46530154046
-9.49136623678
-9.51500606834
-9.53613162458
-9.55465210664
-9.57047528429
-9.58350801679
-9.59365607526
-9.60082390956
-9.6049156101
-9.60583487081
-9.60348434715
-9.59776649728
-9.58858396139
-9.57583918094
-9.55943467118
-9.53927376533
-9.51526036236
-9.48729879269
-9.45529509982
-9.41915655127
-9.3787915971
-9.33411129068
-9.28502846567
-9.23145830716
-9.17331966757
-9.11053393682
-9.04302601938
-8.97072562072
-8.8935666219
-8.81148786599
-8.72443435699
-8.63235766663
-8.53521677696
-8.43297929967
-8.32562310327
-8.21313778036
-8.09552669088
-7.97280987076
-7.84502714868
-7.71224231453
-7.57454803317
-7.43207052771
-7.28497903212
-7.13349125512
-6.97788613495
-6.8185173202
-6.6558349062
-6.49041858416
-1.96606220254
-1.93501285032
-1.96494317215
-2.03471568134
-2.12388382365
-2.22276067732
-2.32463998864
-2.4251123854
-2.52203903317
-2.61478533882
-2.70352242755
-2.78878871523
-2.87123368274
-2.95148131463
-3.03007018492
-3.10743694338
-3.18392118843
-3.25977919516
-3.33519987093
-3.4103197352
-3.48523572938
-3.56001554314
-3.63470559172
-3.70933742213
-3.78393118739
-3.85850028702
-3.93305278384
-4.00759327596
-4.08212405166
-4.15664586361
-4.23115850157
-4.30566111906
-4.38015246098