/*--------------------------------*- C++ -*----------------------------------*\
| =========                 |                                                 |
| \\      /  F ield         | OpenFOAM: The Open Source CFD Toolbox           |
|  \\    /   O peration     | Version:  2106                                  |
|   \\  /    A nd           | Website:  www.openfoam.com                      |
|    \\/     M anipulation  |                                                 |
\*---------------------------------------------------------------------------*/
FoamFile
{
    version     2.0;
    format      ascii;
    arch        "LSB;label=32;scalar=64";
    class       volScalarField;
    location    "0.14";
    object      p;
}
// * * * * * * * * * * * * * * * * * * * * * * * * * * * * * * * * * * * * * //

dimensions      [0 2 -2 0 0 0 0];

internalField   nonuniform List<scalar> 
9600
(
2.21151828906
-0.686493146744
-1.5907239313
-1.97633415591
-2.19566657794
-2.33560864321
-2.4395125248
-2.52706093507
-2.60655867035
-2.68194735445
-2.75532007431
-2.82782789718
-2.90010070025
-2.97246935062
-3.04508986969
-3.11801817839
-3.19125430485
-3.2647696888
-3.33852403853
-3.41247462034
-3.48658084798
-3.56080837458
-3.63512661785
-3.70951118783
-3.78394264354
-3.8584059868
-3.9328896774
-4.00738471689
-4.08188437088
-4.15638367208
-4.23087859613
-4.30536573226
-4.37984224869
-4.4543057406
-4.52875443313
-4.60318666182
-4.67760015225
-4.75199277211
-4.82636268409
-4.90070751657
-4.97502478484
-5.04931238565
-5.12356782208
-5.19778816884
-5.27197034208
-5.34611097188
-5.42020657746
-5.49425365202
-5.56824797051
-5.64218493676
-5.71606016194
-5.78986860842
-5.86360435776
-5.9372616444
-6.01083451198
-6.08431607237
-6.15769917107
-6.2309763925
-6.30413937524
-6.37717925802
-6.45008683997
-6.5228520223
-6.5954642542
-6.66791270208
-6.74018554449
-6.81227015487
-6.88415324826
-6.95582040044
-7.02725638093
-7.09844541661
-7.16937043479
-7.24001316341
-7.3103549418
-7.38037611193
-7.45005542405
-7.51937055917
-7.58829815204
-7.65681326863
-7.72488968496
-7.79250011648
-7.85961592228
-7.92620715727
-7.99224233824
-8.05768802261
-8.1225094999
-8.18667113621
-8.25013517039
-8.31286147372
-8.37480873812
-8.43593432196
-8.49619342614
-8.55553938385
-8.61392368871
-8.67129583581
-8.72760377879
-8.7827935592
-8.83680892757
-8.88959207973
-8.94108325738
-8.99121990236
-9.03993749549
-9.08717000513
-9.13284918338
-9.17690521466
-9.21926660745
-9.25985887493
-9.29860565477
-9.33542946474
-9.37025057675
-9.40298722437
-9.43355614825
-9.46187233056
-9.48784923162
-9.51139901135
-9.53243156144
-9.55085514874
-9.5665776804
-9.57950503256
-9.58954163743
-9.59659207218
-9.6005594186
-9.60134486238
-9.59884936045
-9.59297404849
-9.58361936374
-9.5706848376
-9.55406918737
-9.53367049167
-9.50938707535
-9.48111724686
-9.44875828924
-9.41220760184
-9.37136296802
-9.32612027642
-9.276374554
-9.22202116256
-9.16295264841
-9.0990596837
-9.03023132431
-8.95635162071
-8.87729845034
-8.79294463678
-8.70315409262
-8.60777729735
-8.50665072907
-8.39958946565
-8.2863824422
-8.16678450126
-8.04049948929
-7.90716507999
-7.76632892824
-7.61740251242
-7.45958813841
-7.29175731843
-7.1122341652
-6.91847625222
-6.70659304565
-6.47073415939
-6.21146232885
-5.99547424376
0.299978053023
-0.882377930262
-1.49105261182
-1.84507604088
-2.087693396
-2.25825611766
-2.38632639223
-2.49082776484
-2.58190183493
-2.66517879674
-2.74395056307
-2.82016686345
-2.89498713147
-2.96909968691
-3.0429059943
-3.11663261002
-3.19039938236
-3.26426198755
-3.3382390743
-3.41232893589
-3.48652000874
-3.56079593442
-3.63514002026
-3.70953677526
-3.78397236566
-3.85843532027
-3.93291636221
-4.00740793014
-4.08190406197
-4.1564001179
-4.23089223661
-4.30537712597
-4.37985203131
-4.45431436172
-4.52876211516
-4.60319381569
-4.67760725558
-4.75199994326
-4.82636999289
-4.90071525761
-4.9750331126
-5.04932130636
-5.12357748863
-5.19779862784
-5.27198169109
-5.34612332401
-5.4202199056
-5.49426798995
-5.56826359767
-5.6422019111
-5.7160783467
-5.78988818722
-5.8636256211
-5.93728460517
-6.01085921357
-6.08434271476
-6.15772790348
-6.23100737676
-6.30417274035
-6.37721501051
-6.4501251518
-6.52289327256
-6.59550860424
-6.66796020917
-6.74023638488
-6.81232453165
-6.88421151937
-6.95588297814
-7.02732331222
-7.09851665096
-7.16944630652
-7.24009411665
-7.31044120572
-7.38046801868
-7.45015344011
-7.51947499614
-7.58840916215
-7.65693098606
-7.72501441532
-7.79263250082
-7.85975655912
-7.92635623369
-7.99240006808
-8.05785491629
-8.12268598716
-8.18685754936
-8.25033202199
-8.31306925694
-8.3750278546
-8.43616529999
-8.49643673596
-8.55579541146
-8.61419304198
-8.67157905197
-8.72790115111
-8.7831056728
-8.83713658597
-8.88993581132
-8.94144344495
-8.99159688537
-9.04033160355
-9.0875820716
-9.13328015128
-9.17735531861
-9.21973607919
-9.26034849073
-9.29911596127
-9.33596076113
-9.37080341266
-9.4035621875
-9.43415361419
-9.46249272973
-9.48849260169
-9.5120653997
-9.53312168876
-9.55156950455
-9.56731643683
-9.58026881067
-9.590330964
-9.59740715931
-9.60140083345
-9.60221328079
-9.59974508731
-9.59389746789
-9.58457009304
-9.57166255691
-9.55507481195
-9.53470482666
-9.51045157046
-9.48221464276
-9.44989174043
-9.4133801709
-9.37257910425
-9.32738620323
-9.27769738438
-9.22341026416
-9.16442039027
-9.10062046033
-9.03190256761
-8.95815623623
-8.87926535304
-8.79510924097
-8.70556119405
-8.61048359856
-8.50972813141
-8.40312913411
-8.29050018776
-8.17163136925
-8.04627577602
-7.91413832953
-7.77486589151
-7.62802459939
-7.47307132447
-7.30932944027
-7.13596471305
-6.95205710481
-6.75687008702
-6.54970967576
-6.33111450597
-6.12446512506
-0.675864265233
-1.15723274158
-1.54849300692
-1.84010813896
-2.06168202988
-2.22961760614
-2.36171795292
-2.47150523303
-2.56736240778
-2.65450554767
-2.7362465901
-2.81468039783
-2.89112719621
-2.9664168107
-3.04106515618
-3.11538718661
-3.18956997949
-3.26371974672
-3.33789244369
-3.41211363048
-3.48639120165
-3.56072306244
-3.63510228729
-3.70952050939
-3.78396874682
-3.85843860008
-3.93292296245
-4.00741585195
-4.08191222104
-4.15640786947
-4.23089918617
-4.30538311155
-4.37985726145
-4.4543192499
-4.52876676009
-4.60319814894
-4.67761146741
-4.75200415913
-4.82637410311
-4.90071933768
-4.97503737231
-5.04932575326
-5.12358208207
-5.19780344346
-5.27198681408
-5.34612893323
-5.42022601885
-5.49427451933
-5.56827063198
-5.64220964964
-5.71608666186
-5.78989699799
-5.86363514747
-5.93729495479
-6.01087035913
-6.08435473544
-6.15774082977
-6.23102121958
-6.30418763869
-6.37723101593
-6.45014222336
-6.52291161905
-6.59552849333
-6.66798168972
-6.74025946917
-6.81234921388
-6.8842378514
-6.95591121757
-7.0273536025
-7.0985489113
-7.16948065343
-7.2401308616
-7.31048039969
-7.38050964143
-7.4501977099
-7.51952210401
-7.5884591506
-7.65698396259
-7.72507057605
-7.79269211611
-7.85981990235
-7.92642334532
-7.99247094694
-8.0579298884
-8.12276535039
-8.18694126097
-8.25042016425
-8.31316221927
-8.37512592026
-8.43626863075
-8.49654554628
-8.55590988863
-8.61431343319
-8.67170565778
-8.72803411588
-8.78324520584
-8.83728307374
-8.89008938515
-8.94160401993
-8.99176456305
-9.0405064553
-9.08776422634
-9.13347007174
-9.17755319015
-9.2199417862
-9.26056235565
-9.29933841256
-9.33619186123
-9.37104322117
-9.40381102422
-9.4344122496
-9.46276189428
-9.48877253917
-9.51235600959
-9.53342356476
-9.55188330548
-9.5676422871
-9.58060733168
-9.59068303133
-9.59777306185
-9.60178100333
-9.60260877544
-9.60015685391
-9.59432680487
-9.58501954905
-9.57213437465
-9.5555708712
-9.53522764158
-9.51100368074
-9.48279890011
-9.45051206773
-9.41404107992
-9.37328560558
-9.3281448432
-9.27851606944
-9.224298556
-9.16539079548
-9.10168825366
-9.0330857436
-8.95947751347
-8.88075360074
-8.79679963023
-8.70749764252
-8.61272135209
-8.51233689108
-8.40619845504
-8.29414377338
-8.17599402656
-8.05154683116
-7.92056982188
-7.78279661573
-7.63792107886
-7.48559612478
-7.32544699388
-7.1571127253
-6.98037793459
-6.79549386388
-6.60334516522
-6.4054671216
-6.21094577278
-1.22732529887
-1.41367060626
-1.65611990757
-1.87858726626
-2.06577771299
-2.21980529997
-2.3482414278
-2.45853068458
-2.55632382737
-2.64568239849
-2.72945239679
-2.80957848254
-2.88736804003
-2.96369023015
-3.03911539613
-3.1140117868
-3.18861284808
-3.26306307613
-3.33744881703
-3.41181906628
-3.48619944641
-3.56060114997
-3.63502746016
-3.70947643
-3.78394449683
-3.85842674164
-3.93291856775
-4.00741579414
-4.08191451852
-4.15641130065
-4.23090299736
-4.30538677118
-4.37986056789
-4.45432240734
-4.52876988269
-4.60320108456
-4.67761424047
-4.75200694108
-4.82637687866
-4.90072209273
-4.97504020738
-5.04932869174
-5.12358516615
-5.19780675236
-5.27199031469
-5.34613269234
-5.42023011726
-5.49427871833
-5.56827491594
-5.64221429002
-5.71609168974
-5.78990230242
-5.86364086711
-5.93730119053
-6.01087704374
-6.08436194438
-6.15774860317
-6.23102948051
-6.30419654159
-6.37724074563
-6.45015274478
-6.52292292646
-6.59554071288
-6.66799491065
-6.74027383456
-6.81236475915
-6.88425430096
-6.95592853244
-7.02737214301
-7.09856874675
-7.1695017615
-7.24015345441
-7.31050459223
-7.38053530714
-7.45022480825
-7.51955070619
-7.58848937898
-7.65701608974
-7.72510479285
-7.79272840298
-7.85985831737
-7.92646398583
-7.99251379494
-8.05797511697
-8.12281324061
-8.18699177851
-8.25047328638
-8.31321826818
-8.37518510668
-8.43633094306
-8.49661115401
-8.55597902531
-8.6143862512
-8.67178243763
-8.72811507981
-8.78333040973
-8.83737267103
-8.89018342351
-8.94170247637
-8.99186778009
-9.04061479035
-9.08787756365
-9.1335886403
-9.17767756314
-9.2200720524
-9.26069865147
-9.29948123541
-9.33634151887
-9.37119982809
-9.40397460857
-9.43458259061
-9.46293918435
-9.48895723809
-9.51254818366
-9.53362341516
-9.55209144959
-9.56785889962
-9.5808325955
-9.59091762792
-9.59801753197
-9.60203565885
-9.60287434922
-9.60043432531
-9.59461721108
-9.58532403926
-9.57245394242
-9.55590706851
-9.53558337214
-9.51138177925
-9.48320202475
-9.45094446677
-9.41450830341
-9.37379360045
-9.32870128837
-9.27913050016
-9.22498191253
-9.16615688406
-9.10255445706
-9.03407269798
-8.96061023228
-8.88206367844
-8.798326202
-8.70928858723
-8.61483560692
-8.51484821718
-8.40920075294
-8.29775586301
-8.18036591413
-8.05687122738
-7.92709814536
-7.79085813798
-7.64795401456
-7.49819126361
-7.34140046534
-7.17748989194
-7.00654286957
-6.82898979459
-6.64567556499
-6.45765906828
-6.26818012918
-1.56467114236
-1.61643269969
-1.76032945634
-1.92462252069
-2.07895478145
-2.21701230964
-2.33916494206
-2.4479520033
-2.54639471439
-2.63722345304
-2.72263009618
-2.80426756092
-2.88333749542
-2.96069159362
-3.03692150073
-3.11243063577
-3.1874893439
-3.26227583243
-3.33690510594
-3.41144924547
-3.48595208532
-3.56043904108
-3.63492370032
-3.70941178797
-3.78390579372
-3.85840492131
-3.93290744981
-4.00741127256
-4.08191385045
-4.15641270308
-4.23090547043
-4.30538970984
-4.37986352878
-4.45432529247
-4.52877276801
-4.60320387242
-4.67761688472
-4.75200959699
-4.82637961589
-4.90072485279
-4.97504301862
-5.0493316162
-5.12358826027
-5.19781008256
-5.27199384875
-5.34613645086
-5.42023427163
-5.49428328129
-5.56827975581
-5.64221943808
-5.71609732277
-5.78990839521
-5.8636474573
-5.93730834281
-6.01088467863
-6.08437011942
-6.15775745312
-6.23103892315
-6.30420657337
-6.37725155702
-6.45016443153
-6.52293552692
-6.59555432828
-6.66800961336
-6.74028972762
-6.81238198454
-6.88427277872
-6.95594815023
-7.02739310543
-7.09859125452
-7.16952575923
-7.24017904942
-7.31053196806
-7.38056442282
-7.45025560875
-7.51958325261
-7.58852381302
-7.65705268793
-7.72514374012
-7.79276962057
-7.85990190609
-7.92651021882
-7.99256266569
-8.05802666079
-8.12286781891
-8.18704948532
-8.25053398982
-8.31328220916
-8.37525259464
-8.43640204056
-8.49668595726
-8.55605766062
-8.61446885042
-8.67186933202
-8.72820654978
-8.78342642605
-8.83747316703
-8.89028837199
-8.94181176368
-8.99198159465
-9.0407334603
-9.08800093637
-9.13371666185
-9.17781064769
-9.22021031593
-9.26084198361
-9.29962980424
-9.33649553166
-9.37135952477
-9.40414043249
-9.43475458179
-9.46311726016
-9.48914197223
-9.51273995603
-9.53382225919
-9.55229785662
-9.56807326222
-9.58105500222
-9.591148675
-9.59825789116
-9.60228579692
-9.60313520431
-9.60070717116
-9.59490306403
-9.58562411178
-9.57276971823
-9.5562405656
-9.53593744098
-9.51175936079
-9.48360618636
-9.4513796233
-9.41498013876
-9.37430850882
-9.32926746494
-9.27975813255
-9.22568272984
-9.16694530113
-9.10344875638
-9.03509497353
-8.96178678042
-8.88342704377
-8.79991683642
-8.71115649241
-8.6170425192
-8.51746973126
-8.41233067978
-8.30151185136
-8.1848959562
-8.06236183482
-7.93378569357
-7.79904485896
-7.6580247225
-7.5106350593
-7.35683425987
-7.1966654099
-7.03030849269
-6.85813765464
-6.68066307083
-6.49822602388
-6.31132535923
-1.7687456062
-1.76376523795
-1.8477416416
-1.96853110833
-2.09517328754
-2.21785268142
-2.33274862695
-2.43894361649
-2.53722541575
-2.62901331707
-2.71577336823
-2.79878810122
-2.87909230288
-2.9574793822
-3.03453719034
-3.1106901062
-3.18623795469
-3.2613890412
-3.33628568947
-3.41102296137
-3.48566328127
-3.56024683634
-3.63479812033
-3.70933213955
-3.78385664217
-3.8583759501
-3.93289156442
-4.00740365192
-4.08191120225
-4.15641278486
-4.23090703989
-4.30539213617
-4.37986624649
-4.45432797481
-4.52877543515
-4.60320649954
-4.67761941163
-4.75201212538
-4.82638216519
-4.90072735405
-4.97504556659
-5.0493343066
-5.12359106791
-5.19781304897
-5.27199696338
-5.3461396183
-5.42023758402
-5.49428682539
-5.56828339841
-5.64222330484
-5.71610153936
-5.78991289537
-5.8636521998
-5.93731341775
-6.01089015432
-6.08437606148
-6.15776397509
-6.23104600304
-6.30421410241
-6.3772596297
-6.45017320981
-6.52294510346
-6.59556479728
-6.66802093331
-6.74030184909
-6.81239507169
-6.88428687539
-6.955963101
-7.02740901396
-7.09860837921
-7.16954406101
-7.24019842573
-7.31055252095
-7.38058622827
-7.45027867536
-7.5196076485
-7.58854960987
-7.65708002027
-7.72517272365
-7.79280018189
-7.85993408771
-7.92654438302
-7.99259896298
-8.05806492142
-8.12290812321
-8.18709212688
-8.25057901149
-8.31332956465
-8.37530240132
-8.43645451603
-8.49674141225
-8.55611627351
-8.61453058542
-8.67193438819
-8.72827529921
-8.7834988829
-8.83754920057
-8.89036804816
-8.94189510309
-8.99206873338
-9.04082487247
-9.08809682318
-9.13381689997
-9.17791549331
-9.22032013547
-9.26095673852
-9.29974942051
-9.33662015689
-9.3714895985
-9.40427650681
-9.43489665897
-9.4632650036
-9.48929586378
-9.51290059474
-9.53398960221
-9.55247224404
-9.56825513584
-9.58124452265
-9.59134647941
-9.59846494886
-9.60250258115
-9.60336264493
-9.60094673231
-9.59515554564
-9.58589071366
-9.57305260399
-9.55654178047
-9.53625938548
-9.51210538379
-9.48398012578
-9.45178609032
-9.41542492711
-9.37479810151
-9.32981002344
-9.28036440451
-9.22636493925
-9.16771756668
-9.10432906507
-9.03610570268
-8.96295446564
-8.8847838348
-8.80150211641
-8.71301854927
-8.619240769
-8.52007677627
-8.41543533141
-8.3052232555
-8.18934983551
-8.06772558718
-7.94026516911
-7.80689440225
-7.6675557597
-7.52222332868
-7.37091874632
-7.21373082927
-7.05083982781
-6.88250657657
-6.70897825763
-6.53020785257
-6.34579341336
-1.89187435112
-1.86641651829
-1.9157761756
-2.00593633791
-2.11086031406
-2.22018211841
-2.32801822159
-2.43124077591
-2.52891349778
-2.62130287482
-2.70917358768
-2.7934172232
-2.87487272703
-2.95425110495
-3.03211925861
-3.10891152538
-3.18495071333
-3.26047137471
-3.33564100246
-3.41057676429
-3.48535923254
-3.56004317692
-3.63466446794
-3.70924637761
-3.78380298431
-3.85834375616
-3.93287341684
-4.00739442116
-4.08190744087
-4.15641214383
-4.23090808568
-4.30539414691
-4.37986867194
-4.4543304071
-4.52877783416
-4.60320887992
-4.67762170181
-4.75201436308
-4.82638440161
-4.90072955711
-4.97504779726
-5.04933663576
-5.12359346725
-5.19781555876
-5.27199958748
-5.34614222954
-5.42024028565
-5.49428984491
-5.56828667742
-5.64222674787
-5.71610528607
-5.78991689608
-5.86365635401
-5.93731790962
-6.01089514509
-6.0843814431
-6.15776978162
-6.23105223179
-6.30422067558
-6.37726662775
-6.45018080098
-6.52295337557
-6.59557389078
-6.66803090239
-6.74031253821
-6.81240649922
-6.88429922031
-6.95597633098
-7.02742311801
-7.09862359309
-7.16956040597
-7.24021567829
-7.31057069089
-7.38060549055
-7.45029916929
-7.5196294866
-7.58857273975
-7.65710432234
-7.72519835004
-7.79282730344
-7.8599627006
-7.92657467471
-7.99263119487
-8.05809901247
-8.12294401589
-8.18713005057
-8.25061904828
-8.31337164099
-8.37534660317
-8.43650101476
-8.49679045025
-8.55616807256
-8.61458507695
-8.67199151431
-8.72833527828
-8.78356177285
-8.83761487883
-8.89043663484
-8.9419666669
-8.99214317719
-9.04090249632
-9.08817797249
-9.13390142605
-9.17800339073
-9.22041173506
-9.26105209895
-9.29984856173
-9.33672339681
-9.37159724863
-9.40438881433
-9.43501383454
-9.46338687798
-9.48942261984
-9.51303291649
-9.53412769883
-9.55261621443
-9.56840548795
-9.58140165995
-9.59151094938
-9.59863762913
-9.60268408384
-9.60355360042
-9.60114852409
-9.59536942539
-9.58611806382
-9.57329553716
-9.55680227948
-9.5365396862
-9.51240900353
-9.48431117684
-9.45214914591
-9.41582585833
-9.37524354802
-9.3303078431
-9.28092493309
-9.22700046593
-9.16844217808
-9.10515992851
-9.03706409034
-8.96406616181
-8.88608006002
-8.80302013121
-8.71480302745
-8.62134690786
-8.52257142472
-8.41839863115
-8.3087532003
-8.19356532973
-8.07276934727
-7.94630949885
-7.81414601923
-7.67625589709
-7.53264841338
-7.3833735949
-7.22852775623
-7.06826080136
-6.90274447213
-6.73209519313
-6.55619126388
-6.3746038069
-1.96591583924
-1.93486534805
-1.9647954489
-2.03456836999
-2.12373590585
-2.22261206285
-2.3244905634
-2.42496187464
-2.52188752436
-2.61463292966
-2.70336951561
-2.78863566974
-2.87108100342
-2.9513292061
-3.02991840327
-3.10728519347
-3.18376914249
-3.25962628145
-3.33504557498
-3.41016359459
-3.4850770156
-3.55985355175
-3.63453951719
-3.70916612694
-3.78375246513
-3.85831321796
-3.93285598829
-4.00738531419
-4.08190352277
-4.15641131493
-4.2309088748
-4.30539578132
-4.37987074387
-4.45433254568
-4.52877991613
-4.60321095038
-4.6776236669
-4.75201617364
-4.8263861854
-4.90073138618
-4.97504968832
-5.04933861797
-5.12359547898
-5.19781757735
-5.27200166218
-5.34614432807
-5.4202424454
-5.49429223897
-5.56828927711
-5.64222940171
-5.71610807308
-5.78991988827
-5.86365947347
-5.93732126045
-6.01089885028
-6.08438557023
-6.15777430664
-6.23105711456
-6.30422579237
-6.37727205671
-6.45018671773
-6.5229598648
-6.59558102963
-6.6680387516
-6.74032098856
-6.81241548326
-6.88430891032
-6.95598679575
-7.02743429637
-7.09863557361
-7.16957320484
-7.24022914368
-7.3105848451
-7.38062051331
-7.45031518324
-7.51964656095
-7.5885907569
-7.65712310079
-7.7252180684
-7.79284823501
-7.85998477547
-7.92659791523
-7.99265591173
-8.05812525935
-8.12297167439
-8.18715923473
-8.2506498472
-8.31340406699
-8.37538080058
-8.43653705942
-8.49682839754
-8.5562081556
-8.61462739711
-8.67203596488
-8.7283818534
-8.78361051626
-8.83766578757
-8.89048987146
-8.94202242654
-8.99220137166
-9.04096319968
-9.08824149209
-9.13396773958
-9.17807242249
-9.2204836607
-9.26112703847
-9.29992673009
-9.33680516617
-9.37168250227
-9.40447736651
-9.43510610945
-9.463483192
-9.48952308159
-9.5131379312
-9.53423734647
-9.55273049591
-9.56852510344
-9.58152731641
-9.59164302483
-9.59877686906
-9.60283108951
-9.60370889707
-9.60131344991
-9.59554548036
-9.5863065464
-9.57349835392
-9.55702162222
-9.53677802356
-9.51266984408
-9.48459851627
-9.4524671476
-9.41618027388
-9.3756414769
-9.33075687434
-9.28143433538
-9.22758216024
-9.16911022001
-9.10593066993
-9.03795767039
-8.96510694014
-8.88729698007
-8.80444789406
-8.7164832419
-8.62332955085
-8.52491635483
-8.42117798951
-8.31205247984
-8.19748606895
-8.07743333067
-7.95185976382
-7.82074689373
-7.68409573532
-7.54193661439
-7.39433192421
-7.24137763935
-7.08320336075
-6.91994849345
-6.75170992663
-6.57845384369
-6.40000984169
-2.008148159
-1.97658435791
-1.9962283535
-2.05367462266
-2.13268735386
-2.22446527893
-2.32208221449
-2.42046896371
-2.51674969765
-2.60968285951
-2.69901496793
-2.78501878365
-2.86819490716
-2.94909453126
-3.02822902295
-3.10603328601
-3.18285752073
-3.25897304953
-3.33458461323
-3.40984329784
-3.4848579891
-3.55970615594
-3.63444193433
-3.70910198144
-3.7837128013
-3.85828927778
-3.9328422286
-4.0073780374
-4.0819003417
-4.15641065541
-4.23090950385
-4.30539700826
-4.37987233013
-4.45433422661
-4.52878153841
-4.60321256785
-4.67762520409
-4.7520175323
-4.82638749684
-4.90073276391
-4.97505113859
-5.04934017023
-5.12359704013
-5.19781903936
-5.27200316346
-5.34614596747
-5.42024411982
-5.49429400067
-5.56829120564
-5.64223134451
-5.71611001876
-5.7899220079
-5.86366178313
-5.93732375662
-6.01090166581
-6.08438870971
-6.15777772018
-6.2310607756
-6.30422961351
-6.37727606148
-6.45019110429
-6.52296469655
-6.59558632217
-6.66804458255
-6.74032731865
-6.81242221006
-6.88431619534
-6.95599480488
-7.02744287713
-7.09864456395
-7.16958265397
-7.24023915164
-7.31059553888
-7.38063197267
-7.45032732164
-7.5196593546
-7.58860425507
-7.65713721119
-7.72523279985
-7.79286379127
-7.86000114757
-7.92661505013
-7.99267413038
-8.05814482434
-8.12299242379
-8.1871810099
-8.25067267981
-8.31342807809
-8.37540623403
-8.43656395329
-8.4968565299
-8.5562376314
-8.61465851272
-8.67206866487
-8.72841600091
-8.78364607663
-8.83770270178
-8.89052834299
-8.94206284595
-8.99224368754
-9.04100718865
-9.0882873902
-9.13401585658
-9.17812266111
-9.22053589495
-9.26118144962
-9.29998362426
-9.33686479022
-9.37174470675
-9.40454189416
-9.43517338566
-9.46355370579
-9.48959687974
-9.51321529523
-9.53431835194
-9.55281502801
-9.56861393119
-9.58162150207
-9.59174265428
-9.59888213221
-9.60294295989
-9.60382823391
-9.60144136339
-9.59568346859
-9.58645594214
-9.57366097699
-9.5571998254
-9.53697418341
-9.5128872169
-9.48484127541
-9.4527393929
-9.41648719228
-9.37599004693
-9.33115475666
-9.2818904652
-9.22810787264
-9.1697190691
-9.10663838613
-9.03878319252
-8.96607311064
-8.88843075889
-8.80578144013
-8.71805509493
-8.62518533099
-8.52710961591
-8.42377265066
-8.31512500638
-8.20112525995
-8.08174215165
-7.95695828817
-7.82677341369
-7.69120500757
-7.55029741279
-7.40412472523
-7.25279207747
-7.09643281419
-6.935197536
-6.76923272775
-6.59865388828
-6.4235790525
-2.02739595814
-1.99630050119
-2.01152310183
-2.06319094542
-2.13724798503
-2.22544858751
-2.32085192841
-2.41811990303
-2.5140312084
-2.60704143241
-2.69667654318
-2.78306714507
-2.86663182582
-2.94788076345
-3.02730942568
-3.10535072326
-3.18235989051
-3.25861618202
-3.33433264038
-3.40966808409
-3.48473810069
-3.55962545322
-3.63438859986
-3.70906785119
-3.78369111604
-3.85827608123
-3.93283466294
-4.00737406385
-4.08189859324
-4.15641032768
-4.23090995193
-4.30539776649
-4.37987330155
-4.45433532324
-4.52878257907
-4.60321355367
-4.67762616664
-4.7520184225
-4.8263883714
-4.90073367355
-4.97505206883
-5.04934116478
-5.12359804954
-5.19781994238
-5.27200411429
-5.34614710562
-5.42024525258
-5.49429508178
-5.56829241954
-5.64223262956
-5.71611124637
-5.78992330152
-5.86366320924
-5.93732533732
-6.01090354143
-6.08439082598
-6.15777991419
-6.23106308725
-6.30423210525
-6.37727869252
-6.45019398794
-6.52296793126
-6.59558979155
-6.66804833077
-6.74033146529
-6.81242673643
-6.88432113623
-6.9560002554
-7.02744869006
-7.09865051951
-7.16958879804
-7.24024565147
-7.31060255701
-7.38063961284
-7.4503354455
-7.51966779889
-7.58861313926
-7.65714655881
-7.72524242689
-7.79287376148
-7.86001166349
-7.92662612687
-7.99268585841
-8.05815741259
-8.1230058569
-8.18719517279
-8.25068751718
-8.31344354483
-8.3754225144
-8.4365812747
-8.49687472631
-8.55625654492
-8.61467830073
-8.67208933256
-8.7284374034
-8.78366828118
-8.83772576347
-8.89055233124
-8.94208805205
-8.99227014302
-9.04103464832
-9.08831596318
-9.13404582431
-9.17815403444
-9.22056863021
-9.26121560699
-9.30001925201
-9.33690193295
-9.37178350867
-9.40458235721
-9.43521575127
-9.46359838589
-9.48964387182
-9.51326459212
-9.53437028672
-9.55286987055
-9.56867216894
-9.58168380659
-9.59180915434
-9.59895297839
-9.60301944203
-9.60391145583
-9.60153202112
-9.59578289698
-9.58656573017
-9.57378295926
-9.55733638241
-9.53712763309
-9.51306037081
-9.48503838151
-9.45296498344
-9.41674614131
-9.37628880632
-9.33150102937
-9.28229307506
-9.22857766548
-9.17026925048
-9.1072841182
-9.03954262457
-8.96696805072
-8.88948640928
-8.80702811623
-8.71952925809
-8.62692912959
-8.52917248496
-8.42621399235
-8.31801331084
-8.20454009758
-8.08577748584
-7.96172078676
-7.8323839993
-7.69780160551
-7.55803290743
-7.41317046991
-7.26333517153
-7.10868574322
-6.9494151561
-6.78574741774
-6.61794842144
-6.44636890439
-2.02739539933
-1.99630031547
-2.01152292775
-2.0631905054
-2.13724765288
-2.22544833321
-2.32085169633
-2.41811983068
-2.51403128196
-2.60704165043
-2.69667693706
-2.78306766535
-2.86663232746
-2.94788114284
-3.02730969365
-3.10535093795
-3.18236009526
-3.25861644947
-3.33433296515
-3.40966838001
-3.48473835723
-3.55962563338
-3.63438860649
-3.70906771151
-3.78369095852
-3.85827600181
-3.93283472301
-4.00737419464
-4.08189866007
-4.15641041517
-4.23091015304
-4.30539798393
-4.3798735599
-4.45433572905
-4.52878303276
-4.60321394325
-4.67762652233
-4.75201874207
-4.82638867744
-4.90073404665
-4.97505246213
-5.049341559
-5.12359849416
-5.19782038943
-5.27200454262
-5.34614761111
-5.42024580813
-5.49429556709
-5.56829293153
-5.6422332303
-5.71611182515
-5.78992382577
-5.86366373891
-5.93732598111
-6.01090446035
-6.08439196775
-6.15778099595
-6.23106406084
-6.30423314192
-6.37727988437
-6.45019539543
-6.52296953247
-6.59559144959
-6.66805008657
-6.74033353011
-6.8124290985
-6.884323679
-6.95600301118
-7.02745159284
-7.09865340675
-7.16959169345
-7.24024867363
-7.31060582549
-7.38064329171
-7.45033949535
-7.51967200853
-7.58861747059
-7.65715100404
-7.72524682431
-7.79287819778
-7.86001644545
-7.92663127495
-7.99269126625
-8.05816315751
-8.12301195751
-8.1872015657
-8.25069420936
-8.31345044943
-8.37542961014
-8.43658881863
-8.49688279677
-8.55626488291
-8.6146867254
-8.6720977971
-8.72844599165
-8.78367725476
-8.83773517571
-8.89056195014
-8.94209797387
-8.99228065279
-9.04104565445
-9.08832736128
-9.13405774226
-9.178166556
-9.2205817442
-9.2612293186
-9.30003344474
-9.33691662655
-9.37179898844
-9.40459879504
-9.43523327157
-9.46361722407
-9.48966387523
-9.51328569835
-9.53439306833
-9.552894947
-9.56869966449
-9.58171386923
-9.59184217415
-9.59898958667
-9.60306069651
-9.60395826789
-9.60158520606
-9.59584388149
-9.58663601653
-9.57386405385
-9.5574306922
-9.5372379283
-9.51318933221
-9.48518978014
-9.45314356532
-9.41695703518
-9.37653832468
-9.3317968236
-9.28264395109
-9.22899424031
-9.17076426678
-9.10787261305
-9.04024260124
-8.96780061765
-8.89047635439
-8.80820460179
-8.72092678052
-8.62858937725
-8.53114364463
-8.42855154655
-8.32078318837
-8.20781876193
-8.08965276285
-7.96629406879
-7.83777250857
-7.7041398156
-7.56547338475
-7.42188563197
-7.27352798215
-7.12059423114
-6.96333135925
-6.80204567287
-6.63712436967
-6.4690770691
-2.00814645683
-1.97658379735
-1.99622784301
-2.05367336402
-2.13268630271
-2.22446450654
-2.32208153625
-2.42046874273
-2.51674995036
-2.60968354535
-2.69901610108
-2.78502025158
-2.86819629025
-2.94909561513
-3.0282299034
-3.10603404551
-3.18285819208
-3.25897382321
-3.33458552118
-3.40984416285
-3.4848587631
-3.55970666757
-3.63444194993
-3.70910164134
-3.78371240826
-3.85828904314
-3.93284231447
-4.00737832549
-4.08190055161
-4.15641097725
-4.23091010979
-4.30539766377
-4.37987314423
-4.45433543014
-4.5287828554
-4.60321377576
-4.67762632778
-4.75201845859
-4.8263883413
-4.90073381335
-4.9750523011
-5.04934138652
-5.12359841362
-5.19782037746
-5.27200444156
-5.34614749836
-5.42024578087
-5.4942955209
-5.56829282655
-5.64223316113
-5.71611171662
-5.78992359566
-5.86366345424
-5.93732569716
-6.0109042634
-6.08439193283
-6.15778094687
-6.23106386846
-6.30423291974
-6.3772796925
-6.45019523798
-6.52296943521
-6.59559136224
-6.66804998701
-6.74033354703
-6.81242922584
-6.88432377641
-6.95600305738
-7.02745155848
-7.09865317035
-7.16959130033
-7.24024827347
-7.31060545646
-7.3806430348
-7.45033943065
-7.51967195406
-7.5886172382
-7.65715059642
-7.72524618714
-7.79287730301
-7.86001549399
-7.92663036033
-7.99269026496
-8.05816204572
-8.12301073362
-8.18720016048
-8.2506926728
-8.31344876908
-8.37542766886
-8.4365866984
-8.49688055648
-8.55626229584
-8.61468365031
-8.67209424748
-8.72844198792
-8.78367300612
-8.83773082971
-8.89055725635
-8.94209282728
-8.99227532511
-9.04104018779
-9.08832157462
-9.13405158089
-9.17816012408
-9.22057511297
-9.26122247603
-9.30002627848
-9.33690910435
-9.37179135695
-9.40459108159
-9.43522545245
-9.46360970461
-9.48965683859
-9.51327894191
-9.53438696696
-9.55289009245
-9.5686959431
-9.58171140284
-9.59184180482
-9.59899201252
-9.60306656763
-9.60396843481
-9.60160064138
-9.59586608344
-9.58666663708
-9.57390435884
-9.55748272193
-9.53730490713
-9.51327420875
-9.48529593938
-9.45327580127
-9.41712066265
-9.37673957933
-9.33204360613
-9.28294549121
-9.22936104068
-9.17120891463
-9.10841028663
-9.04089110841
-8.96858114181
-8.89141411179
-8.80932953121
-8.72227367521
-8.63019860152
-8.53306399556
-8.4308400777
-8.32350499926
-8.21105004919
-8.09348314562
-7.97082690222
-7.8431273422
-7.71045310379
-7.57290645703
-7.4306241313
-7.28378830827
-7.13263400055
-6.97746097008
-6.81864525839
-6.65665958774
-6.49210628753
-1.96591320523
-1.93486448365
-1.9647945123
-2.03456646849
-2.12373421669
-2.22261072543
-2.32448946173
-2.42496149147
-2.5218879283
-2.61463408537
-2.70337131837
-2.78863790178
-2.87108310578
-2.95133097518
-3.02991998054
-3.10728658512
-3.18377035152
-3.25962757744
-3.33504701093
-3.41016501101
-3.48507829921
-3.55985430979
-3.63453949855
-3.70916564791
-3.78375194146
-3.85831286034
-3.93285599576
-4.00738561057
-4.08190386059
-4.15641188954
-4.23090982899
-4.30539693806
-4.37987225525
-4.45433453319