/*--------------------------------*- C++ -*----------------------------------*\
| =========                 |                                                 |
| \\      /  F ield         | OpenFOAM: The Open Source CFD Toolbox           |
|  \\    /   O peration     | Version:  2106                                  |
|   \\  /    A nd           | Website:  www.openfoam.com                      |
|    \\/     M anipulation  |                                                 |
\*---------------------------------------------------------------------------*/
FoamFile
{
    version     2.0;
    format      ascii;
    arch        "LSB;label=32;scalar=64";
    class       volVectorField;
    location    "0.14";
    object      U;
}
// * * * * * * * * * * * * * * * * * * * * * * * * * * * * * * * * * * * * * //

dimensions      [0 1 -1 0 0 0 0];

internalField   nonuniform List<vector> 
9600
(
(0.675396183622 0.15767743477 0)
(0.56382616102 0.10243080489 0)
(0.381538934698 0.0510646936824 0)
(0.283853194872 0.0244589888925 0)
(0.232281035317 0.0119348224957 0)
(0.201907713485 0.00623035835692 0)
(0.183178409225 0.0035219270597 0)
(0.171271987488 0.00212007575812 0)
(0.163512241035 0.00132523605245 0)
(0.158392659621 0.000841456629245 0)
(0.155010697823 0.00053413568506 0)
(0.152789981141 0.000335039505617 0)
(0.151348696041 0.000205521019406 0)
(0.15042925193 0.000121792003665 0)
(0.149856469236 6.84336911531e-05 0)
(0.149511140305 3.51721451501e-05 0)
(0.149312542235 1.50841012067e-05 0)
(0.149206508833 3.49973742736e-06 0)
(0.149157152164 -2.71246740181e-06 0)
(0.149141075174 -5.61894167522e-06 0)
(0.149143400405 -6.5368792164e-06 0)
(0.149154848438 -6.42961064865e-06 0)
(0.149169848877 -5.79588598762e-06 0)
(0.149185291011 -4.94417002012e-06 0)
(0.149199540635 -4.06039928911e-06 0)
(0.149211875976 -3.24306470268e-06 0)
(0.149222107413 -2.53558158152e-06 0)
(0.149230333545 -1.94977718928e-06 0)
(0.149236789941 -1.48038446184e-06 0)
(0.149241758381 -1.1135314176e-06 0)
(0.14924551847 -8.32815226685e-07 0)
(0.149248323182 -6.22217909067e-07 0)
(0.1492503876 -4.66641154967e-07 0)
(0.149251888926 -3.53323100879e-07 0)
(0.149252969224 -2.72086913534e-07 0)
(0.149253737346 -2.13948768593e-07 0)
(0.149254276307 -1.72060334396e-07 0)
(0.149254650053 -1.42157402684e-07 0)
(0.149254904884 -1.20375822307e-07 0)
(0.149255074486 -1.03498197476e-07 0)
(0.149255185464 -9.02923392744e-08 0)
(0.14925525681 -8.00887790063e-08 0)
(0.149255301498 -7.32255860435e-08 0)
(0.149255327595 -7.253814271e-08 0)
(0.149255340227 -7.46843720374e-08 0)
(0.149255344286 -7.8219577986e-08 0)
(0.14925534421 -8.40840066299e-08 0)
(0.149255341876 -9.21635547544e-08 0)
(0.14925533714 -1.00336491295e-07 0)
(0.149255331937 -1.08562877054e-07 0)
(0.149255327601 -1.17905695786e-07 0)
(0.149255322202 -1.27855545154e-07 0)
(0.149255315327 -1.38009352152e-07 0)
(0.149255308618 -1.48988327379e-07 0)
(0.149255301944 -1.60809395992e-07 0)
(0.149255295258 -1.73387815973e-07 0)
(0.14925528951 -1.86833848522e-07 0)
(0.149255284064 -2.00687948622e-07 0)
(0.149255278507 -2.15193332471e-07 0)
(0.149255273437 -2.31292705992e-07 0)
(0.149255267712 -2.48576195085e-07 0)
(0.149255260819 -2.66423558319e-07 0)
(0.149255254737 -2.85668735543e-07 0)
(0.149255249823 -3.06662296553e-07 0)
(0.149255245094 -3.28947637886e-07 0)
(0.149255241247 -3.52817198976e-07 0)
(0.149255238121 -3.78083897349e-07 0)
(0.149255234329 -4.04084715749e-07 0)
(0.149255230276 -4.3145962993e-07 0)
(0.149255226155 -4.60907401772e-07 0)
(0.149255220891 -4.92054902254e-07 0)
(0.149255215328 -5.24936074073e-07 0)
(0.149255210723 -5.59871182201e-07 0)
(0.14925520629 -5.96520810029e-07 0)
(0.149255201849 -6.34992244164e-07 0)
(0.149255197779 -6.75543953647e-07 0)
(0.149255192706 -7.1772192112e-07 0)
(0.149255186034 -7.61961105238e-07 0)
(0.149255179061 -8.09319138855e-07 0)
(0.149255171952 -8.59094951817e-07 0)
(0.149255164629 -9.10417913939e-07 0)
(0.14925515802 -9.64376896888e-07 0)
(0.149255151128 -1.02151934037e-06 0)
(0.149255142835 -1.08105630181e-06 0)
(0.14925513541 -1.14311527436e-06 0)
(0.149255130019 -1.20804078132e-06 0)
(0.149255124486 -1.27546049143e-06 0)
(0.149255118321 -1.34555818322e-06 0)
(0.149255112917 -1.418570351e-06 0)
(0.149255108413 -1.49416131212e-06 0)
(0.149255104857 -1.57274956567e-06 0)
(0.149255101967 -1.65471905778e-06 0)
(0.149255098407 -1.73918041022e-06 0)
(0.149255095321 -1.82621415864e-06 0)
(0.149255094825 -1.9169294638e-06 0)
(0.14925509601 -2.01088599858e-06 0)
(0.149255099087 -2.10721435088e-06 0)
(0.149255106162 -2.2057874059e-06 0)
(0.149255116123 -2.30624921476e-06 0)
(0.149255127964 -2.40890657773e-06 0)
(0.149255143812 -2.51429773604e-06 0)
(0.149255164696 -2.62114676656e-06 0)
(0.149255192094 -2.72891740708e-06 0)
(0.149255230055 -2.83943522249e-06 0)
(0.149255279586 -2.95268035671e-06 0)
(0.149255340864 -3.06731743074e-06 0)
(0.149255419166 -3.18444377753e-06 0)
(0.149255519345 -3.30513127949e-06 0)
(0.149255644331 -3.43005399313e-06 0)
(0.149255799971 -3.56409765038e-06 0)
(0.149255995437 -3.71534514308e-06 0)
(0.149256240557 -3.87875190512e-06 0)
(0.149256547992 -4.05264499471e-06 0)
(0.149256931734 -4.23745550154e-06 0)
(0.149257406735 -4.43195108228e-06 0)
(0.149257996431 -4.63673853987e-06 0)
(0.14925872911 -4.8535603445e-06 0)
(0.149259636585 -5.08356568046e-06 0)
(0.149260763157 -5.3294752527e-06 0)
(0.149262162035 -5.5935765143e-06 0)
(0.149263892764 -5.87698803695e-06 0)
(0.149266034145 -6.18503852368e-06 0)
(0.149268692916 -6.5301046651e-06 0)
(0.149272013583 -6.94860468026e-06 0)
(0.1492761443 -7.53647837481e-06 0)
(0.149281235042 -8.31643646181e-06 0)
(0.149287508786 -9.23448686186e-06 0)
(0.149295269075 -1.02742764902e-05 0)
(0.149304881668 -1.14433656932e-05 0)
(0.149316788075 -1.27547486392e-05 0)
(0.149331533892 -1.4229438196e-05 0)
(0.149349800072 -1.58984975447e-05 0)
(0.14937242511 -1.77966024451e-05 0)
(0.149400448161 -1.9967669406e-05 0)
(0.149435165053 -2.24697168044e-05 0)
(0.149478181037 -2.53712822048e-05 0)
(0.149531490365 -2.87588301045e-05 0)
(0.149597577371 -3.27478414046e-05 0)
(0.149679527565 -3.74828076483e-05 0)
(0.149781182177 -4.31423082924e-05 0)
(0.149907343892 -4.99558109265e-05 0)
(0.150064017577 -5.82161854575e-05 0)
(0.150258719895 -6.82947586762e-05 0)
(0.150500902288 -8.06683816751e-05 0)
(0.150802489893 -9.59512709105e-05 0)
(0.151178589198 -0.000114940255069 0)
(0.15164844911 -0.000138675956511 0)
(0.152236748978 -0.000168519509147 0)
(0.15297539808 -0.00020627087528 0)
(0.153906092568 -0.000254332916404 0)
(0.155084013969 -0.000315943556186 0)
(0.156583523077 -0.000395626513881 0)
(0.15850772077 -0.000500425541545 0)
(0.161007430338 -0.000644370364101 0)
(0.164326145077 -0.000865834819072 0)
(0.168912593285 -0.00129202323237 0)
(0.175766001789 -0.00237571593897 0)
(0.187857367337 -0.00581378124994 0)
(0.2143341907 -0.01812106632 0)
(0.272993630271 -0.0638589853305 0)
(0.977201173915 0.296997120877 0)
(0.962687463904 0.250387268631 0)
(0.820646035483 0.158581011475 0)
(0.697824901089 0.0957993469699 0)
(0.610491672467 0.0579132759147 0)
(0.549133318546 0.0359038524025 0)
(0.506705987694 0.0229309379792 0)
(0.47766202091 0.0149788808049 0)
(0.457815298651 0.00990973352631 0)
(0.444277673731 0.00658331055113 0)
(0.435087224864 0.00436198736796 0)
(0.428895556243 0.00286682594342 0)
(0.42476804377 0.00185971764138 0)
(0.422054244418 0.00118456630757 0)
(0.42030107819 0.000736100518909 0)
(0.419193729808 0.000442142774971 0)
(0.418514697545 0.000252834803772 0)
(0.418114973509 0.000133703820051 0)
(0.41789358494 6.10056448839e-05 0)
(0.41778303224 1.85181706071e-05 0)
(0.417738886869 -4.70756491685e-06 0)
(0.417732485261 -1.60969269924e-05 0)
(0.417745861034 -2.04079169946e-05 0)
(0.417768067478 -2.07245742353e-05 0)
(0.417792721157 -1.89834228009e-05 0)
(0.417816358821 -1.63592193652e-05 0)
(0.417837316877 -1.35296621514e-05 0)
(0.41785499835 -1.08570675388e-05 0)
(0.417869403037 -8.51075700749e-06 0)
(0.417880831371 -6.54575495303e-06 0)
(0.417889708203 -4.9545567528e-06 0)
(0.417896483353 -3.69930032164e-06 0)
(0.417901576525 -2.72879958191e-06 0)
(0.417905353886 -1.99034854565e-06 0)
(0.417908122378 -1.4368504408e-06 0)
(0.417910127997 -1.02669046677e-06 0)
(0.417911562671 -7.24977479012e-07 0)
(0.417912576673 -5.05702532732e-07 0)
(0.417913284056 -3.48109373293e-07 0)
(0.417913768649 -2.34907469276e-07 0)
(0.417914094391 -1.54516510151e-07 0)
(0.417914308516 -9.89394249027e-08 0)
(0.417914442889 -6.18516288705e-08 0)
(0.417914523005 -4.05011033579e-08 0)
(0.41791456787 -2.88623345944e-08 0)
(0.417914587523 -2.20270286152e-08 0)
(0.417914591403 -1.78492886085e-08 0)
(0.417914587991 -1.55392480235e-08 0)
(0.417914579926 -1.46830068953e-08 0)
(0.417914568407 -1.44628980635e-08 0)
(0.417914556243 -1.61467413639e-08 0)
(0.417914543464 -1.87280810781e-08 0)
(0.41791452924 -2.08667083584e-08 0)
(0.417914514997 -2.34719969583e-08 0)
(0.417914501136 -2.66807847612e-08 0)
(0.417914487517 -3.00089579479e-08 0)
(0.41791447532 -3.38238064448e-08 0)
(0.41791446366 -3.74510606768e-08 0)
(0.417914450882 -4.04210970651e-08 0)
(0.417914438121 -4.40609140615e-08 0)
(0.417914425593 -4.81537191533e-08 0)
(0.417914411735 -5.12551101815e-08 0)
(0.417914397485 -5.4327289584e-08 0)
(0.41791438399 -5.81922879832e-08 0)
(0.417914370238 -6.16850474587e-08 0)
(0.417914356683 -6.48290987628e-08 0)
(0.41791434405 -6.80513394239e-08 0)
(0.417914330571 -7.06938730471e-08 0)
(0.417914315685 -7.36095775839e-08 0)
(0.417914300334 -7.78845852353e-08 0)
(0.417914283848 -8.25468491152e-08 0)
(0.417914266352 -8.71569778427e-08 0)
(0.41791424929 -9.24991397961e-08 0)
(0.417914232067 -9.7880236949e-08 0)
(0.417914214223 -1.02899089614e-07 0)
(0.417914196834 -1.08705286933e-07 0)
(0.417914178482 -1.152435497e-07 0)
(0.41791415718 -1.21985302406e-07 0)
(0.417914134923 -1.29538473434e-07 0)
(0.417914113473 -1.37059914585e-07 0)
(0.417914091407 -1.43319634937e-07 0)
(0.417914068577 -1.50127089728e-07 0)
(0.417914045577 -1.58703241635e-07 0)
(0.417914021597 -1.67388016099e-07 0)
(0.417913997798 -1.76010456496e-07 0)
(0.417913975683 -1.85667463832e-07 0)
(0.417913953537 -1.95746884356e-07 0)
(0.417913930809 -2.06000910324e-07 0)
(0.417913909607 -2.16933318863e-07 0)
(0.417913889992 -2.28044804789e-07 0)
(0.417913871222 -2.39948691546e-07 0)
(0.417913854039 -2.53793452495e-07 0)
(0.417913837914 -2.67906064606e-07 0)
(0.41791382319 -2.81598348474e-07 0)
(0.417913812729 -2.97272439304e-07 0)
(0.417913807084 -3.14763834245e-07 0)
(0.417913806457 -3.32241756707e-07 0)
(0.417913813662 -3.5098234817e-07 0)
(0.417913828943 -3.73174339479e-07 0)
(0.417913852151 -4.00616174529e-07 0)
(0.417913887829 -4.3355357061e-07 0)
(0.417913939245 -4.7038906881e-07 0)
(0.41791400763 -5.09747160681e-07 0)
(0.417914099662 -5.54726526298e-07 0)
(0.41791422248 -6.06963800453e-07 0)
(0.41791437947 -6.64365528951e-07 0)
(0.417914578855 -7.28281522856e-07 0)
(0.41791483221 -8.0112073188e-07 0)
(0.41791514748 -8.8120204195e-07 0)
(0.417915533779 -9.64911700591e-07 0)
(0.417916021361 -1.0435254201e-06 0)
(0.417916643372 -1.1257435737e-06 0)
(0.417917426701 -1.22124376666e-06 0)
(0.417918407855 -1.33742295236e-06 0)
(0.417919630066 -1.47642899509e-06 0)
(0.417921150036 -1.64401928615e-06 0)
(0.417923039579 -1.85000381775e-06 0)
(0.417925383785 -2.10249608561e-06 0)
(0.417928293075 -2.41454991551e-06 0)
(0.417931905168 -2.80432037415e-06 0)
(0.417936380706 -3.28902945242e-06 0)
(0.417941919555 -3.893130019e-06 0)
(0.417948770744 -4.65438890274e-06 0)
(0.417957225155 -5.63057335405e-06 0)
(0.417967679256 -6.93303417614e-06 0)
(0.41798067314 -8.64191780905e-06 0)
(0.417996824264 -1.07958695295e-05 0)
(0.418016859339 -1.34723158937e-05 0)
(0.418041699646 -1.67871361071e-05 0)
(0.41807248749 -2.08854834078e-05 0)
(0.418110634122 -2.59493270591e-05 0)
(0.418157899323 -3.22099412388e-05 0)
(0.418216461221 -3.99485867298e-05 0)
(0.418289014773 -4.95125956095e-05 0)
(0.418378914356 -6.13383878364e-05 0)
(0.418490321988 -7.59620647374e-05 0)
(0.418628398453 -9.40479559721e-05 0)
(0.418799566301 -0.000116434917033 0)
(0.419011820248 -0.000144172948529 0)
(0.419275112317 -0.000178570934257 0)
(0.419601864225 -0.000221279812914 0)
(0.420007609125 -0.000274391813814 0)
(0.42051180138 -0.000340559518374 0)
(0.421138890744 -0.000423171713731 0)
(0.421919718003 -0.000526591589053 0)
(0.422893355179 -0.000656481054092 0)
(0.424109602998 -0.000820273904119 0)
(0.425632388046 -0.00102785198007 0)
(0.427544543392 -0.00129257065844 0)
(0.429954764583 -0.00163290027721 0)
(0.433008068549 -0.00207519324685 0)
(0.436902427234 -0.00265886289633 0)
(0.441916920583 -0.00344728237965 0)
(0.448463319334 -0.00455385591742 0)
(0.457187741477 -0.00621120454492 0)
(0.469165587176 -0.00896264734195 0)
(0.486267048941 -0.0141950556752 0)
(0.512087664295 -0.0256821442228 0)
(0.553686392193 -0.0540349916829 0)
(0.615896530606 -0.125416174216 0)
(1.03387038817 0.239240961882 0)
(1.08314082005 0.293634378683 0)
(1.03294437936 0.239131933445 0)
(0.954408211984 0.174539019368 0)
(0.880112588332 0.121551463886 0)
(0.818677618014 0.0832335950654 0)
(0.771466792883 0.0568258151448 0)
(0.736691571069 0.0388125762443 0)
(0.71167209675 0.026491321023 0)
(0.693953123546 0.0180235785171 0)
(0.681568197843 0.0121876197126 0)
(0.673018600493 0.0081664990183 0)
(0.66719224011 0.00540555512705 0)
(0.663277772658 0.00352224230908 0)
(0.660690358487 0.00224957861593 0)
(0.659012819705 0.00139997781695 0)
(0.65795066433 0.000841384164104 0)
(0.657298283338 0.000481025035516 0)
(0.65691383578 0.000254065861071 0)
(0.656700768136 0.000115548677737 0)
(0.656594312517 3.45980055533e-05 0)
(0.656551780748 -9.70122974451e-06 0)
(0.656545650544 -3.12825032148e-05 0)
(0.656558592131 -3.9382412323e-05 0)
(0.656580046851 -3.98869855287e-05 0)
(0.656603866156 -3.64866335646e-05 0)
(0.656626711652 -3.14181113555e-05 0)
(0.656646978688 -2.59695436646e-05 0)
(0.656664090637 -2.082933662e-05 0)
(0.656678043944 -1.63177508708e-05 0)
(0.65668912512 -1.25383533315e-05 0)
(0.656697742855 -9.47632915066e-06 0)
(0.656704329119 -7.05723167709e-06 0)
(0.656709286897 -5.18288141577e-06 0)
(0.656712969647 -3.75477905465e-06 0)
(0.656715671983 -2.6828759689e-06 0)
(0.656717629439 -1.88784957928e-06 0)
(0.656719029233 -1.30517245995e-06 0)
(0.656720017703 -8.84081573507e-07 0)
(0.656720704631 -5.83115087616e-07 0)
(0.656721173291 -3.70601749924e-07 0)
(0.656721487161 -2.23781886182e-07 0)
(0.656721691403 -1.24159915299e-07 0)
(0.656721819159 -5.7301049552e-08 0)
(0.656721895495 -1.48678126039e-08 0)
(0.656721936935 1.12379225767e-08 0)
(0.65672195537 2.71033214591e-08 0)
(0.656721958713 3.53550217932e-08 0)
(0.656721951976 4.01412168671e-08 0)
(0.656721939204 4.43295058368e-08 0)
(0.656721924211 4.71217889061e-08 0)
(0.656721908707 4.81085637511e-08 0)
(0.656721891776 4.92186888548e-08 0)
(0.656721874334 5.05187924138e-08 0)
(0.656721857375 5.2068343489e-08 0)
(0.656721840582 5.50800585214e-08 0)
(0.656721824942 5.86752241602e-08 0)
(0.656721810391 6.23945780995e-08 0)
(0.656721794932 6.73081648654e-08 0)
(0.656721779118 7.28940635553e-08 0)
(0.656721764077 7.81258742041e-08 0)
(0.656721748157 8.42590145669e-08 0)
(0.656721731128 9.16717702966e-08 0)
(0.6567217146 9.91570190648e-08 0)
(0.656721698069 1.07139822665e-07 0)
(0.656721681105 1.15921782611e-07 0)
(0.656721664294 1.24375961312e-07 0)
(0.656721646201 1.33065668213e-07 0)
(0.656721626112 1.42990401274e-07 0)
(0.656721605686 1.53104630803e-07 0)
(0.656721584773 1.63739915265e-07 0)
(0.656721562443 1.75704937958e-07 0)
(0.656721539973 1.87938169381e-07 0)
(0.656721517594 2.00432043452e-07 0)
(0.656721494051 2.14277871073e-07 0)
(0.656721469865 2.28341763875e-07 0)
(0.656721445071 2.41824263981e-07 0)
(0.656721418295 2.56479136271e-07 0)
(0.656721390739 2.7295993456e-07 0)
(0.656721363918 2.90528874038e-07 0)
(0.656721335872 3.09516311554e-07 0)
(0.656721306004 3.29508376801e-07 0)
(0.656721276194 3.49514778089e-07 0)
(0.656721246081 3.70629241531e-07 0)
(0.656721215424 3.93337025682e-07 0)
(0.656721185786 4.16216598644e-07 0)
(0.656721156595 4.3964010345e-07 0)
(0.656721127218 4.64821047043e-07 0)
(0.656721099704 4.91303623631e-07 0)
(0.656721074072 5.18947481721e-07 0)
(0.656721048773 5.47801608253e-07 0)
(0.656721025538 5.76860476088e-07 0)
(0.656721005513 6.07029670457e-07 0)
(0.656720987846 6.39820848655e-07 0)
(0.656720974663 6.73418410858e-07 0)
(0.656720968187 7.06831097222e-07 0)
(0.6567209682 7.41556298183e-07 0)
(0.656720975809 7.76629238979e-07 0)
(0.656720992169 8.11486817492e-07 0)
(0.656721020315 8.49108082032e-07 0)
(0.656721067171 8.87218186962e-07 0)
(0.656721137676 9.22712147536e-07 0)
(0.656721233402 9.56752043576e-07 0)
(0.6567213612 9.88263398287e-07 0)
(0.656721532432 1.01284750159e-06 0)
(0.656721754727 1.02983014972e-06 0)
(0.656722038605 1.03799894121e-06 0)
(0.656722402481 1.03239432119e-06 0)
(0.65672286786 1.01030894232e-06 0)
(0.656723462717 9.72145306474e-07 0)
(0.656724209261 9.2203027665e-07 0)
(0.656725129919 8.46994820059e-07 0)
(0.656726270935 7.33588821084e-07 0)
(0.656727692217 5.66647916249e-07 0)
(0.656729459509 3.32949120783e-07 0)
(0.656731652518 1.4748811507e-08 0)
(0.65673437505 -4.1408759349e-07 0)
(0.656737751132 -9.80455316094e-07 0)
(0.656741934078 -1.71843845024e-06 0)
(0.656747119505 -2.67672262817e-06 0)
(0.656753543977 -3.91083480072e-06 0)
(0.656761497975 -5.48666262319e-06 0)
(0.656771351275 -7.49245187245e-06 0)
(0.656783556557 -1.00301912268e-05 0)
(0.656798665681 -1.32092689875e-05 0)
(0.656817371513 -1.72006860375e-05 0)
(0.656840532171 -2.22357985449e-05 0)
(0.656869208873 -2.85777705523e-05 0)
(0.65690472533 -3.65530081005e-05 0)
(0.656948716788 -4.65688645167e-05 0)
(0.657003200783 -5.91229906664e-05 0)
(0.657070686643 -7.48355900964e-05 0)
(0.65715428404 -9.44784092832e-05 0)
(0.657257839223 -0.000119003753379 0)
(0.657386133188 -0.000149598269721 0)
(0.657545102424 -0.000187738096667 0)
(0.657742106923 -0.00023525372684 0)
(0.657986295764 -0.000294431074523 0)
(0.658289055394 -0.000368132830579 0)
(0.658664554366 -0.000459939688447 0)
(0.659130453702 -0.000574350038483 0)
(0.659708815939 -0.000717048037862 0)
(0.660427246513 -0.0008952395295 0)
(0.661320378525 -0.00111811332889 0)
(0.662431810555 -0.00139747673655 0)
(0.663816645172 -0.00174862909665 0)
(0.665544897362 -0.00219162836841 0)
(0.667706116476 -0.00275314234482 0)
(0.670415798846 -0.00346925023437 0)
(0.673824566256 -0.00438993351804 0)
(0.678131678174 -0.00558665670464 0)
(0.683605695386 -0.00716602884804 0)
(0.690617188577 -0.0092963382933 0)
(0.699692121638 -0.012262708122 0)
(0.711600292384 -0.0165883402883 0)
(0.727486843521 -0.0233077343065 0)
(0.749006729461 -0.0345621227494 0)
(0.778411216748 -0.0548217255519 0)
(0.818087242596 -0.0932242465022 0)
(0.864248201364 -0.165458895497 0)
(1.03384128284 0.171306946859 0)
(1.10231585265 0.275556744901 0)
(1.11663621191 0.266312371785 0)
(1.09207925119 0.219892603684 0)
(1.05195420266 0.168210317717 0)
(1.01022221742 0.123615338303 0)
(0.973507719657 0.0888850634377 0)
(0.943885947126 0.0630494665105 0)
(0.921162799125 0.044260802275 0)
(0.904299823155 0.0307744370523 0)
(0.892086138773 0.0211830136804 0)
(0.883411243452 0.014417289914 0)
(0.877355083003 0.00968542239904 0)
(0.873196253842 0.00640755095122 0)
(0.87038812834 0.00416166415766 0)
(0.868526360822 0.00264223234763 0)
(0.867317457446 0.00162935036106 0)
(0.866551818199 0.000965852940147 0)
(0.866081988493 0.000540348755473 0)
(0.865805754674 0.000274644874082 0)
(0.865653331571 0.000114447270338 0)
(0.865577879973 2.25476981118e-05 0)
(0.865548477544 -2.61956506068e-05 0)
(0.865545179514 -4.85772108069e-05 0)
(0.865555494469 -5.55115971755e-05 0)
(0.86557178872 -5.39585041675e-05 0)
(0.865589636844 -4.82401510429e-05 0)
(0.865606651219 -4.093426194e-05 0)
(0.865621696496 -3.34943494607e-05 0)
(0.865634376188 -2.66696737728e-05 0)
(0.865644703916 -2.07821706618e-05 0)
(0.865652901819 -1.5908502833e-05 0)
(0.865659277178 -1.19939163174e-05 0)
(0.865664149817 -8.92087353494e-06 0)
(0.865667818338 -6.55302032117e-06 0)
(0.865670543954 -4.75806469774e-06 0)
(0.865672542284 -3.41555672653e-06 0)
(0.865673987854 -2.42287676503e-06 0)
(0.86567502057 -1.69765785126e-06 0)
(0.86567574766 -1.17363215213e-06 0)
(0.865676250557 -7.98597408206e-07 0)
(0.865676592302 -5.33798187688e-07 0)
(0.865676818719 -3.49491347999e-07 0)
(0.865676962806 -2.23101029378e-07 0)
(0.865677050274 -1.39338632945e-07 0)
(0.865677098677 -8.57224875784e-08 0)
(0.86567712013 -5.23884192841e-08 0)
(0.865677126903 -3.38255788017e-08 0)
(0.865677125741 -2.43535513639e-08 0)
(0.865677116566 -2.18548292442e-08 0)
(0.865677101756 -2.32083639096e-08 0)
(0.865677085028 -2.7073638757e-08 0)
(0.865677066866 -3.20974560966e-08 0)
(0.865677047823 -3.79648246095e-08 0)
(0.865677029402 -4.52703272123e-08 0)
(0.865677010784 -5.30132024847e-08 0)
(0.865676992046 -6.03188958313e-08 0)
(0.865676974023 -6.80727970703e-08 0)
(0.865676955009 -7.51760962896e-08 0)
(0.865676934657 -8.12507598127e-08 0)
(0.865676914695 -8.78290174579e-08 0)
(0.86567689438 -9.44865873153e-08 0)
(0.865676872459 -9.9988041107e-08 0)
(0.865676850035 -1.05309158037e-07 0)
(0.865676827217 -1.10866164093e-07 0)
(0.865676803394 -1.16300121963e-07 0)
(0.865676779687 -1.22815194086e-07 0)
(0.865676755951 -1.30476965753e-07 0)
(0.865676730327 -1.37829398114e-07 0)
(0.865676703344 -1.45509485111e-07 0)
(0.865676675699 -1.54014775857e-07 0)
(0.865676646209 -1.62399265786e-07 0)
(0.865676615619 -1.71551261866e-07 0)
(0.865676585029 -1.82544713248e-07 0)
(0.865676553202 -1.93978368147e-07 0)
(0.865676519929 -2.0566848022e-07 0)
(0.86567648607 -2.18791906997e-07 0)
(0.865676450716 -2.32107519451e-07 0)
(0.86567641391 -2.44848233015e-07 0)
(0.865676377104 -2.58765080042e-07 0)
(0.865676339075 -2.73656240862e-07 0)
(0.865676298846 -2.88388040427e-07 0)
(0.865676258445 -3.04126301295e-07 0)
(0.865676218068 -3.20823088013e-07 0)
(0.865676176692 -3.37486501946e-07 0)
(0.865676135712 -3.55882864971e-07 0)
(0.865676095668 -3.76803412789e-07 0)
(0.865676055863 -3.98421429052e-07 0)
(0.865676017719 -4.21351946613e-07 0)
(0.865675981573 -4.47080635729e-07 0)
(0.865675945812 -4.74679645398e-07 0)
(0.86567591227 -5.0409916205e-07 0)
(0.865675883215 -5.35990600643e-07 0)
(0.865675857476 -5.69601751267e-07 0)
(0.865675836209 -6.05912785031e-07 0)
(0.865675822724 -6.46953957605e-07 0)
(0.865675818092 -6.92796248106e-07 0)
(0.865675825068 -7.44329669781e-07 0)
(0.865675848406 -8.02318411145e-07 0)
(0.865675887973 -8.64043208083e-07 0)
(0.865675945288 -9.31645985804e-07 0)
(0.865676028704 -1.01019260054e-06 0)
(0.865676143676 -1.1001383483e-06 0)
(0.865676295957 -1.20126890808e-06 0)
(0.865676497495 -1.31910363294e-06 0)
(0.865676759512 -1.4582328211e-06 0)
(0.865677093704 -1.62139953456e-06 0)
(0.86567751887 -1.81566487562e-06 0)
(0.865678056824 -2.04997082929e-06 0)
(0.865678733839 -2.33603857384e-06 0)
(0.86567958488 -2.69537890265e-06 0)
(0.865680649972 -3.13805143401e-06 0)
(0.865681978231 -3.67727256224e-06 0)
(0.865683635124 -4.33627706149e-06 0)
(0.865685697696 -5.14316158782e-06 0)
(0.865688257416 -6.13121206386e-06 0)
(0.865691434941 -7.34654692475e-06 0)
(0.865695377942 -8.84381019706e-06 0)
(0.865700264478 -1.06867765052e-05 0)
(0.865706321211 -1.29601028002e-05 0)
(0.865713827581 -1.5768033328e-05 0)
(0.865723123204 -1.92345549942e-05 0)
(0.865734636768 -2.35201580411e-05 0)
(0.865748900678 -2.88300863378e-05 0)
(0.865766563352 -3.54121503217e-05 0)
(0.865788431601 -4.35707254149e-05 0)
(0.865815509885 -5.36771839956e-05 0)
(0.865849036407 -6.61847090172e-05 0)
(0.865890548233 -8.16664014833e-05 0)
(0.865941954155 -0.000100840022324 0)
(0.866005611518 -0.000124587734817 0)
(0.866084443646 -0.000154008220665 0)
(0.866182076927 -0.000190472505933 0)
(0.866302998955 -0.000235676723326 0)
(0.86645278007 -0.000291730808867 0)
(0.866638336248 -0.000361265738437 0)
(0.866868240858 -0.000447552900755 0)
(0.867153139183 -0.000554671501814 0)
(0.867506268992 -0.000687726061043 0)
(0.867944090024 -0.000853107916877 0)
(0.868487087534 -0.00105883882688 0)
(0.869160805271 -0.00131503321993 0)
(0.869997139119 -0.00163449730934 0)
(0.871035996749 -0.00203352800357 0)
(0.872327445753 -0.00253300648043 0)
(0.87393448833 -0.00315990425727 0)
(0.875936728629 -0.00394942495773 0)
(0.878435257332 -0.00494812388994 0)
(0.881559235009 -0.00621857695271 0)
(0.885474966614 -0.00784668681502 0)
(0.890398594435 -0.00995363274564 0)
(0.89661405891 -0.0127163764457 0)
(0.904498435634 -0.0164046989936 0)
(0.914556442888 -0.0214508574949 0)
(0.927462321943 -0.0285841341801 0)
(0.944087058375 -0.0390906638045 0)
(0.965421316387 -0.0552819225531 0)
(0.992215720908 -0.0812015505766 0)
(1.02387247457 -0.12333776197 0)
(1.05421422637 -0.189525781433 0)
(1.02388345948 0.119321984066 0)
(1.08875436788 0.231514422774 0)
(1.13660483612 0.25286893958 0)
(1.15406273224 0.228905048066 0)
(1.15000112991 0.188337387678 0)
(1.1353762417 0.146577294588 0)
(1.11757777993 0.110164824721 0)
(1.10059199939 0.0808376114138 0)
(1.08612241421 0.058250205069 0)
(1.07458762147 0.0413417875294 0)
(1.06578680247 0.0289362790201 0)
(1.05928157808 0.0199770059226 0)
(1.05459134797 0.0135949003626 0)
(1.05128030352 0.0091073747664 0)
(1.04898741722 0.00599304878793 0)
(1.04742913636 0.00386131612528 0)
(1.04639058335 0.00242396079431 0)
(1.04571317036 0.00147111174159 0)
(1.04528231084 0.000851830035659 0)
(1.04501671955 0.000458879711123 0)
(1.044859708 0.000217022496385 0)
(1.04477241125 7.41648747584e-05 0)
(1.04472858245 -5.28530467793e-06 0)
(1.04471089018 -4.5165498693e-05 0)
(1.04470815905 -6.13281931662e-05 0)
(1.04471329343 -6.39463999113e-05 0)
(1.04472196018 -5.9443437065e-05 0)
(1.04473163869 -5.17398177169e-05 0)
(1.04474095626 -4.3118896914e-05 0)
(1.04474924798 -3.48233531133e-05 0)
(1.04475626817 -2.74517793344e-05 0)
(1.04476200779 -2.12216787781e-05 0)
(1.0447665797 -1.61387067084e-05 0)
(1.04477014546 -1.20990582288e-05 0)
(1.04477287706 -8.95381567599e-06 0)
(1.04477493848 -6.54697315659e-06 0)
(1.04477647237 -4.73155465971e-06 0)
(1.04477759737 -3.37830659401e-06 0)
(1.04477841166 -2.3812096717e-06 0)
(1.04477899284 -1.65484300696e-06 0)
(1.04477940045 -1.13070653787e-06 0)
(1.04477968168 -7.567704188e-07 0)
(1.04477987166 -4.93488737935e-07 0)
(1.0447799952 -3.09998266955e-07 0)
(1.0447800725 -1.84444315304e-07 0)
(1.04478011865 -1.00570160802e-07 0)
(1.0447801425 -4.47674978618e-08 0)
(1.04478015099 -8.95519521707e-09 0)
(1.04478014822 1.01919515589e-08 0)
(1.04478013775 1.96874735658e-08 0)
(1.04478012429 2.37638766459e-08 0)
(1.04478010939 2.36147375479e-08 0)
(1.04478009195 2.0666717205e-08 0)
(1.04478007185 1.67793777992e-08 0)
(1.04478005093 1.30555733767e-08 0)
(1.04478003027 1.04052097718e-08 0)
(1.04478000987 8.77519705134e-09 0)
(1.04477999027 6.62215517119e-09 0)
(1.04477997052 4.34759049519e-09 0)
(1.04477994908 3.42156650521e-09 0)
(1.04477992724 3.23677146453e-09 0)
(1.04477990534 3.46542841426e-09 0)
(1.04477988197 5.20423361582e-09 0)
(1.04477985767 7.91371245695e-09 0)
(1.04477983307 1.07910504775e-08 0)
(1.04477980722 1.45041394302e-08 0)
(1.04477978041 1.84280485309e-08 0)
(1.044779753 2.15001902441e-08 0)
(1.04477972356 2.46083014599e-08 0)
(1.04477969238 2.81822623528e-08 0)
(1.04477966077 3.13188362154e-08 0)
(1.04477962746 3.45914561628e-08 0)
(1.044779592 3.79781594303e-08 0)
(1.04477955624 4.02773596252e-08 0)
(1.04477951986 4.24138956846e-08 0)
(1.04477948155 4.54740787751e-08 0)
(1.04477944219 4.83988359407e-08 0)
(1.04477940197 5.14318690979e-08 0)
(1.04477935989 5.55147288177e-08 0)
(1.04477931701 5.92988277161e-08 0)
(1.04477927341 6.27473284652e-08 0)
(1.04477922747 6.76658896928e-08 0)
(1.04477918059 7.3174675342e-08 0)
(1.04477913422 7.80949838432e-08 0)
(1.04477908643 8.35283773318e-08 0)
(1.04477903716 8.89960808131e-08 0)
(1.04477898877 9.33464910797e-08 0)
(1.04477894118 9.76715852318e-08 0)
(1.0447788939 1.01647577029e-07 0)
(1.0447788479 1.03948020566e-07 0)
(1.04477880293 1.06036470351e-07 0)
(1.0447787601 1.08340736272e-07 0)
(1.04477872158 1.08722972878e-07 0)
(1.04477868642 1.07196702804e-07 0)
(1.04477865489 1.03998534891e-07 0)
(1.04477863041 9.66860648414e-08 0)
(1.0447786143 8.38138815884e-08 0)
(1.04477860789 6.43620897413e-08 0)
(1.04477861575 3.49259079605e-08 0)
(1.04477864029 -6.93302263464e-09 0)
(1.04477868369 -6.11817238704e-08 0)
(1.04477875417 -1.32261887451e-07 0)
(1.04477885922 -2.24103493782e-07 0)
(1.04477900372 -3.38297964369e-07 0)
(1.04477919816 -4.81188388916e-07 0)
(1.04477945603 -6.61254577513e-07 0)
(1.04477979059 -8.84872605654e-07 0)
(1.04478022063 -1.16127181236e-06 0)
(1.04478076981 -1.50153737544e-06 0)
(1.04478146428 -1.9172591083e-06 0)
(1.04478233814 -2.42890467349e-06 0)
(1.04478343423 -3.06133499736e-06 0)
(1.04478480329 -3.84027379327e-06 0)
(1.0447865122 -4.80040056806e-06 0)
(1.0447886426 -5.98631033258e-06 0)
(1.04479128951 -7.44863008678e-06 0)
(1.04479457674 -9.25344856371e-06 0)
(1.04479865986 -1.14833054813e-05 0)
(1.04480372402 -1.42342757172e-05 0)
(1.0448100022 -1.76293371044e-05 0)
(1.04481778682 -2.18251913333e-05 0)
(1.04482743253 -2.7008633142e-05 0)
(1.04483938115 -3.3413485088e-05 0)
(1.04485418453 -4.13393607615e-05 0)
(1.04487251745 -5.11526301554e-05 0)
(1.04489521699 -6.33020296077e-05 0)
(1.04492332693 -7.8344306905e-05 0)
(1.04495813168 -9.69653669249e-05 0)
(1.04500122203 -0.000120015972638 0)
(1.04505457943 -0.000148554986925 0)
(1.0451206509 -0.000183891272898 0)
(1.04520246353 -0.000227650040404 0)
(1.04530377572 -0.000281854162854 0)
(1.04542923947 -0.000349009159622 0)
(1.04558461984 -0.000432227093597 0)
(1.04577707187 -0.000535386171901 0)
(1.04601546308 -0.000663312190909 0)
(1.04631078789 -0.000822014782252 0)
(1.04667669903 -0.00101900140649 0)
(1.04713015169 -0.00126366782693 0)
(1.0476922071 -0.00156779302362 0)
(1.04838905861 -0.00194619533861 0)
(1.04925331371 -0.00241759094145 0)
(1.05032561325 -0.00300572483572 0)
(1.0516566928 -0.00374090405243 0)
(1.05330999608 -0.004662091049 0)