/*--------------------------------*- C++ -*----------------------------------*\
| =========                 |                                                 |
| \\      /  F ield         | OpenFOAM: The Open Source CFD Toolbox           |
|  \\    /   O peration     | Version:  2106                                  |
|   \\  /    A nd           | Website:  www.openfoam.com                      |
|    \\/     M anipulation  |                                                 |
\*---------------------------------------------------------------------------*/
FoamFile
{
    version     2.0;
    format      ascii;
    arch        "LSB;label=32;scalar=64";
    class       volScalarField;
    location    "0.38";
    object      p;
}
// * * * * * * * * * * * * * * * * * * * * * * * * * * * * * * * * * * * * * //

dimensions      [0 2 -2 0 0 0 0];

internalField   nonuniform List<scalar> 
11200
(
150.117722911
147.189121219
146.07527087
145.547940447
145.180611773
144.885834547
144.624191876
144.375654369
144.131136623
143.886068882
143.637753954
143.384437153
143.124886522
142.858166555
142.583510472
142.300244928
142.007744155
141.705402185
141.392620195
141.06881
140.733347793
140.385584498
140.024861769
139.650511753
139.261848877
138.858171888
138.438764656
138.002896834
137.549824581
137.078791189
136.589027659
136.07975317
135.550175292
134.999490127
134.426883057
133.831529802
133.212596379
132.56923932
131.90060597
131.205834966
130.484056644
129.734393146
128.955958634
128.147859416
127.30919382
126.439051981
125.536515483
124.600656483
123.630536628
122.625205596
121.583698885
120.505034998
119.388211697
118.232201189
117.035943991
115.798341059
114.518243837
113.194441815
111.825646664
110.410472355
108.947410274
107.434797505
105.870776722
104.253247102
102.579798974
100.847627012
99.0534209203
97.1932207439
95.2622223372
93.25451095
91.1626973929
88.9774220104
86.6864860784
84.2737031003
81.7169869857
78.9846773051
76.029173676
72.777898499
69.0771204736
64.3138192769
148.324680907
146.966506939
146.175536012
145.675522532
145.284535362
144.960653972
144.676133892
144.411532447
144.156044994
143.903523028
143.650139197
143.393379919
143.131508201
142.863247649
142.587597914
142.303724248
142.010889296
141.708410245
141.395628639
141.071882588
140.736521835
140.388870836
140.028285874
139.654098805
139.265613642
138.862123404
138.442909123
138.007238626
137.554366783
137.083535904
136.593976001
136.084904673
135.555527643
135.005044613
134.432642959
133.837498464
133.218776813
132.57563447
131.907218826
131.2126686
130.49111427
129.741678204
128.963474863
128.155610984
127.317185495
126.447289259
125.545004797
124.609405491
123.639554523
122.63450347
121.593290206
120.514936189
119.398442877
118.242787059
117.046914933
115.809734533
114.530106049
113.206829812
111.838631014
110.424140547
108.961871297
107.450187887
105.887266777
104.271044651
102.599154094
100.868854643
99.0769308286
97.2195453208
95.2920587217
93.2887863377
91.2026592548
89.0247210835
86.743424229
84.3436327264
81.8049512771
79.0988714387
76.1845949967
73.004288284
69.4551625016
65.3423680062
147.329490696
146.675290456
146.12293531
145.685318433
145.313695734
144.991595183
144.702496413
144.432263366
144.17180089
143.915320021
143.658935734
143.399966342
143.136499851
142.867109366
142.590673891
142.306264879
142.013072745
141.710358904
141.397425049
141.073594291
140.738204516
140.390616091
140.030084977
139.655957513
139.267541628
138.864127782
138.444994696
138.009409109
137.556625579
137.085886633
136.596423163
136.087455099
135.558191485
135.007824829
134.435537368
133.840507395
133.221901695
132.578877209
131.910582193
131.216156246
130.494730686
129.745428816
128.967366194
128.159650851
127.321383311
126.451656356
125.549554831
124.614154968
123.644523448
122.63971612
121.598776137
120.520731412
119.404591314
118.249342312
117.053942417
115.817314119
114.538335314
113.215828127
111.848544705
110.43514912
108.974194452
107.464093728
105.903083047
104.28919379
102.62018871
100.893473859
99.1060076597
97.254191698
95.3337119419
93.3393299303
91.2645960764
89.1014476169
86.8397897536
84.4667067211
81.9654777748
79.3142431294
76.4850299536
73.4462243595
70.1618507636
66.6088911072
146.779729641
146.416348491
146.016451042
145.647461392
145.309845565
145.001743908
144.716381123
144.445677371
144.183305145
143.92463738
143.66625601
143.405629509
143.1408581
142.870474591
142.593302984
142.308360833
142.014791877
141.711819937
141.398717868
141.074785724
140.739332547
140.39166813
140.031151226
139.657058689
139.268679822
138.86530696
138.446218567
138.010680139
137.557945105
137.087254968
136.597839427
136.088916593
135.559693828
135.009369405
134.437133207
133.842159635
133.223616565
132.580661651
131.912442179
131.218098257
130.496761992
129.747557685
128.969602355
128.162005901
127.323871207
126.454293946
125.552362514
124.61715752
123.647751015
122.643205324
121.602571418
120.524886774
119.409172467
118.254429326
117.059633008
115.82372784
114.545618797
113.224161271
111.8581484
110.446294486
108.98721844
107.479421984
105.921244576
104.310826697
102.646067105
100.924567305
99.1435520477
97.2997693818
95.3893663467
93.4077331596
91.3493128714
89.2073760997
86.9736913491
84.6382168976
82.1888640782
79.6115351222
76.8914853899
74.019008833
70.9977052632
67.8647557104
146.445681914
146.21388663
145.912474802
145.601498483
145.29665974
145.004636996
144.725661828
144.456535822
144.193575241
143.933489869
143.673519261
143.411426022
143.145417691
142.874045275
142.596112168
142.310601474
142.016620625
141.713360437
141.40006559
141.076013463
140.740499152
140.392826309
140.03229856
139.65820531
139.269849428
138.866514626
138.447474124
138.011990995
137.55931732
137.088694048
136.599350939
136.090506757
135.5613694
135.011135494
134.438991089
133.844112456
133.225664977
132.582806643
131.914688004
131.220449634
130.499226108
129.750144059
128.972322972
128.164875528
127.326907891
126.457519597
125.555803637
124.62084625
123.651726286
122.647514204
121.607271526
120.530048381
119.414881226
118.260789681
117.066772182
115.83180019
114.554811198
113.23470152
111.870313672
110.460428075
109.003741986
107.498843998
105.944196629
104.338105295
102.678676443
100.963768257
99.1909332908
97.3573497374
95.4597381709
93.4942644914
91.4564320341
89.3409762539
87.1417888285
84.8519512009
82.4640427908
79.9710546163
77.3687905482
74.6616928398
71.8711218972
69.0477744923
146.242289702
146.066387862
145.825193729
145.557868789
145.280682705
145.004045178
144.732355977
144.465854414
144.203088817
143.942079037
143.680790144
143.417355111
143.15014854
142.87777969
142.599055762
142.312939137
142.018507839
141.714922515
141.401400432
141.077195792
140.741585174
140.393856679
140.033300889
139.659208069
139.270867655
138.867558928
138.448552451
138.013109234
137.560479838
137.089903957
136.600610364
136.091816972
135.562731091
135.012549483
134.440458821
133.845636401
133.227250711
132.58446153
131.916420194
131.22227098
130.501149352
129.752182704
128.974492629
128.167194418
127.329397595
126.460206274
125.558719068
124.624029068
123.655223536
122.651383534
121.611582339
120.534884809
119.420345426
118.267005819
117.073891578
115.840008783
114.564338847
113.245828973
111.883389323
110.475869548
109.0220541
107.520650807
105.970276076
104.369413753
102.716396846
101.009375651
99.2462793943
97.4247745479
95.542221276
93.5956338863
91.5816563148
89.496576962
87.3364295761
85.0972729988
82.7758223948
80.3707261033
77.8850517171
75.3309532219
72.7353783958
70.1454242205
146.11917324
145.963565862
145.75726477
145.520703692
145.265229737
145.001951541
144.73733949
144.473831764
144.211699007
143.950113313
143.687740635
143.423104496
143.15477519
142.881444272
142.601939671
142.315213901
142.020322106
141.716398511
141.402635112
141.078264003
140.742543344
140.394746693
140.034155199
139.660051319
139.271716186
138.868424102
138.449442778
138.014031019
137.561437845
137.090902077
136.601652106
136.092905799
135.563870695
135.013744311
134.441714519
133.846959548
133.228648328
132.585941444
131.917991111
131.223940852
130.502926074
129.754078001
128.976522701
128.169379664
127.33176317
126.4627827
125.56154328
124.627145798
123.658687003
122.655259303
121.615950104
120.539841638
119.426009582
118.273521382
117.081433825
115.848789716
114.574613757
113.257910384
111.897654102
110.492785331
109.042202738
107.544746348
105.999187036
104.404212293
102.758410389
101.060252213
99.3080735397
97.5000607097
95.6342441088
93.7085093871
91.7206423311
89.668436944
87.5499138405
85.3637403899
83.1099853427
80.791406132
78.4155514011
75.9980191879
73.5656845062
71.1579031435
146.045093921
145.895084093
145.708329307
145.492225176
145.252520642
144.999701049
144.741065542
144.480328745
144.218963096
143.957042126
143.693824953
143.428188178
143.158891352
142.884713331
142.604510711
142.317233747
142.021921019
141.717685262
141.403696959
141.079168944
140.743343237
140.395480479
140.034851708
139.660731356
139.272395694
138.869114029
138.450151294
138.014764234
137.562200502
137.091698088
136.60248499
136.093779001
135.564787815
135.0147092
134.442731207
133.848032551
133.229783027
132.587143658
131.919267619
131.225301366
130.50438654
129.755656471
128.978237929
128.171253974
127.333823559
126.465062022
125.564081537
124.629991572
123.661899252
122.658909687
121.620126275
120.544650008
119.431579271
118.280009221
117.089030724
115.857728901
114.58518138
113.270452881
111.912597188
110.510645227
109.063605753
107.570459227
106.030151273
104.441585139
102.803616472
101.115049926
99.374640074
97.5811011488
95.7331317757
93.8294670638
91.8689746854
89.8508247804
87.7747715103
85.6416270754
83.4540048126
81.2174379034
78.9419622827
76.6441822495
74.3487770106
72.0877535508
146.002817928
145.853370582
145.676955961
145.473219233
145.243688411
144.997982066
144.743624097
144.484987536
144.224282237
143.9621891
143.698392197
143.432033687
143.162022107
142.887208902
142.606477443
142.318779653
142.023143579
141.718666756
141.404503886
141.079853421
140.743945198
140.396029977
140.035371081
139.661237918
139.272899317
138.869624556
138.450675451
138.015306993
137.562765849
137.092289431
136.603105443
136.094431698
135.565476075
135.015436729
134.443502296
133.848852296
133.230657631
132.588081104
131.920278293
131.226397792
130.505580019
129.756961956
128.979675346
128.172847687
127.335603021
126.467062885
125.566347042
124.632574201
123.664862745
122.662331381
121.624099732
120.549288894
119.437021809
118.286423446
117.096620834
115.866742401
114.595918405
113.283279052
111.927956169
110.529081445
109.085783091
107.597187374
106.062418507
104.480599838
102.850858339
101.17233371
99.444195354
97.6656721462
95.8361011253
93.9550094763
92.0222423964
90.0381666975
88.0039773643
85.9221656626
83.7971778112
81.6363089024
79.4508086836
77.2570882074
75.0771910883
72.9372954617
145.983541868
145.833664363
145.661702418
145.46376851
145.239209113
144.997092165
144.744959137
144.487452134
144.227126582
143.964966524
143.700876654
143.43414125
143.163750787
142.888597877
142.607581971
142.319657
142.023846012
141.719238704
141.404981444
141.080265002
140.744312658
140.396369845
140.035695641
139.661556152
139.273218855
138.869950291
138.451011321
138.01565621
137.563131184
137.092673532
136.603510899
136.094861314
135.565933028
135.015924722
134.444025796
133.84941672
133.231269562
132.588748464
131.921010162
131.227204663
130.506476807
129.757965964
128.980807165
128.174132231
127.337070582
126.468750244
125.568298848
124.634844642
123.667517593
122.665450487
121.627780065
120.553648197
119.442203042
118.292600197
117.104003916
115.875587872
114.606538075
113.296052278
111.943342713
110.547640757
109.108194356
107.624276974
106.095192244
104.520282395
102.89894158
101.23063561
99.5149317171
97.7515434284
95.9403960508
94.0817272077
92.1762290555
90.2252707989
88.2311923006
86.1977469007
84.1306420961
82.038222588
79.9322113706
77.8283620977
75.7463643064
73.7081413817
145.983544834
145.833680807
145.661729801
145.463805107
145.239254154
144.997144802
144.745018447
144.48751728
144.227196858
143.965041341
143.700955533
143.43422381
143.16383674
142.888687023
142.607674183
142.31975222
142.023944251
141.719340041
141.40508602
141.080373019
140.744424395
140.396485662
140.035816002
139.661681619
139.273350168
138.870088214
138.451156785
138.015810353
137.563295372
137.09284928
136.603700184
136.09506653
135.566157096
135.016171185
134.444298966
133.849721831
133.231612936
132.589137806
131.921455021
131.227716944
130.507070541
129.758658206
128.981618712
128.175088369
127.338202027
126.470094278
125.569900715
124.636759266
123.669811647
122.668204902
121.631093048
120.557638917
119.447016121
118.298411135
117.111025631
115.88407854
114.616810441
113.308486579
111.958399904
110.565881663
109.13029763
107.651066031
106.127665855
104.559651233
102.946672198
101.288501592
99.5850722807
97.8365337281
96.0433315608
94.2063158671
92.3269152978
90.4074313737
88.4509775182
86.4621754503
84.4475405026
82.4159739688
80.3792614804
78.3524200541
76.3533517879
74.4011491736
146.002826877
145.853420283
145.677038706
145.473329762
145.243824373
144.99814074
144.74380266
144.485183501
144.224493497
143.962413899
143.698629107
143.432281576
143.162280121
142.887476443
142.606754136
142.319065329
142.023438285
141.718970728
141.404817545
141.080177384
140.744280294
140.396377273
140.035731917
139.661614004
139.273292775
138.870037663
138.451110956
138.015768214
137.56325676
137.092814829
136.603671144
136.095044766
135.566145149
135.016172325
134.444317291
133.849762429
133.231682059
132.589243126
131.9216059
131.227924759
130.50734912
129.759024422
128.982093109
128.175695904
127.338973005
126.471065488
125.57111681
124.638274452
123.671691711
122.670529681
121.633959393
120.561164296
119.451342991
118.303712187
117.11751029
115.892001118
114.626478972
113.320274667
111.972759564
110.583356634
109.151552803
107.676901566
106.15904693
104.597740767
102.992868428
101.344485761
99.652878832
97.9186326435
96.1426359742
94.3262641074
92.4714938384
90.5810084828
88.658784895
86.7100812404
84.7418885921
82.7633597608
80.7861676167
78.824716007
76.8957212904
75.0166230473
146.04510902
145.895168156
145.708469045
145.49241146
145.252749345
144.999967465
144.741364879
144.480656827
144.219316408
143.957417751
143.694220532
143.428601851
143.15932172
142.885159411
142.604971894
142.317709777
142.022411984
141.718191559
141.404219294
141.07970835
140.743901117
140.396058608
140.035452211
139.661357133
139.27304985
138.86980049
138.450874628
138.015529882
137.563015002
137.092569334
136.603422505
136.094794365
135.565895126
135.01592561
134.444077663
133.849534657
133.231472065
132.589058203
131.921454976
131.227818759
130.507301352
129.759051083
128.982213917
128.17593484
127.339359215
126.47163437
125.571911342
124.639346807
123.673105208
122.672361139
121.636301984
120.564131
119.455070727
118.308366799
117.123292767
115.899155166
114.635299377
113.331117971
111.98605665
110.599628815
109.1714251
107.70113291
106.188552185
104.633622806
103.036458939
101.397374836
99.7169251052
97.9959684998
96.2358256096
94.4383109933
92.6058794581
90.7417923119
88.8503579848
86.9371781726
85.0094711715
83.0764085353
81.1494307007
79.2424831489
77.3716974236
75.5539869405
146.119194827
145.963686397
145.757464539
145.520969098
145.265554553
145.002328863
144.737762433
144.47429442
144.212196448
143.950641485
143.688296278
143.423685061
143.15537876
142.8820695
142.602585733
142.315880457
142.021009272
141.717106822
141.403365523
141.079017901
140.743322624
140.39555383
140.034993247
139.660924045
139.272627928
138.869380189
138.450449485
138.015095793
137.562569634
137.092111692
136.602952657
136.094313265
135.565404529
135.015428066
134.443576554
133.849034299
133.230977862
132.58857687
131.920994786
131.227389891
130.506916257
129.758724929
128.981965154
128.175785889
127.339337335
126.471772684
125.572250082
124.639934816
123.674001765
122.673638153
121.638046632
120.566448999
119.45809015
118.312242739
117.128213076
115.905347327
114.643038423
113.340736197
111.997956717
110.614294559
109.189440965
107.723200132
106.215510966
104.666473469
103.076379512
101.445768094
99.7754740494
98.0666806806
96.3209993643
94.5405719668
92.72819648
90.887472562
89.0229814917
87.1404971118
85.2472483796
83.3522185394
81.4664866376
79.6036213037
77.7796323107
76.0119280066
146.242318393
146.066548521
145.825458677
145.558219047
145.281109461
145.004539016
144.732907775
144.466456495
144.203734865
143.942763905
143.68150973
143.41810623
143.150928809
142.87858744
142.599889973
142.313799378
142.019394208
141.715835578
141.402341199
141.078165679
140.742585952
140.39489076
140.034373239
139.660324995
139.272034132
138.868780987
138.449837648
138.014466621
137.56192032
137.091440837
136.602259954
136.093599312
135.564670725
135.014676589
134.442810401
133.848257327
133.230194864
132.58779377
131.92021889
131.2266302
130.506183876
129.75803351
128.981331428
128.175230246
127.338884573
126.471452928
125.572099902
124.639998579
123.674333295
122.674302743
121.639123328
120.56803361
119.460298703
118.315215676
117.132120136
115.910393809
114.649472581
113.34885747
112.008126285
110.626948391
109.205101663
107.742492999
106.239183855
104.695420792
103.111670512
101.488661616
99.8274372888
98.1294189546
96.3964813402
94.6310374938
92.8361423442
91.0156129421
89.1741727116
87.3176120853
85.4529920311
83.5889057378
81.7358672407
79.9069566793
78.1182044317
76.3882836767
146.445718332
146.214092214
145.912811354
145.601940538
145.297195211
145.005253532
144.726347919
144.457282024
144.194373918
143.934334884
143.674405776
143.412350323
143.146377044
142.87503783
142.597136883
142.311658049
142.017709393
141.714482227
141.401221539
141.077205042
140.741728416
140.394094961
140.03360921
139.659571865
139.271276271
138.868007819
138.449042038
138.013643895
137.561067587
137.090556516
136.601343462
136.092650886
135.563691345
135.013667966
134.441775017
133.84719856
133.229117099
132.586702488
131.9191208
131.225533343
130.505097843
129.75696992
128.980304522
128.174257452
127.337987215
126.470657066
125.571437315
124.639507923
123.674061492
122.674306838
121.639472424
120.568811541
119.461607076
118.317177623
117.134884504
115.914140432
114.654417804
113.35526167
112.016302954
110.637274221
109.218028788
107.758563122
106.259043481
104.71983759
103.141551924
101.525075991
99.8716332634
98.1828401548
96.4607754168
94.7080567875
92.9279259052
91.1243403443
89.3020741378
87.466824107
85.6253416148
83.7856206616
81.9572826389
80.1524819111
78.386734056
76.6798941681
146.779773729
146.416602596
146.016861639
145.647995561
145.310487252
145.002477341
144.717192298
144.446555131
144.184240631
143.92562358
143.66728747
143.406702108
143.141968901
142.871621756
142.594485765
142.309579595
142.016048142
141.713116352
141.40005773
141.076173344
140.740777571
140.39318686
140.032717136
139.658675661
139.270362174
138.867066344
138.448066799
138.012630785
137.560014037
137.089461002
136.600205257
136.091469912
135.562468028
135.012403145
134.440469959
133.845855166
133.227738216
132.585291941
131.917683582
131.224076111
130.503629264
129.755500244
128.978846158
128.172825453
127.336599781
126.469336189
125.570209625
124.638405716
123.673123928
122.673581612
121.639016932
120.568695252
119.461913825
118.31800881
117.136362502
115.916412865
114.65766438
113.359699299
112.022192373
110.644928418
109.227822561
107.770943945
106.274543725
104.739087996
103.165295984
101.554184347
99.9071179482
98.2258667293
96.512668339
94.770294953
93.0021222918
91.2121968182
89.4052946525
87.5869671686
85.7635786863
83.942346349
82.1315728807
80.341639871
78.5857631315
76.8825960949
147.329547169
146.675607152
146.12342989
145.685949968
145.314444469
144.992442049
144.703425176
144.433261394
144.172858262
143.916428904
143.660089991
143.401161222
143.13773176
142.868375699
142.59197296
142.307595984
142.014436565
141.711758396
141.398865695
141.075083112
140.739742579
140.392173881
140.031698065
139.657634858
139.269288736
138.865952606
138.446907633
138.011422912
137.558755656
137.088151297
136.598844135
136.0900579
135.561006228
135.010893218
134.438914065
133.844255604
133.226096434
132.583610652
131.915966414
131.222327164
130.501853295
129.753704177
128.97703882
128.171017808
127.334805367
126.467571637
125.568495272
124.636766344
123.671589547
122.67218818
121.637809026
120.567726872
119.461250282
118.317729288
117.13656273
115.917207982
114.659191686
113.362124228
112.025713986
110.649785461
109.234300677
107.779384107
106.285351785
104.752745075
103.182369513
101.575338869
99.9331247769
98.2576110378
96.5511508603
94.8166300107
93.0575219347
91.2779364945
89.4826465225
87.6770808854
85.8672568425
84.0595624374
82.2606586604
80.4781053539
78.7190172209
76.9920906631
148.324785019
146.96696941
146.176223441
145.67638198
145.285543613
144.961790154
144.677380914
144.412877145
144.157477056
143.905034275
143.651723104
143.395031208
143.13322244
142.865020869
142.589426233
142.305603521
142.012814629
141.710375196
141.397628117
141.073924858
140.73860595
140.391021976
140.030520981
139.656419535
139.268025881
138.864636296
138.445533583
138.009985814
137.55725188
137.086578742
136.597201309
136.088343645
135.559219658
135.009033744
134.436981475
133.84225059
133.224022539
132.581470393
131.913762389
131.220062899
130.499533441
129.751333935
128.974624407
128.168566838
127.332327178
126.465077651
125.565999425
124.634285611
123.669144683
122.669804571
121.635517102
120.56556345
119.459259846
118.315965483
117.135090472
115.91610597
114.658555909
113.362069364
112.026377415
110.651331846
109.236926895
107.783324687
106.290884822
104.760198539
103.192127898
101.587850107
99.9489067624
98.2772557313
96.575323502
94.8460844273
93.09308634
91.3204973969
89.5331223533
87.7363785649
85.936163085
84.1383426891
82.3484471038
80.5712394808
78.801523254
77.0097943735
150.11789369
147.189796283
146.076269089
145.549199487
145.18210129
144.887529809
144.626074194
144.37771008
144.133355716
143.888444176
143.640280584
143.387112264
143.127709155
142.861137708
142.586633236
142.30352458
142.011188094
141.709019296
141.39641576
141.072770113
140.73747712
140.389896948
140.029360683
139.655203039
139.266741798
138.863277659
138.444096682
138.008473731
137.555666349
137.084919998
136.595469623
136.086539442
135.557343438
135.007086046
134.434962847
133.840161285
133.221861627
132.579237976
131.911459217
131.217690071
130.497092445
129.748826879
128.972054114
128.165936913
127.329642165
126.462343226
125.563222607
124.63147495
123.666310639
122.666959953
121.632677456
120.562747677
119.456490942
118.313271133
117.13250405
115.913667453
114.656312808
113.360079233
112.024709537
110.650069192
109.236168591
107.78318896
106.291512448
104.761756754
103.19481467
101.591898549
99.9545898219
98.2848958318
96.5853135448
94.858848431
93.1091055744
91.3403219273
89.5573865133
87.765818011
85.9716624127
84.1814167146
82.4015017511
80.6367009344
78.8665549988
76.9666098389
56.9197618057
53.3676370118
50.9761995264
49.0187838797
47.3467494602
45.8899261569
44.6043301555
43.4602549641
42.4360267803
41.514897378
40.6834580594
39.9307007988
39.2474211806
38.6258177803
38.0592087723
37.5418233805
37.0686434127
36.6352800598
36.2378759761
35.8730264016
35.5377146187
35.2292585456
34.9452661631
34.6835980214
34.4423352885
34.2197525738
34.0142946462
33.8245562521
33.649264718
33.4872649441
33.3375063401
33.1990314511
33.0709660798
32.9525102115
32.8429304217
32.7415526967
32.647756695
32.5609700828
32.4806634062
32.406344187
32.3375524622
32.2738543232
32.2148376406
32.1601416691
32.1095930829
32.0630750938
32.0201443809
31.9804353868
31.943641041
31.909547276
31.8779570091
31.8486803512
31.8215401468
31.7963791092
31.773071313
31.7514469955
31.73136591
31.7127107225
31.6953698359
31.6792268491
31.6641752488
31.6501215023
31.6369797599
31.6246716835
31.6131254397
31.6022731704
31.592055455
31.5824176102
31.5733081799
31.5646771752
31.5564819805
31.5486775629
31.5412347951
31.5341062732
31.5272680426
31.5206924294
31.5143537138
31.508223336
31.5022803888
31.4965069742
31.490885218
31.4853995533
31.4800353769
31.4747788389
31.4696199721
31.4645534833
31.4595680708
31.4546517668
31.449793785
31.4449839615
31.4402179748
31.435490274
31.4308091851
31.4261657921
31.4215418224
31.4169300703
31.4123256412
31.4077243127
31.4031221618
31.3985153797
31.3939001142
31.3892724422
31.3846285112
31.3799645586
31.3752772048
31.3705633041
31.3658200673
31.3610449251
31.3562354627
31.351389227
31.3465036217
31.3415759125
31.3366031808
31.3315824728
31.3265110118
31.3213864426
31.3162070724
31.3109719132
31.3056805819
31.3003330111
31.2949290232
31.2894677552
31.283944505
31.2783402807
31.2726018344
31.266656306
31.2613589548
31.2561921003
31.2508287159
31.2454472176
31.2401263317
31.234926937
31.2298901997
31.2250740722
31.2205315016
31.2163174035
31.212481954
31.2090635539
31.2060687769
31.2034583573
31.2014164533
31.1995697466
31.1978287931
31.1955704779
31.1911118733
31.1802300507
31.1528573627
31.0873800561
30.9426046124
30.6480639855
30.098609412
29.1615321415
27.7043213978
25.6343258967
22.9255056399
19.6338661538
15.8778051686
11.6253693519
6.60133056022
1.56978062902
60.1011138045
56.0482997516
53.3363158957
51.1839606369
49.3820187735
47.8320823433
46.4759384664
45.2763521135
44.2071477013
43.248690034
42.3856376745
41.6056437265
40.898551506
40.2558684018
39.6704019959
39.135998602
38.647348867
38.1998394493
37.7894375896
37.4125993956
37.0661963982
36.747455244
36.4539084001
36.1833526668
35.9338152217
35.7035234396
35.4908810487
35.2944460798
35.1129131931
34.9450974368
34.7899211726
34.646402061
34.5136432326
34.3908235247
34.277190214
34.1720518088
34.0747724366
33.9847666627
33.9014951312
33.824460216
33.7532036548
33.6873052789
33.6263854647
33.5700834528
33.5179995116
33.4697365432
33.4250590313
33.3837328116
33.3455107119
33.3101556365
33.2774458921
33.2471725495
33.2191430264
33.1931759376
33.1691016542
33.1467675125
33.1260381551
33.1067801271
33.0888660812
33.0721879236
33.0566477669
33.0421494647
33.0286043517
33.0159314311
33.0040595336
32.9929154042
32.9824356897
32.9725603522
32.9632359347
32.9544132624
32.9460393542
32.9380811006
32.9304938557
32.9232456514
32.9162951673
32.9096223738
32.9031969394
32.8969911971
32.8909809563
32.8851487029
32.8794758684
32.8739462035
32.8685458316
32.8632608241
32.858075183
32.8529704822
32.8479388737
32.8429709896
32.8380577562
32.8331942347
32.8283715464
32.8235826225
32.818815784
32.8140666046
32.8093336104
32.8046139403
32.7999034878
32.7951980155
32.7904937145
32.7857869066
32.7810737619
32.7763503532
32.771612878
32.7668576995
32.7620813688
32.757280749
32.7524530825
32.7475957153
32.7427062353
32.7377820993
32.7328206396
32.7278189755
32.722774202
32.7176832194
32.7125433533
32.7073523283
32.7021088891
32.696812471
32.6914637742
32.6860641587
32.6806159227
32.6751225832
32.6695894294
32.664024725
32.6584558206
32.6528986332
32.6473913444
32.6416611071
32.6361246089
32.6307580644
32.6254464075
32.6203156338
32.6154036127
32.6107753813
32.6064934072
32.6026248438
32.5992401984
32.5963910643
32.5941028934
32.5924131445
32.5913006816
32.5906096017
32.5900448109
32.588774939
32.5845944467
32.5723001509
32.5398345076
32.4623233287
32.2935957947
31.9568499885
31.3408212865
30.3098125675
28.734430213
26.5318565897
23.6879332723
20.2631557034
16.3739215644
12.0035372713
6.89053372844
1.70335590953
62.3085457842
58.3751050464
55.5079551587
53.2240280947
51.3220691264
49.6956021205
48.2795951761
47.0320324228
45.9234899047
44.9321044787
44.040977414
43.2366531648
42.5081734191
41.84645782
41.2438776898
40.6939517829
40.1911218434
39.7305832666
39.3081543825
38.9201738377
38.5634191779
38.2350406424
37.9325075621
37.6535637431
37.3961910293
37.1585775648
36.9390924072
36.7362627037
36.5487551616
36.3753594374
36.2149744984
36.0665962975
35.9293078174
35.8022690578
35.6847096769
35.5759216529
35.475253716
35.3821054364
35.2959230217
35.2161938802
35.142443688
35.0742321674
35.0111547588
34.9528430481
34.8989523342
34.848966224
34.8026546996
34.7598593297
34.7202939054
34.6836996017
34.6498459009
34.6185182212
34.5895181613
34.5626632848
34.5377856491
34.514723881
34.4933358911
34.4734844551
34.455034045
34.4378692849
34.4218850208
34.406982685
34.3930702646
34.3800620232
34.3678784842
34.3564485891
34.3457104669
34.3356016738
34.3260641087
34.317047076
34.30850244
34.300380636
34.2926533999
34.285269337
34.2781971038
34.2714096258
34.2648797035
34.2585794772
34.2524825329
34.2465685995
34.2408192259
34.2352176041
34.2297456284
34.2243832006
34.2191253098
34.2139627172
34.2088844233
34.2038770663
34.1989291137
34.1940355449
34.18918511
34.1843720191
34.1795895071
34.1748306692
34.1700896311
34.1653613746
34.1606410372
34.1559241948
34.1512068704
34.1464850833
34.1417547908
34.1370119619
34.1322527782
34.1274734721
34.122670588
34.1178409438
34.1129817701
34.1080903794
34.1031643566
34.0982011915
34.093198268
34.0881528036
34.083062043
34.0779231199
34.0727336311
34.0674916341
34.0621962421
34.056847347
34.051446108
34.0459945994
34.0404960909
34.0349553722
34.029379276
34.0237779856
34.0181709954
34.0125583168
34.0069579752
34.001403341
33.9959235202
33.9906191744
33.9851572316
33.980025603
33.9751965065
33.9707259034
33.9666678061
33.9631136555
33.9601442065
33.9578157179
33.9561622007
33.9552184493
33.954981958
33.9552651649
33.9556632796
33.9550869088
33.9507568681
33.9364302986
33.8980318222
33.8074206927
33.6136537132
33.2340806846
32.5521584813
31.4301547575
29.7422436944
27.4147233243
24.4435548467
20.8919195669
16.872899894
12.384294291
7.17938351602
1.83473317577
64.1127229003
60.3880106932
57.4840261411
55.1288519703
53.1587690665
51.4744386633
50.0106979991
48.7236652892
47.58209058
46.5626460442
45.6473160719
44.8218084886
44.0745413973
43.3959689638
42.7781135346
42.2142307344
41.6985622795