/*--------------------------------*- C++ -*----------------------------------*\
| =========                 |                                                 |
| \\      /  F ield         | OpenFOAM: The Open Source CFD Toolbox           |
|  \\    /   O peration     | Version:  2106                                  |
|   \\  /    A nd           | Website:  www.openfoam.com                      |
|    \\/     M anipulation  |                                                 |
\*---------------------------------------------------------------------------*/
FoamFile
{
    version     2.0;
    format      ascii;
    arch        "LSB;label=32;scalar=64";
    class       surfaceScalarField;
    location    "0.115";
    object      phi;
}
// * * * * * * * * * * * * * * * * * * * * * * * * * * * * * * * * * * * * * //

dimensions      [0 3 -1 0 0 0 0];

oriented        oriented;

internalField   nonuniform List<scalar> 
22100
(
3.3846120366e-05
1.61538796358e-05
2.24572097487e-05
1.13889104724e-05
1.62585526629e-05
6.19865697859e-06
1.27977754408e-05
3.46077714987e-06
1.08046413101e-05
1.9931341044e-06
9.60458803681e-06
1.20005329444e-06
8.85132007988e-06
7.53268018867e-07
8.36435120735e-06
4.86968961457e-07
8.04433356675e-06
3.20017741324e-07
7.8328395502e-06
2.1149411199e-07
7.69339803609e-06
1.39441594466e-07
7.60224408973e-06
9.11540060893e-08
7.54348603151e-06
5.87580978326e-08
7.50635616354e-06
3.71298928028e-08
7.48352657922e-06
2.28295990907e-08
7.47001908788e-06
1.35074988997e-08
7.46247161774e-06
7.54747203585e-09
7.45862442969e-06
3.84718374689e-09
7.45692773788e-06
1.69667919688e-09
7.45655203744e-06
3.75677277102e-10
7.45693542503e-06
-3.8342230847e-10
7.45765666799e-06
-7.21287368456e-10
7.45845148667e-06
-7.94868081053e-10
7.45921494125e-06
-7.63503408906e-10
7.45989811522e-06
-6.83218685202e-10
7.46048038659e-06
-5.82313034889e-10
7.46095925868e-06
-4.78916719868e-10
7.46134233224e-06
-3.8313136426e-10
7.46164182808e-06
-2.99578876546e-10
7.46187132607e-06
-2.29616683245e-10
7.46204393898e-06
-1.72772395468e-10
7.46217133073e-06
-1.2758878003e-10
7.46226329717e-06
-9.21879350576e-11
7.46232828471e-06
-6.52111167858e-11
7.46237216602e-06
-4.40778691721e-11
7.46239864724e-06
-2.66202947407e-11
7.46241231646e-06
-1.37262865517e-11
7.46241779139e-06
-5.43916672819e-12
7.46241764217e-06
2.69062028135e-13
7.4624133632e-06
4.45372749616e-12
7.46240612096e-06
7.4273469311e-12
7.46239673368e-06
9.5327682672e-12
7.46238576459e-06
1.10320801699e-11
7.4623735409e-06
1.21815933927e-11
7.46236020099e-06
1.32000929582e-11
7.46234573528e-06
1.42658073345e-11
7.46232999194e-06
1.55404401114e-11
7.46231265567e-06
1.71878877646e-11
7.46229327584e-06
1.93237399056e-11
7.46227127728e-06
2.20398180058e-11
7.46224595455e-06
2.54332206747e-11
7.46221649403e-06
2.95920740963e-11
7.4621820006e-06
3.45987633562e-11
7.46214152622e-06
4.05281534471e-11
7.46209410828e-06
4.74285340828e-11
7.46203883917e-06
5.52730231039e-11
7.46197497658e-06
6.39028610702e-11
7.46190206638e-06
7.30121298073e-11
7.46182060316e-06
8.16186596664e-11
7.46173279191e-06
8.79753279115e-11
7.46164441378e-06
8.8485619568e-11
7.46156767696e-06
7.6732807446e-11
7.4615119951e-06
5.55500458832e-11
7.46149537034e-06
1.63956070425e-11
7.46155397292e-06
-5.88655692534e-11
7.46174684326e-06
-1.93100096261e-10
7.46216998029e-06
-4.23286034349e-10
7.4629760418e-06
-8.0611633424e-10
7.46440456515e-06
-1.42851051286e-09
7.46681712787e-06
-2.41252030909e-09
7.4706684699e-06
-3.85128133202e-09
7.47720737463e-06
-6.53880708843e-09
7.48812886567e-06
-1.09213245777e-08
7.50655694814e-06
-1.84278410179e-08
7.54017247461e-06
-3.36152370244e-08
7.61020714939e-06
-7.00343860828e-08
7.7787870451e-06
-1.68579727624e-07
8.23915462988e-06
-4.60367632266e-07
9.72653780395e-06
-1.48738340591e-06
-5.54500934667e-06
1.52715468127e-05
5.02175947927e-05
1.59362847151e-05
4.42441112268e-05
1.73623938425e-05
3.77795006108e-05
1.26632674782e-05
3.26461424901e-05
8.59413523071e-06
2.89380896458e-05
5.70118698591e-06
2.6359618536e-05
3.7785245077e-06
2.45875136273e-05
2.52537307733e-06
2.33734716078e-05
1.70101114903e-06
2.25435236353e-05
1.14996587739e-06
2.1978217762e-05
7.76800123427e-07
2.15955206862e-05
5.22138774514e-07
2.13387533042e-05
3.47921460349e-07
2.11685259186e-05
2.28985529188e-07
2.10573886788e-05
1.4826715879e-07
2.09862285927e-05
9.39896976434e-08
2.09417925319e-05
5.79435610064e-08
2.09149562211e-05
3.43837726188e-08
2.08995124094e-05
1.92909708102e-08
2.08913558849e-05
9.85316153561e-09
2.08876273429e-05
4.10415822948e-09
2.08866669981e-05
5.76845483938e-10
2.08869878423e-05
-1.04221775828e-09
2.08879526312e-05
-1.75974489054e-09
2.08891899641e-05
-2.00092193544e-09
2.08904616637e-05
-1.95500435556e-09
2.08916410574e-05
-1.7618033764e-09
2.08926706753e-05
-1.50865722423e-09
2.08935337324e-05
-1.24635470324e-09
2.08942362445e-05
-1.00231504945e-09
2.08947959478e-05
-7.89607691714e-10
2.08952361455e-05
-6.13313242729e-10
2.08955835886e-05
-4.75406802009e-10
2.08958435488e-05
-3.52516787989e-10
2.08960266686e-05
-2.48646472913e-10
2.08961537484e-05
-1.71373054719e-10
2.08962388098e-05
-1.11761821881e-10
2.08962918173e-05
-6.66661192013e-11
2.08963234324e-05
-3.68576534345e-11
2.08963399754e-05
-1.59981150705e-11
2.08963452351e-05
-5.2270755942e-13
2.08963422122e-05
1.06630315465e-11
2.08963331195e-05
1.87036310971e-11
2.08963195591e-05
2.45055852349e-11
2.08963025733e-05
2.89320395689e-11
2.08962827784e-05
3.26737501535e-11
2.08962604912e-05
3.62357568966e-11
2.08962357959e-05
4.00097237876e-11
2.08962085568e-05
4.43475808733e-11
2.08961785085e-05
4.94439039015e-11
2.08961453129e-05
5.54140659631e-11
2.08961085961e-05
6.23622317364e-11
2.0896068044e-05
7.03193177289e-11
2.08960235125e-05
7.92306047845e-11
2.08959751617e-05
8.89161847924e-11
2.08959236521e-05
9.8965606571e-11
2.08958704962e-05
1.08509371262e-10
2.08958186722e-05
1.15894889489e-10
2.08957733702e-05
1.18552287572e-10
2.08957436813e-05
1.11545328601e-10
2.08957445016e-05
8.72972761372e-11
2.08958015944e-05
3.13644343578e-11
2.08959634597e-05
-8.53501151176e-11
2.08962992116e-05
-2.80562138433e-10
2.08969268119e-05
-6.11613894234e-10
2.0897966221e-05
-1.09863077691e-09
2.08995848288e-05
-1.81193800633e-09
2.09021466614e-05
-2.98520456183e-09
2.09062088109e-05
-4.86824773086e-09
2.09126557897e-05
-7.87541558497e-09
2.09229378109e-05
-1.26944190656e-08
2.09395936555e-05
-2.05069315029e-08
2.09668252635e-05
-3.37701187313e-08
2.10117129611e-05
-5.5808630608e-08
2.10876662519e-05
-9.43806935948e-08
2.12210831592e-05
-1.67031728136e-07
2.14658766493e-05
-3.14827633577e-07
2.19322192723e-05
-6.34922393412e-07
2.28375500639e-05
-1.36569871125e-06
2.45209530791e-05
-3.17078690755e-06
-7.19614198929e-06
2.6172084876e-05
5.35171052184e-05
1.24191793878e-05
5.29349678116e-05
1.79445310717e-05
4.96538390421e-05
1.59443961412e-05
4.5840179644e-05
1.240779459e-05
4.24400898518e-05
9.10127680847e-06
3.97291692239e-05
6.4894452259e-06
3.76873024978e-05
4.56723993608e-06
3.61976603035e-05
3.19065349152e-06
3.51326118688e-05
2.21501445438e-06
3.43823715147e-05
1.52704059812e-06
3.38606389159e-05
1.04387146491e-06
3.35023721583e-05
7.0618828058e-07
3.32596474195e-05
4.71710307771e-07
3.30976656062e-05
3.1024899666e-07
3.29914479504e-05
2.00207367948e-07
3.29232558451e-05
1.26135673056e-07
3.28806301897e-05
7.70094259095e-08
3.28549206883e-05
4.50004574203e-08
3.28401828843e-05
2.4590933406e-08
3.28323596925e-05
1.19272988301e-08
3.28285848477e-05
4.35162294944e-09
3.28277248044e-05
-1.82252073115e-10
3.28280234795e-05
-2.05850170021e-09
3.28290011198e-05
-2.97864441792e-09
3.28302472788e-05
-3.20124708692e-09
3.28315222579e-05
-3.03687421619e-09
3.28327005672e-05
-2.68707784137e-09
3.28337255369e-05
-2.271469544e-09
3.28345805081e-05
-1.8574776066e-09
3.28352704374e-05
-1.47977947723e-09
3.28358101285e-05
-1.15329180037e-09
3.28362160626e-05
-8.81653780658e-10
3.28365266165e-05
-6.6337748593e-10
3.28367748741e-05
-4.97166287017e-10
3.28369659245e-05
-3.62602521765e-10
3.28370929453e-05
-2.38850365834e-10
3.28371777968e-05
-1.51465104732e-10
3.283723187e-05
-9.07744889063e-11
3.28372638711e-05
-4.77810753992e-11
3.28372794096e-05
-1.5841342746e-11
3.28372827811e-05
7.44789954805e-12
3.28372771947e-05
2.4330673638e-11
3.28372651543e-05
3.64501610246e-11
3.2837248374e-05
4.55006347936e-11
3.28372279774e-05
5.28007504695e-11
3.28372046932e-05
5.92699433509e-11
3.28371789347e-05
6.56082153384e-11
3.28371507718e-05
7.24796249728e-11
3.28371202027e-05
8.01051885993e-11
3.28370873014e-05
8.84834588204e-11
3.28370522086e-05
9.76315597206e-11
3.28370152799e-05
1.07374000471e-10
3.28369772868e-05
1.17275985009e-10
3.28369396859e-05
1.26518051233e-10
3.28369050557e-05
1.33600280478e-10
3.28368778069e-05
1.35823029752e-10
3.28368649784e-05
1.28876453653e-10
3.28368766641e-05
1.07084753253e-10
3.28369295668e-05
5.88552088576e-11
3.28370518419e-05
-3.4856957178e-11
3.28372936593e-05
-2.10484936928e-10
3.28377416276e-05
-5.33510421004e-10
3.28384306335e-05
-9.69870361138e-10
3.28394358249e-05
-1.61713580569e-09
3.28410102421e-05
-2.67332310504e-09
3.28435462402e-05
-4.34810157228e-09
3.2847553614e-05
-6.99263802787e-09
3.28538590474e-05
-1.11736794733e-08
3.28637981391e-05
-1.78144765142e-08
3.28795750903e-05
-2.84713077131e-08
3.29049183476e-05
-4.58500561503e-08
3.29452938309e-05
-7.4145369942e-08
3.30107491925e-05
-1.2126367148e-07
3.31186486289e-05
-2.02279744905e-07
3.32987169123e-05
-3.47099670371e-07
3.360048102e-05
-6.16591591117e-07
3.40974119099e-05
-1.13185336098e-06
3.48595388878e-05
-2.12782596435e-06
3.57546150808e-05
-4.06586326339e-06
-7.30379870462e-06
3.5862272264e-05
5.35105663558e-05
8.9086129295e-06
5.55742217927e-05
1.58808754595e-05
5.52424816211e-05
1.62761362063e-05
5.35977845357e-05
1.40524916352e-05
5.15418457685e-05
1.1157215606e-05
4.95802777111e-05
8.45101337138e-06
4.79243489296e-05
6.22316884519e-06
4.66181382976e-05
4.49686426701e-06
4.5630468415e-05
3.20268447403e-06
4.49051249668e-05
2.25238416026e-06
4.43841069986e-05
1.56488951841e-06
4.40167251395e-05
1.07357019794e-06
4.37620195114e-05
7.26415973391e-07
4.35883499183e-05
4.8391861427e-07
4.34719892515e-05
3.1656805217e-07
4.33955289132e-05
2.02596023718e-07
4.33464204636e-05
1.26117880622e-07
4.33157573559e-05
7.56635568307e-08
4.32973080204e-05
4.30402415516e-08
4.32867801451e-05
2.24551251489e-08
4.32812796749e-05
9.85202425282e-09
4.32785742627e-05
2.52307666449e-09
4.32778936137e-05
-1.37794475185e-09
4.32782372147e-05
-3.32234049651e-09
4.32790514571e-05
-4.01558537331e-09
4.32800392784e-05
-4.02479525152e-09
4.32810319632e-05
-3.67987506249e-09
4.32819419585e-05
-3.1816022849e-09
4.32827308953e-05
-2.64658827652e-09
4.3283389026e-05
-2.13812572748e-09
4.32839223861e-05
-1.68690465517e-09
4.32843442628e-05
-1.30380421498e-09
4.32846675942e-05
-9.86977670351e-10
4.328490029e-05
-7.30093588029e-10
4.32850617818e-05
-5.24255957599e-10
4.32851819221e-05
-3.59058565062e-10
4.32852455136e-05
-2.15022902322e-10
4.32852955775e-05
-1.40717445237e-10
4.32853272531e-05
-7.92856750514e-11
4.3285342919e-05
-3.13396281812e-11
4.32853471079e-05
3.36625461846e-12
4.32853425346e-05
2.89083732061e-11
4.32853315438e-05
4.73309618773e-11
4.32853156345e-05
6.12107753878e-11
4.32852957383e-05
7.24648930112e-11
4.32852724979e-05
8.23144090278e-11
4.32852463586e-05
9.1645896326e-11
4.32852177353e-05
1.01120732389e-10
4.32851869664e-05
1.10994246326e-10
4.32851543399e-05
1.21279582217e-10
4.32851203137e-05
1.31810431696e-10
4.32850856942e-05
1.42078997709e-10
4.3285051795e-05
1.51183440451e-10
4.32850206319e-05
1.57646838998e-10
4.32849951356e-05
1.59079846547e-10
4.32849793647e-05
1.51650449466e-10
4.32849793003e-05
1.29090457217e-10
4.32850062018e-05
8.03956346059e-11
4.32850768021e-05
-1.15410655149e-11
4.32852145153e-05
-1.72454929793e-10
4.32854221828e-05
-4.18178395475e-10
4.32858198689e-05
-9.31363001282e-10
4.32865321118e-05
-1.68236873501e-09
4.32877286823e-05
-2.81397511957e-09
4.32896132607e-05
-4.55811387484e-09
4.32925362262e-05
-7.27119302045e-09
4.32970633362e-05
-1.15198051758e-08
4.33040858873e-05
-1.81962531671e-08
4.33150094718e-05
-2.8738073095e-08
4.3332034186e-05
-4.54960073712e-08
4.33585449436e-05
-7.23607283348e-08
4.34002394575e-05
-1.15839705221e-07
4.34661934698e-05
-1.87217394363e-07
4.35705200954e-05
-3.06606005572e-07
4.37338369617e-05
-5.10416223311e-07
4.39818169745e-05
-8.64571468207e-07
4.43326814685e-05
-1.48271795002e-06
4.47493591259e-05
-2.5445039707e-06
4.49904767715e-05
-4.30698144499e-06
-6.79214889334e-06
4.4478827118e-05
5.27351379211e-05
6.17347490476e-06
5.57309341202e-05
1.28850790828e-05
5.73114736798e-05
1.46955965403e-05
5.76109909155e-05
1.37529743586e-05
5.71335216038e-05
1.16346849474e-05
5.63194672264e-05
9.26506783738e-06
5.54489877209e-05
7.09364847794e-06
5.46629786779e-05
5.28287345109e-06
5.4013685957e-05
3.85197732816e-06
5.35061594212e-05
2.75991080565e-06
5.31242710545e-05
1.9467779661e-06
5.28450127606e-05
1.35282854651e-06
5.26454825135e-05
9.2594625658e-07
5.25057801112e-05
6.23621042536e-07
5.24098140896e-05
4.12534096142e-07
5.23451446653e-05
2.67265468364e-07
5.23024519627e-05
1.68810596837e-07
5.22749188168e-05
1.03196701681e-07
5.2257657093e-05
6.03019423541e-08
5.22472190141e-05
3.28931547919e-08
5.22411957729e-05
1.58751907162e-08
5.2237983287e-05
5.73546691442e-09
5.22365598829e-05
4.53503621471e-11
5.22361502081e-05
-2.91277939601e-09
5.22363100283e-05
-4.17551784089e-09
5.22367482557e-05
-4.46313288178e-09
5.22372917673e-05
-4.22350091892e-09
5.22378423719e-05
-3.73233532973e-09
5.223834797e-05
-3.1523397238e-09
5.22387844613e-05
-2.57480115319e-09
5.22391445928e-05
-2.04724947657e-09
5.22394302252e-05
-1.58966865808e-09
5.22396498245e-05
-1.20680847284e-09
5.22398155186e-05
-8.95993489913e-10
5.22399392348e-05
-6.48125708874e-10
5.22400323634e-05
-4.5226679346e-10
5.22401199906e-05
-3.02647538772e-10
5.22401731347e-05
-1.93787399582e-10
5.22402115931e-05
-1.17629214131e-10
5.22402341289e-05
-5.37654297944e-11
5.22402420654e-05
-4.5121596968e-12
5.22402400687e-05
3.0879207772e-11
5.22402309146e-05
5.63707542064e-11
5.22402165665e-05
7.5383347794e-11
5.22401983413e-05
9.05049601471e-11
5.22401771955e-05
1.03324637425e-10
5.22401543043e-05
1.14495475996e-10
5.22401287068e-05
1.26781995746e-10
5.22401002426e-05
1.39600546284e-10
5.22400699594e-05
1.51726695026e-10
5.22400383348e-05
1.63558337677e-10
5.22400061556e-05
1.7430141828e-10
5.22399747163e-05
1.82589293087e-10
5.22399460476e-05
1.86250257765e-10
5.22399234632e-05
1.81631682264e-10
5.22399135003e-05
1.61664483241e-10
5.22399332217e-05
1.09514437598e-10
5.223998447e-05
2.93490395872e-11
5.22400899828e-05
-1.1686666711e-10
5.22402497534e-05
-3.32125219025e-10
5.22405454549e-05
-7.1390676047e-10
5.22410221063e-05
-1.40815854434e-09
5.22417405766e-05
-2.40104948947e-09
5.22428362169e-05
-3.90982243996e-09
5.2244513075e-05
-6.23512533213e-09
5.22470750961e-05
-9.83330874069e-09
5.22509783148e-05
-1.54230842379e-08
5.2256921913e-05
-2.41399089125e-08
5.22659812119e-05
-3.77974322483e-08
5.22798051825e-05
-5.93200056054e-08
5.23009097099e-05
-9.34652201942e-08
5.23331056628e-05
-1.48035528009e-07
5.23819005173e-05
-2.36012005113e-07
5.24544906346e-05
-3.79195822009e-07
5.25581555753e-05
-6.1408091865e-07
5.26940015796e-05
-1.00041731736e-06
5.28403308283e-05
-1.62904720862e-06
5.29154649403e-05
-2.61963830503e-06
5.27041598695e-05
-4.09567686295e-06
-5.98022128429e-06
5.18922322616e-05
5.19834864212e-05
4.18998837884e-06
5.50586638005e-05
9.80990152278e-06
5.76386129706e-05
1.21156472613e-05
5.93259029346e-05
1.20656843538e-05
6.02280151246e-05
1.07325727868e-05
6.05929266679e-05
8.90015638232e-06
6.0648284237e-05
7.03829103473e-06
6.05531908287e-05
5.37796699737e-06
6.04029578565e-05
4.0022104288e-06
6.02479197008e-05
2.91494906511e-06
6.01107975154e-05
2.08390022598e-06
5.99990426198e-05
1.46458349119e-06
5.99125336801e-05
1.01245522917e-06
5.98479499724e-05
6.8820477744e-07
5.98010568691e-05
4.59427227618e-07
5.97677852532e-05
3.00537113549e-07
5.97446597255e-05
1.91936148112e-07
5.9728899933e-05
1.18956501629e-07
5.97183734807e-05
7.08283761967e-08
5.97114917457e-05
3.9774839315e-08
5.97070996307e-05
2.02672225145e-08
5.97043961588e-05
8.43882751142e-09
5.97028203638e-05
1.62101597322e-09
5.97019480604e-05
-2.04061111096e-09
5.97015241139e-05
-3.75170184999e-09
5.970136879e-05
-4.30793069476e-09
5.97013659762e-05
-4.22080256112e-09
5.97014422487e-05
-3.80872494522e-09
5.9701552938e-05
-3.26315714001e-09
5.97016721554e-05
-2.69416526007e-09
5.97017855318e-05
-2.16079391092e-09
5.97018862834e-05
-1.69060631084e-09
5.97019722706e-05
-1.29298877046e-09
5.97020448738e-05
-9.68779380376e-10
5.97021057461e-05
-7.09148277563e-10
5.97021558799e-05
-5.02499207247e-10
5.97021931688e-05
-3.39973308625e-10
5.97022168516e-05
-2.17451231729e-10
5.97022235576e-05
-1.24283586554e-10
5.97022128003e-05
-4.29586971714e-11
5.97022050974e-05
3.20270338683e-12
5.97021942364e-05
4.16923051402e-11
5.97021834788e-05
6.70208830754e-11
5.97021708127e-05
8.79086112427e-11
5.97021552569e-05
1.05931489045e-10
5.97021366051e-05
1.21906166081e-10
5.97021144128e-05
1.36706031007e-10
5.97020903792e-05
1.50919932873e-10
5.97020654271e-05
1.64706887053e-10
5.97020393851e-05
1.77915179156e-10
5.97020130621e-05
1.89965830638e-10
5.97019876973e-05
1.99663588991e-10
5.97019650604e-05
2.05153262515e-10
5.97019474217e-05
2.03798845107e-10
5.97019368892e-05
1.9212197274e-10
5.97019323808e-05
1.66223323871e-10
5.97019195176e-05
1.22521954464e-10
5.97019267285e-05
2.23321700065e-11
5.9701948938e-05
-1.38901686512e-10
5.97020994487e-05
-4.82543413816e-10
5.97023634463e-05
-9.77921291994e-10
5.97027071661e-05
-1.75199071108e-09
5.97032278908e-05
-2.92193317592e-09
5.97040101465e-05
-4.69222527471e-09
5.97051660641e-05
-7.39114917131e-09
5.9706859293e-05
-1.15266110659e-08
5.97093268582e-05
-1.78907214328e-08
5.97129119855e-05
-2.77251300377e-08
5.97181068128e-05
-4.29923520514e-08
5.97256010732e-05
-6.68143212937e-08
5.97363189879e-05
-1.0418312157e-07
5.97513503824e-05
-1.63066808161e-07
5.97715816404e-05
-2.56243046344e-07
5.97964915279e-05
-4.04105445904e-07
5.98209881564e-05
-6.38577333443e-07
5.98281543312e-05
-1.00758343354e-06
5.97755086216e-05
-1.57640156789e-06
5.95735990781e-05
-2.41772887332e-06
5.90606194108e-05
-3.58269752865e-06
-4.98733228501e-06
5.80677303445e-05
5.14373053526e-05
2.7526829193e-06
5.42658205418e-05
6.9813861516e-06
5.72496433315e-05
9.13182436163e-06
5.97900279515e-05
9.5252996934e-06
6.17201288447e-05
8.80247192306e-06
6.30883042842e-05
7.53198103047e-06
6.40167183294e-05
6.10987711391e-06
6.46292384394e-05
4.76544702233e-06
6.5025805295e-05
3.60564369686e-06
6.5279079031e-05
2.66167542684e-06
6.54389721038e-05
1.92400722151e-06
6.55386853542e-05
1.36487028547e-06
6.5599918191e-05
9.51222425008e-07
6.56367246445e-05
6.51398356339e-07
6.56581641936e-05
4.37987716624e-07
6.56700572116e-05
2.88644137565e-07
6.56761272395e-05
1.85866156743e-07
6.5678740151e-05
1.16343607933e-07
6.56793830439e-05
7.01854698735e-08
6.56789753527e-05
4.0182477127e-08
6.56780729568e-05
2.11695230848e-08
6.56770046963e-05
9.50695662358e-09
6.56759570197e-05
2.66853832311e-09
6.56750098523e-05
-1.09360433416e-09
6.56742012958e-05
-2.94329795106e-09
6.5673534663e-05
-3.64143330601e-09
6.56729997472e-05
-3.68600344965e-09
6.56725796296e-05
-3.38871003132e-09
6.56722557112e-05
-2.93933670789e-09
6.56720102095e-05
-2.44876759111e-09
6.56718271697e-05
-1.97787343813e-09
6.56716929745e-05
-1.5565508439e-09
6.56715961895e-05
-1.1963613957e-09
6.56715257905e-05
-8.98544718256e-10
6.56714738945e-05
-6.57405222255e-10
6.56714360123e-05
-4.64739771881e-10
6.56714081316e-05
-3.1217234416e-10
6.56713835063e-05
-1.9286243626e-10
6.56713630498e-05
-1.03834716612e-10
6.56713605013e-05
-4.04132590737e-11
6.56713603444e-05
3.3360522296e-12
6.56713538593e-05
4.8118204346e-11
6.56713427286e-05
7.80593318543e-11
6.56713293422e-05
1.0119329686e-10
6.56713143743e-05
1.20824814452e-10
6.56712976999e-05
1.38567994081e-10
6.56712790656e-05
1.55405794159e-10
6.56712583593e-05
1.71756258488e-10
6.56712372959e-05
1.85922956743e-10
6.56712154609e-05
1.99870592899e-10
6.56711924407e-05
2.13030159147e-10
6.56711688036e-05
2.23256797204e-10
6.56711454989e-05
2.28353958277e-10
6.56711239534e-05
2.2523739357e-10
6.56711064959e-05
2.09530429686e-10
6.5671097786e-05
1.74977950206e-10
6.56711061925e-05
1.14247375899e-10
6.56711070316e-05
2.16663732722e-11
6.56711630052e-05
-1.94724512434e-10
6.56712299896e-05
-5.49448598191e-10
6.56713417516e-05
-1.08969141892e-09
6.56715051955e-05
-1.91551057978e-09
6.56717323116e-05
-3.14915035674e-09
6.56720368043e-05
-4.99680927477e-09
6.56724256613e-05
-7.78007625791e-09
6.56728918211e-05
-1.19928352952e-08
6.56733983066e-05
-1.83973011807e-08
6.56738474473e-05
-2.81743989107e-08
6.56740227056e-05
-4.31677386418e-08
6.56734769431e-05
-6.62686479526e-08
6.56713238292e-05
-1.02030023576e-07
6.56657714115e-05
-1.57514307172e-07
6.56531999218e-05
-2.43671398845e-07
6.56263331106e-05
-3.77238489497e-07
6.55707319314e-05
-5.8297600962e-07
6.5458577764e-05
-8.95429174527e-07
6.52395017621e-05
-1.357325619e-06
6.48310561043e-05
-2.00928330346e-06
6.41162598423e-05
-2.86790149083e-06
-3.86829825016e-06
6.29972257163e-05
5.1085042366e-05
1.66764044464e-06
5.3611844642e-05
4.4545836934e-06
5.66873168569e-05
6.05635203785e-06
5.96894473547e-05
6.52316915579e-06
6.22997285722e-05
6.19219073555e-06
6.44136907046e-05
5.41801898568e-06
6.60471870916e-05
4.47638084928e-06
6.72686181189e-05
3.54401612585e-06
6.81598952565e-05
2.71436667611e-06
6.87977577646e-05
2.02381300834e-06
6.92467348485e-05
1.47503019789e-06
6.95579419971e-05
1.05366317659e-06
6.977039127e-05
7.38773185081e-07
6.99131098257e-05
5.08679839187e-07
7.00072879682e-05
3.43809623337e-07
7.00681549029e-05
2.27777258806e-07
7.01065037053e-05
1.47517404551e-07
7.01298816546e-05
9.29656866954e-08
7.01434952875e-05
5.65718271245e-08
7.01508853022e-05
3.27924035101e-08
7.01544222467e-05
1.76324681124e-08
7.01556669858e-05
8.26206320125e-09
7.01556285164e-05
2.7068258853e-09
7.01549297935e-05
-3.95069960378e-10
7.01539549888e-05
-1.9686689395e-09
7.01529216081e-05
-2.60820128165e-09
7.01519479966e-05
-2.71250749158e-09
7.01510898656e-05
-2.53066390944e-09
7.01503660771e-05
-2.21561258245e-09
7.0149774935e-05
-1.85768458819e-09
7.01493042442e-05
-1.5072532179e-09
7.0148937323e-05
-1.18972480337e-09
7.01486564376e-05
-9.15600810113e-10
7.0148444527e-05
-6.86783269785e-10
7.01482871024e-05
-5.00139672652e-10
7.01481725119e-05
-3.50299149844e-10
7.01480918083e-05
-2.31592933026e-10
7.0148038474e-05
-1.39618985384e-10
7.01480042087e-05
-6.9631387342e-11
7.01479723216e-05
-8.57297346825e-12
7.01479454908e-05
3.01186120938e-11
7.01479318109e-05
6.17377953881e-11
7.01479216132e-05
8.81879398061e-11
7.01479122326e-05
1.10514370414e-10
7.01479026783e-05
1.30355741609e-10
7.01478924394e-05
1.48841438369e-10
7.01478813085e-05
1.66633481529e-10
7.01478692082e-05
1.83994537685e-10
7.01478545324e-05
2.00735371364e-10
7.01478379104e-05
2.16579804774e-10
7.01478203279e-05
2.30617856879e-10
7.01478023156e-05
2.41192987908e-10
7.01477845861e-05
2.4596246366e-10
7.01477679427e-05
2.4177258639e-10
7.01477528202e-05
2.24609691101e-10
7.01477380506e-05
1.89793593781e-10
7.01477195949e-05
1.32825103181e-10
7.01477079542e-05
3.34588573929e-11
7.01476852682e-05
-1.71911463659e-10
7.01476807734e-05
-5.44887383613e-10
7.01476720413e-05
-1.08095903855e-09
7.01476337662e-05
-1.87727729054e-09
7.01475350066e-05
-3.05044627206e-09
7.01473182896e-05
-4.78014494093e-09
7.01468783243e-05
-7.34015817619e-09
7.01460323599e-05
-1.11469379492e-08
7.0144466926e-05
-1.68319778114e-08
7.01416460344e-05
-2.53536480852e-08
7.01366605436e-05
-3.81823835672e-08
7.01279802021e-05
-5.75884018809e-08
7.01130693151e-05
-8.71191665558e-08
7.00876232425e-05
-1.32068171814e-07
7.00443395981e-05
-2.00387629222e-07
6.99709012595e-05
-3.03800030164e-07
6.98467535779e-05
-4.5882826244e-07
6.96384344103e-05
-6.87109966067e-07
6.92942769735e-05
-1.01316821754e-06
6.87417740632e-05
-1.45678047029e-06
6.78935824213e-05
-2.01971001638e-06
-2.65931695906e-06
6.66846010148e-05
5.08804132142e-05
7.87227121878e-07
5.31704663464e-05
2.1645303811e-06
5.62177503137e-05
3.00906796469e-06
5.94382709459e-05
3.3026484852e-06
6.24449714831e-05
3.18549022944e-06
6.50382554622e-05
2.82473509335e-06
6.71548689914e-05
2.35976743866e-06
6.88135661867e-05
1.88531905428e-06
7.0073168714e-05
1.45476425541e-06
7.10056588287e-05
1.09132297198e-06
7.16812434094e-05
7.99445668367e-07
7.21613844396e-05
5.73522181696e-07
7.2496538472e-05
4.03619187832e-07
7.27263775081e-05
2.78840850239e-07
7.28811262377e-05
1.89060956509e-07
7.2983251386e-05
1.25652182327e-07
7.30491147252e-05
8.16541305452e-08
7.30904197539e-05
5.16606965051e-08
7.31153999392e-05
3.15916341114e-08
7.31297548299e-05
1.84374461711e-08
7.3137365785e-05
1.00213850705e-08
7.31408311664e-05
4.79650217251e-09
7.31418577427e-05
1.68003830787e-09
7.31415353006e-05
-7.28456775338e-11
7.31405446617e-05
-9.78229085847e-10
7.31392949019e-05
-1.35860190889e-09
7.31380196774e-05
-1.43739465205e-09
7.31368417383e-05
-1.35278897098e-09
7.31358162349e-05
-1.19013813815e-09
7.31349587974e-05
-1.00026171308e-09
7.31342633937e-05
-8.11873876836e-10
7.31337130164e-05
-6.39402546227e-10
7.31332864761e-05
-4.89158266745e-10
7.3132962163e-05
-3.6261080866e-10
7.31327202441e-05
-2.58391700142e-10
7.31325435511e-05
-1.7378635809e-10
7.31324175027e-05
-1.05711419562e-10
7.31323287999e-05
-5.10536889898e-11
7.31322626699e-05
-3.60464778367e-12
7.31322255261e-05
2.84964338016e-11
7.31321996111e-05
5.59767029088e-11
7.313218177e-05
7.95302338695e-11
7.31321697078e-05
1.00209844632e-10
7.31321610522e-05
1.19149079468e-10
7.31321540736e-05
1.37349439939e-10
7.31321475612e-05
1.55416107e-10
7.31321406739e-05
1.73626560162e-10
7.31321328491e-05
1.91945336742e-10
7.31321237294e-05
2.09963399541e-10
7.31321131762e-05
2.27185063603e-10
7.31321011528e-05
2.42616717475e-10
7.31320876699e-05
2.54585158225e-10
7.31320727603e-05
2.60755099667e-10
7.31320564577e-05
2.57982801617e-10
7.31320388871e-05
2.42152990581e-10
7.31320205477e-05
2.0818359533e-10
7.31320027373e-05
1.50742181235e-10
7.31319725055e-05
6.38105073918e-11
7.31319180521e-05
-1.17364342962e-10
7.3131833682e-05
-4.60471222806e-10
7.31316947568e-05
-9.42030355185e-10
7.31314570642e-05
-1.63960307244e-09
7.31310490097e-05
-2.64241474342e-09
7.31303502196e-05
-4.08137327443e-09
7.31291589181e-05
-6.14888603763e-09
7.3127144942e-05
-9.13303230734e-09
7.31237676247e-05
-1.34547734381e-08
7.3118134405e-05
-1.97205582591e-08
7.31087812833e-05
-2.88293718895e-08
7.30933354662e-05
-4.21426579784e-08
7.30680217791e-05
-6.18054992222e-08
7.30267169425e-05
-9.07633035919e-08
7.29595973836e-05
-1.33268025792e-07
7.28511550042e-05
-1.95357589771e-07
7.26774140525e-05
-2.85087285329e-07
7.24025513932e-05
-4.12247294379e-07
7.19760796583e-05
-5.86696499885e-07
7.1333485974e-05
-8.1418683496e-07
7.04043034447e-05
-1.09052762582e-06
-1.39221683057e-06
6.91372031687e-05
5.07871726266e-05
5.43874007519e-11
5.29516500627e-05
5.27701422933e-11
5.59606891469e-05
2.87780179248e-11
5.92633233031e-05
1.42934511697e-11
6.24488106099e-05
2.95514396809e-12
6.52735516566e-05
-5.86830278397e-12
6.7633330912e-05
-1.17038218434e-11
6.95186646664e-05
-1.45859563829e-11
7.09734439679e-05
-1.49512299017e-11
7.20647804038e-05
-1.33966109383e-11
7.28642366684e-05
-1.05524437555e-11
7.34377659531e-05
-7.06894167358e-12
7.38413887827e-05
-3.60134257259e-12
7.41202305011e-05
-8.09819605467e-13
7.43092907303e-05
8.05461970848e-13
7.44349422956e-05
7.05604426813e-13
7.45165977855e-05
-1.27959023627e-12
7.45682634914e-05
-4.96227826597e-12
7.45998648465e-05
-9.72895583843e-12
7.46183168634e-05
-1.46478075177e-11
7.46283567298e-05
-1.86290886399e-11
7.46331736066e-05
-2.05808152415e-11
7.46348736662e-05
-2.02625514541e-11
7.4634819482e-05
-1.89074339955e-11
7.46338577871e-05
-1.67539550526e-11
7.46325132681e-05
-1.42517949347e-11
7.46310870334e-05
-1.12646798995e-11
7.46297419402e-05
-7.73796603784e-12
7.46285552841e-05
-3.47751728614e-12
7.46275536595e-05
1.38788776936e-12
7.4626735654e-05
6.14630694178e-12
7.46260846048e-05
1.16232782703e-11
7.46255777935e-05
1.75736421709e-11
7.46251911004e-05
2.39435156531e-11
7.46249017037e-05
3.08198310632e-11
7.4624689357e-05
3.83539082175e-11
7.46245367769e-05
4.6669571636e-11
7.4624429739e-05
5.58157530733e-11
7.46243601632e-05
6.58451090823e-11
7.46243126954e-05
7.58799414825e-11
7.46242823966e-05
8.62231587692e-11
7.46242640619e-05
9.7833728303e-11
7.46242535777e-05
1.1067912138e-10
7.46242479319e-05
1.24800164766e-10
7.46242450283e-05
1.40286669729e-10
7.4624243414e-05
1.57097490026e-10
7.46242420843e-05
1.75050338741e-10
7.46242403278e-05
1.93801567e-10
7.46242375797e-05
2.1278560253e-10
7.46242334934e-05
2.31292183899e-10
7.46242278372e-05
2.48230967917e-10
7.46242203435e-05
2.61990579158e-10
7.46242106127e-05
2.70386774592e-10
7.46241979717e-05
2.70554727386e-10
7.46241812477e-05
2.58866213803e-10
7.46241585121e-05
2.30967327976e-10
7.46241273553e-05
1.81979580734e-10
7.46240832868e-05
1.07959815391e-10
7.46240003498e-05
-3.43703495302e-11
7.46238503364e-05
-3.104322145e-10
7.46236124646e-05
-7.04152894824e-10
7.46232210995e-05
-1.24823843131e-09
7.4622577445e-05
-1.99875558887e-09
7.46215184077e-05
-3.02233120624e-09
7.46197781619e-05
-4.40866571303e-09
7.46169351801e-05
-6.29012705415e-09
7.46123124257e-05
-8.83213770415e-09
7.46048009588e-05
-1.22092119014e-08
7.4592598467e-05
-1.66269737581e-08
7.45728194553e-05
-2.23637066936e-08
7.45410415874e-05
-3.00276535681e-08
7.44901959413e-05
-3.99176489613e-08
7.44092043507e-05
-5.22764406494e-08
7.42811118715e-05
-6.72650929692e-08
7.40806279559e-05
-8.46033500606e-08
7.37714743706e-05
-1.03093672806e-07
7.3304702238e-05
-1.19924361312e-07
7.26203848682e-05
-1.29869512398e-07
7.16555508843e-05
-1.25693797986e-07
-9.87654257935e-08
7.03620992873e-05
5.07871715848e-05
-7.87117303046e-07