/*--------------------------------*- C++ -*----------------------------------*\
| =========                 |                                                 |
| \\      /  F ield         | OpenFOAM: The Open Source CFD Toolbox           |
|  \\    /   O peration     | Version:  2106                                  |
|   \\  /    A nd           | Website:  www.openfoam.com                      |
|    \\/     M anipulation  |                                                 |
\*---------------------------------------------------------------------------*/
FoamFile
{
    version     2.0;
    format      ascii;
    arch        "LSB;label=32;scalar=64";
    class       volVectorField;
    location    "0.2";
    object      U;
}
// * * * * * * * * * * * * * * * * * * * * * * * * * * * * * * * * * * * * * //

dimensions      [0 1 -1 0 0 0 0];

internalField   nonuniform List<vector> 
9600
(
(0.675396189468 0.157677429396 0)
(0.56382616202 0.102430799595 0)
(0.381538922252 0.0510646978934 0)
(0.283853189691 0.0244589917399 0)
(0.232281037263 0.0119348205683 0)
(0.201907711694 0.00623035685234 0)
(0.183178406907 0.00352192721522 0)
(0.171271988099 0.00212007575995 0)
(0.163512244664 0.00132523510646 0)
(0.158392663637 0.000841456511054 0)
(0.155010702445 0.00053413606686 0)
(0.152789987527 0.000335038837873 0)
(0.151348701345 0.000205520308871 0)
(0.150429254859 0.000121791995049 0)
(0.149856468922 6.84341342215e-05 0)
(0.149511132903 3.51735909559e-05 0)
(0.14931252322 1.50869044667e-05 0)
(0.149206472919 3.50367165865e-06 0)
(0.149157091787 -2.70731306311e-06 0)
(0.149140982029 -5.61226133292e-06 0)
(0.149143265813 -6.52805577445e-06 0)
(0.149154662674 -6.41810143632e-06 0)
(0.149169603076 -5.78163065492e-06 0)
(0.149184977002 -4.92844927195e-06 0)
(0.149199148299 -4.04340313704e-06 0)
(0.149211395579 -3.22407576683e-06 0)
(0.14922153296 -2.51478176889e-06 0)
(0.149229661489 -1.92806664437e-06 0)
(0.149236017283 -1.45830527869e-06 0)
(0.149240884059 -1.09145113263e-06 0)
(0.149244544359 -8.11315458033e-07 0)
(0.149247253155 -6.01795582368e-07 0)
(0.149249227565 -4.47640233348e-07 0)
(0.149250646257 -3.35849521867e-07 0)
(0.149251652133 -2.56169591567e-07 0)
(0.149252355657 -2.00178413382e-07 0)
(0.149252840076 -1.60718371184e-07 0)
(0.149253167978 -1.32019399542e-07 0)
(0.149253386439 -1.10525166338e-07 0)
(0.149253529907 -9.42744623973e-08 0)
(0.149253622245 -8.17939568053e-08 0)
(0.149253680504 -7.28039407463e-08 0)
(0.14925371599 -6.95312125528e-08 0)
(0.149253735237 -7.09295468417e-08 0)
(0.149253743355 -7.41813899308e-08 0)
(0.149253744805 -7.79801951894e-08 0)
(0.149253743132 -8.28304894878e-08 0)
(0.149253740627 -9.00151416495e-08 0)
(0.14925373767 -9.89998744772e-08 0)
(0.14925373363 -1.08785987661e-07 0)
(0.149253728861 -1.18884825721e-07 0)
(0.149253724382 -1.2921404727e-07 0)
(0.149253720609 -1.39782134089e-07 0)
(0.149253717739 -1.50728947243e-07 0)
(0.149253715821 -1.62259948222e-07 0)
(0.14925371441 -1.74688323064e-07 0)
(0.149253712793 -1.87909823685e-07 0)
(0.149253710386 -2.01461629222e-07 0)
(0.149253707494 -2.15633638449e-07 0)
(0.149253704748 -2.3162946445e-07 0)
(0.149253701517 -2.49696988538e-07 0)
(0.14925369663 -2.68511923967e-07 0)
(0.149253690907 -2.87542507032e-07 0)
(0.149253685952 -3.07724360537e-07 0)
(0.14925368088 -3.29058478651e-07 0)
(0.14925367459 -3.51137303408e-07 0)
(0.149253668619 -3.75356254747e-07 0)
(0.149253663703 -4.02870561596e-07 0)
(0.149253657629 -4.32193658435e-07 0)
(0.149253649249 -4.6139675917e-07 0)
(0.149253640851 -4.91335335836e-07 0)
(0.149253634423 -5.23967786776e-07 0)
(0.149253628534 -5.59050160637e-07 0)
(0.149253621728 -5.9560028807e-07 0)
(0.149253615046 -6.34004210918e-07 0)
(0.149253609001 -6.74740392534e-07 0)
(0.149253602868 -7.17762810942e-07 0)
(0.14925359573 -7.62522603227e-07 0)
(0.149253587354 -8.0881996224e-07 0)
(0.149253579394 -8.57652754071e-07 0)
(0.149253573402 -9.09962479191e-07 0)
(0.149253568736 -9.65434064889e-07 0)
(0.149253563327 -1.02252532827e-06 0)
(0.14925355696 -1.08087489099e-06 0)
(0.149253551602 -1.14231312549e-06 0)
(0.149253547633 -1.20753486674e-06 0)
(0.149253543978 -1.27509706057e-06 0)
(0.149253540327 -1.34457998214e-06 0)
(0.149253536963 -1.41742006559e-06 0)
(0.149253533197 -1.49390730785e-06 0)
(0.149253528674 -1.57323844475e-06 0)
(0.149253524476 -1.65542155978e-06 0)
(0.149253520836 -1.74028578694e-06 0)
(0.149253518123 -1.82722491122e-06 0)
(0.149253517577 -1.91679218964e-06 0)
(0.149253518458 -2.01008534638e-06 0)
(0.149253519577 -2.10685786736e-06 0)
(0.149253522976 -2.20639364608e-06 0)
(0.149253530488 -2.30800427484e-06 0)
(0.149253541525 -2.41106791968e-06 0)
(0.149253555736 -2.51554122565e-06 0)
(0.149253574514 -2.62196204741e-06 0)
(0.149253600763 -2.73077934463e-06 0)
(0.149253635273 -2.84129444284e-06 0)
(0.149253680011 -2.95385945966e-06 0)
(0.149253739176 -3.06933885923e-06 0)
(0.149253814138 -3.1871908548e-06 0)
(0.149253909059 -3.30786895437e-06 0)
(0.149254030297 -3.43288098907e-06 0)
(0.149254181375 -3.56496120123e-06 0)
(0.149254369293 -3.71073041341e-06 0)
(0.149254605433 -3.87078009208e-06 0)
(0.149254902184 -4.04404823441e-06 0)
(0.149255271553 -4.22879563915e-06 0)
(0.149255726934 -4.42180813327e-06 0)
(0.149256291069 -4.62311694482e-06 0)
(0.149256994338 -4.83705048795e-06 0)
(0.149257867407 -5.06670802402e-06 0)
(0.14925894804 -5.31162211157e-06 0)
(0.149260287096 -5.57201743637e-06 0)
(0.149261947013 -5.85068049185e-06 0)
(0.149264003755 -6.15445547969e-06 0)
(0.149266552205 -6.49161191355e-06 0)
(0.149269726059 -6.88745208887e-06 0)
(0.149273688543 -7.42219391134e-06 0)
(0.149278581845 -8.16919197149e-06 0)
(0.149284602304 -9.06663917376e-06 0)
(0.149292045338 -1.00872395997e-05 0)
(0.149301262625 -1.12342315007e-05 0)
(0.149312677211 -1.25196436929e-05 0)
(0.149326814344 -1.39633643025e-05 0)
(0.149344326036 -1.55938977085e-05 0)
(0.149366014976 -1.74448702772e-05 0)
(0.149392879855 -1.9559778727e-05 0)
(0.149426160913 -2.19927111421e-05 0)
(0.149467395552 -2.48109498394e-05 0)
(0.149518494967 -2.80980997754e-05 0)
(0.149581838144 -3.19634773102e-05 0)
(0.149660379231 -3.6543720411e-05 0)
(0.149757796843 -4.20072525904e-05 0)
(0.149878696037 -4.85772555277e-05 0)
(0.150028822525 -5.65337073032e-05 0)
(0.150215369245 -6.62291604824e-05 0)
(0.150447387875 -7.81236301252e-05 0)
(0.150736287107 -9.28053599492e-05 0)
(0.151096516649 -0.000111032618023 0)
(0.151546480693 -0.000133795869755 0)
(0.152109777112 -0.000162394699029 0)
(0.152816913147 -0.000198549650141 0)
(0.153707720022 -0.000244549357265 0)
(0.154834902735 -0.000303477316791 0)
(0.156269500983 -0.000379653543435 0)
(0.158110071602 -0.00047984090082 0)
(0.160501087176 -0.000617665444462 0)
(0.163676722534 -0.000830722203852 0)
(0.168070787124 -0.00124376776526 0)
(0.174656086704 -0.00229986116354 0)
(0.186332405517 -0.00565309264723 0)
(0.211945240083 -0.0176096774942 0)
(0.268507112857 -0.0616970699559 0)
(0.977201180063 0.296997118582 0)
(0.962687473751 0.250387257539 0)
(0.82064603016 0.158581015232 0)
(0.697824891159 0.0957993531336 0)
(0.610491672218 0.0579132746609 0)
(0.549133319494 0.0359038498129 0)
(0.506705987133 0.0229309371339 0)
(0.477662021805 0.0149788803261 0)
(0.457815304298 0.00990973113713 0)
(0.44427768146 0.00658330897446 0)
(0.43508723197 0.00436198781368 0)
(0.428895563885 0.00286682655358 0)
(0.424768048402 0.00185971997156 0)
(0.422054240225 0.00118457249658 0)
(0.420301059504 0.000736110935939 0)
(0.419193686866 0.000442159156974 0)
(0.418514617129 0.000252859365546 0)
(0.4181148406 0.000133737853726 0)
(0.417893381549 6.1050692481e-05 0)
(0.417782738626 1.85756214969e-05 0)
(0.417738481913 -4.63666008464e-06 0)
(0.417731945164 -1.60113226899e-05 0)
(0.417745161244 -2.03060866453e-05 0)
(0.417767185775 -2.06091765075e-05 0)
(0.417791636183 -1.88569621349e-05 0)
(0.417815049733 -1.62223455231e-05 0)
(0.417835767745 -1.33839452768e-05 0)
(0.417853199656 -1.07060199203e-05 0)
(0.417867349656 -8.35788955234e-06 0)
(0.417878522746 -6.39417549638e-06 0)
(0.417887149613 -4.80761299168e-06 0)
(0.417893685141 -3.55997874387e-06 0)
(0.417898553557 -2.59970456707e-06 0)
(0.41790212442 -1.873277111e-06 0)
(0.41790470648 -1.33228718256e-06 0)
(0.417906548597 -9.3558576023e-07 0)
(0.417907845033 -6.48527315808e-07 0)
(0.417908744071 -4.42641261298e-07 0)
(0.417909357726 -2.96287311442e-07 0)
(0.417909770145 -1.93962712929e-07 0)
(0.417910042186 -1.23789514725e-07 0)
(0.417910215996 -7.70370014931e-08 0)
(0.417910322828 -4.89151167046e-08 0)
(0.417910386235 -3.41888457396e-08 0)
(0.417910421261 -2.71259355008e-08 0)
(0.417910436996 -2.34691752368e-08 0)
(0.417910439877 -2.09209787706e-08 0)
(0.417910436355 -1.88117578841e-08 0)
(0.417910430548 -1.84009538053e-08 0)
(0.417910422811 -1.94065696888e-08 0)
(0.417910413442 -2.09817108638e-08 0)
(0.417910403603 -2.25471595862e-08 0)
(0.417910394038 -2.38327508712e-08 0)
(0.417910385246 -2.48190333499e-08 0)
(0.417910377313 -2.59168674962e-08 0)
(0.417910369887 -2.7866931494e-08 0)
(0.417910362546 -3.08887072392e-08 0)
(0.417910354109 -3.39583601659e-08 0)
(0.417910343614 -3.62947062991e-08 0)
(0.417910332056 -3.90754807305e-08 0)
(0.417910320974 -4.33149829736e-08 0)
(0.417910309728 -4.75701566058e-08 0)
(0.417910297273 -5.07162291727e-08 0)
(0.41791028474 -5.42833892164e-08 0)
(0.417910272095 -5.87457844288e-08 0)
(0.417910256914 -6.21882068725e-08 0)
(0.417910239518 -6.48853087582e-08 0)
(0.417910223155 -6.9492521249e-08 0)
(0.41791020826 -7.60266804691e-08 0)
(0.417910191785 -8.14313671638e-08 0)
(0.417910172744 -8.48323331585e-08 0)
(0.417910153924 -8.89083897429e-08 0)
(0.417910136141 -9.46238474533e-08 0)
(0.417910117242 -1.00308846001e-07 0)
(0.417910097179 -1.05553601642e-07 0)
(0.417910077227 -1.1101125295e-07 0)
(0.417910057768 -1.17615998091e-07 0)
(0.417910037773 -1.25296187363e-07 0)
(0.41791001535 -1.32325675299e-07 0)
(0.417909991297 -1.37934661544e-07 0)
(0.417909968593 -1.43678454721e-07 0)
(0.417909948653 -1.51715718925e-07 0)
(0.417909929198 -1.61238157326e-07 0)
(0.417909907141 -1.70098907568e-07 0)
(0.417909883675 -1.78977884775e-07 0)
(0.417909862074 -1.88954783324e-07 0)
(0.417909842553 -1.98860360911e-07 0)
(0.417909822858 -2.07894268072e-07 0)
(0.417909802746 -2.17709901647e-07 0)
(0.417909783021 -2.29116765383e-07 0)
(0.417909763282 -2.41316697669e-07 0)
(0.417909744241 -2.5447364079e-07 0)
(0.417909727394 -2.68145455968e-07 0)
(0.41790971362 -2.81264287606e-07 0)
(0.417909703302 -2.95341282101e-07 0)
(0.417909696115 -3.12342934091e-07 0)
(0.417909692171 -3.31070833937e-07 0)
(0.417909694504 -3.50812222408e-07 0)
(0.417909706436 -3.72976035232e-07 0)
(0.417909729054 -3.99576378724e-07 0)
(0.417909762768 -4.30770192427e-07 0)
(0.417909809466 -4.66051786231e-07 0)
(0.417909874535 -5.06889143469e-07 0)
(0.417909961376 -5.52464513292e-07 0)
(0.417910074065 -6.01994922477e-07 0)
(0.417910222041 -6.58242419697e-07 0)
(0.417910412256 -7.21209631958e-07 0)
(0.417910653174 -7.90782026062e-07 0)
(0.417910956921 -8.68815169221e-07 0)
(0.417911332132 -9.52331345287e-07 0)
(0.417911799704 -1.03159429253e-06 0)
(0.41791239201 -1.11140974556e-06 0)
(0.417913141112 -1.20385038214e-06 0)
(0.417914082759 -1.3174168561e-06 0)
(0.417915256022 -1.45350559439e-06 0)
(0.417916711385 -1.61379562476e-06 0)
(0.417918519161 -1.80908714239e-06 0)
(0.417920766075 -2.05172177452e-06 0)
(0.41792355665 -2.35258674182e-06 0)
(0.41792701912 -2.72510375251e-06 0)
(0.417931309168 -3.18751297263e-06 0)
(0.417936621413 -3.76704455044e-06 0)
(0.417943194366 -4.49580698786e-06 0)
(0.417951308682 -5.41999913033e-06 0)
(0.417961327915 -6.63916327696e-06 0)
(0.417973765892 -8.2653836527e-06 0)
(0.417989235531 -1.03276256994e-05 0)
(0.418008433228 -1.28942041476e-05 0)
(0.418032236515 -1.60749513648e-05 0)
(0.418061737217 -2.00070902385e-05 0)
(0.418098290234 -2.486525461e-05 0)
(0.418143580349 -3.08711215178e-05 0)
(0.418199690752 -3.82932040346e-05 0)
(0.418269207081 -4.74651837273e-05 0)
(0.418355340009 -5.88043093728e-05 0)
(0.418462071896 -7.2826353565e-05 0)
(0.418594347061 -9.01686643783e-05 0)
(0.418758316359 -0.000111634617874 0)
(0.418961633009 -0.000138228763052 0)
(0.419213817793 -0.000171198325195 0)
(0.419526763003 -0.000212127564494 0)
(0.41991533517 -0.000263018515879 0)
(0.420398142634 -0.000326404447269 0)
(0.420998576031 -0.000405529884176 0)
(0.421746135877 -0.00050456632569 0)
(0.422678188504 -0.000628928149497 0)
(0.423842340064 -0.000785714587936 0)
(0.425299692803 -0.000984358537442 0)
(0.427129423177 -0.00123762467623 0)
(0.429435407883 -0.00156316484851 0)
(0.432356245989 -0.00198617648827 0)
(0.436081245267 -0.00254442647668 0)
(0.440877504434 -0.00329884309713 0)
(0.447139699744 -0.0043589350664 0)
(0.455488413977 -0.00595037055054 0)
(0.466958452776 -0.00860163548266 0)
(0.483352903122 -0.0136622147531 0)
(0.508145411772 -0.0247994963247 0)
(0.548119738702 -0.0522786951656 0)
(0.607749355358 -0.121108916668 0)
(1.03387038742 0.239240971128 0)
(1.08314082584 0.293634370864 0)
(1.03294438209 0.239131929749 0)
(0.954408204348 0.174539023784 0)
(0.880112585535 0.121551465607 0)
(0.818677618842 0.0832335931777 0)
(0.77146679378 0.0568258125227 0)
(0.736691571656 0.0388125747677 0)
(0.711672100826 0.0264913182723 0)
(0.693953130615 0.0180235755917 0)
(0.681568203416 0.0121876203712 0)
(0.673018603825 0.00816650409242 0)
(0.667192237434 0.00540556615642 0)
(0.663277755964 0.00352226319023 0)
(0.660690318951 0.00224961210682 0)
(0.659012744707 0.00140002736244 0)
(0.6579505363 0.000841454768265 0)
(0.657298081803 0.000481121418733 0)
(0.656913536934 0.000254192703867 0)
(0.656700345686 0.000115709914279 0)
(0.656593739112 3.47954620914e-05 0)
(0.656551027295 -9.46590236547e-06 0)
(0.656544684494 -3.10087621222e-05 0)
(0.65655738217 -3.90716951852e-05 0)
(0.656578565965 -3.95448669959e-05 0)
(0.656602089356 -3.61184009567e-05 0)
(0.656624618211 -3.10291453739e-05 0)
(0.656644555218 -2.55675516619e-05 0)
(0.656661330626 -2.04231428757e-05 0)
(0.65667494712 -1.59158306121e-05 0)
(0.656685698313 -1.21489483834e-05 0)
(0.656693999289 -9.10680264045e-06 0)
(0.656700287927 -6.71413875328e-06 0)
(0.656704972397 -4.87162346414e-06 0)
(0.65670840838 -3.47800295222e-06 0)
(0.656710892585 -2.44153423176e-06 0)
(0.656712663938 -1.68337105806e-06 0)
(0.656713909109 -1.13755770847e-06 0)
(0.656714771041 -7.50359629941e-07 0)
(0.656715358558 -4.80215314803e-07 0)
(0.656715752756 -2.95719744182e-07 0)
(0.656716011932 -1.72323677817e-07 0)
(0.656716177895 -9.09184763131e-08 0)
(0.656716280768 -3.86990148631e-08 0)
(0.656716341886 -6.85478289709e-09 0)
(0.656716375829 1.16993375027e-08 0)
(0.656716392301 2.28222455833e-08 0)
(0.656716396968 3.04457137155e-08 0)
(0.656716393656 3.48970262147e-08 0)
(0.656716385519 3.71373637908e-08 0)
(0.656716374652 3.90906535559e-08 0)
(0.656716362869 4.14774232846e-08 0)
(0.656716351144 4.4793247034e-08 0)
(0.656716339925 4.90340559614e-08 0)
(0.656716329028 5.37715201342e-08 0)
(0.656716317951 5.83166664286e-08 0)
(0.656716306912 6.18418667651e-08 0)
(0.656716295785 6.47574553127e-08 0)
(0.656716283173 6.8755662291e-08 0)
(0.656716268682 7.45229671898e-08 0)
(0.656716254089 8.07005239308e-08 0)
(0.656716239908 8.67299721545e-08 0)
(0.656716224497 9.36779429741e-08 0)
(0.656716208038 1.00798278768e-07 0)
(0.65671619198 1.06623831651e-07 0)
(0.656716175096 1.12957075577e-07 0)
(0.656716155403 1.22267448004e-07 0)
(0.656716134073 1.33041284001e-07 0)
(0.656716113613 1.423669673e-07 0)
(0.656716093697 1.50814552999e-07 0)
(0.656716071914 1.61029930614e-07 0)
(0.656716048459 1.72891557658e-07 0)
(0.65671602506 1.8461334932e-07 0)
(0.656716001231 1.96566944662e-07 0)
(0.65671597645 2.10016547592e-07 0)
(0.656715950798 2.25262511727e-07 0)
(0.656715924426 2.41109851346e-07 0)
(0.656715898065 2.55934537038e-07 0)
(0.65671587138 2.71018675634e-07 0)
(0.656715843552 2.89090720128e-07 0)
(0.656715814532 3.10194970594e-07 0)
(0.656715785776 3.31098355332e-07 0)
(0.656715758144 3.49837429861e-07 0)
(0.656715729829 3.68613045796e-07 0)
(0.656715700222 3.89903320619e-07 0)
(0.656715671502 4.13271706694e-07 0)
(0.656715644926 4.37418948957e-07 0)
(0.656715618924 4.62954153035e-07 0)
(0.65671559266 4.9038023989e-07 0)
(0.656715566675 5.18853354531e-07 0)
(0.656715540603 5.47962530964e-07 0)
(0.656715515538 5.77608579015e-07 0)
(0.65671549388 6.084167097e-07 0)
(0.656715476294 6.41054220751e-07 0)
(0.656715462682 6.7415236568e-07 0)
(0.656715453946 7.06231244859e-07 0)
(0.656715450642 7.38808587334e-07 0)
(0.656715454341 7.73364181468e-07 0)
(0.65671546765 8.09386963288e-07 0)
(0.656715494125 8.46903606865e-07 0)
(0.65671553803 8.85064663321e-07 0)
(0.656715601667 9.23025256042e-07 0)
(0.656715690869 9.57788489293e-07 0)
(0.656715812684 9.88209428793e-07 0)
(0.656715972286 1.01547683212e-06 0)
(0.656716180957 1.03582238046e-06 0)
(0.6567164516 1.0463351593e-06 0)
(0.65671679756 1.04609984032e-06 0)
(0.656717240517 1.03072154722e-06 0)
(0.656717809305 9.9673130603e-07 0)
(0.656718525961 9.47889913068e-07 0)
(0.656719410884 8.78770946629e-07 0)
(0.656720505021 7.76146512446e-07 0)
(0.656721866733 6.21958730456e-07 0)
(0.656723561657 4.0083783749e-07 0)
(0.656725664541 9.95028493154e-08 0)
(0.656728271983 -3.0332880577e-07 0)
(0.656731506057 -8.36739480427e-07 0)
(0.656735516225 -1.53662302732e-06 0)
(0.656740487234 -2.44722502865e-06 0)
(0.6567466436 -3.62001227657e-06 0)
(0.656754266504 -5.12053230965e-06 0)
(0.656763711093 -7.03286403592e-06 0)
(0.656775408594 -9.45613367425e-06 0)
(0.656789887403 -1.25014354802e-05 0)
(0.656807812726 -1.63150337537e-05 0)
(0.65683000668 -2.11203571022e-05 0)
(0.65685748317 -2.7175689211e-05 0)
(0.656891510131 -3.47953746748e-05 0)
(0.65693365346 -4.4366879205e-05 0)
(0.656985846445 -5.63676276916e-05 0)
(0.657050492196 -7.13944112803e-05 0)
(0.657130566143 -9.01831630535e-05 0)
(0.657229754123 -0.000113646198534 0)
(0.657352631564 -0.000142921615947 0)
(0.657504878616 -0.000179421409328 0)
(0.657693541595 -0.000224898987762 0)
(0.657927377289 -0.000281544047235 0)
(0.658217285046 -0.000352098440539 0)
(0.658576817548 -0.000439985079917 0)
(0.659022874337 -0.000549507595869 0)
(0.659576565776 -0.000686106255874 0)
(0.660264291584 -0.000856670072221 0)
(0.661119176287 -0.0010699816027 0)
(0.662182910473 -0.00133732560041 0)
(0.663508179684 -0.00167333222862 0)
(0.665161917841 -0.00209717141217 0)
(0.667229714357 -0.00263431493799 0)
(0.669821961001 -0.00331924329909 0)
(0.673082626216 -0.0041997515422 0)
(0.67720218822 -0.00534422291099 0)
(0.682437470169 -0.00685484182723 0)
(0.68914307726 -0.00889331141776 0)
(0.697822732256 -0.0117343457899 0)
(0.709214359808 -0.0158834500866 0)
(0.724416062893 -0.0223418948816 0)
(0.745013589064 -0.0331820670357 0)
(0.773160231488 -0.0527228907718 0)
(0.811110649545 -0.0897547527965 0)
(0.855089832668 -0.159181147001 0)
(1.03384127634 0.171306957158 0)
(1.10231585106 0.275556744838 0)
(1.11663621781 0.266312366865 0)
(1.09207924798 0.219892604702 0)
(1.05195419916 0.168210319362 0)
(1.01022221657 0.123615337026 0)
(0.973507720114 0.0888850593843 0)
(0.94388594644 0.0630494632276 0)
(0.921162799473 0.0442607994123 0)
(0.904299826074 0.0307744345444 0)
(0.892086140056 0.0211830159411 0)
(0.883411240677 0.0144173003206 0)
(0.877355072776 0.00968544362911 0)
(0.873196228407 0.00640758886513 0)
(0.870388078074 0.00416172475506 0)
(0.868526273443 0.00264232156455 0)
(0.86731731595 0.00162947578049 0)
(0.866551602493 0.00096602228149 0)
(0.866081675398 0.000540569485911 0)
(0.865805318077 0.000274924125951 0)
(0.865652744908 0.000114789025229 0)
(0.865577114865 2.29530635496e-05 0)
(0.865547503174 -2.57281052596e-05 0)
(0.865543965264 -4.80474448045e-05 0)
(0.865554012739 -5.49273517527e-05 0)
(0.865570015989 -5.33295886797e-05 0)
(0.865587552937 -4.75771206621e-05 0)
(0.865604242105 -4.02498256292e-05 0)
(0.865618955246 -3.28028592323e-05 0)
(0.865631302305 -2.59854317729e-05 0)
(0.865641303776 -2.01189686653e-05 0)
(0.865649187788 -1.52785253304e-05 0)
(0.865655267094 -1.14074881092e-05 0)
(0.865659867288 -8.38716207976e-06 0)
(0.865663289916 -6.07813395874e-06 0)
(0.865665797166 -4.34395003526e-06 0)
(0.865667607327 -3.06286894994e-06 0)
(0.865668895925 -2.13130225638e-06 0)
(0.865669799995 -1.4634071001e-06 0)
(0.865670424827 -9.91047859111e-07 0)
(0.865670850234 -6.62266074752e-07 0)
(0.865671134796 -4.37192655991e-07 0)
(0.865671320581 -2.85484880603e-07 0)
(0.865671437895 -1.8507061753e-07 0)
(0.865671508759 -1.20418385285e-07 0)
(0.86567154886 -8.05396646301e-08 0)
(0.865671568624 -5.72041413996e-08 0)
(0.865671574783 -4.47020998669e-08 0)
(0.865671572412 -3.86609443387e-08 0)
(0.865671565283 -3.63425480575e-08 0)
(0.865671555122 -3.55542417479e-08 0)
(0.865671543256 -3.55792942971e-08 0)
(0.865671530768 -3.68536082238e-08 0)
(0.865671518089 -3.92261586312e-08 0)
(0.865671505153 -4.25504599112e-08 0)
(0.865671491159 -4.68613645067e-08 0)
(0.86567147626 -5.23652880567e-08 0)
(0.865671461217 -5.95573957084e-08 0)
(0.865671445341 -6.77320748906e-08 0)
(0.865671427369 -7.49242874512e-08 0)
(0.865671408176 -8.1111092511e-08 0)
(0.865671389257 -8.76660116328e-08 0)
(0.865671369372 -9.42933041837e-08 0)
(0.865671347468 -1.00648467786e-07 0)
(0.865671325226 -1.08407020337e-07 0)
(0.865671303089 -1.18056631009e-07 0)
(0.86567127878 -1.27349335614e-07 0)
(0.865671251398 -1.34934215546e-07 0)
(0.865671223119 -1.42485037319e-07 0)
(0.865671195496 -1.51648600118e-07 0)
(0.865671167098 -1.61294244098e-07 0)
(0.865671136977 -1.70339594694e-07 0)
(0.86567110601 -1.79973037612e-07 0)
(0.865671074267 -1.90910195559e-07 0)
(0.865671041769 -2.02571964597e-07 0)
(0.865671008308 -2.13821777844e-07 0)
(0.865670973004 -2.24166096791e-07 0)
(0.865670936554 -2.35237444598e-07 0)
(0.865670900196 -2.48451533548e-07 0)
(0.8656708638 -2.63230336345e-07 0)
(0.865670825869 -2.77760642624e-07 0)
(0.865670786229 -2.9189516091e-07 0)
(0.865670746647 -3.07815581316e-07 0)
(0.865670707388 -3.25776694917e-07 0)
(0.865670667634 -3.43779510613e-07 0)
(0.865670627898 -3.61720076782e-07 0)
(0.865670589634 -3.81426217321e-07 0)
(0.865670552623 -4.02772209689e-07 0)
(0.8656705159 -4.24990715758e-07 0)
(0.865670479386 -4.49110505289e-07 0)
(0.865670442806 -4.75426127142e-07 0)
(0.865670407656 -5.03185486026e-07 0)
(0.86567037675 -5.32756362868e-07 0)
(0.865670350605 -5.65421952669e-07 0)
(0.865670328726 -6.02452275723e-07 0)
(0.865670312929 -6.4513592128e-07 0)
(0.86567030553 -6.9296720632e-07 0)
(0.865670309002 -7.44598922964e-07 0)
(0.865670327407 -8.00603375714e-07 0)
(0.865670363651 -8.61758972488e-07 0)
(0.865670419437 -9.2996464693e-07 0)
(0.865670496537 -1.00597412434e-06 0)
(0.865670601915 -1.09186915986e-06 0)
(0.865670745715 -1.19108702211e-06 0)
(0.865670934593 -1.30482745804e-06 0)
(0.865671180037 -1.4373039893e-06 0)
(0.865671498033 -1.59450511233e-06 0)
(0.865671904169 -1.78042362155e-06 0)
(0.865672418075 -2.0024876123e-06 0)
(0.865673066172 -2.27521695562e-06 0)
(0.865673881809 -2.6194044547e-06 0)
(0.865674903041 -3.04606831022e-06 0)
(0.865676175506 -3.5652370675e-06 0)
(0.865677760944 -4.19765260314e-06 0)
(0.865679736417 -4.97280357475e-06 0)
(0.86568219089 -5.9235764499e-06 0)
(0.865685235667 -7.09067941819e-06 0)
(0.865689011887 -8.52610609234e-06 0)
(0.865693693961 -1.02940377557e-05 0)
(0.865699499251 -1.24756752774e-05 0)
(0.865706692194 -1.51677836386e-05 0)
(0.865715599377 -1.84896252987e-05 0)
(0.865726632087 -2.25965017471e-05 0)
(0.865740297194 -2.76843712512e-05 0)
(0.865757217863 -3.39915442628e-05 0)
(0.865778169328 -4.18089433047e-05 0)
(0.86580411097 -5.14940867982e-05 0)
(0.865836226823 -6.34812916439e-05 0)
(0.865875990539 -7.83174791807e-05 0)
(0.865925228088 -9.66883092385e-05 0)
(0.865986195001 -0.000119438353827 0)
(0.866061692396 -0.000147620793042 0)
(0.866155190671 -0.000182546386564 0)
(0.866270985411 -0.000225840420539 0)
(0.866414407417 -0.000279523556467 0)
(0.866592073984 -0.000346111766656 0)
(0.86681219023 -0.000428737122279 0)
(0.867084941705 -0.000531302153652 0)
(0.867422996517 -0.000658693443036 0)
(0.867842097851 -0.000817023367739 0)
(0.868361841001 -0.00101396184673 0)
(0.86900666205 -0.00125918754537 0)
(0.869807063885 -0.00156494382772 0)
(0.870801210303 -0.00194680827678 0)
(0.872036969645 -0.00242473806617 0)
(0.873574576043 -0.00302450882523 0)
(0.875490134629 -0.00377976519537 0)
(0.877880271936 -0.00473499215798 0)
(0.880868442374 -0.00594999612821 0)
(0.884613620377 -0.0075069205549 0)
(0.889322435509 -0.00952172516086 0)
(0.895266368468 -0.0121639615787 0)
(0.902806057453 -0.0156925727893 0)
(0.912424289326 -0.0205232821868 0)
(0.92476585827 -0.0273588041893 0)
(0.940662573378 -0.0374398574997 0)
(0.96105613346 -0.0529955564789 0)
(0.986647112748 -0.0779161195852 0)
(1.01681686502 -0.1184083874 0)
(1.04554516488 -0.181838542829 0)
(1.02388345155 0.119321989481 0)
(1.08875436145 0.231514427932 0)
(1.13660484067 0.252868936733 0)
(1.1540627321 0.228905046849 0)
(1.15000112679 0.188337387453 0)
(1.13537623851 0.146577293199 0)
(1.11757777812 0.110164819949 0)
(1.10059199662 0.0808376067046 0)
(1.08612241028 0.0582502025358 0)
(1.07458761881 0.041341786904 0)
(1.06578679846 0.0289362842887 0)
(1.05928156982 0.0199770220355 0)
(1.05459133331 0.0135949315096 0)
(1.05128027736 0.00910742810211 0)
(1.04898737191 0.00599313302655 0)
(1.04742906292 0.00386144013171 0)
(1.04639046949 0.00242413448434 0)
(1.04571300138 0.00147134511448 0)
(1.04528207049 0.000852132197391 0)
(1.04501638895 0.000459259905567 0)
(1.04485926711 0.00021748720902 0)
(1.0447718399 7.47153561246e-05 0)
(1.04472786097 -4.64916847807e-06 0)
(1.04470999551 -4.44485522336e-05 0)
(1.04470706894 -6.05382494523e-05 0)
(1.04471199136 -6.30958564613e-05 0)
(1.04472043136 -5.85470776779e-05 0)
(1.04472987206 -5.08144708989e-05 0)
(1.04473894604 -4.21833383058e-05 0)
(1.04474699311 -3.38966128424e-05 0)
(1.04475377278 -2.6552494244e-05 0)
(1.04475928043 -2.03665518499e-05 0)
(1.04476363212 -1.53413926371e-05 0)
(1.04476699402 -1.1371480922e-05 0)
(1.04476954166 -8.30512529556e-06 0)
(1.04477143906 -5.98108383057e-06 0)
(1.04477282987 -4.24881834839e-06 0)
(1.0447738346 -2.97751560957e-06 0)
(1.0447745501 -2.05783671107e-06 0)
(1.04477505192 -1.40156558964e-06 0)
(1.04477539856 -9.39990736617e-07 0)
(1.04477563433 -6.20306712826e-07 0)
(1.04477579148 -4.02013146495e-07 0)
(1.04477589294 -2.5473542593e-07 0)
(1.04477595561 -1.56493745746e-07 0)
(1.04477599225 -9.20375630078e-08 0)
(1.0447760116 -5.06368493966e-08 0)
(1.04477601879 -2.4391337514e-08 0)
(1.04477601747 -7.91145872646e-09 0)
(1.04477601072 1.98729477299e-09 0)
(1.04477600035 7.65609601129e-09 0)
(1.04477598722 1.12230910324e-08 0)
(1.0447759726 1.36808248898e-08 0)
(1.04477595776 1.50154463493e-08 0)
(1.04477594257 1.49045736167e-08 0)
(1.04477592621 1.44610098007e-08 0)
(1.04477590848 1.47782835314e-08 0)
(1.04477589012 1.47121959582e-08 0)
(1.04477587185 1.35234114357e-08 0)
(1.04477585278 1.24271437458e-08 0)
(1.04477583221 1.24150693125e-08 0)
(1.04477581109 1.23991189501e-08 0)
(1.04477578909 1.20855424968e-08 0)
(1.04477576477 1.29171710977e-08 0)
(1.04477573883 1.43989957589e-08 0)
(1.0447757129 1.46292503898e-08 0)
(1.04477568638 1.40774265536e-08 0)
(1.04477565742 1.49573906883e-08 0)
(1.04477562616 1.75006579215e-08 0)
(1.0447755946 2.00520730767e-08 0)
(1.04477556281 2.26205904715e-08 0)
(1.04477552918 2.60467995789e-08 0)
(1.04477549368 2.95275459939e-08 0)
(1.04477545685 3.26132887453e-08 0)
(1.04477541955 3.54185769184e-08 0)
(1.04477538218 3.8288209513e-08 0)
(1.04477534305 4.23728405045e-08 0)
(1.04477530143 4.77979144945e-08 0)
(1.04477525853 5.30191869542e-08 0)
(1.04477521584 5.66102792377e-08 0)
(1.04477517284 5.96254203906e-08 0)
(1.0447751278 6.40833132548e-08 0)
(1.0447750813 6.95025138465e-08 0)
(1.04477503493 7.45575552096e-08 0)
(1.04477498857 7.94741863816e-08 0)
(1.0447749415 8.49181092887e-08 0)
(1.04477489497 9.03123152157e-08 0)
(1.04477484975 9.52770669163e-08 0)
(1.04477480462 9.986577743e-08 0)
(1.04477475925 1.0332310967e-07 0)
(1.04477471424 1.06070595509e-07 0)
(1.04477467092 1.08960262793e-07 0)
(1.04477463071 1.10576310656e-07 0)
(1.04477459381 1.09275902847e-07 0)
(1.04477456034 1.04919001904e-07 0)
(1.04477453294 9.65665216038e-08 0)
(1.04477451445 8.31854883469e-08 0)
(1.04477450612 6.43867587262e-08 0)
(1.04477450993 3.81832051143e-08 0)
(1.04477452929 2.28982064234e-10 0)
(1.04477456963 -5.33082588185e-08 0)
(1.04477463455 -1.22279353437e-07 0)
(1.04477472929 -2.07661265978e-07 0)
(1.0447748642 -3.15888669492e-07 0)
(1.04477504706 -4.51872663315e-07 0)
(1.04477528828 -6.21072567641e-07 0)
(1.04477560514 -8.322736975e-07 0)
(1.04477601576 -1.09441504988e-06 0)
(1.04477653972 -1.41826038883e-06 0)
(1.04477720251 -1.8166829661e-06 0)
(1.04477803814 -2.3081883927e-06 0)
(1.0447790878 -2.91663188276e-06 0)
(1.04478039971 -3.6662496944e-06 0)
(1.04478203552 -4.58740225442e-06 0)
(1.04478407478 -5.7236677504e-06 0)
(1.04478661166 -7.12711419048e-06 0)
(1.04478976181 -8.85960937359e-06 0)
(1.04479367182 -1.09975347985e-05 0)
(1.04479852193 -1.36346722037e-05 0)
(1.04480453776 -1.68906256744e-05 0)
(1.04481199651 -2.09133359629e-05 0)
(1.04482123683 -2.58819509252e-05 0)
(1.0448326837 -3.20226597898e-05 0)
(1.04484686367 -3.96187142093e-05 0)
(1.04486442368 -4.9021059273e-05 0)
(1.0448861672 -6.06625831057e-05 0)
(1.04491309131 -7.50765732349e-05 0)
(1.04494642527 -9.29179646402e-05 0)
(1.04498769393 -0.000115001523507 0)
(1.04503879144 -0.000142342442222 0)
(1.04510205843 -0.000176191925512 0)
(1.04518039586 -0.00021810495058 0)
(1.04527739934 -0.000270018847868 0)
(1.04539752034 -0.00033433252283 0)
(1.04554627623 -0.000414024943032 0)
(1.04573051137 -0.000512806293594 0)
(1.04595871072 -0.000635293942504 0)
(1.04624139156 -0.000787236123081 0)
(1.04659161768 -0.000975818072536 0)
(1.04702560711 -0.00121002671387 0)
(1.04756350028 -0.00150112254844 0)
(1.04823035149 -0.00186327816466 0)
(1.04905734463 -0.00231438830614 0)
(1.05008334228 -0.00287715293396 0)
(1.05135685399 -0.0035805389017 0)
(1.05293853762 -0.00446177772389 0)