/*--------------------------------*- C++ -*----------------------------------*\
| =========                 |                                                 |
| \\      /  F ield         | OpenFOAM: The Open Source CFD Toolbox           |
|  \\    /   O peration     | Version:  2106                                  |
|   \\  /    A nd           | Website:  www.openfoam.com                      |
|    \\/     M anipulation  |                                                 |
\*---------------------------------------------------------------------------*/
FoamFile
{
    version     2.0;
    format      ascii;
    arch        "LSB;label=32;scalar=64";
    class       volScalarField;
    location    "0.06";
    object      p;
}
// * * * * * * * * * * * * * * * * * * * * * * * * * * * * * * * * * * * * * //

dimensions      [0 2 -2 0 0 0 0];

internalField   nonuniform List<scalar> 
9600
(
2.29514624954
-0.602860555849
-1.50708613504
-1.89267662675
-2.11197439023
-2.2518648445
-2.35569723711
-2.44315316297
-2.52254224429
-2.59781316208
-2.67106910668
-2.74347428421
-2.81567238538
-2.88800733174
-2.96064614648
-3.03365221634
-3.10702874483
-3.18074678678
-3.2547610966
-3.32902449249
-3.40348742152
-3.47810350898
-3.55283558727
-3.62765196016
-3.70252678438
-3.77744010112
-3.85237643768
-3.92732416087
-4.00227487391
-4.07722241044
-4.15216243539
-4.2270918236
-4.30200756479
-4.37690919909
-4.45179450024
-4.52666174375
-4.60150907704
-4.67633525834
-4.7511388429
-4.82591766431
-4.90066927805
-4.97539115245
-5.05008066905
-5.12473501885
-5.19935107011
-5.27392547185
-5.34845489971
-5.42293585398
-5.49736433
-5.5717357272
-5.64604507231
-5.72028720462
-5.79445668291
-5.86854763884
-5.94255385168
-6.01646880414
-6.09028540803
-6.16399576068
-6.23759142536
-6.31106364997
-6.38440328492
-6.45760060675
-6.53064518376
-6.60352587717
-6.67623082014
-6.74874730549
-6.82106170714
-6.89315959541
-6.96502590373
-7.03664484095
-7.10799962975
-7.17907237184
-7.2498441497
-7.32029509787
-7.39040426861
-7.46014943558
-7.52950703708
-7.5984522289
-7.66695893024
-7.73499982338
-7.80254631462
-7.86956841227
-7.93603453248
-8.00191138265
-8.06716403828
-8.13175610382
-8.19564971909
-8.25880536904
-8.3211817135
-8.38273561362
-8.44342226923
-8.50319525732
-8.56200638467
-8.61980547919
-8.67654032317
-8.73215671548
-8.78659845983
-8.83980725027
-8.89172261692
-8.94228212842
-8.99142172955
-9.03907576853
-9.08517672511
-9.12965475058
-9.17243763344
-9.21345103355
-9.25261880903
-9.28986314913
-9.32510437379
-9.35826097622
-9.38924975419
-9.41798593249
-9.44438306341
-9.46835291038
-9.48980569817
-9.50865042134
-9.52479482018
-9.53814507642
-9.54860576849
-9.55608027878
-9.56047133456
-9.56168108088
-9.5596109123
-9.55416159977
-9.54523377815
-9.53272716254
-9.516540139
-9.4965711068
-9.47271832488
-9.44487993442
-9.41295415294
-9.37683925575
-9.3364327628
-9.2916308816
-9.24232907885
-9.1884226713
-9.1298059268
-9.06637079028
-8.99800656811
-8.92459929554
-8.84602998169
-8.76217325747
-8.67289588159
-8.57805283982
-8.47748313709
-8.37100737583
-8.2584219391
-8.13948775367
-8.01391849415
-7.88136473938
-7.74138685256
-7.59341290586
-7.43666630061
-7.27003533759
-7.09185010199
-6.89954807188
-6.68916337038
-6.45449793847
-6.195067184
-5.98385333353
0.383603228976
-0.798746342559
-1.40741728776
-1.76142911509
-2.00402427577
-2.17455297872
-2.30257596005
-2.40701427079
-2.49801285226
-2.58120720852
-2.65989630363
-2.73603992188
-2.81080892321
-2.88490209722
-2.95873090939
-3.0325295546
-3.10642192361
-3.18046470541
-3.25467601515
-3.32904753099
-3.40356310351
-3.47819887481
-3.55293133873
-3.62773764004
-3.70259824449
-3.77749683686
-3.85241975957
-3.92735624189
-4.00229827767
-4.07723934624
-4.15217453275
-4.22710083897
-4.3020148636
-4.3769151441
-4.45179986683
-4.52666707192
-4.60151475769
-4.67634150871
-4.75114560877
-4.82592505055
-4.90067739408
-4.97539999237
-5.05009022579
-5.12474532717
-5.19936219917
-5.27393758392
-5.34846817772
-5.42295039271
-5.49738013949
-5.57175278502
-5.64606345498
-5.7203070253
-5.79447801503
-5.86857058802
-5.94257864259
-6.01649563619
-6.09031431467
-6.16402675825
-6.23762463714
-6.31109930237
-6.38444162132
-6.45764180144
-6.53068939975
-6.60357333781
-6.67628176214
-6.7488018874
-6.82112004101
-6.89322188355
-6.96509246609
-7.03671598407
-7.10807557487
-7.17915333016
-7.24993041128
-7.32038700815
-7.39050215229
-7.46025358615
-7.52961775049
-7.59856982186
-7.66708374251
-7.73513223998
-7.80268677599
-7.86971736073
-7.93619233961
-8.00207835597
-8.06734051544
-8.13194252575
-8.19584659267
-8.25901317422
-8.32140087693
-8.38296657684
-8.44366555277
-8.5034514207
-8.56227592562
-8.62008881746
-8.67683789834
-8.73246906298
-8.78692616626
-8.84015083903
-8.89208250143
-8.94265874727
-8.99181570533
-9.03948782129
-9.08560751031
-9.13010473331
-9.17290718475
-9.21394062669
-9.25312903978
-9.29039461398
-9.32565756172
-9.35883621477
-9.38984724324
-9.4186060097
-9.44502612381
-9.46901932082
-9.49049584218
-9.50936476336
-9.52553382568
-9.5389090592
-9.549394951
-9.55689505012
-9.56131233206
-9.56254895522
-9.56050623755
-9.55508484659
-9.54618447906
-9.53370480813
-9.51754538404
-9.49760489355
-9.47378230406
-9.44597682711
-9.41408737887
-9.37801235485
-9.33764976282
-9.29289759974
-9.24365383874
-9.18981562234
-9.13127869417
-9.06793802178
-8.99968764821
-8.92641840189
-8.84801651272
-8.76436427552
-8.67533846955
-8.58080596177
-8.48062163206
-8.37462780545
-8.26264881259
-8.14448243572
-8.01989339528
-7.88860496983
-7.75028555246
-7.60453010526
-7.4508361778
-7.28858157397
-7.1170151814
-6.93535129941
-6.74312648972
-6.54016529367
-6.3275914548
-6.1316941267
-0.592244161573
-1.07360681743
-1.46486380421
-1.75647290524
-1.97803398885
-2.14594784335
-2.27801735488
-2.38776131835
-2.48356438778
-2.57064674615
-2.65232577314
-2.73070437655
-2.807112855
-2.88239013435
-2.95706184456
-3.03145085492
-3.1057491027
-3.18006518126
-3.25445345034
-3.32893859487
-3.40352174816
-3.47819593432
-3.55294763489
-3.62776178097
-3.70262379849
-3.77752032149
-3.85243966571
-3.92737231549
-4.00231067368
-4.07724867059
-4.15218175196
-4.22710583083
-4.30201873624
-4.3769183096
-4.45180303906
-4.52667024783
-4.60151792336
-4.67634477435
-4.75114906155
-4.82592863562
-4.90068115846
-4.9754040597
-5.05009465768
-5.12475010952
-5.19936732791
-5.27394316842
-5.34847438044
-5.4229572888
-5.49738765707
-5.57176087178
-5.64607211338
-5.72031624292
-5.79448781924
-5.8685810987
-5.94258996558
-6.0165077802
-6.09032724158
-6.16404050888
-6.2376393676
-6.31111519266
-6.38445878938
-6.45766031788
-6.53070934203
-6.60359478371
-6.67630474342
-6.74882641522
-6.82114620679
-6.89324987654
-6.96512247184
-7.03674809453
-7.10810983454
-7.17918982911
-7.24996929053
-7.32042840392
-7.3905461855
-7.46030039235
-7.52966749183
-7.59862266853
-7.66713987058
-7.73519184463
-7.80275004846
-7.8697844348
-7.93626328952
-8.00215327345
-8.06741957932
-8.1320259799
-8.19593467525
-8.25910609717
-8.32149887306
-8.38306993702
-8.44377458106
-8.50356632803
-8.56239679137
-8.62021569079
-8.67697092031
-8.73260847833
-8.78707222225
-8.84030369633
-8.89224230979
-8.94282570805
-8.99199019548
-9.03967014386
-9.08579774311
-9.13030285255
-9.17311323678
-9.21415483686
-9.25335172871
-9.29062596729
-9.32589770729
-9.35908543375
-9.39010624735
-9.4188754145
-9.44530626248
-9.46931042385
-9.49079818253
-9.50967872693
-9.52585984697
-9.53924762084
-9.54974662391
-9.55726051359
-9.56169226149
-9.5629440578
-9.56091746537
-9.55551365963
-9.54663340445
-9.53417644353
-9.51804174778
-9.49812787107
-9.47433403188
-9.44656042387
-9.41470707372
-9.37867281599
-9.33835592012
-9.29365556693
-9.24447173311
-9.19070357435
-9.13224918737
-9.0690065827
-9.00087295434
-8.92774301477
-8.84950917157
-8.76606148827
-8.67728510422
-8.58305816387
-8.48325130492
-8.3777260087
-8.26633145017
-8.14889992998
-8.02524237309
-7.89514638577
-7.75837280539
-7.61464936095
-7.46367567318
-7.30514852163
-7.13881521978
-6.96463038637
-6.78314565684
-6.59577152276
-6.40470718492
-6.22024889831
-1.1437099113
-1.3300513209
-1.57249765124
-1.79496229936
-1.98214703836
-2.13616205309
-2.2645794704
-2.37484075016
-2.47259634276
-2.56191097321
-2.64563502905
-2.72571964241
-2.80348077358
-2.87979642292
-2.95524611812
-3.0302059118
-3.10491511032
-3.17952187959
-3.25411071258
-3.32873074292
-3.40340257451
-3.47813323033
-3.55291943082
-3.62775362804
-3.70262638917
-3.77752780646
-3.85244873344
-3.9273812832
-4.00231855254
-4.07725488412
-4.15218699625
-4.2271101101
-4.30202226438
-4.37692131362
-4.45180543618
-4.52667233374
-4.60152010438
-4.67634708679
-4.75115144851
-4.82593106397
-4.90068362392
-4.9754066703
-5.05009755922
-5.1247533108
-5.1993708317
-5.27394707049
-5.34847871166
-5.42296198359
-5.49739263064
-5.57176612093
-5.64607765994
-5.72032210969
-5.79449406576
-5.86858774098
-5.94259699433
-6.01651515543
-6.09033497868
-6.16404873283
-6.23764824326
-6.31112482552
-6.38446921642
-6.45767157762
-6.53072147743
-6.60360780352
-6.67631863061
-6.74884120442
-6.82116202687
-6.89326688069
-6.96514073547
-7.03676765061
-7.10813071945
-7.17921209942
-7.24999300051
-7.32045359732
-7.39057292135
-7.46032876558
-7.52969761964
-7.59865467428
-7.66717388667
-7.73522800091
-7.8027884294
-7.86982505282
-7.93630613064
-8.00219838237
-8.06746709233
-8.13207607438
-8.1959875185
-8.2591618648
-8.32155779429
-8.38313227265
-8.44384052185
-8.50363592027
-8.56246999308
-8.62029251176
-8.67705150053
-8.73269303145
-8.78716091727
-8.84039666744
-8.8923398109
-8.94292827208
-8.99209813454
-9.03978365306
-9.08591681904
-9.13042749534
-9.17324363406
-9.21429135314
-9.25349474094
-9.29077566693
-9.32605419007
-9.35924886429
-9.39027678522
-9.41905327745
-9.44549157078
-9.46950319978
-9.49099853467
-9.50988689959
-9.52607618452
-9.53947256341
-9.54998073785
-9.55750435025
-9.56194629479
-9.56320889541
-9.56119395549
-9.55580286983
-9.54693638182
-9.53449452286
-9.51837668276
-9.49848191885
-9.47470985383
-9.44696126413
-9.41513701879
-9.37913690508
-9.33886036573
-9.29420794731
-9.24508108861
-9.19138114491
-9.13300940296
-9.06986685201
-9.0018533009
-8.92886792908
-8.85081013224
-8.76757749568
-8.67906352782
-8.58515832434
-8.48574824003
-8.38071370256
-8.2699283758
-8.15325699203
-8.03055390418
-7.90166607726
-7.76643361302
-7.62469300271
-7.47629663992
-7.32114541742
-7.15924864716
-6.99083609136
-6.81655110284
-6.63754515914
-6.45514579105
-6.27283049677
-1.48106049641
-1.53282008801
-1.676714513
-1.8410061402
-1.99533727926
-2.13338886107
-2.25553120844
-2.36430172663
-2.46272017782
-2.55351898254
-2.63889337564
-2.72050169676
-2.79955280655
-2.87690720085
-2.95316463734
-3.02873642997
-3.10389942947
-3.17883411222
-3.25365750487
-3.32844059568
-3.40322391877
-3.47802815818
-3.55286185167
-3.62772571242
-3.70261607063
-3.77752724192
-3.85245293153
-3.9273873248
-4.00232495027
-4.07726076121
-4.15219195286
-4.227114642
-4.30202589037
-4.3769242509
-4.45180783374
-4.52667450861
-4.6015223241
-4.67634946868
-4.75115396233
-4.8259336386
-4.90068623058
-4.97540939387
-5.05010046868
-5.12475648212
-5.19937441808
-5.27395118023
-5.34848336526
-5.42296713721
-5.49739823191
-5.57177211452
-5.64608402227
-5.72032886268
-5.79450114996
-5.86859514747
-5.94260473269
-6.01652325699
-6.09034355151
-6.16405793651
-6.23765821095
-6.31113563723
-6.38448092982
-6.45768424029
-6.5307351049
-6.60362238871
-6.67633421035
-6.74885788223
-6.82117992542
-6.89328609285
-6.965161332
-7.03678970999
-7.10815432619
-7.17923731928
-7.25001987674
-7.32048217905
-7.39060328948
-7.46036103134
-7.5297319103
-7.59869112956
-7.66721265506
-7.73526920976
-7.80283214819
-7.86987130125
-7.93635493215
-8.00224981572
-8.06752129499
-8.13213321124
-8.19604776943
-8.25922544959
-8.32162497548
-8.38320328201
-8.4439154666
-8.50371479115
-8.56255277802
-8.62037928934
-8.67714242713
-8.73278823903
-8.78726047085
-8.84050065447
-8.89244843924
-8.94304176915
-8.99221670914
-9.03990728784
-9.08604536216
-9.13056088617
-9.17338203297
-9.21443501501
-9.25364379699
-9.29093014321
-9.32621421109
-9.35941478759
-9.39044908467
-9.41923220915
-9.44567715917
-9.46969545222
-9.49119767696
-9.51009333785
-9.52629034441
-9.53969488458
-9.55021170595
-9.55774441587
-9.56219596493
-9.56346890721
-9.56146539316
-9.55608705665
-9.54723477336
-9.53480861469
-9.51870821966
-9.49883333159
-9.47508433559
-9.44736237796
-9.41556858478
-9.37960375679
-9.33936917941
-9.29476708033
-9.24570024227
-9.19207210079
-9.13378679601
-9.07074811138
-9.00285937126
-8.93002510933
-8.85215095552
-8.76914117378
-8.68089811781
-8.58732376875
-8.48831937364
-8.38378383187
-8.27361323811
-8.15770094422
-8.0359399113
-7.90822598547
-7.77446031504
-7.63456007797
-7.4884773856
-7.33622406087
-7.17791750232
-7.01383395896
-6.84446109401
-6.67041401133
-6.49201676373
-6.30954449118
-1.68513998727
-1.68015893983
-1.76413456915
-1.88492321886
-2.01156677593
-2.13424451056
-2.24913570467
-2.35532168075
-2.45358878381
-2.54535737461
-2.63209605962
-2.71509221286
-2.79538688119
-2.87378156905
-2.9508717388
-3.02708818766
-3.10273957217
-3.17803526713
-3.25312007501
-3.3280883464
-3.40300050475
-3.47789179187
-3.55278312079
-3.62768393169
-3.70259703277
-3.77752148939
-3.85245425534
-3.92739193901
-4.00233037765
-4.07726626012
-4.15219637135
-4.22711825821
-4.30202916737
-4.37692724613
-4.45181047901
-4.5266768434
-4.60152448409
-4.67635154263
-4.75115605287
-4.82593584639
-4.9006886136
-4.97541195143
-5.05010317446
-5.1247593999
-5.19937767733
-5.27395485024
-5.34848741031
-5.4229714368
-5.49740270311
-5.57177678856
-5.64608892612
-5.72033400511
-5.79450649424
-5.86860067809
-5.9426104759
-6.0165292945
-6.09034999901
-6.16406489333
-6.23766574262
-6.31114379093
-6.38448974922
-6.45769373354
-6.53074526202
-6.60363323086
-6.67634579466
-6.74887027632
-6.82119318869
-6.89330029972
-6.96517658595
-7.03680611039
-7.10817193734
-7.17925616304
-7.25003995708
-7.32050351389
-7.39062592614
-7.46038504792
-7.52975741222
-7.59871823734
-7.66724147682
-7.73529980995
-7.80286453952
-7.86990548053
-7.93639092727
-8.0022876998
-8.06756117419
-8.13217521963
-8.19609208196
-8.25927228862
-8.3216745746
-8.38325580741
-8.44397097478
-8.50377329169
-8.56261433852
-8.62044406387
-8.67721057502
-8.73285985076
-8.7873356055
-8.8405794843
-8.89253129162
-8.94312898856
-8.99230846615
-9.04000350422
-9.08614594305
-9.13066592922
-9.17349180624
-9.21454976092
-9.2537635797
-9.29105501865
-9.32634444574
-9.35955083075
-9.39059127008
-9.41938057561
-9.44583162088
-9.4698561162
-9.49136495317
-9.5102677459
-9.52647231758
-9.53988477089
-9.55040983208
-9.55795124717
-9.56241210668
-9.56369519543
-9.56170296487
-9.55633735383
-9.54749947839
-9.53508940156
-9.51900684591
-9.49915228933
-9.47542703373
-9.44773250665
-9.41597002309
-9.3800416295
-9.33985052459
-9.29530036788
-9.24629523493
-9.19274053035
-9.13454272163
-9.07160838501
-9.00384505706
-8.93116233174
-8.85347085295
-8.77068127681
-8.68270463025
-8.58945318138
-8.4908411702
-8.38678366372
-8.27719529431
-8.16199328974
-8.04110153904
-7.91445130955
-7.78198604922
-7.64367299845
-7.49951553004
-7.34957067232
-7.19396843915
-7.03292888279
-6.86673887533
-6.69562237713
-6.51936767683
-6.33720399268
-1.80827390974
-1.78281600382
-1.83217726322
-1.92233780833
-2.02726501103
-2.13658826518
-2.24442333182
-2.34764177568
-2.44530603163
-2.53768329999
-2.62554057229
-2.70977382598
-2.79122796906
-2.87062073018
-2.94852663471
-3.02538682894
-3.10152964856
-3.17719366438
-3.25254795296
-3.32770939856
-3.40275713646
-3.47774126735
-3.55269463321
-3.62763560802
-3.70257374366
-3.77751298466
-3.85245386619
-3.92739572795
-4.00233524705
-4.07727112998
-4.15220096755
-4.22712210305
-4.30203245272
-4.3769300585
-4.45181287422
-4.52667893777
-4.60152638569
-4.67635331816
-4.75115779876
-4.82593766503
-4.90069062685
-4.97541417384
-5.05010555861
-5.12476198029
-5.19938053967
-5.27395806516
-5.34849097141
-5.42297529679
-5.49740682717
-5.57178112468
-5.64609342319
-5.7203385691
-5.79451118621
-5.86860554489
-5.94261555655
-6.01653464447
-6.09035568286
-6.16407097975
-6.23767231334
-6.31115091188
-6.38449743034
-6.45770196266
-6.53075407324
-6.6036426974
-6.67635596509
-6.74888115473
-6.82120479549
-6.89331272232
-6.9651899543
-7.03682053223
-7.1081874707
-7.17927282468
-7.25005774553
-7.32052243395
-7.39064601035
-7.46040636762
-7.52978006917
-7.59874233885
-7.66726710554
-7.73532700529
-7.80289330762
-7.86993582845
-7.9364228903
-8.00232134471
-8.06759659181
-8.13221252503
-8.19613141543
-8.25931380063
-8.32171839626
-8.38330202974
-8.44401966402
-8.50382453051
-8.56266824885
-8.62050076824
-8.67727012767
-8.73292223803
-8.78740084352
-8.84064772168
-8.89260279305
-8.94320393988
-8.99238685189
-9.04008516039
-9.08623081391
-9.13075417316
-9.17358365451
-9.21464532621
-9.2538628752
-9.29115820709
-9.32645192311
-9.35966306064
-9.39070845948
-9.41950269471
-9.44595870153
-9.4699884738
-9.49150307857
-9.51041207668
-9.52662317574
-9.54004239332
-9.55057451711
-9.55812344527
-9.56259249278
-9.56388473591
-9.56190287626
-9.55654910069
-9.54772467841
-9.53532974761
-9.51926425749
-9.49942930871
-9.47572679723
-9.44805849663
-9.41632655501
-9.38043444178
-9.34028646584
-9.29578709934
-9.24684198368
-9.19335874022
-9.13524597993
-9.0724129845
-9.00477107279
-8.93223392974
-8.85471689938
-8.77213701529
-8.68441278492
-8.59146496957
-8.49321860267
-8.38960138947
-8.28054276439
-8.16597925326
-8.04585694928
-7.92013075447
-7.78877096691
-7.65177023338
-7.50915455133
-7.36098868968
-7.20737692679
-7.04846670717
-6.88439389471
-6.71518214452
-6.54049756777
-6.35954775011
-1.88232002652
-1.8512693851
-1.88120374612
-1.95097908238
-2.04015174887
-2.13903244784
-2.24091296702
-2.34138346296
-2.43830456685
-2.53104233438
-2.61977084239
-2.70503263724
-2.78748260636
-2.8677516975
-2.94638269461
-3.02382097295
-3.1004104001
-3.17641104355
-3.25201316691
-3.32735330626
-3.40252719887
-3.4775983512
-3.55261002155
-3.62758894627
-3.70255085785
-3.77750419398
-3.85245307866
-3.92739900454
-4.00234017583
-4.07727607154
-4.15220542192
-4.22712596131
-4.3020356666
-4.37693264679
-4.45181494839
-4.52668071278
-4.6015280014
-4.67635486068
-4.7511592996
-4.8259392363
-4.90069237483
-4.97541610822
-5.05010768391
-5.1247643218
-5.19938310602
-5.27396085229
-5.34849397656
-5.42297848856
-5.49741016054
-5.57178453546
-5.64609686657
-5.72034210429
-5.79451488039
-5.868609443
-5.94261966522
-6.01653895188
-6.09036018625
-6.16407572769
-6.23767739131
-6.31115637561
-6.38450328492
-6.45770823813
-6.53076085271
-6.60365003831
-6.67636384558
-6.74888952632
-6.8212136775
-6.89332222043
-6.96520020058
-7.03683162863
-7.10819947347
-7.17928574373
-7.25007155557
-7.32053711116
-7.39066157163
-7.46042287522
-7.52979760285
-7.59876096447
-7.66728686178
-7.73534791038
-7.80291537367
-7.86995907125
-7.93644734069
-8.00234706019
-8.06762365758
-8.13224104339
-8.19616148869
-8.25934551381
-8.32175181797
-8.38333724485
-8.44405680461
-8.50386376455
-8.5627097275
-8.62054457078
-8.67731625047
-8.73297066244
-8.78745165688
-8.84070111823
-8.89265893755
-8.94326287446
-8.99244848216
-9.04014936039
-9.08629757982
-9.1308236301
-9.17365590626
-9.21472038039
-9.25394077708
-9.29123924103
-9.3265365215
-9.3597515029
-9.39080078255
-9.41959891431
-9.44605909523
-9.47009352031
-9.49161312564
-9.51052725874
-9.52674360241
-9.54016827472
-9.55070626746
-9.5582616618
-9.56273793171
-9.56403839729
-9.56206603775
-9.55672315163
-9.54791102016
-9.53552999947
-9.51948050323
-9.49966406016
-9.47598289195
-9.4483394865
-9.41663724592
-9.38078058157
-9.34067413376
-9.29622326151
-9.24733556514
-9.19392067632
-9.13588905864
-9.07315260972
-9.00562595535
-8.93322639944
-8.85587364714
-8.77348987508
-8.68599969751
-8.59333161766
-8.49541942435
-8.3922004098
-8.28361621524
-8.16961749956
-8.0501643324
-7.92522835031
-7.79479678557
-7.6588745494
-7.51749493897
-7.37071879526
-7.21862567895
-7.06131452524
-6.89885346781
-6.73121807902
-6.5581720551
-6.37924681382
-1.92455627681
-1.89299179746
-1.91264215566
-1.97009315647
-2.04911276418
-2.14089792441
-2.23851959003
-2.33690778664
-2.43318631308
-2.52611440346
-2.61544137433
-2.70144457398
-2.78462901317
-2.86555245148
-2.94473293637
-3.02261183127
-3.09954341438
-3.17580290763
-3.25159654577
-3.32707521545
-3.40234681811
-3.47748605624
-3.55254340841
-3.62755215501
-3.70253286671
-3.77749720751
-3.85245258059
-3.92740151502
-4.00234405626
-4.07728014771
-4.15220897528
-4.22712891545
-4.30203803599
-4.37693445976
-4.45181641789
-4.52668197967
-4.60152917464
-4.67635605672
-4.75116061119
-4.82594070779
-4.90069394292
-4.97541772862
-5.0501094151
-5.12476624232
-5.19938525498
-5.27396320147
-5.34849643177
-5.42298098583
-5.49741268439
-5.57178710772
-5.64609952131
-5.72034487021
-5.79451775733
-5.86861244154
-5.94262278518
-6.0165421997
-6.09036357766
-6.16407929514
-6.23768115023
-6.3111603245
-6.38450746108
-6.45771274951
-6.5307658003
-6.60365542982
-6.67636960311
-6.74889558873
-6.82122007918
-6.89332907634
-6.96520764742
-7.03683977225
-7.10820835827
-7.17929534825
-7.25008182832
-7.32054802974
-7.39067316963
-7.46043521349
-7.52981072515
-7.59877488205
-7.66730157714
-7.73536343834
-7.80293174115
-7.86997630779
-7.93646548501
-8.00236616646
-8.06764378138
-8.13226222138
-8.19618373957
-8.25936886147
-8.3217763184
-8.3833630024
-8.44408396891
-8.50389248933
-8.56274011472
-8.62057665027
-8.6773499969
-8.73300609845
-8.78748890089
-8.84074033634
-8.89270019357
-8.94330608543
-8.99249353218
-9.04019620038
-9.08634625825
-9.13087419963
-9.17370834466
-9.21477464034
-9.25399704097
-9.29129791976
-9.3265979794
-9.35981584812
-9.39086799277
-9.41966913516
-9.44613274801
-9.47017103017
-9.49169463678
-9.51061272381
-9.52683307322
-9.54026206544
-9.55080488775
-9.55836580204
-9.56284846781
-9.56415631375
-9.56219250635
-9.55685943821
-9.5480583719
-9.53568996498
-9.51965521298
-9.4998560241
-9.47619501776
-9.44857560331
-9.41690209308
-9.38107915476
-9.34101190507
-9.2966073402
-9.24777486637
-9.19442521938
-9.13647045566
-9.07382531423
-9.00640766856
-8.93413821823
-8.85694028138
-8.77473984672
-8.68746685658
-8.59505678564
-8.4974502503
-8.39459221516
-8.28643442645
-8.17293741362
-8.05407171513
-7.92982137378
-7.80018399413
-7.66517329991
-7.52482602758
-7.37920197732
-7.22837470682
-7.07242739698
-6.91143421412
-6.74541768595
-6.57431977727
-6.39804152118
-1.94380656546
-1.91271004066
-1.92793979192
-1.97961416176
-2.05367915448
-2.14188844544
-2.23729819461
-2.3345688959
-2.43047894869
-2.52348526261
-2.61311627456
-2.69950701643
-2.78308268073
-2.86435740825
-2.94383405618
-3.02195139743
-3.09906903039
-3.1754697264
-3.25136806626
-3.32692246815
-3.40224721653
-3.47742431947
-3.55250700132
-3.62753221103
-3.70252325832
-3.77749331773
-3.85245211144
-3.92740220421
-4.00234532565
-4.07728172247
-4.15221053383
-4.22713025192
-4.30203909513
-4.37693535191
-4.45181720395
-4.52668264253
-4.60152979867
-4.67635679128
-4.75116158547
-4.8259418947
-4.90069520862
-4.97541899167
-5.05011069261
-5.12476763518
-5.19938685397
-5.27396499748
-5.34849829279
-5.42298279201
-5.49741442992
-5.57178887128
-5.64610139605
-5.72034687979
-5.79451986278
-5.86861459084
-5.94262496463
-6.01654443855
-6.09036590947
-6.16408170904
-6.23768359978
-6.31116280182
-6.38451006242
-6.45771562288
-6.53076902059
-6.60365893895
-6.67637328494
-6.7488993858
-6.82122403702
-6.89333331622
-6.96521230896
-7.0368449483
-7.10821405578
-7.17930151113
-7.250088408
-7.32055503563
-7.39068065108
-7.46044320376
-7.52981921668
-7.59878384998
-7.66731100996
-7.73537334467
-7.80294213582
-7.86998721535
-7.9364769551
-8.0023782636
-8.06765653789
-8.13227560728
-8.19619770447
-8.25938341655
-8.32179156487
-8.38337907667
-8.44410097505
-8.50391047674
-8.56275911002
-8.62059668904
-8.6773711538
-8.73302846462
-8.7875125593
-8.84076532729
-8.89272648089
-8.94333353459
-8.99252203437
-9.04022575862
-9.0863769348
-9.13090595509
-9.17374108358
-9.21480835576
-9.25403195478
-9.29133439017
-9.32663624448
-9.35985600431
-9.39091015194
-9.41971356103
-9.4461797552
-9.470220773
-9.49174711815
-9.51066794588
-9.52689118145
-9.54032345294
-9.55087016627
-9.55843574189
-9.56292391529
-9.56423821134
-9.56228198078
-9.55695764058
-9.54816637958
-9.53580919989
-9.51978782456
-9.50000473478
-9.47636305262
-9.4487667943
-9.41712060952
-9.38132943023
-9.34129950278
-9.29693953173
-9.24816002936
-9.19487270427
-9.136991638
-9.07443416567
-9.00712076717
-8.93497528044
-8.85792439003
-8.77589762485
-8.68883000058
-8.59666285618
-8.49934181685
-8.39681841283
-8.28905326958
-8.17601534622
-8.05768477212
-7.93405420709
-7.805131297
-7.67093999643
-7.53152500647
-7.3869510847
-7.23730652799
-7.08269110765
-6.92322323277
-6.75902183583
-6.59021690705
-6.41701245324
-1.9438065427
-1.91271023936
-1.92793946475
-1.97961425617
-2.05367925247
-2.14188838239
-2.23729818236
-2.33456900964
-2.43047912251
-2.52348546368
-2.61311655449
-2.69950709552
-2.78308235134
-2.86435698195
-2.9438338093
-3.02195125508
-3.09906904719
-3.17546983958
-3.25136821734
-3.32692264697
-3.40224747904
-3.47742473674
-3.55250748187
-3.62753283914
-3.70252356627
-3.77749315589
-3.85245161941
-3.92740174149
-4.0023449591
-4.0772814
-4.15221022522
-4.22712994582
-4.30203883724
-4.37693523395
-4.45181720612
-4.52668277544
-4.60153009595
-4.67635730147
-4.7511623063
-4.82594271995
-4.90069605403
-4.9754198441
-5.05011158246
-5.1247686223
-5.19938798225
-5.27396621269
-5.34849952044
-5.42298396878
-5.497415517
-5.57178990586
-5.64610244319
-5.7203479622
-5.79452097019
-5.86861571431
-5.94262611184
-6.01654560402
-6.09036706964
-6.16408282256
-6.23768463908
-6.31116380734
-6.38451115035
-6.45771690175
-6.5307705002
-6.60366052619
-6.67637486747
-6.74890092705
-6.82122560315
-6.89333503322
-6.96521428689
-7.03684721818
-7.10821656877
-7.17930420884
-7.25009129292
-7.32055816693
-7.39068407417
-7.46044689833
-7.52982311565
-7.59878790508
-7.66731521434
-7.73537770485
-7.80294665322
-7.8699919049
-7.93648186323
-8.00238343987
-8.06766197994
-8.13228125307
-8.19620350236
-8.25938940131
-8.32179784153
-8.38338573163
-8.44410800626
-8.50391784059
-8.5627668019
-8.62060479693
-8.67737982019
-8.73303778381
-8.78752253609
-8.8407758888
-8.89273753367
-8.94334501574
-8.99253392463
-9.0402380389
-9.086389511
-9.13091871908
-9.17375398871
-9.21482151095
-9.25404558763
-9.29134869701
-9.32665134621
-9.35987202404
-9.39092730976
-9.41973211671
-9.4461998037
-9.47024224452
-9.49177000038
-9.51069242969
-9.52691762349
-9.54035238155
-9.5509022097
-9.55847153171
-9.56296416713
-9.56428392744
-9.56233430247
-9.55701748816
-9.5482346428
-9.53588742561
-9.51987845288
-9.50011063778
-9.47648731334
-9.44891285242
-9.41729237637
-9.38153159902
-9.3415379235
-9.29722106689
-9.24849253708
-9.19526581036
-9.13745713833
-9.07498574328
-9.00777436693
-8.93574980632
-8.85884187712
-8.77698393764
-8.69011595278
-8.59818393161
-8.50113848672
-8.39893870899
-8.2915525888
-8.17895701032
-8.06114076893
-7.93810770259
-7.80987457625
-7.67647870753
-7.5379792596
-7.39445866042
-7.24603100361
-7.09283342579
-6.93504687991
-6.77289710826
-6.60667430687
-6.43679590621
-1.92455637117
-1.89299238195
-1.91264119469
-1.97009341931
-2.04911302691
-2.14089781741
-2.23851972365
-2.33690795041
-2.43318657317
-2.52611489177
-2.61544128583
-2.70144367607
-2.78462807739
-2.8655514987
-2.94473241443
-3.0226114534
-3.0995433964
-3.17580311609
-3.25159700701
-3.32707583556
-3.40234757456
-3.47748719191
-3.55254469613
-3.62755378803
-3.70253409506
-3.77749820218
-3.85245238561
-3.92740028931
-4.0023425915
-4.07727880251
-4.1522078297
-4.22712790475
-4.30203724153
-4.37693402445
-4.45181633016
-4.52668225646
-4.60152995024
-4.67635748347
-4.7511626511
-4.82594308491
-4.90069642627
-4.97542027356
-5.05011210799
-5.12476923405
-5.1993886409
-5.27396685494
-5.34850008947
-5.42298446185
-5.49741594731
-5.5717902628
-5.64610270006
-5.72034812482
-5.79452110416
-5.86861589645
-5.94262635098
-6.01654582049
-6.09036715759
-6.16408271517
-6.23768433577
-6.31116338381
-6.38451072309
-6.45771654591
-6.53077018449
-6.60366014081
-6.67637432132
-6.74890022128
-6.82122482868
-6.89333429463
-6.96521361665
-7.03684655585
-7.10821582975
-7.1793033796
-7.2500904511
-7.32055739993
-7.39068338441
-7.46044619958
-7.52982230961
-7.59878694572
-7.66731409816
-7.7353764305
-7.802945218
-7.86999032698
-7.93648017359
-8.00238164041
-8.06766002309
-8.13227908576
-8.19620113699
-8.25938690969
-8.32179527059
-8.38338302125
-8.44410501084
-8.50391446415
-8.56276310895
-8.62060096565
-8.67737600714
-8.73303401059
-8.78751869808
-8.84077186874
-8.89273326305
-8.9433404744
-8.99252904005
-9.04023275581
-9.0863837347
-9.13091239105
-9.1737471097
-9.21481419313
-9.25403798561
-9.29134089836
-9.32664340482
-9.35986403474
-9.39091946641
-9.41972458025
-9.4461925788
-9.4702352798
-9.49176338055
-9.51068643126
-9.5269127354
-9.54034920584
-9.55090124737
-9.55847322957
-9.56296928101
-9.56429353866
-9.56234932671
-9.55703857715
-9.54826288053
-9.53592481796
-9.51992753302
-9.50017400493
-9.47656783078
-9.44901392785
-9.41741800681
-9.38168656461
-9.3417279904
-9.29745310987
-9.24877499454
-9.19560894104
-9.13787267995
-9.07548725164
-9.00837816954
-8.93647506269
-8.85971057506
-8.77802201803
-8.69135425845
-8.59965839537
-8.5028916211
-8.40101944782
-8.29401655728
-8.18186974881
-8.06457770309
-7.9421548503
-7.81463276824
-7.6820654081
-7.54452882772
-7.40213157351
-7.25502175395
-7.10338434732
-6.94746389593
-6.78757826717
-6.62413737891
-6.45769292892
-1.88232016475
-1.85127031671
-1.88120258481
-1.9509793927
-2.04015193953
-2.13903214731
-2.24091285962
-2.34138312663
-2.43830418989
-2.53104220714
-2.61976998824
-2.70503160785
-2.78748137188
-2.86774973444
-2.94638191632
-3.02382059744
-3.10041041024
-3.17641132181
-3.25201389755
-3.3273543133
-3.40252831834
-3.47759983557
-3.55261191271
-3.62759187617
-3.70255263326
-3.77750524815
-3.85245317531
-3.92739777373
-4.00233861197
-4.07727455089
-4.15220386311
-4.22712454307
-4.30203457262
-4.37693194124