/*--------------------------------*- C++ -*----------------------------------*\
| =========                 |                                                 |
| \\      /  F ield         | OpenFOAM: The Open Source CFD Toolbox           |
|  \\    /   O peration     | Version:  2106                                  |
|   \\  /    A nd           | Website:  www.openfoam.com                      |
|    \\/     M anipulation  |                                                 |
\*---------------------------------------------------------------------------*/
FoamFile
{
    version     2.0;
    format      ascii;
    arch        "LSB;label=32;scalar=64";
    class       volVectorField;
    location    "0.06";
    object      U;
}
// * * * * * * * * * * * * * * * * * * * * * * * * * * * * * * * * * * * * * //

dimensions      [0 1 -1 0 0 0 0];

internalField   nonuniform List<vector> 
9600
(
(0.675395939216 0.157677681894 0)
(0.563824866251 0.102431327092 0)
(0.381536277285 0.0510653233737 0)
(0.283849847888 0.0244595486197 0)
(0.232278650696 0.011935061886 0)
(0.201909385834 0.00622989947368 0)
(0.183189032236 0.00352029181316 0)
(0.171298418244 0.00211675259928 0)
(0.16356316279 0.0013197724407 0)
(0.158478102155 0.000833549659271 0)
(0.155141273806 0.000523696749021 0)
(0.152975927046 0.000322230397604 0)
(0.151598873727 0.000190750074036 0)
(0.150750273462 0.00010566479788 0)
(0.150252075133 5.1676997729e-05 0)
(0.149981916715 1.85399074249e-05 0)
(0.14985600215 -7.30006800762e-07 0)
(0.149817469471 -1.09061017444e-05 0)
(0.149828431702 -1.51693413416e-05 0)
(0.149864256797 -1.60803455411e-05 0)
(0.149909496443 -1.50076044519e-05 0)
(0.149955056905 -1.29547873938e-05 0)
(0.149996092662 -1.05741800607e-05 0)
(0.150030499802 -8.25356708258e-06 0)
(0.150057854238 -6.19925921203e-06 0)
(0.15007867204 -4.49685173441e-06 0)
(0.150093918026 -3.15597952066e-06 0)
(0.150104691445 -2.14548602412e-06 0)
(0.150112042182 -1.41378266249e-06 0)
(0.150116881389 -9.03893395969e-07 0)
(0.150119948269 -5.621728223e-07 0)
(0.15012180863 -3.41306383314e-07 0)
(0.150122879652 -2.04185635093e-07 0)
(0.150123452453 -1.22562698423e-07 0)
(0.150123726079 -7.24068159953e-08 0)
(0.150123832103 -4.33518521053e-08 0)
(0.150123848505 -3.08881328873e-08 0)
(0.150123822176 -3.20725092611e-08 0)
(0.150123779953 -3.8852399033e-08 0)
(0.150123737116 -4.39018009898e-08 0)
(0.150123699406 -4.86953220937e-08 0)
(0.150123667562 -5.46416966859e-08 0)
(0.150123641713 -6.07157136396e-08 0)
(0.15012362171 -6.63865687944e-08 0)
(0.150123606677 -7.19386419532e-08 0)
(0.150123596209 -7.77433544933e-08 0)
(0.150123590039 -8.44089298498e-08 0)
(0.150123586676 -9.19302671416e-08 0)
(0.150123584066 -1.00139245624e-07 0)
(0.150123581127 -1.08913362984e-07 0)
(0.150123578018 -1.18013137581e-07 0)
(0.150123575069 -1.27568290387e-07 0)
(0.150123571981 -1.38005974562e-07 0)
(0.150123568863 -1.49195825837e-07 0)
(0.150123566738 -1.60668393675e-07 0)
(0.150123565754 -1.72585203908e-07 0)
(0.15012356426 -1.8573039409e-07 0)
(0.150123560863 -2.00374470439e-07 0)
(0.150123556112 -2.16158140494e-07 0)
(0.150123551483 -2.32613926187e-07 0)
(0.150123547877 -2.49738863072e-07 0)
(0.150123545219 -2.67943342126e-07 0)
(0.150123543141 -2.87362403465e-07 0)
(0.150123541376 -3.07824123857e-07 0)
(0.150123539355 -3.29394312202e-07 0)
(0.150123536076 -3.52554988297e-07 0)
(0.150123530989 -3.77643514749e-07 0)
(0.150123524918 -4.04347349353e-07 0)
(0.150123519306 -4.32212519363e-07 0)
(0.150123514596 -4.61382660584e-07 0)
(0.150123510054 -4.92372765711e-07 0)
(0.150123505146 -5.25371142725e-07 0)
(0.150123500346 -5.60138688619e-07 0)
(0.150123496247 -5.96556573669e-07 0)
(0.150123492527 -6.34837563766e-07 0)
(0.150123488254 -6.75246184412e-07 0)
(0.15012348283 -7.17909169427e-07 0)
(0.150123476385 -7.62870625375e-07 0)
(0.150123469572 -8.10132615141e-07 0)
(0.150123463222 -8.59574914113e-07 0)
(0.150123457867 -9.11051735419e-07 0)
(0.150123453163 -9.64709684455e-07 0)
(0.150123447931 -1.0210442457e-06 0)
(0.150123441169 -1.08047715799e-06 0)
(0.150123433063 -1.14293660409e-06 0)
(0.150123424687 -1.20799412364e-06 0)
(0.150123416725 -1.27542381177e-06 0)
(0.150123408856 -1.34547955319e-06 0)
(0.15012340056 -1.41853876711e-06 0)
(0.150123392173 -1.49459733901e-06 0)
(0.150123384841 -1.57330770456e-06 0)
(0.150123379483 -1.65455485863e-06 0)
(0.150123376029 -1.73876505108e-06 0)
(0.15012337386 -1.82641994951e-06 0)
(0.150123372786 -1.91744001117e-06 0)
(0.150123373097 -2.01130093064e-06 0)
(0.150123374741 -2.10764884211e-06 0)
(0.150123377035 -2.20659038359e-06 0)
(0.150123379766 -2.30826586962e-06 0)
(0.150123384925 -2.41217030314e-06 0)
(0.150123396125 -2.51735149129e-06 0)
(0.150123416163 -2.62356039995e-06 0)
(0.150123445502 -2.73134281608e-06 0)
(0.150123483376 -2.84169339393e-06 0)
(0.150123530431 -2.95497761306e-06 0)
(0.15012358986 -3.07062265824e-06 0)
(0.150123666644 -3.18809138993e-06 0)
(0.150123765619 -3.30788182135e-06 0)
(0.150123891104 -3.43205502353e-06 0)
(0.150124047931 -3.56563300908e-06 0)
(0.150124244828 -3.71645727892e-06 0)
(0.150124492536 -3.88071274244e-06 0)
(0.150124801636 -4.05513532925e-06 0)
(0.150125185975 -4.23938392574e-06 0)
(0.150125664518 -4.43396100876e-06 0)
(0.150126261012 -4.63951689787e-06 0)
(0.150127002779 -4.85741812676e-06 0)
(0.150127922174 -5.08992413267e-06 0)
(0.150129060768 -5.3390495453e-06 0)
(0.15013047276 -5.6060817918e-06 0)
(0.15013222541 -5.89293002153e-06 0)
(0.150134400438 -6.2046069945e-06 0)
(0.150137104518 -6.55421999633e-06 0)
(0.150140488293 -6.98437379435e-06 0)
(0.15014469775 -7.59848235658e-06 0)
(0.150149886495 -8.4011145405e-06 0)
(0.150156294299 -9.34239319594e-06 0)
(0.150164235953 -1.04082198003e-05 0)
(0.150174086681 -1.16051725299e-05 0)
(0.150186306133 -1.2948875797e-05 0)
(0.150201466001 -1.44634568072e-05 0)
(0.150220276114 -1.61820609526e-05 0)
(0.150243615154 -1.81440270169e-05 0)
(0.150272575115 -2.03939513887e-05 0)
(0.150308517372 -2.29881610253e-05 0)
(0.150353135821 -2.60038193069e-05 0)
(0.150408535869 -2.95409059465e-05 0)
(0.150477341495 -3.37197724139e-05 0)
(0.150562828627 -3.8688834944e-05 0)
(0.150669086289 -4.46426389362e-05 0)
(0.150801226939 -5.18331032108e-05 0)
(0.150965662546 -6.05759822821e-05 0)
(0.151170450048 -7.12722585936e-05 0)
(0.151425737955 -8.44404758488e-05 0)
(0.151744368381 -0.000100748520164 0)
(0.152142668018 -0.000121061260502 0)
(0.152641494166 -0.000146514077952 0)
(0.153267684554 -0.000178603260742 0)
(0.154056077116 -0.000219309389039 0)
(0.155052343116 -0.000271277404597 0)
(0.156317135012 -0.000338072448056 0)
(0.15793244076 -0.000424643795398 0)
(0.16001207931 -0.000538559163135 0)
(0.162722199477 -0.00069450097085 0)
(0.16632956426 -0.000932224706111 0)
(0.171322067464 -0.00138496989081 0)
(0.178770430794 -0.0025347275983 0)
(0.191851320077 -0.00621869078647 0)
(0.220720842258 -0.0196740427177 0)
(0.28622686228 -0.0712080901302 0)
(0.977200854013 0.296998049739 0)
(0.962685989876 0.250388759484 0)
(0.820643902769 0.15858195744 0)
(0.697824984756 0.0957983443659 0)
(0.610499578114 0.0579084334363 0)
(0.549158194186 0.0358927196791 0)
(0.506761151237 0.0229107011404 0)
(0.477765142437 0.0149467322316 0)
(0.457987939329 0.00986334620547 0)
(0.444544102375 0.00652130716666 0)
(0.435472635119 0.00428428686889 0)
(0.429423896872 0.00277480648178 0)
(0.425459779243 0.00175615688377 0)
(0.422924404681 0.00107335146833 0)
(0.421357886425 0.000621780574682 0)
(0.420437994199 0.000329397877197 0)
(0.419940037402 0.000145965309176 0)
(0.419708795125 3.62226454628e-05 0)
(0.419638297989 -2.45679311715e-05 0)
(0.419658065618 -5.37500496696e-05 0)
(0.419722609376 -6.35443957991e-05 0)
(0.419803475343 -6.21052299427e-05 0)
(0.419884212167 -5.48844127075e-05 0)
(0.419956271143 -4.53694380799e-05 0)
(0.420016129427 -3.56502317231e-05 0)
(0.420063274019 -2.68564980172e-05 0)
(0.420098823369 -1.94873703978e-05 0)
(0.420124624433 -1.3653115637e-05 0)
(0.420142697887 -9.2433277357e-06 0)
(0.420154928952 -6.04190055806e-06 0)
(0.42016292247 -3.8029865265e-06 0)
(0.420167954059 -2.29449324846e-06 0)
(0.420170989931 -1.31140198381e-06 0)
(0.420172730663 -6.97887582953e-07 0)
(0.42017366158 -3.265158273e-07 0)
(0.420174105705 -1.16391557888e-07 0)
(0.420174270473 -9.59569497233e-09 0)
(0.420174289888 3.74368703425e-08 0)
(0.420174247339 5.14233939258e-08 0)
(0.420174183497 5.01332751977e-08 0)
(0.420174114732 4.14669196588e-08 0)
(0.420174051662 2.97580957529e-08 0)
(0.420173999393 1.81394473372e-08 0)
(0.420173957969 7.79406732239e-09 0)
(0.420173925658 -9.997676632e-10 0)
(0.420173901014 -7.34037724629e-09 0)
(0.420173883224 -1.04944314585e-08 0)
(0.420173870586 -1.19441781065e-08 0)
(0.420173860493 -1.37855280839e-08 0)
(0.420173851434 -1.61720220988e-08 0)
(0.420173842973 -1.88450600238e-08 0)
(0.420173834599 -2.19217501194e-08 0)
(0.42017382599 -2.54465386142e-08 0)
(0.420173817826 -2.85546762974e-08 0)
(0.420173810872 -3.06739974152e-08 0)
(0.420173804256 -3.25962450556e-08 0)
(0.420173796156 -3.54804073862e-08 0)
(0.420173786005 -3.92099902182e-08 0)
(0.420173774912 -4.27979716241e-08 0)
(0.420173764106 -4.56129816765e-08 0)
(0.420173753806 -4.79259465305e-08 0)
(0.420173743817 -5.03646515859e-08 0)
(0.420173734201 -5.30327737354e-08 0)
(0.420173724717 -5.57492055476e-08 0)
(0.420173714222 -5.87486648391e-08 0)
(0.420173701432 -6.25389394327e-08 0)
(0.420173686388 -6.69978040459e-08 0)
(0.420173670564 -7.12859132567e-08 0)
(0.420173655105 -7.49851779935e-08 0)
(0.420173639736 -7.8691540933e-08 0)
(0.420173623711 -8.31547582557e-08 0)
(0.42017360709 -8.83225999485e-08 0)
(0.420173590566 -9.36504465803e-08 0)
(0.420173574333 -9.89646236457e-08 0)
(0.42017355773 -1.0449011911e-07 0)
(0.420173539894 -1.10371086392e-07 0)
(0.420173520425 -1.1657308447e-07 0)
(0.420173499561 -1.23079332795e-07 0)
(0.420173478101 -1.29850067345e-07 0)
(0.420173457063 -1.36656484522e-07 0)
(0.420173436869 -1.43339544655e-07 0)
(0.420173416704 -1.50271965934e-07 0)
(0.420173395092 -1.58174737166e-07 0)
(0.420173371393 -1.67329650841e-07 0)
(0.420173346518 -1.77218483404e-07 0)
(0.420173321883 -1.87119427648e-07 0)
(0.420173297857 -1.96891768269e-07 0)
(0.420173273729 -2.06966964862e-07 0)
(0.420173249137 -2.17631464522e-07 0)
(0.420173225013 -2.28578899289e-07 0)
(0.420173202848 -2.39400254082e-07 0)
(0.420173183363 -2.50496586091e-07 0)
(0.420173166363 -2.63068774243e-07 0)
(0.420173151816 -2.77917987616e-07 0)
(0.420173140541 -2.94652100075e-07 0)
(0.420173133491 -3.12359590655e-07 0)
(0.420173130789 -3.3090471849e-07 0)
(0.420173132135 -3.51336255917e-07 0)
(0.420173138684 -3.75024050226e-07 0)
(0.420173154579 -4.03142927149e-07 0)
(0.420173184963 -4.34296777051e-07 0)
(0.420173233273 -4.68229916508e-07 0)
(0.420173300921 -5.06591530565e-07 0)
(0.420173389749 -5.5127316323e-07 0)
(0.420173504963 -6.02828667799e-07 0)
(0.420173654741 -6.60533022873e-07 0)
(0.420173848499 -7.24176488981e-07 0)
(0.420174095362 -7.95146979295e-07 0)
(0.420174403609 -8.74289003927e-07 0)
(0.420174782399 -9.58781948458e-07 0)
(0.420175260392 -1.03915486245e-06 0)
(0.420175872609 -1.12354947195e-06 0)
(0.420176645203 -1.22055476406e-06 0)
(0.420177611745 -1.33611282983e-06 0)
(0.420178818834 -1.47541908156e-06 0)
(0.420180324895 -1.6445343162e-06 0)
(0.420182199762 -1.85196213287e-06 0)
(0.420184529418 -2.10876354454e-06 0)
(0.420187423382 -2.42783940081e-06 0)
(0.420191019494 -2.82418138283e-06 0)
(0.420195486167 -3.31720394878e-06 0)
(0.420201027455 -3.93316886857e-06 0)
(0.420207889668 -4.70878595292e-06 0)
(0.420216368328 -5.70784049044e-06 0)
(0.420226877625 -7.05144744126e-06 0)
(0.42023996817 -8.80803731202e-06 0)
(0.420256268418 -1.10212708786e-05 0)
(0.420276531397 -1.37766932877e-05 0)
(0.420301702946 -1.71948085123e-05 0)
(0.420332960811 -2.14267741719e-05 0)
(0.420371769573 -2.66637896152e-05 0)
(0.420419953272 -3.31494074212e-05 0)
(0.420479781759 -4.11849737521e-05 0)
(0.420554074884 -5.11368983601e-05 0)
(0.420646334485 -6.34591205405e-05 0)
(0.420760917044 -7.87252168881e-05 0)
(0.420903255016 -9.76537937074e-05 0)
(0.421080125869 -0.000121136302721 0)
(0.421299979062 -0.00015028956182 0)
(0.421573361616 -0.000186526641417 0)
(0.421913478748 -0.000231631354604 0)
(0.422336898379 -0.000287858945373 0)
(0.422864439298 -0.000358086189389 0)
(0.4235223435 -0.000446002997719 0)
(0.424343832061 -0.000556368701407 0)
(0.425371150126 -0.000695386814794 0)
(0.426658323978 -0.00087122958537 0)
(0.428274985757 -0.00109479432629 0)
(0.430311747509 -0.00138086753135 0)
(0.432887971489 -0.0017499517058 0)
(0.436163518938 -0.00223132326536 0)
(0.440357400959 -0.00286871877794 0)
(0.445779186967 -0.00373214954485 0)
(0.452886293799 -0.00494590894852 0)
(0.462396951378 -0.00676297072033 0)
(0.475508509472 -0.00977274878403 0)
(0.494303534986 -0.0154847228226 0)
(0.522777847084 -0.028032625586 0)
(0.568962513856 -0.0592247843524 0)
(0.639195460296 -0.13937380837 0)
(1.0338701898 0.239242467751 0)
(1.08314026211 0.293636157701 0)
(1.03294507937 0.239131072739 0)
(0.95441473917 0.174531668616 0)
(0.880133208611 0.121532551931 0)
(0.818725144742 0.0831968625729 0)
(0.771559188821 0.0567643221439 0)
(0.736852035132 0.0387195860234 0)
(0.711928426868 0.0263614001782 0)
(0.694336242125 0.0178536901138 0)
(0.682109974255 0.0119779434946 0)
(0.673749222704 0.00792080055673 0)
(0.668137488689 0.00513101538865 0)
(0.664456624016 0.00322875829209 0)
(0.662113275885 0.0019486652 0)
(0.660680960582 0.00110347893498 0)
(0.6598560838 0.000560215046654 0)
(0.65942504333 0.000224126753265 0)
(0.659239889627 2.77014344891e-05 0)
(0.65919992288 -7.66014269108e-05 0)
(0.659238551648 -0.000122650706388 0)
(0.659313451304 -0.000133587331223 0)
(0.659398846021 -0.000125064535239 0)
(0.659480333786 -0.00010730508188 0)
(0.6595509263 -8.66418940559e-05 0)
(0.659608225827 -6.67062105014e-05 0)
(0.659652474894 -4.93209697916e-05 0)
(0.659685253643 -3.51564596704e-05 0)
(0.659708652754 -2.42022278978e-05 0)
(0.659724785868 -1.60908390601e-05 0)
(0.659735534537 -1.03115292009e-05 0)
(0.659742449601 -6.3455426202e-06 0)
(0.659746730929 -3.71682988334e-06 0)
(0.659749266493 -2.04080310222e-06 0)
(0.659750687022 -1.01577898224e-06 0)
(0.659751420225 -4.22075054682e-07 0)
(0.6597517539 -1.01042114558e-07 0)
(0.65975186588 5.79784900767e-08 0)
(0.659751863915 1.29298440596e-07 0)
(0.65975181306 1.48402182465e-07 0)
(0.659751746158 1.41119525627e-07 0)
(0.659751679686 1.24224953018e-07 0)
(0.659751621177 1.05514823357e-07 0)
(0.659751572979 8.74969306872e-08 0)
(0.659751535581 7.15729866396e-08 0)
(0.659751508838 5.93620354701e-08 0)
(0.659751489878 5.13794053135e-08 0)
(0.659751474024 4.62076464646e-08 0)
(0.659751459473 4.31070128171e-08 0)
(0.659751446318 4.19730440038e-08 0)
(0.659751434164 4.23287947239e-08 0)
(0.659751422649 4.36431419055e-08 0)
(0.659751411908 4.5791633513e-08 0)
(0.659751402314 4.8695013428e-08 0)
(0.659751393466 5.20500820354e-08 0)
(0.659751384046 5.5110129532e-08 0)
(0.659751373007 5.77971306999e-08 0)
(0.65975136056 6.10102760642e-08 0)
(0.659751347629 6.55928852874e-08 0)
(0.659751334704 7.14151456186e-08 0)
(0.659751321688 7.78614632228e-08 0)
(0.659751308618 8.46623886117e-08 0)
(0.659751295735 9.1813873841e-08 0)
(0.659751282626 9.9098517587e-08 0)
(0.659751268099 1.06169712897e-07 0)
(0.65975125135 1.13174905027e-07 0)
(0.659751232844 1.20959539161e-07 0)
(0.659751213652 1.30170135839e-07 0)
(0.659751194151 1.4048996337e-07 0)
(0.659751173931 1.51203012157e-07 0)
(0.659751152813 1.6204909722e-07 0)
(0.659751131284 1.73327999478e-07 0)
(0.659751109861 1.85255555323e-07 0)
(0.659751088461 1.97766330773e-07 0)
(0.659751066469 2.10858827319e-07 0)
(0.65975104317 2.24756547327e-07 0)
(0.659751018135 2.39663844832e-07 0)
(0.659750991524 2.5562619349e-07 0)
(0.659750964189 2.72709995272e-07 0)
(0.65975093714 2.91004864352e-07 0)
(0.659750910548 3.10266498345e-07 0)
(0.659750883417 3.29834894359e-07 0)
(0.659750854565 3.4926316925e-07 0)
(0.659750823891 3.68943190409e-07 0)
(0.659750792455 3.89789952063e-07 0)
(0.659750761328 4.12321177195e-07 0)
(0.659750730619 4.36378928056e-07 0)
(0.659750699843 4.61772592394e-07 0)
(0.65975066906 4.88819238684e-07 0)
(0.659750639228 5.17980907704e-07 0)
(0.65975061133 5.49014193956e-07 0)
(0.659750585659 5.80730198389e-07 0)
(0.659750562409 6.119191837e-07 0)
(0.659750542612 6.42479023759e-07 0)
(0.659750527884 6.73319310512e-07 0)
(0.659750519105 7.05181565149e-07 0)
(0.659750515802 7.37760567002e-07 0)
(0.659750517411 7.704232428e-07 0)
(0.659750525131 8.0400789386e-07 0)
(0.659750545368 8.41310023162e-07 0)
(0.659750585761 8.81411612487e-07 0)
(0.659750649808 9.2150827775e-07 0)
(0.659750739744 9.581801886e-07 0)
(0.65975086006 9.89546777706e-07 0)
(0.65975101927 1.01513671618e-06 0)
(0.659751228514 1.03433174625e-06 0)
(0.659751500059 1.04469273179e-06 0)
(0.659751848771 1.04149750444e-06 0)
(0.659752295468 1.02078690826e-06 0)
(0.659752869336 9.82767007051e-07 0)
(0.659753592532 9.33694035669e-07 0)
(0.659754487873 8.60915060659e-07 0)
(0.659755599394 7.49127819909e-07 0)
(0.659756983177 5.84379314239e-07 0)
(0.65975870744 3.51864061787e-07 0)
(0.659760854619 3.32399822414e-08 0)
(0.659763524013 -3.95061904678e-07 0)
(0.659766838507 -9.62263616656e-07 0)
(0.659770953291 -1.70452879677e-06 0)
(0.659776062669 -2.66775465654e-06 0)
(0.659782406107 -3.90988201793e-06 0)
(0.659790279593 -5.50217073183e-06 0)
(0.65980005222 -7.5319440525e-06 0)
(0.659812179078 -1.01025711264e-05 0)
(0.659827223762 -1.33293003461e-05 0)
(0.659845889552 -1.7392036496e-05 0)
(0.659869048733 -2.25268884064e-05 0)
(0.65989778952 -2.90128483536e-05 0)
(0.659933468118 -3.71912467627e-05 0)
(0.659977763495 -4.74821669569e-05 0)
(0.660032754442 -6.04064702777e-05 0)
(0.660101026318 -7.66153352792e-05 0)
(0.660185800883 -9.6920818954e-05 0)
(0.6602910849 -0.000122331699235 0)
(0.660421853594 -0.00015410295464 0)
(0.660584296281 -0.00019379814933 0)
(0.660786130681 -0.000243366226819 0)
(0.661036979896 -0.000305247155181 0)
(0.661348839809 -0.000382507460716 0)
(0.661736689897 -0.000478998277027 0)
(0.662219274737 -0.000599564347363 0)
(0.662820082526 -0.000750343752031 0)
(0.663568603324 -0.000939157870943 0)
(0.664501973781 -0.00117601297678 0)
(0.665667120658 -0.00147380949917 0)
(0.667123588848 -0.00184934591178 0)
(0.668947339445 -0.00232472093494 0)
(0.671235930769 -0.00292940861949 0)
(0.674115741142 -0.00370344685472 0)
(0.677752299061 -0.00470247020294 0)
(0.682365514378 -0.0060061555655 0)
(0.688252993349 -0.00773340770115 0)
(0.695826961031 -0.0100716644677 0)
(0.705674567207 -0.0133375589281 0)
(0.718658318426 -0.0181103380583 0)
(0.736068376262 -0.0255345783819 0)
(0.759784405127 -0.0379883412231 0)
(0.792389099063 -0.0604752359917 0)
(0.836751073956 -0.10337292068 0)
(0.889143402089 -0.185246692214 0)
(1.03384124728 0.171308482548 0)
(1.10231628075 0.275557607798 0)
(1.11663937755 0.266307669993 0)
(1.09209020152 0.219875746223 0)
(1.05198160848 0.1681727638 0)
(1.01027908819 0.123546784202 0)
(0.973611831899 0.0887742723864 0)
(0.944059817539 0.0628856656085 0)
(0.921433066335 0.0440353977402 0)
(0.904695911345 0.030482723377 0)
(0.892638296976 0.0208254809483 0)
(0.884148173898 0.0140002246758 0)
(0.878301451923 0.00922064488795 0)
(0.874370455382 0.00591131916962 0)
(0.871800640082 0.00365291816706 0)
(0.87017891786 0.00214051885847 0)
(0.8692031369 0.00115277611406 0)
(0.868655983217 0.000529398870071 0)
(0.868383948836 0.000154767831003 0)
(0.868280617812 -5.40871643396e-05 0)
(0.868274225393 -0.000155880882479 0)
(0.868317947323 -0.000191683806687 0)
(0.868382347881 -0.000189515353956 0)
(0.86845014457 -0.000167921029464 0)
(0.868512143092 -0.000138625126854 0)
(0.868564297744 -0.000108564343477 0)
(0.868605657155 -8.14281403527e-05 0)
(0.86863696316 -5.88014218694e-05 0)
(0.868659737017 -4.09936684437e-05 0)
(0.868675720461 -2.76173290359e-05 0)
(0.868686558221 -1.7968295268e-05 0)
(0.868693661164 -1.12604209311e-05 0)
(0.868698154366 -6.76530679688e-06 0)
(0.868700884821 -3.8583437932e-06 0)
(0.868702467396 -2.05233127713e-06 0)
(0.868703328064 -9.79279790652e-07 0)
(0.868703755238 -3.7612083293e-07 0)
(0.868703938452 -6.45847180078e-08 0)
(0.868703989337 7.9263507624e-08 0)
(0.868703970866 1.28655452771e-07 0)
(0.868703924621 1.29463729317e-07 0)
(0.868703871666 1.09340988945e-07 0)
(0.868703820777 8.28154335649e-08 0)
(0.868703775768 5.65316498493e-08 0)
(0.868703739095 3.40490607681e-08 0)
(0.868703711028 1.65298683761e-08 0)
(0.868703689389 2.85500189713e-09 0)
(0.868703671941 -7.79458668954e-09 0)
(0.868703657243 -1.57715328192e-08 0)
(0.868703643832 -2.29414264137e-08 0)
(0.868703630736 -2.99503139267e-08 0)
(0.868703617542 -3.64196597412e-08 0)
(0.868703604123 -4.23044788177e-08 0)
(0.868703590869 -4.79392840344e-08 0)
(0.868703577897 -5.38341886374e-08 0)
(0.868703564413 -6.02493040409e-08 0)
(0.868703549837 -6.66213163726e-08 0)
(0.868703534278 -7.22017010268e-08 0)
(0.868703517998 -7.69203919858e-08 0)
(0.868703501053 -8.13613373245e-08 0)
(0.868703483545 -8.60235840749e-08 0)
(0.868703465749 -9.10621175087e-08 0)
(0.86870344775 -9.67112764471e-08 0)
(0.868703429006 -1.03301252408e-07 0)
(0.868703408626 -1.10769754912e-07 0)
(0.868703386243 -1.18541813958e-07 0)
(0.868703362275 -1.26053006812e-07 0)
(0.868703337265 -1.33318117005e-07 0)
(0.868703311288 -1.40805215452e-07 0)
(0.86870328414 -1.48795627918e-07 0)
(0.868703255901 -1.57311891751e-07 0)
(0.868703226992 -1.66385280332e-07 0)
(0.868703197772 -1.76157792095e-07 0)
(0.868703168221 -1.86678979206e-07 0)
(0.868703137902 -1.97770438067e-07 0)
(0.868703106152 -2.09194160398e-07 0)
(0.868703072462 -2.20875779003e-07 0)
(0.868703036968 -2.32836772968e-07 0)
(0.868703000507 -2.45061029883e-07 0)
(0.868702963882 -2.57692882781e-07 0)
(0.868702926964 -2.71270524495e-07 0)
(0.868702888795 -2.86459388028e-07 0)
(0.868702848714 -3.0346676102e-07 0)
(0.86870280715 -3.21831293902e-07 0)
(0.868702765192 -3.40919833686e-07 0)
(0.868702723574 -3.60539847115e-07 0)
(0.868702682297 -3.80869351962e-07 0)
(0.868702641129 -4.01906848084e-07 0)
(0.86870260025 -4.23394433113e-07 0)
(0.868702560227 -4.45516751391e-07 0)
(0.868702521503 -4.69435762399e-07 0)
(0.868702484446 -4.96713799114e-07 0)
(0.868702450126 -5.28163367234e-07 0)
(0.86870242053 -5.63512479492e-07 0)
(0.86870239753 -6.02273256126e-07 0)
(0.868702381682 -6.44822556499e-07 0)
(0.868702372793 -6.9233698949e-07 0)
(0.868702372388 -7.45445817912e-07 0)
(0.868702385482 -8.03168496327e-07 0)
(0.868702416373 -8.63283038796e-07 0)
(0.868702467594 -9.28031660279e-07 0)
(0.868702542694 -1.00143474089e-06 0)
(0.868702646449 -1.08721320579e-06 0)
(0.868702786355 -1.18731990129e-06 0)
(0.868702972775 -1.3029876684e-06 0)
(0.868703217436 -1.43697769278e-06 0)
(0.868703532677 -1.59494035863e-06 0)
(0.868703934091 -1.78475502846e-06 0)
(0.868704443423 -2.01521235e-06 0)
(0.868705089686 -2.29758062455e-06 0)
(0.868705905684 -2.65019677366e-06 0)
(0.868706928465 -3.08413808159e-06 0)
(0.868708206217 -3.61589858123e-06 0)
(0.868709801046 -4.26797330141e-06 0)
(0.86871179099 -5.06768395616e-06 0)
(0.868714270982 -6.04960950564e-06 0)
(0.86871735613 -7.25777842731e-06 0)
(0.868721189341 -8.74673363641e-06 0)
(0.868725950163 -1.05838124334e-05 0)
(0.868731862853 -1.2853734373e-05 0)
(0.868739205333 -1.56618725718e-05 0)
(0.868748321624 -1.91385632307e-05 0)
(0.868759639433 -2.34472738588e-05 0)
(0.868773689076 -2.8795889229e-05 0)
(0.868791128113 -3.54408904924e-05 0)
(0.868812772897 -4.3695749644e-05 0)
(0.868839635643 -5.39427040976e-05 0)
(0.868872976351 -6.66547663664e-05 0)
(0.868914365113 -8.24263340416e-05 0)
(0.86896575057 -0.000102002091888 0)
(0.869029547728 -0.00012630897639 0)
(0.869108758486 -0.0001564981648 0)
(0.869207121141 -0.000194002816421 0)
(0.869329284939 -0.000240613394551 0)
(0.869481027668 -0.000298565637188 0)
(0.869669539498 -0.000370643704525 0)
(0.869903776781 -0.000460321243403 0)
(0.870194895515 -0.00057195268022 0)
(0.870556803279 -0.000711003118254 0)
(0.871006862863 -0.000884331124364 0)
(0.871566768219 -0.0011005758119 0)
(0.872263654331 -0.00137067432018 0)
(0.873131533535 -0.00170852507697 0)
(0.874213134037 -0.00213187704338 0)
(0.875562265452 -0.00266356331017 0)
(0.877246927229 -0.00333320662861 0)
(0.879353407879 -0.00417962618915 0)
(0.881991745908 -0.00525435394522 0)
(0.885303165421 -0.00662692044373 0)
(0.889470337844 -0.00839309551046 0)
(0.894731753913 -0.0106883150656 0)
(0.901402152405 -0.013710644239 0)
(0.909901503533 -0.017762132271 0)
(0.920794849279 -0.0233264842007 0)
(0.934841726221 -0.0312193218762 0)
(0.953032615167 -0.042880443082 0)
(0.976514325594 -0.0609095764981 0)
(1.0062015703 -0.0899000243723 0)
(1.04156911505 -0.137360302258 0)
(1.07589411193 -0.212856130513 0)
(1.02388353474 0.119323197912 0)
(1.08875533379 0.231513639698 0)
(1.13660884424 0.252859665654 0)
(1.15407386122 0.228878377259 0)
(1.15002605016 0.188281907995 0)
(1.13542465989 0.146479455297 0)
(1.11766263659 0.1100100171 0)
(1.10072936012 0.0806119328805 0)
(1.0863310335 0.057942619202 0)
(1.07488808134 0.0409462815607 0)
(1.06620025854 0.0284535502721 0)
(1.05982822492 0.0194152694882 0)
(1.05528877096 0.0129695960287 0)
(1.05214194146 0.00843979483765 0)
(1.05002137108 0.00530810299852 0)
(1.04863749746 0.00318484281814 0)
(1.04776936338 0.00178004667085 0)
(1.0472528355 0.000879849854728 0)
(1.04696881401 0.000327800675201 0)
(1.04683274173 1.04452613226e-05 0)
(1.04678622744 -0.00015328292691 0)
(1.04679011495 -0.00022075977773 0)
(1.04681898601 -0.000231412717115 0)
(1.04685719038 -0.000211624923968 0)
(1.04689577464 -0.000178337378262 0)
(1.04693016974 -0.000141797205219 0)
(1.0469585508 -0.000107661940968 0)
(1.04698069545 -7.85758837907e-05 0)
(1.04699721567 -5.53234085468e-05 0)
(1.04700907213 -3.7636445336e-05 0)
(1.04701728664 -2.47431506659e-05 0)
(1.04702278765 -1.56885337958e-05 0)
(1.04702634858 -9.55806318468e-06 0)
(1.04702857316 -5.55233202124e-06 0)
(1.04702990641 -3.03250738308e-06 0)
(1.04703066636 -1.51207615716e-06 0)
(1.0470310726 -6.38291719918e-07 0)
(1.04703127009 -1.67474027617e-07 0)
(1.04703134831 5.8782074883e-08 0)
(1.04703136212 1.4829552067e-07 0)
(1.04703134593 1.66588912768e-07 0)
(1.0470313176 1.51639016522e-07 0)
(1.04703128568 1.24316942903e-07 0)
(1.04703125533 9.61214853517e-08 0)
(1.04703122995 7.27867536502e-08 0)
(1.04703121003 5.55562667133e-08 0)
(1.04703119366 4.32689004894e-08 0)
(1.04703117823 3.40679049736e-08 0)
(1.04703116179 2.62835308052e-08 0)
(1.04703114455 1.95617895236e-08 0)
(1.04703112808 1.5043168505e-08 0)
(1.04703111263 1.19741175262e-08 0)
(1.04703109778 9.1652391471e-09 0)
(1.04703108344 6.62846192584e-09 0)
(1.04703106916 4.38692290313e-09 0)
(1.04703105439 2.60760364208e-09 0)
(1.04703103882 1.7570163762e-09 0)
(1.0470310222 2.03246639124e-09 0)
(1.04703100437 3.13549178233e-09 0)
(1.04703098538 4.68286587132e-09 0)
(1.04703096548 6.45915309505e-09 0)
(1.04703094491 8.17479410262e-09 0)
(1.04703092374 9.52064493805e-09 0)
(1.04703090175 1.05116395536e-08 0)
(1.04703087845 1.15326996541e-08 0)
(1.04703085344 1.29776641895e-08 0)
(1.04703082671 1.49333902292e-08 0)
(1.04703079853 1.73027043354e-08 0)
(1.04703076905 2.00377451713e-08 0)
(1.04703073821 2.31378574121e-08 0)
(1.04703070599 2.64617388836e-08 0)
(1.04703067275 2.97083565247e-08 0)
(1.047030639 3.26972640238e-08 0)
(1.0470306049 3.55272968811e-08 0)
(1.04703057007 3.84801557701e-08 0)
(1.04703053376 4.18120785536e-08 0)
(1.04703049532 4.56675217392e-08 0)
(1.04703045487 5.01188709955e-08 0)
(1.04703041313 5.51118636992e-08 0)
(1.04703037069 6.03081176641e-08 0)
(1.04703032734 6.51495491691e-08 0)
(1.04703028234 6.927802589e-08 0)
(1.0470302354 7.2826992964e-08 0)
(1.04703018712 7.62285931818e-08 0)
(1.04703013841 7.98244117962e-08 0)
(1.04703008982 8.37318984688e-08 0)
(1.04703004137 8.80559544729e-08 0)
(1.04702999296 9.30668415195e-08 0)
(1.0470299445 9.8896802845e-08 0)
(1.04702989595 1.04927933582e-07 0)
(1.04702984736 1.09810306906e-07 0)
(1.04702979952 1.12425034574e-07 0)
(1.0470297543 1.12613788326e-07 0)
(1.04702971403 1.10694283013e-07 0)
(1.04702968015 1.06329848131e-07 0)
(1.04702965261 9.81244306477e-08 0)
(1.04702963118 8.45090268908e-08 0)
(1.04702961765 6.47538574284e-08 0)
(1.04702961619 3.82225878141e-08 0)
(1.04702963148 2.0175534415e-09 0)
(1.04702966725 -4.69188579581e-08 0)
(1.04702972729 -1.12750343298e-07 0)
(1.04702981731 -1.99291426303e-07 0)
(1.047029946 -3.09448861229e-07 0)
(1.04703012386 -4.46883476139e-07 0)
(1.04703036169 -6.17954926728e-07 0)
(1.0470306716 -8.32139002034e-07 0)
(1.04703107088 -1.09974878594e-06 0)
(1.04703158381 -1.43099742273e-06 0)
(1.04703223975 -1.83758399556e-06 0)
(1.04703307018 -2.33761849934e-06 0)
(1.04703411179 -2.95495496312e-06 0)
(1.04703541421 -3.71913531557e-06 0)
(1.04703704307 -4.6643671507e-06 0)
(1.0470390796 -5.83159971757e-06 0)
(1.04704162107 -7.27295529351e-06 0)
(1.04704478568 -9.05470320661e-06 0)
(1.04704872111 -1.12586941955e-05 0)
(1.04705361244 -1.39855606662e-05 0)
(1.04705969091 -1.7359931226e-05 0)
(1.04706724385 -2.15371308402e-05 0)
(1.04707662709 -2.67100284899e-05 0)
(1.04708828156 -3.31191142968e-05 0)
(1.04710275331 -4.1065587016e-05 0)
(1.04712072028 -5.09245427639e-05 0)
(1.04714302567 -6.31615207434e-05 0)
(1.04717071655 -7.83499777578e-05 0)
(1.04720509394 -9.71965575599e-05 0)
(1.04724777522 -0.000120581317688 0)
(1.04730076928 -0.000149605267943 0)
(1.0473665713 -0.000185638819002 0)
(1.047448284 -0.00023038017239 0)
(1.04754976487 -0.000285940905133 0)
(1.04767580689 -0.000354958759189 0)
(1.04783237054 -0.000440725644716 0)
(1.04802687423 -0.000547342301432 0)
(1.0482685473 -0.000679928251512 0)
(1.04856887441 -0.000844891466741 0)
(1.04894216467 -0.0010502580882 0)
(1.0494062572 -0.00130610069162 0)
(1.04998339456 -0.0016251043859 0)
(1.05070133843 -0.00202328997557 0)
(1.05159479092 -0.00252096062767 0)
(1.05270717797 -0.00314398026163 0)
(1.05409291984 -0.00392549457606 0)
(1.05582036046 -0.00490829009621 0)
(1.05797552628 -0.0061481092442 0)
(1.06066697157 -0.00771837964484 0)