/*--------------------------------*- C++ -*----------------------------------*\
| =========                 |                                                 |
| \\      /  F ield         | OpenFOAM: The Open Source CFD Toolbox           |
|  \\    /   O peration     | Version:  2106                                  |
|   \\  /    A nd           | Website:  www.openfoam.com                      |
|    \\/     M anipulation  |                                                 |
\*---------------------------------------------------------------------------*/
FoamFile
{
    version     2.0;
    format      ascii;
    arch        "LSB;label=32;scalar=64";
    class       volScalarField;
    location    "0.025";
    object      p;
}
// * * * * * * * * * * * * * * * * * * * * * * * * * * * * * * * * * * * * * //

dimensions      [0 2 -2 0 0 0 0];

internalField   nonuniform List<scalar> 
11200
(
143.814917499
140.886952625
139.774488728
139.249249262
138.884567724
138.592628047
138.333500428
138.086620341
137.842479659
137.596279559
137.34529948
137.087925186
136.823160709
136.550341519
136.269001734
135.978724
135.678959272
135.369237615
135.049043537
134.717814955
134.374954685
134.019846004
133.651832404
133.270233025
132.874354434
132.463488462
132.036912874
131.593892251
131.133678169
130.655510025
130.158616428
129.642214931
129.105512042
128.547703621
127.967975174
127.365502124
126.739450138
126.08897546
125.413225241
124.71133788
123.98244334
123.22566344
122.440112061
121.624895245
120.779111175
119.90184997
118.992193224
118.04921325
117.071971934
116.05951913
115.010890469
113.925104471
112.801158815
111.63802557
110.434645107
109.189918334
107.902696833
106.571770369
105.195851117
103.773553738
102.303370378
100.783639006
99.2125031829
97.5878636389
95.9073112275
94.1680412575
92.3667444269
90.4994630021
88.5613963119
86.5466447328
84.4478776803
82.2556761631
79.9578595972
77.5383151506
74.9750545555
72.2366073529
69.2758452316
66.0219302342
62.3242822802
57.5581463234
142.021444141
140.663696353
139.873397938
139.374494814
138.985106979
138.663119831
138.380423323
138.117132385
137.862041324
137.608728641
137.353255794
137.093147788
136.826816243
136.553191848
136.271469961
135.980980912
135.681215958
135.371613147
135.051597233
134.720578409
134.377942937
134.02304597
133.655232063
133.273830126
132.878147991
132.467477393
132.041095592
131.598266133
131.138241444
130.660265043
130.16356638
129.647362837
129.110860784
128.553256022
127.973734031
127.371470224
126.745630291
126.095370531
125.41983817
124.718171701
123.989501243
123.232948844
122.447628699
121.632647282
120.787103349
119.910087761
119.000683075
118.057962841
117.080990498
116.068817826
115.020482829
113.935006969
112.811391582
111.648613277
110.445618048
109.201313795
107.914560821
106.584159765
105.208836373
103.787222294
102.317831208
100.799028713
99.2289912283
97.6056529139
95.9266402367
94.1892219615
92.3901806683
90.5256773239
88.5910707897
86.5806672025
84.4873635366
82.3022353788
80.0137092057
77.6066189852
75.0605220366
72.3468292101
69.4244033485
66.2342933556
62.6725041957
58.5339185833
141.025748967
140.371930931
139.819911852
139.382850983
139.012183593
138.691380165
138.403664479
138.13452005
137.874459282
137.617386982
137.359249786
137.097340677
136.829837609
136.555475874
136.273326099
135.982664511
135.682805967
135.373170993
135.053161456
134.722169138
134.379571767
134.024729662
133.656983461
133.275655375
132.880051734
132.469464494
132.043172175
131.60044066
131.140521495
130.662648496
130.166052395
129.649951725
129.113553598
128.556054389
127.976640012
127.374486233
126.748759103
126.098615306
125.42320251
124.721659751
123.993117813
123.23669955
122.451520149
121.636687315
120.791301328
119.914454931
119.005233001
118.06271198
117.085958857
116.074029722
115.025967835
113.940801087
112.817538706
111.655166977
110.452643766
109.20889155
107.922788514
106.593157205
105.218750139
103.798231532
102.330154552
100.812932018
99.2447985416
97.6237898857
95.9476742004
94.2138461458
92.4192627872
90.5603220734
88.6327035376
86.6311579086
84.5492123038
82.3787882439
80.1097453158
77.7290582245
75.2198418035
72.5599367732
69.7207691186
66.6696321194
63.3696345594
59.7956564615
140.475603449
140.112595841
139.71291172
139.344204317
139.007156506
138.699938359
138.415609633
138.145773136
137.883731286
137.624538851
137.364577115
137.101249802
136.832709822
136.557622634
136.274981799
135.983974552
135.683939883
135.374205308
135.0541451
134.723138365
134.380550986
134.025733425
133.658019922
133.27672914
132.881165001
132.470617401
132.044362834
131.601665234
131.141777819
130.663945266
130.167395173
129.651346735
129.115004642
128.557564625
127.978212526
127.376124218
126.75046609
126.100395347
125.425060349
124.723600972
123.995149064
123.238828777
122.453756895
121.639043083
120.793790046
119.917093515
119.008042016
118.065716392
117.089188875
116.077521976
115.029766805
113.944960841
112.822125011
111.660259902
110.458340896
109.21531195
107.930077667
106.601493408
105.228353146
103.809373768
102.343174788
100.828259335
99.2629708349
97.6454416112
95.9735673607
94.244949276
92.4568099272
90.6058927305
88.6883380973
86.6995269174
84.6338843005
82.4846418096
80.2435130022
77.9003621325
75.4429451978
72.8569114583
70.1271076642
67.2432776949
64.2087827639
61.0602158149
140.141296115
139.909784012
139.608510462
139.297682875
138.993187017
138.701759917
138.423527958
138.155035831
137.892268794
137.631629962
137.370147605
137.10549616
136.835908434
136.560042587
136.276852763
135.985482914
135.685195748
135.375309568
135.055168991
134.724129694
134.381541795
134.026745189
133.659067513
133.277823307
132.882313884
132.471827813
132.045641432
131.603018804
131.143211541
130.665458941
130.168988318
129.65301515
129.116748283
128.55938394
127.980109566
127.378102145
126.752528996
126.102548212
125.427309173
124.725952897
123.997612658
123.241414306
122.456476693
121.641912014
120.796826037
119.920318156
119.011481159
118.06940186
117.093159532
116.081825103
115.034459954
113.950114107
112.827823799
111.666608342
110.465466062
109.223369067
107.939256532
106.612026049
105.240521713
103.823516559
102.359705923
100.847684837
99.2859134253
97.6727007877
96.0061528082
94.2841248969
92.5041666083
90.6634519775
88.7586955214
86.7860538991
84.741015653
82.6182926025
80.4117374697
78.1143697078
75.7186754401
73.2175145679
70.6065223996
67.8900091308
65.0894954616
62.2557685479
139.937724351
139.761908463
139.520723719
139.253430958
138.976430637
138.700186411
138.429018259
138.162949456
137.900235222
137.638610371
137.375831888
137.109933337
136.839294972
136.562610954
136.278819244
135.987028705
135.686459219
135.376388238
135.056140253
134.725045298
134.38243659
134.027642551
133.65998287
133.278766712
132.88329187
132.472844315
132.046698031
131.604115387
131.144347238
130.666633324
130.17020289
129.654274816
129.118057279
128.560748603
127.981535505
127.379594405
126.754092988
126.104190178
125.429036384
124.727773854
123.999537568
123.243455455
122.458648907
121.644233227
120.799318014
119.923007487
119.014400758
118.072590783
117.096665
116.085704484
115.038782873
113.954965043
112.833305325
111.672845097
110.472609595
109.231603749
107.948806832
106.623165747
105.253587796
103.838936861
102.378005355
100.869487083
99.3119968051
97.7040198582
96.0438887292
94.3297528894
92.5595407258
90.7309173303
88.841240914
86.8875227443
84.8664017371
82.7741586752
80.6068163264
78.3604181205
76.0316627895
73.619191646
71.1260988942
68.5646701056
65.9622103907
63.3662529314
139.814467349
139.658683274
139.452188138
139.215485358
138.960020651
138.696954298
138.432686607
138.169459575
137.90727383
137.64503301
137.381200039
137.114192693
136.842572391
136.565097155
136.280707373
135.988486847
135.6876213
135.377359596
135.056993875
134.725832548
134.383192997
134.028392122
133.660741571
133.279545089
132.884096921
132.473680904
132.047569987
131.605026095
131.145300303
130.667633022
130.17125345
129.655380045
129.119220419
128.561971247
127.98281883
127.380941628
126.755509207
126.105681806
125.430611217
124.729441685
124.001310025
123.245346503
122.460675409
121.646415618
120.801681099
119.925581323
119.017221579
118.075703063
117.100122615
116.089572735
115.043141226
113.959910238
112.838955149
111.679343027
110.480130523
109.240361066
107.959061181
106.635235462
105.267859249
103.855868953
102.398163962
100.89358654
99.3409094512
97.7388206722
96.0859080955
94.3806424199
92.6213598842
90.8062480066
88.9333396907
87.0005249046
85.0055963625
82.9463588489
80.8208522483
78.6277751014
76.3672497074
74.0421270984
71.6601175197
69.2370983761
66.8003728603
64.3897962675
139.740268783
139.589818923
139.4026331
139.186163455
138.946252425
138.693452767
138.43500525
138.174437293
137.91295963
137.650382466
137.385761121
137.11785929
136.845415344
136.567259598
136.28234617
135.989743974
135.688612703
135.378175307
135.057699524
134.726474447
134.383803119
134.028992128
133.661345991
133.280163663
132.884736256
132.47434564
132.04826362
131.605751476
131.146059775
130.668428352
130.17208622
129.656251476
129.120131999
128.562926062
127.983823368
127.382002717
126.756633215
126.106875997
125.431884382
124.730804296
124.002774758
123.246928687
122.462393598
121.648292297
120.803743532
119.927862582
119.019761729
118.078550662
117.103337072
116.093226472
115.047322033
113.964724627
112.844532462
111.685840416
110.487739009
109.24931294
107.969639058
106.647783729
105.282799659
103.873720861
102.419557121
100.919294217
99.3718718377
97.7761944644
96.1311189069
94.4354510951
92.6879480619
90.8873281557
89.0322970786
87.1216010622
85.1541252062
83.1290661608
81.0462238165
78.9064794218
76.712553135
74.4701423271
72.1895281876
69.8876683943
67.5896791895
65.3280085233
139.697899425
139.547805018
139.370753648
139.166440463
138.936496075
138.690632356
138.436331105
138.177784136
137.916939989
137.654213237
137.389078373
137.120556336
136.847524118
136.568873323
136.283574074
135.990687955
135.689357663
135.378788188
135.058227117
134.726952709
134.38425638
134.029436713
133.66179297
133.280620539
132.885208182
132.474836265
132.048775671
131.60628716
131.146621058
130.669017154
130.172704706
129.656902585
129.120819693
128.563654897
127.984596427
127.38282431
126.757509583
126.107814915
125.432895189
124.731898168
124.003965205
123.248232053
122.4638297
121.649885189
120.805522439
119.929863029
119.022026928
118.081133153
117.106300379
116.096647518
115.051294257
113.969361555
112.849972031
111.692250272
110.495323006
109.258319091
107.980369188
106.660605093
105.29815882
103.892160944
102.441736155
100.946020063
99.4041393431
97.8152112321
96.178364128
94.4927413457
92.7575163844
90.9719237255
89.1353103489
87.2472190155
85.3075208738
83.3166227566
81.2757842842
79.1875902135
77.0566281915
74.8904014561
72.7004524752
70.5035795559
68.3222522676
66.1830153593
139.678570446
139.527933259
139.355216308
139.156578734
138.931478292
138.689095111
138.436940906
138.179480526
137.919006753
137.656233315
137.390850097
137.122014318
136.848678643
136.569769569
136.284267567
135.99123156
135.689795775
135.379155685
135.058550665
134.727250892
134.384542152
134.029719031
133.662077994
133.280912557
132.885510277
132.475150761
132.049104472
131.606631984
131.146983638
130.669399397
130.173108828
129.657331187
129.121275602
128.56414134
127.985118209
127.383386957
126.758119707
126.108480428
125.433625614
124.732705009
124.004862402
123.249236515
122.464961947
121.651170141
120.806990366
119.931550695
119.023978978
118.083403808
117.108955495
116.099767051
115.054975256
113.973721801
112.855154491
111.698428529
110.502707888
109.2671667
107.99099066
106.67337851
105.313543842
103.91071749
102.46414826
100.973101095
99.4368900628
97.8548695406
96.2264261842
94.5510234735
92.8282323717
91.0577729629
89.2395824784
87.3739174496
85.4615044066
83.5037592359
81.5031003357
79.4633822524
77.3904696071
75.2929379667
73.182827014
71.0762929996
68.993443727
66.9565208952
139.678572374
139.52794868
139.355242739
139.156614502
138.931522657
138.689147333
138.437000061
138.179545801
137.919077455
137.656308822
137.390929963
137.122098125
136.848766053
136.569860305
136.284361412
135.991328365
135.689895454
135.379258266
135.058656315
134.727359786
134.384654558
134.029835315
133.66219863
133.281038126
132.885641447
132.475288344
132.049249404
131.606785385
131.147146847
130.669574006
130.173296744
129.657534737
129.121497686
128.56438559
127.98538908
127.383689855
126.758461145
126.108868303
125.434069501
124.733216508
124.005455583
123.249928455
122.465773388
121.652126294
120.808121876
119.932894807
119.025580937
118.085318552
117.111249693
116.102521589
115.058288263
113.977712333
112.859967009
111.704238358
110.50972783
109.275655042
108.00126089
106.685811069
105.328600278
103.928957611
102.486253761
100.999909013
99.4693961771
97.894262097
96.2741662645
94.6088903973
92.8983773806
91.1427908961
89.3425946569
87.4986632896
85.6124376128
83.6861390323
81.7230599321
79.7279445275
77.7074624288
75.6707443459
73.6298939179
71.6003334805
69.6003901453
67.649478447
139.697905279
139.547851682
139.370833574
139.166548569
138.936630151
138.690789824
138.43650924
138.177980522
137.917152544
137.654440184
137.389318255
137.120807948
136.847786471
136.569145602
136.283855641
135.990978385
135.689656699
135.379095956
135.058544011
134.727279282
134.384593441
134.029785346
133.662154564
133.280996799
132.885601134
132.475248291
132.049209552
131.606746191
131.147109193
130.669539176
130.173266449
129.657511186
129.121483662
128.564384542
127.985405245
127.383728419
126.758528451
126.10897208
125.434219134
124.733423393
124.005733558
123.250294334
122.466247621
121.652733758
120.808892827
119.933866018
119.026797079
118.086833856
117.113129959
116.104846627
115.061154866
113.981237887
112.864293892
111.709539259
110.516212167
109.283576727
108.01092768
106.697595848
105.342954625
103.946427841
102.507499477
101.025726577
99.5007562111
97.9323441367
96.3203787462
94.6649171139
92.9662338512
91.2248835532
89.4417838695
87.6183274367
85.7565321247
83.8592405009
81.9303793437
79.9752870048
78.0011045684
76.0171991317
74.0355437966
72.0709407641
70.1405554501
68.2621981337
139.740278811
139.589898004
139.402768219
139.186345775
138.946478058
138.69371722
138.435303895
138.174766065
137.913315055
137.650761611
137.386161574
137.118279072
136.84585283
136.567713452
136.282815373
135.990227892
135.689110889
135.378688044
135.058227253
134.727018157
134.384364173
134.02957232
133.661947601
133.280789497
132.885389661
132.475030526
132.048984533
131.606513766
131.146869811
130.669293794
130.173016522
129.657258694
129.121231161
128.564135243
127.985163133
127.383498391
126.758316506
126.108785554
125.434066976
124.733316492
124.005685162
123.250320576
122.466368156
121.652972519
120.80927893
119.93443486
119.02759166
118.087906369
117.114543714
116.106678402
115.063497756
113.984204753
112.86802155
111.714193557
110.52199409
109.290729729
108.019746508
106.708437147
105.356249641
103.962697632
102.527373047
101.049961629
99.5302623954
97.9682123409
96.3639178144
94.7176930889
93.0301103417
91.3020642698
89.5348554482
87.730297974
85.8908580902
84.019831377
82.1215660636
80.2017379868
78.2676761475
76.3287200834
74.3965640545
72.4855233881
70.6122060437
68.7939778919
139.814482023
139.658797017
139.452381615
139.215745364
138.960341296
138.697328959
138.433108618
138.169923163
137.907774126
137.645565958
137.381762308
137.11478156
136.843185612
136.565732857
136.281364096
135.989163733
135.688317757
135.378076282
135.057731424
134.7265922
134.3839766
134.029202123
133.661581082
133.280417953
132.88500774
132.474635098
132.048573955
131.606087397
131.146427732
130.668836652
130.172545463
129.656775368
129.120737782
128.563634678
127.984659043
127.382995328
126.757820006
126.108302377
125.433605403
124.732886667
124.005299467
123.249994037
122.466119108
121.652823326
120.809256834
119.934573005
119.027930315
118.088494396
117.115440378
116.107955568
115.065242544
113.986522756
112.871040734
111.718068953
110.526913425
109.296920182
108.02748281
106.718051256
105.36814226
103.977351872
102.545370569
101.072001658
99.5571837841
98.001018453
96.4038040606
94.7660776477
93.0886667044
91.3727533972
89.6199541906
87.832418346
86.0129497716
84.1651567909
82.2936351393
80.4041903156
78.5041059469
76.6024620113
74.7105076621
72.8421106049
71.0137632341
69.2434045558
139.937744494
139.762060722
139.520980887
139.253774545
138.976852244
138.700676972
138.429568905
138.163552669
137.900884762
137.639301103
137.376559635
137.110694698
136.840087118
136.563431393
136.279665778
135.987899932
135.6873542
135.377309897
135.057088845
134.726021894
134.383443274
134.028682232
133.661059265
133.279884394
132.884456312
132.474062117
132.047977362
131.605466236
131.145781845
130.668166499
130.171851959
129.656059784
129.120001831
128.562880698
127.983890065
127.382215288
126.757033899
126.107516359
125.432826956
124.732124876
124.00456543
123.249301457
122.465484681
121.652267364
120.80880407
119.934253529
119.027780678
118.088558946
117.11577289
116.108621231
115.066320357
113.988108438
112.873250216
111.721042594
110.530821154
109.301967605
108.033918371
106.726174773
105.378315107
103.990008975
102.561034446
101.091298721
99.5808630284
98.029972531
96.4390923574
94.8089507113
93.1405907339
91.435432446
89.6953466335
87.9227421947
86.1206686241
84.2929355761
82.4442520642
80.5803916383
78.7083975846
76.8368567397
74.9763123496
73.1399919723
71.34433855
69.6085079401
140.141322608
139.909979847
139.608837992
139.298117193
138.993716526
138.702372662
138.424212717
138.15578334
137.893071523
137.632481815
137.371043712
137.106432684
136.836882313
136.561051111
136.277893883
135.986556554
135.686297997
135.376442994
135.056335214
134.725330095
134.382778605
134.028021588
133.66038757
133.279191981
132.883737089
132.473312308
132.047194707
131.604649535
131.144930718
130.667281248
130.170933528
129.655109714
129.119022072
128.561873452
127.982857852
127.381160902
126.755961098
126.10643005
125.43173333
124.731031606
124.003481856
123.248239194
122.464458127
121.6512942
120.807905874
119.933456547
119.027116778
118.088066793
117.115499457
116.108623544
115.066667594
113.988884472
112.874556708
111.723002688
110.533583442
109.305710978
108.038858842
106.732572894
105.38648463
104.000327057
102.573953544
101.10736027
99.6007129332
98.0543783489
96.468961739
94.8453505146
93.1847652824
91.4888189212
89.759583904
87.9996679119
86.2122968657
84.4014037712
82.571722039
80.7288862597
78.8795541545
77.0315873687
75.194433231
73.3801233455
71.604339011
69.8869871019
140.475636538
140.112839159
139.713312346
139.34472995
139.007791639
138.70066766
138.416419413
138.146652427
137.884671342
137.625532721
137.365619415
137.102336592
136.833838477
136.558791673
136.276193179
135.985237596
135.685228309
135.375525185
135.055503307
134.724538738
134.38199722
134.027229968
133.659572581
133.278345254
132.882853435
132.472388463
132.046228541
131.603639592
131.143875887
130.666180665
130.169786758
129.653916862
129.117784
128.560592233
127.981535838
127.379801505
126.754568057
126.105007678
125.430286898
124.729567669
124.002008762
123.246766885
122.462998587
121.649862075
120.806519076
119.932136947
119.02589111
118.08696759
117.114565873
116.107902879
115.066217065
113.9887733
112.874868604
111.723838818
110.535066716
109.307990928
108.042115544
106.737022982
105.39238847
104.00799704
102.583763655
101.119757067
99.6162278436
98.0736412672
96.4927155046
94.8744657852
93.2202544139
91.5318465607
89.8114718061
88.0618895586
86.2864553185
84.4891819263
82.6747892792
80.8487381385
79.0172440513
77.1872759317
75.3667220242
73.5654122851
71.7961932501
70.0765961369
141.025793691
140.372236138
139.820395838
139.383473469
139.012925405
138.692222699
138.404591816
138.135519724
137.875521415
137.618503665
137.360414704
137.098548819
136.831084955
136.556759458
136.274644013
135.983998729
135.684176592
135.374577378
135.054604424
134.723652361
134.381099494
134.026305436
133.658611302
133.27734095
132.881802319
132.471288569
132.045079146
131.602440727
131.142628177
130.664884934
130.168442997
129.652524785
129.116343682
128.559103031
127.979998465
127.378217064
126.752938478
126.103335737
125.428576215
124.727822814
124.000235357
123.244972148
122.461191622
121.648054129
120.804723912
119.930371293
119.02417507
118.085325484
117.113027712
116.106505258
115.065004445
113.987799631
112.874199183
111.723552293
110.535257894
109.308773909
108.043628014
106.739430831
105.395891144
104.012833872
102.590221232
101.128177627
99.6270187656
98.0872853361
96.5097818389
94.8956205478
93.2462700803
91.5636092454
89.849986126
88.1082755031
86.3419338521
84.5550414233
82.7523212146
80.9391188439
79.1212866386
77.3049295819
75.496116493
73.7013816648
71.9267668505
70.1773902647
142.021536094
140.664146954
139.874074503
139.375345025
138.986108183
138.664251585
138.381668786
138.118478438
137.86347746
137.610246126
137.354846936
137.094804916
136.828529756
136.554948477
136.273265615
135.982849743
135.683150617
135.373600108
135.053630667
134.722655896
134.380065207
134.025224572
133.657478632
133.276152705
132.880553307
132.469973782
132.043695879
131.600986958
131.14110216
130.663285506
130.166771003
129.650781777
129.114530443
128.557220882
127.978048345
127.376200045
126.750855889
126.101189286
125.426368148
124.725556098
123.997913854
123.242600756
122.458776449
121.645602742
120.802245633
119.927877577
119.021680059
118.082846519
117.110585567
116.104124996
115.062716412
113.985640613
112.872213947
111.72179581
110.533796348
109.307686537
108.043010155
106.739397048
105.396578898
104.014407728
102.592877722
101.132150701
99.6325858921
98.0947741333
96.5195770741
94.9081707917
93.2620919909
91.5832983702
89.8742276542
88.1378415567
86.3776809985
84.5979046405
82.8033047685
80.9992750134
79.1915703054
77.3859468248
75.5875358836
73.8003650215
72.0186778251
70.203407759
143.815076121
140.887615803
139.775476006
139.250499001
138.886050141
138.594318889
138.335381384
138.088678011
137.844704217
137.598664082
137.34783983
137.090620865
136.826017674
136.553372507
136.272199027
135.982040938
135.6824201
135.372858203
135.052832789
134.72178031
134.379102641
134.024172274
133.656336865
133.274923444
132.879243885
132.46859162
132.042243333
131.5994652
131.13951194
130.661627003
130.165043177
129.648983305
129.112660605
128.555279104
127.976034262
127.374113522
126.748697009
126.098958397
125.424065941
124.723183691
123.99547288
123.240093451
122.456205749
121.642972369
120.799560216
119.925142817
119.018902915
118.080035445
117.107750968
116.101279626
115.059875823
113.982823704
112.869443499
111.719098939
110.531205904
109.305242525
108.04076081
106.737400345
105.394904392
104.013138847
102.592114418
101.132012631
99.6332159338
98.0963424829
96.5222856948
94.9122601177
93.2678566174
91.5910855654
89.8844268187
88.1509039908
86.3941313103
84.6183551758
82.8284729296
81.0300298693
79.2293298972
77.4331206924
75.6483862497
73.881658885
72.1162048051
70.205200074
49.9833260898
46.4900725474
44.1339325459
42.2100406267
40.558208405
39.1076057556
37.8179175298
36.6633324135
35.6252057913
34.6887741669
33.8418051429
33.0739407326
32.3763059679
31.7412399128
31.162092761
30.63306563
30.1490812234
29.7056778256
29.2989211852
28.9253309154
28.5818187419
28.2656364089
27.9743317907
27.7057117828
27.4578103605
27.2288609811
27.0172723344
26.8216072033
26.6405644164
26.4729635266
26.3177315806
26.1738917529
26.0405531813
25.9169016387
25.8021914931
25.6957385418
25.5969138782
25.5051384267
25.4198784504
25.3406420068
25.2669806015
25.198504573
25.1348647456
25.0757026167
25.0206290741
24.9693203649
24.9214950388
24.8769009557
24.8353005466
24.7964527367
24.7601394695
24.7261656733
24.6943653441
24.6645610533
24.6365820907
24.6102803353
24.5855210837
24.5621801796
24.5401424921
24.5193007552
24.4995552021
24.480813517
24.4629910597
24.4460101531
24.4297991909
24.4142917294
24.3994269025
24.3851496529
24.3714102655
24.3581626563
24.3453633671
24.3329720016
24.3209527846
24.3092746927
24.2979101764
24.2868334294
24.2760205803
24.2654508947
24.2551074039
24.2449753466
24.2350408945
24.2252913998
24.2157171441
24.2063116924
24.1970704237
24.187989303
24.1790657846
24.1703004568
24.1616969359
24.1532599617
24.1449951842
24.1369105879
24.1290178465
24.1213304685
24.1138632141
24.1066331202
24.0996616903
24.0929741637
24.0865979932
24.080563446
24.0749063567
24.0696677358
24.0648929204
24.0606315463
24.0569405578
24.0538846434
24.0515348673
24.049969583
24.0492770044
24.0495565383
24.0509171704
24.0534793759
24.0573779222
24.0627630593
24.0697998841
24.0786713636
24.0895806746
24.1027517972
24.1184307419
24.1368896494
24.1584285079
24.1833750102
24.2120878581
24.244960515
24.2824212254
24.3249336286
24.3730006223
24.4271639272
24.4880025116
24.556132063
24.6322028659
24.716891562
24.8108932721
24.9149084107
25.0296202263
25.155665759
25.2935841403
25.4437963792
25.6064594414
25.7813753321
25.9678086644
26.1642539983
26.3680392129
26.5747986863
26.7776584596
26.9661853709
27.1247524542
27.2302698137
27.2491306806
27.1332868584
26.8157596615
26.2068293256
25.1940264054
23.6525598221
21.4751556875
18.6163358528
15.130608697
11.1628007415
6.76552819947
1.9842486748
53.2132479342
49.187500234
46.5085967385
44.3864446406
42.6012923054
41.0548957258
39.6926567649
38.4811440508
37.3970908235
36.4227295182
35.5437968353
34.7485189242
34.0270102904
33.370876522
32.7729270163
32.2269594765
31.7275916139
31.2701284259
30.8504551361
30.4649493479
30.1104101034
29.7839976802
29.4831853697
29.2057172814
28.9495749189
28.7129461666
28.4942004837
28.2918658667
28.1046102387
27.9312254481
27.7706131345
27.6217735294
27.4837939445
27.3558403425
27.2371479149
27.1270150117
27.0247959071
26.9298965044
26.8417687584
26.7599065819
26.6838389846
26.6131225629
26.5473373974
26.4860858402
26.4291022403
26.3760663533
26.3266560829
26.2805842244
26.2375862793
26.1974373919
26.159922823
26.1248386092
26.0919917007
26.0612044111
26.0323164682
26.0051790893
25.9796512455
25.9556042555
25.9329169699
25.9114787231
25.8911842889
25.8719387628
25.8536528137
25.836246403
25.8196436604
25.8037764237
25.7885803473
25.7739988741
25.7599789996
25.7464733323
25.7334353911
25.7208241245
25.7086010386
25.6967342541
25.6851934483
25.673952324
25.6629845969
25.6522694873
25.6417871158
25.6315224862
25.6214591671
25.6115842978
25.6018863873
25.5923574744
25.5829916358
25.5737834649
25.5647289195
25.5558279136
25.5470812902
25.5384933662
25.5300668967
25.5218099457
25.513729887
25.5058406421
25.4981519207
25.4906810449
25.4834446618
25.4764670743
25.4697696493
25.4633825929
25.4573345877
25.45166526
25.4464118774
25.4416214478
25.4373438576
25.4336368022
25.4305655867
25.4281979473
25.4266165629
25.425907234
25.4261714225
25.4275145885
25.4300604688
25.4339410391
25.4393083151
25.4463230963
25.4551718694
25.4660517174
25.479185956
25.4948175087
25.513213748
25.534668956
25.5595011811
25.5880616115
25.6207268373
25.6579093426
25.7000485485
25.7476175355
25.8011176416
25.8610777574
25.9280489621
26.0025940813
26.0852804549
26.1766592187
26.277242845
26.3874688676
26.5076501502
26.6379196192
26.7781198201
26.9276559704
27.0853188145
27.2490298239
27.4154679041
27.5794708069
27.7331956203
27.865205576
27.9588382326
27.9901257553
27.9250981247
27.7164828878
27.3001000325
26.5922286449
25.4903583084
23.8815804821
21.6671658072
18.7982961677
15.3083715501
11.3192707543
6.92050873693
2.10211676965
55.4586601201
51.536722214
48.6978400765
46.4390222171
44.5496640425
42.9236538685
41.4993881475
40.2384464832
39.114119743
38.1062585343
37.198928719
36.3791653128
35.6362221167
34.9610755258
34.3460702057
33.7846570532
33.2711924973
32.8007823415
32.3691583716
31.9725784048
31.6077466074
31.2717469623
30.9619904126
30.6761691626
30.4122205651
30.1682943753
29.9427263179
29.7340142924
29.5407987769
29.3618463852
29.1960352019
29.0423432922
28.89983696
28.767662173
28.6450351036
28.531235981
28.4256019467
28.3275226857
28.2364349922
28.1518196058
28.0731981939
28.0001285952
27.9321891177
27.8689798003
27.8101271587
27.7553088315
27.7042344784
27.6566357177
27.6122633696
27.5708635963
27.5322035188
27.496070053
27.4622659726
27.4306076386
27.4009236175
27.3730569782
27.3468611725
27.3222026496
27.298955658
27.2770053305
27.256242749
27.2365693301
27.2178922656
27.2001280798
27.1831979452
27.1670308902
27.1515601413
27.1367266115
27.1224748515
27.1087552629
27.0955196968
27.0827255347
27.0703327784
27.0583076997
27.0466183015
27.0352369339
27.0241362945
27.0132943918
27.0026900372
26.9923066806
26.9821268806
26.9721365908
26.9623235148
26.9526782593
26.943193417
26.933862492
26.9246803589
26.9156456883
26.9067577467
26.8980191779
26.8894312168
26.8810003208
26.8727318718
26.8646372717
26.8567242842
26.8490078738
26.8415018387
26.8342272444
26.8272021743
26.8204532314
26.8140054013
26.8078932552
26.8021494054
26.7968150827
26.7919348274
26.7875587657
26.7837447015
26.7805523604
26.7780551588
26.7763287366
26.7754629488
26.7755508657
26.7767019923
26.7790327157
26.7826778042
26.7877789921
26.794501183
26.8030179505
26.8135254373
26.8262379426
26.8413895894
26.8592378689
26.8800602658
26.9041625126
26.9318701973
26.9635381233
26.9995423955
27.0402835749
27.0861821981
27.1376755267
27.1952102035
27.2592311779
27.3301702852
27.4084233213
27.4943232845
27.5881003155
27.6898255532
27.7993434832
27.916158777
28.0392879206
28.1670262273
28.2967324928
28.4244484667
28.5442727316
28.6474074244
28.7215656895
28.7492240283
28.7057734802
28.5571887538
28.2572776775
27.7448314138
26.9418669296
25.7552176816
24.0827570996
21.8340463794
18.9581237678
15.4713732348
11.4682026194
7.05966349257
2.22065955013
57.2874915269
53.5738683221
50.6925976267
48.3566739303
46.3946654191
44.7075651229
43.2333818725
41.9315526804
40.7733071117
39.7368586241
38.8050363465
37.963955642
37.2021892786