/*--------------------------------*- C++ -*----------------------------------*\
| =========                 |                                                 |
| \\      /  F ield         | OpenFOAM: The Open Source CFD Toolbox           |
|  \\    /   O peration     | Version:  2106                                  |
|   \\  /    A nd           | Website:  www.openfoam.com                      |
|    \\/     M anipulation  |                                                 |
\*---------------------------------------------------------------------------*/
FoamFile
{
    version     2.0;
    format      ascii;
    arch        "LSB;label=32;scalar=64";
    class       surfaceScalarField;
    location    "0.025";
    object      phi;
}
// * * * * * * * * * * * * * * * * * * * * * * * * * * * * * * * * * * * * * //

dimensions      [0 3 -1 0 0 0 0];

oriented        oriented;

internalField   nonuniform List<scalar> 
22100
(
3.38434222609e-05
1.61565777372e-05
2.24571041675e-05
1.13863178148e-05
1.62714163257e-05
6.1856876345e-06
1.28374877953e-05
3.43392839091e-06
1.08871667894e-05
1.95032096529e-06
9.74563691933e-06
1.1415299714e-06
9.06355992681e-06
6.82077195702e-07
8.65520109389e-06
4.0835903108e-07
8.41505329287e-06
2.40147997155e-07
8.27901681901e-06
1.36036640515e-07
8.20643254917e-06
7.25843331823e-08
8.17122718706e-06
3.5205343971e-08
8.15692659688e-06
1.43004199358e-08
8.15329208839e-06
3.63418774553e-09
8.15459027251e-06
-1.29866701891e-09
8.15810141867e-06
-3.51171604077e-09
8.16178482386e-06
-3.68397362245e-09
8.16499603546e-06
-3.21164279663e-09
8.16755115162e-06
-2.55530284568e-09
8.16946663912e-06
-1.91543503663e-09
8.17079172823e-06
-1.32479374104e-09
8.17173225276e-06
-9.40061590052e-10
8.17238948418e-06
-6.56663271503e-10
8.17283329068e-06
-4.43136831935e-10
8.1731265151e-06
-2.92515010561e-10
8.17331667453e-06
-1.89462946211e-10
8.17343786916e-06
-1.20556970208e-10
8.17351397557e-06
-7.56105800275e-11
8.17356019314e-06
-4.58952248479e-11
8.17358416895e-06
-2.38139688836e-11
8.17359360052e-06
-9.43138244073e-12
8.17359458378e-06
-1.12221545065e-12
8.17359045771e-06
3.90041428408e-12
8.17358312956e-06
7.04407859185e-12
8.1735739331e-06
8.86458422908e-12
8.17356374729e-06
9.83908955363e-12
8.17355312993e-06
1.02947003355e-11
8.17354243488e-06
1.04241864708e-11
8.17353186655e-06
1.03893014766e-11
8.17352146878e-06
1.03407623664e-11
8.17351112655e-06
1.03800566637e-11
8.17350063206e-06
1.05689963734e-11
8.17348975038e-06
1.09590523997e-11
8.17347822646e-06
1.16031296554e-11
8.17346576272e-06
1.25556164265e-11
8.17345199427e-06
1.38733518297e-11
8.17343645485e-06
1.56377187605e-11
8.17341864192e-06
1.78653675838e-11
8.17339799418e-06
2.0602218304e-11
8.17337388461e-06
2.3955599667e-11
8.17334563211e-06
2.80906847337e-11
8.17331243326e-06
3.31923306921e-11
8.17327327722e-06
3.93823884059e-11
8.17322696451e-06
4.67013438843e-11
8.17317221497e-06
5.51515888554e-11
8.17310781503e-06
6.4677665239e-11
8.17303284962e-06
7.50445109549e-11
8.17294711638e-06
8.56187275158e-11
8.17285179378e-06
9.50527575027e-11
8.17275037438e-06
1.01016446892e-10
8.17265244232e-06
9.74598639355e-11
8.17257682191e-06
7.52242439619e-11
8.17254023187e-06
3.63817500238e-11
8.17257776897e-06
-3.75404216002e-11
8.17275077538e-06
-1.7284691261e-10
8.17316266245e-06
-4.11681322913e-10
8.17397952596e-06
-8.16729577694e-10
8.17546214504e-06
-1.48262111338e-09
8.17799664469e-06
-2.53472031926e-09
8.18204920404e-06
-4.05301609828e-09
8.18911322054e-06
-7.06459979028e-09
8.20078648303e-06
-1.16738779514e-08
8.21977363162e-06
-1.89877044087e-08
8.25113736963e-06
-3.13640370428e-08
8.30585108678e-06
-5.47136206325e-08
8.41166298137e-06
-1.05811467915e-07
8.6461572987e-06
-2.34493787412e-07
9.26020070089e-06
-6.14042940586e-07
1.11844887897e-05
-1.92428794008e-06
-7.23124054752e-06
1.8415729052e-05
5.02199573142e-05
1.59366201444e-05
4.42647669744e-05
1.73415077014e-05
3.78445617803e-05
1.26058925053e-05
3.27893400092e-05
8.48914997503e-06
2.91967661794e-05
5.5428947316e-06
2.676915775e-05
3.56913845456e-06
2.51755330537e-05
2.27570201306e-06
2.41554915099e-05
1.42840069262e-06
2.35213027177e-05
8.74336830395e-07
2.31408989513e-05
5.16440323497e-07
2.29228175995e-05
2.90665467292e-07
2.28049977677e-05
1.53024788334e-07
2.27465112208e-05
7.27864080014e-08
2.27214886375e-05
2.86560334396e-08
2.27141038297e-05
6.08532621661e-09
2.27146991692e-05
-4.10782535893e-09
2.27185592017e-05
-7.54453547315e-09
2.27231713315e-05
-7.82395540661e-09
2.27274078518e-05
-6.79167185487e-09
2.27308816749e-05
-5.38875414092e-09
2.27336049224e-05
-4.04727812922e-09
2.2735593574e-05
-2.92776573192e-09
2.27369973464e-05
-2.05932286643e-09
2.27379721642e-05
-1.41677845959e-09
2.27386395946e-05
-9.58787383219e-10
2.27390938135e-05
-6.42618042395e-10
2.2739407024e-05
-4.32927625179e-10
2.27396160294e-05
-2.84056299564e-10
2.27397404863e-05
-1.70064192654e-10
2.27398136425e-05
-9.6959498193e-11
2.27398541866e-05
-5.0206883854e-11
2.27398755866e-05
-2.29116568509e-11
2.27398852032e-05
-6.20603477497e-12
2.27398871403e-05
4.54763999918e-12
2.27398841792e-05
1.12485059157e-11
2.27398780606e-05
1.54134545435e-11
2.27398698323e-05
1.80518577896e-11
2.27398601376e-05
1.97956160601e-11
2.27398493086e-05
2.11119949661e-11
2.27398373846e-05
2.23469284445e-11
2.27398242034e-05
2.37273271459e-11
2.27398095136e-05
2.54222533529e-11
2.27397930386e-05
2.75734893534e-11
2.2739774491e-05
3.0291403913e-11
2.27397535516e-05
3.36499705601e-11
2.2739729832e-05
3.77276108918e-11
2.27397028065e-05
4.2715948998e-11
2.27396719448e-05
4.86506821513e-11
2.27396367137e-05
5.56541918061e-11
2.27395965781e-05
6.39502819509e-11
2.27395509877e-05
7.37560124381e-11
2.27394993554e-05
8.51938621544e-11
2.27394411475e-05
9.81931741009e-11
2.27393760813e-05
1.12433695315e-10
2.27393044108e-05
1.27303087072e-10
2.27392273984e-05
1.41769412741e-10
2.273914807e-05
1.54025215753e-10
2.27390724475e-05
1.6061865772e-10
2.27390117109e-05
1.5504763401e-10
2.27389852794e-05
1.26715341746e-10
2.27390301188e-05
5.20660448634e-11
2.2739216741e-05
-1.11652973994e-10
2.2739656558e-05
-4.03373980998e-10
2.27405258398e-05
-9.06508591547e-10
2.27419296612e-05
-1.5763011704e-09
2.27442390848e-05
-2.72091076299e-09
2.27480180806e-05
-4.5958317326e-09
2.27541544117e-05
-7.61944333432e-09
2.27640790713e-05
-1.24602288258e-08
2.27802247714e-05
-2.01997640234e-08
2.28060040309e-05
-3.28449338835e-08
2.28480515784e-05
-5.37223327311e-08
2.29167949527e-05
-8.77315506409e-08
2.30314147066e-05
-1.4598373182e-07
2.32284491581e-05
-2.51747603838e-07
2.35814677065e-05
-4.58829307795e-07
2.42423669471e-05
-8.95392407463e-07
2.55095587822e-05
-1.88123430608e-06
2.78855452352e-05
-4.3002741694e-06
-9.87767474902e-06
3.05319793389e-05
5.35242713871e-05
1.24123485264e-05
5.29719150983e-05
1.78938635815e-05
4.97546287865e-05
1.58231785354e-05
4.60481070902e-05
1.21956715563e-05
4.28022072981e-05
8.78879458059e-06
4.02893715624e-05
6.08197443444e-06
3.84795100711e-05
4.08556379241e-06
3.72408668978e-05
2.66704412341e-06
3.64290001041e-05
1.68620382807e-06
3.59186400252e-05
1.02680047379e-06
3.56117224198e-05
5.97582997498e-07
3.54362548233e-05
3.28492087946e-07
3.53420399597e-05
1.67000754335e-07
3.52957113362e-05
7.49839420687e-08
3.52759320513e-05
2.58637784919e-08
3.52702243283e-05
1.59914147386e-09
3.52708221541e-05
-8.14291977108e-09
3.52739671604e-05
-1.09692205026e-08
3.52776760645e-05
-1.05004808297e-08
3.52810670761e-05
-8.77938118798e-09
3.52838336601e-05
-6.81323329191e-09
3.52859476706e-05
-5.04092347981e-09
3.52874946801e-05
-3.60532609281e-09
3.52885914927e-05
-2.51250026262e-09
3.52893486728e-05
-1.71487046899e-09
3.52898574372e-05
-1.15040668679e-09
3.52901867261e-05
-7.61451834382e-10
3.52904051901e-05
-5.01989333603e-10
3.5290575247e-05
-3.39842261375e-10
3.52906763414e-05
-1.98029451347e-10
3.52907368169e-05
-1.10863311209e-10
3.52907720445e-05
-5.8473775485e-11
3.5290791264e-05
-2.58785784028e-11
3.5290799715e-05
-4.41469356032e-12
3.52908011895e-05
9.27276797549e-12
3.52907980823e-05
1.80706354583e-11
3.52907918756e-05
2.39010209511e-11
3.52907834944e-05
2.79591346104e-11
3.52907734198e-05
3.11145542218e-11
3.52907617782e-05
3.40247594911e-11
3.52907484874e-05
3.71215460891e-11
3.52907333473e-05
4.07056708519e-11
3.52907160948e-05
4.49904906459e-11
3.52906964458e-05
5.0109285351e-11
3.52906741102e-05
5.61409458492e-11
3.52906487089e-05
6.32389111319e-11
3.52906195559e-05
7.18680571918e-11
3.52905861366e-05
8.19085840831e-11
3.52905481321e-05
9.34146961509e-11
3.5290505297e-05
1.06656341021e-10
3.52904574295e-05
1.21761714548e-10
3.52904044179e-05
1.38604698482e-10
3.52903464369e-05
1.56715083232e-10
3.52902842678e-05
1.75133664337e-10
3.52902197767e-05
1.92170076464e-10
3.52901567055e-05
2.04959764779e-10
3.52901020219e-05
2.08529198755e-10
3.52900682072e-05
1.93951174191e-10
3.52900764482e-05
1.46099704791e-10
3.52901602697e-05
4.21677804739e-11
3.52903845336e-05
-1.72736952892e-10
3.52908709625e-05
-5.98334143999e-10
3.52916363312e-05
-1.16868947554e-09
3.52928421495e-05
-2.11206463155e-09
3.52949414515e-05
-3.67528954944e-09
3.52984259812e-05
-6.20521003845e-09
3.53040954015e-05
-1.02652743013e-08
3.53132307016e-05
-1.67551209558e-08
3.53278897393e-05
-2.7119928466e-08
3.53514258072e-05
-4.3736675741e-08
3.53891913611e-05
-7.0611407743e-08
3.54495647327e-05
-1.14096480481e-07
3.55473548035e-05
-1.85522014248e-07
3.5707369516e-05
-3.05998354573e-07
3.5971921493e-05
-5.16299129486e-07
3.64117145301e-05
-8.9862158037e-07
3.71347971839e-05
-1.61847433449e-06
3.82581653378e-05
-3.0046022763e-06
3.96693013802e-05
-5.71141063142e-06
-1.04548795792e-05
4.02465052307e-05
5.35188954331e-05
8.89345284294e-06
5.5613569939e-05
1.57991886332e-05
5.53457017327e-05
1.60910464884e-05
5.38062051905e-05
1.37351679343e-05
5.19001107322e-05
1.06948890431e-05
5.01298697035e-05
7.8522156161e-06
4.86974308679e-05
5.51800282759e-06
4.76331265125e-05
3.73134872755e-06
4.6890280278e-05
2.42905022149e-06
4.63982309367e-05
1.51884992431e-06
4.60877401972e-05
9.08073685232e-07
4.59011725578e-05
5.15059519167e-07
4.57949113571e-05
2.73261524276e-07
4.57381711394e-05
1.31723524771e-07
4.57104745876e-05
5.35596242126e-08
4.56985908e-05
1.34822161829e-08
4.56951552112e-05
-4.70787311383e-09
4.56955872589e-05
-1.14015463526e-08
4.56974950669e-05
-1.24082925911e-08
4.56997115149e-05
-1.09955381566e-08
4.57017265889e-05
-8.82774681467e-09
4.57033692898e-05
-6.68283363371e-09
4.5704627317e-05
-4.86237184061e-09
4.57055523893e-05
-3.43647629515e-09
4.57062129535e-05
-2.37434319312e-09
4.57066739489e-05
-1.61043758635e-09
4.57069886675e-05
-1.07540705245e-09
4.57071935308e-05
-7.06333948062e-10
4.57073055875e-05
-4.51655001597e-10
4.57073784148e-05
-2.70866882055e-10
4.57074139514e-05
-1.46618301991e-10
4.57074412157e-05
-8.61285111367e-11
4.57074577562e-05
-4.29298471851e-11
4.57074660486e-05
-1.32678406772e-11
4.57074687927e-05
5.97676763693e-12
4.57074675264e-05
1.88481523913e-11
4.5707463255e-05
2.77990637216e-11
4.57074567041e-05
3.42720926465e-11
4.57074482767e-05
3.94181813368e-11
4.57074380258e-05
4.42362846356e-11
4.57074258334e-05
4.93458012014e-11
4.5707411474e-05
5.51593072986e-11
4.57073946393e-05
6.19567768754e-11
4.57073749669e-05
6.99212537181e-11
4.57073520407e-05
7.91944113451e-11
4.57073253919e-05
8.99628330732e-11
4.57072946581e-05
1.0255391651e-10
4.57072595522e-05
1.16825696697e-10
4.57072197652e-05
1.32985663748e-10
4.57071751342e-05
1.51227447605e-10
4.57071256507e-05
1.71454756842e-10
4.57070715139e-05
1.93192047641e-10
4.57070133235e-05
2.15456891472e-10
4.57069523973e-05
2.36540722194e-10
4.57068912274e-05
2.53629897447e-10
4.57068340601e-05
2.62178438795e-10
4.57067874896e-05
2.54881633303e-10
4.57067607271e-05
2.20216415614e-10
4.57067664674e-05
1.39687182107e-10
4.57068281085e-05
-2.0134095397e-11
4.5706965097e-05
-3.10208803023e-10
4.57073059436e-05
-9.39360586375e-10
4.57080880919e-05
-1.95070808694e-09
4.57094936581e-05
-3.51732505591e-09
4.57118240733e-05
-6.00537086358e-09
4.5715602603e-05
-9.98351999228e-09
4.57216639649e-05
-1.63266699508e-08
4.57313252076e-05
-2.64167143866e-08
4.57466654398e-05
-4.24608013106e-08
4.57709516373e-05
-6.80237422444e-08
4.58092758694e-05
-1.08936583949e-07
4.5869949848e-05
-1.7477121959e-07
4.59662259654e-05
-2.81798429694e-07
4.61186657603e-05
-4.58437861113e-07
4.6357726755e-05
-7.55359506697e-07
4.67231324467e-05
-1.26402671829e-06
4.7249723982e-05
-2.14506544386e-06
4.79080265689e-05
-3.66290442963e-06
4.841286149e-05
-6.21624553847e-06
-1.00279939388e-05
4.79859751093e-05
5.27413935645e-05
6.15205901985e-06
5.57596563176e-05
1.2780925368e-05
5.73855960157e-05
1.44651064811e-05
5.77593258906e-05
1.33614379389e-05
5.7387239191e-05
1.10669758208e-05
5.67076726979e-05
8.5317823221e-06
5.59946066794e-05
6.23106911421e-06
5.53797993072e-05
4.3461563654e-06
5.49050718002e-05
2.90377796154e-06
5.45655298895e-05
1.85839193274e-06
5.43370144577e-05
1.13658911552e-06
5.41912183445e-05
6.60855404507e-07
5.41028175917e-05
3.6166182825e-07
5.40519724585e-05
1.82568045392e-07
5.40244247857e-05
8.11065473427e-08
5.40105650398e-05
2.73412642463e-08
5.40044018534e-05
1.45476119032e-09
5.40022808078e-05
-9.28084750873e-09
5.40020842693e-05
-1.22118155769e-08
5.40026819273e-05
-1.15929812468e-08
5.40035061094e-05
-9.65144359684e-09
5.40042980606e-05
-7.4740271015e-09
5.40049609169e-05
-5.52426242861e-09
5.40054756723e-05
-3.95015433056e-09
5.40058546993e-05
-2.75229579314e-09
5.40061209079e-05
-1.87568101534e-09
5.40062997977e-05
-1.25351221846e-09
5.40064166368e-05
-8.22625274607e-10
5.40064952512e-05
-5.29983611624e-10
5.40065559993e-05
-3.3157897875e-10
5.40066102605e-05
-2.01065115993e-10
5.40066433777e-05
-1.19600214358e-10
5.4006667699e-05
-6.77006837112e-11
5.40066791344e-05
-2.51819711558e-11
5.40066838019e-05
8.48577687238e-13
5.40066840278e-05
1.82170627142e-11
5.40066811327e-05
3.03784104468e-11
5.40066759586e-05
3.92427276276e-11
5.40066688585e-05
4.64309517495e-11
5.40066598979e-05
5.32136895377e-11
5.40066489939e-05
6.03469772326e-11
5.40066359319e-05
6.83648396161e-11
5.40066204441e-05
7.76028857021e-11
5.40066022994e-05
8.82178134256e-11
5.4006581471e-05
1.00131643879e-10
5.40065587681e-05
1.12666774485e-10
5.40065308631e-05
1.30317839191e-10
5.40064977616e-05
1.49709812207e-10
5.40064599055e-05
1.70685896843e-10
5.4006417088e-05
1.94067580968e-10
5.40063692213e-05
2.1956939834e-10
5.40063164473e-05
2.46417410001e-10
5.40062592519e-05
2.7321132997e-10
5.40061986949e-05
2.97607533473e-10
5.40061368086e-05
3.15830429844e-10
5.40060771837e-05
3.21827684495e-10
5.40060260529e-05
3.05706300404e-10
5.40059959223e-05
2.49767535953e-10
5.40060304875e-05
1.04408146853e-10
5.40061255318e-05
-1.15869523835e-10
5.40063188849e-05
-5.04039027773e-10
5.40067136343e-05
-1.33422245057e-09
5.40073714202e-05
-2.60828393671e-09
5.40084859265e-05
-4.63146901791e-09
5.40103365261e-05
-7.85560967262e-09
5.40133346468e-05
-1.29813878675e-08
5.40181146654e-05
-2.11066307649e-08
5.40256617822e-05
-3.39640767474e-08
5.4037504058e-05
-5.43037077334e-08
5.40559982333e-05
-8.65188050252e-08
5.40847438129e-05
-1.3768305728e-07
5.4129217176e-05
-2.19245286503e-07
5.41974033844e-05
-3.49984974934e-07
5.43000070621e-05
-5.61041354302e-07
5.44488214177e-05
-9.04173184313e-07
5.46493046181e-05
-1.46450916795e-06
5.48793226009e-05
-2.3750830502e-06
5.50389304567e-05
-3.8225121492e-06
5.48470363962e-05
-6.02435143223e-06
-9.00501551322e-06
5.38240574683e-05
5.19859335303e-05
4.16612517702e-06
5.50687308705e-05
9.69812752375e-06
5.76631680007e-05
1.18706690861e-05
5.93736423569e-05
1.16509634656e-05
6.03084907692e-05
1.01321275384e-05
6.07152960306e-05
8.12497727682e-06
6.08202451426e-05
6.12612031985e-06
6.07802002595e-05
4.38620156665e-06
6.06877424444e-05
2.99623604011e-06
6.05903055514e-05
1.95582902799e-06
6.05079020663e-05
1.21899261581e-06
6.04457996734e-05
7.2295762762e-07
6.04024383923e-05
4.05022733928e-07
6.03738601399e-05
2.111456917e-07
6.03558940773e-05
9.90719202467e-08
6.03450531203e-05
3.81815383586e-08
6.03388083797e-05
7.69890426804e-09
6.03353180964e-05
-5.7909478915e-09
6.03334732869e-05
-1.0367154719e-08
6.03325515228e-05
-1.06711052241e-08
6.03321298713e-05
-9.22935568319e-09
6.03319664753e-05
-7.30989630228e-09
6.03319280794e-05
-5.48490666767e-09
6.03319440895e-05
-3.96507802832e-09
6.03319799041e-05
-2.78702854922e-09
6.03320199915e-05
-1.91479866479e-09
6.03320574343e-05
-1.29017045455e-09
6.03320911467e-05
-8.55790173109e-10
6.03321212763e-05
-5.59835712272e-10
6.03321464529e-05
-3.56756304029e-10
6.03321636685e-05
-2.18529021912e-10
6.03321710806e-05
-1.27439334272e-10
6.03321672295e-05
-6.43661012609e-11
6.03321618608e-05
-2.03422873001e-11
6.03321590142e-05
3.18815424107e-12
6.03321560297e-05
2.07264567455e-11
6.03321517924e-05
3.4197203552e-11
6.03321463956e-05
4.43209230073e-11
6.03321402647e-05
5.23814837707e-11
6.03321326848e-05
6.0758109377e-11
6.03321233172e-05
6.97914566318e-11
6.033211185e-05
7.99767459947e-11
6.0332097938e-05
9.16967323049e-11
6.03320811193e-05
1.0521751413e-10
6.0332060626e-05
1.20726865353e-10
6.033203482e-05
1.38418239355e-10
6.03320063573e-05
1.58587601229e-10
6.0331974738e-05
1.81124979185e-10
6.03319391273e-05
2.06218371814e-10
6.0331899413e-05
2.33891455005e-10
6.03318556241e-05
2.63657700158e-10
6.03318080361e-05
2.9446471198e-10
6.03317573226e-05
3.2446682813e-10
6.03317047923e-05
3.50646624472e-10
6.03316527067e-05
3.68262227248e-10
6.0331604452e-05
3.70132219034e-10
6.03315638475e-05
3.45996617453e-10
6.03315299745e-05
2.83015486755e-10
6.03314617392e-05
1.71842902895e-10
6.03314123458e-05
-6.72269652417e-11
6.03315175905e-05
-6.09737765013e-10
6.03316919279e-05
-1.50863933271e-09
6.03320222686e-05
-2.93841596955e-09
6.03325987842e-05
-5.20759906425e-09
6.03335472832e-05
-8.8036740587e-09
6.03350540467e-05
-1.44878177453e-08
6.03373965643e-05
-2.34490537934e-08
6.03409854388e-05
-3.75532475962e-08
6.03464198026e-05
-5.97387593263e-08
6.03545490986e-05
-9.46489925437e-08
6.03665088498e-05
-1.4964371856e-07
6.03836582302e-05
-2.36395314751e-07
6.04071331034e-05
-3.73459925239e-07
6.04363531115e-05
-5.90260916168e-07
6.04650520987e-05
-9.32871573421e-07
6.04718877789e-05
-1.47134425682e-06
6.04016059231e-05
-2.30480086142e-06
6.01331821817e-05
-3.55408836381e-06
5.94369564698e-05
-5.3281256545e-06
-7.58738186414e-06
5.80193225461e-05
5.14355968382e-05
2.73052802842e-06
5.4254839284e-05
6.87888450552e-06
5.72176554059e-05
8.90785261074e-06
5.97222580537e-05
9.14636073105e-06
6.16006661795e-05
8.25371947702e-06
6.29025193821e-05
6.82312433383e-06
6.37537192442e-05
5.27492074807e-06
6.42836436551e-05
3.8562774863e-06
6.45982968547e-05
2.68158314675e-06
6.47756906808e-05
1.77843539901e-06
6.48695049615e-05
1.12517841619e-06
6.49148217474e-05
6.77640743553e-07
6.49335305094e-05
3.86313651445e-07
6.49386618806e-05
2.06013833508e-07
6.49375776928e-05
1.00155502914e-07
6.49341861271e-05
4.1572434308e-08
6.49304137242e-05
1.14707125991e-08
6.4927035958e-05
-2.4136348996e-09
6.49243388038e-05
-7.67026292905e-09
6.49223040484e-05
-8.63631297722e-09
6.49208301942e-05
-7.75513733463e-09
6.49197933079e-05
-6.27235168421e-09
6.49190800837e-05
-4.77077569726e-09
6.49185985528e-05
-3.48250284922e-09
6.49182791693e-05
-2.46659853886e-09
6.49180712345e-05
-1.70590969258e-09
6.49179382925e-05
-1.15643470869e-09
6.4917853259e-05
-7.70188496682e-10
6.49177972689e-05
-5.03546639127e-10
6.49177605496e-05
-3.20010189679e-10
6.49177352154e-05
-1.93412969561e-10
6.49177175942e-05
-1.10217652811e-10
6.49177088783e-05
-5.6138857832e-11
6.49177098958e-05
-2.18701354398e-11
6.49177108013e-05
1.77636764e-12
6.4917709547e-05
2.15003597666e-11
6.4917706889e-05
3.64384797821e-11
6.49177035768e-05
4.73246679582e-11
6.49176988454e-05
5.69469744866e-11
6.49176929494e-05
6.66369534581e-11
6.49176856465e-05
7.71992683094e-11
6.49176765786e-05
8.92291452834e-11
6.49176653437e-05
1.03145352198e-10
6.49176514971e-05
1.19236325973e-10
6.49176345538e-05
1.37717415027e-10
6.49176140314e-05
1.58827849163e-10
6.49175896235e-05
1.8278770119e-10
6.49175628865e-05
2.07685628678e-10
6.49175332297e-05
2.35834941563e-10
6.49174993679e-05
2.67901085244e-10
6.49174610351e-05
3.02332102904e-10
6.49174180494e-05
3.37936438802e-10
6.49173702652e-05
3.72798764951e-10
6.49173175803e-05
4.03852073866e-10
6.49172599381e-05
4.26268118382e-10
6.49171974532e-05
4.32673128431e-10
6.49171310407e-05
4.12073476708e-10
6.4917065171e-05
3.48183805761e-10
6.49170155064e-05
2.2063321108e-10
6.49169422044e-05
5.34271399362e-12
6.49168545653e-05
-5.22503226783e-10
6.49167504908e-05
-1.40465443919e-09
6.49166255071e-05
-2.81324326971e-09
6.49164615264e-05
-5.04319521633e-09
6.49162157851e-05
-8.55742462922e-09
6.49158033281e-05
-1.40749758665e-08
6.49150696419e-05
-2.27152867659e-08
6.49137385183e-05
-3.62224054979e-08
6.49113169837e-05
-5.7317863837e-08
6.4906919653e-05
-9.02525428241e-08
6.4898936379e-05
-1.41661229113e-07
6.4884401565e-05
-2.21860908529e-07
6.48577448292e-05
-3.46803065395e-07
6.48083276033e-05
-5.40843191124e-07
6.47157313472e-05
-8.40274711946e-07
6.45412085407e-05
-1.29682088026e-06
6.4214183357e-05
-1.97777548826e-06
6.36157318307e-05
-2.95563692345e-06
6.25676159017e-05
-4.28000971369e-06
-5.90158471886e-06
6.08818185708e-05
5.10797581972e-05
1.6507694631e-06
5.35819455362e-05
4.3766966158e-06
5.66035933934e-05
5.88620443116e-06
5.95148209208e-05
6.23513308774e-06
6.19937995642e-05
5.77474094552e-06
6.39386403059e-05
4.87828381898e-06
6.53736200017e-05
3.83994138818e-06
6.63798305633e-05
2.85006728849e-06
6.70535440449e-05
2.00786999677e-06
6.74847955899e-05
1.34718413665e-06
6.77482921619e-05
8.61681996764e-07
6.79012468133e-05
5.24686060955e-07
6.79847796435e-05
3.02780603893e-07
6.80268424874e-05
1.63950601694e-07
6.80454688464e-05
8.15285862042e-08
6.80517114452e-05
3.53292043385e-08
6.80520046091e-05
1.11769319021e-08
6.80498276027e-05
-2.37165329537e-10
6.80470088355e-05
-4.85181406775e-09
6.80443361781e-05
-5.96366699075e-09
6.80421148397e-05
-5.53349688111e-09
6.80403969287e-05
-4.55382269478e-09
6.8039128619e-05
-3.50158859212e-09
6.80382225765e-05
-2.575452204e-09
6.80375914373e-05
-1.83442777581e-09
6.80371606869e-05
-1.27418031274e-09
6.80368715193e-05
-8.66432670793e-10
6.80366796301e-05
-5.77692326636e-10
6.80365534081e-05
-3.76980829045e-10
6.80364721348e-05
-2.3866588441e-10
6.80364229366e-05
-1.44398147499e-10
6.80363946163e-05
-8.22687679535e-11
6.80363780664e-05
-4.00776270301e-11
6.80363620437e-05
-6.41417530257e-12
6.80363502326e-05
1.29832669379e-11
6.8036344036e-05
2.71198702669e-11
6.8036340769e-05
3.92214338789e-11
6.80363379226e-05
4.98309009884e-11
6.80363347843e-05
5.99232814436e-11
6.80363309506e-05
7.04963062842e-11
6.80363260866e-05
8.2246890106e-11
6.8036319901e-05
9.56851675168e-11
6.80363121154e-05
1.11189518511e-10
6.80363024582e-05
1.29039747148e-10
6.80362907027e-05
1.49450543258e-10
6.80362767618e-05
1.72608964284e-10
6.80362606273e-05
1.9872569487e-10
6.8036240409e-05
2.27772703997e-10
6.80362161576e-05
2.60088594793e-10
6.80361885129e-05
2.9572278066e-10
6.80361571346e-05
3.34069368942e-10
6.80361215479e-05
3.74040740374e-10
6.80360811262e-05
4.13850746062e-10
6.8036034992e-05
4.50608458747e-10
6.80359818903e-05
4.79784697338e-10
6.80359200143e-05
4.94583358057e-10
6.80358464612e-05
4.85197496762e-10
6.80357558457e-05
4.37975182172e-10
6.80356411729e-05
3.34355118124e-10
6.80354885134e-05
1.57237076413e-10
6.80352198835e-05
-2.5429107907e-10
6.80348533846e-05
-1.03821066024e-09
6.80342792338e-05
-2.23883232028e-09
6.80333769387e-05
-4.14042847884e-09
6.80319347294e-05
-7.11468515687e-09
6.80296000618e-05
-1.1739940138e-08
6.80257984712e-05
-1.89136736999e-08
6.80195937105e-05
-3.00180102381e-08
6.80094584902e-05
-4.71833566244e-08
6.79928981147e-05
-7.369299519e-08
6.79658273498e-05
-1.14591076074e-07
6.7921538139e-05
-1.77571836998e-07
6.7848974529e-05
-2.74239259989e-07
6.7729884913e-05
-4.21753084417e-07
6.75342668762e-05
-6.44656046276e-07
6.72135575849e-05
-9.76111163521e-07
6.66920979408e-05
-1.45631575606e-06
6.58604376053e-05
-2.12397669658e-06
6.457849127e-05
-2.9980634904e-06
-4.03922023581e-06
6.27161266596e-05
5.08726151358e-05
7.78154008382e-07
5.31267090767e-05
2.12260203071e-06
5.60954876261e-05
2.91742552025e-06
5.91832172367e-05
3.14740332428e-06
6.19976281855e-05
2.96033004754e-06
6.43425071838e-05
2.53340505365e-06
6.61664820796e-05
2.01596680822e-06
6.75064447448e-05
1.51010498806e-06
6.84419675859e-05
1.07234754122e-06
6.9064542459e-05
7.24609597981e-07
6.94596684058e-05
4.665562746e-07
6.9698375698e-05
2.85978843111e-07
6.9834929619e-05
1.66226570015e-07
6.99080710804e-05
9.08088118263e-08
6.99438666474e-05
4.57325062718e-08
6.99589203361e-05
2.02748861428e-08
6.99632581026e-05
6.83848112775e-09
6.99626379736e-05
3.82354854228e-10
6.99600783778e-05
-2.29261307894e-09
6.9957135988e-05
-3.02139651284e-09
6.9954470895e-05
-2.86819650768e-09
6.99523055323e-05
-2.38791622227e-09
6.99506537856e-05
-1.8490571745e-09
6.99494454175e-05
-1.36616584086e-09
6.99485878037e-05
-9.75826379995e-10
6.99479932747e-05
-6.78681052716e-10
6.99475888676e-05
-4.61178305577e-10
6.99473181264e-05
-3.06302599029e-10
6.99471395254e-05
-1.97989701587e-10
6.99470238179e-05
-1.22869492104e-10
6.99469502466e-05
-7.10134751766e-11
6.9946902874e-05
-3.52862733291e-11
6.99468720319e-05
-9.77605754726e-12
6.99468560167e-05
8.95015741124e-12
6.99468457279e-05
2.25767402767e-11
6.99468392854e-05
3.29059204401e-11
6.99468354199e-05
4.25467928224e-11
6.99468329361e-05
5.19557931473e-11
6.99468309885e-05
6.17397453736e-11
6.99468290079e-05
7.25740936107e-11
6.99468265518e-05
8.49667002899e-11
6.99468232506e-05
9.93095762453e-11
6.99468187855e-05
1.15916756991e-10
6.9946812876e-05
1.3505332891e-10
6.99468052891e-05
1.56958268843e-10
6.99467958378e-05
1.81862891012e-10
6.99467843698e-05
2.09988270461e-10
6.99467706121e-05
2.41411169537e-10
6.99467543159e-05
2.76409661045e-10
6.99467351859e-05
3.15048483593e-10
6.99467127281e-05
3.56912633222e-10
6.99466861868e-05
4.01181686046e-10
6.99466543613e-05
4.46439397968e-10
6.99466153362e-05
4.90357779834e-10
6.99465661948e-05
5.2935516787e-10
6.99465026449e-05
5.58098540199e-10
6.99464185737e-05
5.68741795315e-10
6.99463056634e-05
5.49999831425e-10
6.99461533613e-05
4.85674871366e-10
6.99459584521e-05
3.51343515785e-10
6.99455833712e-05
1.20338413727e-10
6.99449604072e-05
-4.15306089197e-10
6.99440137117e-05
-1.29187077303e-09
6.99424991504e-05
-2.62536629742e-09
6.9940066972e-05
-4.68191282637e-09
6.99361533549e-05
-7.82594337272e-09
6.99298505425e-05
-1.26109144391e-08
6.99197027689e-05
-1.98706675759e-08
6.99033806712e-05
-3.08618862504e-08
6.98771651021e-05
-4.74780401356e-08
6.9835134002e-05
-7.2560372319e-08
6.97678956836e-05
-1.10333496366e-07
6.96606414464e-05
-1.66984511393e-07
6.94902372986e-05
-2.51348490999e-07
6.92211129025e-05
-3.75531266487e-07
6.88000184735e-05
-5.55016481873e-07
6.81508689409e-05
-8.07166203923e-07
6.71732880669e-05
-1.1463959778e-06
6.57509737861e-05
-1.57574939113e-06
-2.07164241066e-06
6.37833959063e-05
5.07780994521e-05
5.416416901e-11
5.29006515812e-05
4.92622385887e-11
5.58180521465e-05
2.45411954449e-11
5.89654449057e-05
1.03952107771e-11
6.19257747201e-05
2.84633395849e-13
6.44591852551e-05
-5.26375803739e-12
6.64751595476e-05
-7.13714930412e-12
6.79852705957e-05
-5.64021822955e-12
6.90576209709e-05
-2.40712908447e-12
6.97822296799e-05
1.28662942418e-12
7.02487822804e-05
3.9825213695e-12
7.05347564218e-05
4.84897829999e-12
7.07009791216e-05
3.81031586346e-12
7.07917864301e-05
1.19712389287e-12
7.08375205993e-05
-2.19312949292e-12
7.08578001478e-05
-5.36287741313e-12
7.08646447356e-05
-6.87419776244e-12
7.08650339585e-05
-7.54689470927e-12
7.08627485782e-05
-7.71495896455e-12
7.08597344154e-05
-7.43290627137e-12
7.08568729995e-05
-6.62160842771e-12
7.0854490844e-05
-5.27622162815e-12
7.08526460021e-05
-3.49958707588e-12
7.08512820959e-05
-1.37163604108e-12
7.08503063791e-05
8.87830127455e-13
7.08496257358e-05
2.97380512033e-12
7.08491603779e-05
5.12159637579e-12
7.08488475555e-05
7.30219412434e-12
7.0848640398e-05
9.6778285714e-12
7.08485052301e-05
1.24718442515e-11
7.08484183772e-05
1.56988732285e-11
7.08483634563e-05
1.92355763925e-11
7.08483297101e-05
2.33665207865e-11
7.08483097306e-05
2.81944962291e-11
7.08482983358e-05
3.31984364063e-11
7.08482918006e-05
3.87252089561e-11
7.0848288544e-05
4.52393466753e-11
7.08482873055e-05
5.28712134329e-11
7.08482871555e-05
6.18488125386e-11
7.08482874544e-05
7.24719680101e-11
7.08482877283e-05
8.50185373297e-11
7.0848287615e-05
9.97565242556e-11
7.08482868342e-05
1.16933648056e-10
7.0848285173e-05
1.36783608034e-10
7.08482824935e-05
1.59535479325e-10
7.08482787145e-05
1.85433867784e-10
7.08482737456e-05
2.14738968054e-10
7.08482673649e-05
2.47650460166e-10
7.08482593417e-05
2.84437194052e-10
7.08482493798e-05
3.25218968745e-10
7.08482369429e-05
3.69823370042e-10
7.08482211088e-05
4.17772946538e-10
7.08482003222e-05
4.68137311543e-10
7.08481720889e-05
5.19387349666e-10
7.08481325767e-05
5.69277286596e-10
7.08480759577e-05
6.1458225574e-10
7.08479933865e-05
6.50650589388e-10
7.08478715339e-05
6.70875309309e-10
7.08476903159e-05
6.65898305579e-10
7.08474210699e-05
6.19803457084e-10
7.08470414215e-05
4.99560594293e-10
7.08463328066e-05
2.93300772521e-10
7.08450988672e-05
-5.75905313795e-11
7.08431820787e-05
-7.08037317229e-10
7.08401426556e-05
-1.64197975557e-09
7.08352640887e-05
-2.9470756341e-09
7.08274409313e-05
-4.78784147277e-09
7.08149190917e-05
-7.34931863424e-09
7.07949177134e-05
-1.0861151622e-08
7.07630433666e-05
-1.5604097754e-08
7.07123893938e-05
-2.19064386092e-08
7.06321739447e-05
-3.01179740303e-08
7.05057310796e-05
-4.05410841426e-08
7.03076630259e-05
-5.32797968345e-08
7.000008187e-05
-6.794979569e-08
6.95282673957e-05
-8.32018694006e-08
6.88171240467e-05
-9.60230126038e-08
6.7771728327e-05
-1.01000465251e-07
6.62869171302e-05
-9.09384053316e-08
-5.76347292419e-08
6.42729093302e-05
5.07780983665e-05
-7.78044592343e-07
5.29006504274e-05
-2.12250351704e-06