/*--------------------------------*- C++ -*----------------------------------*\
| =========                 |                                                 |
| \\      /  F ield         | OpenFOAM: The Open Source CFD Toolbox           |
|  \\    /   O peration     | Version:  2106                                  |
|   \\  /    A nd           | Website:  www.openfoam.com                      |
|    \\/     M anipulation  |                                                 |
\*---------------------------------------------------------------------------*/
FoamFile
{
    version     2.0;
    format      ascii;
    arch        "LSB;label=32;scalar=64";
    class       volVectorField;
    location    "0.025";
    object      U;
}
// * * * * * * * * * * * * * * * * * * * * * * * * * * * * * * * * * * * * * //

dimensions      [0 1 -1 0 0 0 0];

internalField   nonuniform List<vector> 
11200
(
(0.662424148905 0.150600921663 0)
(0.55887907317 0.103251632064 0)
(0.383917745021 0.0513104432366 0)
(0.284203012092 0.0247637417146 0)
(0.233226344312 0.0122292247283 0)
(0.204083652638 0.00635173467291 0)
(0.186690704511 0.00346225599007 0)
(0.176293237259 0.00193279237676 0)
(0.170137621469 0.00107207380087 0)
(0.16659018 0.000573700860742 0)
(0.164644493232 0.000287387619285 0)
(0.163658156542 0.000129126098006 0)
(0.163221093874 4.68464458547e-05 0)
(0.163077031005 8.15434188425e-06 0)
(0.163074559539 -2.27090122491e-06 0)
(0.163134188368 5.33753410337e-06 0)
(0.163211892114 1.46800380546e-05 0)
(0.163283695515 2.18723772147e-05 0)
(0.163342497423 2.66746081394e-05 0)
(0.163387507554 2.93630949102e-05 0)
(0.16341994324 3.07783371793e-05 0)
(0.163442580491 3.29070544937e-05 0)
(0.163458475927 3.54217262294e-05 0)
(0.163469487337 3.77319680148e-05 0)
(0.163476922927 3.980833846e-05 0)
(0.163481869665 4.17647150864e-05 0)
(0.163485145867 4.37295188117e-05 0)
(0.163487319439 4.58225309919e-05 0)
(0.163488756209 4.80444804436e-05 0)
(0.163489675155 5.02731451145e-05 0)
(0.163490233317 5.24628235258e-05 0)
(0.16349056802 5.462531963e-05 0)
(0.163490769734 5.67832014464e-05 0)
(0.163490885948 5.8948038476e-05 0)
(0.163490946421 6.11240856082e-05 0)
(0.163490972274 6.33141745747e-05 0)
(0.163490977251 6.55195033204e-05 0)
(0.163490970159 6.7739679748e-05 0)
(0.163490956687 6.997374857e-05 0)
(0.163490939938 7.22206146631e-05 0)
(0.163490920421 7.44786262636e-05 0)
(0.163490896749 7.67454962926e-05 0)
(0.163490867074 7.90186163201e-05 0)
(0.163490830101 8.12953281257e-05 0)
(0.163490785164 8.35729060553e-05 0)
(0.163490731817 8.5848311657e-05 0)
(0.163490669263 8.81183740095e-05 0)
(0.163490597381 9.0379669779e-05 0)
(0.163490517732 9.2629197739e-05 0)
(0.163490433274 9.48642180406e-05 0)
(0.163490348989 9.70822437526e-05 0)
(0.163490272469 9.92810487613e-05 0)
(0.163490213423 0.000101457967035 0)
(0.163490184157 0.00010360961012 0)
(0.163490202726 0.000105732615447 0)
(0.163490297672 0.000107823841396 0)
(0.163490513775 0.000109878788981 0)
(0.163490921766 0.000111888552061 0)
(0.163491634183 0.000113835474446 0)
(0.16349282028 0.000115687151766 0)
(0.163494760411 0.00011737121508 0)
(0.163497956403 0.000118790039575 0)
(0.163503038878 0.00012003278473 0)
(0.163510918125 0.000121453574034 0)
(0.163522943014 0.000123674159381 0)
(0.163541296134 0.000126409934839 0)
(0.163569540508 0.000129326975797 0)
(0.163613081629 0.000132148420773 0)
(0.163679731771 0.000134873059771 0)
(0.163780533846 0.000139285268757 0)
(0.163938449103 0.000150914010719 0)
(0.164189572377 0.000165659863438 0)
(0.164585100174 0.000183272933479 0)
(0.165215449716 0.000202253403726 0)
(0.166264555458 0.00020339244197 0)
(0.16809248986 8.4637282661e-05 0)
(0.171513201343 -0.000546385139526 0)
(0.180691574628 -0.00318312650841 0)
(0.211478865505 -0.0150959685956 0)
(0.245632278367 -0.0692112992594 0)
(0.965392025067 0.28925800122 0)
(0.962079521338 0.252524776632 0)
(0.824273153653 0.158570646336 0)
(0.700041582312 0.0951208604574 0)
(0.614065040872 0.0568894867998 0)
(0.5555038119 0.0343856377248 0)
(0.516467237979 0.0209573140167 0)
(0.491235180699 0.012718131212 0)
(0.475374747189 0.00756744383464 0)
(0.465715894433 0.00434586963842 0)
(0.460069112438 0.00236579968486 0)
(0.456938665782 0.00118793209827 0)
(0.455325050804 0.000518808130203 0)
(0.454583710672 0.00016223734545 0)
(0.454315447334 -6.49821971722e-06 0)
(0.454279935206 -6.95055257391e-05 0)
(0.454342147175 -8.24750482163e-05 0)
(0.454435287242 -7.49622258339e-05 0)
(0.454527598844 -6.0766772214e-05 0)
(0.454606228002 -4.62271889621e-05 0)
(0.454668504896 -3.35566445667e-05 0)
(0.454715498759 -2.22627860348e-05 0)
(0.454749255928 -1.28369048967e-05 0)
(0.454772868426 -5.53593202118e-06 0)
(0.454789204074 -7.21825590226e-08 0)
(0.454800441343 3.92748700682e-06 0)
(0.454808214408 6.74434374385e-06 0)
(0.4548135936 8.54591132444e-06 0)
(0.454817175448 9.63333864734e-06 0)
(0.454819427843 1.05293825545e-05 0)
(0.454820823671 1.12809149377e-05 0)
(0.454821720921 1.19150358909e-05 0)
(0.454822324057 1.24893793641e-05 0)
(0.454822733879 1.30313026811e-05 0)
(0.454823013466 1.355006663e-05 0)
(0.454823206234 1.40548016686e-05 0)
(0.454823338551 1.45519941029e-05 0)
(0.454823426438 1.50457794985e-05 0)
(0.454823479479 1.55396170277e-05 0)
(0.454823501903 1.60363461734e-05 0)
(0.454823493814 1.65376566185e-05 0)
(0.454823453303 1.70446382049e-05 0)
(0.454823378295 1.75582862308e-05 0)
(0.454823267647 1.80795634147e-05 0)
(0.454823121428 1.86093778295e-05 0)
(0.454822940576 1.91488986343e-05 0)
(0.454822725287 1.97001302918e-05 0)
(0.454822476838 2.02629107823e-05 0)
(0.454822200073 2.08373465529e-05 0)
(0.454821903086 2.14249644663e-05 0)
(0.454821597724 2.2028349761e-05 0)
(0.454821300627 2.26498892892e-05 0)
(0.454821035217 2.32899880306e-05 0)
(0.454820836083 2.39466558267e-05 0)
(0.454820755862 2.461608545e-05 0)
(0.454820875082 2.52923340823e-05 0)
(0.454821316483 2.59658288092e-05 0)
(0.454822268558 2.66204935943e-05 0)
(0.454824025074 2.72300988493e-05 0)
(0.45482702069 2.77597614005e-05 0)
(0.454831979154 2.81134461023e-05 0)
(0.454840333992 2.81583649806e-05 0)
(0.454854194259 2.79282935678e-05 0)
(0.454876563014 2.61607339689e-05 0)
(0.45491077658 2.07585911522e-05 0)
(0.454962270203 1.08214869408e-05 0)
(0.45504092607 -5.26831879926e-06 0)
(0.455162144469 -3.02942383728e-05 0)
(0.455350279465 -6.832909699e-05 0)
(0.455644608764 -0.000124071389797 0)
(0.456106002145 -0.000202597272826 0)
(0.456836042855 -0.000326906911644 0)
(0.458004025532 -0.000541171804446 0)
(0.459902065896 -0.000925440950458 0)
(0.463074125252 -0.00167118103244 0)
(0.468524778017 -0.00329598824634 0)
(0.478233097564 -0.00720866473308 0)
(0.497519480449 -0.0174036590106 0)
(0.534400352397 -0.0473288227983 0)
(0.556759407871 -0.136316613568 0)
(1.02223647956 0.238374986358 0)
(1.08242882881 0.29538637709 0)
(1.035645551 0.238128740735 0)
(0.95746725252 0.171829350745 0)
(0.885462102595 0.117674597481 0)
(0.827647024394 0.0782758366847 0)
(0.784811937367 0.0510047008492 0)
(0.754947114265 0.0325034728574 0)
(0.735059024433 0.0201330143491 0)
(0.722347185896 0.0120219076546 0)
(0.714562011028 0.00684629641011 0)
(0.710016394582 0.00365792309021 0)
(0.707509518841 0.00177774976432 0)
(0.706227706425 0.000728270424261 0)
(0.705644044096 0.000183393956835 0)
(0.705434902852 -7.15960118039e-05 0)
(0.705409063762 -0.00017076629848 0)
(0.705460273506 -0.000190803791559 0)
(0.70553552464 -0.000175379800594 0)
(0.705609502073 -0.000147692477101 0)
(0.705672234898 -0.000118852290242 0)
(0.705721366186 -9.38212828152e-05 0)
(0.705757900526 -7.38133530398e-05 0)
(0.705784190877 -5.84645389704e-05 0)
(0.705802642672 -4.7018433702e-05 0)
(0.705815291914 -3.86606008698e-05 0)
(0.705823754488 -3.27041696901e-05 0)
(0.705829400881 -2.86806518964e-05 0)
(0.705833475085 -2.62095511067e-05 0)
(0.705836411707 -2.4990656688e-05 0)
(0.705838295064 -2.45627312323e-05 0)
(0.705839520337 -2.47162847125e-05 0)
(0.705840356908 -2.5189380825e-05 0)
(0.705840925829 -2.58446049403e-05 0)
(0.705841311199 -2.66219556952e-05 0)
(0.705841575295 -2.74765904996e-05 0)
(0.705841754947 -2.83795252227e-05 0)
(0.705841872773 -2.93129736771e-05 0)
(0.705841942614 -3.02643582291e-05 0)
(0.705841970971 -3.12241855882e-05 0)
(0.705841959318 -3.2185855943e-05 0)
(0.705841906736 -3.31442895568e-05 0)
(0.705841811568 -3.40953270558e-05 0)
(0.705841672536 -3.50358066623e-05 0)
(0.705841489441 -3.59637409743e-05 0)
(0.705841263188 -3.68775574976e-05 0)
(0.705840991824 -3.77728859092e-05 0)
(0.705840674458 -3.86470847699e-05 0)
(0.705840317331 -3.949369413e-05 0)
(0.705839932113 -4.03046144503e-05 0)
(0.70583953541 -4.10730255474e-05 0)
(0.705839150245 -4.17944006859e-05 0)
(0.705838809356 -4.2467677281e-05 0)
(0.705838561658 -4.30965932168e-05 0)
(0.705838482293 -4.36915655158e-05 0)
(0.705838687645 -4.42736743424e-05 0)
(0.705839357819 -4.48856441354e-05 0)
(0.705840774618 -4.56207194311e-05 0)
(0.705843389809 -4.66739120289e-05 0)
(0.705847867518 -4.83894189023e-05 0)
(0.705855289325 -5.15037308221e-05 0)
(0.705867687639 -5.74597991605e-05 0)
(0.705886773415 -6.77608717917e-05 0)
(0.705914728073 -8.36573709193e-05 0)
(0.705957669403 -0.000107954123415 0)
(0.706025339681 -0.000143962222887 0)
(0.706131084145 -0.000197341183906 0)
(0.706295825993 -0.00027726889109 0)
(0.706552981874 -0.000398347202043 0)
(0.706956572364 -0.000584446969741 0)
(0.70759181103 -0.000876756410837 0)
(0.708592371038 -0.00134704612518 0)
(0.710181455502 -0.00212873495447 0)
(0.712737270638 -0.0034680722159 0)
(0.716900012526 -0.00586748990899 0)
(0.723705106582 -0.0104190893306 0)
(0.734740154995 -0.0195289021881 0)
(0.752877554112 -0.0385782376569 0)
(0.778972581689 -0.0801522881679 0)
(0.786588072537 -0.163781431111 0)
(1.02254275304 0.170628703471 0)
(1.10172362384 0.275425177076 0)
(1.11874893775 0.264183618395 0)
(1.09503623112 0.21560985205 0)
(1.05732414555 0.161883465043 0)
(1.01910482712 0.11539966078 0)
(0.986603485393 0.0792009701617 0)
(0.961703454724 0.0525389212521 0)
(0.943923619922 0.0336499800488 0)
(0.931907742511 0.0207311250691 0)
(0.924178621749 0.0122109442659 0)
(0.919442174177 0.00680941138468 0)
(0.91668475361 0.00353258536467 0)
(0.915172015447 0.00164304636824 0)
(0.914403685773 0.00061881769049 0)
(0.91405504849 0.000108936687117 0)
(0.913929475342 -0.00011497355639 0)
(0.913914796188 -0.000188073368757 0)
(0.913946549611 -0.000189040124136 0)
(0.913991946192 -0.000160890792092 0)
(0.914036161177 -0.000125193494908 0)
(0.914073527305 -9.16627963393e-05 0)
(0.914102809593 -6.37497174906e-05 0)
(0.914124736776 -4.2006422196e-05 0)
(0.914140661041 -2.57633081592e-05 0)
(0.914151971545 -1.39528397806e-05 0)
(0.914159854759 -5.50779422743e-06 0)
(0.914165203636 4.909259402e-07 0)
(0.914168605206 4.62922016671e-06 0)
(0.914170709439 7.12977603977e-06 0)
(0.914172058853 8.69540710504e-06 0)
(0.914172976693 9.8741046554e-06 0)
(0.914173703139 1.07972162747e-05 0)
(0.914174246502 1.15837124704e-05 0)
(0.914174640465 1.22617425605e-05 0)
(0.914174932511 1.28677349172e-05 0)
(0.914175146522 1.34288017327e-05 0)
(0.914175297704 1.39633260727e-05 0)
(0.914175397064 1.44859017284e-05 0)
(0.914175449391 1.50080489338e-05 0)
(0.914175454699 1.55372596322e-05 0)
(0.91417541114 1.60789280326e-05 0)
(0.91417531595 1.663687223e-05 0)
(0.914175165867 1.72136811059e-05 0)
(0.914174958048 1.78121050213e-05 0)
(0.914174692952 1.84393734077e-05 0)
(0.914174368687 1.91122790597e-05 0)
(0.914173986145 1.98238232662e-05 0)
(0.914173554412 2.05683767763e-05 0)
(0.914173085162 2.13474094412e-05 0)
(0.91417259518 2.21598560662e-05 0)
(0.914172109785 2.29988841079e-05 0)
(0.914171665853 2.38501143722e-05 0)
(0.914171317972 2.4688404666e-05 0)
(0.914171147928 2.54719897259e-05 0)
(0.914171276073 2.61323076994e-05 0)
(0.9141718704 2.65563543136e-05 0)
(0.914173161145 2.65648317456e-05 0)
(0.914175504276 2.59219548288e-05 0)
(0.914179309248 2.4389092264e-05 0)
(0.914185050111 2.10998687925e-05 0)
(0.914194559563 1.46729515988e-05 0)
(0.914211533262 2.69752166438e-06 0)
(0.914240196836 -1.74032170809e-05 0)
(0.914285708578 -4.90654611706e-05 0)
(0.914356485637 -9.93982625036e-05 0)
(0.914466033119 -0.000179566154545 0)
(0.914635657149 -0.0003071182471 0)
(0.914898715222 -0.000510128834967 0)
(0.915307433054 -0.000834455774287 0)
(0.915942766768 -0.00135723241424 0)
(0.916932665971 -0.0022083054111 0)
(0.918482056877 -0.0036087026544 0)
(0.920911696586 -0.00595746149643 0)
(0.924707471861 -0.0099990574905 0)
(0.930523064838 -0.0171577497129 0)
(0.939027251009 -0.0301177457864 0)
(0.950756997576 -0.0537420918625 0)
(0.96335294213 -0.0964909313439 0)
(0.958858485477 -0.165714048523 0)
(1.01290238837 0.118656133456 0)
(1.08845740065 0.230270372735 0)
(1.13830144891 0.249679537894 0)
(1.15615576917 0.223154953678 0)
(1.15380731457 0.179891770688 0)
(1.14167612648 0.135621743026 0)
(1.12684353778 0.0972568391713 0)
(1.1131872549 0.0668179151073 0)
(1.10222485822 0.044069003767 0)
(1.09415902147 0.0278771498812 0)
(1.08860303888 0.0168580756847 0)
(1.08498402328 0.00968409531474 0)
(1.08274527671 0.00522252369918 0)
(1.08143017467 0.00258159986451 0)
(1.08070018122 0.00110393758272 0)
(1.08032126994 0.000333028902544 0)
(1.08014275898 -2.91061709753e-05 0)
(1.08007307769 -0.000170289190089 0)
(1.08005743801 -0.000201652961277 0)
(1.0800655729 -0.00018438902865 0)
(1.08008197611 -0.000150355489009 0)
(1.08009928411 -0.000114791626779 0)
(1.08011444943 -8.39708539541e-05 0)
(1.08012659704 -5.97009850576e-05 0)
(1.08013580711 -4.1757321467e-05 0)
(1.08014250449 -2.91285698594e-05 0)
(1.08014720318 -2.06279961847e-05 0)
(1.08015041964 -1.51498844236e-05 0)
(1.08015263129 -1.17129954421e-05 0)
(1.08015429668 -9.41898338192e-06 0)
(1.08015574138 -7.82726630734e-06 0)
(1.0801569268 -6.59986782873e-06 0)
(1.08015780727 -5.74204724664e-06 0)
(1.08015844997 -5.25676053534e-06 0)
(1.08015889647 -5.03699703902e-06 0)
(1.08015922329 -4.9660742013e-06 0)
(1.08015946367 -4.98237799427e-06 0)
(1.08015963723 -5.05433878905e-06 0)
(1.08015975716 -5.15698759813e-06 0)
(1.08015982796 -5.2679413288e-06 0)
(1.08015984904 -5.37414885164e-06 0)
(1.08015981868 -5.4676350351e-06 0)
(1.08015973444 -5.54324034155e-06 0)
(1.08015959466 -5.59783979981e-06 0)
(1.08015940199 -5.63070997493e-06 0)
(1.0801591669 -5.64750925914e-06 0)
(1.08015887305 -5.66725796807e-06 0)
(1.08015849943 -5.67519771547e-06 0)
(1.08015805757 -5.65312762799e-06 0)
(1.08015756375 -5.59387793532e-06 0)
(1.0801570323 -5.49569890046e-06 0)
(1.08015648387 -5.36127954515e-06 0)
(1.08015594952 -5.20032360081e-06 0)
(1.08015547529 -5.03282265343e-06 0)
(1.08015512959 -4.89412601317e-06 0)
(1.0801550143 -4.84343398325e-06 0)
(1.08015528699 -4.97832499453e-06 0)
(1.08015623591 -5.46751228081e-06 0)
(1.08015843789 -6.70617885605e-06 0)
(1.08016230455 -9.8013654218e-06 0)
(1.08016839831 -1.56216745244e-05 0)
(1.08017819178 -2.38474647994e-05 0)
(1.08019342505 -3.70277432923e-05 0)
(1.0802168746 -6.01073719499e-05 0)
(1.08025325913 -9.97780762255e-05 0)
(1.08030953206 -0.000166012520777 0)
(1.08039606478 -0.000274387888938 0)
(1.08052873018 -0.000449700467298 0)
(1.08073193141 -0.000731633465731 0)
(1.08104310879 -0.00118411410266 0)
(1.08151898178 -0.00191103876299 0)
(1.08224522294 -0.00308222401051 0)
(1.0833486248 -0.00498192368304 0)
(1.08500515612 -0.00809550388144 0)
(1.08743012967 -0.0132602484849 0)
(1.09078901284 -0.0219211092327 0)
(1.09492094619 -0.0364752225507 0)
(1.09894528801 -0.0605679623066 0)
(1.09954794401 -0.0990726701296 0)
(1.08512049661 -0.15395399533 0)
(1.00448712281 0.0810251287805 0)
(1.0692669773 0.179492085395 0)
(1.13110712733 0.213003616485 0)
(1.17442215371 0.20410559455 0)
(1.1998870138 0.174014923985 0)
(1.21219072854 0.137264770561 0)
(1.21642165362 0.102092555283 0)
(1.21649631228 0.0722642475132 0)
(1.21485078785 0.0488796512169 0)
(1.2127956919 0.0316256040421 0)
(1.21093571016 0.0195453539769 0)
(1.20947804338 0.0114909765766 0)
(1.20843243573 0.00637277862963 0)
(1.20772889666 0.00327756461828 0)
(1.20727913177 0.00150405743654 0)
(1.20700373884 0.000550542047029 0)
(1.20684212802 8.03990662948e-05 0)
(1.20675128467 -0.000121375097454 0)
(1.20670223972 -0.000184688372266 0)
(1.20667733032 -0.000182964585865 0)
(1.20666568123 -0.000155581127182 0)
(1.20666100143 -0.000122104939072 0)
(1.20665978658 -9.11727831226e-05 0)
(1.20666015518 -6.57950751604e-05 0)
(1.20666114696 -4.63158441315e-05 0)
(1.20666231227 -3.19551296869e-05 0)
(1.20666345639 -2.15851309765e-05 0)
(1.20666451391 -1.4115690821e-05 0)
(1.20666547988 -8.68789728302e-06 0)
(1.2066663601 -4.71924808722e-06 0)
(1.20666712652 -1.91332251077e-06 0)
(1.20666769891 -1.00557270794e-07 0)
(1.20666803783 1.02270197505e-06 0)
(1.20666824158 1.6872065574e-06 0)
(1.20666844496 2.16025643951e-06 0)
(1.20666866289 2.53780911972e-06 0)
(1.2066688546 2.85035965126e-06 0)
(1.20666900793 3.12267027428e-06 0)
(1.20666912813 3.37867401014e-06 0)
(1.20666921209 3.63058242832e-06 0)
(1.20666925015 3.89091343087e-06 0)
(1.20666923604 4.16982181508e-06 0)
(1.20666916499 4.47390777312e-06 0)
(1.20666903153 4.80609982012e-06 0)
(1.20666882598 5.16516186471e-06 0)
(1.20666853192 5.54162967516e-06 0)
(1.2066681612 5.91031699945e-06 0)
(1.20666774277 6.2813244056e-06 0)
(1.20666727834 6.68330048755e-06 0)
(1.20666676625 7.13119831709e-06 0)
(1.20666621726 7.62255555953e-06 0)
(1.20666565189 8.14622155647e-06 0)
(1.2066651005 8.6805640678e-06 0)
(1.20666460822 9.18719693725e-06 0)
(1.20666424188 9.60113632261e-06 0)
(1.20666409703 9.81550012493e-06 0)
(1.20666429367 9.65999632409e-06 0)
(1.20666488805 8.87479335385e-06 0)
(1.2066655834 7.05124700952e-06 0)
(1.20666654051 3.37819881388e-06 0)
(1.20666959199 -3.42052228356e-06 0)
(1.20667554625 -1.51320883712e-05 0)
(1.20668446381 -3.48369766099e-05 0)
(1.20669805652 -6.69170159479e-05 0)
(1.20671867424 -0.000118495961144 0)
(1.20674947085 -0.000201097650818 0)
(1.20679499332 -0.000332994107916 0)
(1.20686187717 -0.000543107966773 0)
(1.20695969232 -0.000877337442571 0)
(1.20710193886 -0.00140882528545 0)
(1.20730667651 -0.00225466843035 0)
(1.20759604525 -0.00360288370512 0)
(1.20799139742 -0.00575782775343 0)
(1.2084951447 -0.00921373462285 0)
(1.20904185923 -0.0147687862949 0)
(1.2093717298 -0.0236862045395 0)
(1.20875642651 -0.0378461792109 0)
(1.20565123048 -0.0597089813899 0)
(1.196804024 -0.0918196586317 0)
(1.17463264051 -0.13405966165 0)
(0.998963696368 0.0540471381485 0)
(1.05303025558 0.131617309854 0)
(1.11591811781 0.166877565465 0)
(1.17209134998 0.168548255836 0)
(1.21612007816 0.150037985221 0)
(1.24751793112 0.122628113538 0)
(1.26844799547 0.0939065710295 0)
(1.28170246105 0.0681032241512 0)
(1.2897111852 0.0470313729933 0)
(1.29431458828 0.0309991644434 0)
(1.29680898193 0.019498731491 0)
(1.29805801288 0.0116742273167 0)
(1.29860958134 0.00661177198857 0)
(1.29879535889 0.00349665580396 0)
(1.29880629376 0.00167853306145 0)
(1.29874599308 0.000679247736817 0)
(1.29866694996 0.000170520228697 0)
(1.29859252509 -6.08173962389e-05 0)
(1.29853105761 -0.000144960416144 0)
(1.29848406707 -0.000157309341668 0)
(1.29844972386 -0.000139199261929 0)
(1.29842544576 -0.000111696874498 0)
(1.2984087351 -8.45339079922e-05 0)
(1.29839749575 -6.14800842149e-05 0)
(1.29839010801 -4.33935890158e-05 0)
(1.29838538244 -2.98749535334e-05 0)
(1.29838246205 -2.01064098573e-05 0)
(1.29838072425 -1.3232184976e-05 0)
(1.29837971937 -8.5330831182e-06 0)
(1.29837916925 -5.45148043589e-06 0)
(1.29837890755 -3.55016199992e-06 0)
(1.2983788184 -2.43174339565e-06 0)
(1.29837887211 -1.74102894184e-06 0)
(1.29837909013 -1.22597805344e-06 0)
(1.29837939694 -8.54424176396e-07 0)
(1.29837967518 -6.27249360567e-07 0)
(1.29837989954 -4.79208479366e-07 0)
(1.2983800835 -3.52428776866e-07 0)
(1.29838022981 -2.24458655101e-07 0)
(1.29838033405 -8.90187886828e-08 0)
(1.29838039491 6.36824145739e-08 0)
(1.29838040753 2.43924578732e-07 0)
(1.29838036563 4.60584752939e-07 0)
(1.2983802628 7.21240490015e-07 0)
(1.2983800923 1.03422482809e-06 0)
(1.29837984512 1.41431057222e-06 0)
(1.29837952029 1.88882427892e-06 0)
(1.29837913798 2.45842962351e-06 0)
(1.2983787119 3.09986497493e-06 0)
(1.29837823311 3.79591245907e-06 0)
(1.29837769581 4.53742246619e-06 0)
(1.29837710727 5.30662530361e-06 0)
(1.29837648034 6.06966899673e-06 0)
(1.29837583192 6.76856331671e-06 0)
(1.29837518382 7.30808079438e-06 0)
(1.29837456564 7.53672792384e-06 0)
(1.29837403023 7.22034205699e-06 0)
(1.29837370169 6.01388160967e-06 0)
(1.2983737574 3.52714776455e-06 0)
(1.29837398976 -2.9630411356e-07 0)
(1.29837427884 -6.24958842142e-06 0)
(1.29837472469 -1.77860499327e-05 0)
(1.29837527168 -3.75699579403e-05 0)
(1.29837581371 -7.0199206864e-05 0)
(1.29837585403 -0.000123180760135 0)
(1.29837417937 -0.00020828751767 0)
(1.29836842319 -0.000343996292289 0)
(1.29835425989 -0.000559361482561 0)
(1.29832389363 -0.000900136401108 0)
(1.29826332595 -0.00143846534375 0)
(1.2981472577 -0.00228816874461 0)
(1.29792965827 -0.00362847683625 0)
(1.29752570864 -0.00574092579528 0)
(1.29677657235 -0.00906412857704 0)
(1.29538270318 -0.0142686119568 0)
(1.29277698535 -0.022341739484 0)
(1.28790589827 -0.0346236612565 0)
(1.27900464428 -0.0526504954147 0)
(1.26321214679 -0.0776385327567 0)
(1.23536306814 -0.108864403633 0)
(0.995730063244 0.0343086056771 0)
(1.04156367869 0.0890680315466 0)
(1.10126013582 0.118271869778 0)
(1.162527363 0.124059526598 0)
(1.21742332927 0.113974977763 0)
(1.26188877587 0.0956374651497 0)
(1.29544361739 0.0748615563293 0)
(1.31942908725 0.0553030734963 0)
(1.33577683637 0.0388041968287 0)
(1.34642284995 0.0259428945387 0)
(1.35304399332 0.016538617509 0)
(1.35696385311 0.0100375623594 0)
(1.35915644824 0.00577190833264 0)
(1.36029768387 0.00311195444752 0)
(1.36083212194 0.00153796361296 0)
(1.36103738707 0.000658941604728 0)
(1.36107815368 0.000201582645407 0)
(1.3610463376 -1.39503511295e-05 0)
(1.3609901195 -9.84345141493e-05 0)
(1.3609326309 -0.000117751019133 0)
(1.36088305401 -0.00010819326169 0)
(1.36084392128 -8.85807483334e-05 0)
(1.3608146862 -6.78863245933e-05 0)
(1.36079367068 -4.98049432392e-05 0)
(1.36077900889 -3.53950386611e-05 0)
(1.36076903943 -2.45315521124e-05 0)
(1.36076242123 -1.66522096095e-05 0)
(1.36075812709 -1.11053295117e-05 0)
(1.36075540394 -7.28322896895e-06 0)
(1.36075374194 -4.66749329455e-06 0)
(1.36075281846 -2.86908533092e-06 0)
(1.36075239643 -1.59205347837e-06 0)
(1.36075227388 -6.49904533382e-07 0)
(1.36075226548 3.16566255384e-08 0)
(1.36075228775 4.93038514312e-07 0)
(1.36075237616 7.91104895552e-07 0)
(1.36075253359 9.96903394808e-07 0)
(1.36075271101 1.16163842837e-06 0)
(1.36075287055 1.31153953153e-06 0)
(1.36075299842 1.46817485803e-06 0)
(1.36075308846 1.645511797e-06 0)
(1.36075313484 1.85371361628e-06 0)
(1.36075313229 2.1011707698e-06 0)
(1.36075307636 2.39548383008e-06 0)
(1.36075296387 2.74426548109e-06 0)
(1.36075279358 3.15675210621e-06 0)
(1.36075256635 3.64744882295e-06 0)
(1.3607522695 4.22565150254e-06 0)
(1.36075188936 4.87716426836e-06 0)
(1.36075143516 5.58760649548e-06 0)
(1.36075091741 6.35151228228e-06 0)
(1.36075033748 7.15689544408e-06 0)
(1.36074969483 7.97816629226e-06 0)
(1.36074898748 8.76904895845e-06 0)
(1.36074821026 9.45199025908e-06 0)
(1.36074735158 9.90407007452e-06 0)
(1.36074638325 9.93516346287e-06 0)
(1.36074524823 9.24084502241e-06 0)
(1.36074389165 7.30161617192e-06 0)
(1.36074216393 3.39904083025e-06 0)
(1.36073918755 -2.83438904681e-06 0)
(1.36073427061 -1.35513175399e-05 0)
(1.36072663846 -3.17840668135e-05 0)
(1.36071420074 -6.15760515148e-05 0)
(1.36069365336 -0.000109483726219 0)
(1.3606594926 -0.000185859995266 0)
(1.36060262723 -0.000306861017721 0)
(1.36050820303 -0.000497647372027 0)
(1.36035196818 -0.000797447865395 0)
(1.36009432589 -0.00126740430247 0)
(1.35967054893 -0.00200256089454 0)
(1.35897469735 -0.00314977333883 0)
(1.35783302488 -0.00493386167554 0)
(1.3559600644 -0.00769327178253 0)
(1.35288814699 -0.0119227082444 0)
(1.3478566146 -0.0183090904138 0)
(1.33965463105 -0.0277154367457 0)
(1.32650449076 -0.0410211458661 0)
(1.30594608478 -0.0587418344317 0)
(1.27422518343 -0.0801549769021 0)
(0.994001727013 0.019020023033 0)
(1.0345077401 0.0513379780475 0)
(1.09057888744 0.0701870633352 0)
(1.15314072969 0.075443380676 0)
(1.21359670722 0.0707596284245 0)
(1.2658537738 0.0604196757174 0)
(1.30759280752 0.0479932309037 0)
(1.3389494484 0.0358983586761 0)
(1.36128427598 0.0254614745934 0)
(1.37642691615 0.0171874442681 0)
(1.38621425046 0.0110566393375 0)
(1.39224031076 0.00677162804728 0)
(1.39576149334 0.00393278560881 0)
(1.39769770784 0.00214648825504 0)
(1.39868169918 0.00107970581035 0)
(1.39912473604 0.000477713384295 0)
(1.39928015818 0.000160218368812 0)
(1.3992959922 7.44068507526e-06 0)
(1.39925320172 -5.50049969797e-05 0)
(1.39919308519 -7.19093990257e-05 0)
(1.39913507358 -6.81103157868e-05 0)
(1.39908645735 -5.66408696888e-05 0)
(1.39904870513 -4.38300849024e-05 0)
(1.3990207966 -3.23731394851e-05 0)
(1.3990008845 -2.31248800652e-05 0)
(1.39898707216 -1.60930784401e-05 0)
(1.39897772169 -1.09537696914e-05 0)
(1.39897153466 -7.30051080777e-06 0)
(1.39896753773 -4.7469960927e-06 0)
(1.39896503593 -2.97025030251e-06 0)
(1.39896354429 -1.7396652865e-06 0)
(1.39896270461 -9.13100131132e-07 0)
(1.39896226651 -3.88460300359e-07 0)
(1.39896211044 -6.96265866585e-08 0)
(1.39896213364 1.85081435476e-07 0)
(1.39896223676 4.34737990646e-07 0)
(1.39896238479 6.66095799157e-07 0)
(1.39896255193 8.76287288183e-07 0)
(1.39896271537 1.08151665983e-06 0)
(1.39896286019 1.29893214343e-06 0)
(1.39896297607 1.54092305666e-06 0)
(1.39896305454 1.81682473006e-06 0)
(1.39896308853 2.1337841909e-06 0)
(1.39896307224 2.49738581793e-06 0)
(1.39896300109 2.91213911714e-06 0)
(1.39896287194 3.38155848749e-06 0)
(1.39896268393 3.90795090364e-06 0)
(1.39896243351 4.49159635359e-06 0)
(1.39896211538 5.14642619249e-06 0)
(1.39896172771 5.88199703524e-06 0)
(1.39896126661 6.69261517924e-06 0)
(1.39896072325 7.56353072089e-06 0)
(1.39896008316 8.4684849575e-06 0)
(1.39895932184 9.3624967629e-06 0)
(1.39895839965 1.01725418306e-05 0)
(1.39895725568 1.07843801647e-05 0)
(1.39895579716 1.10234724206e-05 0)
(1.39895388526 1.06318646965e-05 0)
(1.39895136719 9.22467744012e-06 0)
(1.39894814747 6.18960911494e-06 0)
(1.39894291523 8.84230621177e-07 0)
(1.39893361358 -6.85203745156e-06 0)
(1.39891864576 -1.98361465203e-05 0)
(1.39889503338 -4.21410002485e-05 0)
(1.39885713691 -7.83545025537e-05 0)
(1.39879590528 -0.000135634652011 0)
(1.39869688312 -0.000225436090828 0)
(1.39853693806 -0.000365504608749 0)
(1.39827903431 -0.000583151023816 0)
(1.39786402543 -0.000920321612302 0)
(1.39719773326 -0.00144114070939 0)
(1.39613077173 -0.00224277686202 0)
(1.39442742092 -0.00347043286011 0)
(1.39171859199 -0.0053361873256 0)
(1.38743382012 -0.00813837284046 0)
(1.38070812667 -0.0122711781669 0)
(1.37027117126 -0.0181974343836 0)
(1.35439881994 -0.026337702492 0)
(1.33092198548 -0.0368531995379 0)
(1.29686557935 -0.0492353170234 0)
(0.993258461206 0.00609476529908 0)
(1.03118558431 0.0167537454297 0)
(1.08507415716 0.02322915323 0)
(1.14768042226 0.0252700100767 0)
(1.21037830012 0.0239452627827 0)
(1.26619615035 0.0206247142473 0)
(1.31190091785 0.0165037434428 0)
(1.34696749067 0.0124221739904 0)
(1.37240108831 0.00885869272912 0)
(1.38992317625 0.0060091737066 0)
(1.40141724586 0.00388338713146 0)
(1.40859732032 0.00238923044443 0)
(1.41285763035 0.00139445785886 0)
(1.41524294401 0.00076562688303 0)
(1.4164852447 0.000388336147514 0)
(1.41706785962 0.000174323755902 0)
(1.4172928367 6.07337387513e-05 0)
(1.41733914452 5.61951468989e-06 0)
(1.41730649162 -1.74609427846e-05 0)
(1.41724688712 -2.4132430719e-05 0)
(1.41718544185 -2.32510195596e-05 0)
(1.41713233912 -1.94982362841e-05 0)
(1.41709034617 -1.51603936362e-05 0)
(1.41705891489 -1.12259824271e-05 0)
(1.41703627644 -8.02151428852e-06 0)
(1.41702044784 -5.56591047373e-06 0)
(1.41700965412 -3.75721031583e-06 0)
(1.41700246073 -2.45870116196e-06 0)
(1.41699777759 -1.53872639217e-06 0)
(1.41699481177 -8.87982123922e-07 0)
(1.41699300314 -4.28706700682e-07 0)
(1.41699195813 -1.06566622992e-07 0)
(1.41699140859 1.36655100951e-07 0)
(1.41699118436 3.44606294958e-07 0)
(1.41699116236 5.10003011587e-07 0)
(1.41699124897 6.58989468734e-07 0)
(1.41699139383 8.07042180961e-07 0)
(1.41699156894 9.62879107105e-07 0)
(1.41699175094 1.1360944132e-06 0)
(1.41699192232 1.33562550344e-06 0)
(1.41699207072 1.56877351412e-06 0)
(1.41699218676 1.84191354493e-06 0)
(1.41699226309 2.16078807e-06 0)
(1.41699229414 2.53088864102e-06 0)
(1.41699227591 2.95779367138e-06 0)
(1.4169922058 3.44758473188e-06 0)
(1.41699208215 4.00683510373e-06 0)
(1.41699190128 4.64054436744e-06 0)
(1.41699165729 5.35517492379e-06 0)
(1.41699134415 6.15416823708e-06 0)
(1.41699095314 7.03550337671e-06 0)
(1.41699046918 7.99174843065e-06 0)
(1.41698986713 9.00647481048e-06 0)
(1.41698910683 1.00500587255e-05 0)
(1.41698812632 1.10753206414e-05 0)
(1.41698683067 1.2009416674e-05 0)
(1.41698507389 1.27398564838e-05 0)
(1.4169826272 1.30940019266e-05 0)
(1.41697914736 1.27992771259e-05 0)
(1.41697426664 1.13418921151e-05 0)
(1.41696741925 7.73743142792e-06 0)
(1.4169561336 1.85185084154e-06 0)
(1.41693645682 -6.67202630879e-06 0)
(1.41690479568 -1.92469495126e-05 0)
(1.41685524606 -3.88549171436e-05 0)
(1.41677660685 -6.96479403968e-05 0)
(1.41665100548 -0.000117211354988 0)
(1.4164504439 -0.000189607705784 0)
(1.41613065905 -0.000298695516492 0)
(1.41562172574 -0.000461931915934 0)
(1.41481364744 -0.000704903197861 0)
(1.41353445166 -0.00106470781073 0)
(1.41151751842 -0.00159416516855 0)
(1.40835434021 -0.00236622641066 0)
(1.40342987694 -0.00347672970202 0)
(1.3958406125 -0.0050413763423 0)
(1.38430755936 -0.00717792871385 0)
(1.36715560166 -0.00996130213823 0)
(1.34236302773 -0.0133604708118 0)
(1.30730678502 -0.017132881514 0)
(0.993259258536 -0.00609303601584 0)
(1.03118556359 -0.0167521956297 0)
(1.08507408243 -0.0232284035797 0)
(1.14768044531 -0.0252697117346 0)
(1.2103783547 -0.0239452628307 0)
(1.26619622316 -0.0206249097926 0)