/*--------------------------------*- C++ -*----------------------------------*\
| =========                 |                                                 |
| \\      /  F ield         | OpenFOAM: The Open Source CFD Toolbox           |
|  \\    /   O peration     | Version:  2106                                  |
|   \\  /    A nd           | Website:  www.openfoam.com                      |
|    \\/     M anipulation  |                                                 |
\*---------------------------------------------------------------------------*/
FoamFile
{
    version     2.0;
    format      ascii;
    arch        "LSB;label=32;scalar=64";
    class       surfaceScalarField;
    location    "0.295";
    object      phi;
}
// * * * * * * * * * * * * * * * * * * * * * * * * * * * * * * * * * * * * * //

dimensions      [0 3 -1 0 0 0 0];

oriented        oriented;

internalField   nonuniform List<scalar> 
22100
(
3.38461204924e-05
1.61538795078e-05
2.24572104491e-05
1.13889103504e-05
1.62585538747e-05
6.19865680418e-06
1.27977771892e-05
3.46077692515e-06
1.0804643591e-05
1.99313383178e-06
9.60459084528e-06
1.20005298646e-06
8.85132335923e-06
7.53267718321e-07
8.36435481133e-06
4.86968772087e-07
8.04433720007e-06
3.20017837837e-07
7.83284266537e-06
2.11494752145e-07
7.6933997535e-06
1.39443125717e-07
7.60224310524e-06
9.11568579077e-08
7.54348054465e-06
5.87627658174e-08
7.50634383026e-06
3.71369142645e-08
7.48350449774e-06
2.28395254492e-08
7.46998382699e-06
1.35208573949e-08
7.46241933228e-06
7.56467533946e-09
7.45855140216e-06
3.86810401429e-09
7.456832474e-06
1.71908913705e-09
7.45642589936e-06
4.0672674007e-10
7.45677575116e-06
-3.49715143609e-10
7.45746194798e-06
-6.86066667184e-10
7.45822029851e-06
-7.58230677728e-10
7.45894560126e-06
-7.25194426548e-10
7.45958990345e-06
-6.44205258237e-10
7.46013382689e-06
-5.43836760577e-10
7.46057593044e-06
-4.42027468288e-10
7.46092467319e-06
-3.48677034882e-10
7.4611929648e-06
-2.68236592697e-10
7.46139489525e-06
-2.01884340143e-10
7.46154383918e-06
-1.48907603541e-10
7.4616515021e-06
-1.07634954201e-10
7.46172761368e-06
-7.60913001216e-11
7.46178030259e-06
-5.2675144299e-11
7.46181351749e-06
-3.32041299962e-11
7.46183225118e-06
-1.87242387818e-11
7.4618412691e-06
-9.01469279168e-12
7.46184400717e-06
-2.74352051549e-12
7.46184240969e-06
1.5830226491e-12
7.46183761709e-06
4.77183636689e-12
7.461830568e-06
7.02764427526e-12
7.46182186706e-06
8.67680782869e-12
7.46181188261e-06
9.95635858839e-12
7.46180079045e-06
1.10608301221e-11
7.46178859671e-06
1.21597142558e-11
7.46177518192e-06
1.33803106686e-11
7.46176032609e-06
1.48219951324e-11
7.46174370419e-06
1.65789603842e-11
7.46172489458e-06
1.87580953344e-11
7.46170335718e-06
2.14746584098e-11
7.46167848403e-06
2.47983475479e-11
7.4616495767e-06
2.88183321972e-11
7.46161584464e-06
3.36259381878e-11
7.46157642422e-06
3.92931910021e-11
7.46153043316e-06
4.58422173235e-11
7.46147703713e-06
5.32232254596e-11
7.46141555266e-06
6.1283318549e-11
7.4613458554e-06
6.94631068832e-11
7.46126864701e-06
7.69407601724e-11
7.46118636249e-06
8.19791314008e-11
7.46110529835e-06
8.07350251824e-11
7.46103763025e-06
6.73155722085e-11
7.46099107149e-06
4.61910082597e-11
7.46098483961e-06
5.85917625328e-12
7.4610548553e-06
-7.03815826359e-11
7.46125936674e-06
-2.04859309322e-10
7.46169283904e-06
-4.33802472372e-10
7.46250532276e-06
-8.12771553885e-10
7.46393206862e-06
-1.42696377044e-09
7.46632858479e-06
-2.39663489006e-09
7.47014447975e-06
-3.81590912942e-09
7.47659012232e-06
-6.4455746737e-09
7.48735822051e-06
-1.07679482673e-08
7.50553123884e-06
-1.81727820744e-08
7.53871718112e-06
-3.31856056883e-08
7.60793877991e-06
-6.92211900826e-08
7.77462510937e-06
-1.66685950998e-07
8.22961275726e-06
-4.5498731433e-07
9.69750757296e-06
-1.46789447877e-06
-5.45255225569e-06
1.51500599978e-05
5.02175950909e-05
1.5936284705e-05
4.4244112355e-05
1.73623936019e-05
3.77795026383e-05
1.26632669571e-05
3.26461455498e-05
8.59413445193e-06
2.89380937968e-05
5.7011860015e-06
2.63596237509e-05
3.77852344582e-06
2.45875196875e-05
2.52537219415e-06
2.33734779677e-05
1.7010108924e-06
2.25435292639e-05
1.14996694162e-06
2.19782209241e-05
7.7680348117e-07
2.15955187448e-05
5.22145686283e-07
2.13387425296e-05
3.47933443818e-07
2.11685013529e-05
2.29004298404e-07
2.10573440826e-05
1.48294525522e-07
2.09861564995e-05
9.40274339999e-08
2.09416844425e-05
5.79932228191e-08
2.09148029394e-05
3.44464704798e-08
2.0899304134e-05
1.93671804154e-08
2.08910806568e-05
9.94282820114e-09
2.08872806298e-05
4.20699698513e-09
2.08862118217e-05
7.19317587883e-10
2.0886457731e-05
-9.3177124666e-10
2.08873293168e-05
-1.6296281299e-09
2.08884689403e-05
-1.86464507398e-09
2.08896423719e-05
-1.81748144959e-09
2.08907254482e-05
-1.62677600367e-09
2.0891663114e-05
-1.37957518778e-09
2.08924407002e-05
-1.1261634204e-09
2.08930659735e-05
-8.9342947374e-10
2.0893558156e-05
-6.94001496302e-10
2.08939420251e-05
-5.32727505291e-10
2.08942435603e-05
-4.09131968735e-10
2.08944545292e-05
-2.87030871265e-10
2.08946015792e-05
-1.99705861824e-10
2.08947019311e-05
-1.33553143974e-10
2.08947672794e-05
-8.40832176342e-11
2.08948077981e-05
-4.95531546142e-11
2.08948316568e-05
-2.66273774526e-11
2.08948436692e-05
-1.04565182665e-11
2.08948467735e-05
1.64055887244e-12
2.08948433873e-05
1.03874706995e-11
2.08948351744e-05
1.68650548989e-11
2.08948232724e-05
2.18327018993e-11
2.08948083977e-05
2.59070028176e-11
2.08947909202e-05
2.95995029355e-11
2.08947709752e-05
3.3271303401e-11
2.08947485471e-05
3.71831889106e-11
2.08947235066e-05
4.15312793695e-11
2.08946956483e-05
4.65015332128e-11
2.08946646977e-05
5.22806928642e-11
2.08946304355e-05
5.88863727549e-11
2.08945927137e-05
6.63360638484e-11
2.08945515398e-05
7.45653788806e-11
2.08945072134e-05
8.3343989044e-11
2.08944605798e-05
9.21456107087e-11
2.08944134236e-05
9.99860787564e-11
2.08943690195e-05
1.05232227234e-10
2.08943333162e-05
1.04652685231e-10
2.08943157831e-05
9.39188043782e-11
2.08943316578e-05
6.55069267168e-11
2.08944077686e-05
3.99550791693e-12
2.08945929787e-05
-1.18535380941e-10
2.08949556206e-05
-3.1708764222e-10
2.08956141805e-05
-6.53326275272e-10
2.08966771214e-05
-1.1339282511e-09
2.08983207553e-05
-1.84904061489e-09
2.09009029567e-05
-3.01645078166e-09
2.09049716323e-05
-4.88175132492e-09
2.09113959654e-05
-7.85143364978e-09
2.0921599702e-05
-1.26003432075e-08
2.09380731256e-05
-2.02891672902e-08
2.09649630022e-05
-3.33351464169e-08
2.1009209623e-05
-5.50141299639e-08
2.10839885401e-05
-9.2951139772e-08
2.1215231012e-05
-1.64427453518e-07
2.14558558165e-05
-3.09845379768e-07
2.19137437726e-05
-6.24573257005e-07
2.28008661277e-05
-1.34210889518e-06
2.44451568033e-05
-3.11218467063e-06
-7.03969012501e-06
2.60322951223e-05
5.351710558e-05
1.24191793567e-05
5.2934969058e-05
1.79445305723e-05
4.96538412733e-05
1.59443951201e-05
4.58401829966e-05
1.24077931074e-05
4.24400943567e-05
9.10127501494e-06
3.97291747466e-05
6.48944342553e-06
3.76873086105e-05
4.56723869355e-06
3.6197666112e-05
3.19065374191e-06
3.51326158061e-05
2.21501759861e-06
3.4382371077e-05
1.52704855529e-06
3.38606304129e-05
1.04388668646e-06
3.35023504865e-05
7.06213697796e-07
3.32596058964e-05
4.71749208691e-07
3.30975958981e-05
3.10304834577e-07
3.2991340122e-05
2.00283508726e-07
3.29230985313e-05
1.26235099605e-07
3.28804108494e-05
7.71344241988e-08
3.28546259574e-05
4.51523273478e-08
3.28397990817e-05
2.47699387699e-08
3.28318727702e-05
1.21335298942e-08
3.28280034879e-05
4.58880387668e-09
3.28270049843e-05
6.69183640669e-11
3.28271858907e-05
-1.81036547478e-09
3.28280344082e-05
-2.71300928626e-09
3.28291502573e-05
-2.93319275004e-09
3.28302975536e-05
-2.77395067993e-09
3.28313535481e-05
-2.43546497273e-09
3.28322639365e-05
-2.03646269e-09
3.28330138696e-05
-1.64328968306e-09
3.28336094345e-05
-1.28950706159e-09
3.28340655742e-05
-9.88820474369e-10
3.28344004198e-05
-7.43941438732e-10
3.28346666347e-05
-5.53216371495e-10
3.28348828127e-05
-4.15861133123e-10
3.28350298193e-05
-2.80547310443e-10
3.28351288345e-05
-1.83103173168e-10
3.2835194484e-05
-1.15222552225e-10
3.28352361919e-05
-6.83621838536e-11
3.28352608343e-05
-3.5130794143e-11
3.28352723786e-05
-9.93798200825e-12
3.28352743842e-05
8.34476998628e-12
3.28352693447e-05
2.18619984721e-11
3.28352590815e-05
3.20490456357e-11
3.28352448219e-05
4.01192680685e-11
3.28352273195e-05
4.705580566e-11
3.28352070357e-05
5.3503709331e-11
3.28351842651e-05
5.9888655551e-11
3.28351592066e-05
6.65084486953e-11
3.28351319623e-05
7.36460745112e-11
3.28351025367e-05
8.15867497728e-11
3.28350712379e-05
9.00438595435e-11
3.28350386577e-05
9.87488708503e-11
3.28350058166e-05
1.07207088243e-10
3.28349744787e-05
1.14445394657e-10
3.28349476309e-05
1.18712656793e-10
3.28349299712e-05
1.17314912743e-10
3.28349284293e-05
1.06389306746e-10
3.28349544646e-05
7.81772221449e-11
3.28350253762e-05
2.25149759963e-11
3.28351708635e-05
-8.05106075316e-11
3.28354423032e-05
-2.68011407167e-10
3.28359285506e-05
-6.05369276626e-10
3.28366441122e-05
-1.03323686532e-09
3.28376839255e-05
-1.6937114404e-09
3.28393058781e-05
-2.75643751039e-09
3.28418860832e-05
-4.42975634346e-09
3.28459283914e-05
-7.05918281062e-09
3.28522471172e-05
-1.12007723822e-08
3.28621551448e-05
-1.77596048262e-08
3.2877816757e-05
-2.8261957978e-08
3.29028923937e-05
-4.5364680205e-08
3.29427332781e-05
-7.31757887299e-08
3.30071692082e-05
-1.19449682207e-07
3.31131837023e-05
-1.9896512748e-07
3.32897924081e-05
-3.41035644173e-07
3.35852055063e-05
-6.0525804914e-07
3.40705160687e-05
-1.10988340361e-06
3.481188455e-05
-2.08347695621e-06
3.56731407368e-05
-3.9734403595e-06
-7.10841884107e-06
3.5741869071e-05
5.35105667132e-05
8.90861286988e-06
5.55742229685e-05
1.58808747475e-05
5.52424836759e-05
1.62761347841e-05
5.35977875471e-05
1.40524896042e-05
5.15418496954e-05
1.11572132293e-05
4.95802823243e-05
8.4510111559e-06
4.79243536869e-05
6.22316768582e-06
4.66181421856e-05
4.49686559021e-06
4.56304697526e-05
3.20269037293e-06
4.49051211674e-05
2.25239747327e-06
4.43840943362e-05
1.56491384185e-06
4.40166985386e-05
1.07360981038e-06
4.37619723915e-05
7.26475661529e-07
4.35882741232e-05
4.84003397522e-07
4.34718750921e-05
3.16682821778e-07
4.33953653412e-05
2.02745124189e-07
4.3346195372e-05
1.2630465231e-07
4.33154580575e-05
7.58898872546e-08
4.3296921975e-05
4.33062496294e-08
4.32862961748e-05
2.275954178e-08
4.32806935875e-05
1.01915882915e-08
4.32778861588e-05
2.87452969584e-09
4.32770585675e-05
-9.82606394221e-10
4.32772766613e-05
-2.93095080063e-09
4.32779643834e-05
-3.62077859556e-09
4.32788276028e-05
-3.63705043527e-09
4.3279700548e-05
-3.30830754366e-09
4.32804981032e-05
-2.83393048439e-09
4.32811839182e-05
-2.32903127786e-09
4.3281749779e-05
-1.85530800152e-09
4.32822025223e-05
-1.44151751709e-09
4.32825548483e-05
-1.09623294978e-09
4.3282816509e-05
-8.14854875692e-10
4.32829917892e-05
-5.91125212851e-10
4.32831247413e-05
-4.13494095526e-10
4.32832100164e-05
-2.68383035199e-10
4.32832639582e-05
-1.69176095819e-10
4.32833037116e-05
-1.08133643783e-10
4.3283328079e-05
-5.95167982103e-11
4.32833400663e-05
-2.19466892373e-11
4.32833430927e-05
5.29537376713e-12
4.3283339117e-05
2.58122266281e-11
4.32833298398e-05
4.12962760443e-11
4.32833164238e-05
5.34973522668e-11
4.32832995204e-05
6.39128373473e-11
4.32832795641e-05
7.34037543315e-11
4.32832568922e-05
8.24934596018e-11
4.32832317937e-05
9.15246348891e-11
4.32832046208e-05
1.00718059656e-10
4.32831759531e-05
1.10136977975e-10
4.32831464272e-05
1.19432652859e-10
4.32831170078e-05
1.28006537467e-10
4.32830891601e-05
1.34859671176e-10
4.32830649857e-05
1.38384669913e-10
4.32830474083e-05
1.36012081694e-10
4.3283040828e-05
1.23572825642e-10
4.32830532062e-05
9.36400755678e-11
4.32830965465e-05
3.44153046993e-11
4.328319007e-05
-7.14751647174e-11
4.32833508178e-05
-2.41769545563e-10
4.32835897397e-05
-5.07474437485e-10
4.32840314323e-05
-1.0476240345e-09
4.32848003788e-05
-1.80274380544e-09
4.32860512803e-05
-2.94516291529e-09
4.32879915839e-05
-4.69726262932e-09
4.3290971014e-05
-7.40965653013e-09
4.32955490644e-05
-1.16376112131e-08
4.330260424e-05
-1.82562002186e-08
4.33135185134e-05
-2.86739956802e-08
4.3330449625e-05
-4.51930657103e-08
4.33567065719e-05
-7.16215099272e-08
4.33978595201e-05
-1.14328509087e-07
4.34627593303e-05
-1.84349115391e-07
4.35651293114e-05
-3.01334586538e-07
4.37249222239e-05
-5.00827966614e-07
4.39667306733e-05
-8.47065830887e-07
4.43072122423e-05
-1.45036420388e-06
4.47076468143e-05
-2.48391101938e-06
4.49270788294e-05
-4.19287175349e-06
-6.57931262574e-06
4.43979724772e-05
5.27351382489e-05
6.17347484934e-06
5.57309351493e-05
1.28850782738e-05
5.73114753894e-05
1.46955949159e-05
5.76109933009e-05
1.37529720584e-05
5.71335245579e-05
1.16346823334e-05
5.63194704924e-05
9.26506558332e-06
5.54489907979e-05
7.09364773396e-06
5.46629807252e-05
5.28287601188e-06
5.40136856578e-05
3.85198578585e-06
5.35061548218e-05
2.75992864653e-06
5.31242594051e-05
1.94680958711e-06
5.28449903714e-05
1.35287916475e-06
5.26454446459e-05
9.26021700312e-07
5.25057209274e-05
6.23727419168e-07
5.24097266859e-05
4.12677354049e-07
5.23450211991e-05
2.67450884617e-07
5.23022838913e-05
1.69042220804e-07
5.22746972265e-05
1.0347679885e-07
5.22573731509e-05
6.06305553755e-08
5.22468648908e-05
3.32680141712e-08
5.22407655536e-05
1.62911213697e-08
5.22374569581e-05
6.18330632232e-09
5.2235958485e-05
5.16034470289e-10
5.22354506394e-05
-2.42295282054e-09
5.22355156204e-05
-3.68562353959e-09
5.2235861048e-05
-3.98235954322e-09
5.223631521e-05
-3.76236734802e-09
5.22367814727e-05
-3.30010662013e-09
5.22372087404e-05
-2.75622556877e-09
5.22375742918e-05
-2.22079970517e-09
5.22378714308e-05
-1.73860819626e-09
5.22381029519e-05
-1.3277167811e-09
5.22382791417e-05
-9.91017751614e-10
5.22384119126e-05
-7.23881679248e-10
5.22385121581e-05
-5.13738280025e-10
5.22385966842e-05
-3.52918133522e-10
5.22386620955e-05
-2.34607170331e-10
5.22387043217e-05
-1.50383613993e-10
5.22387369867e-05
-9.2210783966e-11
5.2238752335e-05
-3.73248869976e-11
5.22387575176e-05
8.02848198192e-14
5.22387551101e-05
2.81870175904e-11
5.22387470529e-05
4.9323790381e-11
5.22387346823e-05
6.58309017003e-11
5.22387188627e-05
7.96860063399e-11
5.22387001668e-05
9.20427415978e-11
5.22386790892e-05
1.03504697911e-10
5.22386563607e-05
1.14176143202e-10
5.22386327389e-05
1.24248022663e-10
5.22386064733e-05
1.36288732573e-10
5.22385792458e-05
1.46526247898e-10
5.22385521564e-05
1.54938547066e-10
5.22385267667e-05
1.60060734475e-10
5.2238505618e-05
1.59303520998e-10
5.22384938466e-05
1.47504210495e-10
5.22385019294e-05
1.15152233006e-10
5.22385318035e-05
6.33851931297e-11
5.22386062565e-05
-4.04728317937e-11
5.22387248774e-05
-1.90582865886e-10
5.22389167093e-05
-4.34134637613e-10
5.22392525907e-05
-8.43918184163e-10
5.22397670365e-05
-1.56264571838e-09
5.22405362869e-05
-2.57257344718e-09
5.22416927278e-05
-4.10216919669e-09
5.22434395126e-05
-6.44457914146e-09
5.22460778559e-05
-1.00484678138e-08
5.22500595321e-05
-1.56196463807e-08
5.22560755055e-05
-2.42723984271e-08
5.22651844004e-05
-3.7782987698e-08
5.22790034716e-05
-5.90121218432e-08
5.22999906243e-05
-9.26085565303e-08
5.23318618533e-05
-1.46199530865e-07
5.23799612936e-05
-2.32448227995e-07
5.24512164988e-05
-3.7258938127e-07
5.25524935243e-05
-6.0210455709e-07
5.26843410196e-05
-9.78912857174e-07
5.2824537176e-05
-1.59055976665e-06
5.28915959106e-05
-2.55096922173e-06
5.2673039593e-05
-3.97431471631e-06
-5.77035367395e-06
5.18640807808e-05
5.19834867152e-05
4.18998836136e-06
5.50586646665e-05
9.80990074398e-06
5.7638614296e-05
1.211564566e-05
5.93259046338e-05
1.20656820895e-05
6.02280170531e-05
1.0732570274e-05
6.05929286223e-05
8.90015437694e-06
6.06482859134e-05
7.038290794e-06
6.05531918141e-05
5.37797045591e-06
6.04029575902e-05
4.0022203516e-06
6.02479174251e-05
2.914969147e-06
6.01107922274e-05
2.08393511073e-06
5.99990330277e-05
1.46463868102e-06
5.99125181674e-05
1.01253686758e-06
5.98479265786e-05
6.8831930326e-07
5.98010233023e-05
4.59580917059e-07
5.9767738926e-05
3.00735535367e-07
5.97445978279e-05
1.921835781e-07
5.97288195225e-05
1.19255348165e-07
5.97182715969e-05
7.11787094811e-08
5.9711365613e-05
4.01742106855e-08
5.97069464574e-05
2.07104730885e-08
5.97042127378e-05
8.91720593046e-09
5.97026038671e-05
2.12507111748e-09
5.97016994747e-05
-1.51840919599e-09
5.97012412988e-05
-3.22731206087e-09
5.97010518735e-05
-3.79281656257e-09
5.97010156657e-05
-3.72605856757e-09
5.9701060016e-05
-3.34437169486e-09
5.97011412066e-05
-2.83734159276e-09
5.97012335684e-05
-2.3130990177e-09
5.97013232259e-05
-1.82821474432e-09
5.97014035646e-05
-1.40801813883e-09
5.97014731628e-05
-1.06058953077e-09
5.97015326222e-05
-7.83325210763e-10
5.97015827506e-05
-5.63861774453e-10
5.97016224391e-05
-3.92614829121e-10
5.97016501167e-05
-2.62298922173e-10
5.97016653027e-05
-1.65589792581e-10
5.97016635935e-05
-9.05229202913e-11
5.97016555181e-05
-2.9273486247e-11
5.97016489059e-05
6.66180580747e-12
5.97016396613e-05
3.73943677275e-11
5.97016292467e-05
5.96965731772e-11
5.9701617652e-05
7.73846593889e-11
5.97016038059e-05
9.34803459319e-11
5.97015875502e-05
1.08237065969e-10
5.97015689305e-05
1.22051030631e-10
5.9701547893e-05
1.3513178754e-10
5.97015245998e-05
1.47444898752e-10
5.97015020588e-05
1.58715248968e-10
5.97014802428e-05
1.68202574935e-10
5.97014604011e-05
1.74613775161e-10
5.97014442147e-05
1.7605248747e-10
5.97014332965e-05
1.6999347024e-10
5.97014269928e-05
1.53533320268e-10
5.97014174055e-05
1.24416107982e-10
5.97014209835e-05
5.94247990889e-11
5.9701432144e-05
-5.20685358614e-11
5.97015122445e-05
-2.71159511244e-10
5.97016983644e-05
-6.2077934861e-10
5.97019956829e-05
-1.14179049337e-09
5.97023794212e-05
-1.94695452227e-09
5.97029537397e-05
-3.14745877069e-09
5.97038011591e-05
-4.95014030126e-09
5.97050354634e-05
-7.6793952171e-09
5.97068214477e-05
-1.1834894956e-08
5.9709396898e-05
-1.81954379598e-08
5.97131053974e-05
-2.79811120833e-08
5.97184360718e-05
-4.31137445653e-08
5.97260689906e-05
-6.66450249196e-08
5.97369050175e-05
-1.03444490382e-07
5.97520056972e-05
-1.61300017552e-07
5.97722072848e-05
-2.52649526473e-07
5.97969166101e-05
-3.97298346717e-07
5.98209751851e-05
-6.26162657785e-07
5.98275049987e-05
-9.85442119167e-07
5.97744594911e-05
-1.53751374838e-06
5.95739038981e-05
-2.35041309812e-06
5.90679835365e-05
-3.46839358529e-06
-4.7987861198e-06
5.80964163212e-05
5.14373056179e-05
2.75268297312e-06
5.42658212616e-05
6.98138551856e-06
5.72496443051e-05
9.13182298705e-06
5.97900290285e-05
9.52529773517e-06
6.17201298761e-05
8.80246978584e-06
6.308830518e-05
7.53197943655e-06
6.40167190863e-05
6.10987723994e-06
6.46292392248e-05
4.76545066166e-06
6.502580652e-05
3.60565339546e-06
6.52790814273e-05
2.66169457275e-06
6.54389768013e-05
1.92404006162e-06
6.55386939521e-05
1.36492184681e-06
6.5599932807e-05
9.51298319989e-07
6.56367479378e-05
6.51504469911e-07
6.56581993503e-05
4.38129789543e-07
6.56701078821e-05
2.88827275735e-07
6.56761974253e-05
1.86094292412e-07
6.56788340314e-05
1.16618982555e-07
6.5679504763e-05
7.05082028434e-08
6.56791288442e-05
4.05503404218e-08
6.56782617269e-05
2.15777870569e-08
6.56772310766e-05
9.94803709037e-09
6.56762220788e-05
3.13423428877e-09
6.56753130277e-05
-6.09209144938e-10
6.56745445503e-05
-2.45870209393e-09
6.56739163898e-05
-3.1645394225e-09
6.56734176726e-05
-3.22723866497e-09
6.5673030932e-05
-2.95754442957e-09
6.5672737182e-05
-2.54351853311e-09
6.56725182593e-05
-2.09411548523e-09
6.56723580524e-05
-1.66795950446e-09
6.56722428893e-05
-1.29281867674e-09
6.56721606346e-05
-9.78308836413e-10
6.56721006709e-05
-7.23346383114e-10
6.56720572258e-05
-5.2041268347e-10
6.56720260691e-05
-3.61464152451e-10
6.56720010717e-05
-2.37316011523e-10
6.56719795661e-05
-1.44102496145e-10
6.56719646746e-05
-7.56522972186e-11
6.56719629758e-05
-2.75968493529e-11
6.5671961475e-05
8.1408850452e-12
6.56719541342e-05
4.47004340121e-11
6.56719440782e-05
6.97113587163e-11
6.56719315822e-05
8.98385899256e-11
6.56719175256e-05
1.07493771403e-10
6.56719019256e-05
1.23789256924e-10
6.56718846267e-05
1.39289226028e-10
6.56718655565e-05
1.54123251571e-10
6.56718452717e-05
1.67637470371e-10
6.56718257766e-05
1.78103255835e-10
6.56718059554e-05
1.87894927997e-10
6.56717863392e-05
1.94071410762e-10
6.56717680437e-05
1.94156014197e-10
6.56717529365e-05
1.84866637146e-10
6.56717446758e-05
1.61525657289e-10
6.56717506824e-05
1.18084595449e-10
6.56717573598e-05
5.23664937392e-11
6.56717870367e-05
-8.21853203202e-11
6.56718539575e-05
-3.38576389684e-10
6.56719499372e-05
-7.17299156048e-10
6.56720976901e-05
-1.29011052975e-09
6.56723039586e-05
-2.15380868244e-09
6.56725851364e-05
-3.42920961498e-09
6.56729577012e-05
-5.323253909e-09
6.56734324519e-05
-8.15464086526e-09
6.56740068192e-05
-1.2409676732e-08
6.56746504803e-05
-1.88394116162e-08
6.56752774638e-05
-2.86082884814e-08
6.56756862142e-05
-4.35225726226e-08
6.56754485434e-05
-6.64073415998e-08
6.56736949515e-05
-1.01690787078e-07
6.56686906145e-05
-1.56295434421e-07
6.56568997067e-05
-2.40858270712e-07
6.56311919379e-05
-3.71590224006e-07
6.55774143729e-05
-5.72384678792e-07
6.54683316059e-05
-8.76358725725e-07
6.52547723342e-05
-1.32395384684e-06
6.48566834374e-05
-1.95232363005e-06
6.41615825049e-05
-2.77329185364e-06
-3.71644461391e-06
6.30792414978e-05
5.1085042609e-05
1.66764059558e-06
5.36118452465e-05
4.45458330083e-06
5.66873175485e-05
6.05635105319e-06
5.96894479379e-05
6.52316771335e-06
6.2299728915e-05
6.19218916549e-06
6.44136908522e-05
5.41801786032e-06
6.60471873665e-05
4.47638107873e-06
6.7268619287e-05
3.54401908726e-06
6.81598987059e-05
2.71437431717e-06
6.87977656979e-05
2.02382791406e-06
6.92467504815e-05
1.47505560328e-06
6.95579697379e-05
1.05370290731e-06
6.97704368519e-05
7.38831511662e-07
6.99131803746e-05
5.08761242609e-07
7.000739197e-05
3.43918477117e-07
7.00683020503e-05
2.27917465444e-07
7.01067046205e-05
1.47691979654e-07
7.01301474742e-05
9.31763698691e-08
7.01438371463e-05
5.68187548212e-08
7.01513137835e-05
3.30739117592e-08
7.0154946781e-05
1.79449851274e-08
7.01562950618e-05
8.59993817963e-09
7.015636743e-05
3.06203262072e-09
7.01557758283e-05
-1.74593748496e-11
7.01549153824e-05
-1.59812479371e-09
7.0153992171e-05
-2.24121417501e-09
7.01531239102e-05
-2.35887763139e-09
7.01523642577e-05
-2.19780714645e-09
7.01517304206e-05
-1.90961117294e-09
7.01512195462e-05
-1.58318136543e-09
7.01508187064e-05
-1.26706927863e-09
7.01505109468e-05
-9.85021401218e-10
7.01502786292e-05
-7.45968303193e-10
7.0150105589e-05
-5.50295720502e-10
7.01499788337e-05
-3.93657663097e-10
7.01498877175e-05
-2.7035520385e-10
7.0149825144e-05
-1.74755023061e-10
7.014978366e-05
-1.02635844875e-10
7.01497551922e-05
-4.72082207313e-11
7.01497252857e-05
2.28110425938e-12
7.01497019758e-05
3.14219306408e-11
7.01496890322e-05
5.76147463732e-11
7.01496786011e-05
8.01009191684e-11
7.0149668763e-05
9.96314689891e-11
7.0149658765e-05
1.17445577877e-10
7.01496482254e-05
1.34279581187e-10
7.01496370028e-05
1.50453149125e-10
7.01496251264e-05
1.65925270908e-10
7.01496123601e-05
1.80310756118e-10
7.01495973603e-05
1.92995656828e-10
7.01495820716e-05
2.03060000253e-10
7.01495672782e-05
2.08715573524e-10
7.01495537269e-05
2.07520656597e-10
7.01495420146e-05
1.96349825846e-10
7.0149531756e-05
1.71502679672e-10
7.0149520404e-05
1.29110391129e-10
7.01495107695e-05
6.1622651194e-11
7.01495009307e-05
-7.27960705091e-11
7.01495087478e-05
-3.46899203992e-10
7.01495291936e-05
-7.38297893597e-10
7.01495497796e-05
-1.31126644963e-09
7.01495485865e-05
-2.15319172765e-09
7.01494985902e-05
-3.37978026032e-09
7.01493463871e-05
-5.17159139752e-09
7.01489928353e-05
-7.80157279433e-09
7.01482624559e-05
-1.16796995738e-08
7.0146853478e-05
-1.7430730386e-08
7.01442537921e-05
-2.60087841813e-08
7.0139588168e-05
-3.88570406352e-08
7.0131374386e-05
-5.81935858649e-08
7.01171227801e-05
-8.74391214652e-08
7.00926768215e-05
-1.31849277382e-07
7.00509438612e-05
-1.99124976499e-07
6.99799471009e-05
-3.00593052385e-07
6.98597168939e-05
-4.52154028885e-07
6.96578032627e-05
-6.74444481651e-07
6.93242841282e-05
-9.90434046567e-07
6.87895960372e-05
-1.41763495496e-06
6.79711276142e-05
-1.95482266067e-06
-2.55607108091e-06
6.68107546502e-05
5.08804134426e-05
7.87227381416e-07
5.31704668719e-05
2.16453029131e-06
5.62177508104e-05
3.00906748218e-06
5.94382711907e-05
3.30264770061e-06
6.24449713694e-05
3.18548934253e-06
6.50382551496e-05
2.82473443752e-06
6.71548690733e-05
2.35976750705e-06
6.88135679151e-05
1.88532059279e-06
7.0073174257e-05
1.45476831668e-06
7.10056715532e-05
1.09133095114e-06
7.1681268172e-05
7.99459309676e-07
7.21614278506e-05
5.735435458e-07
7.24966090953e-05
4.03650573582e-07
7.27264859617e-05
2.78884671572e-07
7.28812851662e-05
1.89119555407e-07
7.29834752204e-05
1.25727679946e-07
7.3049419298e-05
8.17481589282e-08
7.30908216952e-05
5.17742153317e-08
7.31159159211e-05
3.17247550232e-08
7.31304007098e-05
1.85893325244e-08
7.31381556872e-05
1.01902025475e-08
7.31417763698e-05
4.97943727962e-09
7.31429643022e-05
1.87426687703e-09
7.31428181404e-05
1.28852275599e-10
7.31419951034e-05
-7.74955760833e-10
7.31409123767e-05
-1.15837270257e-09
7.31397976724e-05
-1.24407292298e-09
7.31387703973e-05
-1.17044430778e-09
7.31378830062e-05
-1.02214683487e-09
7.31371494122e-05
-8.49527322656e-10
7.31365622349e-05
-6.79841309177e-10
7.31361040843e-05
-5.26831123519e-10
7.31357540908e-05
-3.95948229765e-10
7.31354916259e-05
-2.87818649463e-10
7.31352983518e-05
-2.00381313445e-10
7.31351586417e-05
-1.30651513568e-10
7.31350592453e-05
-7.53690137188e-11
7.31349876354e-05
-3.10392973383e-11
7.31349345035e-05
5.90482518829e-12
7.31349047569e-05
3.19999186885e-11
7.31348816461e-05
5.44986087625e-11
7.31348648449e-05
7.43831709093e-11
7.31348524815e-05
9.24282305259e-11
7.31348427522e-05
1.09320162731e-10
7.31348343862e-05
1.25764872454e-10
7.31348264973e-05
1.42116163757e-10
7.3134818466e-05
1.58422799329e-10
7.31348098598e-05
1.74455255287e-10
7.31348004094e-05
1.89665556739e-10
7.31347900761e-05
2.03215177302e-10
7.3134778915e-05
2.14089916739e-10
7.3134766987e-05
2.20493413392e-10
7.31347543957e-05
2.19924075918e-10
7.31347413602e-05
2.09154859142e-10
7.31347283961e-05
1.84184458863e-10
7.31347165296e-05
1.40643967935e-10
7.31347012968e-05
7.64665225051e-11
7.31346769023e-05
-4.88503519059e-11
7.31346340256e-05
-3.04534782408e-10
7.31345663561e-05
-6.71186753487e-10
7.31344503584e-05
-1.19584199778e-09
7.31342426406e-05
-1.94604349286e-09
7.3133875005e-05
-3.01269982579e-09
7.31332323698e-05
-4.52947691958e-09
7.31321215547e-05
-6.69122344742e-09
7.31302203262e-05
-9.77886384218e-09
7.31270013601e-05
-1.421205228e-08
7.31216087988e-05
-2.06163961256e-08
7.31126282933e-05
-2.98766236335e-08
7.30977537268e-05
-4.33190600243e-08
7.30732771401e-05
-6.29624985467e-08
7.30332972853e-05
-9.18692390066e-08
7.2968294139e-05
-1.34121488234e-07
7.2863241695e-05
-1.95540228017e-07
7.26949605329e-05
-2.8387243993e-07
7.24289293387e-05
-4.08412704616e-07
7.2016753182e-05
-5.78257217701e-07
7.13971827333e-05
-7.98063901085e-07
7.05045886569e-05
-1.06222786032e-06
-1.34571553148e-06
6.92942337228e-05
5.07871728506e-05
5.47564324373e-11
5.29516505486e-05
5.30090290087e-11
5.59606895446e-05
2.88534623941e-11
5.92633233726e-05
1.42407630955e-11
6.24488102691e-05
2.80458266839e-12
6.52735511243e-05
-6.05763314749e-12
6.76333309377e-05
-1.19533904684e-11
6.95186667722e-05
-1.48930785845e-11
7.09734507522e-05
-1.53201479921e-11
7.20647958712e-05
-1.3833264947e-11
7.28642665718e-05
-1.10650523436e-11
7.3437818104e-05
-7.66931556892e-12
7.38414732917e-05
-4.30597632189e-12
7.41203598807e-05
-1.62007384106e-12
7.43094799149e-05
-1.94944908934e-13
7.44352083003e-05
-4.36816599034e-13
7.45169593062e-05
-2.5925012109e-12
7.45687401826e-05
-6.41961462095e-12
7.46004764453e-05
-1.12796397394e-11
7.46190821818e-05
-1.61906941377e-11
7.46292926042e-05
-2.00223397422e-11
7.46342939028e-05
-2.16793469893e-11
7.46361890333e-05
-2.06965813001e-11
7.46363363895e-05
-1.83535909379e-11
7.46355773927e-05
-1.58249811234e-11
7.46344318118e-05
-1.26749093732e-11
7.46331969127e-05
-9.07326419238e-12
7.4632031647e-05
-5.09168330406e-12
7.46310098151e-05
-2.38995135012e-13
7.46301565078e-05
3.84472781593e-12
7.46294682063e-05
8.51408475562e-12
7.46289279187e-05
1.34977080607e-11
7.46285132445e-05
1.87528386734e-11
7.46282010955e-05
2.43410720232e-11
7.46279702663e-05
3.04462973623e-11
7.4627802414e-05
3.71924080647e-11
7.46276823737e-05
4.4661382255e-11
7.46275984875e-05
5.28345112762e-11
7.46275426371e-05
6.17390742756e-11
7.46275036012e-05
7.10073758089e-11
7.46274774461e-05
8.06144551651e-11
7.46274603201e-05
9.14692009813e-11
7.46274492357e-05
1.03473409482e-10
7.46274419601e-05
1.16554965491e-10
7.46274369523e-05
1.30724254722e-10
7.46274331382e-05
1.45869729354e-10
7.46274297647e-05
1.61726514536e-10
7.46274262914e-05
1.7785201458e-10
7.4627422289e-05
1.93580239941e-10
7.46274174027e-05
2.07993801374e-10
7.4627411449e-05
2.19912818632e-10
7.46274042052e-05
2.27577285855e-10
7.46273952958e-05
2.28645097973e-10
7.4627384055e-05
2.20168511186e-10
7.46273693138e-05
1.98645082994e-10
7.46273493321e-05
1.60285510868e-10
7.46273232269e-05
1.02173076789e-10
7.46272779767e-05
-4.05739140204e-12
7.46271891066e-05
-2.16179903414e-10
7.46270524553e-05
-5.35092076324e-10
7.4626828743e-05
-9.72694133891e-10
7.4626457104e-05
-1.57496195818e-09
7.46258410684e-05
-2.39720151635e-09
7.46248237786e-05
-3.51269601544e-09
7.46231500709e-05
-5.01798103159e-09
7.46204027763e-05
-7.03195763989e-09
7.4615916005e-05
-9.72555877806e-09
7.46086311621e-05
-1.33317113021e-08
7.45968095214e-05
-1.80550490672e-08
7.45776489073e-05
-2.41584586846e-08
7.45467340499e-05
-3.20475895394e-08
7.44973317367e-05
-4.24668172743e-08
7.4418698295e-05
-5.54877425914e-08
7.42944299156e-05
-7.12714564807e-08
7.41001376964e-05
-8.95798074327e-08
7.38009875067e-05
-1.09261971411e-07
7.33502892205e-05
-1.27558286185e-07
7.26915238761e-05
-1.3929793049e-07
7.17665898815e-05
-1.37293192354e-07
-1.13045631984e-07
7.05339205437e-05
5.07871718153e-05
-7.87116832469e-07
5.2951649691e-05