/*--------------------------------*- C++ -*----------------------------------*\
| =========                 |                                                 |
| \\      /  F ield         | OpenFOAM: The Open Source CFD Toolbox           |
|  \\    /   O peration     | Version:  2106                                  |
|   \\  /    A nd           | Website:  www.openfoam.com                      |
|    \\/     M anipulation  |                                                 |
\*---------------------------------------------------------------------------*/
FoamFile
{
    version     2.0;
    format      ascii;
    arch        "LSB;label=32;scalar=64";
    class       volVectorField;
    location    "0.295";
    object      U;
}
// * * * * * * * * * * * * * * * * * * * * * * * * * * * * * * * * * * * * * //

dimensions      [0 1 -1 0 0 0 0];

internalField   nonuniform List<vector> 
11200
(
(0.662462405599 0.150569441737 0)
(0.558948682748 0.103243388356 0)
(0.383850757337 0.0513512245105 0)
(0.283747624599 0.0248708556307 0)
(0.232075308978 0.0124170455735 0)
(0.201908635368 0.00662281712321 0)
(0.183197991321 0.00380291462826 0)
(0.171276556302 0.00231587022616 0)
(0.163510382884 0.00146450668834 0)
(0.158388854505 0.000944892537253 0)
(0.155006723496 0.00061517702304 0)
(0.152786775533 0.000402233953722 0)
(0.151346631821 0.000264232389204 0)
(0.150428400639 0.000175250341988 0)
(0.149856801687 0.00011836088601 0)
(0.149512605164 8.21602096307e-05 0)
(0.149315048899 5.88661163477e-05 0)
(0.149209690576 4.33158401909e-05 0)
(0.149159833728 3.29345394853e-05 0)
(0.149142595064 2.81863350739e-05 0)
(0.149144750454 2.76844029403e-05 0)
(0.149157024037 2.98899979572e-05 0)
(0.149172642271 3.30504115829e-05 0)
(0.149188185308 3.59660950256e-05 0)
(0.149202388757 3.8601695807e-05 0)
(0.149214652731 4.10408526673e-05 0)
(0.149224809581 4.33181966579e-05 0)
(0.149232966192 4.54648692684e-05 0)
(0.149239359244 4.75201464623e-05 0)
(0.149244270746 4.95310960065e-05 0)
(0.149247985753 5.15597833217e-05 0)
(0.149250771659 5.36972232496e-05 0)
(0.149252825538 5.60258903408e-05 0)
(0.149254317581 5.84073014836e-05 0)
(0.149255380312 6.0768365024e-05 0)
(0.149256100244 6.30895042817e-05 0)
(0.14925657428 6.53809788152e-05 0)
(0.149256886052 6.76557091528e-05 0)
(0.149257089222 6.99252973063e-05 0)
(0.14925721303 7.21958655148e-05 0)
(0.149257278523 7.44685043572e-05 0)
(0.149257303031 7.6744165143e-05 0)
(0.149257298731 7.90225390429e-05 0)
(0.14925727443 8.13024767653e-05 0)
(0.149257236405 8.35822490117e-05 0)
(0.149257189296 8.58595324139e-05 0)
(0.149257137132 8.81315430471e-05 0)
(0.149257083903 9.03952199141e-05 0)
(0.149257034013 9.26474676202e-05 0)
(0.149256992541 9.48853091846e-05 0)
(0.149256966289 9.71056308965e-05 0)
(0.149256964921 9.930551016e-05 0)
(0.149257001638 0.000101481958255 0)
(0.149257094622 0.000103631603397 0)
(0.149257269425 0.000105750154842 0)
(0.14925756223 0.000107831969631 0)
(0.149258023834 0.000109870021977 0)
(0.149258729026 0.000111854407544 0)
(0.149259787286 0.000113772454597 0)
(0.149261356656 0.000115599422456 0)
(0.149263683109 0.000117279752896 0)
(0.149267174776 0.000118729158692 0)
(0.149272301634 0.000119987275933 0)
(0.149279710273 0.00012124620661 0)
(0.149290432846 0.00012296757836 0)
(0.149305990119 0.000125338520096 0)
(0.149328767888 0.000128118796553 0)
(0.149362461483 0.000131081210057 0)
(0.149412663897 0.000134010099515 0)
(0.149487606049 0.000136791360702 0)
(0.149599226966 0.000140699958263 0)
(0.149770357139 0.000151556553317 0)
(0.150038768459 0.000172288760066 0)
(0.15046763077 0.000202552005375 0)
(0.151192758239 0.000232491272525 0)
(0.152491838544 0.000191687503414 0)
(0.155021115566 -0.00021683634281 0)
(0.162375179483 -0.00211059603448 0)
(0.187706768818 -0.0107909605098 0)
(0.204376346091 -0.0496721484769 0)
(0.965408256905 0.28921470601 0)
(0.96196287075 0.252656040577 0)
(0.823574413756 0.159021442795 0)
(0.698139399424 0.0959957326412 0)
(0.610225502507 0.0582481156126 0)
(0.548971537977 0.0362148546389 0)
(0.506588942028 0.0231612865113 0)
(0.477567328187 0.0151375166538 0)
(0.45774555641 0.0100177564719 0)
(0.44422853042 0.00665814248139 0)
(0.435053373009 0.00441555758637 0)
(0.428873197074 0.00290686714346 0)
(0.424754284948 0.0018910596516 0)
(0.422046738839 0.00121004648681 0)
(0.420297905307 0.000757164474886 0)
(0.419193299593 0.000459256836979 0)
(0.418515697615 0.000265855669331 0)
(0.418116553635 0.000142400411245 0)
(0.417895953026 6.61101932844e-05 0)
(0.417786904723 2.30929518712e-05 0)
(0.417745492123 1.40819366956e-06 0)
(0.417742216821 -1.01621952764e-05 0)
(0.41775681691 -1.37135305041e-05 0)
(0.417778777747 -1.32668755508e-05 0)
(0.417803074137 -1.08345391033e-05 0)
(0.417826446824 -7.49138694141e-06 0)
(0.417847202474 -3.87498629558e-06 0)
(0.417864742391 -3.55429168766e-07 0)
(0.417879070447 2.86582780857e-06 0)
(0.417890502065 5.68489011162e-06 0)
(0.417899509079 8.03740120769e-06 0)
(0.417906584652 9.83890185052e-06 0)
(0.417911930787 1.10075468297e-05 0)
(0.417915781656 1.1859998058e-05 0)
(0.417918514938 1.26820891545e-05 0)
(0.417920405559 1.34390942839e-05 0)
(0.417921695921 1.41131092015e-05 0)
(0.417922577391 1.47284307317e-05 0)
(0.417923176181 1.53140249387e-05 0)
(0.417923563938 1.58834548115e-05 0)
(0.417923793453 1.64371248545e-05 0)
(0.417923908158 1.69800975015e-05 0)
(0.417923938746 1.75160144851e-05 0)
(0.417923907725 1.80481852805e-05 0)
(0.417923831304 1.85797419621e-05 0)
(0.417923721533 1.91130701791e-05 0)
(0.417923588796 1.96501302024e-05 0)
(0.417923443501 2.01928046625e-05 0)
(0.417923297291 2.07432463605e-05 0)
(0.417923163614 2.13034812729e-05 0)
(0.417923060317 2.18735763983e-05 0)
(0.417923012273 2.24536342163e-05 0)
(0.417923053144 2.30436509705e-05 0)
(0.417923229127 2.36432245169e-05 0)
(0.41792360506 2.42515341909e-05 0)
(0.417924273443 2.48676676289e-05 0)
(0.417925365178 2.54896656115e-05 0)
(0.417927072991 2.61054046079e-05 0)
(0.417929674487 2.66974988935e-05 0)
(0.417933558784 2.72352190142e-05 0)
(0.417939325969 2.76701827795e-05 0)
(0.417948073408 2.79503297589e-05 0)
(0.417961290878 2.82357395076e-05 0)
(0.417981114485 2.77882146422e-05 0)
(0.418010312227 2.51947860716e-05 0)
(0.418052490256 1.93766414541e-05 0)
(0.418113831104 9.52828752128e-06 0)
(0.418204452346 -5.88152039145e-06 0)
(0.418339954969 -2.9376164226e-05 0)
(0.418545232699 -6.46370211275e-05 0)
(0.418862182112 -0.000115859316355 0)
(0.419360412374 -0.000188018495618 0)
(0.420153410021 -0.000307807732641 0)
(0.421444865191 -0.000532815197751 0)
(0.423626505174 -0.000999897716784 0)
(0.427417197185 -0.00209084255759 0)
(0.43423947854 -0.00485746823258 0)
(0.448269207086 -0.0122570838233 0)
(0.474655912324 -0.0342507104509 0)
(0.478193579672 -0.0987981431051 0)
(1.02222096825 0.238416187381 0)
(1.08213754197 0.295926653703 0)
(1.03447725035 0.239503067901 0)
(0.954615443176 0.174290166228 0)
(0.879992099211 0.121345470285 0)
(0.818614488415 0.0830993860721 0)
(0.771410912319 0.0567316691314 0)
(0.736634461101 0.0387409705696 0)
(0.711624511601 0.0264327890708 0)
(0.69391670837 0.0179731067418 0)
(0.681541507084 0.0121424499491 0)
(0.673000222821 0.00812491013111 0)
(0.66718076555 0.00536632288187 0)
(0.663271802903 0.00348444651146 0)
(0.660688638443 0.00221256320557 0)
(0.659014320274 0.00136338345247 0)
(0.657954644885 0.000805245397201 0)
(0.657304356843 0.00044591819281 0)
(0.65692194257 0.000221070085197 0)
(0.656710380739 8.55825290796e-05 0)
(0.656603519634 8.35908303388e-06 0)
(0.65656197314 -3.37182019958e-05 0)
(0.656558074334 -5.68524040175e-05 0)
(0.65657155116 -6.68714360393e-05 0)
(0.656593081448 -6.84788247822e-05 0)
(0.656616901644 -6.55573866271e-05 0)
(0.656639704476 -6.05464552071e-05 0)
(0.656659883109 -5.48567058274e-05 0)
(0.6566768523 -4.92726202017e-05 0)
(0.656690589887 -4.42011683083e-05 0)
(0.656701342319 -3.98372593443e-05 0)
(0.656709494064 -3.62993981587e-05 0)
(0.656715741156 -3.36932559042e-05 0)
(0.656720773769 -3.18545896139e-05 0)
(0.656724635021 -3.0808311277e-05 0)
(0.656727339966 -3.03013897784e-05 0)
(0.656729200809 -3.02461814479e-05 0)
(0.656730497087 -3.05571516315e-05 0)
(0.656731396104 -3.10846384896e-05 0)
(0.656731987803 -3.17463352239e-05 0)
(0.656732346564 -3.25127218286e-05 0)
(0.656732537709 -3.33487186902e-05 0)
(0.656732606393 -3.42298199732e-05 0)
(0.656732586632 -3.51368079219e-05 0)
(0.656732503049 -3.60543049327e-05 0)
(0.65673237403 -3.69715642355e-05 0)
(0.65673221555 -3.78810075324e-05 0)
(0.656732043522 -3.87770984202e-05 0)
(0.656731875049 -3.9655083602e-05 0)
(0.656731728165 -4.05094876217e-05 0)
(0.656731627203 -4.1336786618e-05 0)
(0.656731607767 -4.21329681947e-05 0)
(0.656731718635 -4.28962777833e-05 0)
(0.656732027682 -4.36297851119e-05 0)
(0.656732631378 -4.43466324424e-05 0)
(0.656733666769 -4.50776279765e-05 0)
(0.656735321188 -4.58770095963e-05 0)
(0.656737870603 -4.68401079625e-05 0)
(0.656741723566 -4.8092571291e-05 0)
(0.656747477531 -4.98514638775e-05 0)
(0.656756060685 -5.2622695114e-05 0)
(0.656769120677 -5.74245432833e-05 0)
(0.656787985149 -6.50482278569e-05 0)
(0.656814092981 -7.63654105882e-05 0)
(0.656851272556 -9.30651075926e-05 0)
(0.656906231902 -0.000117548714097 0)
(0.656988355681 -0.000153016946855 0)
(0.657111434389 -0.000204756417665 0)
(0.657297283014 -0.000281288500813 0)
(0.657581296685 -0.000396491823521 0)
(0.658021611582 -0.000574723219334 0)
(0.658707441982 -0.000863260373128 0)
(0.659785876272 -0.00135220466028 0)
(0.661514521774 -0.00221472231464 0)
(0.664335680247 -0.00381345675755 0)
(0.668945367695 -0.00694743217252 0)
(0.676369955328 -0.0133558282753 0)
(0.6886181453 -0.0268510185535 0)
(0.705250336863 -0.0563368878117 0)
(0.700514512231 -0.113124276967 0)
(1.02251475748 0.170807152998 0)
(1.10138976956 0.27649647955 0)
(1.11752428499 0.266664800508 0)
(1.09214663941 0.219901700529 0)
(1.05187819933 0.168168849336 0)
(1.01020827641 0.123567398454 0)
(0.973494750739 0.0888375233883 0)
(0.943864623245 0.0630063734186 0)
(0.921142873712 0.0442232060092 0)
(0.904284153521 0.030742394686 0)
(0.892074956205 0.0211562960605 0)
(0.883404604674 0.0143954704534 0)
(0.877352771298 0.00966795010911 0)
(0.873197814972 0.00639383906684 0)
(0.870393044569 0.00415116663917 0)
(0.868534161786 0.00263449261923 0)
(0.867327770417 0.001624018917 0)
(0.866564372241 0.000962677320868 0)
(0.866096619255 0.000539123543847 0)
(0.865822380928 0.000275154601235 0)
(0.865671540724 0.000117069377716 0)
(0.865595293417 2.87934211234e-05 0)
(0.865564238153 -1.9323586111e-05 0)
(0.86556143247 -4.12597976548e-05 0)
(0.865572778669 -4.76638181385e-05 0)
(0.865589787158 -4.5523153696e-05 0)
(0.865608098935 -3.91536362648e-05 0)
(0.865625440057 -3.11427606133e-05 0)
(0.865640726699 -2.29616525567e-05 0)
(0.865653591844 -1.53778988011e-05 0)
(0.865664067075 -8.7201629419e-06 0)
(0.865672355897 -3.04108975901e-06 0)
(0.865678710599 1.73752895246e-06 0)
(0.865683338805 5.46859648758e-06 0)
(0.865686658663 8.0352008268e-06 0)
(0.865689057112 9.79189519462e-06 0)
(0.865690689088 1.11456253186e-05 0)
(0.86569185116 1.22904979275e-05 0)
(0.865692718649 1.32594868794e-05 0)
(0.865693310167 1.41459812045e-05 0)
(0.865693674013 1.49411990258e-05 0)
(0.865693874671 1.566779721e-05 0)
(0.865693950956 1.63414091215e-05 0)
(0.865693934315 1.69784209317e-05 0)
(0.865693846959 1.75934635261e-05 0)
(0.865693705018 1.81967399498e-05 0)
(0.865693523519 1.87959028595e-05 0)
(0.865693318979 1.93975535777e-05 0)
(0.865693111947 2.00101313835e-05 0)
(0.865692925249 2.06414046544e-05 0)
(0.865692789093 2.12771632085e-05 0)
(0.865692745112 2.19049423007e-05 0)
(0.865692846658 2.25082372212e-05 0)
(0.865693163669 2.30609999518e-05 0)
(0.865693789432 2.35260784243e-05 0)
(0.865694856141 2.38654598832e-05 0)
(0.865696546712 2.40460299192e-05 0)
(0.865699149778 2.39474735478e-05 0)
(0.865703071741 2.34197670112e-05 0)
(0.865708732687 2.20550637672e-05 0)
(0.86571658125 1.92797075012e-05 0)
(0.865728243638 1.44109610485e-05 0)
(0.865746318041 5.61422259646e-06 0)
(0.865773763421 -8.71741714312e-06 0)
(0.865814454562 -3.05805383996e-05 0)
(0.865874307024 -6.3924251367e-05 0)
(0.865962654524 -0.000115623257678 0)
(0.86609400533 -0.000196439649117 0)
(0.866290904993 -0.000323634983569 0)
(0.866588169476 -0.000525688919317 0)
(0.867039402814 -0.000851558171306 0)
(0.86772967821 -0.00138819738607 0)
(0.86879536484 -0.0022844155435 0)
(0.870449759426 -0.0038148752916 0)
(0.873011834509 -0.00650398192395 0)
(0.876880642453 -0.0113614728719 0)
(0.882378947428 -0.0202571143514 0)
(0.889690312055 -0.0364630265883 0)
(0.896370003889 -0.065513986628 0)
(0.886546865879 -0.11008807658 0)
(1.01287875369 0.118961024099 0)
(1.08820671919 0.231806937993 0)
(1.13741369316 0.253106766035 0)
(1.15409089853 0.228992755328 0)
(1.14994214872 0.188368360983 0)
(1.13538470278 0.146579846338 0)
(1.11758900405 0.110150968165 0)
(1.1005950657 0.0808162245895 0)
(1.08612464241 0.058226578833 0)
(1.07459100313 0.0413189873476 0)
(1.06579155265 0.0289160224861 0)
(1.05928808207 0.0199601021506 0)
(1.05459986392 0.0135815622012 0)
(1.05129087255 0.00909744518846 0)
(1.04899996122 0.00598615591416 0)
(1.04744352417 0.00385696834828 0)
(1.04640665646 0.00242159984896 0)
(1.04573074643 0.00147015203517 0)
(1.04530119576 0.000851703839631 0)
(1.04503670275 0.000459018272716 0)
(1.04488034389 0.000216758872696 0)
(1.04479273094 7.30198359232e-05 0)
(1.0447488689 -5.50197377113e-06 0)
(1.0447319725 -4.4006048959e-05 0)
(1.04472972456 -5.93830424643e-05 0)
(1.04473521113 -6.17165828404e-05 0)
(1.04474416142 -5.72429358552e-05 0)
(1.04475404749 -4.98010322696e-05 0)
(1.04476348971 -4.1641965304e-05 0)
(1.04477181797 -3.39866726146e-05 0)
(1.04477878185 -2.74214610061e-05 0)
(1.04478436873 -2.21497768835e-05 0)
(1.0447887247 -1.81266435848e-05 0)
(1.04479206078 -1.51380764564e-05 0)
(1.0447946318 -1.2806730328e-05 0)
(1.04479673148 -1.10103925245e-05 0)
(1.04479847075 -9.52107492226e-06 0)
(1.04479979503 -8.23133231304e-06 0)
(1.04480077469 -7.21258334206e-06 0)
(1.04480146061 -6.54397605343e-06 0)
(1.04480187476 -6.16457113049e-06 0)
(1.04480210405 -5.95597631674e-06 0)
(1.04480219399 -5.86754285722e-06 0)
(1.04480218296 -5.8498784342e-06 0)
(1.04480209577 -5.86266705124e-06 0)
(1.04480195012 -5.8861738532e-06 0)
(1.04480176373 -5.91080297495e-06 0)
(1.04480155796 -5.93275766474e-06 0)
(1.04480135645 -5.95658102224e-06 0)
(1.04480116538 -5.99214709818e-06 0)
(1.04480100169 -6.02322442015e-06 0)
(1.04480091044 -6.04812164609e-06 0)
(1.04480094559 -6.0733171403e-06 0)
(1.04480118111 -6.11359451098e-06 0)
(1.04480173625 -6.20590171717e-06 0)
(1.04480279845 -6.45887179078e-06 0)
(1.0448045543 -7.13752005042e-06 0)
(1.04480728483 -8.51954775652e-06 0)
(1.04481130699 -1.10933114839e-05 0)
(1.04481708803 -1.49169105584e-05 0)
(1.04482564897 -1.9861878839e-05 0)
(1.04483813988 -2.60740238098e-05 0)
(1.04485583272 -3.58488467115e-05 0)
(1.0448810348 -5.2165300151e-05 0)
(1.04491721487 -7.92436415433e-05 0)
(1.04496952066 -0.000123330821687 0)
(1.0450455519 -0.000194197706754 0)
(1.0451566516 -0.000307423600311 0)
(1.04531995915 -0.000488176095167 0)
(1.0455613301 -0.000777486178877 0)
(1.04591943898 -0.0012426887469 0)
(1.04645213966 -0.00199545150889 0)
(1.04724355039 -0.00322636838481 0)
(1.04840663347 -0.00526632495971 0)
(1.05006874353 -0.00869236489012 0)
(1.05228662563 -0.0144986058554 0)
(1.05481641954 -0.0242927950067 0)
(1.05686868117 -0.0403862115357 0)
(1.05573758476 -0.0656206040367 0)
(1.04212474367 -0.0995029459317 0)
(1.00447483716 0.081403998296 0)
(1.06917238399 0.18128854008 0)
(1.13080570793 0.216950420094 0)
(1.17375003421 0.210789157086 0)
(1.19865269135 0.18369007862 0)
(1.21019992862 0.14975168521 0)
(1.21350261497 0.116779146042 0)
(1.21251730645 0.0882206797832 0)
(1.20973105716 0.0650481527197 0)
(1.20651127835 0.0470209105367 0)
(1.20351922301 0.0334068100245 0)
(1.20101154945 0.0233557339137 0)
(1.19903455622 0.0160720151347 0)
(1.19753889154 0.0108795149688 0)
(1.19644143334 0.00723418930916 0)
(1.19565571052 0.00471351977185 0)
(1.19510502025 0.00299763048573 0)
(1.19472661241 0.00184916240671 0)
(1.19447163612 0.00109496213516 0)
(1.19430333006 0.000610613243975 0)
(1.19419469453 0.000307988633389 0)
(1.19412641315 0.000125770781859 0)
(1.19408536617 2.22256808909e-05 0)
(1.19406210969 -3.24491914113e-05 0)
(1.19404981126 -5.72676962906e-05 0)
(1.19404431401 -6.45932911693e-05 0)
(1.19404281719 -6.23713306815e-05 0)
(1.19404350236 -5.55167067495e-05 0)
(1.1940452539 -4.6939787629e-05 0)
(1.19404741367 -3.82540032027e-05 0)
(1.19404960926 -3.02603693994e-05 0)
(1.19405164862 -2.3263835297e-05 0)
(1.19405346267 -1.72879720868e-05 0)
(1.19405504577 -1.22592358158e-05 0)
(1.19405641416 -8.0711618918e-06 0)
(1.19405758705 -4.66975929523e-06 0)
(1.19405853675 -2.05909812647e-06 0)
(1.19405920983 -1.69974142755e-07 0)
(1.19405956621 1.14702744122e-06 0)
(1.19405968192 2.00302899371e-06 0)
(1.19405973794 2.6814389224e-06 0)
(1.19405977063 3.28419951068e-06 0)
(1.19405975384 3.81108640985e-06 0)
(1.19405970426 4.27132519155e-06 0)
(1.19405961741 4.67669549921e-06 0)
(1.19405948407 5.04393950296e-06 0)
(1.1940593068 5.3849864332e-06 0)
(1.19405909206 5.70258403e-06 0)
(1.19405885145 5.98718032288e-06 0)
(1.19405862713 6.22586589419e-06 0)
(1.19405846345 6.44188110404e-06 0)
(1.19405839014 6.62790836166e-06 0)
(1.19405845623 6.75738752371e-06 0)
(1.19405872033 6.7895850679e-06 0)
(1.19405921974 6.66545517373e-06 0)
(1.19405993031 6.29576067482e-06 0)
(1.19406093455 5.52291725512e-06 0)
(1.1940623908 3.97722655176e-06 0)
(1.19406495517 1.2316268189e-06 0)
(1.19406966186 -2.99729179225e-06 0)
(1.19407706587 -9.48450151341e-06 0)
(1.19408709377 -1.96198958996e-05 0)
(1.19410049784 -3.5412517768e-05 0)
(1.19411926782 -5.97776637341e-05 0)
(1.19414553111 -9.72968550896e-05 0)
(1.19418210604 -0.000155285387047 0)
(1.19423297962 -0.000245390170868 0)
(1.19430378034 -0.000386091932042 0)
(1.19440238519 -0.000606853703707 0)
(1.19453956148 -0.000955022161379 0)
(1.19472934681 -0.00150713670357 0)
(1.19498850763 -0.00238751632929 0)
(1.1953318459 -0.00379946286839 0)
(1.19575660593 -0.00607605106843 0)
(1.19620244526 -0.009756379636 0)
(1.19644961052 -0.0156847093423 0)
(1.19591121104 -0.0250727169256 0)
(1.19343249939 -0.0393773710513 0)
(1.18667775269 -0.0598437441106 0)
(1.1701268861 -0.0851646884087 0)
(0.998962328092 0.0544316261395 0)
(1.05310957892 0.133401608841 0)
(1.1162827028 0.170777559585 0)
(1.17301274922 0.175143873512 0)
(1.21791250121 0.159583607968 0)
(1.25049862667 0.13495102187 0)
(1.27288496795 0.108411658699 0)
(1.28776728629 0.0838849737512 0)
(1.29745275321 0.0630565743083 0)
(1.30366083178 0.0462999233281 0)
(1.3075924329 0.0333205167322 0)
(1.3100537987 0.0235495258969 0)
(1.31157373049 0.0163599095905 0)
(1.31249504088 0.0111713168892 0)
(1.31303874134 0.00749150834019 0)
(1.31334684015 0.00492448737857 0)
(1.31351026098 0.00316295647221 0)
(1.31358689752 0.00197475284444 0)
(1.31361328015 0.00118819760472 0)
(1.31361213666 0.000678629781069 0)
(1.31359730484 0.000357008831966 0)
(1.31357698927 0.000160754529803 0)
(1.31355600027 4.64699181418e-05 0)
(1.3135367099 -1.58682940403e-05 0)
(1.31352005683 -4.60565702456e-05 0)
(1.31350637282 -5.70663531519e-05 0)
(1.31349547289 -5.73208735428e-05 0)
(1.31348701994 -5.2082239369e-05 0)
(1.31348062578 -4.45197976986e-05 0)
(1.31347590528 -3.64579792423e-05 0)
(1.31347250738 -2.8869821846e-05 0)
(1.31347012902 -2.22087852415e-05 0)
(1.31346851063 -1.66263256664e-05 0)
(1.31346742392 -1.21299418707e-05 0)
(1.31346670347 -8.65386025619e-06 0)
(1.31346625191 -6.09655240126e-06 0)
(1.31346596801 -4.32083444863e-06 0)
(1.31346576242 -3.1190743135e-06 0)
(1.31346563289 -2.26155025067e-06 0)
(1.31346566502 -1.54431716267e-06 0)
(1.31346582084 -9.68304457478e-07 0)
(1.31346592239 -5.55117829028e-07 0)
(1.31346591896 -1.95540171856e-07 0)
(1.31346584258 1.40234466064e-07 0)
(1.31346571454 4.50223536203e-07 0)
(1.3134655472 7.43032439111e-07 0)
(1.31346534385 1.03056216932e-06 0)
(1.31346510698 1.32352811655e-06 0)
(1.31346484739 1.63296791205e-06 0)
(1.31346459873 1.95926462737e-06 0)
(1.3134643829 2.25286982542e-06 0)
(1.31346420742 2.47604647044e-06 0)
(1.31346410282 2.58463407674e-06 0)
(1.31346412178 2.51476734248e-06 0)
(1.31346435136 2.18003340397e-06 0)
(1.31346491031 1.49071997733e-06 0)
(1.31346577635 3.96663564983e-07 0)
(1.31346702894 -1.28934481354e-06 0)
(1.31346909162 -3.78055191399e-06 0)
(1.31347218993 -7.80433578956e-06 0)
(1.31347652093 -1.46499979573e-05 0)
(1.31348231757 -2.58958451046e-05 0)
(1.31348985286 -4.31313737998e-05 0)
(1.31349961224 -6.95267448646e-05 0)
(1.31351191311 -0.00011010957802 0)
(1.31352683538 -0.000172624384547 0)
(1.31354399579 -0.000269154147073 0)
(1.31356208078 -0.000418651926575 0)
(1.31357789258 -0.000650933508817 0)
(1.31358451336 -0.00101322831992 0)
(1.3135678826 -0.00158056070422 0)
(1.31350055864 -0.00247199180894 0)
(1.31332829357 -0.00387481263551 0)
(1.3129434881 -0.00608148176307 0)
(1.31213611278 -0.00953665532074 0)
(1.31050076077 -0.0148821634969 0)
(1.30728397347 -0.0229467714578 0)
(1.30127590465 -0.0345716852026 0)
(1.2906082953 -0.0501955910429 0)
(1.27180806285 -0.0685936977036 0)
(0.995736076626 0.0346338606657 0)
(1.04179515505 0.0905689222693 0)
(1.10222840982 0.121549566228 0)
(1.16491414952 0.129605835486 0)
(1.22202570657 0.122009270023 0)
(1.26951897359 0.106019940139 0)
(1.30680230096 0.0870975579017 0)
(1.33499542645 0.0686366831115 0)
(1.35574485726 0.0523698411446 0)
(1.37069625997 0.0389256200599 0)
(1.38128285708 0.0282980753995 0)
(1.38866278784 0.0201712790262 0)
(1.39373045261 0.0141175120921 0)
(1.39715673468 0.0097053375308 0)
(1.39943448383 0.00655059661704 0)
(1.40091981291 0.00433445583183 0)
(1.40186636609 0.00280414590046 0)
(1.40245239321 0.00176574391963 0)
(1.40280149712 0.00107419580492 0)
(1.40299820002 0.000623235628098 0)
(1.40309942711 0.0003364098055 0)
(1.40314288613 0.000159623785825 0)
(1.40315315222 5.51650041053e-05 0)
(1.40314566859 -2.99711287678e-06 0)
(1.40312991431 -3.21211530731e-05 0)
(1.40311151733 -4.38883496855e-05 0)
(1.40309348459 -4.5758328395e-05 0)
(1.4030773407 -4.24161987592e-05 0)
(1.40306368721 -3.67253956206e-05 0)
(1.40305259786 -3.03627054826e-05 0)
(1.40304387091 -2.42427675538e-05 0)
(1.40303718093 -1.88126784918e-05 0)
(1.40303216663 -1.4240875153e-05 0)
(1.40302847804 -1.05294736488e-05 0)
(1.40302581724 -7.57783278697e-06 0)
(1.40302395206 -5.26112891791e-06 0)
(1.403022706 -3.45653098995e-06 0)
(1.4030219285 -2.02028896907e-06 0)
(1.40302145403 -8.4770467869e-07 0)
(1.40302108768 8.41756699983e-08 0)
(1.40302076187 7.93451899517e-07 0)
(1.40302055877 1.28318219493e-06 0)
(1.40302046555 1.65527976456e-06 0)
(1.40302039002 1.97505883112e-06 0)
(1.40302029754 2.2799703476e-06 0)
(1.40302018112 2.58810501517e-06 0)
(1.40302003923 2.90879072685e-06 0)
(1.40301987393 3.24672307617e-06 0)
(1.40301968628 3.60276103772e-06 0)
(1.40301946915 3.96658598266e-06 0)
(1.40301923461 4.29688466625e-06 0)
(1.40301901634 4.56229150977e-06 0)
(1.40301884235 4.72465825677e-06 0)
(1.40301873783 4.72651663084e-06 0)
(1.40301872053 4.47977514061e-06 0)
(1.40301879535 3.84187576002e-06 0)
(1.40301896275 2.6088338389e-06 0)
(1.40301924038 6.59723231732e-07 0)
(1.40301984422 -2.3975925436e-06 0)
(1.40302093489 -7.36025892898e-06 0)
(1.40302239154 -1.50183941968e-05 0)
(1.40302388286 -2.66907560205e-05 0)
(1.40302492771 -4.42259158742e-05 0)
(1.40302478033 -7.06047815373e-05 0)
(1.40302194928 -0.0001104139103 0)
(1.40301369079 -0.000170679043834 0)
(1.40299519632 -0.000262275504837 0)
(1.40295827799 -0.000402067516464 0)
(1.40288898255 -0.000616108593587 0)
(1.40276356953 -0.00094501647683 0)
(1.402541996 -0.0014521462417 0)
(1.40215789279 -0.0022359239783 0)
(1.40149964366 -0.00344543760322 0)
(1.40037880795 -0.00530451728556 0)
(1.39848196404 -0.00813614457888 0)
(1.39529573478 -0.0123754113204 0)
(1.39000665924 -0.0185337562283 0)
(1.38146596491 -0.0270496617604 0)
(1.36817656908 -0.0380059847714 0)
(1.34774469583 -0.0505118927636 0)
(0.994011533821 0.0192358068609 0)
(1.03484764703 0.0523338411056 0)
(1.09199264905 0.0723631282696 0)
(1.15662423183 0.0791292329555 0)
(1.22032120532 0.0761045474648 0)
(1.27701950474 0.0673339727743 0)
(1.32424425124 0.0561509050238 0)
(1.3618158083 0.0447990127167 0)
(1.39068539015 0.0345303794921 0)
(1.41226084179 0.0258814344749 0)
(1.42801832231 0.0189465260316 0)
(1.43929894982 0.0135849840515 0)
(1.44722819105 0.00955653607917 0)
(1.4527042545 0.00660011700524 0)
(1.45641908711 0.00447419163586 0)
(1.4588915804 0.00297351468079 0)
(1.46050245272 0.00193276977256 0)
(1.46152585701 0.00122369479533 0)
(1.46215588 0.000749551516824 0)
(1.46252771167 0.000439018734972 0)
(1.46273399537 0.000240522204673 0)
(1.46283714438 0.00011741311692 0)
(1.46287845279 4.40507524265e-05 0)
(1.46288469743 2.69235380814e-06 0)
(1.46287257819 -1.84426032094e-05 0)
(1.46285223158 -2.74362825219e-05 0)
(1.46282968475 -2.94360318466e-05 0)
(1.46280815061 -2.76859830021e-05 0)
(1.46278915696 -2.41839772165e-05 0)
(1.46277324821 -2.01112019449e-05 0)
(1.4627604156 -1.61163227885e-05 0)
(1.46275036475 -1.2522134914e-05 0)
(1.46274268496 -9.45524369998e-06 0)
(1.46273694399 -6.92649720758e-06 0)
(1.46273274317 -4.88216160889e-06 0)
(1.46272974024 -3.25289941232e-06 0)
(1.46272764692 -1.97565041521e-06 0)
(1.46272620631 -1.00929861878e-06 0)
(1.46272520675 -3.08800294947e-07 0)
(1.46272458358 2.13671388014e-07 0)
(1.46272422354 6.95786398002e-07 0)
(1.46272397734 1.17259248e-06 0)
(1.46272381251 1.59802458265e-06 0)
(1.46272368969 1.97890370264e-06 0)
(1.46272357938 2.33638597567e-06 0)
(1.46272346246 2.68388758301e-06 0)
(1.46272332544 3.02684016619e-06 0)
(1.46272315978 3.36331674832e-06 0)
(1.46272296103 3.68389463358e-06 0)
(1.46272272672 3.97634320436e-06 0)
(1.4627224601 4.23279853823e-06 0)
(1.46272216898 4.42169848312e-06 0)
(1.4627218603 4.49220967849e-06 0)
(1.46272154356 4.37447433288e-06 0)
(1.46272123381 3.97760675645e-06 0)
(1.46272095214 3.19109345439e-06 0)
(1.46272068102 1.89386525223e-06 0)
(1.46272032395 -2.1848565767e-08 0)
(1.46271972648 -2.8202036219e-06 0)
(1.46271875883 -7.34426820264e-06 0)
(1.46271716027 -1.43816362775e-05 0)
(1.46271425101 -2.50281897554e-05 0)
(1.46270890803 -4.08255943319e-05 0)
(1.46269932091 -6.41517106493e-05 0)
(1.46268242573 -9.86037367547e-05 0)
(1.46265307492 -0.00014956642284 0)
(1.46260275819 -0.000225227479922 0)
(1.46251771637 -0.000338039157329 0)
(1.4623754606 -0.000506594931061 0)
(1.46213910403 -0.0007593194384 0)
(1.46174867352 -0.00114001411081 0)
(1.46110954287 -0.00171627909404 0)
(1.46007047901 -0.00258385725853 0)
(1.45839034078 -0.00388238120069 0)
(1.45569498241 -0.00580435336823 0)
(1.45141864834 -0.00859307754834 0)
(1.44474039024 -0.0125090061994 0)
(1.43459026008 -0.0177330358883 0)
(1.41970744467 -0.0242140541784 0)
(1.39824399823 -0.0314068697572 0)
(0.993269669795 0.00617015071306 0)
(1.03158101102 0.0171020465077 0)
(1.08672184006 0.0239906492516 0)
(1.15174557628 0.02656066666 0)
(1.21823540436 0.0258180599274 0)
(1.27925779278 0.0230488875086 0)
(1.33140142091 0.0193656330894 0)
(1.37377605844 0.0155468598025 0)
(1.4069106149 0.012044932219 0)
(1.43203322474 0.0090664018238 0)
(1.45060224839 0.00666059685173 0)
(1.4640299656 0.00479009354033 0)
(1.47355027619 0.00337843034884 0)
(1.48017575736 0.00233874015867 0)
(1.48470241932 0.00158891600723 0)
(1.48773634421 0.00105829102743 0)
(1.48972749037 0.000689464894551 0)
(1.49100292879 0.000437640512567 0)
(1.4917960171 0.00026888783082 0)
(1.49227039576 0.000158113202189 0)
(1.49253889554 8.71268192905e-05 0)
(1.4926779796 4.29771721683e-05 0)
(1.49273852032 1.65873680064e-05 0)
(1.49275370107 1.66698065658e-06 0)
(1.49274447046 -6.06566471964e-06 0)
(1.4927236881 -9.41074418885e-06 0)
(1.49269904918 -1.02167277242e-05 0)
(1.49267478174 -9.65327664682e-06 0)
(1.49265298325 -8.43917680549e-06 0)
(1.49263449522 -6.99239887632e-06 0)
(1.4926194403 -5.553145896e-06 0)
(1.49260755627 -4.24145968535e-06 0)
(1.49259841353 -3.10479971648e-06 0)
(1.49259153651 -2.14935860577e-06 0)
(1.49258647124 -1.35896800213e-06 0)
(1.4925828176 -7.11835934117e-07 0)
(1.4925802399 -1.86502085963e-07 0)
(1.49257846828 2.39006546494e-07 0)
(1.49257729686 6.10925228722e-07 0)
(1.49257654795 9.80622714387e-07 0)
(1.49257606796 1.28647849318e-06 0)
(1.49257576501 1.57190477032e-06 0)
(1.49257558157 1.85426868572e-06 0)
(1.49257546502 2.14381337469e-06 0)
(1.4925753761 2.44774428464e-06 0)
(1.49257528842 2.76888158887e-06 0)
(1.49257518343 3.10659676957e-06 0)
(1.49257504787 3.45683715753e-06 0)
(1.49257487172 3.81109520686e-06 0)
(1.49257464649 4.15535176828e-06 0)
(1.49257436651 4.46977875754e-06 0)
(1.49257402794 4.72224182403e-06 0)
(1.49257362438 4.86796983695e-06 0)
(1.4925731442 4.84604637709e-06 0)
(1.49257256639 4.57282580136e-06 0)
(1.49257186303 3.93219558105e-06 0)
(1.49257102112 2.77306092526e-06 0)
(1.4925699086 9.90902836404e-07 0)
(1.49256810126 -1.6341466632e-06 0)
(1.49256529458 -5.70858356619e-06 0)
(1.49256110343 -1.17827228175e-05 0)
(1.4925545064 -2.06239712954e-05 0)
(1.4925438865 -3.33159453332e-05 0)
(1.49252669746 -5.14082047844e-05 0)
(1.492498826 -7.7094506461e-05 0)
(1.49245355905 -0.000113385745234 0)
(1.49238002611 -0.000164671705489 0)
(1.4922611708 -0.000237407467345 0)
(1.49206958935 -0.000340062954426 0)
(1.49176058383 -0.000485219257627 0)
(1.49126189847 -0.000693226015572 0)
(1.49046480746 -0.000997562550757 0)
(1.48919970223 -0.00143053878045 0)
(1.48720049856 -0.00203977439801 0)
(1.48406849859 -0.00288666994654 0)
(1.47922343607 -0.00403874047693 0)
(1.47185775527 -0.00555032479452 0)
(1.46095684477 -0.00742304828236 0)
(1.44537183008 -0.00956306797047 0)
(1.42349069317 -0.0117221176279 0)
(0.993270467597 -0.00616840178348 0)
(1.03158099357 -0.0171003758374 0)
(1.08672177363 -0.0239897614849 0)
(1.15174561377 -0.0265602465662 0)
(1.21823548207 -0.0258179925824 0)
(1.27925789466 -0.0230491093321 0)
(1.3314015468 -0.0193660461044 0)