/*--------------------------------*- C++ -*----------------------------------*\
| =========                 |                                                 |
| \\      /  F ield         | OpenFOAM: The Open Source CFD Toolbox           |
|  \\    /   O peration     | Version:  2106                                  |
|   \\  /    A nd           | Website:  www.openfoam.com                      |
|    \\/     M anipulation  |                                                 |
\*---------------------------------------------------------------------------*/
FoamFile
{
    version     2.0;
    format      ascii;
    arch        "LSB;label=32;scalar=64";
    class       volVectorField;
    location    "0.13";
    object      U;
}
// * * * * * * * * * * * * * * * * * * * * * * * * * * * * * * * * * * * * * //

dimensions      [0 1 -1 0 0 0 0];

internalField   nonuniform List<vector> 
9600
(
(0.675396180582 0.157677436897 0)
(0.563826158303 0.102430807196 0)
(0.381538934767 0.0510646923828 0)
(0.28385319142 0.024458988264 0)
(0.232281027649 0.0119348236842 0)
(0.20190770776 0.00623035861833 0)
(0.183178403631 0.00352192692919 0)
(0.171271978921 0.00212007623925 0)
(0.163512231131 0.00132523648165 0)
(0.158392648978 0.000841456999916 0)
(0.155010686729 0.000534136025223 0)
(0.152789971595 0.000335039485653 0)
(0.151348691272 0.000205520491803 0)
(0.150429257445 0.000121790414489 0)
(0.149856491749 6.84304304081e-05 0)
(0.149511187523 3.51670282829e-05 0)
(0.149312623922 1.50769419481e-05 0)
(0.149206636529 3.48998855656e-06 0)
(0.149157338541 -2.72553612048e-06 0)
(0.149141333391 -5.63579842103e-06 0)
(0.149143743648 -6.557199472e-06 0)
(0.149155290155 -6.45198808933e-06 0)
(0.149170401747 -5.82029767025e-06 0)
(0.149185965217 -4.97055038016e-06 0)
(0.14920034273 -4.08843653788e-06 0)
(0.149212809031 -3.27213092103e-06 0)
(0.14922317229 -2.56487766175e-06 0)
(0.149231528326 -1.97823953082e-06 0)
(0.149238109165 -1.50697271723e-06 0)
(0.149243193808 -1.13781417698e-06 0)
(0.149247059519 -8.5466067089e-07 0)
(0.149249957396 -6.41291154112e-07 0)
(0.149252102145 -4.82822079699e-07 0)
(0.149253670483 -3.66594188624e-07 0)
(0.149254803543 -2.82260460928e-07 0)
(0.149255611478 -2.21533143235e-07 0)
(0.149256179257 -1.77893251884e-07 0)
(0.149256571799 -1.46284631449e-07 0)
(0.149256837975 -1.22814294067e-07 0)
(0.149257014076 -1.04620686081e-07 0)
(0.149257127146 -8.99667624355e-08 0)
(0.149257197287 -7.85933260832e-08 0)
(0.149257238795 -7.18603802788e-08 0)
(0.149257260401 -7.11956005394e-08 0)
(0.149257268737 -7.33740036853e-08 0)
(0.149257269272 -7.74039961582e-08 0)
(0.149257265371 -8.36686735993e-08 0)
(0.149257259433 -9.10926227172e-08 0)
(0.149257252629 -9.9141214116e-08 0)
(0.149257245433 -1.07809720928e-07 0)
(0.149257238173 -1.17063866809e-07 0)
(0.149257230987 -1.2688273465e-07 0)
(0.149257223936 -1.37280113071e-07 0)
(0.149257216901 -1.48307308445e-07 0)
(0.14925720965 -1.5993858428e-07 0)
(0.14925720241 -1.72224422408e-07 0)
(0.149257195613 -1.8541801887e-07 0)
(0.149257189127 -1.99566638792e-07 0)
(0.149257182737 -2.14519281313e-07 0)
(0.149257176656 -2.30384802572e-07 0)
(0.149257171023 -2.47496260982e-07 0)
(0.149257165692 -2.65984881203e-07 0)
(0.149257160493 -2.85900948469e-07 0)
(0.149257155381 -3.07307784522e-07 0)
(0.14925715061 -3.30042652154e-07 0)
(0.149257146603 -3.53920161891e-07 0)
(0.149257143298 -3.78902168642e-07 0)
(0.149257140308 -4.05080490792e-07 0)
(0.149257137539 -4.32806229583e-07 0)
(0.14925713464 -4.62269123806e-07 0)
(0.149257131072 -4.93267456356e-07 0)
(0.149257127112 -5.25933225008e-07 0)
(0.149257123192 -5.60622807253e-07 0)
(0.149257119303 -5.97178592469e-07 0)
(0.14925711536 -6.35346646641e-07 0)
(0.149257110919 -6.75400866805e-07 0)
(0.149257105565 -7.17843262528e-07 0)
(0.149257099505 -7.62741157382e-07 0)
(0.149257092978 -8.09677136573e-07 0)
(0.14925708627 -8.58536988862e-07 0)
(0.149257079782 -9.09988078515e-07 0)
(0.149257073063 -9.64552154007e-07 0)
(0.149257065416 -1.02165249272e-06 0)
(0.149257057588 -1.08078860451e-06 0)
(0.149257050754 -1.14271443609e-06 0)
(0.149257044652 -1.20791972251e-06 0)
(0.149257038811 -1.27566078516e-06 0)
(0.149257033732 -1.34550124098e-06 0)
(0.149257029645 -1.41805719203e-06 0)
(0.149257025923 -1.49387997382e-06 0)
(0.149257021822 -1.57277549114e-06 0)
(0.14925701759 -1.65449343809e-06 0)
(0.149257014484 -1.73928753893e-06 0)
(0.149257012657 -1.82733495285e-06 0)
(0.14925701123 -1.91823754578e-06 0)
(0.149257011351 -2.01172367522e-06 0)
(0.149257015017 -2.1079332317e-06 0)
(0.149257021631 -2.20669159634e-06 0)
(0.14925703007 -2.30764170386e-06 0)
(0.149257041093 -2.41046438428e-06 0)
(0.149257055969 -2.51460475804e-06 0)
(0.14925707652 -2.6202850477e-06 0)
(0.149257105054 -2.72827157633e-06 0)
(0.149257142688 -2.83873171447e-06 0)
(0.14925719064 -2.9515467366e-06 0)
(0.149257252274 -3.06691023971e-06 0)
(0.149257331455 -3.18477599183e-06 0)
(0.149257431135 -3.30459821285e-06 0)
(0.149257555901 -3.42778786192e-06 0)
(0.149257713055 -3.56165307116e-06 0)
(0.149257911837 -3.71591939809e-06 0)
(0.149258159747 -3.88244007923e-06 0)
(0.1492584669 -4.05642091437e-06 0)
(0.149258850627 -4.23903314381e-06 0)
(0.149259330196 -4.4325885783e-06 0)
(0.149259925886 -4.63759373591e-06 0)
(0.149260664461 -4.85500197757e-06 0)
(0.149261581663 -5.08781172092e-06 0)
(0.149262718337 -5.3359681902e-06 0)
(0.149264125121 -5.59982338284e-06 0)
(0.149265869159 -5.88328006037e-06 0)
(0.149268029641 -6.1914241553e-06 0)
(0.149270708739 -6.53580557589e-06 0)
(0.149274056137 -6.95733036052e-06 0)
(0.149278224616 -7.55424294219e-06 0)
(0.149283358466 -8.34383511809e-06 0)
(0.149289681051 -9.26715368739e-06 0)
(0.149297504769 -1.03132111897e-05 0)
(0.149307197025 -1.14877083388e-05 0)
(0.149319200889 -1.28038800669e-05 0)
(0.14933406834 -1.42844757474e-05 0)
(0.149352485799 -1.5960476581e-05 0)
(0.149375298399 -1.78679949048e-05 0)
(0.149403552561 -2.00491662357e-05 0)
(0.149438555635 -2.25606860992e-05 0)
(0.149481932104 -2.5477962711e-05 0)
(0.149535689789 -2.88892570502e-05 0)
(0.149602330239 -3.29068349171e-05 0)
(0.149684968703 -3.76751573544e-05 0)
(0.149787480433 -4.33749711654e-05 0)
(0.149914709764 -5.0238662857e-05 0)
(0.150072712122 -5.85609176795e-05 0)
(0.150269071991 -6.87167993003e-05 0)
(0.150513325832 -8.11871561612e-05 0)
(0.150817503037 -9.65925534232e-05 0)
(0.151196851677 -0.000115742283669 0)
(0.151670789418 -0.00013968280767 0)
(0.15226421534 -0.000169782953481 0)
(0.153009346138 -0.000207865665116 0)
(0.153948266087 -0.000256357042864 0)
(0.155136671972 -0.000318524623045 0)
(0.156649627385 -0.00039893776376 0)
(0.158591190842 -0.00050469582165 0)
(0.161113529211 -0.000649907493019 0)
(0.164462100407 -0.00087309752627 0)
(0.169088800433 -0.00130197335139 0)
(0.175998466514 -0.00239142713784 0)
(0.188177376718 -0.00584783982779 0)
(0.214840686164 -0.0182333281014 0)
(0.273969710165 -0.0643475607725 0)
(0.9772011707 0.296997121767 0)
(0.962687459116 0.250387273089 0)
(0.820646033516 0.158581011232 0)
(0.697824897757 0.0957993455284 0)
(0.610491663197 0.05791327823 0)
(0.549133307924 0.0359038543602 0)
(0.506705976249 0.022930938604 0)
(0.477662005721 0.0149788820626 0)
(0.457815281541 0.00990973453049 0)
(0.444277657368 0.00658331042214 0)
(0.435087212503 0.00436198519322 0)
(0.428895554395 0.00286681989875 0)
(0.424768061518 0.00185970593671 0)
(0.422054295061 0.0011845462582 0)
(0.420301179374 0.000736068765628 0)
(0.419193902605 0.000442096799059 0)
(0.418514966776 0.000252772638137 0)
(0.418115367701 0.00013362334823 0)
(0.417894135751 6.09048461432e-05 0)
(0.417783773328 1.8395882654e-05 0)
(0.41773985223 -4.85070220285e-06 0)
(0.417733706496 -1.62573536772e-05 0)
(0.417747366298 -2.0584274674e-05 0)
(0.417769880483 -2.09138297977e-05 0)
(0.4177948582 -1.91815687769e-05 0)
(0.417818828199 -1.65613455258e-05 0)
(0.417840120117 -1.3730542169e-05 0)
(0.417858129561 -1.10515142888e-05 0)
(0.417872847627 -8.6938955163e-06 0)
(0.417884567693 -6.71399047417e-06 0)
(0.417893709679 -5.10543486312e-06 0)
(0.417900719435 -3.83064208765e-06 0)
(0.417906014889 -2.83962287492e-06 0)
(0.417909961696 -2.08116750822e-06 0)
(0.417912865704 -1.50836424536e-06 0)
(0.417914974772 -1.08057296911e-06 0)
(0.417916485756 -7.64083225079e-07 0)
(0.417917552606 -5.31986350438e-07 0)
(0.417918293647 -3.63262750841e-07 0)
(0.417918798204 -2.41733445215e-07 0)
(0.417919132775 -1.55454721982e-07 0)
(0.417919346254 -9.60094539467e-08 0)
(0.417919474616 -5.7571374902e-08 0)
(0.417919546116 -3.56581385054e-08 0)
(0.417919581117 -2.37579177594e-08 0)
(0.417919591667 -1.71301877362e-08 0)
(0.417919587901 -1.22528517058e-08 0)
(0.417919577323 -1.07922526738e-08 0)
(0.41791956302 -1.19073881453e-08 0)
(0.417919546807 -1.39362797897e-08 0)
(0.417919530149 -1.59991756538e-08 0)
(0.41791951391 -1.82025686198e-08 0)
(0.417919498498 -2.06989117329e-08 0)
(0.417919483823 -2.37174906384e-08 0)
(0.417919469464 -2.7142726106e-08 0)
(0.417919455207 -3.08021445177e-08 0)
(0.417919441293 -3.49041290003e-08 0)
(0.417919427788 -3.9030297962e-08 0)
(0.417919414418 -4.27412036851e-08 0)
(0.417919401065 -4.59031369267e-08 0)
(0.417919387853 -4.88159286981e-08 0)
(0.417919374725 -5.18290011462e-08 0)
(0.417919361309 -5.5051550098e-08 0)
(0.417919347549 -5.83033751289e-08 0)
(0.417919333877 -6.12241697983e-08 0)
(0.417919320646 -6.37964801018e-08 0)
(0.417919307695 -6.6431813358e-08 0)
(0.4179192945 -6.93186021128e-08 0)
(0.417919281009 -7.27036332617e-08 0)
(0.417919267348 -7.68551685045e-08 0)
(0.417919252898 -8.14715348574e-08 0)
(0.417919237175 -8.63980600123e-08 0)
(0.417919220698 -9.17056939671e-08 0)
(0.417919204209 -9.71639227594e-08 0)
(0.417919187563 -1.02657755556e-07 0)
(0.417919169673 -1.08434026833e-07 0)
(0.417919150155 -1.14835496819e-07 0)
(0.417919129933 -1.21817704885e-07 0)
(0.417919109465 -1.28692226794e-07 0)
(0.417919088223 -1.35232277322e-07 0)
(0.41791906597 -1.42459166072e-07 0)
(0.41791904314 -1.51006944062e-07 0)
(0.417919020011 -1.59772391633e-07 0)
(0.417918996372 -1.67865002707e-07 0)
(0.417918972409 -1.76360836685e-07 0)
(0.41791894903 -1.86130037053e-07 0)
(0.417918926995 -1.96186312068e-07 0)
(0.417918906261 -2.05817533043e-07 0)
(0.417918886319 -2.16133293529e-07 0)
(0.417918866772 -2.28190108865e-07 0)
(0.417918847264 -2.41048450215e-07 0)
(0.417918828255 -2.53435804254e-07 0)
(0.417918811607 -2.6616199084e-07 0)
(0.417918798421 -2.80664388992e-07 0)
(0.417918788157 -2.96544786872e-07 0)
(0.417918781689 -3.12957270216e-07 0)
(0.417918781489 -3.30522555256e-07 0)
(0.417918788267 -3.50173913372e-07 0)
(0.417918802337 -3.72917390416e-07 0)
(0.417918826297 -4.00575101975e-07 0)
(0.417918862511 -4.32575237671e-07 0)
(0.417918913159 -4.68615825374e-07 0)
(0.417918982583 -5.09223979013e-07 0)
(0.417919075587 -5.54970686163e-07 0)
(0.417919197013 -6.06556795913e-07 0)
(0.417919354196 -6.6506270827e-07 0)
(0.417919556651 -7.31528794533e-07 0)
(0.417919812868 -8.05113993589e-07 0)
(0.417920129126 -8.83447304062e-07 0)
(0.417920515144 -9.64748923293e-07 0)
(0.417921006015 -1.04351256592e-06 0)
(0.417921636567 -1.13019335052e-06 0)
(0.417922428027 -1.2282399393e-06 0)
(0.417923414944 -1.34253802139e-06 0)
(0.417924645724 -1.48066077593e-06 0)
(0.417926177615 -1.64845795099e-06 0)
(0.417928080197 -1.85347300254e-06 0)
(0.417930444951 -2.10888871239e-06 0)
(0.417933381778 -2.42701971831e-06 0)
(0.417937021398 -2.82009368272e-06 0)
(0.417941532024 -3.30885333498e-06 0)
(0.41794711865 -3.9203066849e-06 0)
(0.417954023284 -4.68719245891e-06 0)
(0.417962540686 -5.66892492213e-06 0)
(0.417973080385 -6.98555042176e-06 0)
(0.417986185579 -8.71503320472e-06 0)
(0.418002469992 -1.08885031066e-05 0)
(0.418022670034 -1.35873951845e-05 0)
(0.418047717858 -1.69296282767e-05 0)
(0.418078760955 -2.10613965534e-05 0)
(0.418117223921 -2.61663711889e-05 0)
(0.418164880707 -3.2477477606e-05 0)
(0.418223929659 -4.02824519037e-05 0)
(0.41829709067 -4.99278387028e-05 0)
(0.418387740369 -6.18472270771e-05 0)
(0.418500078189 -7.65892965725e-05 0)
(0.418639313925 -9.4827289563e-05 0)
(0.418811925156 -0.00011740268697 0)
(0.419025976209 -0.000145374386241 0)
(0.419291504622 -0.000180063365123 0)
(0.419621041941 -0.000223136479296 0)
(0.42003025696 -0.00027670288219 0)
(0.420538778871 -0.00034343976492 0)
(0.421171278031 -0.000426767011054 0)
(0.421958866009 -0.000531083501627 0)
(0.422940977665 -0.000662113024649 0)
(0.424167872495 -0.000827360753403 0)
(0.425704053693 -0.0010367898094 0)
(0.427633129675 -0.00130388641979 0)
(0.430064813216 -0.00164729685972 0)
(0.433145469672 -0.0020936173603 0)
(0.437074909285 -0.00268261525855 0)
(0.442134765852 -0.0034781818522 0)
(0.44874047923 -0.00459455949835 0)
(0.457543679625 -0.00626586886565 0)
(0.46962861936 -0.00903866025961 0)
(0.486880288206 -0.0143081015065 0)
(0.512921324605 -0.0258717479802 0)
(0.554873232891 -0.0544190025704 0)
(0.617655681217 -0.126377770635 0)
(1.03387038808 0.239240958726 0)
(1.08314081457 0.293634381731 0)
(1.03294437449 0.239131936243 0)
(0.954408208583 0.174539018754 0)
(0.880112579736 0.121551466576 0)
(0.818677605739 0.0832335994198 0)
(0.771466779474 0.0568258181606 0)
(0.736691554901 0.0388125788029 0)
(0.711672079718 0.0264913220135 0)
(0.693953109815 0.018023575485 0)
(0.681568192721 0.0121876095525 0)
(0.673018613292 0.00816647700626 0)
(0.667192283607 0.00540551570536 0)
(0.663277864306 0.00352217928321 0)
(0.660690521682 0.00224948464717 0)
(0.659013083013 0.00139984590666 0)
(0.657951060636 0.000841208465717 0)
(0.657298849746 0.000480800697385 0)
(0.65691461329 0.00025378923818 0)
(0.656701800291 0.00011521820555 0)
(0.65659564386 3.42144532032e-05 0)
(0.65655345138 -1.01340224014e-05 0)
(0.656547696383 -3.17554878849e-05 0)
(0.656561044378 -3.98885014198e-05 0)
(0.656582926751 -4.04147591216e-05 0)
(0.656607184649 -3.70229368573e-05 0)
(0.656630470364 -3.19495231641e-05 0)
(0.656651169703 -2.64836222436e-05 0)
(0.656668695296 -2.13146624931e-05 0)
(0.656683034343 -1.67645518283e-05 0)
(0.656694466975 -1.29392102951e-05 0)
(0.656703396637 -9.82577295427e-06 0)
(0.656710252194 -7.35259372131e-06 0)
(0.656715436294 -5.42534135727e-06 0)
(0.656719302031 -3.94728171515e-06 0)
(0.656722145656 -2.82909633449e-06 0)
(0.656724208465 -1.99340854953e-06 0)
(0.656725683012 -1.37634267847e-06 0)
(0.656726720182 -9.26714402548e-07 0)
(0.656727435979 -6.0401537986e-07 0)
(0.656727918496 -3.76669798579e-07 0)
(0.656728234326 -2.2011660587e-07 0)
(0.656728433138 -1.14732552956e-07 0)
(0.6567285516 -4.53390882266e-08 0)
(0.656728616846 -2.27561223133e-09 0)
(0.65672864814 2.23235574917e-08 0)
(0.656728655497 3.59750307773e-08 0)
(0.6567286472 4.42791320781e-08 0)
(0.656728632241 4.99557197184e-08 0)
(0.656728614592 5.24500022211e-08 0)
(0.656728595515 5.2717768995e-08 0)
(0.656728575923 5.22146024662e-08 0)
(0.656728556679 5.1556713319e-08 0)
(0.656728538053 5.14508947421e-08 0)
(0.65672851992 5.24076243984e-08 0)
(0.656728501992 5.49106521899e-08 0)
(0.65672848477 5.88257764896e-08 0)
(0.656728468547 6.3281256815e-08 0)
(0.656728452855 6.81297228021e-08 0)
(0.656728437354 7.34975218374e-08 0)
(0.656728421794 7.93661940592e-08 0)
(0.656728405985 8.55026477653e-08 0)
(0.65672838976 9.17691636158e-08 0)
(0.656728373089 9.84950809588e-08 0)
(0.656728356111 1.06118328532e-07 0)
(0.656728338855 1.14457522335e-07 0)
(0.65672832129 1.23260641238e-07 0)
(0.6567283033 1.32730369036e-07 0)
(0.656728284891 1.42912233904e-07 0)
(0.656728266198 1.53470180311e-07 0)
(0.65672824675 1.64171361906e-07 0)
(0.656728226055 1.75212098305e-07 0)
(0.656728204426 1.87002733689e-07 0)
(0.656728182441 1.99656528164e-07 0)
(0.656728160189 2.12904161094e-07 0)
(0.656728136804 2.26882680724e-07 0)
(0.656728111695 2.42003082286e-07 0)
(0.656728085777 2.58035195218e-07 0)
(0.656728059612 2.74618406013e-07 0)
(0.656728032253 2.91847216742e-07 0)
(0.656728003317 3.09854239138e-07 0)
(0.656727973946 3.28736881798e-07 0)
(0.656727944816 3.48708412042e-07 0)
(0.65672791505 3.69924583347e-07 0)
(0.656727884153 3.92305172066e-07 0)
(0.65672785343 4.15675220508e-07 0)
(0.656727824468 4.40123970957e-07 0)
(0.656727797047 4.65835893838e-07 0)
(0.656727769954 4.92337935233e-07 0)
(0.656727743491 5.18883556603e-07 0)
(0.656727718646 5.46277581277e-07 0)
(0.656727695364 5.76326246163e-07 0)
(0.656727674171 6.08629156143e-07 0)
(0.65672765672 6.40999719567e-07 0)
(0.656727643888 6.73240427803e-07 0)
(0.656727636445 7.06605611715e-07 0)
(0.656727636279 7.40716957958e-07 0)
(0.656727644251 7.75048063731e-07 0)
(0.656727660518 8.10540700873e-07 0)
(0.656727689556 8.48090674486e-07 0)
(0.656727736804 8.85690026441e-07 0)
(0.656727806056 9.22427139573e-07 0)
(0.656727902937 9.57100331723e-07 0)
(0.656728033585 9.87654024567e-07 0)
(0.656728204644 1.01281522141e-06 0)
(0.656728426055 1.03068966944e-06 0)
(0.656728712286 1.03738434968e-06 0)
(0.656729080893 1.0289421582e-06 0)
(0.656729551441 1.00465185664e-06 0)
(0.656730150391 9.67128898804e-07 0)
(0.656730899959 9.19510818517e-07 0)
(0.656731827234 8.42661981062e-07 0)
(0.656732979334 7.24906444531e-07 0)
(0.656734411085 5.55920197146e-07 0)
(0.656736191676 3.19751173287e-07 0)
(0.656738404269 -3.01826403749e-09 0)
(0.656741147531 -4.33706888325e-07 0)
(0.656744548954 -1.00302208607e-06 0)
(0.656748767651 -1.75058257911e-06 0)
(0.656753993976 -2.71914532391e-06 0)
(0.65676046704 -3.96415087739e-06 0)
(0.656768486968 -5.55849341421e-06 0)
(0.656778422732 -7.58593389384e-06 0)
(0.656790724735 -1.01432249441e-05 0)
(0.656805954142 -1.33476976376e-05 0)
(0.656824814036 -1.73761951523e-05 0)
(0.656848164898 -2.24569134482e-05 0)
(0.656877076457 -2.88535888715e-05 0)
(0.656912885497 -3.69002818905e-05 0)
(0.656957239975 -4.70051867598e-05 0)
(0.6570121761 -5.96693110098e-05 0)
(0.657080220041 -7.5518944504e-05 0)
(0.65716450964 -9.53343137981e-05 0)
(0.657268931764 -0.000120077097112 0)
(0.657398301081 -0.00015093863663 0)
(0.657558603373 -0.000189407401988 0)
(0.657757268568 -0.000237332360195 0)
(0.658003523951 -0.000297019249072 0)
(0.658308853716 -0.000371357928669 0)
(0.658687550259 -0.000463960448058 0)
(0.659157433801 -0.00057936624899 0)
(0.659740761404 -0.000723309945661 0)
(0.660465383952 -0.000903062863389 0)
(0.661366252501 -0.00112789998203 0)
(0.662487352949 -0.00140972920717 0)
(0.663884289349 -0.00176399471791 0)
(0.665627728235 -0.00221095288237 0)
(0.667808036213 -0.0027775155236 0)
(0.670541781482 -0.00350009837911 0)
(0.673980992667 -0.00442915523735 0)
(0.678326780258 -0.00563680801298 0)
(0.683850202697 -0.00723061504043 0)
(0.690925245742 -0.00938029020803 0)
(0.700082663012 -0.0123732251712 0)
(0.712099179539 -0.0167365130524 0)
(0.728130262748 -0.0235120309811 0)
(0.749846229077 -0.0348564774967 0)
(0.779520317843 -0.0552744020115 0)
(0.819569770921 -0.0939829177636 0)
(0.866207226154 -0.166853163362 0)
(1.03384128623 0.171306942931 0)
(1.10231584922 0.27555674507 0)
(1.11663620557 0.266312376807 0)
(1.09207924734 0.219892605758 0)
(1.051954196 0.168210321364 0)
(1.01022220629 0.12361534434 0)
(0.973507707435 0.0888850682226 0)
(0.943885933826 0.0630494694397 0)
(0.921162786473 0.0442608014304 0)
(0.904299815717 0.0307744282528 0)
(0.892086142327 0.021182991414 0)
(0.883411267271 0.0144172464268 0)
(0.877355140148 0.00968534792634 0)
(0.873196361702 0.00640743526695 0)
(0.870388309626 0.00416149618822 0)
(0.868526643591 0.00264200065301 0)
(0.867317874032 0.0016290446418 0)
(0.866552404586 0.000965464907204 0)
(0.866082784304 0.000539872560343 0)
(0.865806801777 0.000274078470916 0)
(0.865654672376 0.000113792717588 0)
(0.865579556285 2.18109854452e-05 0)
(0.865550523505 -2.69997466083e-05 0)
(0.865547623273 -4.94380172151e-05 0)
(0.865558358936 -5.64085331523e-05 0)
(0.865575085091 -5.48698579133e-05 0)
(0.865593366889 -4.91436673211e-05 0)
(0.865610807718 -4.18088908401e-05 0)
(0.865626262123 -3.43209288387e-05 0)
(0.865639324439 -2.74315607606e-05 0)
(0.865650002145 -2.14667022595e-05 0)
(0.865658512194 -1.65070330321e-05 0)
(0.865665157885 -1.25019216412e-05 0)
(0.865670258605 -9.3392138953e-06 0)
(0.865674113432 -6.88637596124e-06 0)
(0.865676984608 -5.01275158785e-06 0)
(0.8656790925 -3.6004743225e-06 0)
(0.865680617124 -2.54906535535e-06 0)
(0.865681702505 -1.77601896893e-06 0)
(0.8656824615 -1.21490409878e-06 0)
(0.865682981002 -8.13017175515e-07 0)
(0.865683327342 -5.29597130946e-07 0)
(0.865683550361 -3.33536661656e-07 0)
(0.865683686721 -2.0116287511e-07 0)
(0.865683763431 -1.14952610077e-07 0)
(0.865683800823 -6.19317836873e-08 0)
(0.865683814978 -3.23196272912e-08 0)
(0.865683815677 -1.64999939913e-08 0)
(0.865683805249 -1.21380010276e-08 0)
(0.865683787137 -1.36773472705e-08 0)
(0.86568376656 -1.82795959071e-08 0)
(0.865683745645 -2.39175337421e-08 0)
(0.8656837252 -3.00793260132e-08 0)
(0.865683705565 -3.73900400704e-08 0)
(0.865683686441 -4.59333351175e-08 0)
(0.865683667327 -5.47665590278e-08 0)
(0.865683647536 -6.240601025e-08 0)
(0.86568362713 -6.92243276466e-08 0)
(0.865683606621 -7.57002775304e-08 0)
(0.865683585975 -8.20157856175e-08 0)
(0.865683564994 -8.8142389046e-08 0)
(0.865683543481 -9.40416719905e-08 0)
(0.865683521398 -9.96414535204e-08 0)
(0.865683499047 -1.04844040995e-07 0)
(0.865683476572 -1.09789223827e-07 0)
(0.865683453895 -1.15094107494e-07 0)
(0.865683430988 -1.21242521781e-07 0)
(0.865683407394 -1.2800036255e-07 0)
(0.865683382814 -1.34894806777e-07 0)
(0.865683357416 -1.42186683719e-07 0)
(0.865683330916 -1.50591867094e-07 0)
(0.865683302959 -1.60261959184e-07 0)
(0.865683273746 -1.70754152952e-07 0)
(0.865683243661 -1.81658096169e-07 0)
(0.865683212982 -1.93099287996e-07 0)
(0.865683181256 -2.05084603904e-07 0)
(0.865683147648 -2.17179883697e-07 0)
(0.865683112442 -2.29737064706e-07 0)
(0.865683076302 -2.43714600374e-07 0)
(0.865683038902 -2.58876179074e-07 0)
(0.865682999977 -2.73964581467e-07 0)
(0.865682960298 -2.88629972696e-07 0)
(0.865682920519 -3.03895232252e-07 0)
(0.865682880172 -3.20503362404e-07 0)
(0.865682838839 -3.38138605697e-07 0)
(0.86568279745 -3.56591177325e-07 0)
(0.865682757523 -3.76521949067e-07 0)
(0.865682719086 -3.98519235242e-07 0)
(0.86568268076 -4.2219954403e-07 0)
(0.865682642891 -4.47292853781e-07 0)
(0.865682607502 -4.74081942521e-07 0)
(0.865682574945 -5.02280002509e-07 0)
(0.865682544608 -5.32080860616e-07 0)
(0.86568251799 -5.65188657749e-07 0)
(0.865682497532 -6.02681654706e-07 0)
(0.865682484476 -6.44469256402e-07 0)
(0.865682480577 -6.91261324123e-07 0)
(0.86568248867 -7.43743447132e-07 0)
(0.86568251168 -8.01484589985e-07 0)
(0.865682551595 -8.64130934189e-07 0)
(0.865682611006 -9.33797325982e-07 0)
(0.86568269485 -1.0117362044e-06 0)
(0.865682809654 -1.1004085151e-06 0)
(0.865682963911 -1.20359645276e-06 0)
(0.86568316674 -1.3236971172e-06 0)
(0.865683428482 -1.46269870198e-06 0)
(0.865683763654 -1.62542957101e-06 0)
(0.86568419171 -1.82084956568e-06 0)
(0.865684734599 -2.05843080113e-06 0)
(0.865685417819 -2.34836900017e-06 0)
(0.865686274306 -2.70993257381e-06 0)
(0.865687346925 -3.15444580534e-06 0)
(0.865688687578 -3.69836349761e-06 0)
(0.865690357153 -4.36178529348e-06 0)
(0.865692433758 -5.17345118035e-06 0)
(0.865695015864 -6.17106190069e-06 0)
(0.865698220214 -7.39651234436e-06 0)
(0.865702193044 -8.90335228941e-06 0)
(0.865707120353 -1.07619474349e-05 0)
(0.865713226648 -1.30546469427e-05 0)
(0.865720789242 -1.58818640372e-05 0)
(0.865730158029 -1.93754544615e-05 0)
(0.865741767473 -2.36986823019e-05 0)
(0.865756146781 -2.90535622218e-05 0)
(0.865773949578 -3.5688597836e-05 0)
(0.865795996429 -4.39141387507e-05 0)
(0.865823297545 -5.41046411251e-05 0)
(0.865857097951 -6.67167363134e-05 0)
(0.865898950893 -8.23286230474e-05 0)
(0.865950781212 -0.000101660971562 0)
(0.866014965813 -0.000125606982069 0)
(0.866094449345 -0.000155274499922 0)
(0.866192889837 -0.000192043090271 0)
(0.86631482164 -0.000237629670449 0)
(0.866465858157 -0.000294160804704 0)
(0.866652971976 -0.000364286695072 0)
(0.866884816536 -0.000451310785664 0)
(0.867172128437 -0.0005593489326 0)
(0.867528259893 -0.000693550617452 0)
(0.867969815163 -0.000860361972202 0)
(0.868517463776 -0.0010678780103 0)
(0.869196976086 -0.00132630609054 0)
(0.870040530624 -0.00164856693957 0)
(0.871088402963 -0.0020511128512 0)
(0.872391109555 -0.00255501522203 0)
(0.874012221187 -0.00318749020815 0)
(0.876032081228 -0.00398408063382 0)
(0.878552706274 -0.00499177813966 0)
(0.881704450028 -0.00627374147342 0)
(0.885655167716 -0.00791668494965 0)
(0.890623011428 -0.0100429063555 0)
(0.896894568851 -0.0128309624673 0)
(0.904850432584 -0.0165529933794 0)
(0.915000046351 -0.0216448727474 0)
(0.928024046343 -0.0288417637624 0)
(0.944802003612 -0.0394399461279 0)
(0.966335411336 -0.0557694802872 0)
(0.993386040393 -0.0819089839412 0)
(1.025360801 -0.124411344248 0)
(1.05604675041 -0.191220946922 0)
(1.02388346433 0.119321982357 0)
(1.08875436721 0.231514420744 0)
(1.1366048304 0.252868944815 0)
(1.15406272797 0.228905052451 0)
(1.15000112546 0.188337391983 0)
(1.13537623343 0.146577301155 0)
(1.11757777083 0.110164830209 0)
(1.10059199088 0.080837613818 0)
(1.08612240752 0.0582502016364 0)
(1.07458762017 0.0413417725195 0)
(1.06578681112 0.0289362446243 0)
(1.05928160331 0.0199769419349 0)
(1.05459139945 0.0135947938788 0)
(1.05128039428 0.00910721198226 0)
(1.04898756364 0.00599281542741 0)
(1.04742935859 0.00386099745914 0)
(1.04639090463 0.00242354304517 0)
(1.04571361616 0.00147058367855 0)
(1.04528290946 0.000851183874771 0)
(1.04501750129 0.000458112744069 0)
(1.04486070367 0.000216137904872 0)
(1.04477365177 7.31708101803e-05 0)
(1.04473008969 -6.37663469971e-06 0)
(1.04471268584 -4.63306531629e-05 0)
(1.04471026289 -6.25399335394e-05 0)
(1.0447157129 -6.51779467504e-05 0)
(1.04472469701 -6.06657541148e-05 0)
(1.04473468861 -5.29244716812e-05 0)
(1.04474430797 -4.42399388202e-05 0)
(1.04475288319 -3.58580316057e-05 0)
(1.04476016403 -2.8382775038e-05 0)
(1.04476613789 -2.2037822208e-05 0)
(1.04477091389 -1.68340064786e-05 0)
(1.04477465289 -1.26735422695e-05 0)
(1.04477752785 -9.41306894123e-06 0)
(1.04477970282 -6.89965195404e-06 0)
(1.04478132293 -4.98945364866e-06 0)
(1.04478251108 -3.55622377763e-06 0)
(1.04478336855 -2.4941168557e-06 0)
(1.04478397687 -1.71675927008e-06 0)
(1.04478440002 -1.15490335686e-06 0)
(1.04478468741 -7.54481461687e-07 0)
(1.0447848768 -4.7399572668e-07 0)
(1.04478499649 -2.8138000795e-07 0)
(1.04478506772 -1.51980359824e-07 0)
(1.04478510642 -6.73032951271e-08 0)
(1.04478512281 -1.43660372526e-08 0)
(1.04478512192 1.45767523682e-08 0)
(1.04478511193 2.81272476772e-08 0)
(1.04478509933 3.31074652525e-08 0)
(1.04478508419 3.30680258201e-08 0)
(1.04478506673 2.97637811695e-08 0)
(1.04478504658 2.46175743475e-08 0)
(1.04478502423 1.85119931303e-08 0)
(1.04478500147 1.35183664033e-08 0)
(1.04478497988 9.64414150607e-09 0)
(1.04478495927 6.35986716758e-09 0)
(1.04478493852 3.91096705715e-09 0)
(1.04478491731 2.27752380271e-09 0)
(1.04478489568 1.48645672555e-09 0)
(1.04478487352 1.66001432046e-09 0)
(1.0447848508 2.93231585282e-09 0)
(1.04478482764 5.44986703208e-09 0)
(1.044784804 9.00683076547e-09 0)
(1.04478477946 1.307977863e-08 0)
(1.0447847536 1.71559955457e-08 0)
(1.04478472664 2.06059448139e-08 0)
(1.044784699 2.3495718917e-08 0)
(1.04478467062 2.65832847948e-08 0)
(1.0447846411 2.98175364294e-08 0)
(1.04478460999 3.26824118813e-08 0)
(1.04478457729 3.50487660537e-08 0)
(1.04478454343 3.72310796531e-08 0)
(1.04478450861 3.98399085637e-08 0)
(1.04478447295 4.28751937267e-08 0)
(1.04478443632 4.57967791869e-08 0)
(1.04478439781 4.88359186463e-08 0)
(1.04478435709 5.23069712508e-08 0)
(1.04478431493 5.5635986263e-08 0)
(1.04478427198 5.88125756488e-08 0)
(1.04478422821 6.28566865433e-08 0)
(1.04478418337 6.80759022016e-08 0)
(1.04478413736 7.35480944757e-08 0)
(1.04478409012 7.86276319273e-08 0)
(1.04478404177 8.36282191939e-08 0)
(1.04478399289 8.89047103866e-08 0)
(1.04478394451 9.38381917709e-08 0)
(1.04478389728 9.75245572368e-08 0)
(1.04478385065 1.00658211079e-07 0)
(1.04478380457 1.0437278459e-07 0)
(1.04478376056 1.07833895564e-07 0)
(1.04478371906 1.09887528069e-07 0)
(1.04478367927 1.10714517409e-07 0)
(1.0447836424 1.09949555018e-07 0)
(1.04478361112 1.06146222421e-07 0)
(1.04478358681 9.8242550965e-08 0)
(1.04478357101 8.50690533224e-08 0)
(1.04478356608 6.47927339442e-08 0)
(1.04478357383 3.53753954003e-08 0)
(1.04478359753 -6.39987240322e-09 0)
(1.04478364275 -6.23535329116e-08 0)
(1.04478371473 -1.34590811827e-07 0)
(1.04478381895 -2.26393803691e-07 0)
(1.04478396372 -3.42847792601e-07 0)
(1.04478416003 -4.89758826085e-07 0)
(1.04478441974 -6.72113566274e-07 0)
(1.04478475619 -8.95932378636e-07 0)
(1.04478518831 -1.17178770927e-06 0)
(1.04478574114 -1.51362091457e-06 0)
(1.04478644228 -1.93463383858e-06 0)
(1.04478732346 -2.45150088721e-06 0)
(1.04478842705 -3.08768649057e-06 0)
(1.04478980812 -3.87320512212e-06 0)
(1.04479153119 -4.84152615292e-06 0)
(1.04479367586 -6.03494751806e-06 0)
(1.04479634484 -7.5090093621e-06 0)
(1.04479966103 -9.32931722035e-06 0)
(1.04480377478 -1.1574905606e-05 0)
(1.04480887883 -1.4348084213e-05 0)
(1.04481520996 -1.77729309376e-05 0)
(1.04482305548 -2.20005033337e-05 0)
(1.04483277558 -2.72217967466e-05 0)
(1.0448448214 -3.36800059031e-05 0)
(1.04485974539 -4.16738342433e-05 0)
(1.04487822532 -5.15663073058e-05 0)
(1.04490110939 -6.38135949626e-05 0)
(1.0449294485 -7.89812797093e-05 0)
(1.04496453614 -9.77583512579e-05 0)
(1.04500798091 -0.000121000408707 0)
(1.04506177791 -0.000149775747617 0)
(1.04512839413 -0.000185408472443 0)
(1.04521088343 -0.00022953540713 0)
(1.04531303365 -0.000284191979136 0)
(1.04543954299 -0.000351912301467 0)
(1.04559622581 -0.000435836749316 0)
(1.04579029414 -0.000539873021612 0)
(1.04603069546 -0.000668891851353 0)
(1.04632852064 -0.000828956550852 0)
(1.04669754268 -0.00102764108321 0)
(1.04715486485 -0.00127442376303 0)
(1.04772173585 -0.00158119096507 0)
(1.04842458442 -0.00196289695458 0)
(1.04929630495 -0.00243842382841 0)
(1.05037790892 -0.003031741182 0)
(1.05172059343 -0.0037734400674 0)
(1.05338837167 -0.00470283832659 0)
(1.05546148596 -0.00587095126454 0)