/*--------------------------------*- C++ -*----------------------------------*\
| =========                 |                                                 |
| \\      /  F ield         | OpenFOAM: The Open Source CFD Toolbox           |
|  \\    /   O peration     | Version:  v1706                                 |
|   \\  /    A nd           | Web:      www.OpenFOAM.com                      |
|    \\/     M anipulation  |                                                 |
\*---------------------------------------------------------------------------*/
FoamFile
{
    version     2.0;
    format      ascii;
    class       volScalarField;
    location    "200";
    object      p;
}
// * * * * * * * * * * * * * * * * * * * * * * * * * * * * * * * * * * * * * //

dimensions      [0 2 -2 0 0 0 0];


internalField   nonuniform List<scalar> 
800
(
-1.05189e-32
-5.4665e-32
-1.99612e-31
-3.72414e-31
-5.59833e-31
-7.46967e-31
-9.34056e-31
-1.12121e-30
-1.30833e-30
-1.49544e-30
-1.68255e-30
-1.86965e-30
-2.05674e-30
-2.24384e-30
-2.43094e-30
-2.61804e-30
-2.80513e-30
-2.99223e-30
-3.17933e-30
-3.36643e-30
-3.55352e-30
-3.74062e-30
-3.92772e-30
-4.11482e-30
-4.30191e-30
-4.48901e-30
-4.67611e-30
-4.86321e-30
-5.0503e-30
-5.2374e-30
-5.4245e-30
-5.6116e-30
-5.79869e-30
-5.98579e-30
-6.17289e-30
-6.35999e-30
-6.54708e-30
-6.73418e-30
-6.92128e-30
-7.10838e-30
-7.29547e-30
-7.48257e-30
-7.66967e-30
-7.85677e-30
-8.04386e-30
-8.23096e-30
-8.41806e-30
-8.60516e-30
-8.79225e-30
-8.97935e-30
-9.16645e-30
-9.35355e-30
-9.54064e-30
-9.72774e-30
-9.91484e-30
-1.01019e-29
-1.0289e-29
-1.04761e-29
-1.06632e-29
-1.08503e-29
-1.10374e-29
-1.12245e-29
-1.14116e-29
-1.15987e-29
-1.17858e-29
-1.19729e-29
-1.216e-29
-1.23471e-29
-1.25342e-29
-1.27213e-29
-1.29084e-29
-1.30955e-29
-1.32826e-29
-1.34697e-29
-1.36568e-29
-1.38439e-29
-1.4031e-29
-1.42181e-29
-1.44052e-29
-1.45923e-29
-1.47794e-29
-1.49665e-29
-1.51536e-29
-1.53407e-29
-1.55278e-29
-1.57149e-29
-1.5902e-29
-1.60891e-29
-1.62762e-29
-1.64632e-29
-1.66503e-29
-1.68374e-29
-1.70245e-29
-1.72116e-29
-1.73987e-29
-1.75858e-29
-1.77729e-29
-1.796e-29
-1.81471e-29
-1.83342e-29
-1.85213e-29
-1.87084e-29
-1.88955e-29
-1.90826e-29
-1.92697e-29
-1.94568e-29
-1.96439e-29
-1.9831e-29
-2.00181e-29
-2.02052e-29
-2.03923e-29
-2.05794e-29
-2.07665e-29
-2.09536e-29
-2.11407e-29
-2.13278e-29
-2.15149e-29
-2.1702e-29
-2.18891e-29
-2.20762e-29
-2.22633e-29
-2.24504e-29
-2.26375e-29
-2.28246e-29
-2.30117e-29
-2.31988e-29
-2.33859e-29
-2.3573e-29
-2.376e-29
-2.39471e-29
-2.41342e-29
-2.43213e-29
-2.45084e-29
-2.46955e-29
-2.48826e-29
-2.50697e-29
-2.52568e-29
-2.54439e-29
-2.5631e-29
-2.58181e-29
-2.60052e-29
-2.61923e-29
-2.63794e-29
-2.65665e-29
-2.67536e-29
-2.69407e-29
-2.71278e-29
-2.73149e-29
-2.7502e-29
-2.76891e-29
-2.78762e-29
-2.80633e-29
-2.82504e-29
-2.84375e-29
-2.86246e-29
-2.88117e-29
-2.89988e-29
-2.91859e-29
-2.9373e-29
-2.95601e-29
-2.97472e-29
-2.99343e-29
-3.01214e-29
-3.03085e-29
-3.04956e-29
-3.06827e-29
-3.08698e-29
-3.10569e-29
-3.12439e-29
-3.1431e-29
-3.16181e-29
-3.18052e-29
-3.19923e-29
-3.21794e-29
-3.23665e-29
-3.25536e-29
-3.27407e-29
-3.29278e-29
-3.31149e-29
-3.3302e-29
-3.34891e-29
-3.36762e-29
-3.38633e-29
-3.40504e-29
-3.42375e-29
-3.44246e-29
-3.46117e-29
-3.47988e-29
-3.49859e-29
-3.5173e-29
-3.53601e-29
-3.55472e-29
-3.57343e-29
-3.59214e-29
-3.61085e-29
-3.62956e-29
-3.64827e-29
-3.66698e-29
-3.68569e-29
-3.7044e-29
-3.72311e-29
-3.74182e-29
-3.76053e-29
-3.77924e-29
-3.79795e-29
-3.81666e-29
-3.83537e-29
-3.85407e-29
-3.87278e-29
-3.89149e-29
-3.9102e-29
-3.92891e-29
-3.94762e-29
-3.96633e-29
-3.98504e-29
-4.00375e-29
-4.02246e-29
-4.04117e-29
-4.05988e-29
-4.07859e-29
-4.0973e-29
-4.11601e-29
-4.13472e-29
-4.15343e-29
-4.17214e-29
-4.19085e-29
-4.20956e-29
-4.22827e-29
-4.24698e-29
-4.26569e-29
-4.2844e-29
-4.30311e-29
-4.32182e-29
-4.34053e-29
-4.35924e-29
-4.37795e-29
-4.39666e-29
-4.41537e-29
-4.43408e-29
-4.45279e-29
-4.4715e-29
-4.49021e-29
-4.50892e-29
-4.52763e-29
-4.54634e-29
-4.56505e-29
-4.58376e-29
-4.60246e-29
-4.62117e-29
-4.63988e-29
-4.65859e-29
-4.6773e-29
-4.69601e-29
-4.71472e-29
-4.73343e-29
-4.75214e-29
-4.77085e-29
-4.78956e-29
-4.80827e-29
-4.82698e-29
-4.84569e-29
-4.8644e-29
-4.88311e-29
-4.90182e-29
-4.92053e-29
-4.93924e-29
-4.95795e-29
-4.97666e-29
-4.99537e-29
-5.01408e-29
-5.03279e-29
-5.0515e-29
-5.07021e-29
-5.08892e-29
-5.10763e-29
-5.12634e-29
-5.14506e-29
-5.16378e-29
-5.18253e-29
-5.20134e-29
-5.22027e-29
-5.23954e-29
-5.25958e-29
-5.28149e-29
-5.30783e-29
-5.34468e-29
-5.40645e-29
-5.52662e-29
-5.78022e-29
-6.33479e-29
-7.57854e-29
-1.04217e-28
-1.68247e-28
-3.04284e-28
-5.78113e-28
-1.14728e-27
-2.43549e-27
-5.14123e-27
-8.87002e-27
-9.23655e-27
-2.67709e-27
-1.10968e-26
-4.03376e-26
3.57625e-25
2.84237e-24
1.23433e-23
4.04671e-23
8.82256e-23
8.37002e-23
1.59548e-22
1.14389e-21
6.73993e-21
2.16945e-20
2.98755e-20
-2.89163e-20
-1.34519e-19
1.49453e-20
6.84891e-20
-2.04191e-18
4.31602e-18
7.06791e-17
7.19966e-17
-3.78657e-17
-7.58257e-17
3.09383e-17
7.95466e-17
7.9461e-17
6.96508e-17
4.39614e-18
-4.94564e-18
-3.95723e-17
-1.02091e-16
-6.81701e-17
-4.01956e-17
-7.68831e-17
-7.67937e-17
-5.90651e-17
3.53261e-17
4.03599e-17
-3.05211e-17
-4.30726e-17
-6.69836e-17
-8.22981e-17
-1.02754e-16
-3.19322e-17
-2.3774e-18
-6.46518e-17
-4.16148e-17
1.35898e-17
1.44676e-18
-8.62069e-17
-1.01072e-16
-7.14011e-17
-1.0442e-16
-7.4639e-17
-7.36476e-17
-6.75299e-17
-2.77826e-18
7.78128e-18
7.47548e-18
-6.83733e-18
-1.46402e-17
-2.27316e-17
1.20146e-17
2.49845e-17
-3.36371e-17
-3.57538e-17
6.11736e-19
-3.99121e-18
-4.01417e-17
-2.82413e-17
2.00385e-18
6.74821e-17
1.17381e-16
1.04599e-16
9.11977e-19
-7.14381e-17
-4.96403e-17
1.13171e-17
7.47669e-17
1.42816e-18
-3.83203e-18
-7.30729e-18
-6.63975e-17
-6.32e-17
-3.60971e-17
-2.5874e-18
-3.44076e-17
-8.72354e-17
-7.08233e-17
5.10784e-17
1.43975e-16
8.08593e-17
-4.78757e-18
-8.39588e-17
-7.51292e-17
8.51573e-17
1.52192e-16
2.93202e-17
-6.78493e-17
-9.90809e-18
-3.5573e-17
-1.2755e-16
-5.05373e-17
3.73281e-17
4.82318e-17
2.74359e-17
-1.06871e-18
5.54816e-18
-8.23621e-19
-7.85763e-19
4.25733e-17
4.13727e-17
1.06949e-18
-4.53789e-17
-7.45482e-17
-3.26451e-17
3.25876e-17
7.31057e-17
5.57271e-17
3.23889e-17
-4.04315e-17
-9.81758e-17
-1.11399e-16
-1.5089e-16
-1.07945e-16
-2.93779e-17
-3.22765e-17
-6.09766e-17
-4.13398e-17
-7.92073e-17
-1.36778e-16
-1.01646e-16
-1.06547e-17
3.39996e-17
1.89232e-17
3.21697e-17
-3.16126e-17
-5.40182e-18
-1.9708e-18
-1.00096e-16
-8.44061e-18
4.9901e-17
7.19659e-18
-4.63285e-17
-8.23533e-17
-6.59916e-17
4.56714e-17
1.15019e-16
4.22744e-17
-3.87568e-17
-5.03832e-17
-6.95244e-17
-9.61065e-17
-7.25317e-17
-3.81805e-17
-3.2571e-17
6.957e-19
8.69245e-19
-5.78175e-17
-1.2802e-17
-3.86374e-17
-3.22707e-17
-4.64015e-18
5.29314e-18
7.62742e-17
4.97688e-17
3.91529e-18
-8.08776e-17
-1.51937e-16
-7.6711e-17
-2.8003e-17
-2.44103e-17
-3.44656e-17
-1.10577e-16
-1.12112e-16
-6.71033e-17
-6.97991e-17
-1.12757e-16
-7.42757e-17
4.33365e-18
7.21825e-18
9.06136e-19
1.99287e-20
4.71022e-19
6.37473e-19
6.21641e-19
6.01404e-19
5.99227e-19
6.00922e-19
6.01467e-19
6.01394e-19
6.01324e-19
6.01318e-19
6.01324e-19
6.01326e-19
6.01326e-19
6.01325e-19
6.01325e-19
6.01325e-19
6.01325e-19
6.01325e-19
6.01325e-19
6.01325e-19
6.01325e-19
6.01325e-19
6.01325e-19
6.01325e-19
6.01325e-19
6.01325e-19
6.01325e-19
6.01325e-19
6.01325e-19
6.01325e-19
6.01325e-19
6.01325e-19
6.01325e-19
6.01325e-19
6.01325e-19
6.01325e-19
6.01325e-19
6.01325e-19
6.01325e-19
6.01325e-19
6.01325e-19
6.01325e-19
6.01325e-19
6.01325e-19
6.01325e-19
6.01325e-19
6.01325e-19
6.01325e-19
6.01325e-19
6.01325e-19
6.01325e-19
6.01325e-19
6.01325e-19
6.01325e-19
6.01325e-19
6.01325e-19
6.01325e-19
6.01325e-19
6.01325e-19
6.01325e-19
6.01325e-19
6.01325e-19
6.01325e-19
6.01325e-19
6.01325e-19
6.01325e-19
6.01325e-19
6.01325e-19
6.01325e-19
6.01325e-19
6.01325e-19
6.01325e-19
6.01325e-19
6.01325e-19
6.01325e-19
6.01325e-19
6.01325e-19
6.01325e-19
6.01325e-19
6.01325e-19
6.01325e-19
6.01325e-19
6.01325e-19
6.01325e-19
6.01325e-19
6.01325e-19
6.01325e-19
6.01325e-19
6.01325e-19
6.01325e-19
6.01325e-19
6.01325e-19
6.01325e-19
6.01325e-19
6.01325e-19
6.01325e-19
6.01325e-19
6.01325e-19
6.01325e-19
6.01325e-19
6.01325e-19
6.01325e-19
6.01325e-19
6.01325e-19
6.01325e-19
6.01325e-19
6.01325e-19
6.01325e-19
6.01325e-19
6.01325e-19
6.01325e-19
6.01325e-19
6.01325e-19
6.01325e-19
6.01325e-19
6.01325e-19
6.01325e-19
6.01325e-19
6.01325e-19
6.01325e-19
6.01325e-19
6.01325e-19
6.01325e-19
6.01325e-19
6.01325e-19
6.01325e-19
6.01325e-19
6.01325e-19
6.01325e-19
6.01325e-19
6.01326e-19
6.01329e-19
6.01344e-19
6.01363e-19
6.01346e-19
6.01186e-19
6.01339e-19
6.03173e-19
6.12208e-19
6.25512e-19
5.99313e-19
3.85249e-19
-5.14298e-20
-1.41328e-19
3.91709e-18
1.21407e-17
-1.94682e-18
-8.63803e-17
-1.43525e-16
-7.01558e-17
1.89739e-18
5.89757e-18
1.15313e-18
3.31798e-19
5.66201e-19
5.92247e-19
5.93596e-19
5.9757e-19
6.00117e-19
6.00881e-19
6.01152e-19
6.01261e-19
6.01302e-19
6.01317e-19
6.01322e-19
6.01324e-19
6.01325e-19
6.01325e-19
6.01325e-19
6.01325e-19
6.01325e-19
6.01325e-19
6.01325e-19
6.01325e-19
6.01325e-19
6.01325e-19
6.01325e-19
6.01325e-19
6.01325e-19
6.01325e-19
6.01325e-19
6.01325e-19
6.01325e-19
6.01325e-19
6.01325e-19
6.01325e-19
6.01325e-19
6.01325e-19
6.01325e-19
6.01325e-19
6.01325e-19
6.01325e-19
6.01325e-19
6.01325e-19
6.01325e-19
6.01325e-19
6.01325e-19
6.01325e-19
6.01325e-19
6.01325e-19
6.01325e-19
6.01325e-19
6.01325e-19
6.01325e-19
6.01325e-19
6.01325e-19
6.01325e-19
6.01325e-19
6.01325e-19
6.01325e-19
6.01325e-19
6.01325e-19
6.01325e-19
6.01325e-19
6.01325e-19
6.01325e-19
6.01325e-19
6.01325e-19
6.01325e-19
6.01325e-19
6.01325e-19
6.01325e-19
6.01325e-19
6.01325e-19
6.01325e-19
6.01325e-19
6.01325e-19
6.01325e-19
6.01325e-19
6.01325e-19
6.01325e-19
6.01325e-19
6.01325e-19
6.01325e-19
6.01325e-19
6.01325e-19
6.01325e-19
6.01325e-19
6.01325e-19
6.01325e-19
6.01325e-19
6.01325e-19
6.01325e-19
6.01325e-19
6.01325e-19
6.01325e-19
6.01325e-19
6.01325e-19
6.01325e-19
6.01325e-19
6.01325e-19
6.01325e-19
6.01325e-19
6.01325e-19
6.01325e-19
6.01325e-19
6.01325e-19
6.01325e-19
6.01325e-19
6.01325e-19
6.01325e-19
6.01325e-19
6.01325e-19
6.01325e-19
6.01325e-19
6.01325e-19
6.01325e-19
6.01325e-19
6.01325e-19
6.01325e-19
6.01325e-19
6.01325e-19
6.01325e-19
6.01325e-19
6.01325e-19
6.01325e-19
6.01325e-19
6.01325e-19
6.01325e-19
6.01325e-19
6.01325e-19
6.01325e-19
6.01325e-19
6.01325e-19
6.01325e-19
6.01325e-19
6.01325e-19
6.01325e-19
6.01325e-19
6.01325e-19
6.01325e-19
6.01325e-19
6.01325e-19
6.01325e-19
6.01325e-19
6.01325e-19
6.01325e-19
6.01325e-19
6.01325e-19
6.01325e-19
6.01325e-19
6.01325e-19
6.01325e-19
6.01325e-19
6.01325e-19
6.01325e-19
6.01325e-19
6.01325e-19
6.01325e-19
6.01325e-19
6.01325e-19
6.01325e-19
6.01325e-19
6.01325e-19
6.01325e-19
6.01325e-19
)
;

boundaryField
{
    left
    {
        type            zeroGradient;
    }
    right
    {
        type            zeroGradient;
    }
    empty
    {
        type            empty;
    }
}


// ************************************************************************* //
