/*--------------------------------*- C++ -*----------------------------------*\
| =========                 |                                                 |
| \\      /  F ield         | OpenFOAM: The Open Source CFD Toolbox           |
|  \\    /   O peration     | Version:  v1706                                 |
|   \\  /    A nd           | Web:      www.OpenFOAM.com                      |
|    \\/     M anipulation  |                                                 |
\*---------------------------------------------------------------------------*/
FoamFile
{
    version     2.0;
    format      ascii;
    class       volScalarField;
    location    "200";
    object      pB;
}
// * * * * * * * * * * * * * * * * * * * * * * * * * * * * * * * * * * * * * //

dimensions      [1 1 -3 0 0 -1 0];


internalField   nonuniform List<scalar> 
800
(
7.35511e-13
7.35511e-13
7.35511e-13
7.35511e-13
7.35511e-13
7.35511e-13
7.35511e-13
7.35511e-13
7.35511e-13
7.35511e-13
7.35511e-13
7.35511e-13
7.35511e-13
7.35511e-13
7.35511e-13
7.35511e-13
7.35511e-13
7.35511e-13
7.35511e-13
7.35511e-13
7.35511e-13
7.35511e-13
7.35511e-13
7.35511e-13
7.35511e-13
7.35511e-13
7.35511e-13
7.35511e-13
7.35511e-13
7.35511e-13
7.35511e-13
7.35511e-13
7.35511e-13
7.35511e-13
7.35511e-13
7.35511e-13
7.35511e-13
7.35511e-13
7.35511e-13
7.35511e-13
7.35511e-13
7.35511e-13
7.35511e-13
7.35511e-13
7.35511e-13
7.35511e-13
7.35511e-13
7.35511e-13
7.35511e-13
7.35511e-13
7.35511e-13
7.35511e-13
7.35511e-13
7.35511e-13
7.35511e-13
7.35511e-13
7.35511e-13
7.35511e-13
7.35511e-13
7.35511e-13
7.35511e-13
7.35511e-13
7.35511e-13
7.35511e-13
7.35511e-13
7.35511e-13
7.35511e-13
7.35511e-13
7.35511e-13
7.35511e-13
7.35511e-13
7.35511e-13
7.35511e-13
7.35511e-13
7.35511e-13
7.35511e-13
7.35511e-13
7.35511e-13
7.35511e-13
7.35511e-13
7.35511e-13
7.35511e-13
7.35511e-13
7.35511e-13
7.35511e-13
7.35511e-13
7.35511e-13
7.35511e-13
7.35511e-13
7.35511e-13
7.35511e-13
7.35511e-13
7.35511e-13
7.35511e-13
7.35511e-13
7.35511e-13
7.35511e-13
7.35511e-13
7.35511e-13
7.35511e-13
7.35511e-13
7.35511e-13
7.35511e-13
7.35511e-13
7.35511e-13
7.35511e-13
7.35511e-13
7.35511e-13
7.35511e-13
7.35511e-13
7.35511e-13
7.35511e-13
7.35511e-13
7.35511e-13
7.35511e-13
7.35511e-13
7.35511e-13
7.35511e-13
7.35511e-13
7.35511e-13
7.35511e-13
7.35511e-13
7.35511e-13
7.35511e-13
7.35511e-13
7.35511e-13
7.35511e-13
7.35511e-13
7.35511e-13
7.35511e-13
7.35511e-13
7.35511e-13
7.35511e-13
7.35511e-13
7.35511e-13
7.35511e-13
7.35511e-13
7.35511e-13
7.35511e-13
7.35511e-13
7.35511e-13
7.35511e-13
7.35511e-13
7.35511e-13
7.35511e-13
7.35511e-13
7.35511e-13
7.35511e-13
7.35511e-13
7.35511e-13
7.35511e-13
7.35511e-13
7.35511e-13
7.35511e-13
7.35511e-13
7.35511e-13
7.35511e-13
7.35511e-13
7.35511e-13
7.35511e-13
7.35511e-13
7.35511e-13
7.35511e-13
7.35511e-13
7.35511e-13
7.35511e-13
7.35511e-13
7.35511e-13
7.35511e-13
7.35511e-13
7.35511e-13
7.35511e-13
7.35511e-13
7.35511e-13
7.35511e-13
7.35511e-13
7.35511e-13
7.35511e-13
7.35511e-13
7.35511e-13
7.35511e-13
7.35511e-13
7.35511e-13
7.35511e-13
7.35511e-13
7.35511e-13
7.35511e-13
7.35511e-13
7.35511e-13
7.35511e-13
7.35511e-13
7.35511e-13
7.35511e-13
7.35511e-13
7.35511e-13
7.35511e-13
7.35511e-13
7.35511e-13
7.35511e-13
7.35511e-13
7.35511e-13
7.35511e-13
7.35511e-13
7.35511e-13
7.35511e-13
7.35511e-13
7.35511e-13
7.35511e-13
7.35511e-13
7.35511e-13
7.35511e-13
7.35511e-13
7.35511e-13
7.35511e-13
7.35511e-13
7.35511e-13
7.35511e-13
7.35511e-13
7.35511e-13
7.35511e-13
7.35511e-13
7.35511e-13
7.35511e-13
7.35511e-13
7.35511e-13
7.35511e-13
7.35511e-13
7.35511e-13
7.35511e-13
7.35511e-13
7.35511e-13
7.35511e-13
7.35511e-13
7.35511e-13
7.35511e-13
7.35511e-13
7.35511e-13
7.35511e-13
7.35511e-13
7.35511e-13
7.35511e-13
7.35511e-13
7.35511e-13
7.35511e-13
7.35511e-13
7.35511e-13
7.35511e-13
7.35511e-13
7.35511e-13
7.35511e-13
7.35511e-13
7.35511e-13
7.35511e-13
7.35511e-13
7.35511e-13
7.35511e-13
7.35511e-13
7.35511e-13
7.35511e-13
7.35511e-13
7.35511e-13
7.35511e-13
7.35511e-13
7.35511e-13
7.35511e-13
7.35511e-13
7.35511e-13
7.35511e-13
7.35511e-13
7.35511e-13
7.35511e-13
7.35511e-13
7.35511e-13
7.35511e-13
7.35511e-13
7.35511e-13
7.35511e-13
7.35511e-13
7.35511e-13
7.35511e-13
7.35511e-13
7.35511e-13
7.35511e-13
7.35511e-13
7.35511e-13
7.35511e-13
7.35511e-13
7.35511e-13
7.35511e-13
7.35511e-13
7.35511e-13
7.35511e-13
7.35511e-13
7.35511e-13
7.35511e-13
7.35511e-13
7.35511e-13
7.35511e-13
7.35511e-13
7.35511e-13
7.35511e-13
7.35511e-13
7.35511e-13
7.35511e-13
7.35511e-13
7.35511e-13
7.35511e-13
7.35511e-13
7.35511e-13
7.35511e-13
7.35511e-13
7.35511e-13
7.35511e-13
7.35511e-13
7.35511e-13
7.35511e-13
7.35511e-13
7.35511e-13
7.35085e-13
7.34659e-13
7.34232e-13
7.33806e-13
7.33806e-13
7.34659e-13
7.37217e-13
7.42332e-13
7.4958e-13
7.60238e-13
7.74307e-13
7.92639e-13
8.1566e-13
8.45077e-13
8.80462e-13
9.21816e-13
9.6999e-13
1.02541e-12
1.08851e-12
1.16013e-12
1.23943e-12
1.32597e-12
1.41848e-12
1.51697e-12
1.61971e-12
1.72544e-12
1.83245e-12
1.9386e-12
2.04135e-12
2.13855e-12
2.2268e-12
2.30354e-12
2.36578e-12
2.41012e-12
2.43314e-12
2.43101e-12
2.40117e-12
2.34105e-12
2.24769e-12
2.11979e-12
1.95566e-12
1.754e-12
1.51569e-12
1.24156e-12
9.34179e-13
5.96955e-13
2.33726e-13
-1.50393e-13
-5.49008e-13
-9.54444e-13
-1.35945e-12
-1.75594e-12
-2.13451e-12
-2.48623e-12
-2.80129e-12
-3.06987e-12
-3.28346e-12
-3.43395e-12
-3.5141e-12
-3.51751e-12
-3.43907e-12
-3.27579e-12
-3.02596e-12
-2.69087e-12
-2.2735e-12
-1.7781e-12
-1.21194e-12
-5.83114e-13
9.77281e-14
8.18645e-13
1.56599e-12
2.32528e-12
3.08158e-12
3.81827e-12
4.52043e-12
5.17313e-12
5.76274e-12
6.27647e-12
6.70151e-12
7.02936e-12
7.2519e-12
7.36402e-12
7.36274e-12
7.24849e-12
7.02424e-12
6.69469e-12
6.26794e-12
5.75251e-12
5.16077e-12
4.50594e-12
3.80165e-12
3.06282e-12
2.30567e-12
1.5451e-12
7.96476e-13
7.42802e-14
-6.07414e-13
-1.2371e-12
-1.80454e-12
-2.30078e-12
-2.71943e-12
-3.05452e-12
-3.30435e-12
-3.46763e-12
-3.54693e-12
-3.5448e-12
-3.46593e-12
-3.31671e-12
-3.10355e-12
-2.83582e-12
-2.52204e-12
-2.17075e-12
-1.79217e-12
-1.39569e-12
-9.90255e-13
-5.84393e-13
-1.85352e-13
1.99194e-13
5.63276e-13
9.01778e-13
1.21044e-12
1.48584e-12
1.72587e-12
1.92922e-12
2.09549e-12
2.22552e-12
2.32016e-12
2.38198e-12
2.4131e-12
2.41651e-12
2.39477e-12
2.35129e-12
2.28989e-12
2.21316e-12
2.12491e-12
2.0277e-12
1.92496e-12
1.8188e-12
1.7118e-12
1.60607e-12
1.50332e-12
1.40484e-12
1.31233e-12
1.22664e-12
1.14777e-12
1.07615e-12
1.01262e-12
9.57201e-13
9.09026e-13
8.68525e-13
8.34419e-13
8.06708e-13
7.84112e-13
7.66633e-13
7.52991e-13
7.42759e-13
7.35511e-13
7.30822e-13
7.27837e-13
7.26558e-13
7.26132e-13
7.26558e-13
7.26985e-13
7.27411e-13
7.27837e-13
7.28264e-13
7.2869e-13
7.29116e-13
7.29543e-13
7.29969e-13
7.30395e-13
7.30822e-13
7.31248e-13
7.31674e-13
7.32101e-13
7.32527e-13
7.32953e-13
7.3338e-13
7.33806e-13
7.34232e-13
7.34659e-13
7.35085e-13
7.35511e-13
7.35938e-13
7.36364e-13
7.3679e-13
7.37217e-13
7.37643e-13
7.38069e-13
7.38496e-13
7.38922e-13
7.39348e-13
7.39775e-13
7.40201e-13
7.40627e-13
7.41054e-13
7.4148e-13
7.41906e-13
7.42332e-13
7.42759e-13
7.43185e-13
7.43611e-13
7.44038e-13
7.44464e-13
7.4489e-13
7.45317e-13
7.45743e-13
7.46169e-13
7.46596e-13
7.47022e-13
7.47448e-13
7.47875e-13
7.48301e-13
7.48727e-13
7.49154e-13
7.4958e-13
7.50006e-13
7.50433e-13
7.50859e-13
7.51285e-13
7.51712e-13
7.52138e-13
7.52564e-13
7.52991e-13
7.53417e-13
7.53843e-13
7.5427e-13
7.54696e-13
7.55122e-13
7.55549e-13
7.55975e-13
7.56401e-13
7.56828e-13
7.57254e-13
7.5768e-13
7.58107e-13
7.58533e-13
7.58959e-13
7.59386e-13
7.59812e-13
7.60238e-13
7.60664e-13
7.61091e-13
7.61517e-13
7.61943e-13
7.6237e-13
7.62796e-13
7.63222e-13
7.63649e-13
7.64075e-13
7.64501e-13
7.64928e-13
7.65354e-13
7.6578e-13
7.66207e-13
7.66633e-13
7.67059e-13
7.67486e-13
7.67912e-13
7.68338e-13
7.68765e-13
7.69191e-13
7.69617e-13
7.70044e-13
7.7047e-13
7.70896e-13
7.71323e-13
7.71749e-13
7.72175e-13
7.72602e-13
7.73028e-13
7.73454e-13
7.73881e-13
7.74307e-13
7.74733e-13
7.7516e-13
7.75586e-13
7.76012e-13
7.76439e-13
7.76865e-13
7.77291e-13
7.77718e-13
7.78144e-13
7.7857e-13
7.78996e-13
7.79423e-13
7.79849e-13
7.80275e-13
7.80702e-13
7.81128e-13
7.81554e-13
7.81981e-13
7.82407e-13
7.82833e-13
7.8326e-13
7.83686e-13
7.84112e-13
7.84539e-13
7.84965e-13
7.85391e-13
7.85818e-13
7.86244e-13
7.8667e-13
7.87097e-13
7.87523e-13
7.87949e-13
7.88376e-13
7.88802e-13
7.89228e-13
7.89655e-13
7.90081e-13
7.90507e-13
7.90934e-13
7.9136e-13
7.91786e-13
7.92213e-13
7.93065e-13
7.93065e-13
7.93065e-13
7.93065e-13
7.93065e-13
7.93065e-13
7.93065e-13
7.93065e-13
7.93065e-13
7.93065e-13
7.93065e-13
7.93065e-13
7.93065e-13
7.93065e-13
7.93065e-13
7.93065e-13
7.93065e-13
7.93065e-13
7.93065e-13
7.93065e-13
7.93065e-13
7.93065e-13
7.93065e-13
7.93065e-13
7.93065e-13
7.93065e-13
7.93065e-13
7.93065e-13
7.93065e-13
7.93065e-13
7.93065e-13
7.93065e-13
7.93065e-13
7.93065e-13
7.93065e-13
7.93065e-13
7.93065e-13
7.93065e-13
7.93065e-13
7.93065e-13
7.93065e-13
7.93065e-13
7.93065e-13
7.93065e-13
7.93065e-13
7.93065e-13
7.93065e-13
7.93065e-13
7.93065e-13
7.93065e-13
7.93065e-13
7.93065e-13
7.93065e-13
7.93065e-13
7.93065e-13
7.93065e-13
7.93065e-13
7.93065e-13
7.93065e-13
7.93065e-13
7.93065e-13
7.93065e-13
7.93065e-13
7.93065e-13
7.93065e-13
7.93065e-13
7.93065e-13
7.93065e-13
7.93065e-13
7.93065e-13
7.93065e-13
7.93065e-13
7.93065e-13
7.93065e-13
7.93065e-13
7.93065e-13
7.93065e-13
7.93065e-13
7.93065e-13
7.93065e-13
7.93065e-13
7.93065e-13
7.93065e-13
7.93065e-13
7.93065e-13
7.93065e-13
7.93065e-13
7.93065e-13
7.93065e-13
7.93065e-13
7.93065e-13
7.93065e-13
7.93065e-13
7.93065e-13
7.93065e-13
7.93065e-13
7.93065e-13
7.93065e-13
7.93065e-13
7.93065e-13
7.93065e-13
7.93065e-13
7.93065e-13
7.93065e-13
7.93065e-13
7.93065e-13
7.93065e-13
7.93065e-13
7.93065e-13
7.93065e-13
7.93065e-13
7.93065e-13
7.93065e-13
7.93065e-13
7.93065e-13
7.93065e-13
7.93065e-13
7.93065e-13
7.93065e-13
7.93065e-13
7.93065e-13
7.93065e-13
7.93065e-13
7.93065e-13
7.93065e-13
7.93065e-13
7.93065e-13
7.93065e-13
7.93065e-13
7.93065e-13
7.93065e-13
7.93065e-13
7.93065e-13
7.93065e-13
7.93065e-13
7.93065e-13
7.93065e-13
7.93065e-13
7.93065e-13
7.93065e-13
7.93065e-13
7.93065e-13
7.93065e-13
7.93065e-13
7.93065e-13
7.93065e-13
7.93065e-13
7.93065e-13
7.93065e-13
7.93065e-13
7.93065e-13
7.93065e-13
7.93065e-13
7.93065e-13
7.93065e-13
7.93065e-13
7.93065e-13
7.93065e-13
7.93065e-13
7.93065e-13
7.93065e-13
7.93065e-13
7.93065e-13
7.93065e-13
7.93065e-13
7.93065e-13
)
;

boundaryField
{
    left
    {
        type            zeroGradient;
    }
    right
    {
        type            zeroGradient;
    }
    empty
    {
        type            empty;
    }
}


// ************************************************************************* //
