/*--------------------------------*- C++ -*----------------------------------*\
| =========                 |                                                 |
| \\      /  F ield         | OpenFOAM: The Open Source CFD Toolbox           |
|  \\    /   O peration     | Version:  v1706                                 |
|   \\  /    A nd           | Web:      www.OpenFOAM.com                      |
|    \\/     M anipulation  |                                                 |
\*---------------------------------------------------------------------------*/
FoamFile
{
    version     2.0;
    format      ascii;
    class       surfaceScalarField;
    location    "200";
    object      phi;
}
// * * * * * * * * * * * * * * * * * * * * * * * * * * * * * * * * * * * * * //

dimensions      [0 3 -1 0 0 0 0];
oriented        oriented;


internalField   nonuniform List<scalar> 
799
(
2.8026e-45
2.73325e-29
2.73325e-29
2.73325e-29
2.73325e-29
2.73325e-29
2.73325e-29
2.73325e-29
2.73325e-29
2.73325e-29
2.73325e-29
2.73325e-29
2.73325e-29
2.73325e-29
2.73325e-29
2.73325e-29
2.73325e-29
2.73325e-29
2.73325e-29
2.73325e-29
2.73325e-29
2.73325e-29
2.73325e-29
2.73325e-29
2.73325e-29
2.73325e-29
2.73325e-29
2.73325e-29
2.73325e-29
2.73325e-29
2.73325e-29
2.73325e-29
2.73325e-29
2.73325e-29
2.73325e-29
2.73325e-29
2.73325e-29
2.73325e-29
2.73325e-29
2.73325e-29
2.73325e-29
2.73325e-29
2.73325e-29
2.73325e-29
2.73325e-29
2.73325e-29
2.73325e-29
2.73325e-29
2.73325e-29
2.73325e-29
2.73325e-29
2.73325e-29
2.73325e-29
2.73325e-29
2.73325e-29
2.73325e-29
2.73325e-29
2.73325e-29
2.73325e-29
2.73325e-29
2.73325e-29
2.73325e-29
2.73325e-29
2.73325e-29
2.73325e-29
2.73325e-29
2.73325e-29
2.73325e-29
2.73325e-29
2.73325e-29
2.73325e-29
2.73325e-29
2.73325e-29
2.73325e-29
2.73325e-29
2.73325e-29
2.73325e-29
2.73325e-29
2.73325e-29
2.73325e-29
2.73325e-29
2.73325e-29
2.73325e-29
2.73325e-29
2.73325e-29
2.73325e-29
2.73325e-29
2.73325e-29
2.73325e-29
2.73325e-29
2.73325e-29
2.73325e-29
2.73325e-29
2.73325e-29
2.73325e-29
2.73325e-29
2.73325e-29
2.73325e-29
2.73325e-29
2.73325e-29
2.73325e-29
2.73325e-29
2.73325e-29
2.73325e-29
2.73325e-29
2.73325e-29
2.73325e-29
2.73325e-29
2.73325e-29
2.73325e-29
2.73325e-29
2.73325e-29
2.73325e-29
2.73325e-29
2.73325e-29
2.73325e-29
2.73325e-29
2.73325e-29
2.73325e-29
2.73325e-29
2.73325e-29
2.73325e-29
2.73325e-29
2.73325e-29
2.73325e-29
2.73325e-29
2.73325e-29
2.73325e-29
2.73325e-29
2.73325e-29
2.73325e-29
2.73325e-29
2.73325e-29
2.73325e-29
2.73325e-29
2.73325e-29
2.73325e-29
2.73325e-29
2.73325e-29
2.73325e-29
2.73325e-29
2.73325e-29
2.73325e-29
2.73325e-29
2.73325e-29
2.73325e-29
2.73325e-29
2.73325e-29
2.73325e-29
2.73325e-29
2.73325e-29
2.73325e-29
2.73325e-29
2.73325e-29
2.73325e-29
2.73325e-29
2.73325e-29
2.73325e-29
2.73325e-29
2.73325e-29
2.73325e-29
2.73325e-29
2.73325e-29
2.73325e-29
2.73325e-29
2.73325e-29
2.73325e-29
2.73325e-29
2.73325e-29
2.73325e-29
2.73325e-29
2.73325e-29
2.73325e-29
2.73325e-29
2.73325e-29
2.73325e-29
2.73325e-29
2.73325e-29
2.73325e-29
2.73325e-29
2.73325e-29
2.73325e-29
2.73325e-29
2.73325e-29
2.73325e-29
2.73325e-29
2.73325e-29
2.73325e-29
2.73325e-29
2.73325e-29
2.73325e-29
2.73325e-29
2.73325e-29
2.73325e-29
2.73325e-29
2.73325e-29
2.73325e-29
2.73325e-29
2.73325e-29
2.73325e-29
2.73325e-29
2.73325e-29
2.73325e-29
2.73325e-29
2.73325e-29
2.73325e-29
2.73325e-29
2.73325e-29
2.73325e-29
2.73325e-29
2.73325e-29
2.73325e-29
2.73325e-29
2.73325e-29
2.73325e-29
2.73325e-29
2.73325e-29
2.73325e-29
2.73325e-29
2.73325e-29
2.73325e-29
2.73325e-29
2.73325e-29
2.73325e-29
2.73325e-29
2.73325e-29
2.73325e-29
2.73325e-29
2.73325e-29
2.73325e-29
2.73325e-29
2.73325e-29
2.73325e-29
2.73325e-29
2.73325e-29
2.73325e-29
2.73325e-29
2.73325e-29
2.73325e-29
2.73325e-29
2.73325e-29
2.73325e-29
2.73325e-29
2.73325e-29
2.73325e-29
2.73325e-29
2.73325e-29
2.73325e-29
2.73325e-29
2.73325e-29
2.73325e-29
2.73325e-29
2.73325e-29
2.73325e-29
2.73325e-29
2.73325e-29
2.73325e-29
2.73325e-29
2.73325e-29
2.73325e-29
2.73325e-29
2.73325e-29
2.73325e-29
2.73325e-29
2.73325e-29
2.73325e-29
2.73325e-29
2.73325e-29
2.73325e-29
2.73325e-29
2.73325e-29
2.73325e-29
2.73325e-29
2.73325e-29
2.73325e-29
2.73325e-29
2.73325e-29
2.73325e-29
2.73325e-29
2.73325e-29
2.73325e-29
2.73325e-29
2.73325e-29
2.73325e-29
2.73325e-29
2.73325e-29
2.73325e-29
2.73325e-29
2.73325e-29
2.73325e-29
2.73325e-29
2.73325e-29
2.73325e-29
2.73325e-29
2.73325e-29
2.73325e-29
2.73325e-29
2.73325e-29
2.73325e-29
2.73325e-29
2.73325e-29
2.73325e-29
2.73325e-29
2.73325e-29
2.73325e-29
2.73325e-29
2.73325e-29
2.73325e-29
2.73325e-29
2.73325e-29
2.73324e-29
2.73336e-29
2.73305e-29
2.73174e-29
2.74006e-29
2.72835e-29
2.73667e-29
2.75115e-29
2.72157e-29
2.8399e-29
2.36658e-29
2.52435e-29
2.52435e-29
1.89327e-29
2.05104e-29
2.22853e-29
2.0116e-29
1.89327e-29
1.85382e-29
1.73549e-29
1.89327e-29
1.10441e-29
1.10441e-29
1.41995e-29
9.54029e-30
7.88861e-30
9.46633e-30
3.15544e-30
6.31089e-30
4.73317e-30
4.73317e-30
7.88861e-30
0
3.15544e-30
0
3.15544e-30
-6.31089e-30
-3.15544e-30
-5.91646e-30
-6.31089e-30
-6.31089e-30
-4.73317e-30
-7.88861e-30
-3.15544e-30
-7.88861e-30
-7.09975e-30
-3.15544e-30
-3.9443e-30
-4.38804e-30
-4.73317e-30
-5.1276e-30
-5.52203e-30
-6.31089e-30
-5.52203e-30
-6.31089e-30
-8.77608e-30
-1.10441e-29
-1.08468e-29
-1.10441e-29
-9.46633e-30
-7.88861e-30
-9.46633e-30
-1.10441e-29
-9.46633e-30
-9.46633e-30
-9.46633e-30
-7.88861e-30
-9.46633e-30
-6.31089e-30
-1.26218e-29
-1.02552e-29
-1.02552e-29
-1.26218e-29
-7.98722e-30
-4.73317e-30
-3.15544e-30
-7.88861e-30
-4.73317e-30
-8.67747e-30
-6.31089e-30
-1.26218e-29
-6.31089e-30
-1.26218e-29
-6.31089e-30
-4.73317e-30
-6.31089e-30
-6.31089e-30
6.31089e-30
-6.31089e-30
3.15544e-30
-7.88861e-31
3.15544e-30
0
0
2.36658e-30
-1.57772e-30
-3.15544e-30
-3.74709e-30
-3.54987e-30
-4.11687e-30
-1.57772e-30
-4.63456e-30
-1.57772e-30
-3.15544e-30
-4.73317e-30
1.57772e-30
0
3.15544e-30
1.57772e-30
3.9443e-30
3.15544e-30
0
2.36658e-30
3.15544e-30
6.31089e-30
-3.15544e-30
-1.47911e-30
1.57772e-30
-3.9443e-30
-3.15544e-30
3.15544e-30
1.57772e-30
0
0
-3.9443e-30
-2.36658e-30
-3.15544e-30
-6.31089e-30
-6.11367e-30
-9.46633e-30
-9.46633e-30
-9.46633e-30
-7.88861e-30
-6.31089e-30
-6.31089e-30
-1.26218e-29
-6.31089e-30
-6.31089e-30
-1.57772e-29
-1.26218e-29
-1.73549e-29
-1.65661e-29
-1.65661e-29
-1.57772e-29
-1.26218e-29
-1.38051e-29
-1.41995e-29
-1.47911e-29
-1.57772e-29
-1.41995e-29
-1.18329e-29
-1.14385e-29
-1.26218e-29
-1.18329e-29
-1.26218e-29
-7.88861e-30
-1.10441e-29
-9.46633e-30
-9.46633e-30
-1.26218e-29
-1.26218e-29
-9.86076e-30
-9.46633e-30
-1.26218e-29
-6.5081e-30
-1.57772e-30
-6.40949e-30
-6.31089e-30
-1.57772e-30
-6.31089e-30
-6.90253e-30
-7.09975e-30
-7.00114e-30
-6.95184e-30
-6.98881e-30
-6.96724e-30
-6.96724e-30
-6.95819e-30
-6.98082e-30
-6.96378e-30
-6.97417e-30
-6.95355e-30
-6.97554e-30
-6.95211e-30
-6.97127e-30
-6.95958e-30
-6.9803e-30
-6.97337e-30
-6.94312e-30
-6.952e-30
-6.99525e-30
-6.96116e-30
-6.97125e-30
-6.97644e-30
-6.96069e-30
-6.96827e-30
-6.9596e-30
-6.98635e-30
-6.96031e-30
-6.96902e-30
-6.96961e-30
-6.97856e-30
-6.94389e-30
-6.94773e-30
-6.95346e-30
-6.99684e-30
-6.97134e-30
-6.96907e-30
-6.95372e-30
-6.94991e-30
-7.0115e-30
-6.94314e-30
-6.97847e-30
-6.96429e-30
-6.94663e-30
-6.97526e-30
-6.97742e-30
-6.93864e-30
-7.00062e-30
-6.95505e-30
-6.97029e-30
-6.9638e-30
-6.95709e-30
-6.97265e-30
-6.96556e-30
-6.97883e-30
-6.97724e-30
-6.9544e-30
-6.94974e-30
-6.96005e-30
-6.98704e-30
-6.97257e-30
-6.96639e-30
-6.94151e-30
-7.00103e-30
-6.94372e-30
-6.96695e-30
-6.9774e-30
-6.9692e-30
-6.96491e-30
-6.94485e-30
-6.98268e-30
-6.97745e-30
-6.95168e-30
-6.96349e-30
-6.983e-30
-6.95602e-30
-6.95299e-30
-6.98639e-30
-6.96617e-30
-6.96744e-30
-6.95601e-30
-6.98462e-30
-6.96361e-30
-6.96045e-30
-6.9649e-30
-6.95449e-30
-6.97254e-30
-6.95728e-30
-6.98357e-30
-6.97791e-30
-6.95641e-30
-6.96334e-30
-6.95966e-30
-6.97448e-30
-6.952e-30
-6.98132e-30
-6.95385e-30
-6.98504e-30
-6.96659e-30
-6.96686e-30
-6.96099e-30
-6.96676e-30
-6.97774e-30
-6.98245e-30
-6.9521e-30
-6.94837e-30
-6.98146e-30
-6.95291e-30
-6.98321e-30
-6.9714e-30
-6.95679e-30
-6.95552e-30
-6.9717e-30
-6.98918e-30
-6.95468e-30
-6.94312e-30
-7.00672e-30
-6.93442e-30
-7.00449e-30
-6.93217e-30
-6.95728e-30
-6.99588e-30
-6.95658e-30
-6.94093e-30
-6.99475e-30
-6.97859e-30
-6.93839e-30
-6.98056e-30
-6.97537e-30
-6.96178e-30
-6.96179e-30
-6.95495e-30
-6.98563e-30
-6.94442e-30
-6.98709e-30
-6.95556e-30
-6.98701e-30
-6.93456e-30
-6.97779e-30
-6.97938e-30
-6.96763e-30
-6.93951e-30
-6.96416e-30
-6.97649e-30
-6.95184e-30
-6.91794e-30
-6.70532e-30
-6.70532e-30
-6.31089e-30
-3.15544e-30
-9.46633e-30
9.46633e-30
0
0
0
0
-3.69779e-32
1.54074e-33
-3.38001e-32
2.50371e-33
-4.46816e-32
-3.24038e-32
-5.94631e-33
-2.5988e-32
-6.12446e-32
-3.73149e-33
-3.5392e-32
-5.04729e-33
-2.7386e-32
-3.26351e-32
-1.26752e-32
-3.30024e-32
-4.14316e-32
8.48492e-33
-5.23372e-32
-2.49795e-32
-1.51808e-32
-2.50831e-32
-1.27085e-32
-4.41842e-32
-1.92846e-32
7.80016e-33
-5.1689e-32
-3.03877e-32
-3.68227e-32
-5.83872e-34
-2.08916e-32
-4.14702e-32
-2.06323e-32
-1.33675e-32
-9.22253e-33
-5.61796e-32
-2.91618e-32
-2.78904e-32
-2.08586e-32
-3.06005e-32
-3.48716e-32
3.22374e-32
-4.54879e-32
-5.11212e-32
-1.85709e-32
-2.76903e-32
-1.31098e-32
-1.6685e-32
-1.37998e-32
-6.01656e-32
1.59738e-32
-5.45904e-32
-1.76532e-32
-4.16561e-32
-2.40098e-33
-3.85035e-32
-2.5127e-32
-1.93056e-32
-4.08171e-33
-2.13169e-32
-4.0071e-32
-2.69348e-32
-4.42624e-32
6.28587e-33
-2.50946e-32
-3.8438e-32
-2.22105e-32
-3.25856e-32
-1.11514e-32
-3.81655e-32
-3.45398e-32
-1.13751e-32
-6.00058e-33
-3.34719e-32
-4.04405e-32
1.62975e-33
-4.64327e-32
-2.79062e-32
-8.3141e-33
-2.97962e-32
-3.22762e-32
6.61893e-33
-4.10368e-32
-5.00251e-32
-8.9814e-33
-3.05865e-32
-5.5677e-33
-4.00983e-32
-1.78412e-32
-4.00568e-32
-3.43183e-32
7.21546e-33
-2.91161e-32
-1.75855e-32
-2.64219e-32
-2.64354e-32
-3.35302e-32
-2.29582e-32
-2.42276e-32
-1.45016e-32
-1.87887e-32
-3.29731e-32
-4.77441e-32
-7.71939e-33
-8.3569e-33
-3.94985e-32
-2.42998e-32
-2.10575e-32
-2.07876e-32
-4.39378e-32
-1.35908e-32
-1.38266e-32
-3.77567e-32
-1.65485e-32
-3.77554e-33
-5.74672e-32
-3.83866e-32
-6.80007e-33
-6.93173e-33
-7.48612e-32
6.71106e-34
-2.2638e-32
-3.40704e-32
-2.20442e-32
-2.22064e-32
-2.57065e-32
-4.45544e-32
-6.65495e-33
-3.81144e-32
3.60282e-33
-4.40406e-32
5.69076e-33
-4.55362e-32
-2.69973e-32
-2.13546e-33
-5.67099e-32
-5.18979e-33
-3.10688e-32
-3.22235e-32
-2.2535e-32
-3.12178e-32
1.36393e-32
-2.9964e-32
-5.51443e-32
1.07755e-32
-4.09926e-32
-3.32979e-32
-2.34792e-32
-1.52893e-32
-4.3405e-32
-2.80847e-32
-1.99226e-32
-1.65717e-32
-2.18847e-32
-1.93255e-32
-5.63725e-32
-1.55709e-32
-9.07751e-33
-3.41276e-32
-4.13259e-33
-2.19662e-32
-5.77503e-33
)
;

boundaryField
{
    left
    {
        type            calculated;
        value           uniform 0;
    }
    right
    {
        type            calculated;
        value           uniform 0;
    }
    empty
    {
        type            empty;
        value           nonuniform 0();
    }
}


// ************************************************************************* //
