/*--------------------------------*- C++ -*----------------------------------*\
| =========                 |                                                 |
| \\      /  F ield         | OpenFOAM: The Open Source CFD Toolbox           |
|  \\    /   O peration     | Version:  v1706                                 |
|   \\  /    A nd           | Web:      www.OpenFOAM.com                      |
|    \\/     M anipulation  |                                                 |
\*---------------------------------------------------------------------------*/
FoamFile
{
    version     2.0;
    format      ascii;
    class       volVectorField;
    location    "200";
    object      U;
}
// * * * * * * * * * * * * * * * * * * * * * * * * * * * * * * * * * * * * * //

dimensions      [0 1 -1 0 0 0 0];


internalField   nonuniform List<vector> 
800
(
(-1.47393e-33 0 0)
(1.69533e-32 0 0)
(3.43136e-32 0 0)
(3.1677e-32 0 0)
(3.40468e-32 0 0)
(3.4251e-32 0 0)
(3.41583e-32 0 0)
(3.41666e-32 0 0)
(3.41653e-32 0 0)
(3.41655e-32 0 0)
(3.41662e-32 0 0)
(3.41658e-32 0 0)
(3.41656e-32 0 0)
(3.41656e-32 0 0)
(3.41656e-32 0 0)
(3.41656e-32 0 0)
(3.41656e-32 0 0)
(3.41656e-32 0 0)
(3.41656e-32 0 0)
(3.41656e-32 0 0)
(3.41656e-32 0 0)
(3.41656e-32 0 0)
(3.41656e-32 0 0)
(3.41656e-32 0 0)
(3.41656e-32 0 0)
(3.41656e-32 0 0)
(3.41656e-32 0 0)
(3.41656e-32 0 0)
(3.41656e-32 0 0)
(3.41656e-32 0 0)
(3.41656e-32 0 0)
(3.41656e-32 0 0)
(3.41656e-32 0 0)
(3.41656e-32 0 0)
(3.41656e-32 0 0)
(3.41656e-32 0 0)
(3.41656e-32 0 0)
(3.41656e-32 0 0)
(3.41656e-32 0 0)
(3.41656e-32 0 0)
(3.41656e-32 0 0)
(3.41656e-32 0 0)
(3.41656e-32 0 0)
(3.41656e-32 0 0)
(3.41656e-32 0 0)
(3.41656e-32 0 0)
(3.41656e-32 0 0)
(3.41656e-32 0 0)
(3.41656e-32 0 0)
(3.41656e-32 0 0)
(3.41656e-32 0 0)
(3.41656e-32 0 0)
(3.41656e-32 0 0)
(3.41656e-32 0 0)
(3.41656e-32 0 0)
(3.41656e-32 0 0)
(3.41656e-32 0 0)
(3.41656e-32 0 0)
(3.41656e-32 0 0)
(3.41656e-32 0 0)
(3.41656e-32 0 0)
(3.41656e-32 0 0)
(3.41656e-32 0 0)
(3.41656e-32 0 0)
(3.41656e-32 0 0)
(3.41656e-32 0 0)
(3.41656e-32 0 0)
(3.41656e-32 0 0)
(3.41656e-32 0 0)
(3.41656e-32 0 0)
(3.41656e-32 0 0)
(3.41656e-32 0 0)
(3.41656e-32 0 0)
(3.41656e-32 0 0)
(3.41656e-32 0 0)
(3.41656e-32 0 0)
(3.41656e-32 0 0)
(3.41656e-32 0 0)
(3.41656e-32 0 0)
(3.41656e-32 0 0)
(3.41656e-32 0 0)
(3.41656e-32 0 0)
(3.41656e-32 0 0)
(3.41656e-32 0 0)
(3.41656e-32 0 0)
(3.41656e-32 0 0)
(3.41656e-32 0 0)
(3.41656e-32 0 0)
(3.41656e-32 0 0)
(3.41656e-32 0 0)
(3.41656e-32 0 0)
(3.41656e-32 0 0)
(3.41656e-32 0 0)
(3.41656e-32 0 0)
(3.41656e-32 0 0)
(3.41656e-32 0 0)
(3.41656e-32 0 0)
(3.41656e-32 0 0)
(3.41656e-32 0 0)
(3.41656e-32 0 0)
(3.41656e-32 0 0)
(3.41656e-32 0 0)
(3.41656e-32 0 0)
(3.41656e-32 0 0)
(3.41656e-32 0 0)
(3.41656e-32 0 0)
(3.41656e-32 0 0)
(3.41656e-32 0 0)
(3.41656e-32 0 0)
(3.41656e-32 0 0)
(3.41656e-32 0 0)
(3.41656e-32 0 0)
(3.41656e-32 0 0)
(3.41656e-32 0 0)
(3.41656e-32 0 0)
(3.41656e-32 0 0)
(3.41656e-32 0 0)
(3.41656e-32 0 0)
(3.41656e-32 0 0)
(3.41656e-32 0 0)
(3.41656e-32 0 0)
(3.41656e-32 0 0)
(3.41656e-32 0 0)
(3.41656e-32 0 0)
(3.41656e-32 0 0)
(3.41656e-32 0 0)
(3.41656e-32 0 0)
(3.41656e-32 0 0)
(3.41656e-32 0 0)
(3.41656e-32 0 0)
(3.41656e-32 0 0)
(3.41656e-32 0 0)
(3.41656e-32 0 0)
(3.41656e-32 0 0)
(3.41656e-32 0 0)
(3.41656e-32 0 0)
(3.41656e-32 0 0)
(3.41656e-32 0 0)
(3.41656e-32 0 0)
(3.41656e-32 0 0)
(3.41656e-32 0 0)
(3.41656e-32 0 0)
(3.41656e-32 0 0)
(3.41656e-32 0 0)
(3.41656e-32 0 0)
(3.41656e-32 0 0)
(3.41656e-32 0 0)
(3.41656e-32 0 0)
(3.41656e-32 0 0)
(3.41656e-32 0 0)
(3.41656e-32 0 0)
(3.41656e-32 0 0)
(3.41656e-32 0 0)
(3.41656e-32 0 0)
(3.41656e-32 0 0)
(3.41656e-32 0 0)
(3.41656e-32 0 0)
(3.41656e-32 0 0)
(3.41656e-32 0 0)
(3.41656e-32 0 0)
(3.41656e-32 0 0)
(3.41656e-32 0 0)
(3.41656e-32 0 0)
(3.41656e-32 0 0)
(3.41656e-32 0 0)
(3.41656e-32 0 0)
(3.41656e-32 0 0)
(3.41656e-32 0 0)
(3.41656e-32 0 0)
(3.41656e-32 0 0)
(3.41656e-32 0 0)
(3.41656e-32 0 0)
(3.41656e-32 0 0)
(3.41656e-32 0 0)
(3.41656e-32 0 0)
(3.41656e-32 0 0)
(3.41656e-32 0 0)
(3.41656e-32 0 0)
(3.41656e-32 0 0)
(3.41656e-32 0 0)
(3.41656e-32 0 0)
(3.41656e-32 0 0)
(3.41656e-32 0 0)
(3.41656e-32 0 0)
(3.41656e-32 0 0)
(3.41656e-32 0 0)
(3.41656e-32 0 0)
(3.41656e-32 0 0)
(3.41656e-32 0 0)
(3.41656e-32 0 0)
(3.41656e-32 0 0)
(3.41656e-32 0 0)
(3.41656e-32 0 0)
(3.41656e-32 0 0)
(3.41656e-32 0 0)
(3.41656e-32 0 0)
(3.41656e-32 0 0)
(3.41656e-32 0 0)
(3.41656e-32 0 0)
(3.41656e-32 0 0)
(3.41656e-32 0 0)
(3.41656e-32 0 0)
(3.41656e-32 0 0)
(3.41656e-32 0 0)
(3.41656e-32 0 0)
(3.41656e-32 0 0)
(3.41656e-32 0 0)
(3.41656e-32 0 0)
(3.41656e-32 0 0)
(3.41656e-32 0 0)
(3.41656e-32 0 0)
(3.41656e-32 0 0)
(3.41656e-32 0 0)
(3.41656e-32 0 0)
(3.41656e-32 0 0)
(3.41656e-32 0 0)
(3.41656e-32 0 0)
(3.41656e-32 0 0)
(3.41656e-32 0 0)
(3.41656e-32 0 0)
(3.41656e-32 0 0)
(3.41656e-32 0 0)
(3.41656e-32 0 0)
(3.41656e-32 0 0)
(3.41656e-32 0 0)
(3.41656e-32 0 0)
(3.41656e-32 0 0)
(3.41656e-32 0 0)
(3.41656e-32 0 0)
(3.41656e-32 0 0)
(3.41656e-32 0 0)
(3.41656e-32 0 0)
(3.41656e-32 0 0)
(3.41656e-32 0 0)
(3.41656e-32 0 0)
(3.41656e-32 0 0)
(3.41656e-32 0 0)
(3.41656e-32 0 0)
(3.41656e-32 0 0)
(3.41656e-32 0 0)
(3.41656e-32 0 0)
(3.41656e-32 0 0)
(3.41656e-32 0 0)
(3.41656e-32 0 0)
(3.41656e-32 0 0)
(3.41656e-32 0 0)
(3.41656e-32 0 0)
(3.41656e-32 0 0)
(3.41656e-32 0 0)
(3.41656e-32 0 0)
(3.41656e-32 0 0)
(3.41656e-32 0 0)
(3.41656e-32 0 0)
(3.41656e-32 0 0)
(3.41656e-32 0 0)
(3.41656e-32 0 0)
(3.41656e-32 0 0)
(3.41656e-32 0 0)
(3.41656e-32 0 0)
(3.41656e-32 0 0)
(3.41656e-32 0 0)
(3.41656e-32 0 0)
(3.41656e-32 0 0)
(3.41656e-32 0 0)
(3.41656e-32 0 0)
(3.41656e-32 0 0)
(3.41656e-32 0 0)
(3.41656e-32 0 0)
(3.41656e-32 0 0)
(3.41656e-32 0 0)
(3.41656e-32 0 0)
(3.41657e-32 0 0)
(3.41658e-32 0 0)
(3.4166e-32 0 0)
(3.41665e-32 0 0)
(3.41677e-32 0 0)
(3.41706e-32 0 0)
(3.41775e-32 0 0)
(3.41938e-32 0 0)
(3.42329e-32 0 0)
(3.43257e-32 0 0)
(3.45387e-32 0 0)
(3.50136e-32 0 0)
(3.60891e-32 0 0)
(3.86345e-32 0 0)
(4.45158e-32 0 0)
(5.64134e-32 0 0)
(7.73078e-32 0 0)
(1.18674e-31 0 0)
(2.31135e-31 0 0)
(4.93662e-31 0 0)
(6.91204e-31 0 0)
(-3.14452e-31 0 0)
(-3.34879e-30 0 0)
(-2.79045e-30 0 0)
(6.66694e-30 0 0)
(-5.97154e-29 0 0)
(-5.35811e-28 0 0)
(-1.59658e-27 0 0)
(-1.36425e-27 0 0)
(2.75158e-27 0 0)
(-9.14137e-27 0 0)
(-1.1561e-25 0 0)
(-3.11291e-25 0 0)
(-5.80462e-25 0 0)
(-5.80367e-25 0 0)
(1.56018e-24 0 0)
(3.80301e-24 0 0)
(-4.94617e-23 0 0)
(-1.55904e-22 0 0)
(-5.24048e-22 0 0)
(4.39134e-22 0 0)
(4.85635e-21 0 0)
(3.40747e-21 0 0)
(-2.13603e-20 0 0)
(-1.01923e-19 0 0)
(1.37505e-19 0 0)
(3.00882e-19 0 0)
(-2.07293e-18 0 0)
(-6.51655e-18 0 0)
(2.73584e-17 0 0)
(-1.96694e-17 0 0)
(-1.09432e-17 0 0)
(-1.19379e-18 0 0)
(3.50071e-17 0 0)
(-3.67128e-17 0 0)
(3.02179e-17 0 0)
(-2.25979e-17 0 0)
(4.03829e-18 0 0)
(9.42146e-18 0 0)
(-8.98686e-18 0 0)
(-1.19432e-17 0 0)
(2.90077e-17 0 0)
(-1.92218e-17 0 0)
(2.31531e-18 0 0)
(8.74358e-19 0 0)
(-1.07116e-17 0 0)
(3.83817e-17 0 0)
(-4.06222e-17 0 0)
(1.82481e-17 0 0)
(-6.44056e-18 0 0)
(3.11458e-18 0 0)
(-8.24958e-19 0 0)
(-1.52449e-17 0 0)
(3.73357e-17 0 0)
(-2.89086e-17 0 0)
(-8.23101e-19 0 0)
(9.68038e-18 0 0)
(6.9055e-18 0 0)
(-5.54501e-18 0 0)
(-1.91715e-17 0 0)
(2.38804e-17 0 0)
(-6.00966e-18 0 0)
(-1.49051e-17 0 0)
(3.01699e-17 0 0)
(-3.58224e-17 0 0)
(2.6749e-17 0 0)
(-7.9447e-18 0 0)
(8.31226e-19 0 0)
(-3.07615e-19 0 0)
(-3.11187e-18 0 0)
(4.24493e-18 0 0)
(-1.14326e-17 0 0)
(2.21845e-17 0 0)
(-1.38819e-17 0 0)
(-7.46748e-18 0 0)
(1.04713e-17 0 0)
(2.89976e-18 0 0)
(-4.46991e-18 0 0)
(-8.7965e-18 0 0)
(1.37475e-17 0 0)
(-1.65623e-17 0 0)
(2.5031e-17 0 0)
(-1.71806e-17 0 0)
(2.18847e-17 0 0)
(-4.22584e-17 0 0)
(3.179e-17 0 0)
(-2.26253e-17 0 0)
(2.87365e-17 0 0)
(-5.52303e-18 0 0)
(-2.86215e-17 0 0)
(3.96704e-17 0 0)
(-3.01038e-17 0 0)
(1.04533e-17 0 0)
(-4.05624e-18 0 0)
(6.97269e-18 0 0)
(4.89741e-18 0 0)
(-1.22845e-17 0 0)
(-2.75678e-18 0 0)
(-3.28486e-18 0 0)
(2.57006e-17 0 0)
(-4.53262e-18 0 0)
(-1.79052e-17 0 0)
(1.30707e-17 0 0)
(-2.68625e-17 0 0)
(1.62865e-17 0 0)
(2.44983e-17 0 0)
(-8.38916e-18 0 0)
(-2.75457e-17 0 0)
(5.97762e-18 0 0)
(3.3628e-17 0 0)
(-3.65104e-17 0 0)
(-2.70635e-18 0 0)
(2.90623e-17 0 0)
(-1.44266e-17 0 0)
(6.88292e-18 0 0)
(-1.08814e-17 0 0)
(3.74304e-18 0 0)
(4.27532e-18 0 0)
(-7.50837e-18 0 0)
(1.35644e-18 0 0)
(1.32904e-17 0 0)
(-1.41999e-17 0 0)
(8.70697e-18 0 0)
(-1.2611e-17 0 0)
(3.64548e-18 0 0)
(4.31162e-18 0 0)
(3.69579e-18 0 0)
(1.83455e-18 0 0)
(-1.04908e-17 0 0)
(1.77446e-17 0 0)
(-2.85043e-17 0 0)
(2.35968e-17 0 0)
(-1.17985e-17 0 0)
(-6.31896e-18 0 0)
(1.41214e-17 0 0)
(5.39301e-18 0 0)
(-1.46703e-17 0 0)
(2.3139e-18 0 0)
(1.53263e-17 0 0)
(-2.16264e-17 0 0)
(2.89216e-18 0 0)
(3.45656e-18 0 0)
(1.35761e-17 0 0)
(-1.13438e-17 0 0)
(-3.33176e-18 0 0)
(2.07271e-17 0 0)
(-4.85641e-17 0 0)
(6.73596e-17 0 0)
(-5.42302e-17 0 0)
(5.67394e-18 0 0)
(3.15085e-17 0 0)
(-2.02199e-17 0 0)
(5.18231e-18 0 0)
(-9.90246e-18 0 0)
(4.08808e-18 0 0)
(-1.12405e-17 0 0)
(3.43737e-17 0 0)
(-1.77442e-17 0 0)
(-4.55672e-18 0 0)
(-8.39183e-18 0 0)
(2.12117e-17 0 0)
(-2.1224e-17 0 0)
(1.16244e-17 0 0)
(-5.06102e-18 0 0)
(1.15753e-17 0 0)
(-2.09751e-17 0 0)
(3.13048e-17 0 0)
(-2.70103e-17 0 0)
(-8.34477e-20 0 0)
(2.91756e-17 0 0)
(-4.63511e-17 0 0)
(4.81742e-17 0 0)
(-4.16806e-17 0 0)
(2.85564e-17 0 0)
(-2.13406e-18 0 0)
(-1.0889e-17 0 0)
(1.43474e-17 0 0)
(-2.31261e-17 0 0)
(1.0341e-18 0 0)
(2.77665e-17 0 0)
(-2.4667e-17 0 0)
(1.94225e-17 0 0)
(-1.06878e-17 0 0)
(-1.2751e-17 0 0)
(1.74233e-17 0 0)
(-1.71548e-18 0 0)
(2.71229e-19 0 0)
(-2.05548e-17 0 0)
(2.74401e-17 0 0)
(-8.13129e-18 0 0)
(-2.95671e-18 0 0)
(5.04233e-19 0 0)
(3.66319e-19 0 0)
(1.07964e-20 0 0)
(-3.60998e-20 0 0)
(-7.8749e-21 0 0)
(2.27418e-21 0 0)
(1.24537e-21 0 0)
(-2.59477e-24 0 0)
(-1.29172e-22 0 0)
(-2.36985e-23 0 0)
(8.8812e-24 0 0)
(4.0421e-24 0 0)
(-1.66838e-25 0 0)
(-4.38227e-25 0 0)
(-6.19725e-26 0 0)
(3.28842e-26 0 0)
(1.20921e-26 0 0)
(-1.08358e-27 0 0)
(-1.40423e-27 0 0)
(-1.52373e-28 0 0)
(1.14456e-28 0 0)
(3.84549e-29 0 0)
(-4.13449e-30 0 0)
(-5.1464e-30 0 0)
(-6.76422e-31 0 0)
(4.49817e-31 0 0)
(1.78383e-31 0 0)
(-2.47334e-32 0 0)
(-3.73413e-32 0 0)
(-1.29908e-32 0 0)
(-5.86242e-33 0 0)
(-7.52536e-33 0 0)
(-8.86962e-33 0 0)
(-8.88714e-33 0 0)
(-8.81235e-33 0 0)
(-8.65762e-33 0 0)
(-8.69738e-33 0 0)
(-8.65542e-33 0 0)
(-8.77265e-33 0 0)
(-8.683e-33 0 0)
(-8.71399e-33 0 0)
(-8.75505e-33 0 0)
(-8.6348e-33 0 0)
(-8.77091e-33 0 0)
(-8.6924e-33 0 0)
(-8.73474e-33 0 0)
(-8.63656e-33 0 0)
(-8.78953e-33 0 0)
(-8.64579e-33 0 0)
(-8.69375e-33 0 0)
(-8.76336e-33 0 0)
(-8.66854e-33 0 0)
(-8.72141e-33 0 0)
(-8.73835e-33 0 0)
(-8.66076e-33 0 0)
(-8.76004e-33 0 0)
(-8.63937e-33 0 0)
(-8.76537e-33 0 0)
(-8.66406e-33 0 0)
(-8.75741e-33 0 0)
(-8.75669e-33 0 0)
(-8.63824e-33 0 0)
(-8.69105e-33 0 0)
(-8.71555e-33 0 0)
(-8.75588e-33 0 0)
(-8.67054e-33 0 0)
(-8.72752e-33 0 0)
(-8.69701e-33 0 0)
(-8.73345e-33 0 0)
(-8.6102e-33 0 0)
(-8.76862e-33 0 0)
(-8.75115e-33 0 0)
(-8.63465e-33 0 0)
(-8.74753e-33 0 0)
(-8.71804e-33 0 0)
(-8.71066e-33 0 0)
(-8.62875e-33 0 0)
(-8.80562e-33 0 0)
(-8.63964e-33 0 0)
(-8.7707e-33 0 0)
(-8.62267e-33 0 0)
(-8.83007e-33 0 0)
(-8.63113e-33 0 0)
(-8.76114e-33 0 0)
(-8.66018e-33 0 0)
(-8.73716e-33 0 0)
(-8.63714e-33 0 0)
(-8.78366e-33 0 0)
(-8.69372e-33 0 0)
(-8.7214e-33 0 0)
(-8.69913e-33 0 0)
(-8.69063e-33 0 0)
(-8.72913e-33 0 0)
(-8.72611e-33 0 0)
(-8.63489e-33 0 0)
(-8.80244e-33 0 0)
(-8.5756e-33 0 0)
(-8.86193e-33 0 0)
(-8.59812e-33 0 0)
(-8.73832e-33 0 0)
(-8.72676e-33 0 0)
(-8.71955e-33 0 0)
(-8.76809e-33 0 0)
(-8.60155e-33 0 0)
(-8.74815e-33 0 0)
(-8.66194e-33 0 0)
(-8.73334e-33 0 0)
(-8.7871e-33 0 0)
(-8.75121e-33 0 0)
(-8.86409e-33 0 0)
(-8.96636e-33 0 0)
(-9.39961e-33 0 0)
(-9.41803e-33 0 0)
(-9.6418e-33 0 0)
(-2.17169e-33 0 0)
(1.21728e-32 0 0)
(8.55158e-32 0 0)
(2.25777e-31 0 0)
(8.24854e-31 0 0)
(1.93442e-30 0 0)
(6.75001e-30 0 0)
(1.30746e-29 0 0)
(3.25843e-29 0 0)
(2.91697e-29 0 0)
(3.76969e-29 0 0)
(-2.07606e-28 0 0)
(-9.98305e-31 0 0)
(-1.80772e-27 0 0)
(-4.10623e-27 0 0)
(-3.31351e-26 0 0)
(-1.05222e-25 0 0)
(-3.54714e-25 0 0)
(-4.11213e-25 0 0)
(-7.91918e-25 0 0)
(1.07324e-24 0 0)
(-3.78985e-24 0 0)
(-2.45144e-23 0 0)
(-1.13439e-22 0 0)
(-7.2493e-23 0 0)
(1.9819e-22 0 0)
(2.94352e-21 0 0)
(5.04036e-21 0 0)
(-2.97269e-21 0 0)
(-6.69612e-20 0 0)
(-1.85764e-19 0 0)
(-4.48762e-19 0 0)
(4.4595e-19 0 0)
(3.96677e-18 0 0)
(4.03904e-18 0 0)
(-2.03115e-17 0 0)
(3.10721e-18 0 0)
(1.88645e-17 0 0)
(-7.74168e-18 0 0)
(-2.28221e-18 0 0)
(3.1191e-19 0 0)
(2.27355e-19 0 0)
(-2.72194e-20 0 0)
(-4.83184e-21 0 0)
(5.01236e-22 0 0)
(1.67469e-22 0 0)
(-1.86524e-22 0 0)
(-4.86505e-23 0 0)
(-1.29246e-23 0 0)
(-5.35791e-24 0 0)
(-2.48095e-24 0 0)
(-8.37736e-25 0 0)
(-2.94535e-25 0 0)
(-1.09255e-25 0 0)
(-4.05105e-26 0 0)
(-1.44165e-26 0 0)
(-5.17206e-27 0 0)
(-1.8649e-27 0 0)
(-6.69645e-28 0 0)
(-2.38598e-28 0 0)
(-8.49045e-29 0 0)
(-3.01261e-29 0 0)
(-1.06372e-29 0 0)
(-3.73448e-30 0 0)
(-1.30371e-30 0 0)
(-4.52036e-31 0 0)
(-1.55393e-31 0 0)
(-5.29241e-32 0 0)
(-1.77785e-32 0 0)
(-5.9669e-33 0 0)
(-1.91187e-33 0 0)
(-6.45885e-34 0 0)
(-2.09568e-34 0 0)
(-1.01948e-34 0 0)
(-5.32194e-35 0 0)
(-3.90913e-35 0 0)
(-8.81927e-36 0 0)
(-7.01423e-35 0 0)
(4.26621e-35 0 0)
(-1.00764e-34 0 0)
(-4.28683e-36 0 0)
(-4.89907e-35 0 0)
(-7.93627e-35 0 0)
(3.69531e-35 0 0)
(-5.49223e-35 0 0)
(-2.04234e-36 0 0)
(-4.19403e-35 0 0)
(-1.6017e-35 0 0)
(-5.49958e-35 0 0)
(-2.33556e-35 0 0)
(-1.46013e-35 0 0)
(-8.28692e-35 0 0)
(1.33124e-35 0 0)
(-5.10523e-35 0 0)
(-6.79091e-36 0 0)
(-3.58503e-35 0 0)
(-1.6078e-35 0 0)
(-7.10559e-35 0 0)
(-1.19255e-35 0 0)
(-3.23991e-35 0 0)
(-2.53471e-36 0 0)
(-8.35483e-35 0 0)
(-2.30257e-35 0 0)
(3.20064e-35 0 0)
(-5.2479e-35 0 0)
(-3.41505e-35 0 0)
(-3.04159e-35 0 0)
(-4.76651e-35 0 0)
(-2.40851e-35 0 0)
(-5.27815e-35 0 0)
(-1.62042e-35 0 0)
(-1.50042e-35 0 0)
(-9.03504e-35 0 0)
(-3.37814e-35 0 0)
(3.73937e-35 0 0)
(-4.1545e-35 0 0)
(-5.25224e-35 0 0)
(-2.99653e-36 0 0)
(-5.85447e-35 0 0)
(-5.6411e-35 0 0)
(-1.68014e-35 0 0)
(-4.95053e-36 0 0)
(-1.92e-35 0 0)
(-5.52276e-35 0 0)
(1.4389e-35 0 0)
(-1.16311e-34 0 0)
(6.31538e-35 0 0)
(-4.42981e-35 0 0)
(-1.86457e-35 0 0)
(-9.31857e-35 0 0)
(3.28177e-35 0 0)
(-1.53529e-34 0 0)
(6.49455e-35 0 0)
(-5.35341e-35 0 0)
(-7.8139e-36 0 0)
(-3.88426e-35 0 0)
(-4.93119e-35 0 0)
(2.84805e-35 0 0)
(-1.01545e-34 0 0)
(5.42791e-35 0 0)
(-9.88358e-35 0 0)
(-1.72821e-36 0 0)
(-6.27808e-35 0 0)
(-1.30133e-35 0 0)
(-1.04074e-34 0 0)
(5.97713e-35 0 0)
(-4.6307e-35 0 0)
(-8.47997e-35 0 0)
(5.36484e-35 0 0)
(-8.76023e-35 0 0)
(-1.1989e-36 0 0)
(-2.89455e-35 0 0)
(-5.53482e-35 0 0)
(-1.45521e-36 0 0)
(-9.77309e-35 0 0)
(4.28244e-35 0 0)
(-5.72181e-35 0 0)
(-8.83424e-36 0 0)
(-8.42928e-35 0 0)
(2.34691e-35 0 0)
(-7.96528e-35 0 0)
(-4.2588e-36 0 0)
(-6.34691e-35 0 0)
(1.6163e-35 0 0)
(-2.59649e-35 0 0)
(-3.59051e-35 0 0)
(-2.00838e-35 0 0)
(-1.12057e-34 0 0)
(1.27182e-35 0 0)
(-5.52506e-35 0 0)
(1.24068e-35 0 0)
(-4.67178e-35 0 0)
(-1.47322e-35 0 0)
(-8.34913e-35 0 0)
(4.54029e-35 0 0)
(-1.01856e-34 0 0)
(3.39211e-36 0 0)
(-5.38441e-35 0 0)
(3.6052e-36 0 0)
(-1.44101e-35 0 0)
(-2.54982e-35 0 0)
(-8.3486e-35 0 0)
(-8.25381e-36 0 0)
(-1.90933e-35 0 0)
(1.0426e-35 0 0)
(-1.2582e-34 0 0)
(3.67069e-35 0 0)
(-4.60083e-35 0 0)
(1.56512e-35 0 0)
(-9.95698e-35 0 0)
(-7.45824e-36 0 0)
(-6.16378e-35 0 0)
(-3.19729e-35 0 0)
(4.41285e-35 0 0)
(-1.17659e-34 0 0)
(4.24821e-35 0 0)
(-1.09372e-34 0 0)
(-1.34242e-35 0 0)
(-1.74139e-36 0 0)
(-1.0091e-34 0 0)
(5.20203e-35 0 0)
(1.28608e-35 0 0)
(-7.01414e-35 0 0)
(1.46824e-35 0 0)
)
;

boundaryField
{
    left
    {
        type            noSlip;
    }
    right
    {
        type            noSlip;
    }
    empty
    {
        type            empty;
    }
}


// ************************************************************************* //
