/*--------------------------------*- C++ -*----------------------------------*\
| =========                 |                                                 |
| \\      /  F ield         | OpenFOAM: The Open Source CFD Toolbox           |
|  \\    /   O peration     | Version:  2106                                  |
|   \\  /    A nd           | Website:  www.openfoam.com                      |
|    \\/     M anipulation  |                                                 |
\*---------------------------------------------------------------------------*/
FoamFile
{
    version     2.0;
    format      ascii;
    arch        "LSB;label=32;scalar=64";
    class       surfaceScalarField;
    location    "0.21";
    object      phi;
}
// * * * * * * * * * * * * * * * * * * * * * * * * * * * * * * * * * * * * * //

dimensions      [0 3 -1 0 0 0 0];

oriented        oriented;

internalField   nonuniform List<scalar> 
18840
(
3.3754304615e-05
1.62456953796e-05
2.25359624611e-05
1.12183417377e-05
1.63023780093e-05
6.23358464447e-06
1.28098253968e-05
3.49255297394e-06
1.08065800529e-05
2.00324511343e-06
9.6047690892e-06
1.20181090661e-06
8.85167852059e-06
7.53090548044e-07
8.36503064807e-06
4.86647789463e-07
8.04518604252e-06
3.19844552031e-07
7.83374199374e-06
2.11444172785e-07
7.69428220373e-06
1.39459909311e-07
7.60308064032e-06
9.12015674696e-08
7.54426584691e-06
5.88148133253e-08
7.50707769911e-06
3.71882753093e-08
7.48418985762e-06
2.28880118504e-08
7.47062436577e-06
1.35656029163e-08
7.46302182256e-06
7.60255075314e-09
7.45913902263e-06
3.88266658916e-09
7.45749923586e-06
1.6395974957e-09
7.45714616906e-06
3.52985841702e-10
7.45748358093e-06
-3.3738892808e-10
7.45813472906e-06
-6.51067648748e-10
7.45888680334e-06
-7.52010298431e-10
7.4596205374e-06
-7.3372333901e-10
7.46027701794e-06
-6.56484718372e-10
7.46083352805e-06
-5.56495588883e-10
7.46128774905e-06
-4.5425721565e-10
7.46164793291e-06
-3.60279729663e-10
7.46192709801e-06
-2.79159429396e-10
7.46213935765e-06
-2.12155162695e-10
7.46229793614e-06
-1.58558824357e-10
7.4624145362e-06
-1.16699044608e-10
7.46249903758e-06
-8.46464662573e-11
7.46255946442e-06
-6.05505114737e-11
7.46260211423e-06
-4.2732377573e-11
7.46263181519e-06
-2.97370865135e-11
7.46265222666e-06
-2.03895981369e-11
7.46266605468e-06
-1.37734956013e-11
7.46267528735e-06
-9.18030999493e-12
7.46268130629e-06
-6.00389041669e-12
7.46268523855e-06
-3.8292689502e-12
7.46268789809e-06
-2.46609608786e-12
7.46268955704e-06
-1.54922367262e-12
7.46269049416e-06
-9.20917910002e-13
7.46269105309e-06
-5.46395616581e-13
7.46269141509e-06
-3.53275631056e-13
7.46269163835e-06
-2.66966054269e-13
7.46269180537e-06
-2.06292119051e-13
7.46269200592e-06
-1.75414947072e-13
7.46269224243e-06
-2.01363214056e-13
7.46269250689e-06
-2.80169208368e-13
7.46269278306e-06
-3.66668553226e-13
7.46269308383e-06
-3.86381266475e-13
7.46269349945e-06
-3.55501423259e-13
7.46269399139e-06
-3.44828758096e-13
7.4626944729e-06
-3.49375205468e-13
7.46269498618e-06
-3.72881412246e-13
7.4626955344e-06
-4.41771527882e-13
7.46269605937e-06
-4.98031393311e-13
7.46269658189e-06
-4.81380888046e-13
7.46269715552e-06
-4.63017752112e-13
7.46269772918e-06
-5.16930693034e-13
7.46269826083e-06
-5.93532523744e-13
7.4626988265e-06
-6.41964918615e-13
7.46269944442e-06
-6.78056218408e-13
7.46270007655e-06
-7.07512732981e-13
7.4627007521e-06
-7.38781053232e-13
7.46270145809e-06
-7.77038455591e-13
7.46270219428e-06
-8.1750240951e-13
7.4627029689e-06
-8.87903105376e-13
7.46270373969e-06
-9.7630645203e-13
7.46270455456e-06
-1.02371339778e-12
7.46270548414e-06
-1.03877600634e-12
7.46270650235e-06
-1.06670194579e-12
7.46270756301e-06
-1.10379009669e-12
7.46270868372e-06
-1.1461042951e-12
7.46270984437e-06
-1.20742868631e-12
7.46271097951e-06
-1.26316570829e-12
7.46271216041e-06
-1.31478481181e-12
7.4627134599e-06
-1.38852006241e-12
7.46271483921e-06
-1.43357091553e-12
7.46271631078e-06
-1.42458860981e-12
7.46271787356e-06
-1.44840166284e-12
7.4627194723e-06
-1.55479699812e-12
7.46272113707e-06
-1.69759456559e-12
7.46272287459e-06
-1.79594034091e-12
7.46272467621e-06
-1.78746328904e-12
7.46272660944e-06
-1.75299308662e-12
7.46272858933e-06
-1.82446623733e-12
7.46273046631e-06
-1.93950282636e-12
7.46273234854e-06
-1.99680071472e-12
7.46273438262e-06
-2.05136262704e-12
7.462736498e-06
-2.13086772756e-12
7.46273865079e-06
-2.17367957852e-12
7.46274092494e-06
-2.20784273738e-12
7.4627433094e-06
-2.32195221874e-12
7.46274575691e-06
-2.48516796854e-12
7.46274835542e-06
-2.62028806589e-12
7.46275117572e-06
-2.73948075344e-12
7.46275417884e-06
-2.87624391716e-12
7.46275739511e-06
-3.07055595057e-12
7.46276087705e-06
-3.41151952911e-12
7.46276462235e-06
-3.86006770277e-12
7.46276882413e-06
-4.35686321628e-12
7.46277368273e-06
-4.94912804458e-12
7.46277924899e-06
-5.65981892834e-12
7.46278565618e-06
-6.48222208639e-12
7.46279317356e-06
-7.516338937e-12
7.46280203296e-06
-8.8933777965e-12
7.46281245712e-06
-1.05751622939e-11
7.46282495646e-06
-1.25526198834e-11
7.46284002724e-06
-1.49847370597e-11
7.462858272e-06
-1.80415317264e-11
7.46288053695e-06
-2.1980155325e-11
7.46290758384e-06
-2.69961047731e-11
7.46294060411e-06
-3.31929551153e-11
7.46298107032e-06
-4.06985729504e-11
7.46303082063e-06
-4.98168154205e-11
7.46309219766e-06
-6.1205989849e-11
7.46316782911e-06
-7.54938545304e-11
7.46326114085e-06
-9.31958983356e-11
7.46337632873e-06
-1.15090452999e-10
7.46351889281e-06
-1.42555781153e-10
7.46369678081e-06
-1.7811603941e-10
7.46391860485e-06
-2.21995950534e-10
7.46418979992e-06
-2.71113541201e-10
7.46452455129e-06
-3.34635225758e-10
7.46493902923e-06
-4.14147714675e-10
7.46545227321e-06
-5.13003035691e-10
7.46608776444e-06
-6.35523862322e-10
7.46687492616e-06
-7.87170589663e-10
7.4678500287e-06
-9.74971775531e-10
7.46905785672e-06
-1.20770705238e-09
7.47055416445e-06
-1.49621838516e-09
7.47240813907e-06
-1.85400609626e-09
7.47470549428e-06
-2.29766263877e-09
7.47755336366e-06
-2.84790802607e-09
7.48108462699e-06
-3.53098594647e-09
7.48546437151e-06
-4.37964614852e-09
7.49089873449e-06
-5.43460879517e-09
7.49764550467e-06
-6.74714945664e-09
7.50602722194e-06
-8.38197952191e-09
7.51644869964e-06
-1.04213730018e-08
7.5294197304e-06
-1.29706720544e-08
7.54558465231e-06
-1.61647036919e-08
7.56576296235e-06
-2.0178005467e-08
7.59100254678e-06
-2.52393775782e-08
7.62265394556e-06
-3.16516694532e-08
7.66247563961e-06
-3.98221012471e-08
7.71278550256e-06
-5.03101227461e-08
7.77669132676e-06
-6.39062024443e-08
7.85846928513e-06
-8.17784924757e-08
7.96426298468e-06
-1.0579377905e-07
8.10360199024e-06
-1.39339032891e-07
8.29329768459e-06
-1.89696019454e-07
8.56846698432e-06
-2.7516908265e-07
9.0152589851e-06
-4.46791873701e-07
9.87502279871e-06
-8.59763784123e-07
1.18913226567e-05
-2.01629903727e-06
-5.46970352571e-06
1.73610276155e-05
5.0138882071e-05
1.61068138862e-05
4.41591295862e-05
1.71980941026e-05
3.77598736833e-05
1.26328400999e-05
3.2649514705e-05
8.60291228771e-06
2.89465821574e-05
5.7061775781e-06
2.63676030371e-05
3.78078991735e-06
2.45938850629e-05
2.52680850831e-06
2.33783981505e-05
1.70213471174e-06
2.25473236074e-05
1.15091897082e-06
2.19811566598e-05
7.77611112376e-07
2.15978044744e-05
5.2281234333e-07
2.13405417302e-05
3.48464619835e-07
2.11699444562e-05
2.29412305413e-07
2.10585369157e-05
1.48595935488e-07
2.09871859597e-05
9.42389910687e-08
2.09426224395e-05
5.81290384942e-08
2.09157078702e-05
3.45170305492e-08
2.09002080468e-05
1.93824530239e-08
2.08919205348e-05
9.92704356748e-09
2.08880554075e-05
4.21805322335e-09
2.0886785785e-05
9.32191685748e-10
2.0886950843e-05
-8.16118000239e-10
2.08878292439e-05
-1.63033587135e-09
2.08889878174e-05
-1.8922351247e-09
2.08901812327e-05
-1.84990754271e-09
2.08912817933e-05
-1.65704432252e-09
2.08922333091e-05
-1.40573147069e-09
2.08930209692e-05
-1.14805124816e-09
2.08936525059e-05
-9.10900598756e-10
2.08941464195e-05
-7.06119870212e-10
2.08945247336e-05
-5.36828093233e-10
2.08948092772e-05
-4.01284034025e-10
2.08950198394e-05
-2.95404138613e-10
2.08951733863e-05
-2.14329024918e-10
2.08952838563e-05
-1.53318788293e-10
2.08953622893e-05
-1.0814391946e-10
2.08954172348e-05
-7.52109716075e-11
2.08954551812e-05
-5.1560428667e-11
2.08954810569e-05
-3.48474065928e-11
2.08954983641e-05
-2.32029644604e-11
2.08955096885e-05
-1.51219844412e-11
2.08955169793e-05
-9.58892585599e-12
2.0895521597e-05
-5.958538093e-12
2.08955244021e-05
-3.65934784947e-12
2.08955259924e-05
-2.1855786099e-12
2.0895526858e-05
-1.23463486102e-12
2.08955272865e-05
-6.83593439831e-13
2.08955275286e-05
-4.81141995168e-13
2.08955276734e-05
-3.8009020864e-13
2.08955277744e-05
-3.58320704677e-13
2.08955279006e-05
-4.01892490432e-13
2.08955280756e-05
-4.81934848435e-13
2.08955282274e-05
-5.23261087991e-13
2.08955284424e-05
-4.86053945203e-13
2.08955287942e-05
-4.51688011961e-13
2.08955291786e-05
-4.68886691085e-13
2.089552957e-05
-5.1994415578e-13
2.08955299958e-05
-6.32700396011e-13
2.08955303827e-05
-7.91143576033e-13
2.08955306923e-05
-8.95712203537e-13
2.08955310468e-05
-9.25918747722e-13
2.08955315028e-05
-9.62794854322e-13
2.08955319719e-05
-1.03337852481e-12
2.08955324477e-05
-1.11125986957e-12
2.08955329402e-05
-1.22133176065e-12
2.08955333918e-05
-1.36208470438e-12
2.08955338449e-05
-1.49264498308e-12
2.08955343236e-05
-1.58680844453e-12
2.08955348415e-05
-1.62254399171e-12
2.08955354633e-05
-1.64849931279e-12
2.08955361296e-05
-1.73671382718e-12
2.08955367759e-05
-1.84603552387e-12
2.0895537463e-05
-1.94846774235e-12
2.08955382306e-05
-2.04927006126e-12
2.0895539032e-05
-2.11476421309e-12
2.08955398918e-05
-2.13007681132e-12
2.08955408571e-05
-2.17510518279e-12
2.0895541813e-05
-2.28796583053e-12
2.08955427234e-05
-2.40868566945e-12
2.08955437252e-05
-2.50964569071e-12
2.0895544866e-05
-2.58595457979e-12
2.0895546125e-05
-2.62886765329e-12
2.08955474494e-05
-2.69949888496e-12
2.08955487476e-05
-2.84211692286e-12
2.08955501222e-05
-3.0312114145e-12
2.08955516691e-05
-3.23672149158e-12
2.08955532718e-05
-3.37423277828e-12
2.08955549618e-05
-3.41253603048e-12
2.08955568043e-05
-3.5011206377e-12
2.0895558626e-05
-3.71452346569e-12
2.08955603867e-05
-3.93131475626e-12
2.08955623029e-05
-4.0935737974e-12
2.08955644598e-05
-4.25392367807e-12
2.08955667921e-05
-4.41838048e-12
2.08955693494e-05
-4.62528775038e-12
2.08955721565e-05
-4.98686077593e-12
2.08955751685e-05
-5.49308665244e-12
2.08955785369e-05
-6.02479000794e-12
2.0895582461e-05
-6.58491986717e-12
2.08955869133e-05
-7.26113297486e-12
2.08955919619e-05
-8.09567667924e-12
2.08955978608e-05
-9.20993496381e-12
2.08956046713e-05
-1.06968308859e-11
2.08956125464e-05
-1.24914562268e-11
2.08956219165e-05
-1.46199158304e-11
2.08956331839e-05
-1.71902465078e-11
2.08956467308e-05
-2.02557971821e-11
2.08956631236e-05
-2.3925805751e-11
2.08956829277e-05
-2.84049660199e-11
2.0895706259e-05
-3.36355508993e-11
2.08957350728e-05
-4.12439649769e-11
2.08957709818e-05
-5.09504787994e-11
2.0895815176e-05
-6.24662856698e-11
2.0895869789e-05
-7.66039215563e-11
2.08959372463e-05
-9.4256341384e-11
2.08960205266e-05
-1.16239570595e-10
2.08961231847e-05
-1.43444737344e-10
2.08962497772e-05
-1.76919000108e-10
2.08964065339e-05
-2.1820864698e-10
2.08966006706e-05
-2.69393862451e-10
2.08968407085e-05
-3.32863249521e-10
2.08971371697e-05
-4.11415754591e-10
2.08975034831e-05
-5.08636894923e-10
2.08979549105e-05
-6.29186519501e-10
2.0898512258e-05
-7.79052253782e-10
2.08992069506e-05
-9.65567769984e-10
2.09000689633e-05
-1.19697830579e-09
2.09011378513e-05
-1.48345997961e-09
2.09024629432e-05
-1.83816113783e-09
2.09041049361e-05
-2.27744312065e-09
2.09061393107e-05
-2.82147490931e-09
2.09086599655e-05
-3.49542614089e-09
2.09117830349e-05
-4.33054379697e-09
2.09156525908e-05
-5.36552045031e-09
2.0920447782e-05
-6.64873923229e-09
2.09263902626e-05
-8.24015514702e-09
2.09337560637e-05
-1.02141331028e-08
2.09428887583e-05
-1.26639067847e-08
2.09542155802e-05
-1.57064218367e-08
2.09682690509e-05
-1.94880826618e-08
2.09857145589e-05
-2.41927385232e-08
2.10073847985e-05
-3.00525055494e-08
2.103432444e-05
-3.73617887938e-08
2.10678492499e-05
-4.64962827018e-08
2.11096222788e-05
-5.79384598409e-08
2.11617573389e-05
-7.23135487065e-08
2.12269592376e-05
-9.04411587158e-08
2.13087178643e-05
-1.13409910751e-07
2.14115874871e-05
-1.4269154067e-07
2.15416014158e-05
-1.80323983329e-07
2.17069178047e-05
-2.29221923061e-07
2.19188875815e-05
-2.93747551893e-07
2.21939496627e-05
-3.80855778836e-07
2.25572137939e-05
-5.02602584988e-07
2.304958766e-05
-6.82070057944e-07
2.37422942644e-05
-9.67876525577e-07
2.47645352034e-05
-1.46903263195e-06
2.63422050988e-05
-2.43743366638e-06
2.8787545781e-05
-4.46164032899e-06
-8.7409011848e-06
3.20587434599e-05
5.35844267608e-05
1.2522387333e-05
5.29166012346e-05
1.78659200467e-05
4.96393014674e-05
1.59101393881e-05
4.58382172252e-05
1.24039966701e-05
4.24428746948e-05
9.10152001414e-06
3.97331592361e-05
6.49050518895e-06
3.76912451457e-05
4.56872247396e-06
3.62011668464e-05
3.19221307556e-06
3.51355934521e-05
2.21649236453e-06
3.43848443896e-05
1.52836012839e-06
3.38626589576e-05
1.04499786911e-06
3.35040068073e-05
7.07117027254e-07
3.32609630049e-05
4.72456405761e-07
3.30987211534e-05
3.10838008182e-07
3.29922912607e-05
2.00668959458e-07
3.29239200777e-05
1.265001182e-07
3.28811300859e-05
7.73068290755e-08
3.28552514449e-05
4.52609834294e-08
3.28403349354e-05
2.48435306388e-08
3.28323550578e-05
1.21979766044e-08
3.282862925e-05
4.6580588856e-09
3.2827405388e-05
4.07768783155e-10
3.28275649025e-05
-1.78981590833e-09
3.28284110498e-05
-2.73834499636e-09
3.2829527172e-05
-2.96608811883e-09
3.28306768023e-05
-2.80678132557e-09
3.28317369614e-05
-2.46588356886e-09
3.2832653475e-05
-2.06452917346e-09
3.28334121192e-05
-1.66963802995e-09
3.28340204137e-05
-1.3145488264e-09
3.28344960698e-05
-1.01258750339e-09
3.28348603234e-05
-7.65610216268e-10
3.2835134277e-05
-5.69422282599e-10
3.28353370353e-05
-4.17138057001e-10
3.28354849255e-05
-3.01207850958e-10
3.28355912945e-05
-2.14477098528e-10
3.28356667404e-05
-1.50621060012e-10
3.28357194702e-05
-1.04278958254e-10
3.28357558707e-05
-7.11244359708e-11
3.28357806244e-05
-4.77825876629e-11
3.28357971215e-05
-3.15532145267e-11
3.28358079875e-05
-2.03969466531e-11
3.28358150564e-05
-1.29141730264e-11
3.28358195049e-05
-8.03632272496e-12
3.28358221891e-05
-4.88936466743e-12
3.28358238234e-05
-2.87880620164e-12
3.28358248272e-05
-1.65826072951e-12
3.28358253193e-05
-9.8022706958e-13
3.28358255092e-05
-6.42824395282e-13
3.28358255224e-05
-4.92006222085e-13
3.28358255203e-05
-4.59408431094e-13
3.28358255978e-05
-4.4878258844e-13
3.28358256947e-05
-4.53351390538e-13
3.28358257983e-05
-4.36680205258e-13
3.28358259791e-05
-4.42462352507e-13
3.28358261698e-05
-5.24846261137e-13
3.28358263415e-05
-6.35799716534e-13
3.28358265858e-05
-7.5687490591e-13
3.28358268924e-05
-9.2905704809e-13
3.28358271317e-05
-1.10608249504e-12
3.28358273374e-05
-1.22363780629e-12
3.28358276062e-05
-1.28643873821e-12
3.28358278969e-05
-1.36742284701e-12
3.2835828169e-05
-1.46347710428e-12
3.28358284639e-05
-1.597988795e-12
3.28358287731e-05
-1.77765752825e-12
3.28358291194e-05
-1.96436498279e-12
3.28358294821e-05
-2.13421183392e-12
3.28358297973e-05
-2.22729659171e-12
3.28358301327e-05
-2.232673053e-12
3.28358305528e-05
-2.30089947682e-12
3.283583099e-05
-2.41267637118e-12
3.28358314396e-05
-2.53061940901e-12
3.28358319605e-05
-2.66221589868e-12
3.28358325162e-05
-2.78981426078e-12
3.28358330749e-05
-2.86417686266e-12
3.28358337018e-05
-2.92109254913e-12
3.28358343611e-05
-3.02601107346e-12
3.28358350189e-05
-3.15152190174e-12
3.28358357729e-05
-3.2630328359e-12
3.28358366211e-05
-3.38278918298e-12
3.28358374967e-05
-3.51965455637e-12
3.28358384174e-05
-3.68422319854e-12
3.28358393577e-05
-3.87228497637e-12
3.28358403839e-05
-4.05570190467e-12
3.28358416185e-05
-4.26938694258e-12
3.28358429303e-05
-4.50897203867e-12
3.28358442402e-05
-4.68912639306e-12
3.28358456904e-05
-4.85905598061e-12
3.28358472536e-05
-5.13728020892e-12
3.28358488107e-05
-5.47765083999e-12
3.28358504783e-05
-5.7940687748e-12
3.28358523981e-05
-6.12595791951e-12
3.28358545279e-05
-6.52072375198e-12
3.28358568988e-05
-7.00751760174e-12
3.28358596364e-05
-7.67331891476e-12
3.28358627555e-05
-8.53118461427e-12
3.2835866289e-05
-9.47898010175e-12
3.28358703292e-05
-1.04854831932e-11
3.28358751296e-05
-1.19834218118e-11
3.28358808058e-05
-1.38867208279e-11
3.28358876339e-05
-1.61792661464e-11
3.28358958742e-05
-1.90716865579e-11
3.28359058008e-05
-2.26018116152e-11
3.28359179254e-05
-2.6859453113e-11
3.28359327834e-05
-3.209270778e-11
3.28359509099e-05
-3.85160249905e-11
3.28359731706e-05
-4.6357690304e-11
3.28360008885e-05
-5.6060334897e-11
3.28360356387e-05
-6.82082275559e-11
3.28360780186e-05
-8.34034282743e-11
3.28361296925e-05
-1.02382209664e-10
3.28361930541e-05
-1.25915992086e-10
3.28362710873e-05
-1.54931349432e-10
3.28363673962e-05
-1.90779760937e-10
3.28364864421e-05
-2.3516996036e-10
3.28366335672e-05
-2.90257517864e-10
3.28368151804e-05
-3.58484389626e-10
3.28370397482e-05
-4.42802982461e-10
3.28373176182e-05
-5.47200235601e-10
3.28376613516e-05
-6.76563024693e-10
3.28380863818e-05
-8.36668080252e-10
3.28386124348e-05
-1.03480983452e-09
3.28392637464e-05
-1.28039135128e-09
3.28400698214e-05
-1.58495824575e-09
3.28410674253e-05
-1.96276989107e-09
3.28423020058e-05
-2.43144113048e-09
3.28438305126e-05
-3.01206066968e-09
3.28457235804e-05
-3.73114180699e-09
3.28480681604e-05
-4.62189086315e-09
3.28509719317e-05
-5.72530866505e-09
3.2854568692e-05
-7.09227918599e-09
3.28590240797e-05
-8.78606033057e-09
3.28645433342e-05
-1.0885078944e-08
3.28713817847e-05
-1.34871268566e-08
3.28798556252e-05
-1.67138529438e-08
3.2890357712e-05
-2.07163496885e-08
3.29033767834e-05
-2.56832355864e-08
3.29195207665e-05
-3.18506299936e-08
3.29395468577e-05
-3.95143047938e-08
3.29643999887e-05
-4.90456819171e-08
3.29952612717e-05
-6.09133522465e-08
3.30336103316e-05
-7.57106012112e-08
3.30813073849e-05
-9.41929389164e-08
3.31406983993e-05
-1.17329302696e-07
3.32147565604e-05
-1.46372186075e-07
3.33072735021e-05
-1.82958555903e-07
3.34231205452e-05
-2.29257046362e-07
3.35686186344e-05
-2.8818983586e-07
3.37520774777e-05
-3.63783262677e-07
3.3984607096e-05
-4.61751427171e-07
3.4281385414e-05
-5.90525897409e-07
3.466370421e-05
-7.63175161612e-07
3.51622992869e-05
-1.00119753727e-06
3.58225487561e-05
-1.34231937607e-06
3.67114229287e-05
-1.85675036518e-06
3.79220029444e-05
-2.67961246694e-06
3.95535561377e-05
-4.06898781966e-06
4.15851733352e-05
-6.4932576736e-06
-1.06324208073e-05
4.34766931011e-05
5.35705198994e-05
8.95186723172e-06
5.55863060858e-05
1.58501344971e-05
5.52410589226e-05
1.62553861539e-05
5.35976159693e-05
1.40474396462e-05
5.15429060055e-05
1.11562298814e-05
4.95819404075e-05
8.45147058823e-06
4.79262510074e-05
6.22441161703e-06
4.66200396432e-05
4.49842442592e-06
4.5632233788e-05
3.20429832636e-06
4.49066876665e-05
2.25390632581e-06
4.43854424296e-05
1.56624322703e-06
4.40178332954e-05
1.07472637696e-06
4.37629130021e-05
7.27376932829e-07
4.35890456756e-05
4.84705520217e-07
4.34725025392e-05
3.17212183563e-07
4.33958695087e-05
2.03133105234e-07
4.33465913869e-05
1.26584787644e-07
4.33157571981e-05
7.60950426283e-08
4.32971357367e-05
4.34649417962e-08
4.32864341907e-05
2.28995616297e-08
4.32807409766e-05
1.03513704565e-08
4.32781183174e-05
3.03048281426e-09
4.32772917041e-05
-9.63182813468e-10
4.3277456303e-05
-2.90291198616e-09
4.32781077569e-05
-3.6175865659e-09
4.32789457263e-05
-3.64492627408e-09
4.32798006684e-05
-3.32095953119e-09
4.32805850349e-05
-2.84888790749e-09
4.32812608491e-05
-2.3454525834e-09
4.32818189511e-05
-1.87271418684e-09
4.32822656095e-05
-1.45934464785e-09
4.3282614322e-05
-1.11440024159e-09
4.32828810287e-05
-8.36136449911e-10
4.32830814055e-05
-6.17478068308e-10
4.32832295646e-05
-4.49316148036e-10
4.32833375028e-05
-3.22376069425e-10
4.32834150366e-05
-2.28138025305e-10
4.32834699015e-05
-1.59203610321e-10
4.32835082423e-05
-1.09459465807e-10
4.32835347197e-05
-7.4114099961e-11
4.32835526777e-05
-4.93938018448e-11
4.32835646484e-05
-3.23211785965e-11
4.32835725273e-05
-2.07194053682e-11
4.32835776004e-05
-1.30139229565e-11
4.32835807219e-05
-7.98772265996e-12
4.32835825675e-05
-4.75270505717e-12
4.32835836168e-05
-2.73833503954e-12
4.32835841839e-05
-1.57443141595e-12
4.32835844731e-05
-9.57158369619e-13
4.32835845803e-05
-6.41634670235e-13
4.3283584563e-05
-4.6620959538e-13
4.32835845934e-05
-3.67225227841e-13
4.32835846343e-05
-2.91223311654e-13
4.32835846479e-05
-2.75195627492e-13
4.32835847022e-05
-3.24146398049e-13
4.32835847844e-05
-4.80987987247e-13
4.32835847876e-05
-6.42011260552e-13
4.32835847821e-05
-7.64599446551e-13
4.32835848533e-05
-9.07704126295e-13
4.32835849081e-05
-1.07501013811e-12
4.32835849047e-05
-1.22848371551e-12
4.32835849437e-05
-1.35769632199e-12
4.32835850134e-05
-1.48917225992e-12
4.32835850551e-05
-1.62685396394e-12
4.32835850703e-05
-1.7718049224e-12
4.32835850505e-05
-1.92914925718e-12
4.32835850482e-05
-2.08612453003e-12
4.32835850842e-05
-2.25023692466e-12
4.32835850799e-05
-2.402781379e-12
4.32835850808e-05
-2.49673058771e-12
4.32835851392e-05
-2.56790202905e-12
4.32835852228e-05
-2.65569596696e-12
4.32835852906e-05
-2.75293887442e-12
4.32835854048e-05
-2.8600657794e-12
4.32835855646e-05
-2.98927859841e-12
4.32835857057e-05
-3.10818099976e-12
4.3283585867e-05
-3.20503142827e-12
4.32835860609e-05
-3.31745448961e-12
4.32835862665e-05
-3.4458743944e-12
4.32835865521e-05
-3.56978804667e-12
4.32835869074e-05
-3.72219459458e-12
4.32835872433e-05
-3.92080406842e-12
4.32835875996e-05
-4.1374627559e-12
4.32835879911e-05
-4.34361333942e-12
4.32835884399e-05
-4.53170146167e-12
4.3283589093e-05
-4.74553723716e-12
4.32835898913e-05
-5.02285539112e-12
4.3283590685e-05
-5.32308964711e-12
4.32835915647e-05
-5.62977295329e-12
4.32835925843e-05
-6.00916755728e-12
4.32835936432e-05
-6.47181909239e-12
4.32835948213e-05
-6.96068300517e-12
4.32835963104e-05
-7.51059421678e-12
4.32835980732e-05
-8.19922378972e-12
4.32836000698e-05
-9.05116902558e-12
4.32836024761e-05
-1.01066051711e-11
4.32836054268e-05
-1.14180005623e-11
4.3283609005e-05
-1.3000747386e-11
4.32836134983e-05
-1.49053231497e-11
4.32836188991e-05
-1.72954552907e-11
4.3283625218e-05
-2.0301233218e-11
4.32836327756e-05
-2.39774477647e-11
4.32836419613e-05
-2.84858563472e-11
4.32836531279e-05
-3.39803396941e-11
4.32836668429e-05
-4.06731772668e-11
4.32836837946e-05
-4.89618814258e-11
4.32837046492e-05
-5.92648563821e-11
4.32837302667e-05
-7.19775564162e-11
4.32837618889e-05
-8.76758313037e-11
4.32838008352e-05
-1.07191515165e-10
4.32838488717e-05
-1.3150591905e-10
4.32839083413e-05
-1.61735827601e-10
4.32839817598e-05
-1.99264051002e-10
4.32840724208e-05
-2.45676845589e-10
4.32841844416e-05
-3.02989744633e-10
4.32843229459e-05
-3.73795900137e-10
4.32844943216e-05
-4.61509708655e-10
4.32847061804e-05
-5.70237869157e-10
4.32849681868e-05
-7.04782127836e-10
4.32852924143e-05
-8.71314013289e-10
4.32856937405e-05
-1.0776117807e-09
4.32861902379e-05
-1.33306188579e-09
4.32868047454e-05
-1.64931096522e-09
4.32875654598e-05
-2.04111204176e-09
4.32885069496e-05
-2.52667134256e-09
4.32896726457e-05
-3.12847197219e-09
4.3291115614e-05
-3.87437942113e-09
4.32929018743e-05
-4.79837722264e-09
4.32951135212e-05
-5.94278763722e-09
4.32978520696e-05
-7.36040126471e-09
4.33012431401e-05
-9.11645857294e-09
4.33054426665e-05
-1.12918306863e-08
4.3310643784e-05
-1.39871551639e-08
4.33170854769e-05
-1.73271647293e-08
4.33250650666e-05
-2.14669719091e-08
4.33349509798e-05
-2.65997246754e-08
4.33472003161e-05
-3.29656130689e-08
4.33623810917e-05
-4.08640398577e-08
4.33811994442e-05
-5.06690851856e-08
4.34045339161e-05
-6.28489063601e-08
4.34334788705e-05
-7.79908012314e-08
4.34693998589e-05
-9.68343269345e-08
4.35140032804e-05
-1.20314035048e-07
4.35694274983e-05
-1.4961696259e-07
4.36383592046e-05
-1.8626059135e-07
4.37241860769e-05
-2.32198872096e-07
4.38312001959e-05
-2.89972525307e-07
4.39648696879e-05
-3.62926279423e-07
4.41322102202e-05
-4.55530136219e-07
4.43423011745e-05
-5.73874191119e-07
4.46070132575e-05
-7.26463620559e-07
4.49420350004e-05
-9.25547398025e-07
4.53682921285e-05
-1.18943209793e-06
4.59137395507e-05
-1.54664475243e-06
4.66149527881e-05
-2.0435324342e-06
4.75161494714e-05
-2.75794722097e-06
4.86583994713e-05
-3.82186219005e-06
5.00402637176e-05
-5.45085153077e-06
5.15077859739e-05
-7.96078009308e-06
-1.16740084351e-05
5.25493736749e-05
5.27606082351e-05
6.19125863422e-06
5.57402410133e-05
1.28705023787e-05
5.73124120986e-05
1.46832147767e-05
5.76111980385e-05
1.37486536262e-05
5.71338686271e-05
1.16335591511e-05
5.63199840811e-05
9.26535499614e-06
5.54496448059e-05
7.09475062971e-06
5.46637026807e-05
5.28436643927e-06
5.4014412883e-05
3.85358824077e-06
5.35068424159e-05
2.76147697899e-06
5.31248780754e-05
1.94820777368e-06
5.28455242783e-05
1.35408041363e-06
5.26458882984e-05
9.27013116054e-07
5.25060758167e-05
6.24518141898e-07
5.24099982356e-05
4.13289803953e-07
5.23452167002e-05
2.67914609219e-07
5.23024116739e-05
1.69389708515e-07
5.22747667375e-05
1.03739890465e-07
5.22573945631e-05
6.08370804324e-08
5.22468525482e-05
3.34415777959e-08
5.22407564033e-05
1.64475901068e-08
5.22374835123e-05
6.30343026986e-09
5.22359423432e-05
5.77970233248e-10
5.22354271202e-05
-2.38769152043e-09
5.22354791319e-05
-3.66959911193e-09
5.22358139904e-05
-3.97990098957e-09
5.22362612223e-05
-3.76837851872e-09
5.22367240697e-05
-3.31181679298e-09
5.22371519195e-05
-2.7733101228e-09
5.22375223357e-05
-2.24313346368e-09
5.223782928e-05
-1.76630355023e-09
5.2238075564e-05
-1.36069765373e-09
5.22382682637e-05
-1.02879810792e-09
5.223841591e-05
-7.65065301301e-10
5.22385269945e-05
-5.60374439062e-10
5.22386092263e-05
-4.0461757875e-10
5.22386692298e-05
-2.88130779032e-10
5.22387123431e-05
-2.02349730976e-10
5.2238742896e-05
-1.40054731577e-10
5.22387643263e-05
-9.54799960903e-11
5.22387791404e-05
-6.41055495778e-11
5.22387891926e-05
-4.23273248839e-11
5.2238795937e-05
-2.74082874442e-11
5.22388004143e-05
-1.73867235607e-11
5.2238803284e-05
-1.08060995389e-11
5.22388050692e-05
-6.56962192134e-12
5.2238806143e-05
-3.8908242447e-12
5.22388067403e-05
-2.23921666015e-12
5.22388070479e-05
-1.25776248399e-12
5.2238807179e-05
-6.99576720468e-13
5.223880716e-05
-3.68326874016e-13
5.22388070621e-05
-1.45857794807e-13
5.22388070198e-05
-8.69607341977e-14
5.22388069356e-05
-1.0209273582e-13
5.22388068326e-05
-1.53893660876e-13
5.22388067554e-05
-2.83135543161e-13
5.22388066908e-05
-5.2340219477e-13
5.22388065797e-05
-6.86327205259e-13
5.2238806505e-05
-8.13175115509e-13
5.22388064639e-05
-9.80230908119e-13
5.22388063966e-05
-1.1647279593e-12
5.22388063224e-05
-1.31543044773e-12
5.22388062466e-05
-1.45170944614e-12
5.22388061352e-05
-1.60786723519e-12
5.22388060042e-05
-1.78560170002e-12
5.22388058523e-05
-1.97022609939e-12
5.22388056961e-05
-2.12768232439e-12
5.2238805593e-05
-2.27021637862e-12
5.22388054964e-05
-2.42582450822e-12
5.22388053403e-05
-2.54009677752e-12
5.22388051775e-05
-2.59423101112e-12
5.22388050556e-05
-2.66076651473e-12
5.2238804915e-05
-2.7548499204e-12
5.22388047805e-05
-2.84986070993e-12
5.22388046984e-05
-2.96044120784e-12
5.2238804625e-05
-3.08113349637e-12
5.22388045618e-05
-3.19593267901e-12
5.22388045069e-05
-3.32915381089e-12
5.22388044268e-05
-3.48337797653e-12
5.22388043824e-05
-3.63963052382e-12
5.22388044212e-05
-3.82924479507e-12
5.22388044576e-05
-4.04591899218e-12
5.22388044928e-05
-4.23490462163e-12
5.22388045725e-05
-4.41705908279e-12
5.22388046595e-05
-4.60731116702e-12
5.22388048543e-05
-4.80488799966e-12
5.22388052383e-05
-5.09156147611e-12
5.2238805674e-05
-5.48196312789e-12
5.22388061245e-05
-5.91135151287e-12
5.2238806694e-05
-6.41413135633e-12
5.22388073493e-05
-7.01615278401e-12
5.22388080744e-05
-7.64897070832e-12
5.2238809041e-05
-8.36636611666e-12
5.22388102943e-05
-9.32712626866e-12
5.22388117732e-05
-1.05450833589e-11
5.22388136114e-05
-1.19817358834e-11
5.22388159852e-05
-1.37328624034e-11
5.22388189238e-05
-1.59140573255e-11
5.22388225261e-05
-1.85775672233e-11
5.22388270755e-05
-2.18990467618e-11
5.22388327354e-05
-2.60674914674e-11
5.22388397219e-05
-3.11613701879e-11
5.22388484482e-05
-3.73572473653e-11
5.22388592761e-05
-4.49299539711e-11
5.22388726989e-05
-5.42187789576e-11
5.22388894742e-05
-6.57349138399e-11
5.22389103995e-05
-8.00596855168e-11
5.22389363368e-05
-9.78147146052e-11
5.2238968547e-05
-1.19819699529e-10
5.22390084956e-05
-1.47153590117e-10
5.22390578077e-05
-1.81020350592e-10
5.22391188113e-05
-2.22901681914e-10
5.22391943355e-05
-2.74799897525e-10
5.22392878737e-05
-3.39070751354e-10
5.22394036362e-05
-4.18596455957e-10
5.22395467688e-05
-5.16961821818e-10
5.22397239564e-05
-6.38728763387e-10
5.2239943309e-05
-7.895977029e-10
5.224021474e-05
-9.76319405416e-10
5.22405506915e-05
-1.20738207181e-09
5.22409667649e-05
-1.4935101567e-09
5.22414817912e-05
-1.84789727625e-09
5.22421193512e-05
-2.28676574622e-09
5.22429086989e-05
-2.83038539232e-09
5.22438856151e-05
-3.50381092692e-09
5.22450951637e-05
-4.33809951001e-09
5.22465926399e-05
-5.3717818098e-09
5.22484464029e-05
-6.65220628012e-09
5.22507413588e-05
-8.2380245767e-09
5.22535828711e-05
-1.02021825698e-08
5.22571012262e-05
-1.26350444447e-08
5.22614578693e-05
-1.56486141603e-08
5.22668529932e-05
-1.93821761456e-08
5.22735339749e-05
-2.40083826545e-08
5.22818082862e-05
-2.97415676112e-08
5.22920570192e-05
-3.68484663729e-08
5.23047524275e-05
-4.56608991484e-08
5.23204805454e-05
-5.65920770315e-08
5.2339969005e-05
-7.01574049147e-08
5.23641215844e-05
-8.70011803369e-08
5.23940613502e-05
-1.07930384316e-07
5.24311860576e-05
-1.33958778827e-07
5.24772361273e-05
-1.66364120302e-07
5.25343825932e-05
-2.06763689011e-07
5.26053383467e-05
-2.57216274286e-07
5.26934990865e-05
-3.20359310979e-07
5.28031259218e-05
-3.99599155087e-07
5.29395805975e-05
-4.99380947357e-07
5.31096288942e-05
-6.25578181382e-07
5.33218289296e-05
-7.86074001388e-07
5.3587019238e-05
-9.91653702163e-07
5.39188871756e-05
-1.25741451023e-06
5.43345052885e-05
-1.60504998587e-06
5.48544594482e-05