/*--------------------------------*- C++ -*----------------------------------*\
| =========                 |                                                 |
| \\      /  F ield         | OpenFOAM: The Open Source CFD Toolbox           |
|  \\    /   O peration     | Version:  2106                                  |
|   \\  /    A nd           | Website:  www.openfoam.com                      |
|    \\/     M anipulation  |                                                 |
\*---------------------------------------------------------------------------*/
FoamFile
{
    version     2.0;
    format      ascii;
    arch        "LSB;label=32;scalar=64";
    class       surfaceScalarField;
    location    "0.044";
    object      phi;
}
// * * * * * * * * * * * * * * * * * * * * * * * * * * * * * * * * * * * * * //

dimensions      [0 3 -1 0 0 0 0];

oriented        oriented;

internalField   nonuniform List<scalar> 
799
(
1.88643e-32
4.77194e-32
6.19292e-32
5.21039e-32
2.78709e-32
-3.79483e-32
-9.65117e-32
-1.41577e-31
-1.50823e-31
-1.12265e-31
-5.56793e-32
7.37515e-33
4.66139e-32
5.71064e-32
3.62538e-32
-2.25911e-33
-5.24545e-32
-1.04131e-31
-1.4345e-31
-1.70433e-31
-1.61294e-31
-1.24204e-31
-6.20541e-32
9.68081e-33
5.12207e-32
6.12442e-32
2.04796e-32
-4.92677e-32
-1.14715e-31
-1.66486e-31
-1.68543e-31
-1.40479e-31
-9.34023e-32
-3.76437e-32
-1.20722e-32
-3.39559e-34
-1.69109e-32
-5.42114e-32
-8.35177e-32
-1.19669e-31
-1.2812e-31
-1.15144e-31
-9.12018e-32
-4.40346e-32
-1.83584e-32
-7.63752e-33
-2.3142e-32
-7.17153e-32
-1.11301e-31
-1.4724e-31
-1.48835e-31
-1.14673e-31
-7.11887e-32
-1.65937e-32
8.10085e-33
2.21256e-33
-3.06328e-32
-8.9479e-32
-1.34649e-31
-1.59578e-31
-1.46204e-31
-9.28584e-32
-3.05703e-32
2.45323e-32
3.7506e-32
-3.08976e-33
-7.67498e-32
-1.60135e-31
-2.0544e-31
-1.87805e-31
-1.16313e-31
-1.44573e-32
6.20875e-32
7.87224e-32
3.17508e-32
-6.19174e-32
-1.48315e-31
-1.92834e-31
-1.81208e-31
-1.21833e-31
-5.54682e-32
-6.33733e-33
9.15099e-33
-5.7319e-33
-2.9727e-32
-5.5548e-32
-7.50059e-32
-9.30277e-32
-1.13216e-31
-1.25371e-31
-1.23297e-31
-9.20715e-32
-3.94159e-32
1.40804e-32
4.68257e-32
2.80117e-32
-3.05049e-32
-1.12212e-31
-1.81505e-31
-1.94803e-31
-1.59467e-31
-7.36337e-32
1.72532e-32
7.05432e-32
7.96282e-32
2.17344e-32
-5.74768e-32
-1.31209e-31
-1.75084e-31
-1.58036e-31
-1.14156e-31
-5.13557e-32
-4.67339e-33
3.94515e-33
-7.45997e-33
-3.80492e-32
-5.48664e-32
-5.23455e-32
-3.95885e-32
-2.56776e-32
-3.55821e-32
-6.60596e-32
-1.07577e-31
-1.38381e-31
-1.36944e-31
-1.02255e-31
-4.2873e-32
1.65991e-32
5.4425e-32
5.97958e-32
2.98598e-32
-2.25093e-32
-8.34657e-32
-1.38787e-31
-1.70654e-31
-1.73391e-31
-1.39677e-31
-7.55415e-32
-1.80603e-33
6.29657e-32
8.82452e-32
6.56719e-32
2.45368e-33
-8.1754e-32
-1.46611e-31
-1.73125e-31
-1.49651e-31
-8.94294e-32
-2.67262e-32
1.65525e-32
1.7302e-32
-1.73063e-32
-6.43481e-32
-1.01484e-31
-1.02057e-31
-6.92071e-32
-1.84566e-32
2.3215e-32
2.5979e-32
-1.41104e-32
-8.52715e-32
-1.52161e-31
-1.79151e-31
-1.48301e-31
-6.81616e-32
2.11431e-32
7.9173e-32
7.11947e-32
4.62223e-33
-8.5406e-32
-1.56247e-31
-1.63217e-31
-1.16906e-31
-3.95209e-32
2.30781e-32
2.94096e-32
-6.64634e-33
-7.56138e-32
-1.25315e-31
-1.27584e-31
-9.14535e-32
-2.06048e-32
2.87249e-32
4.2029e-32
1.28089e-32
-5.4716e-32
-1.10843e-31
-1.47467e-31
-1.39961e-31
-9.30886e-32
-3.79529e-32
1.77478e-32
4.05228e-32
3.17098e-32
-1.42188e-34
-4.90179e-32
-8.69783e-32
-1.11597e-31
-1.15805e-31
-9.8659e-32
-7.27099e-32
-3.78287e-32
-4.75826e-33
1.70144e-32
2.34587e-32
4.10172e-33
-3.57796e-32
-8.23455e-32
-1.19144e-31
-1.22459e-31
-8.86439e-32
-3.0741e-32
2.62649e-32
4.70965e-32
1.84045e-32
-4.96168e-32
-1.25107e-31
-1.62571e-31
-1.36784e-31
-5.4397e-32
4.83265e-32
1.14888e-31
1.04846e-31
1.81884e-32
-1.11034e-31
-2.15891e-31
-2.40964e-31
-1.74088e-31
-3.80089e-32
9.5818e-32
1.6408e-31
1.38838e-31
2.51551e-32
-1.11592e-31
-2.11824e-31
-2.33597e-31
-1.64407e-31
-5.24628e-32
5.63666e-32
1.1353e-31
9.47723e-32
2.4682e-32
-6.76992e-32
-1.37275e-31
-1.55353e-31
-1.24719e-31
-6.24182e-32
-2.76777e-33
2.52011e-32
1.20551e-32
-2.79711e-32
-7.07448e-32
-8.57558e-32
-6.22918e-32
-1.91961e-32
2.15226e-32
2.37551e-32
-1.99913e-32
-8.51547e-32
-1.43999e-31
-1.52971e-31
-1.04354e-31
-2.40094e-32
5.54587e-32
8.71965e-32
5.88402e-32
-7.17103e-33
-8.32573e-32
-1.27385e-31
-1.25214e-31
-9.44323e-32
-4.76491e-32
-1.5616e-32
-5.20302e-33
-2.42848e-33
-1.00444e-32
-9.87716e-33
-8.92849e-33
-1.69241e-32
-2.3697e-32
-3.71024e-32
-4.0747e-32
-3.29214e-32
-2.50191e-32
-1.80225e-32
-2.52613e-32
-3.5825e-32
-3.33449e-32
-6.04411e-33
4.77747e-32
1.04406e-31
1.32668e-31
1.08147e-31
3.84181e-32
-4.46796e-32
-8.9494e-32
-6.10791e-32
3.40965e-32
1.62508e-31
2.57959e-31
2.82176e-31
2.32652e-31
1.41628e-31
7.65798e-32
7.19703e-32
1.39595e-31
2.48815e-31
3.43986e-31
3.99044e-31
4.00184e-31
3.78363e-31
3.7285e-31
4.01632e-31
4.73669e-31
5.57099e-31
6.26762e-31
6.70557e-31
6.88071e-31
7.13261e-31
7.63843e-31
8.51172e-31
9.6923e-31
1.08321e-30
1.17925e-30
1.24301e-30
1.28628e-30
1.34431e-30
1.43177e-30
1.57117e-30
1.74662e-30
1.92628e-30
2.09053e-30
2.20722e-30
2.29438e-30
2.37704e-30
2.48589e-30
2.6634e-30
2.89764e-30
3.1758e-30
3.45445e-30
3.68111e-30
3.84123e-30
3.93777e-30
3.97418e-30
4.1693e-30
4.47264e-30
5.60194e-30
7.7941e-30
1.11785e-29
1.78239e-29
2.02761e-29
2.28329e-29
5.5315e-30
-3.74478e-29
-8.90473e-29
-1.94861e-28
-1.85718e-28
-1.25138e-28
1.62675e-28
8.06704e-28
1.17187e-27
1.81417e-27
1.05238e-27
-7.65668e-28
-3.04113e-27
-7.54769e-27
-7.21825e-27
-5.93607e-27
1.74314e-27
1.6871e-26
2.26625e-26
3.30431e-26
1.66425e-26
-1.3617e-26
-4.10135e-26
-9.05019e-26
-7.13289e-26
-4.22014e-26
3.15635e-26
1.54618e-25
1.62728e-25
1.91991e-25
5.4304e-26
-1.45607e-25
-2.4157e-25
-4.15718e-25
-2.36531e-25
-3.16509e-26
2.19146e-25
5.89188e-25
4.55148e-25
3.83026e-25
-3.7092e-26
-5.4401e-25
-5.80057e-25
-7.5426e-25
-2.54586e-25
2.2362e-25
5.0684e-25
9.15284e-25
5.06851e-25
2.23636e-25
-2.54572e-25
-7.54255e-25
-5.80063e-25
-5.44022e-25
-3.7106e-26
3.83017e-25
4.55147e-25
5.89192e-25
2.19154e-25
-3.16451e-26
-2.36529e-25
-4.1572e-25
-2.41575e-25
-1.45612e-25
5.43005e-26
1.91989e-25
1.62729e-25
1.54618e-25
3.15639e-26
-4.22015e-26
-7.13294e-26
-9.05024e-26
-4.10143e-26
-1.36177e-26
1.66417e-26
3.30423e-26
2.26618e-26
1.68703e-26
1.74259e-27
-5.93653e-27
-7.21862e-27
-7.548e-27
-3.04147e-27
-7.66019e-28
1.05198e-27
1.81373e-27
1.17143e-27
8.06275e-28
1.62319e-28
-1.25413e-28
-1.85893e-28
-1.9497e-28
-8.91558e-29
-3.76017e-29
5.27064e-30
2.24881e-29
1.98972e-29
1.74843e-29
1.09647e-29
7.7146e-30
5.64007e-30
4.55571e-30
4.20893e-30
3.92625e-30
3.77603e-30
3.60013e-30
3.42082e-30
3.22917e-30
3.04453e-30
2.87588e-30
2.7371e-30
2.62035e-30
2.50202e-30
2.36095e-30
2.18268e-30
1.97612e-30
1.77668e-30
1.61123e-30
1.50632e-30
1.45503e-30
1.42783e-30
1.39881e-30
1.33199e-30
1.22942e-30
1.09869e-30
9.60163e-31
8.45336e-31
7.60121e-31
7.18173e-31
7.08079e-31
7.09986e-31
7.06804e-31
6.71469e-31
5.99267e-31
5.00123e-31
3.96582e-31
3.22917e-31
3.01605e-31
3.26391e-31
3.78672e-31
4.15273e-31
4.01206e-31
3.37505e-31
2.30904e-31
1.32642e-31
7.89586e-32
8.03775e-32
1.41601e-31
2.10754e-31
2.57071e-31
2.53221e-31
1.86202e-31
9.55728e-32
6.94125e-33
-3.80567e-32
-1.77065e-32
4.98658e-32
1.40587e-31
2.05164e-31
2.06789e-31
1.40166e-31
2.54599e-32
-8.70424e-32
-1.42257e-31
-1.15456e-31
-1.47194e-32
1.12956e-31
2.02463e-31
2.146e-31
1.40015e-31
1.72536e-32
-9.59775e-32
-1.51736e-31
-1.29097e-31
-5.07994e-32
4.56957e-32
1.12322e-31
1.29302e-31
9.74122e-32
3.49759e-32
-2.18036e-32
-6.14537e-32
-6.44953e-32
-4.11384e-32
-6.20435e-33
3.19571e-32
4.42377e-32
4.11254e-32
1.60574e-32
-1.4281e-32
-2.41163e-32
-2.31127e-32
6.4308e-33
3.26382e-32
3.94093e-32
2.81825e-32
-1.6794e-32
-5.20353e-32
-6.84721e-32
-5.41863e-32
-2.28704e-33
4.32499e-32
7.52659e-32
7.16145e-32
3.34649e-32
-5.58369e-33
-4.09049e-32
-5.14392e-32
-4.52338e-32
-4.23802e-32
-3.84832e-32
-4.02775e-32
-2.69627e-32
1.48186e-32
6.83841e-32
1.19181e-31
1.22766e-31
6.05585e-32
-4.63156e-32
-1.6571e-31
-2.23737e-31
-1.87056e-31
-6.43396e-32
1.06405e-31
2.28718e-31
2.52243e-31
1.57122e-31
-2.58609e-32
-1.95443e-31
-2.88724e-31
-2.51188e-31
-9.7589e-32
8.6062e-32
2.32295e-31
2.58199e-31
1.60473e-31
-4.37096e-33
-1.7259e-31
-2.48481e-31
-2.14702e-31
-9.36273e-32
6.18276e-32
1.62597e-31
1.85286e-31
1.22569e-31
1.1688e-32
-8.26871e-32
-1.40708e-31
-1.36972e-31
-9.25658e-32
-3.69944e-32
2.05172e-32
5.29871e-32
7.05071e-32
6.96615e-32
4.9022e-32
2.13297e-32
-1.98845e-32
-5.56969e-32
-8.15466e-32
-9.06601e-32
-7.69259e-32
-5.06354e-32
-1.12629e-32
2.61595e-32
5.85998e-32
7.39647e-32
6.60519e-32
3.84614e-32
-1.18853e-32
-5.78727e-32
-9.48701e-32
-1.04573e-31
-8.0719e-32
-4.51142e-32
6.19683e-33
4.15988e-32
5.91546e-32
6.13589e-32
3.5638e-32
8.05129e-33
-2.96097e-32
-6.3053e-32
-7.75924e-32
-8.0859e-32
-5.50816e-32
-1.81382e-32
2.09716e-32
5.24665e-32
5.56105e-32
3.97341e-32
4.44243e-33
-3.43839e-32
-6.10332e-32
-7.22374e-32
-6.04262e-32
-3.44696e-32
-2.07221e-33
2.5651e-32
3.89128e-32
3.30728e-32
1.27864e-32
-1.20626e-32
-3.11354e-32
-3.13701e-32
-2.28225e-32
-9.05729e-33
-4.65834e-33
-1.76584e-32
-2.87234e-32
-3.55996e-32
-1.54616e-32
2.39312e-32
5.72829e-32
7.14219e-32
3.68319e-32
-2.45549e-32
-8.67978e-32
-1.16914e-31
-8.47402e-32
-1.38772e-32
7.09164e-32
1.19343e-31
1.05139e-31
4.09049e-32
-4.85771e-32
-1.07198e-31
-1.12586e-31
-6.22301e-32
1.79856e-32
7.76225e-32
9.54705e-32
5.8046e-32
-8.07085e-33
-6.29599e-32
-8.35745e-32
-5.15261e-32
7.70478e-33
6.31284e-32
8.77387e-32
6.04644e-32
2.38597e-33
-6.18701e-32
-1.0136e-31
-9.03765e-32
-4.10167e-32
3.03063e-32
9.28148e-32
1.15175e-31
9.73648e-32
4.1248e-32
-3.04869e-32
-8.67075e-32
-1.17845e-31
-1.06842e-31
-6.09745e-32
1.57333e-33
7.07365e-32
1.15892e-31
1.27975e-31
1.00601e-31
3.34608e-32
-4.47794e-32
-1.1528e-31
-1.46401e-31
-1.21057e-31
-4.97853e-32
4.87772e-32
1.29552e-31
1.59497e-31
1.25184e-31
3.64922e-32
-6.35e-32
-1.32128e-31
-1.38163e-31
-7.80627e-32
1.60147e-32
1.00378e-31
1.36126e-31
1.05508e-31
2.9548e-32
-5.5214e-32
-1.08012e-31
-9.92832e-32
-4.21892e-32
4.01052e-32
1.05273e-31
1.17283e-31
8.2973e-32
8.88561e-33
-5.96834e-32
-8.82798e-32
-7.57056e-32
-1.34665e-32
5.14718e-32
9.43134e-32
1.02831e-31
6.03956e-32
9.22039e-33
-3.90868e-32
-6.1468e-32
-4.18679e-32
-8.72762e-33
3.64046e-32
6.72119e-32
7.28633e-32
6.48181e-32
4.05124e-32
1.86149e-32
5.65441e-33
-1.44746e-33
7.34637e-34
3.33556e-33
1.69572e-33
3.05132e-33
3.3621e-33
1.33828e-32
3.64399e-32
6.06081e-32
9.00312e-32
9.88774e-32
8.52015e-32
5.03879e-32
-7.35653e-33
-5.06715e-32
-7.61337e-32
-6.0909e-32
-7.03115e-33
5.75138e-32
1.21226e-31
1.45202e-31
1.30443e-31
7.9073e-32
1.58806e-32
-3.26733e-32
-5.27193e-32
-3.09518e-32
2.46007e-34
4.9528e-32
7.04394e-32
7.16025e-32
6.51175e-32
2.08346e-32
1.19746e-32
-1.99605e-32
-2.56292e-32
-5.1683e-33
)
;

boundaryField
{
    left
    {
        type            calculated;
        value           uniform 0;
    }
    right
    {
        type            calculated;
        value           uniform 0;
    }
    empty
    {
        type            empty;
        value           nonuniform List<scalar> 0();
    }
}


// ************************************************************************* //
