/*--------------------------------*- C++ -*----------------------------------*\
| =========                 |                                                 |
| \\      /  F ield         | OpenFOAM: The Open Source CFD Toolbox           |
|  \\    /   O peration     | Version:  2106                                  |
|   \\  /    A nd           | Website:  www.openfoam.com                      |
|    \\/     M anipulation  |                                                 |
\*---------------------------------------------------------------------------*/
FoamFile
{
    version     2.0;
    format      ascii;
    arch        "LSB;label=32;scalar=64";
    class       volVectorField;
    location    "0.11";
    object      U;
}
// * * * * * * * * * * * * * * * * * * * * * * * * * * * * * * * * * * * * * //

dimensions      [0 1 -1 0 0 0 0];

internalField   nonuniform List<vector> 
11200
(
(0.662462404071 0.150569442766 0)
(0.558948673694 0.103243390651 0)
(0.383850735514 0.0513512279794 0)
(0.283747587002 0.0248708603547 0)
(0.232075252629 0.0124170518377 0)
(0.20190855759 0.0066228250899 0)
(0.183197890728 0.00380292398595 0)
(0.171276434884 0.00231587998734 0)
(0.163510248322 0.00146451512099 0)
(0.158388723282 0.000944897034701 0)
(0.155006624036 0.000615174130013 0)
(0.152786751089 0.000402219457597 0)
(0.151346742856 0.000264201385356 0)
(0.150428726076 0.000175197197995 0)
(0.149857439028 0.000118278620999 0)
(0.149513669285 8.20386322172e-05 0)
(0.149316667798 5.86883311212e-05 0)
(0.149211986764 4.30589131111e-05 0)
(0.149162887703 3.26022569726e-05 0)
(0.149146553945 2.78633209343e-05 0)
(0.149149836671 2.73048355611e-05 0)
(0.149163242565 2.97274139587e-05 0)
(0.149179964146 3.29570377713e-05 0)
(0.149196682231 3.58928187157e-05 0)
(0.14921206868 3.8550300052e-05 0)
(0.149225478649 4.10149380317e-05 0)
(0.149236717427 4.3317913693e-05 0)
(0.149245869233 4.54874944672e-05 0)
(0.149253153712 4.75590253357e-05 0)
(0.149258841672 4.95730647921e-05 0)
(0.149263210234 5.15792979528e-05 0)
(0.149266524068 5.36501451375e-05 0)
(0.149269004485 5.58803831939e-05 0)
(0.149270824707 5.82514140793e-05 0)
(0.149272137289 6.06468470695e-05 0)
(0.149273048145 6.30136483288e-05 0)
(0.14927363896 6.53413051085e-05 0)
(0.149274009634 6.76361945184e-05 0)
(0.149274239187 6.9916592792e-05 0)
(0.149274369275 7.21927682117e-05 0)
(0.14927442836 7.44678258018e-05 0)
(0.149274439679 7.67437963024e-05 0)
(0.149274420133 7.90212887608e-05 0)
(0.149274381243 8.13001136986e-05 0)
(0.149274330097 8.35790242536e-05 0)
(0.149274270988 8.58558877735e-05 0)
(0.149274206661 8.81280052306e-05 0)
(0.14927413888 9.03924668079e-05 0)
(0.149274069857 9.26459526003e-05 0)
(0.149274003729 9.48852018403e-05 0)
(0.149273947026 9.71069834877e-05 0)
(0.149273909381 9.93080637535e-05 0)
(0.149273904468 0.000101485352038 0)
(0.149273951045 0.000103635809618 0)
(0.149274074487 0.000105755981914 0)
(0.149274309745 0.00010784113483 0)
(0.1492747064 0.000109884358611 0)
(0.149275334241 0.000111876773962 0)
(0.149276296866 0.000113803964174 0)
(0.149277749747 0.000115642276173 0)
(0.149279932372 0.000117340706506 0)
(0.149283246791 0.000118813710639 0)
(0.149288186724 0.000120080532413 0)
(0.14929540035 0.000121323794987 0)
(0.149305914091 0.000122992631495 0)
(0.149321256377 0.000125346517269 0)
(0.149343826071 0.00012813749916 0)
(0.149377363122 0.000131121331696 0)
(0.149427531081 0.000134072308121 0)
(0.149502656556 0.000136884725889 0)
(0.149614808071 0.00014091801309 0)
(0.149787268748 0.000152180311671 0)
(0.150058193428 0.000173248499653 0)
(0.15049112853 0.00020399380393 0)
(0.151222864837 0.000234737903082 0)
(0.152533520779 0.000194393262463 0)
(0.155083977706 -0.000218907641965 0)
(0.162482367802 -0.00214326603145 0)
(0.188055305246 -0.0109821948433 0)
(0.205823261412 -0.0508105008757 0)
(0.96540825487 0.289214708308 0)
(0.961962859577 0.252656048253 0)
(0.823574385793 0.159021455602 0)
(0.698139348979 0.0959957506084 0)
(0.610225425391 0.0582481385689 0)
(0.548971432893 0.036214880875 0)
(0.506588813302 0.0231613116787 0)
(0.477567190593 0.0151375327943 0)
(0.45774544066 0.0100177514505 0)
(0.444228489772 0.0066580996486 0)
(0.435053490038 0.0044154559575 0)
(0.42887358961 0.00290668227398 0)
(0.424755110525 0.00189076489351 0)
(0.422048196304 0.00120961460057 0)
(0.420300232717 0.000756569166314 0)
(0.41919676748 0.000458473840786 0)
(0.41852059827 0.000264864188613 0)
(0.418123192714 0.00014119206438 0)
(0.417904642444 6.47326235328e-05 0)
(0.417797932219 2.17187099747e-05 0)
(0.417759478129 5.56570243423e-08 0)
(0.417759135345 -1.18481375987e-05 0)
(0.417776401194 -1.55643396002e-05 0)
(0.41780126333 -1.51862764282e-05 0)
(0.417828517396 -1.27641528046e-05 0)
(0.417854761139 -9.37563960399e-06 0)
(0.417878227122 -5.66528991539e-06 0)
(0.417898259688 -2.01165125072e-06 0)
(0.417914817763 1.37883284307e-06 0)
(0.417928182404 4.40177023191e-06 0)
(0.417938798346 6.99983419164e-06 0)
(0.417947176387 9.11084920957e-06 0)
(0.417953678945 1.06359608684e-05 0)
(0.417958504773 1.16618995846e-05 0)
(0.417961957408 1.2487151574e-05 0)
(0.417964364858 1.32941700701e-05 0)
(0.417965974306 1.40339086769e-05 0)
(0.417967031337 1.46898441412e-05 0)
(0.417967720931 1.53027737155e-05 0)
(0.417968141857 1.58906293161e-05 0)
(0.417968364365 1.64557785504e-05 0)
(0.417968446493 1.70045657915e-05 0)
(0.417968431243 1.75421474916e-05 0)
(0.417968349198 1.80742820873e-05 0)
(0.41796822082 1.86056771382e-05 0)
(0.417968060415 1.91400395828e-05 0)
(0.417967878979 1.96805326007e-05 0)
(0.417967685178 2.02299878387e-05 0)
(0.417967488189 2.07889211013e-05 0)
(0.41796730048 2.13575606279e-05 0)
(0.417967138684 2.19362514157e-05 0)
(0.417967025661 2.25251960928e-05 0)
(0.417966993266 2.31244923096e-05 0)
(0.417967085509 2.37338727313e-05 0)
(0.417967363268 2.43523019928e-05 0)
(0.417967912586 2.49776426722e-05 0)
(0.417968858928 2.56065775088e-05 0)
(0.417970381734 2.62353258789e-05 0)
(0.41797274545 2.68433816884e-05 0)
(0.417976335397 2.73999275356e-05 0)
(0.417981734998 2.78565802436e-05 0)
(0.417990010763 2.81437577302e-05 0)
(0.41800268778 2.83865148633e-05 0)
(0.418021915584 2.79999472662e-05 0)
(0.418050533306 2.55314394365e-05 0)
(0.418092179167 1.97447402504e-05 0)
(0.418153029662 9.82783605376e-06 0)
(0.41824334598 -5.76389100413e-06 0)
(0.418378990195 -2.96010355299e-05 0)
(0.418585305423 -6.54356510705e-05 0)
(0.418904953001 -0.000117525981153 0)
(0.419408642557 -0.000190941073119 0)
(0.420211844207 -0.000313169971469 0)
(0.42152200713 -0.000542472636589 0)
(0.423737806242 -0.0010176391814 0)
(0.427592642531 -0.00212670586953 0)
(0.434540398815 -0.00494207236449 0)
(0.448828102294 -0.0124840678458 0)
(0.475804593406 -0.0349189286041 0)
(0.480587815084 -0.101033077865 0)
(1.02222096605 0.238416190822 0)
(1.08213752997 0.295926668678 0)
(1.03447722043 0.239503093357 0)
(0.954615390122 0.174290201187 0)
(0.879992020746 0.121345512151 0)
(0.818614387496 0.0830994279437 0)
(0.77141080084 0.0567316976761 0)
(0.736634365701 0.0387409638768 0)
(0.711624480423 0.0264327150828 0)
(0.693916818988 0.0179729227374 0)
(0.681541874723 0.0121421030527 0)
(0.673001007587 0.00812433943594 0)
(0.667182177738 0.00536546298058 0)
(0.663274105115 0.00348323232306 0)
(0.660692143647 0.00221093599489 0)
(0.659019385288 0.00136129804596 0)
(0.657961659976 0.000802679505972 0)
(0.657313735831 0.000442884152782 0)
(0.65693412011 0.000217622509264 0)
(0.656725762686 8.18121602507e-05 0)
(0.656622256378 4.32527800605e-06 0)
(0.656584233622 -3.86897428511e-05 0)
(0.656584222486 -6.24155882321e-05 0)
(0.656601632266 -7.24875268966e-05 0)
(0.656627080218 -7.40091886087e-05 0)
(0.656654709058 -7.09265233072e-05 0)
(0.656681118735 -6.56725091022e-05 0)
(0.656704631642 -5.96651435511e-05 0)
(0.656724613976 -5.37022486215e-05 0)
(0.656741015913 -4.82022883825e-05 0)
(0.656754079098 -4.33655051126e-05 0)
(0.656764167916 -3.9294098033e-05 0)
(0.656771830917 -3.60864378182e-05 0)
(0.656777789089 -3.37128105397e-05 0)
(0.656782506507 -3.20891528471e-05 0)
(0.656785999152 -3.11748427674e-05 0)
(0.656788360951 -3.0745475331e-05 0)
(0.656789941534 -3.08274355312e-05 0)
(0.656791002792 -3.12136644614e-05 0)
(0.656791667648 -3.17822274469e-05 0)
(0.656792035618 -3.24893652589e-05 0)
(0.656792193474 -3.32930034762e-05 0)
(0.656792205135 -3.41605910723e-05 0)
(0.656792117545 -3.5063351704e-05 0)
(0.656791962832 -3.59808952155e-05 0)
(0.656791764295 -3.68998904986e-05 0)
(0.656791540034 -3.78113356708e-05 0)
(0.65679130293 -3.87072363355e-05 0)
(0.65679106578 -3.95826997393e-05 0)
(0.656790846595 -4.04323167769e-05 0)
(0.656790668941 -4.12512617045e-05 0)
(0.656790564624 -4.20362133738e-05 0)
(0.656790577966 -4.2785318411e-05 0)
(0.65679077115 -4.34994356305e-05 0)
(0.65679123235 -4.41856305188e-05 0)
(0.656792088754 -4.48659461464e-05 0)
(0.656793527082 -4.55921774002e-05 0)
(0.65679580564 -4.64496087376e-05 0)
(0.656799308498 -4.75846471143e-05 0)
(0.656804621725 -4.92166021996e-05 0)
(0.65681263934 -5.18051575373e-05 0)
(0.656824966205 -5.63804594939e-05 0)
(0.656843122221 -6.38058925495e-05 0)
(0.656868552828 -7.50599392252e-05 0)
(0.656904861692 -9.17447568846e-05 0)
(0.656958833374 -0.000116361494351 0)
(0.657040083424 -0.000152161834954 0)
(0.657162613286 -0.000204540178318 0)
(0.657348602963 -0.00028222345697 0)
(0.657634106908 -0.000399439673617 0)
(0.65807840696 -0.000581143996684 0)
(0.658772614579 -0.000875648960579 0)
(0.659867257746 -0.00137483291949 0)
(0.661626161561 -0.00225542424272 0)
(0.664502875579 -0.00388761857237 0)
(0.669214535957 -0.00708791366534 0)
(0.676826151474 -0.0136384366036 0)
(0.689413651596 -0.0274580883547 0)
(0.706650755204 -0.0577140374837 0)
(0.702836894781 -0.116363645916 0)
(1.0225147554 0.170807157921 0)
(1.10138975883 0.2764965019 0)
(1.11752425903 0.266664838063 0)
(1.09214659484 0.219901750493 0)
(1.05187813643 0.168168905396 0)
(1.01020820153 0.123567447016 0)
(0.973494679977 0.0888375402579 0)
(0.943864587664 0.0630063206362 0)
(0.921142925537 0.0442230292958 0)
(0.904284373346 0.03074202259 0)
(0.892075460427 0.0211556408887 0)
(0.883405552223 0.0143944315474 0)
(0.877354368601 0.0096664194945 0)
(0.873200318036 0.00639170919183 0)
(0.870396757333 0.00414833969845 0)
(0.868539429954 0.00263089063791 0)
(0.867334970314 0.00161959372913 0)
(0.866573895776 0.000957418276074 0)
(0.86610886007 0.000533055563397 0)
(0.865837678694 0.000268312567236 0)
(0.865689981316 0.000109489768297 0)
(0.865617100575 2.07120214317e-05 0)
(0.865590084441 -2.75742591196e-05 0)
(0.865591383369 -4.96113232623e-05 0)
(0.865606541556 -5.5890739374e-05 0)
(0.865627238355 -5.3419235353e-05 0)
(0.865649075635 -4.65525941104e-05 0)
(0.865669696214 -3.79133780357e-05 0)
(0.865687956812 -2.90100646094e-05 0)
(0.865703451281 -2.06468088301e-05 0)
(0.86571619532 -1.31961573725e-05 0)
(0.865726410806 -6.75901667194e-06 0)
(0.865734388255 -1.27306626581e-06 0)
(0.865740394364 3.25126442044e-06 0)
(0.865744712922 6.67036884456e-06 0)
(0.865747791025 8.9913592252e-06 0)
(0.865749858902 1.06028931172e-05 0)
(0.865751211743 1.19782591497e-05 0)
(0.865752206283 1.31200328317e-05 0)
(0.865752864677 1.41162236462e-05 0)
(0.865753235017 1.49929278822e-05 0)
(0.865753398852 1.57748234852e-05 0)
(0.865753416493 1.64781802307e-05 0)
(0.865753331486 1.71287276833e-05 0)
(0.865753170334 1.7747245541e-05 0)
(0.865752952952 1.83506959476e-05 0)
(0.86575269814 1.89553069895e-05 0)
(0.865752421278 1.95792400783e-05 0)
(0.865752138953 2.02194471904e-05 0)
(0.865751873521 2.08713312905e-05 0)
(0.865751651924 2.15317203965e-05 0)
(0.865751510417 2.21928968377e-05 0)
(0.865751499544 2.28404709585e-05 0)
(0.865751687959 2.3450580873e-05 0)
(0.865752165898 2.39848048877e-05 0)
(0.865753051216 2.43851025801e-05 0)
(0.865754518449 2.45851540001e-05 0)
(0.865756816688 2.45534015152e-05 0)
(0.865760321931 2.41044476766e-05 0)
(0.865765495811 2.29092540135e-05 0)
(0.865772753653 2.03079891979e-05 0)
(0.865783592399 1.5622067712e-05 0)
(0.865800590537 7.17443039255e-06 0)
(0.865826847083 -6.93828695381e-06 0)
(0.865866343497 -2.8752365492e-05 0)
(0.865924974833 -6.21880422693e-05 0)
(0.866012153035 -0.000114269293195 0)
(0.866142580807 -0.000196015694522 0)
(0.866339184952 -0.000325111722525 0)
(0.866637477124 -0.000530743478907 0)
(0.867092318941 -0.000863066756428 0)
(0.867790916608 -0.00141106703346 0)
(0.868873339812 -0.00232719018786 0)
(0.870559379072 -0.00389305889545 0)
(0.873179215149 -0.00664662166 0)
(0.8771508502 -0.0116252696363 0)
(0.882826747442 -0.0207567809755 0)
(0.890430517806 -0.0374337725567 0)
(0.897553848434 -0.0674303705115 0)
(0.888252586377 -0.113858740686 0)
(1.01287875193 0.118961029647 0)
(1.08820671109 0.231806965074 0)
(1.1374136749 0.253106811255 0)
(1.15409086926 0.228992813912 0)
(1.14994211076 0.188368422777 0)
(1.13538466344 0.146579891425 0)
(1.11758897829 0.110150962644 0)
(1.10059507958 0.0808161166925 0)
(1.08612473704 0.0582262957712 0)
(1.0745912395 0.0413184340629 0)
(1.06579201654 0.0289150828447 0)
(1.05928888872 0.0199586431267 0)
(1.05460116142 0.0135794410572 0)
(1.05129284348 0.00909451948308 0)
(1.0490028216 0.005982295548 0)
(1.04744751914 0.00385206852856 0)
(1.04641205207 0.00241559385485 0)
(1.04573781797 0.00146302246321 0)
(1.04531021649 0.000843489142972 0)
(1.04504791837 0.000449806733321 0)
(1.04489391898 0.000206716946283 0)
(1.04480899988 6.25959717071e-05 0)
(1.04476794293 -1.59926854485e-05 0)
(1.04475376554 -5.46537521133e-05 0)
(1.04475436595 -6.99129887386e-05 0)
(1.04476262842 -7.18172341896e-05 0)
(1.04477421567 -6.66590648512e-05 0)
(1.04478656038 -5.83319949968e-05 0)
(1.04479825113 -4.91449040217e-05 0)
(1.04480859081 -4.03835884765e-05 0)
(1.04481731082 -3.26909096593e-05 0)
(1.04482438925 -2.63260560504e-05 0)
(1.04482995111 -2.1309855756e-05 0)
(1.04483421455 -1.7504871281e-05 0)
(1.04483743046 -1.46196541403e-05 0)
(1.04483989301 -1.23494022754e-05 0)
(1.04484195525 -1.05691483707e-05 0)
(1.04484360761 -8.95500077798e-06 0)
(1.04484476696 -7.62005704526e-06 0)
(1.04484555833 -6.6783702307e-06 0)
(1.04484602834 -6.1378073499e-06 0)
(1.04484625551 -5.84364592773e-06 0)
(1.04484630934 -5.72321476002e-06 0)
(1.04484624675 -5.68963980554e-06 0)
(1.04484610056 -5.6961965748e-06 0)
(1.04484589811 -5.72082056007e-06 0)
(1.04484566611 -5.75436425108e-06 0)
(1.0448454086 -5.80122988644e-06 0)
(1.04484512723 -5.84677743631e-06 0)
(1.04484484684 -5.87883250272e-06 0)
(1.04484459676 -5.89645015531e-06 0)
(1.04484441048 -5.90294136828e-06 0)
(1.04484433396 -5.90490176959e-06 0)
(1.04484443083 -5.91497810393e-06 0)
(1.04484479175 -5.95761729918e-06 0)
(1.04484556489 -6.08536351885e-06 0)
(1.04484702381 -6.44541500734e-06 0)
(1.04484942307 -7.46109292315e-06 0)
(1.04485304813 -9.52760361371e-06 0)
(1.04485830379 -1.32013417511e-05 0)
(1.04486611075 -1.8158788942e-05 0)
(1.04487776803 -2.43451897987e-05 0)
(1.0448945078 -3.39175223301e-05 0)
(1.04491850562 -4.98998451232e-05 0)
(1.04495327894 -7.66911296685e-05 0)
(1.04500400853 -0.000120700120294 0)
(1.04507836838 -0.000191918607732 0)
(1.04518783451 -0.000306274563594 0)
(1.04534980697 -0.00048953969551 0)
(1.04559064613 -0.000783771492222 0)
(1.04594999375 -0.00125805572433 0)
(1.04648732964 -0.002026989214 0)
(1.04728950999 -0.00328643687838 0)
(1.04847416044 -0.0053768471147 0)
(1.05017614963 -0.00889282321279 0)
(1.05246337433 -0.0148613694218 0)
(1.05510571008 -0.0249520042669 0)
(1.05732318845 -0.0415888257216 0)
(1.05639201897 -0.0678059818399 0)
(1.04289085568 -0.103397839 0)
(1.00447483573 0.0814040035786 0)
(1.06917237889 0.181288568476 0)
(1.13080569856 0.216950467297 0)
(1.17375002225 0.21078921688 0)
(1.19865268022 0.183690138146 0)
(1.21019992403 0.149751720411 0)
(1.21350262574 0.116779117101 0)
(1.2125173454 0.0882205269045 0)
(1.20973114181 0.065047792833 0)
(1.20651143221 0.047020235873 0)
(1.20351947689 0.0334056893341 0)
(1.20101194285 0.0233540169961 0)
(1.19903513849 0.0160695407583 0)
(1.19753972274 0.0108761220386 0)
(1.19644258413 0.00722973048522 0)
(1.19565726115 0.00470787637341 0)
(1.19510705814 0.00299072737851 0)
(1.19472922867 0.00184098163312 0)
(1.19447492341 0.00108555301512 0)
(1.1943073761 0.000600093267976 0)
(1.19419956471 0.000296550853082 0)
(1.19413223639 0.000113716501327 0)
(1.19409218387 9.65696199417e-06 0)
(1.19406989827 -4.51133378663e-05 0)
(1.19405863237 -6.97036705756e-05 0)
(1.19405415938 -7.65347755509e-05 0)
(1.19405365211 -7.35720792467e-05 0)
(1.19405527478 -6.57714784097e-05 0)
(1.1940578898 -5.61042552969e-05 0)
(1.19406082423 -4.6258553904e-05 0)
(1.19406370002 -3.71030792677e-05 0)
(1.19406632125 -2.90039093071e-05 0)
(1.19406861078 -2.20256939394e-05 0)
(1.19407057186 -1.6086305686e-05 0)
(1.19407223949 -1.10744399484e-05 0)
(1.19407364838 -6.89161446979e-06 0)
(1.1940748244 -3.51217773725e-06 0)
(1.1940757071 -1.03661505426e-06 0)
(1.19407620667 7.15909188386e-07 0)
(1.19407635392 1.86368235508e-06 0)
(1.19407636619 2.7252047659e-06 0)
(1.19407635556 3.4541460998e-06 0)
(1.19407631076 4.06717342872e-06 0)
(1.19407624345 4.5644549081e-06 0)
(1.19407612465 4.97888026203e-06 0)
(1.19407594412 5.34223500706e-06 0)
(1.1940757016 5.6704515671e-06 0)
(1.19407541975 5.95924774305e-06 0)
(1.19407513299 6.22192101858e-06 0)
(1.19407485753 6.48052534817e-06 0)
(1.19407461331 6.73722648688e-06 0)
(1.19407443707 6.97752591854e-06 0)
(1.19407438048 7.17610195725e-06 0)
(1.19407451006 7.29428572123e-06 0)
(1.1940749019 7.27459653706e-06 0)
(1.19407560204 7.03618210105e-06 0)
(1.19407652513 6.45988007608e-06 0)
(1.19407777 5.26446250458e-06 0)
(1.19407967416 2.86631182355e-06 0)
(1.19408339059 -1.03664476587e-06 0)
(1.19408999665 -7.13740339952e-06 0)
(1.19409924947 -1.68050110854e-05 0)
(1.19411167374 -3.21592904586e-05 0)
(1.19412916865 -5.60987771229e-05 0)
(1.1941538853 -9.32663824598e-05 0)
(1.19418861941 -0.000151108180685 0)
(1.19423733995 -0.000241509476616 0)
(1.19430566283 -0.000383354751127 0)
(1.19440148731 -0.000606834246441 0)
(1.19453569855 -0.000960539783539 0)
(1.19472272272 -0.0015231415403 0)
(1.19497990081 -0.00242232727823 0)
(1.1953228723 -0.00386753724186 0)
(1.19575030489 -0.00620261797428 0)
(1.19620367898 -0.00998550806769 0)
(1.1964643723 -0.0160935388528 0)
(1.19594233509 -0.0257956378697 0)
(1.1934662336 -0.0406437855451 0)
(1.18664802151 -0.0620279719137 0)
(1.16982876314 -0.088829861889 0)
(0.998962326915 0.0544316302078 0)
(1.05310957652 0.133401635082 0)
(1.11628270168 0.170777603088 0)
(1.17301275322 0.175143927591 0)
(1.21791251388 0.159583659121 0)
(1.25049865028 0.134951045388 0)
(1.27288500197 0.108411614396 0)
(1.28776732539 0.0838848019588 0)
(1.29745278445 0.0630561928242 0)
(1.30366083184 0.0462992260436 0)
(1.30759236532 0.0333193747242 0)
(1.31005361155 0.0235477916769 0)
(1.31157335496 0.0163574247381 0)
(1.312494391 0.0111679229031 0)
(1.31303771501 0.0074870600004 0)
(1.31334532173 0.00491886740921 0)
(1.31350812527 0.00315609032792 0)
(1.3135840153 0.0019666218525 0)
(1.31360952592 0.00117884847343 0)
(1.31360739503 0.000668176224271 0)
(1.31359147043 0.00034563026171 0)
(1.31357000665 0.000148698858915 0)
(1.31354782559 3.39386876595e-05 0)
(1.31352734314 -2.85437529983e-05 0)
(1.31350952655 -5.85268527497e-05 0)
(1.31349469881 -6.90646329518e-05 0)
(1.31348273426 -6.86009694091e-05 0)
(1.31347331589 -6.24391841147e-05 0)
(1.313466063 -5.38037299571e-05 0)
(1.3134605966 -4.45747747452e-05 0)
(1.3134565694 -3.57841611047e-05 0)
(1.31345367732 -2.79371483218e-05 0)
(1.31345166237 -2.12271795521e-05 0)
(1.31345029503 -1.56789975211e-05 0)
(1.31344937601 -1.12506686449e-05 0)
(1.31344877096 -7.86263088771e-06 0)
(1.31344839524 -5.40513015172e-06 0)
(1.31344813906 -3.72764916224e-06 0)
(1.31344794577 -2.56207748797e-06 0)
(1.31344793733 -1.6601376582e-06 0)
(1.31344810861 -9.26766774218e-07 0)
(1.31344823519 -4.00811194236e-07 0)
(1.31344822733 5.12867426717e-08 0)
(1.31344812919 4.39529082262e-07 0)
(1.31344798555 7.76203487609e-07 0)
(1.31344780378 1.08687706512e-06 0)
(1.31344757957 1.39905429433e-06 0)
(1.31344731584 1.74112692437e-06 0)
(1.31344703672 2.11357380428e-06 0)
(1.31344676042 2.48913404131e-06 0)
(1.3134464903 2.84355297969e-06 0)
(1.31344624143 3.15050239796e-06 0)
(1.31344604459 3.36887284689e-06 0)
(1.31344594309 3.43605658743e-06 0)
(1.31344600093 3.26039291645e-06 0)
(1.31344632648 2.71437125298e-06 0)
(1.31344704664 1.66152475397e-06 0)
(1.31344806809 8.05303967359e-08 0)
(1.31344968588 -2.24630371925e-06 0)
(1.31345227036 -5.80649440458e-06 0)
(1.3134559359 -1.20258758103e-05 0)
(1.3134609096 -2.26020780649e-05 0)
(1.31346741529 -3.91718058333e-05 0)
(1.31347586405 -6.48701681159e-05 0)
(1.31348651252 -0.000104783533329 0)
(1.31349935202 -0.000166797148791 0)
(1.31351389033 -0.000263220589129 0)
(1.31352862053 -0.000413375921346 0)
(1.31354005103 -0.000647808545514 0)
(1.31354086355 -0.00101502090092 0)
(1.31351669591 -0.00159227040855 0)
(1.31343936849 -0.00250175300865 0)
(1.31325309597 -0.00393683390077 0)
(1.31284795805 -0.00620035182441 0)
(1.31200963499 -0.00975440728897 0)
(1.31032406551 -0.0152700194286 0)
(1.30701997046 -0.0236235473723 0)
(1.30085146375 -0.0357297738574 0)
(1.28987793068 -0.0521307559345 0)
(1.2704858762 -0.071723593266 0)
(0.995736075656 0.0346338627408 0)
(1.0417951548 0.090568943321 0)
(1.10222841535 0.121549601251 0)
(1.16491416631 0.129605878381 0)
(1.22202573767 0.122009309 0)
(1.26951901708 0.106019953821 0)
(1.30680234627 0.087097511879 0)
(1.33499544953 0.0686365266862 0)
(1.3557448145 0.0523695048734 0)
(1.37069608171 0.0389250146015 0)
(1.38128244096 0.028297092386 0)
(1.38866199304 0.0201697945065 0)
(1.39372909583 0.0141153928334 0)
(1.39715458875 0.00970245005368 0)
(1.39943127948 0.00654681845579 0)
(1.40091524464 0.004329687535 0)
(1.40186010197 0.00279832368835 0)
(1.40244408855 0.00175885053425 0)
(1.40279081187 0.00106626837366 0)
(1.40298481698 0.000614367968067 0)
(1.40308306737 0.000326751584465 0)
(1.40312333796 0.000149381465199 0)
(1.40313026255 4.45616956897e-05 0)
(1.4031194108 -1.36621025317e-05 0)
(1.40310030776 -4.26959341983e-05 0)
(1.40307861807 -5.41048672146e-05 0)
(1.40305747594 -5.53802638139e-05 0)
(1.40303846225 -5.12602915109e-05 0)
(1.40302221976 -4.46577586469e-05 0)
(1.4030088506 -3.72965495092e-05 0)
(1.4029981675 -3.01438377621e-05 0)
(1.40298984573 -2.36913140952e-05 0)
(1.40298351292 -1.81468547407e-05 0)
(1.40297879571 -1.35523494038e-05 0)
(1.40297535217 -9.84051815322e-06 0)
(1.40297290207 -6.88565710262e-06 0)
(1.4029712339 -4.5564955551e-06 0)
(1.40297018034 -2.72573562487e-06 0)
(1.40296955667 -1.24257265528e-06 0)
(1.40296912572 -6.5232200242e-08 0)
(1.40296877198 8.19155854572e-07 0)
(1.40296856926 1.40612613876e-06 0)
(1.40296850023 1.82680798692e-06 0)
(1.40296844925 2.18238412075e-06 0)
(1.40296838007 2.51542899502e-06 0)
(1.40296828306 2.84811880881e-06 0)
(1.40296815433 3.19588683038e-06 0)
(1.40296799331 3.57155579099e-06 0)
(1.40296778951 3.9774078398e-06 0)
(1.40296753992 4.38844379613e-06 0)
(1.40296726639 4.78025115979e-06 0)
(1.40296699338 5.12869093802e-06 0)
(1.40296674454 5.39770175079e-06 0)
(1.40296654701 5.53310498277e-06 0)
(1.40296642662 5.45591436061e-06 0)
(1.40296639623 5.04695801248e-06 0)
(1.40296645519 4.11505602534e-06 0)
(1.40296663302 2.41669727222e-06 0)
(1.40296688689 -2.00114862921e-07 0)
(1.40296738734 -4.63376048092e-06 0)
(1.40296824307 -1.16840332876e-05 0)
(1.40296903082 -2.26397587503e-05 0)
(1.40296916462 -3.93579963927e-05 0)
(1.40296780812 -6.48125374135e-05 0)
(1.40296336001 -0.000103628819902 0)
(1.40295293243 -0.000162955818334 0)
(1.40293153864 -0.000253837875414 0)
(1.40289061653 -0.000393369308051 0)
(1.40281558277 -0.000608211452767 0)
(1.40268173335 -0.000940059040026 0)
(1.40244817595 -0.00145437056312 0)
(1.40204655588 -0.0022516954424 0)
(1.40136130612 -0.00348631165709 0)
(1.40019823454 -0.00539057007447 0)
(1.39823427948 -0.00830128605682 0)
(1.39493933255 -0.0126759760099 0)
(1.38947094911 -0.0190611670136 0)
(1.38063104405 -0.0279469630183 0)
(1.36683904446 -0.0394847362878 0)
(1.34556351572 -0.0528592296328 0)
(0.994011532983 0.0192358064913 0)
(1.03484764832 0.0523338547387 0)
(1.09199265928 0.0723631513055 0)
(1.15662425749 0.0791292608819 0)
(1.22032124875 0.0761045723332 0)
(1.27701956039 0.0673339801606 0)
(1.32424430021 0.0561508717782 0)
(1.36181581139 0.0447989049072 0)
(1.39068527928 0.0345301508078 0)
(1.41226051056 0.0258810254527 0)
(1.42801761649 0.0189458646297 0)
(1.43929765885 0.0135839878905 0)
(1.44722604196 0.00955511657534 0)
(1.45270090961 0.00659818529203 0)
(1.45641414613 0.00447166616817 0)
(1.45888458869 0.00297032873793 0)
(1.46049291568 0.00192888021443 0)
(1.46151325978 0.00121908915888 0)
(1.46213971252 0.000744253293825 0)
(1.46250749627 0.000433089298268 0)
(1.46270931389 0.000234060373851 0)
(1.46280767419 0.000110554055736 0)
(1.46284398945 3.69488392718e-05 0)
(1.46284506341 -4.45082530435e-06 0)
(1.46282777491 -2.55427010186e-05 0)
(1.46280246292 -3.43095086321e-05 0)
(1.46277518605 -3.59188494054e-05 0)
(1.46274925409 -3.36525306021e-05 0)
(1.46272627583 -2.95418213549e-05 0)
(1.46270684306 -2.47989533245e-05 0)
(1.46269097119 -2.01116285255e-05 0)
(1.46267837058 -1.58327721863e-05 0)
(1.46266861179 -1.21159128486e-05 0)
(1.46266122675 -8.99651293042e-06 0)
(1.46265576558 -6.43765304443e-06 0)
(1.46265182919 -4.36916693216e-06 0)
(1.4626490783 -2.72155771688e-06 0)
(1.46264721329 -1.44769112494e-06 0)
(1.46264594923 -5.13703318315e-07 0)
(1.46264517761 1.80560996085e-07 0)
(1.46264476428 7.7731176421e-07 0)
(1.46264451816 1.33724093922e-06 0)
(1.46264438443 1.81180095574e-06 0)
(1.46264430635 2.22301862533e-06 0)
(1.4626442458 2.60213879659e-06 0)
(1.4626441766 2.97000271234e-06 0)
(1.46264408033 3.33766605849e-06 0)
(1.46264394618 3.7073115104e-06 0)
(1.46264376639 4.07354955011e-06 0)
(1.46264353778 4.43810505791e-06 0)
(1.46264326437 4.78887827478e-06 0)
(1.4626429513 5.09537179236e-06 0)
(1.46264260399 5.31135053317e-06 0)
(1.46264222927 5.37142490723e-06 0)
(1.46264183609 5.18575289706e-06 0)
(1.4626414391 4.63699724754e-06 0)
(1.46264106022 3.58257169796e-06 0)
(1.46264062041 1.86673259597e-06 0)
(1.4626398579 -7.0453225491e-07 0)
(1.46263857841 -4.51746001401e-06 0)
(1.46263654542 -1.07471134807e-05 0)
(1.46263307801 -2.04877836632e-05 0)
(1.46262698831 -3.5247114586e-05 0)
(1.46261637472 -5.73660507818e-05 0)
(1.46259801569 -9.04329421014e-05 0)
(1.4625665796 -0.00013992351422 0)
(1.46251337743 -0.000214086532183 0)
(1.46242413537 -0.000325333484947 0)
(1.46227543691 -0.000492616752151 0)
(1.46202885576 -0.000745118804804 0)
(1.46162340409 -0.00112891687714 0)
(1.46096154961 -0.00171105505595 0)
(1.45988597142 -0.00259127153136 0)
(1.45814734682 -0.00391487944485 0)
(1.45535805984 -0.00588301481455 0)
(1.45092999091 -0.00875279049496 0)
(1.44400583645 -0.0128058028534 0)
(1.43345818234 -0.0182531609732 0)
(1.41793673467 -0.025082533129 0)
(1.39545831537 -0.0327899929122 0)
(0.993269669013 0.00617014769899 0)
(1.03158101318 0.0171020514124 0)
(1.08672185284 0.0239906581249 0)
(1.15174560662 0.0265606773513 0)
(1.21823545411 0.0258180698231 0)
(1.27925785421 0.0230488916675 0)
(1.33140147045 0.0193656234313 0)
(1.37377604851 0.0155468244349 0)
(1.40691046389 0.0120448549558 0)
(1.43203280614 0.00906626192419 0)
(1.45060137961 0.00666036924132 0)
(1.46402839798 0.00478974959758 0)
(1.4735476878 0.0033779393606 0)
(1.48017175022 0.0023380712803 0)
(1.4846965214 0.0015880402899 0)
(1.48772801911 0.00105718535969 0)
(1.48971615419 0.000688113817393 0)
(1.490987973 0.00043603902895 0)
(1.49177683778 0.00026704313385 0)
(1.4922464261 0.000156045285286 0)
(1.49250963814 8.48683449563e-05 0)
(1.49264304027 4.05724410636e-05 0)
(1.49269763476 1.40789259162e-05 0)
(1.49270669663 -9.02496383682e-07 0)
(1.49269134728 -8.59749365352e-06 0)
(1.49266463761 -1.18587268488e-05 0)
(1.49263435518 -1.25307845701e-05 0)
(1.49260483709 -1.17877624678e-05 0)
(1.49257827571 -1.0358939579e-05 0)
(1.49255556804 -8.67916565252e-06 0)
(1.49253686627 -6.99224605769e-06 0)
(1.49252191689 -5.43217411564e-06 0)
(1.49251026847 -4.05767002915e-06 0)
(1.49250140422 -2.88352086983e-06 0)
(1.49249481338 -1.89939150342e-06 0)
(1.49249003017 -1.08381572644e-06 0)
(1.49248665109 -4.14906683235e-07 0)
(1.49248434003 1.26159068579e-07 0)
(1.49248284403 5.74370497062e-07 0)
(1.49248192854 1.01386490357e-06 0)
(1.49248137976 1.36971110822e-06 0)
(1.49248107533 1.69147787418e-06 0)
(1.49248093197 2.00058636459e-06 0)
(1.492480876 2.31391666781e-06 0)
(1.49248085548 2.64268480722e-06 0)
(1.49248083556 2.99301062169e-06 0)
(1.49248079219 3.36760519357e-06 0)
(1.4924807089 3.76552100211e-06 0)
(1.49248057307 4.18031613376e-06 0)
(1.49248037567 4.60230307494e-06 0)
(1.49248011176 5.01317736094e-06 0)
(1.49247977674 5.38435877639e-06 0)
(1.49247936368 5.67561649343e-06 0)
(1.49247886093 5.83100192529e-06 0)
(1.49247824744 5.77279838723e-06 0)
(1.49247748668 5.3922975638e-06 0)
(1.49247653665 4.53298289425e-06 0)
(1.49247536499 2.98515455282e-06 0)
(1.49247369679 6.53462572608e-07 0)
(1.49247085954 -2.68908416682e-06 0)
(1.49246633706 -7.94719908891e-06 0)
(1.49245935805 -1.58477468066e-05 0)
(1.49244823407 -2.73952362117e-05 0)
(1.49243031609 -4.40538416787e-05 0)
(1.49240128724 -6.79120401493e-05 0)
(1.49235424074 -0.00010204146834 0)
(1.49227824651 -0.000150793928034 0)
(1.49215566773 -0.000220133439704 0)
(1.49195786524 -0.000318649141717 0)
(1.49163766621 -0.000459813053615 0)
(1.49112304581 -0.000668057979864 0)
(1.49030212883 -0.000969305258906 0)
(1.48899665692 -0.00139916329541 0)
(1.48693159295 -0.00200798346723 0)
(1.48369302639 -0.00285981453759 0)
(1.47867548451 -0.00402630731585 0)
(1.47103143898 -0.00556826118507 0)
(1.4596849627 -0.00749660110782 0)
(1.44339503556 -0.0097294235441 0)
(1.42041522718 -0.0120305148941 0)
(0.993270466822 -0.00616840738218 0)
(1.03158099589 -0.0171003800246 0)
(1.08672178672 -0.0239897674849 0)
(1.15174564456 -0.0265602538486 0)
(1.21823553232 -0.0258179979488 0)
(1.2792579565 -0.0230491073317 0)
(1.33140159663 -0.0193660283747 0)