/*--------------------------------*- C++ -*----------------------------------*\
| =========                 |                                                 |
| \\      /  F ield         | OpenFOAM: The Open Source CFD Toolbox           |
|  \\    /   O peration     | Version:  2106                                  |
|   \\  /    A nd           | Website:  www.openfoam.com                      |
|    \\/     M anipulation  |                                                 |
\*---------------------------------------------------------------------------*/
FoamFile
{
    version     2.0;
    format      ascii;
    arch        "LSB;label=32;scalar=64";
    class       volScalarField;
    location    "0.24";
    object      p;
}
// * * * * * * * * * * * * * * * * * * * * * * * * * * * * * * * * * * * * * //

dimensions      [0 2 -2 0 0 0 0];

internalField   nonuniform List<scalar> 
9600
(
2.23734316472
-0.660668374091
-1.56489907237
-1.95050861124
-2.16984006908
-2.30978327083
-2.41368807966
-2.50123761439
-2.58073701208
-2.6561271746
-2.72950092907
-2.80200955528
-2.87428274905
-2.94665107891
-3.01927125944
-3.09219932936
-3.16543524486
-3.23895043368
-3.31270474585
-3.38665540335
-3.4607615618
-3.53498880077
-3.6093066333
-3.68369084987
-3.75812216074
-3.83258548124
-3.90706928554
-3.98156462499
-4.05606456888
-4.13056384484
-4.20505845886
-4.27954526532
-4.35402147757
-4.42848467168
-4.50293270172
-4.57736366219
-4.65177581007
-4.72616726728
-4.80053592513
-4.8748795246
-4.94919586596
-5.02348260012
-5.09773721368
-5.17195666104
-5.24613782852
-5.32027760306
-5.39437251977
-5.46841861822
-5.54241177668
-5.61634772779
-5.69022181678
-5.76402895426
-5.83776371042
-5.91142019216
-5.98499209488
-6.05847284782
-6.1318553932
-6.20513204468
-6.27829451489
-6.35133399514
-6.42424136772
-6.49700685804
-6.5696198447
-6.64206901604
-6.71434254856
-6.78642781096
-6.85831121071
-6.92997846644
-7.00141462561
-7.07260370199
-7.14352855654
-7.21417119291
-7.28451284113
-7.35453359549
-7.42421210125
-7.49352604658
-7.56245231998
-7.63096620121
-7.69904139557
-7.76665047709
-7.8337649718
-7.9003551231
-7.96638928844
-8.03183406317
-8.09665485569
-8.16081568376
-8.2242785998
-8.28700400401
-8.34895079881
-8.41007584122
-8.47033425045
-8.52967969331
-8.58806373879
-8.64543576633
-8.70174362684
-8.75693339093
-8.81094879951
-8.86373143075
-8.91522110168
-8.96535616414
-9.01407269365
-9.06130416479
-9.10698231959
-9.15103733783
-9.19339728083
-9.23398787057
-9.27273317907
-9.30955567737
-9.34437551783
-9.37711089865
-9.40767859093
-9.43599386939
-9.46197007366
-9.48551876922
-9.50655014041
-9.52497278979
-9.54069398334
-9.55361995291
-9.56365561953
-9.57070499519
-9.57467084142
-9.57545475473
-9.57295804737
-9.56708142642
-9.5577253477
-9.54478826192
-9.52816960616
-9.50776856846
-9.48348268219
-9.45520867798
-9.42284483305
-9.38628934089
-9.34543805323
-9.30018696433
-9.25043198698
-9.19606719493
-9.13698491731
-9.07307584584
-9.00422754715
-8.93032247565
-8.85123865557
-8.76684690481
-8.67700920795
-8.58157486138
-8.48037608917
-8.37322604956
-8.25990877281
-8.14017173317
-8.01371307545
-7.88016207596
-7.73905406548
-7.58978488723
-7.4315374652
-7.26315850422
-7.08294452271
-6.88832306942
-6.67537129564
-6.43826490745
-6.17765967839
-5.95662631345
0.325802974747
-0.856552653576
-1.46522737251
-1.81925086109
-2.06186691316
-2.2324304973
-2.36050206387
-2.46500455577
-2.55608015498
-2.63935877197
-2.71813160594
-2.79434847719
-2.8691691098
-2.94328139901
-3.01708726694
-3.0908135627
-3.16458020678
-3.23844270662
-3.31241968173
-3.38650947659
-3.46070046413
-3.53497610433
-3.6093197826
-3.68371615445
-3.75815155978
-3.83261444729
-3.90709554404
-3.98158739134
-4.05608388836
-4.13058005834
-4.20507192493
-4.27955641662
-4.35403086659
-4.42849289584
-4.50294026744
-4.57737084409
-4.6517827387
-4.72617414328
-4.80054306415
-4.87488716635
-4.94920410507
-5.023491551
-5.09774685683
-5.17196716921
-5.24614926267
-5.32028991852
-5.39438578606
-5.46843301689
-5.54242741835
-5.61636464885
-5.69024007299
-5.76404860705
-5.83778489133
-5.91144312749
-5.98501693109
-6.05849961282
-6.13188410393
-6.20516287335
-6.27832775488
-6.35136985046
-6.42427989069
-6.49704815037
-6.56966413855
-6.64211652082
-6.71439342442
-6.78648229962
-6.85836960174
-6.93004094063
-7.00148129804
-7.07267481715
-7.14360448862
-7.21425224413
-7.28459917527
-7.35462554475
-7.4243101323
-7.49363035799
-7.56256300361
-7.63108364663
-7.69916621746
-7.76678317583
-7.83390572401
-7.90050405322
-7.96654686721
-8.03200089042
-8.09683129475
-8.16100209764
-8.22447549402
-8.2872117912
-8.34916992193
-8.41030689274
-8.47057767154
-8.52993580741
-8.58833311577
-8.64571902448
-8.7020411284
-8.75724550333
-8.81127618733
-8.86407490728
-8.91558112921
-8.96573290647
-9.01446665843
-9.06171616387
-9.10741300965
-9.15148714049
-9.19386674618
-9.23447756761
-9.27324343273
-9.31008690702
-9.34492841161
-9.37768606312
-9.40827623121
-9.43661412844
-9.46261324547
-9.48618515556
-9.5072402256
-9.52568720211
-9.54143321161
-9.55438426562
-9.56444519734
-9.57152009462
-9.57551204218
-9.57632271749
-9.57385329232
-9.56800445764
-9.55867590214
-9.54576672726
-9.5291757319
-9.50880260267
-9.4845466287
-9.45630519173
-9.42397618597
-9.38745888651
-9.34665052964
-9.30144794434
-9.25174849036
-9.19744823781
-9.13844147066
-9.07462135143
-9.00587961658
-8.93210336934
-8.85317579277
-8.76897416698
-8.6793690441
-8.5842214918
-8.48337766222
-8.37666941147
-8.26390587279
-8.14486752188
-8.01929872212
-7.88689328709
-7.74728116299
-7.60000725587
-7.44450100135
-7.28004246171
-7.10573803448
-6.92057560168
-6.72365157269
-6.51398735947
-6.29175007742
-6.07887245972
-0.65003974127
-1.1314074615
-1.52266712764
-1.81428304124
-2.03585594882
-2.20379202727
-2.33589371664
-2.44568220747
-2.54154071004
-2.62868550112
-2.7104277229
-2.78886193795
-2.86530900435
-2.94059845002
-3.01524628773
-3.08956785884
-3.16375051727
-3.23790028534
-3.31207297899
-3.38629406757
-3.46057144355
-3.53490296538
-3.60928184334
-3.68369968945
-3.75814771335
-3.83261756667
-3.90710202569
-3.98159506273
-4.05609162216
-4.13058741705
-4.20507872988
-4.27956253623
-4.35403624428
-4.42849761616
-4.5029445883
-4.57737503172
-4.65178686417
-4.72617813942
-4.80054698329
-4.87489120544
-4.94920831905
-5.02349588808
-5.09775133718
-5.17197192974
-5.24615445175
-5.32029550895
-5.39439172841
-5.46843943174
-5.54243444024
-5.61637232715
-5.69024843126
-5.76405765208
-5.83779458116
-5.91145353901
-5.98502822295
-6.05851187307
-6.13189728166
-6.20517692886
-6.27834278132
-6.35138603868
-6.42429731534
-6.49706682483
-6.56968416291
-6.64213799643
-6.71441638309
-6.78650682697
-6.85839587757
-6.93006909613
-7.0015113613
-7.07270684585
-7.14363864668
-7.21428873753
-7.28463805515
-7.35466684645
-7.42435415501
-7.49367738159
-7.5626129997
-7.63113655496
-7.69922222895
-7.76684268748
-7.83396902026
-7.90057111956
-7.96661772092
-8.03207582172
-8.09691055013
-8.1610857922
-8.22456383776
-8.28730496379
-8.34926804244
-8.41041026206
-8.47068662353
-8.53005042519
-8.58845352406
-8.64584560993
-8.70217415601
-8.75738495681
-8.81142210095
-8.86422768879
-8.91574125257
-8.96590037891
-9.01464137854
-9.06189832568
-9.10760290707
-9.15168488651
-9.19407253887
-9.23469183188
-9.27346631609
-9.3103182806
-9.34516845364
-9.37793533326
-9.40853536756
-9.43688351044
-9.46289321749
-9.48647604889
-9.50754221339
-9.52600065721
-9.54175879233
-9.5547226332
-9.56479688931
-9.57188558903
-9.57589197019
-9.5767178386
-9.57426430774
-9.56843280677
-9.55912340446
-9.54623611863
-9.52966953145
-9.50932263461
-9.48509539138
-9.45688632556
-9.4245931048
-9.38811541353
-9.34735221654
-9.30220139816
-9.25256125328
-9.19833001508
-9.1394045851
-9.07568005672
-9.00705133035
-8.93341057918
-8.85464665399
-8.77064335697
-8.68127946723
-8.58642761177
-8.48594789768
-8.37968981982
-8.26748708694
-8.14915189411
-8.02447168583
-7.89320117252
-7.75505586742
-7.60970566204
-7.45677174766
-7.29583270691
-7.12646052369
-6.94833751062
-6.76154917437
-6.56671285638
-6.36503301873
-6.16505883921
-1.20150096503
-1.38784588375
-1.63029368915
-1.85276211961
-2.03995213377
-2.19397995421
-2.32241727353
-2.43270788909
-2.53050223998
-2.61986226781
-2.70363350574
-2.78375997904
-2.86154961456
-2.93787160539
-3.01329628903
-3.08819217614
-3.16279303945
-3.23724333397
-3.31162914068
-3.38599936302
-3.46037955567
-3.53478092639
-3.6092069159
-3.68365544959
-3.75812320073
-3.83260550944
-3.90709755108
-3.98159491976
-4.05609371435
-4.13059054065
-4.20508228019
-4.27956618586
-4.354039774
-4.42850085071
-4.50294749675
-4.57737776137
-4.65178956759
-4.72618082244
-4.80054959806
-4.87489381784
-4.94921109585
-5.02349885245
-5.09775441385
-5.17197510565
-5.24615787363
-5.3202992602
-5.3943957261
-5.46844361185
-5.54243887446
-5.6163770744
-5.690253542
-5.76406319482
-5.83780055601
-5.91145988928
-5.98503501421
-6.05851923855
-6.13190529952
-6.20518557631
-6.27835199267
-6.35139591939
-6.42430798734
-6.49707831577
-6.56969649983
-6.64215129579
-6.71443065531
-6.78652198243
-6.85841197645
-6.9300863554
-7.00152985304
-7.07272647496
-7.14365948803
-7.21431099396
-7.28466182972
-7.3546920366
-7.42438080883
-7.49370580899
-7.56264338789
-7.63116883977
-7.69925631125
-7.7668786949
-7.83400726246
-7.90061173179
-7.96666064624
-8.03212113746
-8.09695841932
-8.16113630499
-8.22461719418
-8.28736134098
-8.3493273965
-8.4104726767
-8.47075244326
-8.53011981556
-8.58852641452
-8.64592215912
-8.70225474019
-8.7574697573
-8.8115110089
-8.86432072386
-8.91583885415
-8.96600300575
-9.01474906453
-9.06201121225
-9.10772137598
-9.15180912367
-9.19420255066
-9.23482800726
-9.27360922839
-9.31046802977
-9.34532489978
-9.3780986615
-9.40870582453
-9.43706116191
-9.46307820182
-9.48666869819
-9.50774270701
-9.52620907904
-9.54197537107
-9.55494787711
-9.56503137737
-9.57212980609
-9.57614648235
-9.57698342742
-9.57454193789
-9.56872305252
-9.55942739372
-9.54655513411
-9.53000565347
-9.50967792864
-9.48547218595
-9.45728841965
-9.42502502083
-9.38858183226
-9.34785917016
-9.3027566878
-9.25317406065
-9.19901121594
-9.14016819946
-9.07654333565
-9.00803453638
-8.93453859645
-8.85595066564
-8.77216207815
-8.68306011777
-8.58852920009
-8.48844485408
-8.38267469951
-8.27107687944
-8.15349628382
-8.02976280367
-7.89968867781
-7.76306894842
-7.6196826094
-7.46930258261
-7.31171717405
-7.14677541412
-6.974473851
-6.79512240292
-6.60940731583
-6.41824481242
-6.22477952287
-1.53884650153
-1.59060860044
-1.73450329648
-1.89879730181
-2.0531296603
-2.19118738789
-2.3133408937
-2.42212942849
-2.52057334778
-2.611403283
-2.69681107274
-2.77844895419
-2.85751880552
-2.93487260285
-3.01110204563
-3.08661072482
-3.1616692403
-3.23645583236
-3.31108518134
-3.38562930962
-3.4601320505
-3.53461870797
-3.60910305367
-3.68359074935
-3.758084368
-3.83258348813
-3.90708624452
-3.98159024601
-4.05609292316
-4.13059184458
-4.2050846185
-4.2795689856
-4.35404276757
-4.42850384651
-4.50295032182
-4.57738039774
-4.65179215651
-4.72618344035
-4.80055221403
-4.87489640544
-4.94921376419
-5.0235017308
-5.09775749791
-5.17197830729
-5.24616124333
-5.3203029504
-5.3943998129
-5.4684480849
-5.54244374859
-5.61638239562
-5.69025936142
-5.76406954451
-5.83780748438
-5.91146735063
-5.98504297433
-6.05852774822
-6.13191447965
-6.20519539616
-6.27836250303
-6.3514071735
-6.42432005586
-6.49709123662
-6.56971030868
-6.64216608782
-6.7144465226
-6.78653895541
-6.85843007507
-6.93010566503
-7.00155051037
-7.07274855344
-7.14368302155
-7.21433609786
-7.2846886645
-7.35472064393
-7.42441120921
-7.49373812999
-7.56267776002
-7.63120538739
-7.69929513583
-7.76691983135
-7.83405084756
-7.90065796122
-7.96670955419
-8.0321727786
-8.09701303166
-8.16119400304
-8.22467800512
-8.28742548128
-8.34939504004
-8.41054382936
-8.4708272413
-8.53019852362
-8.5886091292
-8.64600887856
-8.70234562319
-8.75756506897
-8.81161085466
-8.86442503644
-8.91594769284
-8.96611658186
-9.01486744212
-9.06213438203
-9.10784951156
-9.15194242948
-9.19434097221
-9.23497153365
-9.27375821661
-9.31062281816
-9.34548550204
-9.37826503496
-9.40887825432
-9.43723996745
-9.46326354193
-9.4868608607
-9.50794213202
-9.52641611427
-9.54219017336
-9.55517071857
-9.56526282926
-9.57237042695
-9.57639705358
-9.5772447142
-9.57481509352
-9.56900905099
-9.55972743981
-9.5468708345
-9.53033939346
-9.51003227745
-9.48584965703
-9.4576926566
-9.42546084056
-9.38905465249
-9.34837545395
-9.30332448401
-9.25380340122
-9.1997139879
-9.14095887929
-9.07744014094
-9.00905964833
-8.93571883785
-8.85731879832
-8.77375886983
-8.68493560791
-8.59074462434
-8.49107676685
-8.38581852939
-8.27485128626
-8.15805029252
-8.03528518237
-7.90641929515
-7.7713144146
-7.62983597405
-7.48186697572
-7.32732987744
-7.16622231283
-6.99866712216
-6.82496891797
-6.64557366191
-6.46081131033
-6.27128504371
-1.74292041456
-1.73794162952
-1.82191591929
-1.94270594466
-2.06934853063
-2.1920283302
-2.3069248297
-2.41312121788
-2.51140429586
-2.60319317381
-2.6899541462
-2.77296929431
-2.853273288
-2.93165994398
-3.00871730699
-3.08486979814
-3.16041752157
-3.23556878122
-3.31046554941
-3.38520285619
-3.45984317331
-3.53442640895
-3.6089773509
-3.683511083
-3.75803528766
-3.83255450123
-3.90707020261
-3.9815823737
-4.05609006027
-4.13059188843
-4.20508620566
-4.27957128631
-4.35404537734
-4.42850658805
-4.50295303586
-4.57738294623
-4.65179456508
-4.72618586977
-4.800554678
-4.87489884202
-4.94921616725
-5.02350422456
-5.09776018533
-5.17198114396
-5.24616417159
-5.32030603569
-5.39440315289
-5.46845170381
-5.54244763511
-5.61638652769
-5.69026372537
-5.76407418598
-5.83781250461
-5.91147279855
-5.98504882192
-6.05853397156
-6.13192111935
-6.20520264013
-6.27837034333
-6.35141560419
-6.42432915273
-6.49710103489
-6.56972079089
-6.64217731044
-6.71445859936
-6.78655190237
-6.85844381923
-6.93012024834
-7.00156610472
-7.07276524196
-7.1437007296
-7.21435486427
-7.28470872505
-7.35474210323
-7.42443394258
-7.49376215526
-7.56270330216
-7.63123261988
-7.69932408564
-7.76695044895
-7.83408316691
-7.90069215906
-7.96674576869
-8.03221109643
-8.09705353824
-8.16123668076
-8.22472291273
-8.28747289782
-8.34944517251
-8.41059662411
-8.47088273052
-8.53025702027
-8.58867082404
-8.64607372484
-8.70241366045
-8.75763657578
-8.81168608523
-8.86450398262
-8.91603042725
-8.96620337611
-9.01495850233
-9.0622297423
-9.10794937652
-9.15204718284
-9.19445073308
-9.23508617454
-9.27387783464
-9.31074782298
-9.34561624126
-9.37840149078
-9.40902048519
-9.43738818164
-9.46341797491
-9.48702165194
-9.50810952778
-9.52659063388
-9.54237233444
-9.55536076572
-9.56546123387
-9.57257795549
-9.57661405114
-9.57747231105
-9.57505455616
-9.56926170098
-9.55999454343
-9.54715391294
-9.53064088265
-9.51035524056
-9.48619697301
-9.45806795555
-9.42586906014
-9.38950155488
-9.34886800778
-9.30387106007
-9.25441419885
-9.20040146612
-9.14173800302
-9.07832913481
-9.01008070193
-8.93689922908
-8.85869162158
-8.77536427866
-8.68682303191
-8.59297452485
-8.49372308974
-8.38897258578
-8.27862595062
-8.16258480108
-8.04075193963
-7.91303206635
-7.77933857085
-7.63959810161
-7.49376394445
-7.34183476651
-7.18387250086
-7.02002573557
-6.85053136046
-6.67563301107
-6.49534479154
-6.30943044556
-1.866048758
-1.84059309555
-1.88995110729
-1.98011144812
-2.08503580404
-2.19435833688
-2.30219482671
-2.40541855735
-2.50309256584
-2.59548277474
-2.68335410896
-2.7675980592
-2.84905329788
-2.92843118163
-3.00629896005
-3.08309090332
-3.15912993184
-3.23465077972
-3.30982064489
-3.38475650473
-3.45953904321
-3.53422269715
-3.60884358028
-3.68342529008
-3.75798174968
-3.83252239919
-3.90705199655
-3.98157295708
-4.05608607277
-4.13059113491
-4.20508726647
-4.27957323534
-4.35404767636
-4.42850901052
-4.50295548487
-4.57738531418
-4.65179675426
-4.72618796152
-4.80055680061
-4.87490100895
-4.9492182935
-5.0235063218
-5.09776238024
-5.17198350146
-5.24616666206
-5.32030865657
-5.39440595973
-5.46845475297
-5.54245097442
-5.61639019974
-5.69026769966
-5.76407849686
-5.83781714247
-5.91147781845
-5.98505425079
-6.05853980507
-6.13192733257
-6.20520923685
-6.27837737365
-6.35142311237
-6.42433721081
-6.49710968434
-6.56973001994
-6.64218713455
-6.71446910656
-6.78656319471
-6.85845589376
-6.93013306378
-7.00157973993
-7.07277985139
-7.14371635705
-7.2143714672
-7.28472639572
-7.35476102365
-7.42445413776
-7.49378356928
-7.56272598799
-7.63125671359
-7.69934972407
-7.76697767804
-7.83411195695
-7.90072258443
-7.96677792736
-8.0322450525
-8.09708947118
-8.16127468742
-8.22476289397
-8.28751489763
-8.34948947162
-8.41064334471
-8.47093175708
-8.53030842735
-8.58872487047
-8.6461305156
-8.70247313035
-8.75769874625
-8.81175118729
-8.86457211757
-8.91610155327
-8.96627761498
-9.01503606901
-9.06231063343
-9.10803357415
-9.15213497125
-9.19454243307
-9.23518185928
-9.27397743039
-9.3108514472
-9.3457241923
-9.37851404229
-9.40913776943
-9.43751035057
-9.46354529814
-9.48715443569
-9.50824790627
-9.52673478807
-9.54252288914
-9.55551838512
-9.56562619711
-9.57275109453
-9.57679604521
-9.57766387042
-9.57525676753
-9.56947614401
-9.56022291151
-9.54739771498
-9.53090215804
-9.51063719761
-9.48650296804
-9.45840167785
-9.42623540255
-9.38990628163
-9.34931813631
-9.30437514999
-9.25498246006
-9.20104617935
-9.14247404655
-9.0791747583
-9.0110576161
-8.93803355956
-8.86001561674
-8.77691684032
-8.68865092695
-8.59513489233
-8.49628534756
-8.39202091912
-8.28226287997
-8.16693522054
-8.04596781145
-7.91929633415
-7.78687158743
-7.64866281541
-7.50466525116
-7.3549168418
-7.19950405456
-7.03856833714
-6.87229007682
-6.7008177752
-6.52411687544
-6.34192156196
-1.94009014653
-1.90904180858
-1.9389709399
-2.00874399053
-2.09791160068
-2.19678877611
-2.298667706
-2.39913986318
-2.49606664904
-2.58881282488
-2.67754983694
-2.76281616684
-2.84526112128
-2.92550878408
-3.0040976152
-3.08146423827
-3.15794810187
-3.23380542392
-3.30922501498
-3.38434314262
-3.45925665181
-3.53403303745
-3.60871866375
-3.68334502235
-3.75793133505
-3.83249193176
-3.90703455523
-3.98156379263
-4.05608200602
-4.13059010424
-4.20508798307
-4.27957485347
-4.35404963198
-4.4285110454
-4.50295755845
-4.57738735889
-4.65179867535
-4.72618972629
-4.80055851464
-4.87490277803
-4.94922008687
-5.02350806626
-5.0977641353
-5.17198537168
-5.24616867743
-5.32031080527
-5.39440825694
-5.46845721786
-5.54245363127
-5.61639308076
-5.69027082225
-5.76408181394
-5.83782067903
-5.91148161423
-5.98505834971
-6.05854419189
-6.13193204986
-6.20521430404
-6.27838282279
-6.35142894492
-6.42434350035
-6.49711650404
-6.56973732989
-6.64219487904
-6.71447732104
-6.7865719876
-6.85846533699
-6.93014311931
-7.00159041213
-7.07279125802
-7.14372856933
-7.2143844326
-7.28474012219
-7.35477567756
-7.4244698231
-7.49380024188
-7.5627436172
-7.63127534501
-7.6993694601
-7.76699863748
-7.83413418619
-7.90074610899
-7.96680276822
-8.03227118713
-8.09711703594
-8.16130390747
-8.22479374362
-8.28754724731
-8.34952346991
-8.41067927176
-8.47096962036
-8.53034813284
-8.58876655202
-8.6461743746
-8.70251920067
-8.75774699433
-8.81180171626
-8.86462509525
-8.91615698584
-8.96633553238
-9.01509669658
-9.06237408816
-9.10809974696
-9.15220390366
-9.19461439319
-9.23525708797
-9.27405591706
-9.31093321593
-9.34580938316
-9.37860286788
-9.40923034717
-9.43760686171
-9.46364597566
-9.48725963174
-9.50835792338
-9.52684978818
-9.54264307997
-9.55564426201
-9.56575870319
-9.57289070585
-9.57694352827
-9.57782002486
-9.57542262955
-9.56965308069
-9.56041272628
-9.54760230214
-9.53112338066
-9.51087791093
-9.48676677173
-9.45869243456
-9.42655792433
-9.39026628711
-9.34972249932
-9.30483225415
-9.25550239748
-9.20164108501
-9.14315820513
-9.07996569242
-9.01197669938
-8.93910575784
-8.8612711077
-8.77839256826
-8.69039090226
-8.59719199894
-8.49872320652
-8.39491613079
-8.28570756478
-8.17103893562
-8.0508621131
-7.92513738521
-7.79384161433
-7.65697334199
-7.51455587823
-7.36665051596
-7.21335576521
-7.05481123592
-6.89118233529
-6.72261380633
-6.54916136874
-6.37079217708
-1.98232274287
-1.9507606289
-1.97040412834
-2.02785083711
-2.10686332312
-2.19864234
-2.29625992046
-2.39464725216
-2.49092885496
-2.58386268885
-2.67319505628
-2.75919890947
-2.84237460662
-2.92327365124
-3.00240778279
-3.08021197126
-3.15703622815
-3.23315196855
-3.30876387448
-3.38402266429
-3.45903741136
-3.53388557653
-3.60862122261
-3.68328122701
-3.75789183981
-3.83246807625
-3.90702082112
-3.98155654303
-4.05607876715
-4.13058922388
-4.20508845009
-4.2795760655
-4.35405116552
-4.42851259838
-4.50295908042
-4.57738889437
-4.65180019497
-4.72619113631
-4.80055980895
-4.8749040623
-4.94922143295
-5.02350942722
-5.09776548364
-5.17198677225
-5.24617019666
-5.32031244644
-5.3944100191
-5.46845911451
-5.54245566127
-5.61639525584
-5.69027320728
-5.76408442433
-5.83782346484
-5.91148456346
-5.9850615021
-6.05854759584
-6.13193569753
-6.20521821499
-6.27838701075
-6.351433372
-6.42434817431
-6.49712154973
-6.5697428227
-6.64220075106
-6.7144835001
-6.78657852246
-6.85847234419
-6.93015061806
-7.00159835715
-7.07279971397
-7.14373767055
-7.21439418325
-7.28475042072
-7.3547865538
-7.42448143138
-7.49381266054
-7.56275682707
-7.63128930433
-7.69938416069
-7.76701415378
-7.83415061302
-7.90076354787
-7.96682128946
-8.0322906809
-8.09713744542
-8.16132546465
-8.22481661417
-8.287571274
-8.34954855294
-8.41070564021
-8.47099744672
-8.53037733376
-8.58879709552
-8.64620641366
-8.70255284231
-8.75778220779
-8.81183852381
-8.8646636546
-8.91619734263
-8.9663776015
-9.0151406001
-9.06242008598
-9.10814787873
-9.15225405323
-9.19466658836
-9.2353115614
-9.27411290238
-9.3109926859
-9.3458713916
-9.37866762349
-9.40929801665
-9.43767753027
-9.46371981541
-9.48733695069
-9.50843903703
-9.52693492493
-9.54273279769
-9.5557387165
-9.56585838435
-9.57299641473
-9.57705625958
-9.57794053212
-9.57555183996
-9.56979229074
-9.56056360237
-9.54776699294
-9.53130400792
-9.5110770148
-9.48698773476
-9.45893923048
-9.42683539949
-9.39058007555
-9.35007933277
-9.30524036205
-9.25597148435
-9.20218300541
-9.14378704387
-9.08069799715
-9.01283284361
-8.94011001647
-8.86245201399
-8.77978453189
-8.69203494336
-8.59913753596
-8.50102878589
-8.39765068642
-8.28895423934
-8.17489553491
-8.05544308843
-7.93057743943
-7.80029654793
-7.66462093959
-7.52359493908
-7.37730042
-7.22585299787
-7.06940496902
-6.90814318557
-6.74226615317
-6.57196751166
-6.39747152589
-2.00157104957
-1.97047679778
-1.98569895504
-2.03736776683
-2.11142437814
-2.19962587453
-2.2950300368
-2.3922985052
-2.48821042574
-2.58122110809
-2.67085630064
-2.7572467788
-2.84081108957
-2.92205953934
-3.00148787604
-3.07952913404
-3.15653837717
-3.23279485028
-3.30851165395
-3.38384727773
-3.45891737058
-3.53380478937
-3.60856793589
-3.6832471821
-3.75787032049
-3.83245501287
-3.90701329021
-3.98155257205
-4.0560770288
-4.13058879417
-4.20508874035
-4.27957676881
-4.35405209493
-4.42851358357
-4.50295998933
-4.57738977652
-4.65180112009
-4.72619207237
-4.80056067462
-4.8749048721
-4.94922227206
-5.02351032533
-5.09776640839
-5.17198771301
-5.2461712067
-5.32031356542
-5.39441122017
-5.46846041224
-5.5424570645
-5.61639675434
-5.6902747946
-5.7640861571
-5.83782535702
-5.91148659372
-5.98506363958
-6.05854985142
-6.13193810866
-6.20522081037
-6.27838982552
-6.35143639104
-6.42435132994
-6.49712485976
-6.56974638323
-6.64220461738
-6.71448761563
-6.78658284008
-6.85847692858
-6.93015553397
-7.00160357906
-7.07280523825
-7.14374359417
-7.21440057812
-7.2847572324
-7.35479371448
-7.42448898854
-7.49382069379
-7.56276537141
-7.63129837131
-7.69939372513
-7.76702422346
-7.83416119885
-7.9007746827
-7.96683314768
-8.03230329902
-8.09715062028
-8.16133918044
-8.22483113406
-8.2875866747
-8.34956462626
-8.41072237741
-8.47101504994
-8.53039585142
-8.58881644157
-8.64622658457
-8.70257398123
-8.75780435511
-8.81186162147
-8.8646877628
-8.91622259855
-8.96640399027
-9.01516806212
-9.06244871681
-9.10817783921
-9.15228537415
-9.19469923343
-9.23534549419
-9.27414837852
-9.31102983427
-9.34591019926
-9.37870819484
-9.40934062266
-9.43772231448
-9.46376674931
-9.48738622998
-9.50849112718
-9.52699017521
-9.5427913381
-9.55580126354
-9.56592525104
-9.57306808389
-9.57713372246
-9.57802481843
-9.57564388068
-9.5698933583
-9.56067522775
-9.54789113202
-9.53144302678
-9.51123365985
-9.48716519196
-9.45914121377
-9.42706677988
-9.39084659668
-9.35038749737
-9.30559828364
-9.25638880614
-9.20267105694
-9.14435961918
-9.08137136346
-9.01362641935
-8.94104703679
-8.863560006
-8.78109659626
-8.69358950351
-8.60098052739
-8.50321576562
-8.40024569403
-8.29203290771
-8.17854760074
-8.0597727086
-7.9357054024
-7.80636210404
-7.6717836941
-7.53203514198
-7.38721883596
-7.2374759425
-7.08298808661
-6.92398457003
-6.76073978939
-6.59358193544
-6.42293811615
-2.00157093214
-1.97047694525
-1.98569877166
-2.0373678207
-2.11142458999
-2.19962579743
-2.29503005883
-2.39229863572
-2.48821051114
-2.5812211856
-2.67085634765
-2.75724682729
-2.84081115692
-2.92205960238
-3.00148790343
-3.079529153
-3.15653842566
-3.23279490439
-3.3085116892
-3.38384733013
-3.45891745071
-3.53380486866
-3.6085679795
-3.68324720673
-3.7578703698
-3.83245509518
-3.90701337878
-3.98155266623
-4.05607716973
-4.13058897175
-4.20508889497
-4.27957691651
-4.35405230641
-4.42851386553
-4.50296024583
-4.57738999241
-4.65180137851
-4.72619242122
-4.80056104743
-4.87490521683
-4.94922263308
-5.02351075181
-5.09776689078
-5.17198820783
-5.24617171109
-5.32031413652
-5.39441186068
-5.46846110798
-5.54245781217
-5.61639755885
-5.69027563472
-5.76408703794
-5.83782633358
-5.91148767239
-5.98506480843
-6.05855105605
-6.13193933495
-6.20522208706
-6.27839121884
-6.35143793497
-6.42435295597
-6.49712652749
-6.56974811772
-6.64220647375
-6.71448959528
-6.78658489668
-6.85847909346
-6.93015788861
-7.00160609759
-7.07280783447
-7.14374631256
-7.21440354949
-7.284760475
-7.35479712767
-7.42449253494
-7.49382440983
-7.56276926236
-7.63130247283
-7.69939806986
-7.76702880353
-7.83416598807
-7.90077962989
-7.96683834739
-8.03230890141
-8.09715653175
-8.1613452133
-8.22483736497
-8.28759330063
-8.34957157446
-8.41072950661
-8.4710224446
-8.53040360316
-8.58882451843
-8.64623492973
-8.70258263633
-8.75781337968
-8.81187099232
-8.86469746977
-8.91623272298
-8.96641455862
-9.01517904684
-9.06246012186
-9.1081896606
-9.1522977473
-9.19471221482
-9.23535900504
-9.27416242635
-9.31104463683
-9.34592581915
-9.37872459874
-9.40935799825
-9.43774098732
-9.46378678024
-9.48740764286
-9.50851411739
-9.5270152664
-9.54281880612
-9.55583162574
-9.56595901342
-9.57310564669
-9.57717583288
-9.57807263132
-9.57569842427
-9.56995584884
-9.56074730275
-9.54797467191
-9.53154015589
-9.51134717791
-9.48729863408
-9.45929822196
-9.42725184897
-9.39106559603
-9.35064705356
-9.30590621893
-9.25675478071
-9.20310642983
-9.14487783991
-9.08198840463
-9.01436150127
-8.94192300705
-8.86460328174
-8.78233961583
-8.69507040305
-8.60274286761
-8.50531261376
-8.40273950662
-8.2949957804
-8.18206436882
-8.06394250411
-7.94064317328
-7.81219997739
-7.67867391079
-7.54015312257
-7.39676407188
-7.24867727589
-7.09611344831
-6.93935249327
-6.7787435672
-6.61472231669
-6.44784940092
-1.9823222926
-1.95076106558
-1.97040369168
-2.02785091564
-2.10686389353
-2.19864218785
-2.29626001956
-2.39464764809
-2.49092905071
-2.58386288087
-2.67319524945
-2.75919906903
-2.8423748188
-2.9232738594
-3.00240790678
-3.08021203665
-3.15703635895
-3.23315214362
-3.30876400577
-3.38402280012
-3.45903759021
-3.53388577308
-3.60862136659
-3.68328134168
-3.75789200078
-3.83246831302
-3.90702109738
-3.98155684782
-4.05607917488
-4.13058972797
-4.20508894636
-4.27957654376
-4.35405177783
-4.42851338289
-4.50295983547
-4.57738959491
-4.65180101347
-4.726192169
-4.80056090469
-4.87490510013
-4.94922252609
-5.0235106971
-5.09776690396
-5.17198824685
-5.24617174431
-5.32031417345
-5.39441192987
-5.46846119151
-5.5424579071
-5.61639767454
-5.69027576675
-5.76408713665
-5.83782640413
-5.9114877424
-5.98506492048
-6.05855119914
-6.13193944714
-6.20522212006
-6.27839119121
-6.35143793047
-6.42435298519
-6.49712652491
-6.56974805448
-6.64220636449
-6.71448946812
-6.78658472706
-6.85847884888
-6.93015761968
-7.00160585945
-7.07280757376
-7.1437459546
-7.21440312528
-7.28476006036
-7.35479670871
-7.42449205019
-7.4938238442
-7.56276858453
-7.63130165082
-7.69939713842
-7.76702782698
-7.83416498307
-7.90077846786
-7.96683694099
-8.03230741353
-8.09715506388
-8.16134357262
-8.22483542352
-8.28759121324
-8.34956939816
-8.41072705863
-8.47101965494
-8.53040058433
-8.58882128939
-8.64623141327
-8.70257880999
-8.75780930317
-8.81186664649
-8.86469278267
-8.91622773051
-8.96640929597
-9.0151734903
-9.06245430961
-9.10818345396
-9.1522911483
-9.1947053632
-9.23535200127
-9.27415515395
-9.31103713115
-9.34591821456
-9.37871691257
-9.40935023593
-9.43773342051
-9.46377964266
-9.4874008947
-9.50850814515
-9.52701026755
-9.542815098
-9.55582962995
-9.56595937673
-9.57310891464
-9.57718255308
-9.57808384285
-9.57571531347
-9.56997955425
-9.56077941005
-9.54801727985
-9.5315954379
-9.51141757972
-9.4873876779
-9.45941001814
-9.42739082968
-9.39123734084
-9.35085843056
-9.30616515859
-9.25707077337
-9.20349093639
-9.14534457932
-9.08255336254
-9.01504363201
-8.9427456034
-8.86559291444
-8.78352785409
-8.69649591854
-8.60444974895
-8.50735290921
-8.40517528893
-8.29789927068
-8.18551991392
-8.06804813362
-7.94551359257
-7.81796790261
-7.68549190661
-7.54819772302
-7.40623980317
-7.25981951471
-7.10919772178
-6.95470265117
-6.79674412582
-6.6358315889
-6.47259929448
-1.94008908767
-1.90904252369
-1.93897057938
-2.00874391072
-2.09791229509
-2.19678871229
-2.29866798922
-2.39914040242
-2.49606690748
-2.58881315844
-2.67755020444
-2.76281645859
-2.84526142824
-2.92550909324
-3.00409786603
-3.08146438506
-3.15794829205
-3.23380568816
-3.3092252559
-3.3843433621
-3.45925687717
-3.53403330923
-3.60871893287
-3.6833452647
-3.75793160478
-3.83249228671
-3.90703502229
-3.98156434753
-4.05608268747
-4.13059090011
-4.2050888403
-4.27957574073
-4.35405063569
-4.42851219706