/*--------------------------------*- C++ -*----------------------------------*\
| =========                 |                                                 |
| \\      /  F ield         | OpenFOAM: The Open Source CFD Toolbox           |
|  \\    /   O peration     | Version:  2106                                  |
|   \\  /    A nd           | Website:  www.openfoam.com                      |
|    \\/     M anipulation  |                                                 |
\*---------------------------------------------------------------------------*/
FoamFile
{
    version     2.0;
    format      ascii;
    arch        "LSB;label=32;scalar=64";
    class       volVectorField;
    location    "0.24";
    object      U;
}
// * * * * * * * * * * * * * * * * * * * * * * * * * * * * * * * * * * * * * //

dimensions      [0 1 -1 0 0 0 0];

internalField   nonuniform List<vector> 
9600
(
(0.675396185138 0.157677433645 0)
(0.563826159736 0.102430802729 0)
(0.381538926388 0.0510646946547 0)
(0.283853185865 0.0244589905174 0)
(0.232281027275 0.0119348224976 0)
(0.201907704233 0.0062303579141 0)
(0.183178399094 0.00352192663344 0)
(0.171271977584 0.00212007494474 0)
(0.163512231405 0.00132523504314 0)
(0.158392650557 0.000841456017845 0)
(0.155010689836 0.000534135337133 0)
(0.152789974187 0.000335039113961 0)
(0.151348688846 0.000205520972497 0)
(0.150429243363 0.00012179240925 0)
(0.149856457618 6.84343364095e-05 0)
(0.149511121977 3.51733020613e-05 0)
(0.149312511953 1.50864882202e-05 0)
(0.149206460599 3.50362031427e-06 0)
(0.149157078978 -2.70710627673e-06 0)
(0.149140968767 -5.61188478555e-06 0)
(0.149143252367 -6.52765663437e-06 0)
(0.149154649843 -6.41838740484e-06 0)
(0.149169590528 -5.78225177849e-06 0)
(0.149184964132 -4.92835286165e-06 0)
(0.149199136232 -4.04275008323e-06 0)
(0.149211385569 -3.22384062916e-06 0)
(0.149221524393 -2.51518729106e-06 0)
(0.149229652838 -1.9284570511e-06 0)
(0.1492360079 -1.45822627851e-06 0)
(0.149240874142 -1.09108959776e-06 0)
(0.149244533886 -8.10952070908e-07 0)
(0.149247241811 -6.01515720232e-07 0)
(0.149249215266 -4.47692961729e-07 0)
(0.149250632992 -3.36347680853e-07 0)
(0.149251637456 -2.56549345786e-07 0)
(0.149252339584 -1.99875312545e-07 0)
(0.149252823723 -1.59996481898e-07 0)
(0.149253152351 -1.31773100398e-07 0)
(0.149253371307 -1.11069629715e-07 0)
(0.14925351456 -9.51350728759e-08 0)
(0.149253606919 -8.25836880391e-08 0)
(0.149253666073 -7.33551505019e-08 0)
(0.14925370263 -6.95625654323e-08 0)
(0.149253722729 -7.01767510113e-08 0)
(0.149253732259 -7.30756338083e-08 0)
(0.149253735756 -7.7657565392e-08 0)
(0.149253735542 -8.38579655183e-08 0)
(0.149253733238 -9.16228676798e-08 0)
(0.149253730124 -1.00290212955e-07 0)
(0.149253726791 -1.09499636025e-07 0)
(0.149253723639 -1.19270900364e-07 0)
(0.149253721058 -1.2972085501e-07 0)
(0.149253719035 -1.40554308146e-07 0)
(0.149253717475 -1.51422419405e-07 0)
(0.149253716715 -1.62592144712e-07 0)
(0.149253716802 -1.74580308463e-07 0)
(0.149253716994 -1.87685530127e-07 0)
(0.149253716381 -2.01670849504e-07 0)
(0.149253714474 -2.16254701256e-07 0)
(0.14925371161 -2.31669405311e-07 0)
(0.149253708226 -2.48439306212e-07 0)
(0.149253704095 -2.66665819051e-07 0)
(0.149253698954 -2.86118988415e-07 0)
(0.149253693156 -3.06663696062e-07 0)
(0.149253687149 -3.28455335049e-07 0)
(0.149253680801 -3.51695121393e-07 0)
(0.149253673845 -3.76385273735e-07 0)
(0.149253666298 -4.02435117514e-07 0)
(0.149253658332 -4.30074543811e-07 0)
(0.14925364989 -4.59729186191e-07 0)
(0.149253640725 -4.91337115414e-07 0)
(0.149253631273 -5.24594775849e-07 0)
(0.149253622463 -5.59544757244e-07 0)
(0.149253614225 -5.96009791464e-07 0)
(0.14925360609 -6.33961645072e-07 0)
(0.149253598468 -6.74129385806e-07 0)
(0.149253591121 -7.17006551916e-07 0)
(0.149253582898 -7.62268639304e-07 0)
(0.149253573663 -8.09465817034e-07 0)
(0.14925356459 -8.58620257529e-07 0)
(0.14925355708 -9.10270574513e-07 0)
(0.149253550936 -9.64633440875e-07 0)
(0.149253544459 -1.02122130561e-06 0)
(0.149253537449 -1.08024234665e-06 0)
(0.149253531225 -1.14260445806e-06 0)
(0.149253525666 -1.20794262591e-06 0)
(0.149253520213 -1.27533191961e-06 0)
(0.149253515779 -1.34514969045e-06 0)
(0.149253512087 -1.41801261393e-06 0)
(0.149253507633 -1.49384815524e-06 0)
(0.14925350301 -1.57287665299e-06 0)
(0.149253499301 -1.6550771259e-06 0)
(0.149253495972 -1.73961645849e-06 0)
(0.149253493187 -1.82663267411e-06 0)
(0.149253491956 -1.91725702819e-06 0)
(0.14925349201 -2.01161182818e-06 0)
(0.149253492906 -2.10860273761e-06 0)
(0.149253496033 -2.20747728029e-06 0)
(0.149253503414 -2.30844931088e-06 0)
(0.149253515287 -2.41146141182e-06 0)
(0.149253530942 -2.51598816029e-06 0)
(0.14925355109 -2.62230225978e-06 0)
(0.149253577627 -2.73102288921e-06 0)
(0.149253612099 -2.84222207575e-06 0)
(0.149253656084 -2.95541179615e-06 0)
(0.149253713009 -3.07086701271e-06 0)
(0.149253786864 -3.18900683584e-06 0)
(0.149253880424 -3.30939008371e-06 0)
(0.149253998152 -3.43303997451e-06 0)
(0.149254146198 -3.56415077924e-06 0)
(0.149254331484 -3.70966236937e-06 0)
(0.149254563636 -3.87008863789e-06 0)
(0.1492548538 -4.04163373686e-06 0)
(0.149255214633 -4.22325894847e-06 0)
(0.149255662002 -4.41481642123e-06 0)
(0.149256216527 -4.6166016461e-06 0)
(0.149256905138 -4.83039794606e-06 0)
(0.149257759089 -5.05819046071e-06 0)
(0.149258816745 -5.30117145235e-06 0)
(0.149260128269 -5.56075139455e-06 0)
(0.149261753655 -5.83830926698e-06 0)
(0.149263766405 -6.13798713119e-06 0)
(0.149266261202 -6.46928445661e-06 0)
(0.149269367418 -6.85622896103e-06 0)
(0.149273246006 -7.3713240489e-06 0)
(0.149278037033 -8.10147317027e-06 0)
(0.149283932581 -8.98643789713e-06 0)
(0.14929122087 -9.99644449338e-06 0)
(0.14930024135 -1.11300094288e-05 0)
(0.14931141195 -1.23996142643e-05 0)
(0.149325251193 -1.38270421696e-05 0)
(0.149342392159 -1.54384970227e-05 0)
(0.149363620768 -1.72674013586e-05 0)
(0.149389916196 -1.93555786744e-05 0)
(0.149422490039 -2.17544633871e-05 0)
(0.149462847667 -2.45311296919e-05 0)
(0.14951286141 -2.77705701393e-05 0)
(0.149574855751 -3.15767362597e-05 0)
(0.149651721027 -3.60800660526e-05 0)
(0.149747062307 -4.14498742778e-05 0)
(0.149865377985 -4.79017533805e-05 0)
(0.150012289653 -5.57089375235e-05 0)
(0.150194840657 -6.52197080194e-05 0)
(0.15042187878 -7.68794772517e-05 0)
(0.15070456473 -9.12639972965e-05 0)
(0.1510570314 -0.000109116096937 0)
(0.151497276831 -0.000131403995449 0)
(0.152048376395 -0.000159399723425 0)
(0.152740146161 -0.000194779013865 0)
(0.15361152671 -0.000239776613008 0)
(0.15471404255 -0.000297407483255 0)
(0.156117125619 -0.000371886072271 0)
(0.157917152571 -0.000469835425244 0)
(0.160255567986 -0.000604686904295 0)
(0.163362074935 -0.000813637845911 0)
(0.167663353576 -0.00122024759441 0)
(0.174119580303 -0.00226299683696 0)
(0.185596715294 -0.00557627533119 0)
(0.210802029209 -0.0173719267349 0)
(0.266405202699 -0.060717587485 0)
(0.977201175001 0.296997121376 0)
(0.96268746589 0.250387265167 0)
(0.820646031749 0.158581012201 0)
(0.697824892414 0.0957993492514 0)
(0.610491664814 0.0579132757571 0)
(0.549133310206 0.0359038510656 0)
(0.50670597758 0.022930936298 0)
(0.477662010968 0.0149788785152 0)
(0.457815289969 0.0099097309766 0)
(0.444277666433 0.00658330902858 0)
(0.435087218954 0.00436198725439 0)
(0.428895551204 0.00286682694245 0)
(0.424768036018 0.00185972081579 0)
(0.422054228568 0.00118457285073 0)
(0.420301047725 0.000736111121881 0)
(0.419193675236 0.000442158906174 0)
(0.418514605622 0.000252858953851 0)
(0.418114828284 0.000133737959636 0)
(0.417893368688 6.10511805289e-05 0)
(0.417782725224 1.85763475358e-05 0)
(0.417738467618 -4.63562501156e-06 0)
(0.417731931093 -1.60111893807e-05 0)
(0.417745148416 -2.03070822689e-05 0)
(0.417767173178 -2.06095811239e-05 0)
(0.417791623398 -1.88560666175e-05 0)
(0.417815038091 -1.62213277209e-05 0)
(0.417835757935 -1.33838121777e-05 0)
(0.417853190529 -1.0706315144e-05 0)
(0.417867339693 -8.35784805871e-06 0)
(0.417878511348 -6.39374003668e-06 0)
(0.417887136629 -4.80696639354e-06 0)
(0.41789367008 -3.5591020151e-06 0)
(0.417898536278 -2.59886888407e-06 0)
(0.41790210569 -1.87308758165e-06 0)
(0.417904686464 -1.3325246444e-06 0)
(0.417906526538 -9.35200314357e-07 0)
(0.417907820632 -6.47295086083e-07 0)
(0.417908718156 -4.41612394906e-07 0)
(0.417909331177 -2.96068938593e-07 0)
(0.417909742877 -1.93844250557e-07 0)
(0.417910014251 -1.23281949996e-07 0)
(0.417910188182 -7.62768916663e-08 0)
(0.417910295387 -4.81348158794e-08 0)
(0.417910358486 -3.29055579911e-08 0)
(0.417910392816 -2.52182623757e-08 0)
(0.417910408502 -2.19992829821e-08 0)
(0.417910412237 -2.07735049551e-08 0)
(0.417910409372 -1.97923005145e-08 0)
(0.41791040342 -1.94067166617e-08 0)
(0.417910395656 -1.97279279304e-08 0)
(0.417910386887 -2.07369048818e-08 0)
(0.417910378264 -2.22892019914e-08 0)
(0.417910370567 -2.40585805126e-08 0)
(0.417910363534 -2.53118781602e-08 0)
(0.417910356873 -2.61777501744e-08 0)
(0.417910350541 -2.75081802246e-08 0)
(0.41791034428 -3.00398765817e-08 0)
(0.417910337448 -3.3395686646e-08 0)
(0.417910329172 -3.67980885466e-08 0)
(0.417910319357 -3.99713101659e-08 0)
(0.417910308502 -4.34779380104e-08 0)
(0.417910296767 -4.74914330615e-08 0)
(0.417910283962 -5.1568537833e-08 0)
(0.41791027012 -5.54106957067e-08 0)
(0.417910255544 -5.90454711732e-08 0)
(0.41791024031 -6.26995112729e-08 0)
(0.417910224356 -6.66608441957e-08 0)
(0.417910207436 -7.08765005526e-08 0)
(0.41791018919 -7.51162797071e-08 0)
(0.417910169631 -7.95175397907e-08 0)
(0.417910149071 -8.42572603465e-08 0)
(0.417910128092 -8.91650679085e-08 0)
(0.417910107567 -9.42625329694e-08 0)
(0.417910087398 -9.93762519984e-08 0)
(0.417910066601 -1.04114205667e-07 0)
(0.417910045228 -1.09203491423e-07 0)
(0.417910023641 -1.15613029714e-07 0)
(0.417910001303 -1.22983088181e-07 0)
(0.417909977866 -1.30178653501e-07 0)
(0.417909953957 -1.36623924367e-07 0)
(0.417909931009 -1.43191224998e-07 0)
(0.417909909468 -1.50973011974e-07 0)
(0.417909887397 -1.59360704742e-07 0)
(0.41790986364 -1.67769319143e-07 0)
(0.417909840113 -1.77268021576e-07 0)
(0.417909818102 -1.87758225991e-07 0)
(0.417909796735 -1.9772439704e-07 0)
(0.417909776034 -2.07527070203e-07 0)
(0.417909756055 -2.18253405386e-07 0)
(0.417909735487 -2.29502387924e-07 0)
(0.417909715013 -2.41238051976e-07 0)
(0.417909696785 -2.5400425109e-07 0)
(0.417909680615 -2.67096574483e-07 0)
(0.417909665781 -2.80345201304e-07 0)
(0.417909653506 -2.95496480083e-07 0)
(0.417909645385 -3.13372158409e-07 0)
(0.417909642082 -3.32412670257e-07 0)
(0.417909644833 -3.51598766063e-07 0)
(0.417909656483 -3.72933843354e-07 0)
(0.41790967913 -3.99213613072e-07 0)
(0.417909713052 -4.30201907462e-07 0)
(0.417909759703 -4.64967777657e-07 0)
(0.417909823137 -5.04398057421e-07 0)
(0.417909908144 -5.49140750013e-07 0)
(0.417910019249 -5.98534810408e-07 0)
(0.417910163313 -6.53468238616e-07 0)
(0.417910349831 -7.1618860261e-07 0)
(0.417910587001 -7.86473603137e-07 0)
(0.417910883094 -8.6330268697e-07 0)
(0.417911248554 -9.45312258267e-07 0)
(0.417911705023 -1.02594953183e-06 0)
(0.417912285528 -1.10733309014e-06 0)
(0.417913020087 -1.1992728073e-06 0)
(0.417913939995 -1.30854406759e-06 0)
(0.417915086685 -1.43989194487e-06 0)
(0.417916512199 -1.59775286465e-06 0)
(0.417918283166 -1.7902587496e-06 0)
(0.417920482235 -2.02819329323e-06 0)
(0.417923211244 -2.32262617806e-06 0)
(0.417926598517 -2.68782982086e-06 0)
(0.417930798566 -3.14130337752e-06 0)
(0.417935998875 -3.70643264809e-06 0)
(0.417942432189 -4.41589869985e-06 0)
(0.417950376265 -5.31556997121e-06 0)
(0.417960180751 -6.49780357688e-06 0)
(0.41797234513 -8.08137241971e-06 0)
(0.417987478429 -1.00968348133e-05 0)
(0.418006264392 -1.26110262579e-05 0)
(0.418029554471 -1.57245448601e-05 0)
(0.418058416744 -1.95711588147e-05 0)
(0.418094183267 -2.43267457893e-05 0)
(0.4181384981 -3.02059258509e-05 0)
(0.418193399309 -3.74721074139e-05 0)
(0.418261419764 -4.64534368155e-05 0)
(0.418345696397 -5.75548344698e-05 0)
(0.418450122795 -7.12799170654e-05 0)
(0.418579542009 -8.8258143308e-05 0)
(0.418739972378 -0.000109274089682 0)
(0.418938893233 -0.00013530459169 0)
(0.419185622992 -0.000167576431573 0)
(0.419491791365 -0.000207637012041 0)
(0.419871934105 -0.00025744189395 0)
(0.420344259578 -0.000319472835202 0)
(0.420931639499 -0.000396897669638 0)
(0.421662919532 -0.000493797257006 0)
(0.42257463754 -0.000615463464414 0)
(0.423713340982 -0.000768835315452 0)
(0.425138776595 -0.000963143301649 0)
(0.426928346428 -0.00121085901781 0)
(0.429183608011 -0.00152923749977 0)
(0.432040099168 -0.00194293999892 0)
(0.435682976319 -0.00248894684829 0)
(0.440373615019 -0.00322701240109 0)
(0.446498601982 -0.00426481118006 0)
(0.454666473494 -0.005824727697 0)
(0.465893032268 -0.00842830248726 0)
(0.481950221758 -0.0134077460544 0)
(0.50625543074 -0.0243817893398 0)
(0.545467994042 -0.0514589547968 0)
(0.603907449829 -0.119134152372 0)
(1.03387038722 0.239240965227 0)
(1.08314081884 0.293634377345 0)
(1.03294437831 0.239131932279 0)
(0.954408205408 0.174539019971 0)
(0.880112580735 0.121551463299 0)
(0.818677609933 0.0832335927672 0)
(0.771466782907 0.0568258120454 0)
(0.736691560499 0.0388125728238 0)
(0.711672087226 0.0264913175074 0)
(0.693953115326 0.0180235764516 0)
(0.681568189708 0.0121876209068 0)
(0.673018591124 0.00816650426541 0)
(0.667192225215 0.00540556630538 0)
(0.663277744421 0.0035222628176 0)
(0.66069030717 0.0022496119364 0)
(0.659012732682 0.00140002769009 0)
(0.657950524402 0.000841455201153 0)
(0.657298069366 0.000481122213573 0)
(0.656913524039 0.000254193478979 0)
(0.656700332419 0.000115710449141 0)
(0.656593724638 3.47964271815e-05 0)
(0.656551012098 -9.4647299044e-06 0)
(0.656544670537 -3.10085988111e-05 0)
(0.656557369555 -3.90722762405e-05 0)
(0.656578553493 -3.95447260109e-05 0)
(0.656602077007 -3.61171691203e-05 0)
(0.656624606828 -3.1027896605e-05 0)
(0.656644544684 -2.55668510301e-05 0)
(0.656661319721 -2.0422627056e-05 0)
(0.656674934823 -1.59151708743e-05 0)
(0.65668568421 -1.21480868194e-05 0)
(0.65669398281 -9.10549218844e-06 0)
(0.656700268434 -6.7120159034e-06 0)
(0.656704950341 -4.86932220902e-06 0)
(0.656708384628 -3.47643070726e-06 0)
(0.65671086702 -2.44039939836e-06 0)
(0.656712635763 -1.68170026998e-06 0)
(0.656713878428 -1.13500201553e-06 0)
(0.656714738936 -7.47308491858e-07 0)
(0.65671532526 -4.7672047482e-07 0)
(0.656715717967 -2.91494227253e-07 0)
(0.656715976037 -1.67880379468e-07 0)
(0.656716141607 -8.73580417275e-08 0)
(0.656716244209 -3.62509195882e-08 0)
(0.656716304477 -4.78088161297e-09 0)
(0.656716337642 1.37673648337e-08 0)
(0.65671635391 2.4265934403e-08 0)
(0.656716358535 3.04007394023e-08 0)
(0.656716355044 3.37909085109e-08 0)
(0.656716346884 3.59642335661e-08 0)
(0.656716336472 3.857349111e-08 0)
(0.656716325583 4.19853818277e-08 0)
(0.656716315384 4.57407907982e-08 0)
(0.6567163059 4.96337597436e-08 0)
(0.656716296511 5.38911379677e-08 0)
(0.656716286781 5.83453828415e-08 0)
(0.656716276765 6.25869965752e-08 0)
(0.656716266589 6.65525688378e-08 0)
(0.656716255568 7.05015193984e-08 0)
(0.656716243112 7.52284656412e-08 0)
(0.656716229427 8.07922461778e-08 0)
(0.656716214896 8.67627486784e-08 0)
(0.656716199319 9.30232803986e-08 0)
(0.656716182594 9.98075205007e-08 0)
(0.656716165036 1.07159723277e-07 0)
(0.65671614654 1.15032240803e-07 0)
(0.656716126915 1.23252314587e-07 0)
(0.656716106265 1.31795103075e-07 0)
(0.656716084465 1.40878825281e-07 0)
(0.656716061176 1.50553260503e-07 0)
(0.656716036288 1.61003069107e-07 0)
(0.656716010351 1.72646480806e-07 0)
(0.656715984575 1.8512008592e-07 0)
(0.656715959344 1.97870276309e-07 0)
(0.656715933484 2.1145353625e-07 0)
(0.656715906362 2.26292959757e-07 0)
(0.656715878514 2.41592553895e-07 0)
(0.656715850257 2.56890582267e-07 0)
(0.65671582154 2.72929095441e-07 0)
(0.656715792164 2.90850522188e-07 0)
(0.656715762524 3.10536703053e-07 0)
(0.656715733706 3.30267352678e-07 0)
(0.656715705012 3.49603957071e-07 0)
(0.65671567464 3.70085552457e-07 0)
(0.656715643752 3.91904361867e-07 0)
(0.656715614591 4.14314502131e-07 0)
(0.656715586607 4.38212383012e-07 0)
(0.656715559069 4.63840593808e-07 0)
(0.656715532527 4.90043387015e-07 0)
(0.656715506175 5.17283313596e-07 0)
(0.656715479835 5.46586713266e-07 0)
(0.65671545577 5.77013257839e-07 0)
(0.656715434878 6.07802898835e-07 0)
(0.656715416201 6.39754146368e-07 0)
(0.656715400334 6.72729127108e-07 0)
(0.656715389961 7.05572737859e-07 0)
(0.656715387101 7.38561154239e-07 0)
(0.656715391777 7.73110391294e-07 0)
(0.656715404852 8.09395974503e-07 0)
(0.656715430642 8.47054373023e-07 0)
(0.6567154739 8.8513252034e-07 0)
(0.656715537183 9.22494311293e-07 0)
(0.65671562449 9.58055576729e-07 0)
(0.656715743101 9.90030974341e-07 0)
(0.656715900072 1.01765390485e-06 0)
(0.656716103441 1.03989545761e-06 0)
(0.656716366537 1.05271853833e-06 0)
(0.656716705266 1.05227229134e-06 0)
(0.656717138089 1.03676526342e-06 0)
(0.656717691525 1.00511022841e-06 0)
(0.656718390614 9.59904285773e-07 0)
(0.656719257678 8.94735309099e-07 0)
(0.65672033053 7.94756358815e-07 0)
(0.656721663355 6.46176904575e-07 0)
(0.6567233209 4.3414826351e-07 0)
(0.656725379291 1.42744647974e-07 0)
(0.656727931963 -2.49042597389e-07 0)
(0.656731096586 -7.68902393446e-07 0)
(0.656735019129 -1.45017731677e-06 0)
(0.656739881653 -2.33570260294e-06 0)
(0.656745906591 -3.47875992393e-06 0)
(0.656753366604 -4.94326277572e-06 0)
(0.6567626065 -6.80936488632e-06 0)
(0.656774051224 -9.17471232498e-06 0)
(0.656788219612 -1.21501299679e-05 0)
(0.656805758419 -1.58734082138e-05 0)
(0.656827470354 -2.05639306631e-05 0)
(0.656854353002 -2.64800843681e-05 0)
(0.65688764397 -3.39269698593e-05 0)
(0.656928871175 -4.32780631153e-05 0)
(0.656979932045 -5.50054864241e-05 0)
(0.657043174964 -6.96934388833e-05 0)
(0.657121507687 -8.80609499586e-05 0)
(0.657218540114 -0.000111003851211 0)
(0.657338747087 -0.000139633724454 0)
(0.6574876788 -0.000175328512472 0)
(0.65767223054 -0.000219804836089 0)
(0.657900972238 -0.000275208622136 0)
(0.658184556304 -0.000344218537063 0)
(0.658536240845 -0.000430184312355 0)
(0.658972553212 -0.000537317418354 0)
(0.659514132178 -0.00067093333523 0)
(0.660186801889 -0.000837770613963 0)
(0.661022948183 -0.00104641799431 0)
(0.662063334727 -0.00130790963848 0)
(0.663359478729 -0.00163654710426 0)
(0.664976815697 -0.00205106812634 0)
(0.666999032507 -0.00257638378257 0)
(0.669534061593 -0.0032462104338 0)
(0.672722662556 -0.00410728904425 0)
(0.676751114651 -0.00522655004623 0)
(0.681870641014 -0.00670409261304 0)
(0.688428235659 -0.00869849898398 0)
(0.696917103967 -0.0114796093761 0)
(0.708060186996 -0.0155446973788 0)
(0.722933631296 -0.0218796845345 0)
(0.743091193865 -0.0325254891678 0)
(0.770641197083 -0.0517324877877 0)
(0.807778706344 -0.0881349808809 0)
(0.850736992135 -0.15628816661 0)
(1.03384128136 0.171306949032 0)
(1.1023158484 0.275556745679 0)
(1.11663621092 0.266312371064 0)
(1.09207924619 0.219892603618 0)
(1.05195419505 0.168210316735 0)
(1.01022220873 0.123615335576 0)
(0.973507708917 0.0888850592439 0)
(0.943885934941 0.0630494621515 0)
(0.921162786871 0.0442607984537 0)
(0.904299811586 0.0307744351845 0)
(0.892086126197 0.021183016725 0)
(0.883411227758 0.014417300614 0)
(0.87735506035 0.00968544389007 0)
(0.87319621678 0.00640758858824 0)
(0.87038806665 0.00416172446816 0)
(0.868526261597 0.00264232210475 0)
(0.867317304014 0.00162947670028 0)
(0.866551589902 0.00096602361016 0)
(0.866081662089 0.000540570666731 0)
(0.865805304686 0.000274924430552 0)
(0.865652730742 0.000114789248032 0)
(0.865577099465 2.29543423668e-05 0)
(0.86554748808 -2.57266546132e-05 0)
(0.865543951705 -4.80469560277e-05 0)
(0.865554000266 -5.49272969426e-05 0)
(0.865570003743 -5.33288763413e-05 0)
(0.865587541042 -4.75757310335e-05 0)
(0.865604230907 -4.02482634756e-05 0)
(0.865618944067 -3.28011904482e-05 0)
(0.865631290004 -2.59835487554e-05 0)
(0.865641289821 -2.01169817303e-05 0)
(0.865649171876 -1.52765175145e-05 0)
(0.865655248363 -1.14049591062e-05 0)
(0.865659845498 -8.38385600949e-06 0)
(0.865663265894 -6.07468278402e-06 0)
(0.865665771522 -4.34081278879e-06 0)
(0.865667579767 -3.05941187797e-06 0)
(0.865668866181 -2.12673105103e-06 0)
(0.865669768673 -1.4578770206e-06 0)
(0.865670392402 -9.85144298642e-07 0)
(0.865670816365 -6.55724123786e-07 0)
(0.865671099188 -4.30042906195e-07 0)
(0.865671283803 -2.78691347039e-07 0)
(0.865671400698 -1.7976128327e-07 0)
(0.865671471025 -1.16612333303e-07 0)
(0.865671510176 -7.75208166328e-08 0)
(0.865671529116 -5.48508680686e-08 0)
(0.865671535109 -4.31239429882e-08 0)
(0.865671533173 -3.75835522288e-08 0)
(0.865671526974 -3.52270639358e-08 0)
(0.865671518211 -3.41393315245e-08 0)
(0.865671507558 -3.41421107009e-08 0)
(0.865671496026 -3.53629543398e-08 0)
(0.865671484323 -3.80192572515e-08 0)
(0.865671472533 -4.18336363097e-08 0)
(0.865671460206 -4.65391695324e-08 0)
(0.865671447097 -5.21435294995e-08 0)
(0.865671433224 -5.89589396365e-08 0)
(0.865671418314 -6.64717572022e-08 0)
(0.865671402012 -7.41451910259e-08 0)
(0.865671384112 -8.15208745518e-08 0)
(0.865671364709 -8.86455985874e-08 0)
(0.865671343975 -9.57202743735e-08 0)
(0.865671321963 -1.0284716012e-07 0)
(0.86567129877 -1.10316704597e-07 0)
(0.86567127445 -1.18125534103e-07 0)
(0.865671248966 -1.26156686106e-07 0)
(0.86567122209 -1.34553300774e-07 0)
(0.865671193311 -1.43324162708e-07 0)
(0.8656711629 -1.52271962357e-07 0)
(0.865671131546 -1.6106057385e-07 0)
(0.86567109909 -1.69547235659e-07 0)
(0.865671065801 -1.7813473506e-07 0)
(0.865671032503 -1.87683353376e-07 0)
(0.865670998751 -1.98219837501e-07 0)
(0.865670963531 -2.09104098012e-07 0)
(0.865670926659 -2.20447349316e-07 0)
(0.865670888733 -2.32668220947e-07 0)
(0.865670850676 -2.45868102941e-07 0)
(0.865670812525 -2.59590684757e-07 0)
(0.865670773326 -2.73304906047e-07 0)
(0.8656707334 -2.87947855728e-07 0)
(0.865670693414 -3.0479722728e-07 0)
(0.86567065233 -3.22862901856e-07 0)
(0.865670610473 -3.40912591654e-07 0)
(0.865670570164 -3.59861790542e-07 0)
(0.865670531406 -3.80153018895e-07 0)
(0.865670492749 -4.0137087095e-07 0)
(0.865670454891 -4.24381356926e-07 0)
(0.865670418249 -4.49489705021e-07 0)
(0.865670382074 -4.75590842844e-07 0)
(0.865670347621 -5.03077126587e-07 0)
(0.865670316753 -5.3377324546e-07 0)
(0.865670289652 -5.67952370042e-07 0)
(0.865670266372 -6.04957876314e-07 0)
(0.865670249119 -6.45691480405e-07 0)
(0.865670241423 -6.91632665844e-07 0)
(0.865670245411 -7.42774273388e-07 0)
(0.865670263457 -7.98528331056e-07 0)
(0.865670298458 -8.58816367689e-07 0)
(0.865670352183 -9.25861633419e-07 0)
(0.865670427825 -1.00165689436e-06 0)
(0.865670531246 -1.08694858894e-06 0)
(0.865670671175 -1.18425135348e-06 0)
(0.865670857168 -1.29693390912e-06 0)
(0.865671098351 -1.4275327968e-06 0)
(0.86567140796 -1.58063154891e-06 0)
(0.865671803649 -1.76342493314e-06 0)
(0.865672305414 -1.98355074847e-06 0)
(0.8656729388 -2.25205428546e-06 0)
(0.865673735702 -2.586473874e-06 0)
(0.865674733658 -3.00121372013e-06 0)
(0.8656759791 -3.50924247245e-06 0)
(0.865677530478 -4.1298733567e-06 0)
(0.865679461832 -4.88950396298e-06 0)
(0.865681862911 -5.8207725542e-06 0)
(0.865684842668 -6.96432148908e-06 0)
(0.865688537994 -8.3707750739e-06 0)
(0.865693118843 -1.01018152146e-05 0)
(0.865698796819 -1.22357028497e-05 0)
(0.865705832948 -1.48693442194e-05 0)
(0.865714547365 -1.81217185555e-05 0)
(0.865725339977 -2.21406850251e-05 0)
(0.865738707705 -2.71175756603e-05 0)
(0.865755262237 -3.32873077475e-05 0)
(0.86577575969 -4.0935791479e-05 0)
(0.865801134606 -5.04102662816e-05 0)
(0.865832549742 -6.21391488659e-05 0)
(0.865871448392 -7.66580527714e-05 0)
(0.865919610844 -9.46307284083e-05 0)
(0.865979246272 -0.000116887534755 0)
(0.866053094141 -0.000144460964475 0)
(0.866144545381 -0.000178629077982 0)
(0.866257805507 -0.000220983501856 0)
(0.866398089302 -0.000273502981871 0)
(0.866571863326 -0.000338645874104 0)
(0.866787152562 -0.000419472956663 0)
(0.867053922542 -0.000519805475595 0)
(0.867384555429 -0.00064442024206 0)
(0.867794448119 -0.000799294842566 0)
(0.868302764873 -0.000991934362883 0)
(0.868933394757 -0.00123179697657 0)
(0.869716168265 -0.00153085632754 0)
(0.870688398108 -0.00190434546638 0)
(0.871896886061 -0.0023717738556 0)
(0.873400528602 -0.00295834446854 0)
(0.87527372728 -0.00369694733459 0)
(0.877610957427 -0.0046310780927 0)
(0.880532930527 -0.00581922523491 0)
(0.884195084048 -0.00734173456867 0)
(0.888799484097 -0.00931209038912 0)
(0.894611668127 -0.011896354176 0)
(0.901984430799 -0.0153483687819 0)
(0.911390160448 -0.02007612707 0)
(0.923459777892 -0.0267700234257 0)
(0.93900673226 -0.0366498782649 0)
(0.958949935593 -0.0519072745563 0)
(0.98396667611 -0.0763631286242 0)
(1.01342846405 -0.11609828345 0)
(1.04138570251 -0.178271691239 0)
(1.02388345877 0.119321984353 0)
(1.08875436272 0.231514424338 0)
(1.13660483419 0.252868939244 0)
(1.15406272788 0.228905047646 0)
(1.15000112203 0.188337386178 0)
(1.13537623178 0.1465772917 0)
(1.11757776753 0.11016482017 0)
(1.10059198488 0.0808376067304 0)
(1.08612239827 0.0582502018253 0)
(1.07458760526 0.0413417871311 0)
(1.06578678493 0.0289362847477 0)
(1.05928155709 0.0199770222206 0)
(1.05459132096 0.0135949319248 0)
(1.05128026554 0.00910742844923 0)
(1.04898736064 0.00599313331174 0)
(1.04742905139 0.00386144079139 0)
(1.0463904577 0.00242413545061 0)
(1.04571298882 0.00147134638032 0)
(1.04528205665 0.000852133719407 0)
(1.04501637484 0.000459260631443 0)
(1.04485925311 0.000217487145395 0)
(1.04477182511 7.47160486983e-05 0)
(1.04472784572 -4.6475391999e-06 0)
(1.04470998119 -4.44470362293e-05 0)
(1.04470705609 -6.05373326855e-05 0)
(1.04471197935 -6.30948868572e-05 0)
(1.04472041986 -5.85455175122e-05 0)
(1.04472986132 -5.08125963352e-05 0)
(1.04473893575 -4.21812605879e-05 0)
(1.04474698217 -3.38940649219e-05 0)
(1.04475376033 -2.65494738673e-05 0)
(1.04475926641 -2.03636652047e-05 0)
(1.04476361623 -1.5338624598e-05 0)
(1.0447669758 -1.13679502756e-05 0)
(1.04476952131 -8.30056773865e-06 0)
(1.04477141746 -5.97594166139e-06 0)
(1.04477280743 -4.24309043442e-06 0)
(1.04477381105 -2.97067278913e-06 0)
(1.04477452551 -2.04998539644e-06 0)
(1.04477502677 -1.39339552987e-06 0)
(1.04477537287 -9.31753071484e-07 0)
(1.0447756074 -6.11746344574e-07 0)
(1.04477576317 -3.93370155445e-07 0)
(1.04477586419 -2.46990880484e-07 0)
(1.04477592702 -1.50383323449e-07 0)
(1.04477596369 -8.73479608493e-08 0)
(1.044775983 -4.67593348728e-08 0)
(1.04477599061 -2.10372494704e-08 0)
(1.0447759902 -5.10996692692e-09 0)
(1.04477598446 4.19562930294e-09 0)
(1.04477597495 9.25847785844e-09 0)
(1.04477596291 1.24585135094e-08 0)
(1.04477594975 1.47947227851e-08 0)
(1.04477593613 1.60281761461e-08 0)
(1.04477592207 1.61842294276e-08 0)
(1.04477590716 1.57312869449e-08 0)
(1.04477589096 1.53244031231e-08 0)
(1.04477587425 1.479776029e-08 0)
(1.04477585716 1.39454409369e-08 0)
(1.04477583873 1.27147802778e-08 0)
(1.04477581885 1.15233219033e-08 0)
(1.0447757977 1.07537506552e-08 0)
(1.04477577516 1.06587298733e-08 0)
(1.04477575097 1.11761922289e-08 0)
(1.0447757253 1.19321941363e-08 0)
(1.04477569829 1.28003519702e-08 0)
(1.04477566984 1.39006978476e-08 0)
(1.04477563991 1.52073808837e-08 0)
(1.04477560828 1.69872571718e-08 0)
(1.04477557514 1.96736087112e-08 0)
(1.04477554073 2.30216062878e-08 0)
(1.04477550469 2.66957352467e-08 0)
(1.04477546716 3.09066861924e-08 0)
(1.04477542907 3.50969267059e-08 0)
(1.04477539031 3.86101044706e-08 0)
(1.04477535004 4.19400784137e-08 0)
(1.04477530818 4.57937587534e-08 0)
(1.04477526518 5.02816005762e-08 0)
(1.04477522165 5.48853970884e-08 0)
(1.04477517791 5.90201676907e-08 0)
(1.04477513283 6.31800831612e-08 0)
(1.04477508604 6.79030760204e-08 0)
(1.04477503887 7.23167528224e-08 0)
(1.04477499127 7.64043271597e-08 0)
(1.04477494274 8.1311861074e-08 0)
(1.04477489472 8.64168623977e-08 0)
(1.04477484798 9.0860790155e-08 0)
(1.04477480134 9.54074200582e-08 0)
(1.04477475497 9.98659288211e-08 0)
(1.04477470989 1.03102888417e-07 0)
(1.04477466554 1.05662865251e-07 0)
(1.04477462215 1.0829091904e-07 0)
(1.04477458131 1.09472971489e-07 0)
(1.04477454415 1.07759400574e-07 0)
(1.04477451098 1.03568322666e-07 0)
(1.044774483 9.67823276172e-08 0)
(1.04477446341 8.54355393751e-08 0)
(1.04477445459 6.74889627576e-08 0)
(1.04477445804 4.14526669704e-08 0)
(1.04477447653 4.34579206864e-09 0)
(1.04477451464 -4.68897760167e-08 0)
(1.04477457762 -1.13739745188e-07 0)
(1.04477467064 -1.97732916529e-07 0)
(1.04477480152 -3.02825501921e-07 0)
(1.04477498043 -4.35519765138e-07 0)
(1.04477521754 -6.01880072102e-07 0)
(1.04477552625 -8.08627861242e-07 0)
(1.0447759249 -1.06513010339e-06 0)
(1.04477643514 -1.38196635695e-06 0)
(1.04477708338 -1.7722933678e-06 0)
(1.04477790149 -2.25325186299e-06 0)
(1.04477892745 -2.84665112428e-06 0)
(1.04478020947 -3.57893401813e-06 0)
(1.04478180895 -4.48193736647e-06 0)
(1.04478380278 -5.59531981253e-06 0)
(1.04478628401 -6.96861265513e-06 0)
(1.04478936582 -8.66326082713e-06 0)
(1.04479319092 -1.07557792672e-05 0)
(1.0447979359 -1.33382183183e-05 0)
(1.04480381999 -1.65249821678e-05 0)
(1.04481111433 -2.046107963e-05 0)
(1.04482015294 -2.53233478334e-05 0)
(1.04483135002 -3.13318652252e-05 0)
(1.04484521916 -3.87634703315e-05 0)
(1.04486239578 -4.79622657305e-05 0)
(1.04488366586 -5.93527334429e-05 0)
(1.04490999945 -7.3454303475e-05 0)
(1.04494260111 -9.09084911447e-05 0)
(1.04498296715 -0.000112515469693 0)
(1.04503294362 -0.000139263415154 0)
(1.04509481997 -0.00017237855833 0)
(1.04517143661 -0.000213384804734 0)
(1.04526630653 -0.000264170524737 0)
(1.04538378329 -0.000327083923241 0)
(1.04552926545 -0.00040504329458 0)
(1.04570944381 -0.000501674558188 0)
(1.04593261364 -0.000621490560506 0)
(1.04620906429 -0.000770117080651 0)
(1.04655156486 -0.000954579509935 0)
(1.04697597174 -0.00118366299258 0)
(1.04750198398 -0.00146838293844 0)
(1.04815409489 -0.00182259600098 0)
(1.04896279596 -0.00226379814929 0)
(1.04996608483 -0.00281418354291 0)
(1.05121138911 -0.00350207218898 0)
(1.05275801912 -0.00436386728155 0)