/*--------------------------------*- C++ -*----------------------------------*\
| =========                 |                                                 |
| \\      /  F ield         | OpenFOAM: The Open Source CFD Toolbox           |
|  \\    /   O peration     | Version:  2106                                  |
|   \\  /    A nd           | Website:  www.openfoam.com                      |
|    \\/     M anipulation  |                                                 |
\*---------------------------------------------------------------------------*/
FoamFile
{
    version     2.0;
    format      ascii;
    arch        "LSB;label=32;scalar=64";
    class       volScalarField;
    location    "0.16";
    object      p;
}
// * * * * * * * * * * * * * * * * * * * * * * * * * * * * * * * * * * * * * //

dimensions      [0 2 -2 0 0 0 0];

internalField   nonuniform List<scalar> 
11200
(
151.448955779
148.520353655
147.406501661
146.879168659
146.511836697
146.217055758
145.955409196
145.706867862
145.462346553
145.217275648
144.968958007
144.715638933
144.456086398
144.189364798
143.91470725
143.631440332
143.338938245
143.036595041
142.723811956
142.400000922
142.06453823
141.716774894
141.356052584
140.981703447
140.593041907
140.189366657
139.769961501
139.334096029
138.881026347
138.409995706
137.920235079
137.410963685
136.881389053
136.330707283
135.758103683
135.162753932
134.543823983
133.900470266
133.231840093
132.537072088
131.815296516
131.06563549
130.287203173
129.479105857
128.640441896
127.770301467
126.867766114
125.93190802
124.961788897
123.956458427
122.914952122
121.836288482
120.719465304
119.563454891
118.36719787
117.129595301
115.849498708
114.525697554
113.156903479
111.741730436
110.278669689
108.76605833
107.202039041
105.58451128
103.911065394
102.178896555
100.384694494
98.5244992324
96.5935066006
94.5858017648
92.4939956836
90.3087295363
88.0178048996
85.6050374843
83.0483457979
80.3160790176
77.3606534659
74.109535733
70.4091994427
65.6464491255
149.655914031
148.29773953
147.506766867
147.006750748
146.61576024
146.291875096
146.0073511
145.74274582
145.487254811
145.234729699
144.981343179
144.724581652
144.462708052
144.194445887
143.9187947
143.634919664
143.342083394
143.039603105
142.726820416
142.403073524
142.06771229
141.720061239
141.359476694
140.985290498
140.596806647
140.193318116
139.774105877
139.338437694
138.88556839
138.41474024
137.925183244
137.416115112
136.886741365
136.33626177
135.763863578
135.168722536
134.55000433
133.906865344
133.238452902
132.543905698
131.82235414
131.072920561
130.294719441
129.486857508
128.648433682
127.778538878
126.876255597
125.940657234
124.970807031
123.965756571
122.92454373
121.846189961
120.729696754
119.574041002
118.378169029
117.140988953
115.861361055
114.538085674
113.169887955
111.755398717
110.293130662
108.781448494
107.218528656
105.602308671
103.930421369
102.200125406
100.408205633
98.5508248289
96.6233435145
94.6200767817
92.5339556057
90.3560233929
88.0747331121
85.6749491811
83.1362771646
80.4302101365
77.5159498138
74.3356536416
70.786510545
66.6734944238
148.660723833
148.006522999
147.454166084
147.016546547
146.644920503
146.322816198
146.033713518
145.763476646
145.503010625
145.24652662
144.990139659
144.731168033
144.467699682
144.19830761
143.921870719
143.637460378
143.344266967
143.041551935
142.728617042
142.404785487
142.069395248
141.721806776
141.361276048
140.987149426
140.598734806
140.1953226
139.776191479
139.340608124
138.887827047
138.417090744
137.927630062
137.418664843
136.889404317
136.33904106
135.766757298
135.171730882
134.553128739
133.910107748
133.241816076
132.547393256
131.825970559
131.076671251
130.298610916
129.490897589
128.652631764
127.782906269
126.880805941
125.945407023
124.975776238
123.970969455
122.930029814
121.851985226
120.735845104
119.580596053
118.385196259
117.148568327
115.869590258
114.547084192
113.179802204
111.7664083
110.305455356
108.795356494
107.234348203
105.620460466
103.951456685
102.224744496
100.437282157
98.5854709493
96.6649964791
94.670619873
92.5958912666
90.4327475738
88.1710936029
85.7980125303
83.2967816065
80.6455365884
77.8162944964
74.7774210122
71.4929116921
67.9396867531
148.11096267
147.747580901
147.347681673
146.978689363
146.6410702
146.3329648
146.047598117
145.776890548
145.514514782
145.255843885
144.997459848
144.736831133
144.472057897
144.201672848
143.924499889
143.639556489
143.34598634
143.043013286
142.729910251
142.40597737
142.070523758
141.722859281
141.362342762
140.988250993
140.599873293
140.196501956
139.777415406
139.341879096
138.889146425
138.418458898
137.929046225
137.420126499
136.890907055
136.34058609
135.768353307
135.173383301
134.554843544
133.911892107
133.243676043
132.549335271
131.828001914
131.078800246
130.300847288
129.493252947
128.655120045
127.785544315
126.883614173
125.948410249
124.979004601
123.974459543
122.933826018
121.856141511
120.740427167
119.585683944
118.390887628
117.154982578
115.87687383
114.555416921
113.189404879
111.777552064
110.318476218
108.810680678
107.252504243
105.642088893
103.977332676
102.255836769
100.474826039
98.6310484613
96.720650798
94.7390229259
92.6806076215
90.5386750292
88.3049928847
85.9695181251
83.5201593728
80.9428137648
78.2227276525
75.3501809762
72.3287570763
69.1956107915
147.776914776
147.545118862
147.243705256
146.932726288
146.627884222
146.335857749
146.056878692
145.787748872
145.524784751
145.264696246
145.004722981
144.742627553
144.476617441
144.205243555
143.927309181
143.641797341
143.347815412
143.04455422
142.731258501
142.407205703
142.071690996
141.724018086
141.363490626
140.989398059
140.601043213
140.197709768
139.778670918
139.343189702
138.890518172
138.419897269
137.930556772
137.421715446
136.892581131
136.342350448
135.770209438
135.175334345
134.556890775
133.914036165
133.24592127
132.551686376
131.830466
131.081386767
130.303568171
129.496122927
128.658157121
127.788770371
126.887055714
125.952099325
124.982979881
123.97876818
122.938525602
121.86130225
120.74613466
119.592042591
118.398024754
117.163053209
115.886065769
114.565958011
113.201572721
111.791688655
110.335004409
108.830107628
107.275461421
105.669371539
104.009944705
102.295039411
100.522208325
98.688629434
96.7910230085
94.8255546273
92.7877273504
90.6722762514
88.4730925411
86.1832567381
83.7953463869
81.3023494867
78.7000655118
75.9929321842
73.2023080643
70.3788913146
147.573522351
147.397619877
147.156423975
146.8890964
146.61190701
146.335265766
146.06357268
145.797067303
145.534298163
145.273285252
145.011993715
144.74855653
144.481348242
144.20897801
143.930252927
143.644135282
143.349703044
143.046116848
142.732594007
142.408388776
142.072777801
141.72504923
141.364493672
140.990401408
140.602061866
140.198754301
139.779749259
139.344307733
138.891680285
138.421106615
137.931815528
137.42302497
136.893942211
136.343764007
135.771677019
135.176858464
134.558476734
133.915691472
133.247653747
132.553507826
131.832389363
131.083425613
130.305738099
129.498442231
128.660647416
127.791457811
126.889972102
125.955283415
124.986479119
123.982639847
122.942838957
121.86614141
120.751601835
119.598262011
118.405147606
117.17126423
115.895593313
114.577083717
113.214642968
111.807125526
110.353312701
108.851911252
107.301538144
105.700677872
104.047663625
102.340645867
100.577553917
98.7560540954
96.8735064105
94.9269250259
92.9129538359
90.8278812011
88.6677411761
86.4285927571
84.1071511568
81.7020650564
79.2164033517
76.6623245491
74.0667868703
71.4769064082
147.450405637
147.294797627
147.088494779
146.851931081
146.596453834
146.333171928
146.068555994
145.805044449
145.542908146
145.28131933
145.018944034
144.754305793
144.48597485
144.212642658
143.933137034
143.646410393
143.351517818
143.047593504
142.733829476
142.409457868
142.073736892
141.725940145
141.365348806
140.991245342
140.602910889
140.199619745
139.780639602
139.345229267
138.892637795
138.422104033
137.932856395
137.424112796
136.895080746
136.34495771
135.772931545
135.178180406
134.559873147
133.917170182
133.249223661
132.555177272
131.834166088
131.085321194
130.307768602
129.500627839
128.663013347
127.794034585
126.89279662
125.958400333
124.989942432
123.98651513
122.947205824
121.871096835
120.757263983
119.604774895
118.41268669
117.180042682
115.905867685
114.589165167
113.228912177
111.824044762
110.373463151
108.87600779
107.330449654
105.735476481
104.089676876
102.391521979
100.639347645
98.8313400354
96.9655294953
95.0398016935
93.0519427653
90.9997469997
88.8812363784
86.6950799116
84.4413487153
82.1228041249
79.7470015647
77.3295509261
74.8973461354
72.4897707113
147.376326037
147.226315581
147.039559054
146.823452315
146.583744498
146.330921198
146.072281806
145.811541185
145.550171991
145.288247915
145.025028163
144.75938935
144.490090982
144.215911815
143.935708323
143.648430655
143.35311732
143.048881011
142.734892215
142.410363796
142.074537808
141.726674928
141.366046225
140.991926162
140.603590948
140.200309966
139.78134813
139.34596221
138.893399907
138.422899274
137.933688329
137.424984911
136.895996714
136.345921463
135.773947198
135.179252554
134.561007228
133.918372165
133.250500365
132.556538039
131.835626675
131.086899802
130.309484144
129.502502682
128.665074461
127.796314812
126.895335922
125.961247243
124.993155831
123.99016677
122.951383374
121.875906662
120.762835201
119.611264364
118.420285189
117.188982876
115.91643477
114.60170804
113.243852488
111.841902157
110.39486442
108.901719381
107.361412828
105.772848339
104.134881986
102.446318728
100.705913274
98.9123796935
97.0644167575
95.1607598334
93.2002775474
91.182140251
89.1061046964
86.9729862753
84.7854028555
82.54889462
80.2735085829
77.9758661641
75.6806708001
73.4199607715
147.334049742
147.184601774
147.00818542
146.804446091
146.574911989
146.329201937
146.07484008
145.816199695
145.55549086
145.293394642
145.029595209
144.763234742
144.493221729
144.218407517
143.937675353
143.649977037
143.354340537
143.049863334
142.735700113
142.411049335
142.075140862
141.727225482
141.366566547
140.992433458
140.604095136
140.200820791
139.781872287
139.346504669
138.893964673
138.423489796
137.934307787
137.425636481
136.896683785
136.346647824
135.774717204
135.180071377
134.561881107
133.919309036
133.251510531
132.557634217
131.836820305
131.088205649
130.310922032
129.504096954
128.666854542
127.79831636
126.897602182
125.963830689
124.996120163
123.993589178
122.955357301
121.880545687
120.768277457
119.617677852
118.427874185
117.1979955
115.927171938
114.614533669
113.25921262
111.860339077
110.417041716
108.928447002
107.393679237
105.811862018
104.182122673
102.503601185
100.775467233
98.9969493715
97.1673849727
95.2863013823
93.3535450465
91.3694836375
89.3353160514
87.2535374514
85.1286000254
82.9678081875
80.7824257836
78.5888844273
76.4092550178
74.2697494299
147.314773364
147.16489524
146.992931566
146.79499506
146.570432381
146.328311721
146.076174804
145.818663983
145.558334912
145.296171807
145.03207947
144.765342202
144.494950425
144.219796655
143.938780215
143.650854907
143.355043676
143.05043616
142.736178689
142.411462023
142.075509458
141.727566447
141.366892102
140.992752542
140.604415256
140.201146823
139.782208154
139.346853584
138.894329429
138.423873063
137.934712221
137.426064942
136.897139512
136.347134609
135.775239584
135.180634833
134.56249228
133.919975902
133.252242273
132.558441142
131.83771727
131.089209987
130.312054335
129.505382117
128.66832282
127.80000453
126.899554895
125.966102107
124.99877599
123.996709193
122.959038423
121.88490563
120.773459162
119.623854899
118.435257392
117.206841043
115.937791376
114.627305859
113.274596857
111.878896706
110.439451695
108.955535297
107.426451453
105.851542828
104.230203993
102.5619011
100.846201843
99.0828191352
97.2716785629
95.413016785
93.5075282535
91.5565821923
89.5625264026
87.5291173955
85.4620685525
83.3697351104
81.2638557899
79.1602069039
77.0785064692
75.0407140418
147.314775995
147.164911349
146.992958612
146.795031319
146.570477077
146.328364015
146.076233773
145.818728801
145.558404886
145.296246369
145.032158165
144.765424678
144.495036422
144.219885994
143.93887279
143.650950674
143.355142646
143.050538395
142.736284296
142.411571161
142.075622345
141.727683376
141.367013458
140.992878827
140.604547137
140.201285029
139.782353602
139.347007411
138.894493027
138.424047982
137.934900477
137.426268997
136.897362359
136.347379878
135.775511665
135.180939023
134.562834951
133.920364771
133.252686854
132.5589534
131.838311209
131.089902606
130.312866383
129.506338861
128.669454971
127.801349383
126.9011577
125.968017742
125.001071035
123.999464464
122.962352033
121.888896696
120.778272297
119.629665654
118.442278834
117.215331666
115.948064669
114.639742217
113.289657608
111.897138064
110.461555015
108.9823244
107.458925071
105.890911856
104.277934725
102.619765377
100.916336358
99.1677983283
97.3745980835
95.5375896931
93.6582355426
91.7387627082
89.7823238286
87.7935524118
85.7789687753
83.7474838529
81.7108980434
79.6842507965
77.6854718306
75.7336868576
147.334057682
147.184650469
147.008267156
146.80455561
146.575046934
146.329359591
146.075017633
145.816394688
145.555701229
145.293618688
145.029831578
144.763482387
144.493479877
144.218675636
143.937953127
143.650264342
143.354637414
143.050169973
142.736016841
142.411376625
142.075479368
141.72757607
141.366930346
140.992812036
140.604490295
140.201234748
139.782307751
139.346964959
138.89445383
138.424012702
137.934870409
137.426246087
136.897349225
136.34737987
135.775528959
135.180978757
134.562903421
133.920469668
133.252837536
132.559161222
131.838589985
131.090269169
130.31334124
129.50694696
128.670226636
127.802321424
126.902374759
125.96953396
125.0029521
124.001790105
122.965219026
121.892422475
120.782599328
119.634966732
118.448763492
117.223253913
115.957732352
114.651528566
113.304013811
111.914611782
110.482806928
109.00815595
107.490300752
105.92899316
104.324119754
102.675740884
100.984155258
99.2499183843
97.4739273291
95.6575593645
93.8027599761
91.9122900401
89.9900915325
88.041419587
86.0732732661
84.0948158785
82.1177336901
80.1564519191
78.2277137374
76.3489936008
147.376339449
147.226397961
147.03969711
146.823636922
146.583971525
146.331185943
146.072579495
145.811867688
145.550523861
145.288622328
145.025422877
144.759802639
144.490521574
144.216358843
143.936171278
143.648909344
143.35361183
143.04939167
142.735419576
142.410908655
142.075101273
141.727258441
141.366651544
140.99255581
140.604247875
140.200997827
139.782071397
139.346726329
138.894211511
138.423766419
137.934620802
137.42599461
136.8970981
136.347132101
135.775288391
135.180750205
134.562692838
133.920284367
133.252686449
132.559055235
131.838542381
131.090296122
130.313462457
129.507186437
128.670613543
127.802891167
126.903170277
125.970607344
125.00436657
124.003622396
122.967562241
121.895389542
120.786327183
119.639621374
118.454546069
117.230408038
115.96655292
114.662372615
113.317313817
111.930887061
110.502684446
109.03239257
107.519813678
105.96489006
104.367731232
102.728646369
101.048180708
99.327223354
97.5670860028
95.7695785659
93.9371533612
92.0730755824
90.1816526214
88.2684905049
86.340812434
84.407797289
82.4808954647
80.5740704398
78.7034782577
76.8860669661
147.450424863
147.294915802
147.088692201
146.852194157
146.59677634
146.333546966
146.068976704
145.805504976
145.543403654
145.281845887
145.019498535
144.754885859
144.486578737
144.213269181
143.933785505
143.647080557
143.352209796
143.048307746
142.734566727
142.4102192
142.074523792
141.726754629
141.366193438
140.992123445
140.603826429
140.200577753
139.78164622
139.34629195
138.893765616
138.423308051
137.93415008
137.425512551
136.89660653
136.346633632
135.774786462
135.180249178
134.562198148
133.919802729
133.252226132
132.558626388
131.838157425
131.089970208
130.313214044
129.507037987
128.670592337
127.80303031
126.903509938
125.971196285
125.005263987
124.004900123
122.969307406
121.897707798
120.789346614
119.643497183
118.459466181
117.236599803
115.974291156
114.67198932
113.329210276
111.945549757
110.520697263
109.054456101
107.54676518
105.997723117
104.407627395
102.777019671
101.106730901
99.3979413336
97.6522618296
95.8718358742
94.0594621005
92.218741283
90.3542541725
88.4717763687
86.5785387706
84.6835285984
82.7978305473
80.9350257719
79.1111439866
77.3436246732
147.573548026
147.397777515
147.156685924
146.889443696
146.612330856
146.335756755
146.064121721
145.797666781
145.534941865
145.273968178
145.012711943
144.749307075
144.48212893
144.209787375
143.931090118
143.644999978
143.350595358
143.047037245
142.733543241
142.409367873
142.073788024
141.726092417
141.365574195
140.991525008
140.603233048
140.199978753
139.781034354
139.345662524
138.893115842
138.422636572
137.933456641
137.424797801
136.89587192
136.345881389
135.774019623
135.179471644
134.56141475
133.919019399
133.251450154
132.557866743
131.837425216
131.089279096
130.312580773
129.506482969
128.670140369
127.80271148
126.903360752
125.971261045
125.005596446
124.00556548
122.970384696
121.89929281
120.791555405
119.646470249
118.463373437
117.241646655
115.98072587
114.680111592
113.339381108
111.95820322
110.536355836
109.073746472
107.570437318
106.026674981
104.442925447
102.819917068
101.158693239
99.4606760511
97.7277393346
95.9622955854
94.1673991975
92.3468682027
90.5054254132
88.6488609329
86.7842351346
84.9201412155
83.0670933065
81.2381760328
79.4494316793
77.7195555478
147.77694756
147.545320794
147.244038187
146.933164781
146.628416226
146.336470928
146.057561576
145.788492083
145.525580764
145.265539079
145.005607989
144.743551248
144.47757733
144.206238021
143.92833738
143.642859102
143.348911098
143.045684543
142.732424307
142.408408007
142.072931259
141.72529734
141.364810798
140.990772383
140.602475531
140.199205751
139.780238722
139.344839592
138.892262743
138.421751762
137.932539583
137.423848771
136.894891934
136.344872193
135.772983737
135.178412458
134.560336648
133.917927842
133.250351804
132.556769611
131.836338965
131.088215395
130.311553888
129.505510341
128.669243316
127.801916033
126.902698638
125.970770847
125.005325019
124.00556976
122.970733801
121.900070619
120.792863597
119.648431948
118.466137577
117.245393035
115.985670536
114.68651491
113.347556742
111.968528306
110.549282675
109.089816351
107.590295947
106.051089551
104.472804109
102.856329137
101.202887443
99.5140952014
97.7920306014
96.0393109537
94.2591774082
92.4555873428
90.6333140637
88.7980527386
86.9565522012
85.1168027806
83.2884199388
81.4835526319
79.7177160769
78.0107671727
148.111002566
147.747830776
147.348088073
146.979219419
146.641707914
146.333694435
146.048405714
145.77776502
145.51544738
145.256827751
144.998489728
144.737903148
144.473169369
144.202822198
143.925686585
143.640781044
143.347250314
143.044319199
142.73126108
142.407376921
142.071981028
141.724389809
141.363919216
140.989876563
140.601561688
140.198264394
139.779263462
139.343826331
138.891208933
138.420655907
137.931400985
137.422667386
136.893668221
136.343607035
135.771678458
135.177068998
134.558957844
133.916517518
133.24891494
132.555312755
131.834870831
131.08674627
130.310096195
129.504079111
128.667856723
127.800596056
126.901471886
125.969669594
125.004388484
124.004845503
122.970279229
121.899955194
120.793171285
119.649264139
118.46761659
117.247666654
115.988918722
114.690954488
113.353448249
111.976184462
110.559078121
109.102198578
107.605797425
106.070341085
104.496548989
102.885437832
101.238372134
99.5571214554
97.8439228571
96.1015479774
94.3333722346
92.5434412866
90.7365306042
88.9181893632
87.0947784497
85.2735090558
83.4626732478
81.672636519
79.9165982272
78.2131774434
148.66077565
148.006834959
147.454655953
147.017173476
146.645664824
146.323658894
146.034638412
145.764471177
145.504064978
145.247633108
144.991292343
144.732362408
144.468932421
144.199576376
143.923174057
143.638797751
143.345639096
143.042961637
142.730069461
142.406287111
142.070946457
141.723377232
141.362900484
140.988836018
140.600488416
140.197150727
139.778104277
139.34261836
138.88995039
138.419345986
137.930039601
137.421255069
136.89220607
136.342096701
135.77012209
135.175468907
134.55731558
133.914835688
133.247197186
132.553563467
131.833094607
131.084950039
130.308288788
129.50227149
128.666062417
127.798831668
126.899757693
125.96803025
125.002853842
124.003451774
122.96907089
121.898986252
120.79250718
119.648984053
118.467816139
117.248460718
115.990444505
114.693377487
113.356967551
111.98103892
110.565553589
109.110636246
107.616603281
106.083996399
104.513621276
102.906591624
101.264378692
99.5888657329
97.8824056151
96.1478836215
94.3887732184
92.6091833556
90.813886612
89.0083102272
87.1984687068
85.3907444212
83.5917868603
81.8091327788
80.0498683427
78.3226002139
149.656013208
148.298196883
147.507449171
147.007605183
146.616763712
146.293006806
146.00859403
145.744086884
145.488683798
145.236238567
144.982925594
144.726232568
144.4644233
144.19622176
143.920627554
143.636805519
143.344017397
143.041578677
142.728832122
142.405129085
142.069810026
141.722225496
141.361723539
140.987620797
140.59922562
140.195834433
139.776730216
139.341181258
138.888446621
138.417773458
137.928396837
137.419540927
136.890419694
136.340237531
135.768189937
135.173464432
134.555242026
133.912695716
133.244993445
132.5512994
131.830774914
131.082579958
130.305874568
129.499820769
128.663584535
127.796338009
126.897262138
125.965549791
125.000409324
124.001068542
122.966779435
121.896823406
120.790517447
119.647221198
118.466345187
117.247360746
115.989811282
114.693325393
113.357633849
111.982588201
110.568182681
109.114579654
107.622139063
106.091452443
104.523381988
102.919104877
101.280162359
99.6085114919
97.9065796833
96.1773402221
94.4243412788
92.651750474
90.8643730105
89.0676262978
87.2674070517
85.4695799991
83.67967237
81.9024388724
80.1326868449
78.3407203397
151.449121689
148.521023435
147.407494515
146.880422429
146.513321185
146.218746326
145.95728725
145.708919835
145.464562543
145.219648609
144.971483253
144.718313822
144.458910214
144.192338784
143.917834719
143.634726711
143.342390965
143.040222852
142.727619815
142.40397437
142.068681213
141.721100472
141.36056324
140.986404304
140.597941554
140.194475838
139.775293392
139.339669246
138.886861185
138.416114834
137.926665283
137.417736856
136.888543594
136.338289925
135.76617133
135.171375063
134.553081096
133.910463249
133.242690184
132.548926466
131.828333843
131.080072832
130.303304212
129.497190816
128.660899531
127.79360358
126.894485232
125.962738967
124.997575056
123.998223653
122.963939538
121.89400749
120.787748502
119.644526934
118.463758851
117.244921997
115.987567639
114.691334529
113.355965106
111.981324615
110.567423469
109.114443178
107.622766282
106.09301078
104.526069524
102.923154735
101.285847808
99.6161566405
97.9165760613
96.1901122142
94.4403708831
92.6715890337
90.8886564875
89.0970932058
87.3029499635
85.5127359851
83.7328906088
81.9682519328
80.1985102473
78.2989468744
58.2489940716
54.6974279323
52.3067039152
50.3506508199
48.6806482146
47.2263352257
45.94349018
44.8021393754
43.7803472149
42.8611446551
42.0309671669
41.278727506
40.5952171685
39.9726949599
39.4045852171
38.885248594
38.4098042354
37.9739915961
37.5740626539
37.20669859
36.8689450325
36.5581613071
36.2719795359
36.0082711926
35.7651192573
35.5407941034
35.3337324319
35.1425184936
34.9658677612
34.8026126352
34.6516897636
34.5121289407
34.3830429073
34.2636185623
34.1531093823
34.0508289256
33.9561454102
33.8684778711
33.7873022229
33.7121917439
33.642807703
33.5786550568
33.5192759718
33.4643065992
33.4134181673
33.3663029935
33.3226744193
33.2822662322
33.2448308701
33.2101390032
33.1779779427
33.1481502552
33.1204730718
33.0947766272
33.0709024274
33.0487024569
33.0280413824
33.0087940568
32.9908438937
32.9740826431
32.9584103346
32.9437349996
32.9299717682
32.9170418472
32.9048726164
32.8933976814
32.8825561135
32.8722911805
32.8625501849
32.8532850547
32.844451775
32.8360079196
32.8279188644
32.8201487417
32.8126662949
32.8054430542
32.7984530195
32.7916712551
32.785075748
32.7786478781
32.7723704032
32.7662259713
32.7601989211
32.7542824579
32.748474433
32.7427466879
32.7370848008
32.7314793828
32.7259191617
32.7204192327
32.7149850012
32.7095776951
32.704186264
32.6988040552
32.6934249736
32.6880413925
32.6826460069
32.6772340523
32.6718007445
32.6663391033
32.6608428222
32.6553068545
32.6497247828
32.6440897942
32.6383956239
32.632635026
32.6268009686
32.6208871998
32.6148861574
32.6087896823
32.6025912633
32.5962834715
32.5898559443
32.5832986386
32.5766025834
32.569759254
32.5627589085
32.5555893474
32.5482403201
32.5407012502
32.5329596104
32.525002589
32.516822044
32.5084072014
32.4997482756
32.4908389586
32.4816771271
32.4722583753
32.4625840549
32.452662341
32.4424994838
32.4321045666
32.4214839424
32.4106391011
32.3994840704
32.3883908738
32.3772553663
32.3660924313
32.3550084458
32.343638883
32.3317570061
32.3187796301
32.3033224786
32.2824726529
32.2507858999
32.1991169732
32.1127400916
31.9687452464
31.7284395886
31.326320457
30.662475925
29.611060477
28.0497919335
25.8960183043
23.1273461445
19.7959664419
16.0087517568
11.7140508991
6.63451636229
1.57876842789
61.4308363352
57.3779851096
54.6668337135
52.5160012891
50.7162099827
49.1688714361
47.8155283959
46.6186771365
45.5518841726
44.5953014544
43.73344037
42.9538856597
42.2464841199
41.6028112117
41.0157856078
40.4793875989
39.9884464587
39.538475978
39.1255508308
38.7462103428
38.3973854618
38.0763414442
37.7806324313
37.5080645881
37.2566650888
37.0246574754
36.8104364792
36.6125509893
36.4296846003
36.2606414815
36.1043344407
35.9597712548
35.8260474167
35.7023344973
35.5878741731
35.4819705501
35.383984359
35.2933274074
35.2094511118
35.1318274801
35.0599213082
34.9933335018
34.9317285914
34.8747147264
34.8219327169
34.7730635922
34.7278135488
34.6859089181
34.647093893
34.6111318392
34.5778028205
34.5469026165
34.5182415224
34.4916439801
34.466946933
34.443998035
34.4226535579
34.4027829358
34.384264382
34.3669854165
34.3508418783
34.3357382578
34.3215859728
34.3083028353
34.2958132452
34.2840481414
34.2729439987
34.2624419655
34.2524871524
34.2430294513
34.2340227134
34.2254231301
34.217199374
34.2093100607
34.2017224142
34.1944066736
34.1873351149
34.1804822057
34.1738251885
34.167344062
34.1610220296
34.154843047
34.1487997352
34.1428575127
34.1369957869
34.1312128058
34.1254962263
34.1198362895
34.1142209033
34.1086309396
34.1030759035
34.0975494337
34.0920428747
34.0865499356
34.0810645376
34.0755796035
34.0700876919
34.0645851055
34.059067119
34.0535266078
34.0479577246
34.0423556193
34.0367144795
34.0310273715
34.0252888415
34.0194914468
34.0136279197
34.0076948683
34.0016813978
33.9955811559
33.9893889755
33.9830959346
33.9766921925
33.9701698589
33.9635219903
33.9567356504
33.9498097905
33.9427312937
33.9354857234
33.9280778902
33.9204821538
33.9127035687
33.9047293788
33.8965581375
33.888180923
33.8796077051
33.8708351496
33.8618763553
33.8527401289
33.8434531146
33.834034638
33.8245216732
33.8149475039
33.805352036
33.7957703124
33.7864221833
33.7773742502
33.7687058088
33.7604974315
33.752649103
33.7449952421
33.7370099431
33.7273055796
33.7128251633
33.6876748446
33.6416342589
33.5578573529
33.4095759392
33.1520077204
32.711839523
31.9820367285
30.8339831507
29.1497444878
26.8576445384
23.9472959887
20.4748235783
16.5452085488
12.1227752571
6.94317968549
1.71899749447
63.6387574047
59.7051824954
56.8389370288
54.5566469386
52.6569267588
51.0331098471
49.6199132336
48.3750539128
47.2688563827
46.2792544288
45.3892129601
44.5852189339
43.856326605
43.1935304888
42.5893176023
42.0373426979
41.53218605
41.06916859
40.6442132492
40.2537387341
39.8945787043
39.5639189848
39.259248038
38.9783172529
38.719107311
38.4798018192
38.2587608326
38.0545024827
37.8656832239
37.6910824143
37.5295899951
37.3801921143
37.2419630504
37.1140534401
36.9956835593
36.8861356932
36.7847480858
36.6909105598
36.604061433
36.5236904633
36.4493163209
36.380433732
36.3166368777
36.2575767926
36.2029134043
36.1523160285
36.1054790505
36.0621172149
36.0219633822
35.9847723325
35.9503158123
35.9183817988
35.8887733094
35.8613082758
35.835812276
35.8121269765
35.7901096252
35.7696245513
35.7505453324
35.732755316
35.7161465327
35.7006198101
35.6860829175
35.6724503178
35.6596435369
35.6475908782
35.6362263228
35.6254889607
35.6153219831
35.6056735284
35.596496092
35.5877463419
35.5793756933
35.5713517433
35.5636415833
35.5562146625
35.5490418779
35.5420965804
35.5353542498
35.5287919729
35.5223965946
35.5161521257
35.5100315806
35.5040230578
35.4981126141
35.4922881113
35.4865368713
35.4808484197
35.4752128878
35.4696220571
35.4640681385
35.4585422864
35.4530364791
35.4475442038
35.4420587199
35.4365735599
35.4310819173
35.4255791345
35.4200601813
35.4145187826
35.4089489913
35.4033456702
35.397704005
35.3920175264
35.3862807585
35.3804878301
35.3746320386
35.3687095662
35.362710863
35.356631034
35.3504641826
35.3442018329
35.3378369697
35.3313619911
35.3247720218
35.3180552187
35.3112094167
35.3042272381
35.297095018
35.2898182406
35.2823772583
35.2747793151
35.267015179
35.259088855
35.2509981887
35.242759034
35.2343752481
35.2258723645
35.2172700183
35.2086069523
35.1999241582
35.1912757997
35.182729309
35.1743607759
35.1662678982
35.1586375264
35.1516226136
35.1453727735
35.1400172307
35.1356071206
35.1320583733
35.1288975841
35.1247332841
35.1163339272
35.0973042921
35.05634077
34.9744061348
34.820912909
34.5451746435
34.0666070609
33.2719344031
32.030703079
30.2296318642
27.8071277799
24.7629999714
21.155497495
17.0864964028
12.5357253347
7.25278199277
1.85753131678
65.4433031988
61.7187742249
58.8158118257
56.4623783628
54.4946029912
52.8129452393
51.3519897351
50.0675926459
48.9282613493
47.9104766628
46.9960984315
46.1707883348
45.4229862792
44.7432275838
44.1236541849
43.5576589794