/*--------------------------------*- C++ -*----------------------------------*\
| =========                 |                                                 |
| \\      /  F ield         | OpenFOAM: The Open Source CFD Toolbox           |
|  \\    /   O peration     | Version:  2106                                  |
|   \\  /    A nd           | Website:  www.openfoam.com                      |
|    \\/     M anipulation  |                                                 |
\*---------------------------------------------------------------------------*/
FoamFile
{
    version     2.0;
    format      ascii;
    arch        "LSB;label=32;scalar=64";
    class       surfaceScalarField;
    location    "0.16";
    object      phi;
}
// * * * * * * * * * * * * * * * * * * * * * * * * * * * * * * * * * * * * * //

dimensions      [0 3 -1 0 0 0 0];

oriented        oriented;

internalField   nonuniform List<scalar> 
22100
(
3.38461204248e-05
1.61538795765e-05
2.24572100953e-05
1.13889103159e-05
1.62585533601e-05
6.19865674045e-06
1.27977765234e-05
3.46077685038e-06
1.08046427704e-05
1.99313375472e-06
9.60458986133e-06
1.20005291588e-06
8.85132220438e-06
7.53267661006e-07
8.36435347288e-06
4.86968725859e-07
8.04433565514e-06
3.2001780209e-07
7.83284090501e-06
2.11494727978e-07
7.69339776842e-06
1.39443113477e-07
7.60224088981e-06
9.11568603751e-08
7.54347809427e-06
5.87627869542e-08
7.50634113822e-06
3.71369580602e-08
7.48350155262e-06
2.2839592779e-08
7.46998061151e-06
1.35209434853e-08
7.46241582827e-06
7.56476867888e-09
7.45854760286e-06
3.86818442453e-09
7.45682839879e-06
1.71913483632e-09
7.45642157357e-06
4.06734466906e-10
7.45677125278e-06
-3.49778347825e-10
7.45745736899e-06
-6.86208704361e-10
7.45821574927e-06
-7.584556376e-10
7.45894120828e-06
-7.25515164604e-10
7.45958579299e-06
-6.44627692823e-10
7.46013011588e-06
-5.44363283129e-10
7.46057272494e-06
-4.42657720387e-10
7.46092206696e-06
-3.49405128513e-10
7.46119103984e-06
-2.69049175101e-10
7.46139371881e-06
-2.02762051898e-10
7.46154346019e-06
-1.49823736133e-10
7.46165195894e-06
-1.08574896716e-10
7.4617288858e-06
-7.69954057954e-11
7.46178236659e-06
-5.35433960304e-11
7.46181647076e-06
-3.41630910249e-11
7.46183604488e-06
-1.96324914139e-11
7.46184574601e-06
-9.76286290361e-12
7.46184908468e-06
-3.40582986868e-12
7.46184803674e-06
9.77749735094e-13
7.46184372898e-06
4.23837687532e-12
7.46183709075e-06
6.57268872074e-12
7.46182872342e-06
8.30433028894e-12
7.46181898759e-06
9.67021228639e-12
7.46180806262e-06
1.08552745497e-11
7.46179596192e-06
1.20325910572e-11
7.46178256813e-06
1.33326179491e-11
7.46176765604e-06
1.4854914789e-11
7.46175089989e-06
1.66894489532e-11
7.46173186378e-06
1.89450814973e-11
7.46171003699e-06
2.17126685979e-11
7.46168482941e-06
2.50916124723e-11
7.46165553515e-06
2.91953341131e-11
7.46162132856e-06
3.41248102523e-11
7.4615812984e-06
3.99527725011e-11
7.46153451278e-06
4.67066863092e-11
7.46148009631e-06
5.43414091293e-11
7.46141730801e-06
6.27216459804e-11
7.46134584556e-06
7.13914578451e-11
7.46126633282e-06
7.94199971934e-11
7.46118111112e-06
8.5117777265e-11
7.46109611748e-06
8.49112615483e-11
7.4610237052e-06
7.23531598106e-11
7.46097231255e-06
5.13209505457e-11
7.46096035389e-06
1.18510727324e-11
7.46102374942e-06
-6.352722712e-11
7.46122094628e-06
-1.9733013823e-10
7.46164687713e-06
-4.26087612413e-10
7.4624524816e-06
-8.05805651839e-10
7.46387460376e-06
-1.42231124553e-09
7.46627111662e-06
-2.39662639372e-09
7.47009404901e-06
-3.82301284729e-09
7.47656642446e-06
-6.47250295205e-09
7.48738541029e-06
-1.08191348885e-08
7.50565024137e-06
-1.82649556511e-08
7.53899955064e-06
-3.33494721124e-08
7.60853803616e-06
-6.9538693076e-08
7.77595342564e-06
-1.67415546186e-07
8.2329547809e-06
-4.57001515878e-07
9.70791475082e-06
-1.4749600829e-06
-5.48507660959e-06
1.51929914419e-05
5.02175949117e-05
1.59362846798e-05
4.42441117603e-05
1.73623934817e-05
3.77795017212e-05
1.26632667926e-05
3.26461443214e-05
8.59413427157e-06
2.89380922633e-05
5.70118582389e-06
2.63596219102e-05
3.77852327422e-06
2.45875175314e-05
2.52537203085e-06
2.33734754906e-05
1.70101074059e-06
2.25435264505e-05
1.14996680404e-06
2.19782177749e-05
7.76803363182e-07
2.15955152654e-05
5.22145590451e-07
2.13387387346e-05
3.47933373506e-07
2.11684972641e-05
2.29004254131e-07
2.10573397249e-05
1.48294500034e-07
2.09861518995e-05
9.40274120395e-08
2.09416796298e-05
5.79931814959e-08
2.09147979512e-05
3.44463772713e-08
2.08992990276e-05
1.93669968022e-08
2.08910755085e-05
9.9425109102e-09
2.08872755755e-05
4.20651178178e-09
2.08862071924e-05
7.18458213067e-10
2.08864534962e-05
-9.32633248858e-10
2.08873258028e-05
-1.63085473252e-09
2.08884664013e-05
-1.86618849068e-09
2.08896410516e-05
-1.81935234895e-09
2.08907255803e-05
-1.6289817718e-09
2.0891664913e-05
-1.38210291848e-09
2.08924443504e-05
-1.12897420752e-09
2.08930716128e-05
-8.96453347152e-10
2.08935658362e-05
-6.97128406708e-10
2.08939516225e-05
-5.3574857082e-10
2.08942558295e-05
-4.12913308241e-10
2.08944693007e-05
-2.90589962193e-10
2.08946188108e-05
-2.03169646687e-10
2.08947215202e-05
-1.36985403582e-10
2.08947891214e-05
-8.7349983004e-11
2.08948314981e-05
-5.22631959248e-11
2.08948569633e-05
-2.90007461964e-11
2.08948703977e-05
-1.25893132082e-11
2.08948747032e-05
-1.98014821532e-13
2.08948722834e-05
8.86412961336e-12
2.0894864801e-05
1.56560412527e-11
2.08948533915e-05
2.09465123975e-11
2.08948387904e-05
2.53263522155e-11
2.08948213864e-05
2.93161415044e-11
2.08948013212e-05
3.32806249324e-11
2.08947785697e-05
3.74727315379e-11
2.08947529963e-05
4.20959013325e-11
2.08947243708e-05
4.73785191338e-11
2.08946924543e-05
5.34399430897e-11
2.08946570279e-05
6.03560361633e-11
2.08946179129e-05
6.81761404984e-11
2.08945750568e-05
7.68513898986e-11
2.08945286852e-05
8.61813680475e-11
2.08944795393e-05
9.57031884108e-11
2.08944292555e-05
1.04478544395e-10
2.08943809013e-05
1.10921758621e-10
2.0894340026e-05
1.12092704365e-10
2.08943159467e-05
1.03320226154e-10
2.08943236709e-05
7.72460035849e-11
2.08943891894e-05
1.92867688997e-11
2.08945616638e-05
-1.00240947736e-10
2.0894909325e-05
-2.96532213368e-10
2.08955498573e-05
-6.28923589964e-10
2.08965981951e-05
-1.11212057793e-09
2.08982246439e-05
-1.82406267022e-09
2.09007893598e-05
-2.99113721352e-09
2.09048435727e-05
-4.86034546356e-09
2.09112620332e-05
-7.84102461753e-09
2.09214781138e-05
-1.2612928586e-08
2.09379997397e-05
-2.03448786256e-08
2.09649961135e-05
-3.34690407014e-08
2.10094581669e-05
-5.52812198373e-08
2.10846489447e-05
-9.34557963586e-08
2.12166716832e-05
-1.65372385502e-07
2.14588066051e-05
-3.11673784237e-07
2.19197551549e-05
-6.28364376364e-07
2.28134179791e-05
-1.3506649043e-06
2.44716361053e-05
-3.1331789046e-06
-7.09502019622e-06
2.60815799704e-05
5.35171053568e-05
1.24191793292e-05
5.29349683781e-05
1.79445304569e-05
4.96538402112e-05
1.59443949656e-05
4.58401815564e-05
1.2407792937e-05
4.24400925365e-05
9.10127484402e-06
3.9729172547e-05
6.48944326177e-06
3.76873060269e-05
4.56723854107e-06
3.61976631425e-05
3.19065360493e-06
3.51326124425e-05
2.21501747731e-06
3.43823673254e-05
1.5270484536e-06
3.386062629e-05
1.04388660623e-06
3.35023460195e-05
7.0621363585e-07
3.32596011206e-05
4.71749154043e-07
3.30975908567e-05
3.10304765818e-07
3.2991334865e-05
2.00283393323e-07
3.29230931155e-05
1.26234893911e-07
3.28804053478e-05
7.71340727291e-08
3.28546204693e-05
4.51517682723e-08
3.28397937463e-05
2.47691027663e-08
3.28318677795e-05
1.21323404311e-08
3.28279989675e-05
4.58714294824e-09
3.28270014328e-05
6.47955354115e-11
3.28271833781e-05
-1.81288459274e-09
3.28280333203e-05
-2.71620320581e-09
3.28291509088e-05
-2.9370151155e-09
3.2830300246e-05
-2.77840702119e-09
3.28313585774e-05
-2.44053987764e-09
3.28322715911e-05
-2.04210722709e-09
3.28330244345e-05
-1.64942297645e-09
3.28336232014e-05
-1.29602090386e-09
3.28340829015e-05
-9.9556908207e-10
3.2834420614e-05
-7.50737887672e-10
3.28346896291e-05
-5.59706490547e-10
3.28349080004e-05
-4.21632265079e-10
3.28350587888e-05
-2.87860761828e-10
3.28351607961e-05
-1.89447127113e-10
3.28352290867e-05
-1.20652134197e-10
3.28352730574e-05
-7.30788428374e-11
3.28352996737e-05
-3.93185944246e-11
3.28353128849e-05
-1.35240605593e-11
3.2835316226e-05
5.40572487203e-12
3.28353121833e-05
1.95776091341e-11
3.2835302571e-05
3.04363646516e-11
3.28352886552e-05
3.91258383713e-11
3.28352712157e-05
4.66479983276e-11
3.2835250732e-05
5.36578052827e-11
3.28352275025e-05
6.05787762412e-11
3.2835201701e-05
6.77490569965e-11
3.28351733228e-05
7.55987551121e-11
3.28351424645e-05
8.41575483574e-11
3.28351094305e-05
9.32748330649e-11
3.28350747469e-05
1.02754122749e-10
3.28350393294e-05
1.1214990004e-10
3.28350047884e-05
1.2058688613e-10
3.2834973904e-05
1.2645332509e-10
3.28349512516e-05
1.27005928347e-10
3.28349436925e-05
1.18348444724e-10
3.28349619513e-05
9.36850426082e-11
3.28350230738e-05
4.20573267781e-11
3.28351559817e-05
-5.57815122993e-11
3.28354114592e-05
-2.36313078885e-10
3.28358766957e-05
-5.65649869513e-10
3.28365773738e-05
-9.97442780687e-10
3.28375973935e-05
-1.6491889266e-09
3.28391907191e-05
-2.7056885409e-09
3.28417416827e-05
-4.37529065546e-09
3.28457557328e-05
-7.00544775018e-09
3.2852051291e-05
-1.11560815606e-08
3.28619491474e-05
-1.77389932991e-08
3.28776278064e-05
-2.82917545353e-08
3.29027724322e-05
-4.54897445745e-08
3.29427761681e-05
-7.34729974982e-08
3.30075476039e-05
-1.20052887041e-07
3.31142088254e-05
-2.00117324849e-07
3.3292031715e-05
-3.431955373e-07
3.35896988029e-05
-6.09341096256e-07
3.40791507707e-05
-1.11781662673e-06
3.48279221505e-05
-2.09943646815e-06
3.57012490569e-05
-4.00650641832e-06
-7.17787454913e-06
3.57841026368e-05
5.35105664753e-05
8.90861285474e-06
5.55742222644e-05
1.58808746559e-05
5.52424825689e-05
1.62761346637e-05
5.35977860402e-05
1.40524894744e-05
5.15418477825e-05
1.11572131018e-05
4.95802800057e-05
8.45101103854e-06
4.79243509608e-05
6.22316758025e-06
4.66181390501e-05
4.4968655016e-06
4.56304662056e-05
3.2026903027e-06
4.49051172184e-05
2.25239742144e-06
4.43840900055e-05
1.5649138048e-06
4.40166938564e-05
1.07360977787e-06
4.37619673966e-05
7.26475611953e-07
4.35882688629e-05
4.84003295739e-07
4.34718696212e-05
3.16682617982e-07
4.33953597211e-05
2.02744752697e-07
4.33461896826e-05
1.26304039458e-07
4.33154524029e-05
7.58889479065e-08
4.32969164953e-05
4.33048921437e-08
4.32862910473e-05
2.27576667906e-08
4.32806889849e-05
1.01890936364e-08
4.32778822199e-05
2.87146534206e-09
4.32770559964e-05
-9.8674128082e-10
4.32772754826e-05
-2.93576280957e-09
4.3277964889e-05
-3.62649913675e-09
4.32788300772e-05
-3.64368506893e-09
4.32797052597e-05
-3.31582697592e-09
4.32805052967e-05
-2.8422609483e-09
4.32811938026e-05
-2.33805201562e-09
4.32817625136e-05
-1.86485563617e-09
4.32822182349e-05
-1.45140897113e-09
4.32825737207e-05
-1.10633208158e-09
4.32828388509e-05
-8.2493105776e-10
4.3283018243e-05
-6.01106879544e-10
4.32831537675e-05
-4.23463454431e-10
4.32832434305e-05
-2.79194238079e-10
4.32832988622e-05
-1.76181728726e-10
4.32833406617e-05
-1.14989082768e-10
4.3283366996e-05
-6.57694874289e-11
4.32833805129e-05
-2.71613311739e-11
4.32833847507e-05
1.04129604845e-12
4.32833816716e-05
2.25247421819e-11
4.3283372913e-05
3.90640434031e-11
4.32833597116e-05
5.22057893284e-11
4.32833427372e-05
6.35127007622e-11
4.32833224104e-05
7.38765412431e-11
4.32832990383e-05
8.38318979252e-11
4.32832728944e-05
9.37636459421e-11
4.32832443939e-05
1.03975389907e-10
4.32832140506e-05
1.14398830927e-10
4.32831824449e-05
1.24792042565e-10
4.32831504913e-05
1.34606279989e-10
4.32831196018e-05
1.42908193496e-10
4.32830918604e-05
1.48182902878e-10
4.32830702058e-05
1.47973786158e-10
4.32830587991e-05
1.38290649488e-10
4.32830645565e-05
1.1246281452e-10
4.32830991109e-05
5.89906453188e-11
4.32831807821e-05
-3.97472590848e-11
4.32833305432e-05
-2.0567559832e-10
4.3283548931e-05
-4.54872741873e-10
4.32839686332e-05
-9.85578899382e-10
4.32847067741e-05
-1.73582811842e-09
4.32859271278e-05
-2.86976155435e-09
4.32878346195e-05
-4.61339738272e-09
4.32907782529e-05
-7.31917030369e-09
4.32953192862e-05
-1.15467051593e-08
4.33023403581e-05
-1.81772983633e-08
4.3313231395e-05
-2.86301433533e-08
4.33301648702e-05
-4.52253665574e-08
4.33564765731e-05
-7.18015663211e-08
4.33977820515e-05
-1.14778588244e-07
4.34630124284e-05
-1.85283471825e-07
4.35660306705e-05
-3.03135823756e-07
4.37270274014e-05
-5.04192534548e-07
4.39709809556e-05
-8.53295050288e-07
4.43151083021e-05
-1.46194432321e-06
4.47212880286e-05
-2.50561637536e-06
4.49484641963e-05
-4.2336826689e-06
-6.65527103909e-06
4.44258599004e-05
5.2735138009e-05
6.17347485115e-06
5.57309344439e-05
1.2885078207e-05
5.73114742809e-05
1.46955948286e-05
5.76109917945e-05
1.37529719693e-05
5.71335226478e-05
1.16346822495e-05
5.63194681773e-05
9.26506551169e-06
5.54489880809e-05
7.09364767537e-06
5.46629776045e-05
5.28287596899e-06
5.40136821329e-05
3.85198575994e-06
5.35061509025e-05
2.75992863578e-06
5.31242551104e-05
1.94680958297e-06
5.28449857279e-05
1.35287914975e-06
5.26454396863e-05
9.26021644463e-07
5.25057156908e-05
6.23727278119e-07
5.24097212148e-05
4.12677068297e-07
5.23450155427e-05
2.67450378368e-07
5.23022781075e-05
1.69041403541e-07
5.22746913907e-05
1.03475570671e-07
5.22573673652e-05
6.06288095628e-08
5.22468592847e-05
3.32656365608e-08
5.22407602789e-05
1.62879959352e-08
5.22374523192e-05
6.1793328665e-09
5.22359544824e-05
5.11012108176e-10
5.22354476599e-05
-2.42902198733e-09
5.22355138493e-05
-3.69277606141e-09
5.2235860693e-05
-3.99062720595e-09
5.2236316482e-05
-3.77172726433e-09
5.22367845828e-05
-3.31048414064e-09
5.22372139016e-05
-2.76749982898e-09
5.22375817114e-05
-2.23279520485e-09
5.22378813062e-05
-1.75112638866e-09
5.22381153826e-05
-1.34051587097e-09
5.22382941189e-05
-1.00375678866e-09
5.22384292697e-05
-7.36332571806e-10
5.22385315427e-05
-5.25807963252e-10
5.22386163773e-05
-3.6411085433e-10
5.22386845055e-05
-2.44409023796e-10
5.22387279479e-05
-1.5854459925e-10
5.22387620097e-05
-9.9951767885e-11
5.22387789685e-05
-4.42438126906e-11
5.22387852028e-05
-5.32215824817e-12
5.22387834936e-05
2.40983110707e-11
5.22387758072e-05
4.66150123346e-11
5.22387634984e-05
6.4390456991e-11
5.2238747461e-05
7.94413208727e-11
5.22387283163e-05
9.291927212e-11
5.22387066616e-05
1.05381763356e-10
5.22386836132e-05
1.1671058108e-10
5.22386580197e-05
1.29482120098e-10
5.22386299217e-05
1.42424153285e-10
5.22386005411e-05
1.54090961296e-10
5.2238570867e-05
1.64164469664e-10
5.22385423505e-05
1.71276662385e-10
5.22385172502e-05
1.73133978311e-10
5.22384995185e-05
1.65574657402e-10
5.22384986431e-05
1.39039067946e-10
5.22385229372e-05
8.80306748884e-11
5.22385848337e-05
-3.05293065293e-12
5.22386957472e-05
-1.50809547152e-10
5.22388694826e-05
-3.79580075836e-10
5.22391873759e-05
-7.72984703357e-10
5.22396803354e-05
-1.47878611324e-09
5.22404221072e-05
-2.47782090243e-09
5.2241545289e-05
-3.9931252456e-09
5.22432528071e-05
-6.32110872058e-09
5.2245846497e-05
-9.91307762089e-09
5.22497792014e-05
-1.54796078889e-08
5.22557440848e-05
-2.41423700712e-08
5.22648048561e-05
-3.76911459874e-08
5.22785892458e-05
-5.90099888034e-08
5.22995748992e-05
-9.27873841866e-08
5.23315100176e-05
-1.46713865853e-07
5.23797954146e-05
-2.3356903431e-07
5.24514530706e-05
-3.74793559074e-07
5.25534947709e-05
-6.06234373564e-07
5.26866667596e-05
-9.86467319904e-07
5.28289365597e-05
-1.60421453919e-06
5.28987652322e-05
-2.5754456439e-06
5.26827415376e-05
-4.01765897957e-06
-5.84540267144e-06
5.18728724313e-05
5.19834864769e-05
4.1899883835e-06
5.5058663967e-05
9.80990069955e-06
5.76386132e-05
1.21156455956e-05
5.93259031498e-05
1.20656820269e-05
6.02280151802e-05
1.07325702201e-05
6.05929263589e-05
8.90015433731e-06
6.0648283267e-05
7.03829077036e-06
6.05531887846e-05
5.37797044808e-06
6.04029541771e-05
4.00222035823e-06
6.02479136352e-05
2.9149691644e-06
6.01107880748e-05
2.08393512836e-06
5.99990285306e-05
1.46463867786e-06
5.99125133471e-05
1.01253680993e-06
5.98479214585e-05
6.8831914348e-07
5.98010179024e-05
4.59580590804e-07
5.97677332656e-05
3.00734966085e-07
5.9744591926e-05
1.92182675236e-07
5.9728813403e-05
1.19254008581e-07
5.97182652945e-05
7.117682132e-08
5.97113591771e-05
4.01716531398e-08
5.97069399569e-05
2.07071180981e-08
5.97042062712e-05
8.9129259275e-09
5.97025974736e-05
2.11972033273e-09
5.97016932959e-05
-1.524935094e-09
5.97012354087e-05
-3.23498594243e-09
5.97010463523e-05
-3.80167689153e-09
5.97010106007e-05
-3.73609256937e-09
5.97010554882e-05
-3.35549885376e-09
5.97011372821e-05
-2.84942743625e-09
5.97012303074e-05
-2.32595405692e-09
5.97013206637e-05
-1.84160640103e-09
5.97014017093e-05
-1.42166634212e-09
5.97014719231e-05
-1.07405331474e-09
5.9701531951e-05
-7.96428045341e-10
5.97015825913e-05
-5.76516627047e-10
5.97016230054e-05
-4.04607928529e-10
5.9701651606e-05
-2.73110676622e-10
5.97016682762e-05
-1.75328739725e-10
5.97016682354e-05
-1.00031331606e-10
5.97016595116e-05
-3.56439664262e-11
5.97016527738e-05
1.28606803114e-12
5.97016435253e-05
3.32101057246e-11
5.97016323968e-05
5.76088210026e-11
5.97016203072e-05
7.63582057364e-11
5.97016058707e-05
9.37719055357e-11
5.97015887897e-05
1.09905461166e-10
5.97015689509e-05
1.25129041147e-10
5.97015458928e-05
1.39684403252e-10
5.97015216688e-05
1.5363646308e-10
5.97014973751e-05
1.66651236555e-10
5.97014732891e-05
1.78085477527e-10
5.97014506296e-05
1.86694516077e-10
5.97014311351e-05
1.90623415873e-10
5.97014168206e-05
1.87311597216e-10
5.97014087232e-05
1.73547491111e-10
5.97014013155e-05
1.46307640493e-10
5.97013960137e-05
9.31669622986e-11
5.97014048459e-05
-1.20561279971e-11
5.97014546124e-05
-2.00739995286e-10
5.97016223717e-05
-5.47519974343e-10
5.9701902725e-05
-1.05354739393e-09
5.97022654039e-05
-1.84167295114e-09
5.97028115539e-05
-3.02414873145e-09
5.9703624529e-05
-4.80628500953e-09
5.97048169497e-05
-7.51376036238e-09
5.97065525898e-05
-1.16489520514e-08
5.97090684716e-05
-1.79956757954e-08
5.97127070494e-05
-2.77811269531e-08
5.97179573066e-05
-4.29416081293e-08
5.97255015442e-05
-6.65543992609e-08
5.97362473953e-05
-1.035333876e-07
5.97512633207e-05
-1.61729998001e-07
5.97714003188e-05
-2.53706213352e-07
5.9796087423e-05
-3.99480791548e-07
5.98201857237e-05
-6.30332844923e-07
5.98267994959e-05
-9.93081243099e-07
5.97737268696e-05
-1.55114206987e-06
5.95725021546e-05
-2.37422141614e-06
5.90638961311e-05
-3.50905292413e-06
-4.86615511132e-06
5.80846478085e-05
5.14373053803e-05
2.75268300992e-06
5.42658205655e-05
6.98138548981e-06
5.72496432212e-05
9.13182293614e-06
5.97900275685e-05
9.52529768521e-06
6.17201280449e-05
8.80246974511e-06
6.30883029785e-05
7.53197941058e-06
6.40167165245e-05
6.10987723217e-06
6.46292363046e-05
4.7654506706e-06
6.50258032409e-05
3.60565341747e-06
6.52790777922e-05
2.66169460154e-06
6.54389728166e-05
1.92404008587e-06
6.55386896254e-05
1.36492184581e-06
6.55999281459e-05
9.51298261802e-07
6.56367429451e-05
6.51504311568e-07
6.56581940211e-05
4.38129475437e-07
6.56701021994e-05
2.88826738903e-07
6.5676191359e-05
1.86093454604e-07
6.56788275414e-05
1.16617752368e-07
6.56794978006e-05
7.05064773331e-08
6.56791213549e-05
4.05480070968e-08
6.56782536506e-05
2.1574727653e-08
6.56772223475e-05
9.94413372924e-09
6.567621263e-05
3.12934176642e-09
6.56753029198e-05
-6.15323468177e-10
6.56745335831e-05
-2.46575272169e-09
6.56739044938e-05
-3.172697521e-09
6.56734047827e-05
-3.23649926336e-09
6.56730169845e-05
-2.96782714763e-09
6.56727221196e-05
-2.55469472306e-09
6.56725020407e-05
-2.10600544027e-09
6.56723406566e-05
-1.6803407596e-09
6.56722243223e-05
-1.30543023814e-09
6.56721410457e-05
-9.90853252439e-10
6.56720801667e-05
-7.35614349339e-10
6.56720358177e-05
-5.32238222027e-10
6.56720038114e-05
-3.72688320282e-10
6.56719783611e-05
-2.47764832407e-10
6.56719560972e-05
-1.53179725173e-10
6.56719390731e-05
-8.31260669911e-11
6.56719363139e-05
-3.30098954746e-11
6.56719343044e-05
3.16040082558e-12
6.56719265961e-05
4.07773939801e-11
6.567191625e-05
6.78204304421e-11
6.56719030024e-05
8.94895407176e-11
6.56718880332e-05
1.08642790145e-10
6.5671871394e-05
1.26455678467e-10
6.56718529158e-05
1.43519065262e-10
6.56718325196e-05
1.59995160635e-10
6.56718112007e-05
1.74878776415e-10
6.5671790286e-05
1.87485273191e-10
6.56717686173e-05
1.99649719104e-10
6.56717467846e-05
2.08401086478e-10
6.56717258189e-05
2.11461746284e-10
6.56717073315e-05
2.05679138725e-10
6.56716942145e-05
1.86532653069e-10
6.56716925953e-05
1.47755656961e-10
6.56717015991e-05
8.39575907693e-11
6.56717124538e-05
-2.31061051976e-11
6.56717755563e-05
-2.64005069916e-10
6.56718565185e-05
-6.28638309491e-10
6.56719861796e-05
-1.18336458893e-09
6.56721706966e-05
-2.02632709834e-09
6.56724244139e-05
-3.27800819977e-09
6.56727624798e-05
-5.14456926707e-09
6.56731937651e-05
-7.94534912087e-09
6.56737133644e-05
-1.21688529288e-08
6.56742882447e-05
-1.85707998542e-08
6.56748269679e-05
-2.83200544909e-08
6.56751210959e-05
-4.32358793982e-08
6.56747342739e-05
-6.61676312622e-08
6.56727892653e-05
-1.01588424081e-07
6.56675258089e-05
-1.56466605502e-07
6.56553736453e-05
-2.41554083248e-07
6.56291452926e-05
-3.73252506279e-07
6.55745792669e-05
-5.75766932834e-07
6.54642249322e-05
-8.82727107105e-07
6.52484781749e-05
-1.33539549199e-06
6.48464301624e-05
-1.97217397725e-06
6.41440016572e-05
-2.80662438889e-06
-3.77039640501e-06
6.30482423515e-05
5.1085042372e-05
1.66764064006e-06
5.36118445514e-05
4.45458327882e-06
5.66873164729e-05
6.05635100689e-06
5.96894464965e-05
6.52316766534e-06
6.22997271187e-05
6.19218912569e-06
6.44136887065e-05
5.418017834e-06
6.60471848823e-05
4.47638106944e-06
6.72686164675e-05
3.54401909361e-06
6.81598955496e-05
2.71437433457e-06
6.8797762204e-05
2.02382793565e-06
6.92467466489e-05
1.47505561872e-06
6.95579655635e-05
1.05370290031e-06
6.97704323301e-05
7.38831458842e-07
6.991317549e-05
5.08761112588e-07
7.00073866931e-05
3.43918231344e-07
7.006829633e-05
2.27917057812e-07
7.01066983779e-05
1.47691355278e-07
7.01301406051e-05
9.3175463301e-08
7.01438295203e-05
5.68174880773e-08
7.01513052458e-05
3.3072196113e-08
7.0154937153e-05
1.79427261897e-08
7.01562841371e-05
8.59704984683e-09
7.01563548539e-05
3.05852241548e-09
7.01557619457e-05
-2.25194738956e-11
7.01548994012e-05
-1.60331496017e-09
7.01539740053e-05
-2.24741252778e-09
7.01531033396e-05
-2.36595004916e-09
7.01523410785e-05
-2.20568892106e-09
7.01517044589e-05
-1.91820216104e-09
7.01511906696e-05
-1.59234006014e-09
7.01507868392e-05
-1.27662140744e-09
7.01504760834e-05
-9.94765447972e-10
7.0150240845e-05
-7.55688894537e-10
7.01500649667e-05
-5.59805740627e-10
7.01499354434e-05
-4.0279399946e-10
7.01498416026e-05
-2.7894260581e-10
7.01497762472e-05
-1.82516586191e-10
7.01497322526e-05
-1.09295853825e-10
7.01497021705e-05
-5.31554082556e-11
7.01496713096e-05
-2.26971675392e-12
7.01496458599e-05
2.84750228187e-11
7.01496308692e-05
5.56269368699e-11
7.01496190951e-05
7.94649557837e-11
7.0149608096e-05
1.00382369127e-10
7.01495970255e-05
1.1962271173e-10
7.01495854454e-05
1.37942595985e-10
7.01495731881e-05
1.55672941725e-10
7.01495602696e-05
1.72807687409e-10
7.01495459888e-05
1.89061217716e-10
7.01495294788e-05
2.0389926946e-10
7.01495125548e-05
2.16470275506e-10
7.01494958029e-05
2.2504469944e-10
7.01494799325e-05
2.27225424944e-10
7.01494656397e-05
2.19855710253e-10
7.01494529925e-05
1.9902399811e-10
7.01494402234e-05
1.60320766627e-10
7.01494232562e-05
1.00709439998e-10
7.01494159183e-05
-1.59453060351e-11
7.01494066705e-05
-2.54890298087e-10
7.01494143576e-05
-6.3644895575e-10
7.01494205352e-05
-1.18966404597e-09
7.01494011498e-05
-2.00705429869e-09
7.01493273268e-05
-3.2043286411e-09
7.01491439091e-05
-4.9613761667e-09
7.01487489811e-05
-7.55069948349e-09
7.01479634973e-05
-1.13836359563e-08
7.01464817245e-05
-1.70892824952e-08
7.01437813227e-05
-2.56199091463e-08
7.01389731005e-05
-3.84278707889e-08
7.01305565513e-05
-5.77512670765e-08
7.0116024624e-05
-8.70567105922e-08
7.00911601426e-05
-1.31602329151e-07
7.00487902877e-05
-1.99184448792e-07
6.997681065e-05
-3.01273137092e-07
6.98550343709e-05
-4.539908772e-07
6.96506396115e-05
-6.78332487039e-07
6.93130696634e-05
-9.97825497666e-07
6.87716959609e-05
-1.43080075973e-06
6.79421998704e-05
-1.97712833425e-06
-2.59212614906e-06
6.67639293061e-05
5.08804132066e-05
7.87227431582e-07
5.31704661779e-05
2.16453027114e-06
5.62177497405e-05
3.00906743415e-06
5.94382697624e-05
3.30264764633e-06
6.24449695985e-05
3.18548929394e-06
6.5038253046e-05
2.82473440193e-06
6.71548666492e-05
2.35976748405e-06
6.88135651735e-05
1.88532058146e-06
7.00731711955e-05
1.45476831309e-06
7.10056681673e-05
1.09133094981e-06
7.16812644542e-05
7.99459303458e-07
7.21614237899e-05
5.73543525619e-07
7.24966046758e-05
4.03650529279e-07
7.27264811553e-05
2.78884590364e-07
7.2881279926e-05
1.8911942179e-07
7.29834694688e-05
1.25727478085e-07
7.30494129185e-05
8.17478645753e-08
7.30908145317e-05
5.17737982281e-08
7.31159077781e-05
3.17241739325e-08
7.31303913555e-05
1.85885344092e-08
7.31381448585e-05
1.01891254053e-08
7.31417637876e-05
4.97801480698e-09
7.31429498075e-05
1.87239369568e-09
7.31428007733e-05
1.2640622236e-10
7.31419751218e-05
-7.77770851347e-10
7.31408892527e-05
-1.16165211309e-09
7.31397710486e-05
-1.24785853271e-09
7.3138739949e-05
-1.17470683077e-09
7.31378484561e-05
-1.02682972701e-09
7.31371105447e-05
-8.54545667642e-10
7.31365189154e-05
-6.85096781255e-10
7.31360562652e-05
-5.32203383899e-10
7.31357018055e-05
-4.01307186469e-10
7.31354349655e-05
-2.9304578836e-10
7.31352374484e-05
-2.05368768041e-10
7.31350936897e-05
-1.3528825549e-10
7.31349906165e-05
-7.95524056524e-11
7.31349160226e-05
-3.48067459994e-11
7.3134859112e-05
3.65154103737e-12
7.31348266201e-05
3.01102287646e-11
7.3134801412e-05
5.35579522499e-11
7.31347825512e-05
7.43587599869e-11
7.31347684151e-05
9.34872819278e-11
7.31347571694e-05
1.11533719156e-10
7.31347474926e-05
1.2920425097e-10
7.31347384451e-05
1.46872365568e-10
7.3134729365e-05
1.64615342552e-10
7.31347197844e-05
1.82251336912e-10
7.31347094232e-05
1.99305269779e-10
7.31346981655e-05
2.15060348119e-10
7.31346859848e-05
2.28563055424e-10
7.31346728688e-05
2.38070716987e-10
7.31346588294e-05
2.41162867645e-10
7.31346438903e-05
2.34655404007e-10
7.31346282171e-05
2.14505217677e-10
7.31346123325e-05
1.7598819269e-10
7.31345975105e-05
1.15344843553e-10
7.31345689247e-05
1.25105565892e-11
7.3134521719e-05
-2.07786004574e-10
7.31344455389e-05
-5.60383297497e-10
7.31343181967e-05
-1.06245539672e-09
7.31340962588e-05
-1.78526373152e-09
7.31337097226e-05
-2.81797626848e-09
7.31330414038e-05
-4.29327359293e-09
7.31318943759e-05
-6.40386276265e-09
7.31299419144e-05
-9.43132619676e-09
7.31266538363e-05
-1.38013739687e-08
7.31211585392e-05
-2.01248102518e-08
7.31120217963e-05
-2.92913275363e-08
7.3096913457e-05
-4.26431642053e-08
7.30721011604e-05
-6.22446633139e-08
7.30315943084e-05
-9.10956672714e-08
7.29657590581e-05
-1.3334936164e-07
7.28593907051e-05
-1.94905007344e-07
7.26890157186e-05
-2.83616152764e-07
7.24196346671e-05
-4.08951682326e-07
7.20020882374e-05
-5.80278929215e-07
7.13739364945e-05
-8.02649247509e-07
7.04677824801e-05
-1.07097451632e-06
-1.36080400322e-06
6.92364603005e-05
5.07871726148e-05
5.48121495449e-11
5.29516498569e-05
5.29907815829e-11
5.59606884792e-05
2.88014812119e-11
5.92633219533e-05
1.41762633737e-11
6.24488085152e-05
2.73841143513e-12
6.52735490461e-05
-6.11025623979e-12
6.76333285504e-05
-1.19989699792e-11
6.95186640783e-05
-1.49324370355e-11
7.09734477475e-05
-1.53565618326e-11
7.20647925488e-05
-1.38694734999e-11
7.28642629203e-05
-1.11027225122e-11
7.34378141084e-05
-7.7083674671e-12
7.38414689312e-05
-4.3416658162e-12
7.41203551216e-05
-1.64245083834e-12
7.43094747042e-05
-1.94481618724e-13
7.44352025452e-05
-3.90904463394e-13
7.45169528711e-05
-2.4928169403e-12
7.45687328823e-05
-6.2581526692e-12
7.46004680461e-05
-1.10558646433e-11
7.46190724063e-05
-1.59132293309e-11
7.46292811376e-05
-1.97097169983e-11
7.46342803993e-05
-2.13591233468e-11
7.4636173097e-05
-2.04177764869e-11
7.46363175691e-05
-1.81769659048e-11
7.46355553125e-05
-1.56212237002e-11
7.46344060436e-05
-1.24884597399e-11
7.46331670349e-05
-8.95662574302e-12
7.46319972733e-05
-5.05606427933e-12
7.46309706152e-05
-2.8534408644e-13
7.46301122133e-05
3.74496832366e-12
7.46294186496e-05
8.36467291916e-12
7.4628873027e-05
1.33274198356e-11
7.4628453041e-05
1.85907223042e-11
7.46281356882e-05
2.42133560783e-11
7.46278998368e-05
3.03788760744e-11
7.46277272169e-05
3.7223803689e-11
7.46276027048e-05
4.48577121298e-11
7.46275145048e-05
5.32994992031e-11
7.46274554433e-05
6.2619816798e-11
7.46274131713e-05
7.22797443439e-11
7.46273842539e-05
8.23653920347e-11
7.46273647515e-05
9.37549620944e-11
7.46273517009e-05
1.06446746609e-10
7.46273428137e-05
1.20333042245e-10
7.46273364817e-05
1.35421061986e-10
7.46273315792e-05
1.51616729911e-10
7.46273273207e-05
1.68693899842e-10
7.46273231332e-05
1.8627593263e-10
7.46273185395e-05
2.03777554483e-10
7.46273131398e-05
2.2037500093e-10
7.46273066858e-05
2.3494304289e-10
7.46272988941e-05
2.45779827552e-10
7.46272893462e-05
2.50603126676e-10
7.46272773692e-05
2.46480424892e-10
7.46272618891e-05
2.29790792388e-10
7.46272413163e-05
1.963716168e-10
7.46272144025e-05
1.42113710011e-10
7.46271717533e-05
5.50499381547e-11
7.46270746855e-05
-1.10831090649e-10
7.46269365523e-05
-4.22379438545e-10
7.46267073452e-05
-8.33378984266e-10
7.46263277483e-05
-1.40580564174e-09
7.46257001108e-05
-2.19052330691e-09
7.46246656547e-05
-3.25903400846e-09
7.46229644988e-05
-4.70290765669e-09
7.46201752424e-05
-6.6422658171e-09
7.46156328726e-05
-9.25922799875e-09
7.46082563552e-05
-1.27485109142e-08
7.45962813266e-05
-1.73165067364e-08
7.45768779883e-05
-2.32400765069e-08
7.45456348685e-05
-3.10018287197e-08
7.44956765727e-05
-4.11376577682e-08
7.44161388443e-05
-5.38118808639e-08
7.42904152959e-05
-6.91816575736e-08
7.40937850226e-05
-8.69859768406e-08
7.37908837622e-05
-1.06050555978e-07
7.33341945271e-05
-1.235897204e-07
7.2665950824e-05
-1.34405607266e-07
7.17262609634e-05
-1.31285006691e-07
-1.05662413558e-07
7.04711194973e-05
5.07871715797e-05
-7.87116773298e-07
5.29516490025e-05