/*--------------------------------*- C++ -*----------------------------------*\
| =========                 |                                                 |
| \\      /  F ield         | OpenFOAM: The Open Source CFD Toolbox           |
|  \\    /   O peration     | Version:  2106                                  |
|   \\  /    A nd           | Website:  www.openfoam.com                      |
|    \\/     M anipulation  |                                                 |
\*---------------------------------------------------------------------------*/
FoamFile
{
    version     2.0;
    format      ascii;
    arch        "LSB;label=32;scalar=64";
    class       volVectorField;
    location    "0.16";
    object      U;
}
// * * * * * * * * * * * * * * * * * * * * * * * * * * * * * * * * * * * * * //

dimensions      [0 1 -1 0 0 0 0];

internalField   nonuniform List<vector> 
11200
(
(0.662462405315 0.150569442548 0)
(0.558948678967 0.103243388197 0)
(0.383850748445 0.0513512240409 0)
(0.283747612706 0.0248708550403 0)
(0.232075294117 0.0124170449449 0)
(0.201908617337 0.00662281652661 0)
(0.183197969946 0.00380291412125 0)
(0.171276531367 0.00231586979794 0)
(0.163510354025 0.00146450633903 0)
(0.158388821396 0.000944892278587 0)
(0.155006685949 0.000615176863023 0)
(0.152786733397 0.000402233919825 0)
(0.151346584993 0.000264232527175 0)
(0.150428349008 0.000175250710216 0)
(0.149856745077 0.000118361528243 0)
(0.149512543299 8.21611413596e-05 0)
(0.149314981439 5.88673133474e-05 0)
(0.149209617279 4.3317217618e-05 0)
(0.149159754688 3.29359312878e-05 0)
(0.14914251068 2.81872996949e-05 0)
(0.149144661964 2.76849883342e-05 0)
(0.149156933052 2.98911288642e-05 0)
(0.149172550664 3.30515431653e-05 0)
(0.149188095581 3.59670707122e-05 0)
(0.149202303449 3.8602622833e-05 0)
(0.149214574253 4.10418171303e-05 0)
(0.149224740161 4.33192263431e-05 0)
(0.14923290785 4.54659169121e-05 0)
(0.149239313796 4.75209759385e-05 0)
(0.149244239653 4.9530951372e-05 0)
(0.149247969782 5.15567612246e-05 0)
(0.149250772112 5.36885283772e-05 0)
(0.149252842932 5.60143304161e-05 0)
(0.149254350949 5.83956759065e-05 0)
(0.149255430559 6.07580812018e-05 0)
(0.14925616821 6.30814141304e-05 0)
(0.149256657598 6.53753060086e-05 0)
(0.149256982042 6.76515293459e-05 0)
(0.149257196679 6.99220361578e-05 0)
(0.149257330881 7.21933553093e-05 0)
(0.14925740535 7.44665776634e-05 0)
(0.149257437301 7.67426627431e-05 0)
(0.149257438798 7.90213435861e-05 0)
(0.149257418608 8.13014633125e-05 0)
(0.149257383146 8.35813529872e-05 0)
(0.149257337153 8.58587060423e-05 0)
(0.149257284645 8.81306917091e-05 0)
(0.149257229582 9.03941631104e-05 0)
(0.149257176141 9.26460136104e-05 0)
(0.149257129532 9.48831525961e-05 0)
(0.149257097066 9.71027135356e-05 0)
(0.149257088517 9.93019614015e-05 0)
(0.14925711669 0.000101478015704 0)
(0.149257198983 0.000103627653515 0)
(0.149257359965 0.000105746951857 0)
(0.149257634912 0.000107830666224 0)
(0.149258073813 0.000109871938763 0)
(0.149258748806 0.000111861253479 0)
(0.149259766777 0.000113785125781 0)
(0.149261284721 0.000115619597826 0)
(0.149263542949 0.000117311692532 0)
(0.149266946896 0.000118773864883 0)
(0.14927197793 0.000120037598566 0)
(0.149279278904 0.000121288692434 0)
(0.149289877674 0.000122980374147 0)
(0.149305296492 0.00012534098773 0)
(0.149327922229 0.000128126303758 0)
(0.149361464835 0.000131099944255 0)
(0.149411540979 0.000134041098378 0)
(0.149486415767 0.000136836331908 0)
(0.149598076677 0.000140781352545 0)
(0.149769494511 0.000151748494387 0)
(0.150038590363 0.000172584440673 0)
(0.150468709389 0.000202983773226 0)
(0.151196043976 0.000233115112327 0)
(0.152499164008 0.000192310331776 0)
(0.155036000949 -0.000217968089419 0)
(0.162406038028 -0.00212164323348 0)
(0.187815830702 -0.0108514983766 0)
(0.204822296542 -0.0500215443186 0)
(0.965408255795 0.289214706625 0)
(0.961962863729 0.252656039398 0)
(0.823574398517 0.159021440874 0)
(0.698139377873 0.0959957304205 0)
(0.610225474912 0.0582481133413 0)
(0.548971504265 0.036214852423 0)
(0.506588902078 0.0231612844374 0)
(0.477567281836 0.0151375147466 0)
(0.457745503436 0.010017754769 0)
(0.444228470658 0.00665814105649 0)
(0.435053306508 0.0044155564853 0)
(0.428873124028 0.00290686643766 0)
(0.424754205718 0.00189105940358 0)
(0.422046653893 0.0012100467108 0)
(0.42029781517 0.000757165105341 0)
(0.419193204847 0.000459257708123 0)
(0.418515598952 0.000265856494334 0)
(0.418116451998 0.000142400805459 0)
(0.417895849692 6.61097126303e-05 0)
(0.417786801966 2.3091123484e-05 0)
(0.417745394453 1.40463396725e-06 0)
(0.417742127329 -1.01691591235e-05 0)
(0.417756738745 -1.37231027209e-05 0)
(0.417778716337 -1.32795258596e-05 0)
(0.417803034701 -1.08507185135e-05 0)
(0.417826434146 -7.51130130755e-06 0)
(0.417847221019 -3.89864871507e-06 0)
(0.417864796175 -3.82551044951e-07 0)
(0.417879162701 2.83607267161e-06 0)
(0.417890634475 5.65431659508e-06 0)
(0.417899681713 8.00987546522e-06 0)
(0.417906803785 9.82068680005e-06 0)
(0.417912201486 1.09956123943e-05 0)
(0.417916101049 1.18497526168e-05 0)
(0.417918882682 1.26656087954e-05 0)
(0.417920821367 1.34209810371e-05 0)
(0.41792215307 1.40966459011e-05 0)
(0.417923068663 1.4712429497e-05 0)
(0.417923697669 1.52983969022e-05 0)
(0.417924111791 1.58690172667e-05 0)
(0.41792436302 1.64243614083e-05 0)
(0.417924494681 1.69693597889e-05 0)
(0.417924537409 1.75076822131e-05 0)
(0.4179245139 1.80423533153e-05 0)
(0.417924440834 1.8576546371e-05 0)
(0.417924330536 1.91126635122e-05 0)
(0.417924193408 1.96526511931e-05 0)
(0.417924039796 2.01984844909e-05 0)
(0.417923880737 2.07525318948e-05 0)
(0.417923729735 2.1315934331e-05 0)
(0.417923605201 2.18893031037e-05 0)
(0.417923531715 2.24732550729e-05 0)
(0.4179235421 2.30679628015e-05 0)
(0.417923681297 2.36729679393e-05 0)
(0.417924012217 2.42871896924e-05 0)
(0.41792462477 2.4908991078e-05 0)
(0.417925647168 2.55364481637e-05 0)
(0.417927265256 2.61608196206e-05 0)
(0.417929750745 2.67623631298e-05 0)
(0.417933491247 2.7310730511e-05 0)
(0.417939072333 2.77619662734e-05 0)
(0.417947578577 2.80491085518e-05 0)
(0.417960517389 2.83206728316e-05 0)
(0.417980020134 2.79161593312e-05 0)
(0.418008889926 2.54072760463e-05 0)
(0.418050739868 1.96314296691e-05 0)
(0.418111725832 9.78395915881e-06 0)
(0.418202008513 -5.66600917515e-06 0)
(0.418337273311 -2.92558806643e-05 0)
(0.418542558552 -6.46922056293e-05 0)
(0.41886001043 -0.00011619916578 0)
(0.419359615248 -0.000188794233198 0)
(0.420155523229 -0.000309409606907 0)
(0.421452662648 -0.000535898395737 0)
(0.423645056138 -0.00100579148694 0)
(0.427456289336 -0.0021029179195 0)
(0.434318937591 -0.00488560357019 0)
(0.448431459249 -0.0123308290674 0)
(0.475004964169 -0.0344632848251 0)
(0.478930317387 -0.0994954159583 0)
(1.0222209667 0.238416186915 0)
(1.08213753368 0.295926651673 0)
(1.03447723291 0.239503065164 0)
(0.954615418097 0.174290163219 0)
(0.879992066649 0.121345467294 0)
(0.81861444825 0.083099383195 0)
(0.771410864496 0.0567316664234 0)
(0.736634405535 0.0387409680912 0)
(0.711624448171 0.0264327868465 0)
(0.693916637038 0.0179731048491 0)
(0.681541428065 0.0121424484284 0)
(0.673000136543 0.00812490898947 0)
(0.667180672633 0.00536632204257 0)
(0.663271704131 0.00348444575213 0)
(0.66068853476 0.0022125621541 0)
(0.659014212769 0.00136338159113 0)
(0.657954534874 0.000805242038298 0)
(0.657304246058 0.000445912565566 0)
(0.656921833388 0.000221061388831 0)
(0.656710276353 8.55702086438e-05 0)
(0.656603423668 8.34212763162e-06 0)
(0.656561891151 -3.37434876297e-05 0)
(0.656558012339 -5.68877957227e-05 0)
(0.65657151424 -6.69150973391e-05 0)
(0.656593075979 -6.85313325119e-05 0)
(0.656616933956 -6.56197997957e-05 0)
(0.65663978061 -6.06195120646e-05 0)
(0.656660008931 -5.49407546564e-05 0)
(0.656677033635 -4.93675590673e-05 0)
(0.656690832781 -4.43062043088e-05 0)
(0.65670165252 -3.99499324876e-05 0)
(0.656709869041 -3.64145664046e-05 0)
(0.656716172795 -3.38124066403e-05 0)
(0.656721255892 -3.19733139776e-05 0)
(0.656725176713 -3.09146313338e-05 0)
(0.656727950684 -3.03987461896e-05 0)
(0.656729869613 -3.03229313666e-05 0)
(0.656731213043 -3.06212458771e-05 0)
(0.656732154449 -3.11399596852e-05 0)
(0.656732783038 -3.17921568494e-05 0)
(0.65673317184 -3.25493215636e-05 0)
(0.656733386271 -3.33768350383e-05 0)
(0.656733471319 -3.42498042621e-05 0)
(0.65673346129 -3.51495767962e-05 0)
(0.65673338165 -3.60604837473e-05 0)
(0.656733251232 -3.69716101214e-05 0)
(0.656733086209 -3.78756024931e-05 0)
(0.656732902484 -3.87670970637e-05 0)
(0.65673271544 -3.96402710064e-05 0)
(0.65673254293 -4.04904360151e-05 0)
(0.656732410415 -4.13126177533e-05 0)
(0.65673235275 -4.2102411523e-05 0)
(0.65673241706 -4.28577651852e-05 0)
(0.656732668822 -4.35804687169e-05 0)
(0.656733200975 -4.42804556677e-05 0)
(0.656734147228 -4.49846539365e-05 0)
(0.65673569422 -4.57450135772e-05 0)
(0.656738107563 -4.66528346961e-05 0)
(0.656741784752 -4.7843072606e-05 0)
(0.656747321908 -4.95283779786e-05 0)
(0.656755619942 -5.21841046973e-05 0)
(0.656768307915 -5.68787093415e-05 0)
(0.656786813021 -6.43882156297e-05 0)
(0.656812565796 -7.56427592284e-05 0)
(0.656849267109 -9.22847757566e-05 0)
(0.656903644456 -0.000116765395393 0)
(0.656985175942 -0.000152297329494 0)
(0.657107713069 -0.00020419751775 0)
(0.657293178802 -0.00028105382898 0)
(0.657577173218 -0.000396862242674 0)
(0.658018198713 -0.000576180526127 0)
(0.65870608514 -0.000866631437268 0)
(0.659789028915 -0.00135892027134 0)
(0.661526639817 -0.00222739174883 0)
(0.664364839405 -0.00383714099772 0)
(0.669006377607 -0.00699276253396 0)
(0.676489866527 -0.013446935893 0)
(0.688845271889 -0.0270452357971 0)
(0.705668316189 -0.0567732635552 0)
(0.701223050549 -0.114141175511 0)
(1.02251475576 0.170807152562 0)
(1.10138976083 0.276496477772 0)
(1.1175242669 0.266664798199 0)
(1.09214661326 0.21990169802 0)
(1.0518781652 0.168168846846 0)
(1.01020823414 0.123567396112 0)
(0.973494700299 0.0888375212413 0)
(0.943864564584 0.0630063715422 0)
(0.921142806773 0.0442232044171 0)
(0.90428407836 0.0307423934111 0)
(0.892074873104 0.0211562950886 0)
(0.88340451413 0.0143954696716 0)
(0.877352674002 0.00966794925204 0)
(0.873197711784 0.00639383767508 0)
(0.87039293653 0.00415116404799 0)
(0.868534050081 0.00263448794569 0)
(0.867327656472 0.00162401111622 0)
(0.866564257896 0.000962665201358 0)
(0.866096506982 0.000539105809978 0)
(0.865822273941 0.000275129869319 0)
(0.865671442216 0.000117036183199 0)
(0.865595206924 2.87507181669e-05 0)
(0.865564171961 -1.93774583554e-05 0)
(0.865561393696 -4.1326615983e-05 0)
(0.865572771004 -4.77436753377e-05 0)
(0.865589815911 -4.56161640508e-05 0)
(0.865608169713 -3.9259599283e-05 0)
(0.865625558035 -3.12609255821e-05 0)
(0.865640896398 -2.30907303209e-05 0)
(0.865653817023 -1.55162665824e-05 0)
(0.865664351215 -8.86640812575e-06 0)
(0.865672701909 -3.19389147642e-06 0)
(0.865679123211 1.58755020093e-06 0)
(0.865683825966 5.33377140159e-06 0)
(0.865687215113 7.93158004239e-06 0)
(0.865689683099 9.70991163963e-06 0)
(0.865691373028 1.10622151429e-05 0)
(0.86569257237 1.22135475795e-05 0)
(0.8656934782 1.31873802337e-05 0)
(0.865694105288 1.40800951316e-05 0)
(0.865694497041 1.48846622515e-05 0)
(0.865694718776 1.56226620644e-05 0)
(0.865694809044 1.63092293014e-05 0)
(0.865694799466 1.69590211579e-05 0)
(0.865694713384 1.75868420433e-05 0)
(0.865694566853 1.82028358916e-05 0)
(0.86569437457 1.88149852164e-05 0)
(0.865694153804 1.94321251401e-05 0)
(0.865693923342 2.00672022408e-05 0)
(0.865693705857 2.07175614612e-05 0)
(0.865693532335 2.13725688167e-05 0)
(0.865693442566 2.20221604077e-05 0)
(0.865693488959 2.26513281239e-05 0)
(0.865693741483 2.32355934425e-05 0)
(0.865694292154 2.37369733588e-05 0)
(0.865695267984 2.4106269639e-05 0)
(0.865696847399 2.43023310142e-05 0)
(0.865699298862 2.42427875756e-05 0)
(0.865703019163 2.37580179565e-05 0)
(0.865708454853 2.24724393411e-05 0)
(0.865715988739 1.97709408627e-05 0)
(0.865727222567 1.50280797288e-05 0)
(0.865744771055 6.43757336111e-06 0)
(0.865771610135 -7.74518204055e-06 0)
(0.865811662747 -2.95232727258e-05 0)
(0.865870820134 -6.28096500129e-05 0)
(0.865958427309 -0.00011452864407 0)
(0.866089041878 -0.000195527664902 0)
(0.866285318607 -0.000323207907463 0)
(0.866582283239 -0.000526283763679 0)
(0.867033930786 -0.000854108633097 0)
(0.867726004099 -0.00139430354382 0)
(0.868796037893 -0.00229687698258 0)
(0.870459385519 -0.00383875223525 0)
(0.873038574625 -0.00654868317276 0)
(0.876938650657 -0.0114451865783 0)
(0.882491772707 -0.0204162702226 0)
(0.889894274209 -0.0367717290416 0)
(0.896713179234 -0.0661210766584 0)
(0.887056003494 -0.111277944913 0)
(1.01287875193 0.118961023972 0)
(1.08820671038 0.231806936712 0)
(1.13741367505 0.253106764382 0)
(1.15409087238 0.228992753597 0)
(1.14994211463 0.188368359319 0)
(1.13538466059 0.146579844858 0)
(1.11758895374 0.11015096689 0)
(1.10059500727 0.0808162235809 0)
(1.08612457583 0.0582265781106 0)
(1.07459092848 0.0413189868935 0)
(1.0657914702 0.0289160221944 0)
(1.05928799228 0.0199601017905 0)
(1.05459976738 0.0135815613429 0)
(1.05129076999 0.00909744318125 0)
(1.04899985349 0.00598615186432 0)
(1.04744341221 0.00385696109805 0)
(1.04640654134 0.00242158804641 0)
(1.0457306295 0.00147013414987 0)
(1.04530107881 0.000851678221949 0)
(1.04503658813 0.000458983134379 0)
(1.04488023444 0.000216712386317 0)
(1.04479263079 7.29612318932e-05 0)
(1.04474878165 -5.57241690285e-06 0)
(1.04473190212 -4.4092664054e-05 0)
(1.04472967638 -5.94861479647e-05 0)
(1.04473518918 -6.18357644841e-05 0)
(1.04474416987 -5.73770434263e-05 0)
(1.0447540906 -4.99478835538e-05 0)
(1.04476357176 -4.179837967e-05 0)
(1.04477194316 -3.41485759177e-05 0)
(1.04477895432 -2.75839894453e-05 0)
(1.04478459137 -2.23082940543e-05 0)
(1.04478899843 -1.827717441e-05 0)
(1.04479238529 -1.52824579474e-05 0)
(1.04479499967 -1.29531050876e-05 0)
(1.04479712399 -1.11571506098e-05 0)
(1.04479889241 -9.68360026397e-06 0)
(1.0448002545 -8.39275685959e-06 0)
(1.04480126399 -7.3534378907e-06 0)
(1.04480197963 -6.65058722419e-06 0)
(1.04480241875 -6.24584882154e-06 0)
(1.04480266641 -6.01572843354e-06 0)
(1.04480276707 -5.90548554025e-06 0)
(1.04480275972 -5.87103057577e-06 0)
(1.044802671 -5.86933925167e-06 0)
(1.04480251893 -5.8792024339e-06 0)
(1.04480232295 -5.89134630167e-06 0)
(1.0448021075 -5.90450802623e-06 0)
(1.04480188342 -5.9288251224e-06 0)
(1.04480165565 -5.95781282818e-06 0)
(1.04480145151 -5.97887527744e-06 0)
(1.04480131309 -5.99242350089e-06 0)
(1.04480129136 -6.00482863238e-06 0)
(1.04480145528 -6.02924095376e-06 0)
(1.04480190925 -6.09487440321e-06 0)
(1.04480283016 -6.27935672525e-06 0)
(1.04480444323 -6.80002684481e-06 0)
(1.04480700642 -8.00090055211e-06 0)
(1.04481082083 -1.03308265162e-05 0)
(1.0448163294 -1.40916307707e-05 0)
(1.04482454052 -1.90578745564e-05 0)
(1.04483664296 -2.52126564043e-05 0)
(1.04485385085 -3.48495778337e-05 0)
(1.04487844288 -5.0950166709e-05 0)
(1.04491389957 -7.7801642445e-05 0)
(1.04496536541 -0.000121706915912 0)
(1.04504045441 -0.000192510769329 0)
(1.04515053872 -0.000305901820771 0)
(1.04531282128 -0.000487242636562 0)
(1.04555329723 -0.000777900161797 0)
(1.04591092986 -0.00124578122719 0)
(1.04644405926 -0.00200349763287 0)
(1.04723763012 -0.00324335909914 0)
(1.04840604329 -0.00529933801838 0)
(1.05007899061 -0.00875409575825 0)
(1.05231669928 -0.0146121903992 0)
(1.05487964224 -0.0245008566897 0)
(1.05698152913 -0.0407668643238 0)
(1.05591136853 -0.0663126139559 0)
(1.04233371924 -0.100736393623 0)
(1.00447483541 0.0814039984881 0)
(1.06917237522 0.181288539205 0)
(1.13080568999 0.216950418919 0)
(1.17375000842 0.210789155928 0)
(1.19865265787 0.183690077585 0)
(1.21019988733 0.149751684395 0)
(1.21350256588 0.116779145464 0)
(1.21251724965 0.0882206794606 0)
(1.20973099262 0.0650481526488 0)
(1.20651120612 0.0470209106651 0)
(1.20351914329 0.0334068101879 0)
(1.20101146257 0.0233557337906 0)
(1.19903446258 0.0160720141996 0)
(1.19753879163 0.0108795124642 0)
(1.19644132762 0.00723418421575 0)
(1.19565559942 0.00471351082959 0)
(1.19510490416 0.00299761619212 0)
(1.19472649177 0.00184914107388 0)
(1.19447151153 0.00109493194588 0)
(1.19430320237 0.000610572247984 0)
(1.19419456491 0.000307934791675 0)
(1.19412628335 0.0001257022018 0)
(1.19408523736 2.21396647056e-05 0)
(1.19406198381 -3.25539501756e-05 0)
(1.19404969066 -5.73905088518e-05 0)
(1.19404419985 -6.4734890466e-05 0)
(1.19404271118 -6.25314852533e-05 0)
(1.19404340623 -5.56940570034e-05 0)
(1.19404516915 -4.71323243211e-05 0)
(1.19404734155 -3.84595454613e-05 0)
(1.19404955085 -3.04769805945e-05 0)
(1.19405160433 -2.34903737876e-05 0)
(1.19405343166 -1.75231841819e-05 0)
(1.19405502725 -1.2500343136e-05 0)
(1.19405640721 -8.31437023177e-06 0)
(1.1940575902 -4.90450458403e-06 0)
(1.19405855599 -2.26312348215e-06 0)
(1.19405925623 -3.41034900641e-07 0)
(1.19405964332 1.0152049802e-06 0)
(1.19405976888 1.89628485742e-06 0)
(1.19405981782 2.59176288688e-06 0)
(1.19405984826 3.21182510282e-06 0)
(1.19405982506 3.75916088699e-06 0)
(1.19405976366 4.24536997208e-06 0)
(1.19405966541 4.67720396377e-06 0)
(1.19405951811 5.0694441564e-06 0)
(1.19405932027 5.43325273706e-06 0)
(1.19405907421 5.76892032558e-06 0)
(1.19405880382 6.06185363235e-06 0)
(1.19405855249 6.31982690774e-06 0)
(1.19405834961 6.56263102237e-06 0)
(1.19405822535 6.78038036606e-06 0)
(1.19405823012 6.94747028753e-06 0)
(1.19405842794 7.02474545679e-06 0)
(1.19405887757 6.95494179082e-06 0)
(1.19405958193 6.65543258094e-06 0)
(1.19406054164 5.98172855112e-06 0)
(1.19406188817 4.6223740053e-06 0)
(1.19406412231 2.02452131948e-06 0)
(1.19406834911 -2.02763659192e-06 0)
(1.19407538097 -8.29613988906e-06 0)
(1.19408504257 -1.81954270335e-05 0)
(1.1940979669 -3.37428964549e-05 0)
(1.19411611414 -5.78399077761e-05 0)
(1.19414161768 -9.50858364268e-05 0)
(1.19417727446 -0.000152832599632 0)
(1.19422705389 -0.000242804155582 0)
(1.19429656457 -0.00038360375669 0)
(1.19439366419 -0.000604926199309 0)
(1.19452912788 -0.000954521767013 0)
(1.19471709231 -0.00150962048264 0)
(1.19497445606 -0.0023956065174 0)
(1.19531621035 -0.00381776844766 0)
(1.19573997668 -0.00611264729048 0)
(1.19618590477 -0.00982536042487 0)
(1.19643450486 -0.0158106797109 0)
(1.1958978281 -0.025298421724 0)
(1.19341596937 -0.0397756607859 0)
(1.1866370501 -0.0605336719022 0)
(1.16999817527 -0.0863265219488 0)
(0.998962326333 0.0544316266117 0)
(1.05310957017 0.133401608266 0)
(1.11628268501 0.170777558693 0)
(1.17301272379 0.175143872661 0)
(1.21791246838 0.159583607274 0)
(1.25049858642 0.134951021419 0)
(1.27288492034 0.108411658528 0)
(1.28776723143 0.083884973846 0)
(1.29745269111 0.0630565746209 0)
(1.30366076245 0.0462999237695 0)
(1.30759235643 0.0333205171185 0)
(1.31005371524 0.0235495258808 0)
(1.31157364023 0.0163599086328 0)
(1.31249494395 0.0111713142415 0)
(1.31303863778 0.0074915030087 0)
(1.31334672976 0.00492447816596 0)
(1.31351014331 0.00316294196873 0)
(1.31358677189 0.00197473142725 0)
(1.3136131457 0.00118816748671 0)
(1.31361199239 0.00067858902887 0)
(1.3135971496 0.000356955400769 0)
(1.31357682184 0.000160686305903 0)
(1.31355581887 4.63841712764e-05 0)
(1.31353651495 -1.59738183837e-05 0)
(1.31351984714 -4.61796228633e-05 0)
(1.31350614498 -5.72082380349e-05 0)
(1.31349522561 -5.74816193783e-05 0)
(1.31348675207 -5.22606815731e-05 0)
(1.31348033609 -4.47138808896e-05 0)
(1.31347559274 -3.66647915733e-05 0)
(1.31347217136 -2.90857227605e-05 0)
(1.31346976939 -2.24294124599e-05 0)
(1.31346812885 -1.68462046796e-05 0)
(1.31346702271 -1.23414795116e-05 0)
(1.31346628416 -8.84919653755e-06 0)
(1.31346581469 -6.2679732836e-06 0)
(1.3134655173 -4.46313251741e-06 0)
(1.31346529968 -3.23910565342e-06 0)
(1.31346514358 -2.37099242781e-06 0)
(1.31346514393 -1.65186093133e-06 0)
(1.31346528201 -1.05218888066e-06 0)
(1.31346537469 -6.1350278882e-07 0)
(1.31346536488 -2.35802011697e-07 0)
(1.31346527856 1.23734459354e-07 0)
(1.31346513445 4.61402593408e-07 0)
(1.31346494786 7.838214398e-07 0)
(1.31346472269 1.10339587118e-06 0)
(1.31346446036 1.43428086293e-06 0)
(1.31346417704 1.79296039868e-06 0)
(1.3134639048 2.16369892125e-06 0)
(1.31346365688 2.50251158163e-06 0)
(1.31346344084 2.77754852613e-06 0)
(1.31346328714 2.94764942483e-06 0)
(1.31346324395 2.95073858645e-06 0)
(1.31346338731 2.69815898256e-06 0)
(1.31346383378 2.0811497944e-06 0)
(1.31346464071 1.01405625634e-06 0)
(1.31346575682 -6.3830763232e-07 0)
(1.31346759234 -3.03173209537e-06 0)
(1.31347046584 -6.8112711087e-06 0)
(1.31347448319 -1.33385118418e-05 0)
(1.31347989411 -2.42478662975e-05 0)
(1.31348694485 -4.1127809969e-05 0)
(1.31349609049 -6.71248613558e-05 0)
(1.31350762162 -0.000107279965398 0)
(1.31352157292 -0.000169376185447 0)
(1.31353751597 -0.000265573042897 0)
(1.31355406035 -0.000414924775211 0)
(1.31356788077 -0.000647474433265 0)
(1.31357189383 -0.00101086136623 0)
(1.31355192409 -0.00158083110029 0)
(1.3134802281 -0.00247739451633 0)
(1.31330195402 -0.00388980671008 0)
(1.31290866588 -0.00611386139624 0)
(1.31208885512 -0.00959977916435 0)
(1.31043422674 -0.0149986769465 0)
(1.30718554031 -0.0231544593903 0)
(1.30112147588 -0.0349318127586 0)
(1.29035094148 -0.0508027644707 0)
(1.27135661986 -0.0695828805664 0)
(0.995736074862 0.0346338613145 0)
(1.04179514628 0.0905689218649 0)
(1.10222839211 0.121549565465 0)
(1.16491412436 0.129605834732 0)
(1.22202567428 0.12200926942 0)
(1.26951893424 0.106019939775 0)
(1.30680225469 0.0870975578289 0)
(1.33499537339 0.0686366833024 0)
(1.3557447974 0.0523698415281 0)
(1.37069619329 0.0389256205224 0)
(1.38128278357 0.0282980757603 0)
(1.38866270747 0.0201712789815 0)
(1.39373036534 0.0141175111852 0)
(1.39715664035 0.00970533514339 0)
(1.39943438203 0.00655059195891 0)
(1.40091970288 0.00433444795901 0)
(1.40186624655 0.00280413369307 0)
(1.40245226237 0.00176572606461 0)
(1.40280135269 0.00107417079722 0)
(1.40299803916 0.000623201802173 0)
(1.40309924649 0.000336365411585 0)
(1.40314268172 0.000159567168096 0)
(1.40315291885 5.50951220168e-05 0)
(1.40314540541 -3.07924825456e-06 0)
(1.403129617 -3.22224875233e-05 0)
(1.40311117767 -4.40076887955e-05 0)
(1.40309309858 -4.58942543695e-05 0)
(1.40307690438 -4.25673851983e-05 0)
(1.40306319678 -3.6889910485e-05 0)
(1.40305205017 -3.05378054186e-05 0)
(1.40304326383 -2.4425006047e-05 0)
(1.40303651357 -1.89979411698e-05 0)
(1.40303143973 -1.44246096973e-05 0)
(1.40302769348 -1.0708180078e-05 0)
(1.40302497665 -7.74916594752e-06 0)
(1.403023056 -5.42276286882e-06 0)
(1.40302175474 -3.60660595155e-06 0)
(1.40302092596 -2.1610002156e-06 0)
(1.40302040931 -9.74399095134e-07 0)
(1.40302001465 -2.01085914544e-08 0)
(1.40301965963 7.18532468061e-07 0)
(1.40301941604 1.23953408338e-06 0)
(1.4030192881 1.63807658265e-06 0)
(1.40301918764 1.97945985701e-06 0)
(1.40301907325 2.30597510751e-06 0)
(1.40301893599 2.63759194375e-06 0)
(1.4030187738 2.98431046707e-06 0)
(1.40301858761 3.3519144279e-06 0)
(1.40301837483 3.74336671557e-06 0)
(1.40301812813 4.14223715836e-06 0)
(1.40301786199 4.51100963305e-06 0)
(1.40301760793 4.82242139977e-06 0)
(1.40301739164 5.04031361792e-06 0)
(1.40301723924 5.10929427628e-06 0)
(1.4030171731 4.94537594282e-06 0)
(1.40301719947 4.41486487536e-06 0)
(1.40301729586 3.31437410983e-06 0)
(1.4030175289 1.47837912778e-06 0)
(1.40301798544 -1.33084640519e-06 0)
(1.40301878818 -6.03027549516e-06 0)
(1.40301996276 -1.3377781249e-05 0)
(1.40302113531 -2.46874120509e-05 0)
(1.40302176972 -4.17990554537e-05 0)
(1.40302108265 -6.76817373722e-05 0)
(1.40301754122 -0.000106923558465 0)
(1.4030083335 -0.000166578639726 0)
(1.4029885894 -0.000257591831374 0)
(1.40294999231 -0.000396863415237 0)
(1.40287834333 -0.000610628356653 0)
(1.40274954789 -0.00093985078188 0)
(1.40252330225 -0.00144857415249 0)
(1.40213252546 -0.00223578211548 0)
(1.40146417916 -0.0034522609354 0)
(1.40032788682 -0.00532457064121 0)
(1.39840702846 -0.00818008431647 0)
(1.39518272815 -0.012461022693 0)
(1.38983211104 -0.0186900105523 0)
(1.38119053239 -0.027322093905 0)
(1.367734155 -0.0384624507381 0)
(1.34702497648 -0.0512457747911 0)
(0.994011532055 0.0192358076144 0)
(1.03484763826 0.0523338407634 0)
(1.09199263141 0.0723631275162 0)
(1.15662420685 0.0791292321477 0)
(1.22032117342 0.0761045467798 0)
(1.27701946607 0.0673339723082 0)
(1.32424420599 0.056150904804 0)
(1.36181575662 0.0447990127198 0)
(1.39068533203 0.0345303796472 0)
(1.41226077714 0.0258814346803 0)
(1.42801825105 0.0189465261435 0)
(1.43929887178 0.0135849838611 0)
(1.447228106 0.0095565353058 0)
(1.45270416206 0.00660011527683 0)
(1.45641898658 0.00447418849517 0)
(1.45889147058 0.00297350959225 0)
(1.46050233171 0.00193276207371 0)
(1.46152572214 0.00122368368507 0)
(1.4621557278 0.000749536004575 0)
(1.46252753789 0.000438997651367 0)
(1.46273379505 0.0002404942662 0)
(1.46283691222 0.000117377100831 0)
(1.46287818372 4.40059769911e-05 0)
(1.46288438114 2.63962859765e-06 0)
(1.46287220714 -1.85087885402e-05 0)
(1.46285180233 -2.75150509895e-05 0)
(1.4628291893 -2.95263913118e-05 0)
(1.46280758167 -2.77870274038e-05 0)
(1.4627885084 -2.42943728228e-05 0)
(1.46277251507 -2.0229060978e-05 0)
(1.46275959432 -1.62393507421e-05 0)
(1.46274945348 -1.26476524682e-05 0)
(1.46274168359 -9.58042658979e-06 0)
(1.46273585391 -7.04905996792e-06 0)
(1.46273156672 -5.0000910078e-06 0)
(1.46272848067 -3.36369810786e-06 0)
(1.46272630991 -2.07540829895e-06 0)
(1.46272480144 -1.09326498213e-06 0)
(1.46272373432 -3.75869714702e-07 0)
(1.46272304741 1.6550251674e-07 0)
(1.4627226388 6.5715363748e-07 0)
(1.4627223503 1.14860899653e-06 0)
(1.46272214705 1.59692300047e-06 0)
(1.46272199188 2.00217745076e-06 0)
(1.46272185375 2.3845970444e-06 0)
(1.46272171249 2.75796529136e-06 0)
(1.46272155382 3.12818453115e-06 0)
(1.4627213685 3.49399250242e-06 0)
(1.46272115109 3.84760620079e-06 0)
(1.46272089827 4.18151312029e-06 0)
(1.46272061239 4.48891571443e-06 0)
(1.46272029945 4.73907371348e-06 0)
(1.46271996449 4.88357909251e-06 0)
(1.46271961406 4.85520743628e-06 0)
(1.46271925758 4.5642428294e-06 0)
(1.46271891128 3.89819211497e-06 0)
(1.46271859817 2.73372352978e-06 0)
(1.46271821833 9.83389953734e-07 0)
(1.46271754369 -1.65575120073e-06 0)
(1.46271643483 -5.91489692935e-06 0)
(1.46271464198 -1.25925748821e-05 0)
(1.4627114836 -2.28083764567e-05 0)
(1.46270581708 -3.80917483862e-05 0)
(1.46269579676 -6.08059401829e-05 0)
(1.46267830315 -9.45297253244e-05 0)
(1.46264809225 -0.000144658883952 0)
(1.4625966068 -0.000219442949107 0)
(1.46250993135 -0.000331244106913 0)
(1.46236521558 -0.000498754472415 0)
(1.46212501643 -0.000750661579141 0)
(1.46172911133 -0.00113156216587 0)
(1.46108185605 -0.00170852529916 0)
(1.46002984293 -0.00257871885408 0)
(1.45832924723 -0.00388360137776 0)
(1.45560150069 -0.00581836957159 0)
(1.45127351944 -0.00863068006162 0)
(1.44451252359 -0.0125877030771 0)
(1.43422994185 -0.0178800318714 0)
(1.41913595671 -0.0244692361596 0)
(1.39733841753 -0.0318242538153 0)
(0.993269668021 0.00617015155436 0)
(1.03158100226 0.0171020461927 0)
(1.08672182248 0.02399064845 0)
(1.15174555144 0.0265606657215 0)
(1.21823537272 0.0258180590791 0)
(1.27925775454 0.0230488867984 0)
(1.3314013763 0.0193656325507 0)
(1.37377600761 0.0155468594138 0)
(1.40691055782 0.0120449319193 0)
(1.43203316131 0.00906640154695 0)
(1.45060217844 0.00666059652566 0)
(1.4640298889 0.00479009309119 0)
(1.47355019242 0.00337842972909 0)
(1.48017566604 0.00233873934508 0)
(1.48470231961 0.00158891498773 0)
(1.48773623471 0.00105828972627 0)
(1.48972736887 0.000689463216752 0)
(1.49100279214 0.000437638283255 0)
(1.49179586116 0.000268884717114 0)
(1.49227021545 0.000158108697424 0)
(1.4925386849 8.71202543047e-05 0)
(1.49267773196 4.29677276719e-05 0)
(1.49273822844 1.65736324391e-05 0)
(1.49275335606 1.64638493349e-06 0)
(1.49274406379 -6.08808101232e-06 0)
(1.49272321208 -9.43682110077e-06 0)
(1.49269849508 -1.0247441706e-05 0)
(1.49267414129 -9.68856210388e-06 0)
(1.4926522492 -8.47855888062e-06 0)
(1.49263366152 -7.03518281162e-06 0)
(1.49261850256 -5.59827320382e-06 0)
(1.49260651203 -4.28773709669e-06 0)
(1.49259726231 -3.15094628417e-06 0)
(1.49259027969 -2.19416951839e-06 0)
(1.4925851118 -1.4012008365e-06 0)
(1.49258135985 -7.4993252927e-07 0)
(1.49257868916 -2.18552615427e-07 0)
(1.49257683029 2.13572221929e-07 0)
(1.49257558294 5.89061781469e-07 0)
(1.49257476873 9.72118541351e-07 0)
(1.49257422979 1.29276904763e-06 0)
(1.49257387555 1.59149721799e-06 0)
(1.4925736486 1.88894604447e-06 0)
(1.49257349653 2.19511256582e-06 0)
(1.49257337865 2.5174964883e-06 0)
(1.49257326724 2.85933526362e-06 0)
(1.49257314291 3.22063653579e-06 0)
(1.49257299169 3.59839790703e-06 0)
(1.49257280268 3.98543637393e-06 0)
(1.49257256645 4.36945627191e-06 0)
(1.49257227638 4.7319481574e-06 0)
(1.49257192744 5.04249436548e-06 0)
(1.49257151227 5.25861004502e-06 0)
(1.49257101906 5.32183894684e-06 0)
(1.4925704279 5.15158314903e-06 0)
(1.49256971002 4.63599307813e-06 0)
(1.49256884997 3.61904975434e-06 0)
(1.49256774298 1.91334351752e-06 0)
(1.49256590837 -6.04057467974e-07 0)
(1.49256302068 -4.26516510077e-06 0)
(1.49255873495 -9.9138763117e-06 0)
(1.49255200778 -1.8294879472e-05 0)
(1.49254120027 -3.0425610142e-05 0)
(1.49252373696 -4.78292234989e-05 0)
(1.49249544719 -7.26352839379e-05 0)
(1.49244948892 -0.000107824602173 0)
(1.49237501371 -0.000157879695729 0)
(1.49225482065 -0.000228932478178 0)
(1.49206099115 -0.000329519506405 0)
(1.49174792112 -0.000472639828472 0)
(1.49124373448 -0.000680162893735 0)
(1.49043856603 -0.00098208192115 0)
(1.48915958647 -0.00141224789058 0)
(1.4871379088 -0.00201923826389 0)
(1.48396989224 -0.00286519484065 0)
(1.47906701779 -0.00401883801183 0)
(1.47160870861 -0.0055364579703 0)
(1.46056042761 -0.00742256515645 0)
(1.44474325677 -0.00958710370602 0)
(1.42250074682 -0.0117857904229 0)
(0.993270465814 -0.00616840087141 0)
(1.03158098483 -0.0171003761201 0)
(1.08672175614 -0.0239897623547 0)
(1.15174558906 -0.0265602476794 0)
(1.21823545056 -0.0258179937022 0)
(1.27925785656 -0.0230491103861 0)
(1.3314015024 -0.0193660470573 0)