/*--------------------------------*- C++ -*----------------------------------*\
| =========                 |                                                 |
| \\      /  F ield         | OpenFOAM: The Open Source CFD Toolbox           |
|  \\    /   O peration     | Version:  2106                                  |
|   \\  /    A nd           | Website:  www.openfoam.com                      |
|    \\/     M anipulation  |                                                 |
\*---------------------------------------------------------------------------*/
FoamFile
{
    version     2.0;
    format      ascii;
    arch        "LSB;label=32;scalar=64";
    class       volScalarField;
    location    "0.14";
    object      p;
}
// * * * * * * * * * * * * * * * * * * * * * * * * * * * * * * * * * * * * * //

dimensions      [1 -1 -2 0 0 0 0];

internalField   nonuniform List<scalar> 
800
(
1
1
1
1
1
1
1
1
1
1
1
1
1
1
1
1
1
1
1
1
1
1
1
1
1
1
1
1
1
1
1
1
1
1
1
1
1
1
1
1
1
1
1
1
1
1
1
1
1
1
1
1
1
1
1
1
1
1
1
1
1
1
1
1
1
1
1
1
1
1
1
1
1
1
1
1
1
1
1
1
1
1
1
1
1
1
1
1
1
1
1
1
1
1
1
1
1
1
1
1
1
1
1
1
1
1
1
1
1
1
1
1
1
1
1
1
1
1
1
1
1
1
1
1
1
1
1
1
1
1
1
1
1
1
1
1
1
1
1
1
1
1
1
1
1
1
1
1
1
1
1
1
1
1
1
1
1
1
1
1
1
1
1
1
1
1
1
1
1
1
1
1
1
1
1
1
1
1
1
1
1
1
1
1
1
1
1
1
1
1
1
1
1
1
1
1
1
1
1
1
1
1
1
1
1
1
1
1
1
1
1
1
1
1
1
1
1
1
1
1
1
1
1
1
1
1
1
1
1
1
1
1
1
1
1
1
0.999924
0.998257
0.990321
0.976861
0.963618
0.952687
0.943637
0.935734
0.928474
0.921565
0.914855
0.908265
0.901759
0.895319
0.888935
0.882602
0.876318
0.870081
0.863888
0.857738
0.85163
0.845563
0.839536
0.833549
0.8276
0.82169
0.815818
0.809983
0.804185
0.798424
0.792699
0.787009
0.781356
0.775738
0.770155
0.764607
0.759094
0.753615
0.74817
0.742759
0.737382
0.732038
0.726728
0.721451
0.716207
0.710995
0.705817
0.70067
0.695556
0.690473
0.685423
0.680404
0.675416
0.67046
0.665535
0.660641
0.655777
0.650944
0.646142
0.641369
0.636627
0.631915
0.627232
0.622579
0.617955
0.613361
0.608795
0.604259
0.599751
0.595272
0.590821
0.586399
0.582004
0.577638
0.573299
0.568988
0.564705
0.560449
0.55622
0.552018
0.547843
0.543695
0.539573
0.535478
0.531409
0.527366
0.523349
0.519358
0.515393
0.511453
0.507539
0.50365
0.499786
0.495947
0.492133
0.488344
0.48458
0.48084
0.477124
0.473433
0.469765
0.466122
0.462502
0.458907
0.455335
0.451786
0.44826
0.444758
0.441279
0.437823
0.43439
0.43098
0.427592
0.424227
0.420884
0.417564
0.414265
0.410989
0.407735
0.404503
0.401292
0.398104
0.394936
0.391791
0.388666
0.385563
0.382481
0.379421
0.376381
0.373362
0.370364
0.367387
0.36443
0.361494
0.358578
0.355682
0.352807
0.349952
0.347117
0.344301
0.341506
0.33873
0.335974
0.333237
0.33052
0.327821
0.325141
0.322479
0.319836
0.31721
0.314604
0.312023
0.309489
0.307051
0.304821
0.302991
0.301773
0.301222
0.301105
0.301196
0.301378
0.30141
0.301292
0.301152
0.301118
0.301116
0.301149
0.30119
0.301227
0.301268
0.301309
0.301342
0.301374
0.301418
0.301475
0.301527
0.301563
0.301584
0.301595
0.301601
0.301606
0.301621
0.301654
0.301694
0.301725
0.301746
0.301759
0.301768
0.301776
0.301787
0.301805
0.30182
0.301824
0.301824
0.301813
0.301782
0.301745
0.301713
0.301692
0.30168
0.301671
0.301663
0.301655
0.301648
0.301639
0.301628
0.301621
0.301619
0.301623
0.301631
0.301637
0.301644
0.301651
0.301654
0.301655
0.301659
0.301672
0.301688
0.301698
0.301705
0.301712
0.301716
0.301717
0.30172
0.301734
0.301753
0.301763
0.301764
0.301763
0.301758
0.301741
0.301721
0.301709
0.301704
0.3017
0.301693
0.301686
0.301681
0.301673
0.301661
0.301655
0.301657
0.301661
0.30166
0.301656
0.301654
0.301653
0.301649
0.301645
0.301654
0.30167
0.301676
0.301677
0.301683
0.301689
0.301687
0.301682
0.301688
0.301708
0.301716
0.301717
0.301721
0.301731
0.301732
0.301725
0.301718
0.301729
0.301735
0.301725
0.30171
0.301703
0.301696
0.301677
0.30166
0.301667
0.301682
0.301678
0.301666
0.301668
0.30167
0.30166
0.30164
0.301646
0.301671
0.301668
0.301658
0.30166
0.301669
0.301669
0.301658
0.301681
0.301756
0.301862
0.302037
0.302356
0.302403
0.301062
0.302116
0.302898
0.302195
0.301491
0.301243
0.301124
0.301049
0.301058
0.301278
0.301991
0.302643
0.302609
0.30246
0.302114
0.30149
0.301008
0.30093
0.300953
0.301103
0.301592
0.302216
0.302432
0.302476
0.302378
0.301927
0.301209
0.300932
0.300916
0.300969
0.301239
0.301819
0.302353
0.302439
0.302377
0.302183
0.301696
0.301137
0.300953
0.300979
0.301086
0.301426
0.302022
0.302345
0.302373
0.302328
0.30207
0.301495
0.301094
0.301033
0.301034
0.301199
0.30166
0.302202
0.302329
0.302323
0.302236
0.301922
0.30139
0.3011
0.301098
0.301162
0.301369
0.301836
0.302213
0.302262
0.302237
0.302113
0.301735
0.30127
0.301126
0.301113
0.301184
0.301468
0.301961
0.302185
0.302203
0.302176
0.301999
0.301583
0.301208
0.30115
0.301172
0.301282
0.301601
0.302009
0.302149
0.302141
0.302084
0.301879
0.301477
0.301231
0.301211
0.301236
0.301377
0.301733
0.302045
0.302109
0.302117
0.302037
0.301768
0.301385
0.301262
0.301265
0.301308
0.301486
0.301839
0.302064
0.30209
0.302071
0.302027
0.301852
0.30024
0.281906
0.190976
0.107631
0.100032
0.1
0.1
0.1
0.1
0.1
0.1
0.1
0.1
0.1
0.1
0.1
0.1
0.1
0.1
0.1
0.1
0.1
0.1
0.1
0.1
0.1
0.1
0.1
0.1
0.1
0.1
0.1
0.1
0.1
0.1
0.1
0.1
0.1
0.1
0.1
0.1
0.1
0.1
0.1
0.1
0.1
0.1
0.1
0.1
0.1
0.1
0.1
0.1
0.1
0.1
0.1
0.1
0.1
0.1
0.1
0.1
0.1
0.1
0.1
0.1
0.1
0.1
0.1
0.1
0.1
0.1
0.1
0.1
0.1
0.1
0.1
0.1
0.1
0.1
0.1
0.1
0.1
0.1
0.1
0.1
0.1
0.1
0.1
0.1
0.1
0.1
0.1
0.1
0.1
0.1
0.1
0.1
0.1
0.1
0.1
0.1
0.1
0.1
0.1
0.1
0.1
0.1
0.1
0.1
0.1
0.1
0.1
0.1
0.1
0.1
0.1
0.1
0.1
0.1
0.1
0.1
0.1
0.1
0.1
0.1
0.1
0.1
0.1
0.1
0.1
0.1
0.1
0.1
0.1
0.1
0.1
0.1
0.1
0.1
0.1
0.1
0.1
0.1
0.1
0.1
0.1
0.1
0.1
0.1
0.1
0.1
0.1
0.1
0.1
0.1
0.1
)
;

boundaryField
{
    left
    {
        type            zeroGradient;
    }
    right
    {
        type            zeroGradient;
    }
    empty
    {
        type            empty;
    }
}


// ************************************************************************* //
