/*--------------------------------*- C++ -*----------------------------------*\
| =========                 |                                                 |
| \\      /  F ield         | OpenFOAM: The Open Source CFD Toolbox           |
|  \\    /   O peration     | Version:  2106                                  |
|   \\  /    A nd           | Website:  www.openfoam.com                      |
|    \\/     M anipulation  |                                                 |
\*---------------------------------------------------------------------------*/
FoamFile
{
    version     2.0;
    format      ascii;
    arch        "LSB;label=32;scalar=64";
    class       volScalarField;
    location    "0.14";
    object      rho;
}
// * * * * * * * * * * * * * * * * * * * * * * * * * * * * * * * * * * * * * //

dimensions      [1 -3 0 0 0 0 0];

internalField   nonuniform List<scalar> 
800
(
1.00435
1.00435
1.00435
1.00435
1.00435
1.00435
1.00435
1.00435
1.00435
1.00435
1.00435
1.00435
1.00435
1.00435
1.00435
1.00435
1.00435
1.00435
1.00435
1.00435
1.00435
1.00435
1.00435
1.00435
1.00435
1.00435
1.00435
1.00435
1.00435
1.00435
1.00435
1.00435
1.00435
1.00435
1.00435
1.00435
1.00435
1.00435
1.00435
1.00435
1.00435
1.00435
1.00435
1.00435
1.00435
1.00435
1.00435
1.00435
1.00435
1.00435
1.00435
1.00435
1.00435
1.00435
1.00435
1.00435
1.00435
1.00435
1.00435
1.00435
1.00435
1.00435
1.00435
1.00435
1.00435
1.00435
1.00435
1.00435
1.00435
1.00435
1.00435
1.00435
1.00435
1.00435
1.00435
1.00435
1.00435
1.00435
1.00435
1.00435
1.00435
1.00435
1.00435
1.00435
1.00435
1.00435
1.00435
1.00435
1.00435
1.00435
1.00435
1.00435
1.00435
1.00435
1.00435
1.00435
1.00435
1.00435
1.00435
1.00435
1.00435
1.00435
1.00435
1.00435
1.00435
1.00435
1.00435
1.00435
1.00435
1.00435
1.00435
1.00435
1.00435
1.00435
1.00435
1.00435
1.00435
1.00435
1.00435
1.00435
1.00435
1.00435
1.00435
1.00435
1.00435
1.00435
1.00435
1.00435
1.00435
1.00435
1.00435
1.00435
1.00435
1.00435
1.00435
1.00435
1.00435
1.00435
1.00435
1.00435
1.00435
1.00435
1.00435
1.00435
1.00435
1.00435
1.00435
1.00435
1.00435
1.00435
1.00435
1.00435
1.00435
1.00435
1.00435
1.00435
1.00435
1.00435
1.00435
1.00435
1.00435
1.00435
1.00435
1.00435
1.00435
1.00435
1.00435
1.00435
1.00435
1.00435
1.00435
1.00435
1.00435
1.00435
1.00435
1.00435
1.00435
1.00435
1.00435
1.00435
1.00435
1.00435
1.00435
1.00435
1.00435
1.00435
1.00435
1.00435
1.00435
1.00435
1.00435
1.00435
1.00435
1.00435
1.00435
1.00435
1.00435
1.00435
1.00435
1.00435
1.00435
1.00435
1.00435
1.00435
1.00435
1.00435
1.00435
1.00435
1.00435
1.00435
1.00435
1.00435
1.00435
1.00435
1.00435
1.00435
1.00435
1.00435
1.00435
1.00435
1.00435
1.00435
1.00435
1.00435
1.00435
1.00435
1.00435
1.00435
1.00435
1.00435
1.00435
1.00435
1.00435
1.00435
1.00435
1.00435
1.0043
1.0031
0.997395
0.987695
0.978118
0.970183
0.963593
0.957825
0.952512
0.947446
0.942515
0.937663
0.932862
0.9281
0.92337
0.918668
0.913993
0.909343
0.904716
0.900113
0.895531
0.890971
0.886432
0.881913
0.877415
0.872936
0.868477
0.864037
0.859616
0.855214
0.850831
0.846466
0.84212
0.837792
0.833482
0.82919
0.824916
0.82066
0.816422
0.812202
0.807999
0.803813
0.799646
0.795495
0.791362
0.787246
0.783147
0.779065
0.775
0.770952
0.766921
0.762907
0.75891
0.754929
0.750965
0.747017
0.743086
0.739171
0.735273
0.731391
0.727525
0.723676
0.719843
0.716025
0.712224
0.708439
0.704669
0.700916
0.697178
0.693456
0.68975
0.686059
0.682384
0.678724
0.67508
0.671451
0.667838
0.66424
0.660657
0.657089
0.653537
0.649999
0.646477
0.642969
0.639476
0.635999
0.632536
0.629088
0.625654
0.622235
0.618831
0.615441
0.612066
0.608705
0.605359
0.602027
0.59871
0.595406
0.592117
0.588842
0.585582
0.582335
0.579102
0.575884
0.572679
0.569488
0.566312
0.563149
0.56
0.556864
0.553743
0.550635
0.54754
0.54446
0.541393
0.538339
0.5353
0.532273
0.52926
0.526261
0.523275
0.520302
0.517343
0.514397
0.511465
0.508545
0.505639
0.502747
0.499867
0.497001
0.494148
0.491308
0.488481
0.485668
0.482867
0.480079
0.477305
0.474543
0.471795
0.469059
0.466337
0.463627
0.46093
0.458246
0.455574
0.452915
0.450268
0.447633
0.445009
0.442397
0.439799
0.43722
0.434681
0.432233
0.42999
0.428144
0.426915
0.426357
0.426241
0.426332
0.426517
0.42655
0.426431
0.426289
0.426253
0.426255
0.426289
0.426331
0.426369
0.42641
0.42645
0.426484
0.426517
0.426563
0.42662
0.426674
0.426712
0.426734
0.426745
0.42675
0.426756
0.426771
0.426805
0.426847
0.42688
0.426902
0.426916
0.426924
0.426932
0.426943
0.426962
0.426977
0.426985
0.426986
0.426976
0.426945
0.426907
0.426875
0.426854
0.426843
0.426836
0.426829
0.426823
0.426816
0.426808
0.426796
0.426788
0.426787
0.426792
0.426801
0.42681
0.426819
0.426827
0.42683
0.426832
0.426837
0.426851
0.426868
0.426879
0.426889
0.426897
0.426903
0.426905
0.426909
0.426924
0.426943
0.426954
0.426957
0.426957
0.426953
0.426938
0.426919
0.426909
0.426907
0.426905
0.4269
0.426895
0.42689
0.426884
0.426874
0.42687
0.426874
0.426881
0.426883
0.42688
0.426879
0.426879
0.426875
0.426874
0.426884
0.426902
0.426912
0.426917
0.426927
0.426938
0.426941
0.426941
0.42695
0.426973
0.426987
0.426991
0.426999
0.427014
0.427019
0.427015
0.427014
0.427027
0.427038
0.427031
0.42702
0.427018
0.427015
0.427002
0.426992
0.427002
0.427024
0.427026
0.427025
0.427045
0.427074
0.427083
0.427068
0.427067
0.427064
0.426979
0.426759
0.426287
0.425297
0.423312
0.419548
0.412837
0.401532
0.383826
0.358835
0.328289
0.297385
0.273042
0.262177
0.259925
0.259218
0.258794
0.2588
0.258966
0.2593
0.259809
0.260483
0.261385
0.262108
0.262272
0.262293
0.262139
0.261762
0.261454
0.26139
0.261365
0.261378
0.261578
0.261859
0.261893
0.261837
0.261709
0.261365
0.2609
0.260744
0.260765
0.260856
0.261105
0.26156
0.261968
0.262081
0.262102
0.262015
0.261705
0.261325
0.26117
0.261127
0.26111
0.261242
0.261558
0.261719
0.261717
0.26168
0.261528
0.261214
0.261023
0.261037
0.26109
0.261242
0.261578
0.261933
0.262018
0.262011
0.261936
0.261695
0.261313
0.261085
0.261039
0.26103
0.261128
0.261412
0.261652
0.261692
0.261701
0.261668
0.26148
0.261232
0.261178
0.261195
0.26126
0.261454
0.261752
0.261868
0.261854
0.261802
0.261649
0.261348
0.261088
0.261035
0.261034
0.261098
0.261308
0.261581
0.261691
0.261712
0.261714
0.26162
0.261393
0.261261
0.261259
0.26128
0.261365
0.261562
0.26172
0.261727
0.261703
0.261627
0.261436
0.261193
0.261117
0.261121
0.261158
0.261286
0.261525
0.261687
0.261721
0.261733
0.261728
0.261643
0.26066
0.249249
0.188841
0.129283
0.123464
0.123438
0.123438
0.123438
0.123438
0.123438
0.123438
0.123438
0.123438
0.123438
0.123438
0.123438
0.123438
0.123438
0.123438
0.123438
0.123438
0.123438
0.123438
0.123438
0.123438
0.123438
0.123438
0.123438
0.123438
0.123438
0.123438
0.123438
0.123438
0.123438
0.123438
0.123438
0.123438
0.123438
0.123438
0.123438
0.123438
0.123438
0.123438
0.123438
0.123438
0.123438
0.123438
0.123438
0.123438
0.123438
0.123438
0.123438
0.123438
0.123438
0.123438
0.123438
0.123438
0.123438
0.123438
0.123438
0.123438
0.123438
0.123438
0.123438
0.123438
0.123438
0.123438
0.123438
0.123438
0.123438
0.123438
0.123438
0.123438
0.123438
0.123438
0.123438
0.123438
0.123438
0.123438
0.123438
0.123438
0.123438
0.123438
0.123438
0.123438
0.123438
0.123438
0.123438
0.123438
0.123438
0.123438
0.123438
0.123438
0.123438
0.123438
0.123438
0.123438
0.123438
0.123438
0.123438
0.123438
0.123438
0.123438
0.123438
0.123438
0.123438
0.123438
0.123438
0.123438
0.123438
0.123438
0.123438
0.123438
0.123438
0.123438
0.123438
0.123438
0.123438
0.123438
0.123438
0.123438
0.123438
0.123438
0.123438
0.123438
0.123438
0.123438
0.123438
0.123438
0.123438
0.123438
0.123438
0.123438
0.123438
0.123438
0.123438
0.123438
0.123438
0.123438
0.123438
0.123438
0.123438
0.123438
0.123438
0.123438
0.123438
0.123438
0.123438
0.123438
0.123438
0.123438
0.123438
0.123438
0.123438
0.123438
0.123438
)
;

boundaryField
{
    left
    {
        type            calculated;
        value           uniform 0.123438;
    }
    right
    {
        type            calculated;
        value           uniform 1.00435;
    }
    empty
    {
        type            empty;
    }
}


// ************************************************************************* //
