/*--------------------------------*- C++ -*----------------------------------*\
| =========                 |                                                 |
| \\      /  F ield         | OpenFOAM: The Open Source CFD Toolbox           |
|  \\    /   O peration     | Version:  2106                                  |
|   \\  /    A nd           | Website:  www.openfoam.com                      |
|    \\/     M anipulation  |                                                 |
\*---------------------------------------------------------------------------*/
FoamFile
{
    version     2.0;
    format      ascii;
    arch        "LSB;label=32;scalar=64";
    class       volScalarField;
    location    "0.14";
    object      T;
}
// * * * * * * * * * * * * * * * * * * * * * * * * * * * * * * * * * * * * * //

dimensions      [0 0 0 1 0 0 0];

internalField   nonuniform List<scalar> 
800
(
0.003468
0.003468
0.003468
0.003468
0.003468
0.003468
0.003468
0.003468
0.003468
0.003468
0.003468
0.003468
0.003468
0.003468
0.003468
0.003468
0.003468
0.003468
0.003468
0.003468
0.003468
0.003468
0.003468
0.003468
0.003468
0.003468
0.003468
0.003468
0.003468
0.003468
0.003468
0.003468
0.003468
0.003468
0.003468
0.003468
0.003468
0.003468
0.003468
0.003468
0.003468
0.003468
0.003468
0.003468
0.003468
0.003468
0.003468
0.003468
0.003468
0.003468
0.003468
0.003468
0.003468
0.003468
0.003468
0.003468
0.003468
0.003468
0.003468
0.003468
0.003468
0.003468
0.003468
0.003468
0.003468
0.003468
0.003468
0.003468
0.003468
0.003468
0.003468
0.003468
0.003468
0.003468
0.003468
0.003468
0.003468
0.003468
0.003468
0.003468
0.003468
0.003468
0.003468
0.003468
0.003468
0.003468
0.003468
0.003468
0.003468
0.003468
0.003468
0.003468
0.003468
0.003468
0.003468
0.003468
0.003468
0.003468
0.003468
0.003468
0.003468
0.003468
0.003468
0.003468
0.003468
0.003468
0.003468
0.003468
0.003468
0.003468
0.003468
0.003468
0.003468
0.003468
0.003468
0.003468
0.003468
0.003468
0.003468
0.003468
0.003468
0.003468
0.003468
0.003468
0.003468
0.003468
0.003468
0.003468
0.003468
0.003468
0.003468
0.003468
0.003468
0.003468
0.003468
0.003468
0.003468
0.003468
0.003468
0.003468
0.003468
0.003468
0.003468
0.003468
0.003468
0.003468
0.003468
0.003468
0.003468
0.003468
0.003468
0.003468
0.003468
0.003468
0.003468
0.003468
0.003468
0.003468
0.003468
0.003468
0.003468
0.003468
0.003468
0.003468
0.003468
0.003468
0.003468
0.003468
0.003468
0.003468
0.003468
0.003468
0.003468
0.003468
0.003468
0.003468
0.003468
0.003468
0.003468
0.003468
0.003468
0.003468
0.003468
0.003468
0.003468
0.003468
0.003468
0.003468
0.003468
0.003468
0.003468
0.003468
0.003468
0.003468
0.003468
0.003468
0.003468
0.003468
0.003468
0.003468
0.003468
0.003468
0.003468
0.003468
0.003468
0.003468
0.003468
0.003468
0.003468
0.003468
0.003468
0.003468
0.003468
0.003468
0.003468
0.003468
0.003468
0.003468
0.003468
0.003468
0.003468
0.003468
0.003468
0.003468
0.003468
0.003468
0.003468
0.003468
0.003468
0.003468
0.003468
0.003468
0.003468
0.003468
0.003468
0.003468
0.00346793
0.00346627
0.00345838
0.00344488
0.00343145
0.00342027
0.00341095
0.00340275
0.00339518
0.00338794
0.00338086
0.00337388
0.00336695
0.00336006
0.00335319
0.00334634
0.00333951
0.0033327
0.0033259
0.00331911
0.00331233
0.00330557
0.00329881
0.00329207
0.00328534
0.00327861
0.00327189
0.00326518
0.00325848
0.00325179
0.00324511
0.00323843
0.00323176
0.0032251
0.00321844
0.0032118
0.00320516
0.00319853
0.0031919
0.00318528
0.00317867
0.00317207
0.00316547
0.00315888
0.0031523
0.00314572
0.00313915
0.00313259
0.00312604
0.00311949
0.00311295
0.00310641
0.00309988
0.00309336
0.00308685
0.00308034
0.00307384
0.00306734
0.00306086
0.00305438
0.0030479
0.00304143
0.00303497
0.00302852
0.00302207
0.00301563
0.00300919
0.00300276
0.00299634
0.00298993
0.00298352
0.00297711
0.00297072
0.00296433
0.00295794
0.00295157
0.0029452
0.00293883
0.00293248
0.00292612
0.00291978
0.00291344
0.00290711
0.00290078
0.00289446
0.00288815
0.00288184
0.00287554
0.00286925
0.00286296
0.00285668
0.0028504
0.00284413
0.00283787
0.00283161
0.00282536
0.00281912
0.00281288
0.00280665
0.00280042
0.0027942
0.00278799
0.00278178
0.00277558
0.00276938
0.0027632
0.00275701
0.00275084
0.00274467
0.00273851
0.00273235
0.0027262
0.00272005
0.00271392
0.00270778
0.00270166
0.00269554
0.00268943
0.00268332
0.00267722
0.00267113
0.00266504
0.00265896
0.00265289
0.00264683
0.00264077
0.00263471
0.00262867
0.00262263
0.0026166
0.00261057
0.00260456
0.00259854
0.00259254
0.00258654
0.00258056
0.00257457
0.0025686
0.00256263
0.00255667
0.00255072
0.00254477
0.00253884
0.00253291
0.00252698
0.00252107
0.00251516
0.00250925
0.00250335
0.00249746
0.00249157
0.00248571
0.00247992
0.00247432
0.00246917
0.00246493
0.00246208
0.0024608
0.00246052
0.00246073
0.00246115
0.00246122
0.00246095
0.00246063
0.00246055
0.00246053
0.0024606
0.0024607
0.00246078
0.00246088
0.00246097
0.00246105
0.00246112
0.00246122
0.00246135
0.00246146
0.00246154
0.00246158
0.00246161
0.00246163
0.00246164
0.00246168
0.00246175
0.00246183
0.00246189
0.00246193
0.00246197
0.00246199
0.00246201
0.00246204
0.00246207
0.0024621
0.0024621
0.00246209
0.00246206
0.00246199
0.0024619
0.00246183
0.00246178
0.00246174
0.00246171
0.00246168
0.00246165
0.00246163
0.00246161
0.00246159
0.00246158
0.00246157
0.00246157
0.00246158
0.00246158
0.00246159
0.0024616
0.0024616
0.0024616
0.0024616
0.00246163
0.00246166
0.00246168
0.00246168
0.00246169
0.00246169
0.00246169
0.00246169
0.00246172
0.00246176
0.00246178
0.00246177
0.00246176
0.00246174
0.00246169
0.00246163
0.0024616
0.00246157
0.00246155
0.00246152
0.00246149
0.00246147
0.00246145
0.00246141
0.00246138
0.00246137
0.00246137
0.00246135
0.00246133
0.00246132
0.00246131
0.0024613
0.00246128
0.00246129
0.00246132
0.00246131
0.00246129
0.00246128
0.00246126
0.00246123
0.00246119
0.00246119
0.00246122
0.00246121
0.00246119
0.00246117
0.00246117
0.00246115
0.00246112
0.00246106
0.00246108
0.00246106
0.00246102
0.00246097
0.00246092
0.00246088
0.0024608
0.00246072
0.00246072
0.00246071
0.00246067
0.00246057
0.00246047
0.00246033
0.00246019
0.00246012
0.00246017
0.00246039
0.00246086
0.00246204
0.00246479
0.00247059
0.00248218
0.00250436
0.00254527
0.00261758
0.00273929
0.00293177
0.00320793
0.00354186
0.00384052
0.00401368
0.00405894
0.00406056
0.00405774
0.00405431
0.00405011
0.00404388
0.00403608
0.00402858
0.00402418
0.00402175
0.00401877
0.00401647
0.00401423
0.00401171
0.00401002
0.00400997
0.00401066
0.00401246
0.0040159
0.00401989
0.00402223
0.00402367
0.00402435
0.00402364
0.00402122
0.00401992
0.00401939
0.00401869
0.00401846
0.0040192
0.00402003
0.00401945
0.0040183
0.00401706
0.00401533
0.00401372
0.00401364
0.00401466
0.00401634
0.00401885
0.00402194
0.00402375
0.00402416
0.00402413
0.00402304
0.0040202
0.00401778
0.00401676
0.00401597
0.00401581
0.00401681
0.00401857
0.00401895
0.00401897
0.00401898
0.00401849
0.00401727
0.00401693
0.0040176
0.00401858
0.00401984
0.0040217
0.00402303
0.00402306
0.0040226
0.00402146
0.00401931
0.00401692
0.00401583
0.0040154
0.00401534
0.00401614
0.00401813
0.00401933
0.00401979
0.00402023
0.00402023
0.00401931
0.00401831
0.00401835
0.00401867
0.00401915
0.00402017
0.0040214
0.00402158
0.00402115
0.00402037
0.00401908
0.0040172
0.00401597
0.00401573
0.00401573
0.00401631
0.00401802
0.00401975
0.0040205
0.00402097
0.00402107
0.00402043
0.00401905
0.00401858
0.00401855
0.00401857
0.00401898
0.00402
0.00402051
0.00402033
0.0040199
0.00401937
0.00401836
0.00401197
0.00393945
0.00352245
0.00289974
0.00282204
0.00282173
0.00282173
0.00282173
0.00282173
0.00282173
0.00282173
0.00282173
0.00282173
0.00282173
0.00282173
0.00282173
0.00282173
0.00282173
0.00282173
0.00282173
0.00282173
0.00282173
0.00282173
0.00282173
0.00282173
0.00282173
0.00282173
0.00282173
0.00282173
0.00282173
0.00282173
0.00282173
0.00282173
0.00282173
0.00282173
0.00282173
0.00282173
0.00282173
0.00282173
0.00282173
0.00282173
0.00282173
0.00282173
0.00282173
0.00282173
0.00282173
0.00282173
0.00282173
0.00282173
0.00282173
0.00282173
0.00282173
0.00282173
0.00282173
0.00282173
0.00282173
0.00282173
0.00282173
0.00282173
0.00282173
0.00282173
0.00282173
0.00282173
0.00282173
0.00282173
0.00282173
0.00282173
0.00282173
0.00282173
0.00282173
0.00282173
0.00282173
0.00282173
0.00282173
0.00282173
0.00282173
0.00282173
0.00282173
0.00282173
0.00282173
0.00282173
0.00282173
0.00282173
0.00282173
0.00282173
0.00282173
0.00282173
0.00282173
0.00282173
0.00282173
0.00282173
0.00282173
0.00282173
0.00282173
0.00282173
0.00282173
0.00282173
0.00282173
0.00282173
0.00282173
0.00282173
0.00282173
0.00282173
0.00282173
0.00282173
0.00282173
0.00282173
0.00282173
0.00282173
0.00282173
0.00282173
0.00282173
0.00282173
0.00282173
0.00282173
0.00282173
0.00282173
0.00282173
0.00282173
0.00282173
0.00282173
0.00282173
0.00282173
0.00282173
0.00282173
0.00282173
0.00282173
0.00282173
0.00282173
0.00282173
0.00282173
0.00282173
0.00282173
0.00282173
0.00282173
0.00282173
0.00282173
0.00282173
0.00282173
0.00282173
0.00282173
0.00282173
0.00282173
0.00282173
0.00282173
0.00282173
0.00282173
0.00282173
0.00282173
0.00282173
0.00282173
0.00282173
0.00282173
0.00282173
0.00282173
0.00282173
)
;

boundaryField
{
    left
    {
        type            zeroGradient;
    }
    right
    {
        type            zeroGradient;
    }
    empty
    {
        type            empty;
    }
}


// ************************************************************************* //
