/*--------------------------------*- C++ -*----------------------------------*\
| =========                 |                                                 |
| \\      /  F ield         | OpenFOAM: The Open Source CFD Toolbox           |
|  \\    /   O peration     | Version:  2106                                  |
|   \\  /    A nd           | Website:  www.openfoam.com                      |
|    \\/     M anipulation  |                                                 |
\*---------------------------------------------------------------------------*/
FoamFile
{
    version     2.0;
    format      ascii;
    arch        "LSB;label=32;scalar=64";
    class       volVectorField;
    location    "0.14";
    object      U;
}
// * * * * * * * * * * * * * * * * * * * * * * * * * * * * * * * * * * * * * //

dimensions      [0 1 -1 0 0 0 0];

internalField   nonuniform List<vector> 
800
(
(-3.73015e-11 0 0)
(-1.42224e-10 0 0)
(-2.55654e-10 0 0)
(-2.90436e-10 0 0)
(-3.15273e-10 0 0)
(-3.35158e-10 0 0)
(-3.32255e-10 0 0)
(-3.1523e-10 0 0)
(-1.7764e-10 0 0)
(-1.51685e-10 0 0)
(-1.51737e-10 0 0)
(-3.05554e-11 0 0)
(1.09616e-10 0 0)
(2.06948e-10 0 0)
(2.52668e-10 0 0)
(2.55089e-10 0 0)
(2.20029e-10 0 0)
(1.62617e-10 0 0)
(1.40572e-10 0 0)
(6.98103e-11 0 0)
(-3.04531e-11 0 0)
(-1.08477e-10 0 0)
(-1.95971e-10 0 0)
(-2.72029e-10 0 0)
(-3.10863e-10 0 0)
(-3.2112e-10 0 0)
(-2.47201e-10 0 0)
(-1.21461e-10 0 0)
(-4.28041e-11 0 0)
(-3.90821e-11 0 0)
(-3.30835e-11 0 0)
(-1.04793e-10 0 0)
(-9.87697e-11 0 0)
(6.0119e-11 0 0)
(1.72471e-10 0 0)
(3.15634e-10 0 0)
(4.04099e-10 0 0)
(3.77473e-10 0 0)
(3.16803e-10 0 0)
(1.80477e-10 0 0)
(1.08297e-10 0 0)
(9.43878e-11 0 0)
(1.44925e-10 0 0)
(1.52869e-10 0 0)
(4.86609e-11 0 0)
(-1.03905e-10 0 0)
(-2.53293e-10 0 0)
(-3.36412e-10 0 0)
(-4.03691e-10 0 0)
(-4.41043e-10 0 0)
(-4.01779e-10 0 0)
(-3.34405e-10 0 0)
(-2.61381e-10 0 0)
(-2.97941e-10 0 0)
(-2.9654e-10 0 0)
(-2.80745e-10 0 0)
(-2.65702e-10 0 0)
(-2.66122e-10 0 0)
(-2.86059e-10 0 0)
(-2.668e-10 0 0)
(-2.16062e-10 0 0)
(-9.02648e-11 0 0)
(-1.71685e-11 0 0)
(-3.19192e-11 0 0)
(-7.04733e-12 0 0)
(2.92926e-11 0 0)
(1.02921e-11 0 0)
(4.32672e-11 0 0)
(1.74929e-11 0 0)
(-4.44175e-11 0 0)
(-1.08731e-10 0 0)
(-2.19204e-10 0 0)
(-3.1901e-10 0 0)
(-3.25517e-10 0 0)
(-2.47588e-10 0 0)
(-1.95442e-10 0 0)
(-1.59882e-10 0 0)
(-8.87174e-11 0 0)
(-8.76647e-11 0 0)
(-5.67095e-11 0 0)
(-6.51736e-11 0 0)
(-1.01743e-10 0 0)
(-1.71551e-10 0 0)
(-1.63012e-10 0 0)
(-1.27986e-10 0 0)
(-9.63417e-11 0 0)
(-7.69632e-11 0 0)
(-6.41432e-11 0 0)
(-3.42906e-11 0 0)
(-4.61409e-11 0 0)
(-7.72963e-11 0 0)
(-9.05389e-11 0 0)
(-7.24968e-11 0 0)
(-1.09235e-11 0 0)
(-4.3008e-13 0 0)
(-2.74305e-11 0 0)
(-8.54808e-11 0 0)
(-1.3031e-10 0 0)
(-1.01761e-10 0 0)
(-9.32303e-11 0 0)
(-6.1964e-11 0 0)
(-4.69377e-11 0 0)
(-1.0606e-10 0 0)
(-1.26305e-10 0 0)
(-1.67359e-10 0 0)
(-2.29849e-10 0 0)
(-3.02119e-10 0 0)
(-3.19714e-10 0 0)
(-3.23169e-10 0 0)
(-2.96378e-10 0 0)
(-2.30888e-10 0 0)
(-1.65636e-10 0 0)
(-5.98124e-11 0 0)
(1.07564e-11 0 0)
(6.39702e-11 0 0)
(6.85922e-11 0 0)
(6.36807e-11 0 0)
(7.40248e-11 0 0)
(2.0238e-11 0 0)
(-4.56967e-11 0 0)
(-5.32159e-11 0 0)
(-1.31877e-11 0 0)
(6.4649e-12 0 0)
(-1.14385e-11 0 0)
(9.21628e-12 0 0)
(3.21658e-12 0 0)
(-6.82038e-11 0 0)
(-1.58309e-10 0 0)
(-1.93227e-10 0 0)
(-1.61784e-10 0 0)
(-1.33547e-10 0 0)
(-9.71077e-11 0 0)
(-1.14438e-10 0 0)
(-1.64347e-10 0 0)
(-1.98643e-10 0 0)
(-1.79494e-10 0 0)
(-1.26231e-10 0 0)
(-7.99283e-11 0 0)
(-2.68388e-11 0 0)
(3.68977e-11 0 0)
(9.59046e-11 0 0)
(8.73002e-11 0 0)
(8.88423e-11 0 0)
(3.06179e-11 0 0)
(-2.99996e-11 0 0)
(-9.43784e-11 0 0)
(-1.60873e-10 0 0)
(-1.89566e-10 0 0)
(-2.74804e-10 0 0)
(-3.90816e-10 0 0)
(-3.4792e-10 0 0)
(-2.93761e-10 0 0)
(-2.73943e-10 0 0)
(-2.23388e-10 0 0)
(-1.24124e-10 0 0)
(-7.98725e-11 0 0)
(-7.13503e-11 0 0)
(-6.45515e-11 0 0)
(-5.81504e-11 0 0)
(-2.05981e-11 0 0)
(5.7196e-11 0 0)
(9.7635e-11 0 0)
(1.54914e-10 0 0)
(1.48048e-10 0 0)
(1.19162e-10 0 0)
(4.73799e-11 0 0)
(5.06219e-11 0 0)
(1.23216e-10 0 0)
(2.55331e-10 0 0)
(3.81949e-10 0 0)
(3.88771e-10 0 0)
(3.6182e-10 0 0)
(3.05319e-10 0 0)
(2.48448e-10 0 0)
(2.16047e-10 0 0)
(1.38978e-10 0 0)
(7.28803e-11 0 0)
(2.9332e-11 0 0)
(-1.03816e-12 0 0)
(-1.29647e-13 0 0)
(1.92208e-11 0 0)
(4.60775e-11 0 0)
(1.1822e-10 0 0)
(2.11883e-10 0 0)
(2.52219e-10 0 0)
(2.37094e-10 0 0)
(1.95983e-10 0 0)
(2.68311e-10 0 0)
(2.88879e-10 0 0)
(2.31679e-10 0 0)
(1.51814e-10 0 0)
(1.26705e-10 0 0)
(1.62448e-10 0 0)
(9.97908e-11 0 0)
(2.2644e-11 0 0)
(2.35094e-11 0 0)
(5.33983e-11 0 0)
(6.89217e-11 0 0)
(8.19096e-11 0 0)
(3.34449e-11 0 0)
(-1.5772e-11 0 0)
(-2.78237e-11 0 0)
(-3.28218e-11 0 0)
(-6.91147e-11 0 0)
(-1.17906e-10 0 0)
(-6.47384e-11 0 0)
(-2.48863e-11 0 0)
(-3.23734e-11 0 0)
(-2.34357e-11 0 0)
(-3.89823e-11 0 0)
(-6.8954e-11 0 0)
(-2.48777e-11 0 0)
(4.59792e-11 0 0)
(8.44481e-11 0 0)
(9.53835e-11 0 0)
(9.76747e-11 0 0)
(1.21243e-10 0 0)
(1.32929e-10 0 0)
(9.66751e-11 0 0)
(3.06749e-11 0 0)
(-2.61924e-11 0 0)
(-8.30533e-11 0 0)
(-1.82956e-10 0 0)
(-2.56522e-10 0 0)
(-2.79416e-10 0 0)
(-3.76259e-10 0 0)
(-5.28092e-10 0 0)
(-6.29013e-10 0 0)
(-8.08722e-10 0 0)
(-9.88627e-10 0 0)
(-1.11094e-09 0 0)
(-1.19343e-09 0 0)
(-1.21753e-09 0 0)
(-1.21993e-09 0 0)
(-9.76294e-10 0 0)
(3.54627e-07 0 0)
(6.37186e-05 0 0)
(0.0014705 0 0)
(0.00819297 0 0)
(0.0197002 0 0)
(0.0311603 0 0)
(0.0407254 0 0)
(0.0487159 0 0)
(0.0557462 0 0)
(0.0622498 0 0)
(0.0684786 0 0)
(0.074567 0 0)
(0.080583 0 0)
(0.0865596 0 0)
(0.0925124 0 0)
(0.0984492 0 0)
(0.104374 0 0)
(0.11029 0 0)
(0.116199 0 0)
(0.122101 0 0)
(0.127998 0 0)
(0.133891 0 0)
(0.13978 0 0)
(0.145666 0 0)
(0.15155 0 0)
(0.157431 0 0)
(0.163311 0 0)
(0.169188 0 0)
(0.175065 0 0)
(0.18094 0 0)
(0.186814 0 0)
(0.192688 0 0)
(0.19856 0 0)
(0.204432 0 0)
(0.210304 0 0)
(0.216174 0 0)
(0.222045 0 0)
(0.227915 0 0)
(0.233785 0 0)
(0.239654 0 0)
(0.245523 0 0)
(0.251392 0 0)
(0.257261 0 0)
(0.26313 0 0)
(0.268998 0 0)
(0.274867 0 0)
(0.280735 0 0)
(0.286604 0 0)
(0.292472 0 0)
(0.298341 0 0)
(0.304209 0 0)
(0.310078 0 0)
(0.315947 0 0)
(0.321815 0 0)
(0.327684 0 0)
(0.333553 0 0)
(0.339423 0 0)
(0.345292 0 0)
(0.351162 0 0)
(0.357031 0 0)
(0.362901 0 0)
(0.368771 0 0)
(0.374642 0 0)
(0.380512 0 0)
(0.386383 0 0)
(0.392255 0 0)
(0.398126 0 0)
(0.403998 0 0)
(0.40987 0 0)
(0.415743 0 0)
(0.421615 0 0)
(0.427489 0 0)
(0.433362 0 0)
(0.439236 0 0)
(0.44511 0 0)
(0.450985 0 0)
(0.45686 0 0)
(0.462736 0 0)
(0.468612 0 0)
(0.474489 0 0)
(0.480366 0 0)
(0.486243 0 0)
(0.492121 0 0)
(0.498 0 0)
(0.503879 0 0)
(0.509759 0 0)
(0.515639 0 0)
(0.521519 0 0)
(0.527401 0 0)
(0.533283 0 0)
(0.539165 0 0)
(0.545048 0 0)
(0.550932 0 0)
(0.556816 0 0)
(0.562701 0 0)
(0.568587 0 0)
(0.574473 0 0)
(0.58036 0 0)
(0.586247 0 0)
(0.592136 0 0)
(0.598024 0 0)
(0.603914 0 0)
(0.609804 0 0)
(0.615695 0 0)
(0.621586 0 0)
(0.627478 0 0)
(0.633371 0 0)
(0.639264 0 0)
(0.645158 0 0)
(0.651052 0 0)
(0.656948 0 0)
(0.662843 0 0)
(0.66874 0 0)
(0.674637 0 0)
(0.680534 0 0)
(0.686432 0 0)
(0.69233 0 0)
(0.698229 0 0)
(0.704129 0 0)
(0.710028 0 0)
(0.715929 0 0)
(0.721829 0 0)
(0.72773 0 0)
(0.733631 0 0)
(0.739533 0 0)
(0.745434 0 0)
(0.751336 0 0)
(0.757238 0 0)
(0.76314 0 0)
(0.769042 0 0)
(0.774944 0 0)
(0.780846 0 0)
(0.786748 0 0)
(0.79265 0 0)
(0.798551 0 0)
(0.804453 0 0)
(0.810354 0 0)
(0.816254 0 0)
(0.822155 0 0)
(0.828055 0 0)
(0.833954 0 0)
(0.839853 0 0)
(0.845752 0 0)
(0.85165 0 0)
(0.857548 0 0)
(0.863446 0 0)
(0.869344 0 0)
(0.875242 0 0)
(0.881141 0 0)
(0.887042 0 0)
(0.892945 0 0)
(0.898845 0 0)
(0.904728 0 0)
(0.910548 0 0)
(0.916184 0 0)
(0.921373 0 0)
(0.925658 0 0)
(0.928522 0 0)
(0.929823 0 0)
(0.930097 0 0)
(0.929885 0 0)
(0.92945 0 0)
(0.929379 0 0)
(0.929657 0 0)
(0.929985 0 0)
(0.930077 0 0)
(0.930074 0 0)
(0.929993 0 0)
(0.929892 0 0)
(0.929803 0 0)
(0.929708 0 0)
(0.929616 0 0)
(0.92954 0 0)
(0.929463 0 0)
(0.929359 0 0)
(0.929225 0 0)
(0.929102 0 0)
(0.929016 0 0)
(0.928967 0 0)
(0.928941 0 0)
(0.928927 0 0)
(0.928914 0 0)
(0.92888 0 0)
(0.928803 0 0)
(0.928709 0 0)
(0.928636 0 0)
(0.928588 0 0)
(0.928556 0 0)
(0.928534 0 0)
(0.928515 0 0)
(0.928486 0 0)
(0.928444 0 0)
(0.928411 0 0)
(0.928397 0 0)
(0.928397 0 0)
(0.928424 0 0)
(0.928496 0 0)
(0.928587 0 0)
(0.928665 0 0)
(0.928717 0 0)
(0.928745 0 0)
(0.928764 0 0)
(0.928781 0 0)
(0.928796 0 0)
(0.928811 0 0)
(0.928832 0 0)
(0.928859 0 0)
(0.928879 0 0)
(0.928883 0 0)
(0.928873 0 0)
(0.928855 0 0)
(0.928839 0 0)
(0.928822 0 0)
(0.928806 0 0)
(0.9288 0 0)
(0.928799 0 0)
(0.92879 0 0)
(0.928757 0 0)
(0.928721 0 0)
(0.928697 0 0)
(0.92868 0 0)
(0.928664 0 0)
(0.928655 0 0)
(0.928651 0 0)
(0.928643 0 0)
(0.928608 0 0)
(0.928563 0 0)
(0.92854 0 0)
(0.928535 0 0)
(0.928537 0 0)
(0.92855 0 0)
(0.928591 0 0)
(0.928641 0 0)
(0.928672 0 0)
(0.928685 0 0)
(0.928694 0 0)
(0.928708 0 0)
(0.928723 0 0)
(0.928733 0 0)
(0.92875 0 0)
(0.928776 0 0)
(0.92879 0 0)
(0.928787 0 0)
(0.928779 0 0)
(0.928784 0 0)
(0.928794 0 0)
(0.928797 0 0)
(0.928797 0 0)
(0.928807 0 0)
(0.928814 0 0)
(0.928794 0 0)
(0.928759 0 0)
(0.928745 0 0)
(0.928742 0 0)
(0.928728 0 0)
(0.928713 0 0)
(0.928716 0 0)
(0.928724 0 0)
(0.928714 0 0)
(0.928671 0 0)
(0.928649 0 0)
(0.928648 0 0)
(0.928636 0 0)
(0.928608 0 0)
(0.928604 0 0)
(0.92862 0 0)
(0.928632 0 0)
(0.928613 0 0)
(0.928601 0 0)
(0.928632 0 0)
(0.928669 0 0)
(0.928683 0 0)
(0.928696 0 0)
(0.928735 0 0)
(0.928765 0 0)
(0.928751 0 0)
(0.928713 0 0)
(0.928726 0 0)
(0.928759 0 0)
(0.928761 0 0)
(0.928764 0 0)
(0.928794 0 0)
(0.928824 0 0)
(0.928806 0 0)
(0.928747 0 0)
(0.928752 0 0)
(0.928776 0 0)
(0.928771 0 0)
(0.928754 0 0)
(0.928763 0 0)
(0.928812 0 0)
(0.928825 0 0)
(0.928832 0 0)
(0.929011 0 0)
(0.929389 0 0)
(0.930177 0 0)
(0.930441 0 0)
(0.926876 0 0)
(0.930037 0 0)
(0.932402 0 0)
(0.930086 0 0)
(0.928016 0 0)
(0.927205 0 0)
(0.926852 0 0)
(0.926626 0 0)
(0.926622 0 0)
(0.927274 0 0)
(0.929425 0 0)
(0.931383 0 0)
(0.931326 0 0)
(0.930863 0 0)
(0.929864 0 0)
(0.928018 0 0)
(0.926609 0 0)
(0.926396 0 0)
(0.926485 0 0)
(0.926964 0 0)
(0.928456 0 0)
(0.930335 0 0)
(0.93101 0 0)
(0.931168 0 0)
(0.930862 0 0)
(0.929517 0 0)
(0.927363 0 0)
(0.926545 0 0)
(0.926491 0 0)
(0.926651 0 0)
(0.927478 0 0)
(0.929233 0 0)
(0.930822 0 0)
(0.93112 0 0)
(0.930911 0 0)
(0.930335 0 0)
(0.92887 0 0)
(0.927192 0 0)
(0.926634 0 0)
(0.926678 0 0)
(0.92701 0 0)
(0.928015 0 0)
(0.929798 0 0)
(0.930752 0 0)
(0.930826 0 0)
(0.93067 0 0)
(0.929882 0 0)
(0.928133 0 0)
(0.926934 0 0)
(0.926715 0 0)
(0.926709 0 0)
(0.927205 0 0)
(0.928582 0 0)
(0.930199 0 0)
(0.930566 0 0)
(0.930528 0 0)
(0.930247 0 0)
(0.929287 0 0)
(0.927677 0 0)
(0.926804 0 0)
(0.926771 0 0)
(0.926982 0 0)
(0.927613 0 0)
(0.929038 0 0)
(0.930187 0 0)
(0.930363 0 0)
(0.93031 0 0)
(0.92996 0 0)
(0.928844 0 0)
(0.927463 0 0)
(0.927042 0 0)
(0.927014 0 0)
(0.927242 0 0)
(0.928104 0 0)
(0.929596 0 0)
(0.930269 0 0)
(0.930344 0 0)
(0.930267 0 0)
(0.929738 0 0)
(0.928492 0 0)
(0.927373 0 0)
(0.927194 0 0)
(0.92727 0 0)
(0.927603 0 0)
(0.928563 0 0)
(0.929788 0 0)
(0.930205 0 0)
(0.930187 0 0)
(0.930003 0 0)
(0.929382 0 0)
(0.92816 0 0)
(0.927415 0 0)
(0.927338 0 0)
(0.927406 0 0)
(0.92782 0 0)
(0.92888 0 0)
(0.9298 0 0)
(0.929993 0 0)
(0.930007 0 0)
(0.92975 0 0)
(0.928936 0 0)
(0.927771 0 0)
(0.927393 0 0)
(0.927389 0 0)
(0.927508 0 0)
(0.928031 0 0)
(0.929078 0 0)
(0.929735 0 0)
(0.929809 0 0)
(0.929742 0 0)
(0.929605 0 0)
(0.929086 0 0)
(0.924284 0 0)
(0.869699 0 0)
(0.532463 0 0)
(0.0566735 0 0)
(0.000243875 0 0)
(1.96854e-08 0 0)
(-1.4617e-10 0 0)
(-5.1209e-11 0 0)
(7.25147e-11 0 0)
(1.37447e-10 0 0)
(2.31149e-10 0 0)
(2.17838e-10 0 0)
(2.06624e-10 0 0)
(2.07757e-10 0 0)
(1.34443e-10 0 0)
(7.3659e-12 0 0)
(-1.35016e-10 0 0)
(-2.49788e-10 0 0)
(-3.24922e-10 0 0)
(-3.08983e-10 0 0)
(-2.89335e-10 0 0)
(-2.00737e-10 0 0)
(-5.02178e-11 0 0)
(2.65216e-11 0 0)
(1.00299e-10 0 0)
(9.96241e-11 0 0)
(9.89198e-12 0 0)
(-1.1979e-10 0 0)
(-2.20786e-10 0 0)
(-2.5896e-10 0 0)
(-2.30687e-10 0 0)
(-2.36605e-10 0 0)
(-2.48565e-10 0 0)
(-2.02356e-10 0 0)
(-1.70658e-12 0 0)
(1.88612e-10 0 0)
(2.40942e-10 0 0)
(2.3767e-10 0 0)
(2.47501e-10 0 0)
(3.13544e-10 0 0)
(3.30184e-10 0 0)
(2.74851e-10 0 0)
(3.35832e-10 0 0)
(3.62205e-10 0 0)
(3.48928e-10 0 0)
(2.99553e-10 0 0)
(2.06253e-10 0 0)
(1.41908e-10 0 0)
(8.27538e-11 0 0)
(-4.72744e-11 0 0)
(-1.33426e-10 0 0)
(-1.36881e-10 0 0)
(-6.46591e-11 0 0)
(-2.94425e-12 0 0)
(-6.57259e-12 0 0)
(-6.18881e-11 0 0)
(-9.05679e-11 0 0)
(-5.70927e-11 0 0)
(-9.23601e-11 0 0)
(-1.88368e-10 0 0)
(-2.5037e-10 0 0)
(-2.12848e-10 0 0)
(-1.44073e-10 0 0)
(-9.23268e-11 0 0)
(-9.09098e-11 0 0)
(-1.19381e-10 0 0)
(-1.10609e-10 0 0)
(-2.90951e-11 0 0)
(5.19206e-11 0 0)
(2.80857e-11 0 0)
(2.59269e-11 0 0)
(1.25525e-10 0 0)
(2.05261e-10 0 0)
(2.2371e-10 0 0)
(1.96447e-10 0 0)
(1.95824e-10 0 0)
(1.71543e-10 0 0)
(8.81965e-11 0 0)
(4.93388e-11 0 0)
(-2.89039e-11 0 0)
(-1.25919e-10 0 0)
(-7.3613e-11 0 0)
(6.80405e-11 0 0)
(1.20088e-10 0 0)
(7.37785e-11 0 0)
(2.39843e-11 0 0)
(-1.2202e-11 0 0)
(-4.19017e-11 0 0)
(-9.54088e-11 0 0)
(-1.13801e-10 0 0)
(-1.40733e-10 0 0)
(-2.09669e-10 0 0)
(-2.20041e-10 0 0)
(-1.90548e-10 0 0)
(-1.3767e-10 0 0)
(-4.33036e-11 0 0)
(4.69289e-11 0 0)
(1.44773e-10 0 0)
(2.08298e-10 0 0)
(1.84872e-10 0 0)
(1.9192e-10 0 0)
(1.9791e-10 0 0)
(1.13031e-10 0 0)
(-1.21689e-11 0 0)
(-9.13491e-11 0 0)
(-8.987e-11 0 0)
(-3.5349e-11 0 0)
(-1.88169e-11 0 0)
(-2.6304e-11 0 0)
(-1.43251e-12 0 0)
(4.22458e-11 0 0)
(1.91106e-11 0 0)
(-2.48106e-11 0 0)
(-5.95952e-11 0 0)
(-5.39907e-11 0 0)
(5.18007e-11 0 0)
(1.55652e-10 0 0)
(1.69554e-10 0 0)
(1.03027e-10 0 0)
(-2.89754e-11 0 0)
(-1.01869e-10 0 0)
(-1.28861e-10 0 0)
(-8.00546e-11 0 0)
(-1.57275e-11 0 0)
(5.24228e-11 0 0)
(1.2846e-10 0 0)
(1.46861e-10 0 0)
(1.73263e-10 0 0)
(2.08696e-10 0 0)
(1.62152e-10 0 0)
(1.46335e-10 0 0)
(1.06526e-10 0 0)
(-3.81868e-11 0 0)
(-9.38181e-11 0 0)
(-1.52044e-10 0 0)
(-2.44821e-10 0 0)
(-2.43399e-10 0 0)
(-2.06503e-10 0 0)
(-1.60638e-10 0 0)
(-1.05575e-10 0 0)
(-8.74433e-11 0 0)
(-4.50698e-11 0 0)
(1.07955e-11 0 0)
(-1.25873e-11 0 0)
(-3.904e-11 0 0)
(-8.0566e-11 0 0)
(-1.01883e-10 0 0)
(-5.7711e-11 0 0)
(-7.99106e-11 0 0)
(-6.13143e-11 0 0)
(-4.41537e-11 0 0)
(-3.5381e-11 0 0)
(-1.20512e-10 0 0)
(-1.55036e-10 0 0)
(-1.4055e-10 0 0)
(-4.24849e-11 0 0)
)
;

boundaryField
{
    left
    {
        type            noSlip;
    }
    right
    {
        type            noSlip;
    }
    empty
    {
        type            empty;
    }
}


// ************************************************************************* //
