/*--------------------------------*- C++ -*----------------------------------*\
| =========                 |                                                 |
| \\      /  F ield         | OpenFOAM: The Open Source CFD Toolbox           |
|  \\    /   O peration     | Version:  2106                                  |
|   \\  /    A nd           | Website:  www.openfoam.com                      |
|    \\/     M anipulation  |                                                 |
\*---------------------------------------------------------------------------*/
FoamFile
{
    version     2.0;
    format      ascii;
    arch        "LSB;label=32;scalar=64";
    class       surfaceScalarField;
    location    "0.445";
    object      phi;
}
// * * * * * * * * * * * * * * * * * * * * * * * * * * * * * * * * * * * * * //

dimensions      [0 3 -1 0 0 0 0];

oriented        oriented;

internalField   nonuniform List<scalar> 
22100
(
3.38461205187e-05
1.61538794553e-05
2.24572104056e-05
1.13889102987e-05
1.62585539564e-05
6.1986567409e-06
1.27977774059e-05
3.46077680128e-06
1.08046440686e-05
1.99313363849e-06
9.60459173758e-06
1.2000527235e-06
8.8513248368e-06
7.53267394546e-07
8.36435703354e-06
4.86968411449e-07
8.04434028391e-06
3.20017476171e-07
7.83284667841e-06
2.11494422312e-07
7.69340468288e-06
1.39442850053e-07
7.60224887611e-06
9.11566432611e-08
7.54348702751e-06
5.87625966969e-08
7.506350866e-06
3.71367659633e-08
7.48351194732e-06
2.28393730375e-08
7.46999157755e-06
1.35206939773e-08
7.46242729297e-06
7.56452441456e-09
7.45855947655e-06
3.86800334762e-09
7.45684053025e-06
1.71908364846e-09
7.45643387719e-06
4.06708775747e-10
7.45678347525e-06
-3.49688602945e-10
7.45746929274e-06
-6.86059503919e-10
7.45822719317e-06
-7.58238323353e-10
7.45895205477e-06
-7.25274653669e-10
7.4595960126e-06
-6.44366967029e-10
7.46013975873e-06
-5.44046692661e-10
7.46058186682e-06
-4.42237966459e-10
7.46093074622e-06
-3.48844931642e-10
7.46119921655e-06
-2.68336593196e-10
7.4614012453e-06
-2.01893147446e-10
7.46155013935e-06
-1.48788270046e-10
7.46165765651e-06
-1.07399297252e-10
7.46173350665e-06
-7.6004945497e-11
7.46178596734e-06
-5.26319549283e-11
7.46181903722e-06
-3.31234484901e-11
7.46183759804e-06
-1.864301135e-11
7.4618464775e-06
-8.96636138928e-12
7.46184911243e-06
-2.63913094529e-12
7.46184731086e-06
1.7156733288e-12
7.46184210221e-06
4.94554882291e-12
7.46183452273e-06
7.19547819103e-12
7.46182523677e-06
8.77045546833e-12
7.46181477258e-06
9.96289082653e-12
7.46180336163e-06
1.09424795862e-11
7.46179100479e-06
1.1964571765e-11
7.46177760418e-06
1.31479787271e-11
7.46176282667e-06
1.45720836895e-11
7.46174626023e-06
1.63603212438e-11
7.46172736326e-06
1.85791998388e-11
7.4617055658e-06
2.13389686914e-11
7.46168034369e-06
2.46872888545e-11
7.4616511015e-06
2.86900410704e-11
7.46161718547e-06
3.34617769241e-11
7.46157780301e-06
3.90700365531e-11
7.46153207226e-06
4.55609548173e-11
7.46147908653e-06
5.2934275141e-11
7.46141810989e-06
6.09700406281e-11
7.46134895599e-06
6.90801115717e-11
7.46127227098e-06
7.64302404028e-11
7.46119061148e-06
8.12163548359e-11
7.46111051081e-06
7.94944089016e-11
7.46104413877e-06
6.57359668695e-11
7.46099918724e-06
4.44468206414e-11
7.46099523741e-06
3.70629812117e-12
7.46106819136e-06
-7.30541768792e-11
7.4612763279e-06
-2.08030846655e-10
7.46171408855e-06
-4.37449553588e-10
7.46253141992e-06
-8.17019806119e-10
7.46396359149e-06
-1.43193513729e-09
7.46636595518e-06
-2.40240205888e-09
7.47018762919e-06
-3.82198821023e-09
7.4766412264e-06
-6.45399825111e-09
7.48741638756e-06
-1.07754572379e-08
7.50559534997e-06
-1.81791462431e-08
7.53878356544e-06
-3.31883034525e-08
7.60799692504e-06
-6.92134249187e-08
7.77464573146e-06
-1.66648794483e-07
8.2295097962e-06
-4.54863887887e-07
9.69697816153e-06
-1.46746814873e-06
-5.45078960075e-06
1.51477676162e-05
5.02175950534e-05
1.59362847571e-05
4.42441120457e-05
1.73623936511e-05
3.77795022553e-05
1.26632670015e-05
3.26461451362e-05
8.59413447443e-06
2.89380934909e-05
5.70118600513e-06
2.63596237199e-05
3.77852342884e-06
2.45875201146e-05
2.52537215164e-06
2.33734790251e-05
1.70101082726e-06
2.25435310777e-05
1.14996686311e-06
2.19782235698e-05
7.7680340906e-07
2.15955222128e-05
5.22145628719e-07
2.13387467325e-05
3.47933396644e-07
2.11685061445e-05
2.29004239554e-07
2.1057349281e-05
1.48294421153e-07
2.09861619412e-05
9.40272615402e-08
2.09416900022e-05
5.79929822271e-08
2.09148085321e-05
3.44461856451e-08
2.08993096905e-05
1.93668917694e-08
2.08910861196e-05
9.94257374001e-09
2.08872858422e-05
4.20674633292e-09
2.08862166479e-05
7.19073710975e-10
2.08864620381e-05
-9.32061702797e-10
2.08873330082e-05
-1.6299620369e-09
2.08884720542e-05
-1.86502663509e-09
2.08896450402e-05
-1.81789485489e-09
2.08907278768e-05
-1.62716277284e-09
2.08916655135e-05
-1.37986740602e-09
2.08924432109e-05
-1.12631341466e-09
2.08930686464e-05
-8.93425648472e-10
2.08935609099e-05
-6.93875678928e-10
2.08939447115e-05
-5.32670938505e-10
2.08942458777e-05
-4.0896647137e-10
2.08944565541e-05
-2.86930269075e-10
2.08946033513e-05
-1.9961518745e-10
2.08947035436e-05
-1.33378508237e-10
2.08947688146e-05
-8.40183032882e-11
2.08948092439e-05
-4.95074886386e-11
2.08948329808e-05
-2.65401657812e-11
2.08948447029e-05
-1.02969088697e-11
2.08948472373e-05
1.77783574951e-12
2.08948431607e-05
1.04685387954e-11
2.08948342272e-05
1.67927285099e-11
2.08948217183e-05
2.15678939185e-11
2.08948064952e-05
2.53990025982e-11
2.08947888997e-05
2.89088438965e-11
2.08947690397e-05
3.25082790483e-11
2.08947467864e-05
3.63918950018e-11
2.08947219029e-05
4.0799026122e-11
2.08946940833e-05
4.58617700025e-11
2.08946630251e-05
5.17347803047e-11
2.08946286051e-05
5.83943785898e-11
2.0894590815e-05
6.57827984093e-11
2.08945497996e-05
7.38845202213e-11
2.08945059759e-05
8.25145717866e-11
2.08944602191e-05
9.11366930108e-11
2.08944142126e-05
9.87986922324e-11
2.08943712075e-05
1.03701447796e-10
2.08943371319e-05
1.02674037816e-10
2.08943214601e-05
9.13868040264e-11
2.08943396592e-05
6.21088026448e-11
2.08944190805e-05
-9.75238152107e-13
2.08946083429e-05
-1.24484876411e-10
2.08949762153e-05
-3.24127721753e-10
2.08956417916e-05
-6.62151036321e-10
2.08967113513e-05
-1.1425941472e-09
2.08983636168e-05
-1.86004279896e-09
2.09009562917e-05
-3.02987530297e-09
2.0905037175e-05
-4.89786228607e-09
2.09114754864e-05
-7.87044177582e-09
2.09216948805e-05
-1.2622209597e-08
2.09381855701e-05
-2.03133040978e-08
2.09650913943e-05
-3.33604684876e-08
2.10093519364e-05
-5.5036430381e-08
2.10841369709e-05
-9.2964314739e-08
2.12153667415e-05
-1.64417944516e-07
2.14559367103e-05
-3.09783292474e-07
2.19136764487e-05
-6.24388795535e-07
2.28004435807e-05
-1.34163170793e-06
2.44439516183e-05
-3.11097714171e-06
-7.03659622462e-06
2.60297587891e-05
5.35171055282e-05
1.24191795016e-05
5.29349687346e-05
1.79445307159e-05
4.96538408492e-05
1.59443952531e-05
4.58401825205e-05
1.24077932231e-05
4.24400939607e-05
9.10127512339e-06
3.97291745974e-05
6.48944353484e-06
3.76873088951e-05
4.56723879954e-06
3.61976670047e-05
3.19065384369e-06
3.51326174396e-05
2.21501769511e-06
3.43823735214e-05
1.52704865278e-06
3.38606336536e-05
1.04388678618e-06
3.35023544273e-05
7.06213790599e-07
3.32596103842e-05
4.71749269553e-07
3.30976007544e-05
3.10304830579e-07
3.29913451912e-05
2.00283421085e-07
3.29231037003e-05
1.26234928687e-07
3.28804160399e-05
7.71341854595e-08
3.28546311095e-05
4.51520369894e-08
3.28398041138e-05
2.47696074566e-08
3.28318775415e-05
1.2133155482e-08
3.28280078618e-05
4.58840022489e-09
3.28270088131e-05
6.64449340651e-11
3.28271891026e-05
-1.81089854005e-09
3.28280370477e-05
-2.71358838058e-09
3.28291524834e-05
-2.9337767914e-09
3.28302995838e-05
-2.77448051165e-09
3.28313555896e-05
-2.43587415754e-09
3.28322661093e-05
-2.0366985519e-09
3.28330161956e-05
-1.64332792488e-09
3.28336118578e-05
-1.28935939591e-09
3.28340676888e-05
-9.8873145948e-10
3.28344022129e-05
-7.43835815367e-10
3.28346681575e-05
-5.53067203731e-10
3.28348842308e-05
-4.15921493117e-10
3.28350309399e-05
-2.80410293589e-10
3.28351298894e-05
-1.83051810015e-10
3.28351955218e-05
-1.15142914513e-10
3.28352370929e-05
-6.82116637356e-11
3.28352614578e-05
-3.49421301118e-11
3.28352724011e-05
-9.78130201342e-12
3.28352736804e-05
8.31266369339e-12
3.28352679215e-05
2.16058062217e-11
3.28352570678e-05
3.15123338362e-11
3.28352425274e-05
3.92370521254e-11
3.28352249462e-05
4.59437052333e-11
3.28352047931e-05
5.22965713074e-11
3.28351822927e-05
5.86643694788e-11
3.28351575045e-05
6.53030608428e-11
3.28351304475e-05
7.2455042896e-11
3.2835101076e-05
8.04026848397e-11
3.28350697828e-05
8.88059104154e-11
3.28350373801e-05
9.73972787031e-11
3.28350050211e-05
1.05671298107e-10
3.2834974582e-05
1.12630303645e-10
3.28349490844e-05
1.16515048094e-10
3.28349330472e-05
1.14739338346e-10
3.2834933546e-05
1.02947969601e-10
3.28349620132e-05
7.36127251527e-11
3.28350358302e-05
1.67349070554e-11
3.28351851176e-05
-8.80647509162e-11
3.28354614165e-05
-2.78117467074e-10
3.28359545311e-05
-6.1839409478e-10
3.28366755122e-05
-1.04567903203e-09
3.28377228144e-05
-1.70980697171e-09
3.28393564835e-05
-2.77628234697e-09
3.28419502373e-05
-4.4537940714e-09
3.28460082958e-05
-7.08802445021e-09
3.28523451454e-05
-1.12349912538e-08
3.28622737685e-05
-1.77995273235e-08
3.28779583393e-05
-2.83073159052e-08
3.29030585199e-05
-4.54139732566e-08
3.29429233198e-05
-7.32257239323e-08
3.30073793474e-05
-1.19492783669e-07
3.31134016197e-05
-1.98986750186e-07
3.32899902633e-05
-3.41006505388e-07
3.3585326387e-05
-6.05119107423e-07
3.40704509045e-05
-1.10951304089e-06
3.481144033e-05
-2.08262118495e-06
3.56720315946e-05
-3.97156946367e-06
-7.10445965975e-06
3.57398938396e-05
5.35105666553e-05
8.90861303447e-06
5.55742226638e-05
1.58808749177e-05
5.52424832745e-05
1.62761349538e-05
5.35977871056e-05
1.40524897762e-05
5.15418493423e-05
1.1157213407e-05
4.95802822189e-05
8.45101134728e-06
4.79243540166e-05
6.22316789248e-06
4.66181431213e-05
4.4968658139e-06
4.56304714288e-05
3.20269061868e-06
4.49051236506e-05
2.25239774158e-06
4.43840976057e-05
1.56491411623e-06
4.40167024885e-05
1.07361006604e-06
4.37619768659e-05
7.26475866829e-07
4.35882789504e-05
4.84003515744e-07
4.34718801263e-05
3.16682827234e-07
4.33953704787e-05
2.02745007634e-07
4.33462005347e-05
1.26304423093e-07
4.33154631814e-05
7.58895676451e-08
4.32969269732e-05
4.33058564235e-08
4.32863009174e-05
2.27590715914e-08
4.32806979078e-05
1.01910305979e-08
4.3277889925e-05
2.87388739448e-09
4.32770617182e-05
-9.83326531362e-10
4.32772792635e-05
-2.93171003628e-09
4.32779666004e-05
-3.6215173987e-09
4.32788296581e-05
-3.63771161855e-09
4.32797026407e-05
-3.30883390453e-09
4.32805003357e-05
-2.83427370406e-09
4.32811862512e-05
-2.32917856515e-09
4.32817521023e-05
-1.85531130514e-09
4.3282204633e-05
-1.44145998389e-09
4.32825566548e-05
-1.09609966726e-09
4.32828180578e-05
-8.14664611093e-10
4.32829928716e-05
-5.91105928746e-10
4.3283125696e-05
-4.13479300209e-10
4.32832109338e-05
-2.68324810235e-10
4.32832649133e-05
-1.69075120209e-10
4.32833045392e-05
-1.0795766881e-10
4.32833285445e-05
-5.92980945547e-11
4.32833399558e-05
-2.19432585893e-11
4.32833422692e-05
5.04767675466e-12
4.3283337541e-05
2.52443387014e-11
4.32833276491e-05
4.03826522195e-11
4.32833140908e-05
5.2304649636e-11
4.32832972059e-05
6.25129179926e-11
4.32832774196e-05
7.17656749216e-11
4.32832550984e-05
8.07286526137e-11
4.32832303701e-05
8.97148859699e-11
4.32832034661e-05
9.88423266448e-11
4.32831749582e-05
1.08159810031e-10
4.32831455562e-05
1.17211365022e-10
4.32831164194e-05
1.25559220577e-10
4.3283089172e-05
1.32133174509e-10
4.32830659534e-05
1.35288259133e-10
4.32830496557e-05
1.32405354115e-10
4.32830448038e-05
1.19149573703e-10
4.32830594355e-05
8.79450368875e-11
4.32831054672e-05
2.69695281448e-11
4.32832021519e-05
-8.07993693154e-11
4.32833652753e-05
-2.52060628721e-10
4.32836126821e-05
-5.26283316169e-10
4.32840605806e-05
-1.06663805937e-09
4.32848397091e-05
-1.8252054499e-09
4.32861017149e-05
-2.97217358932e-09
4.32880549807e-05
-4.72976359323e-09
4.32910499698e-05
-7.44894593538e-09
4.32956465153e-05
-1.16847779736e-08
4.33027233644e-05
-1.83121986382e-08
4.33136626666e-05
-2.87393943403e-08
4.33306221174e-05
-4.52674702183e-08
4.33569102765e-05
-7.17027006375e-08
4.33980954911e-05
-1.14411278849e-07
4.34630249287e-05
-1.84422347672e-07
4.35654142556e-05
-3.01376128368e-07
4.37252024953e-05
-5.0079476019e-07
4.39669591845e-05
-8.46875692769e-07
4.43073073011e-05
-1.44986094433e-06
4.47074866965e-05
-2.48280037619e-06
4.49265308816e-05
-4.19061383461e-06
-6.57496521591e-06
4.43970358549e-05
5.2735138191e-05
6.17347499899e-06
5.57309348615e-05
1.28850784094e-05
5.73114750074e-05
1.46955950544e-05
5.76109928846e-05
1.375297223e-05
5.71335242399e-05
1.16346825417e-05
5.63194704285e-05
9.26506582852e-06
5.54489911731e-05
7.09364802254e-06
5.4662981707e-05
5.28287634812e-06
5.40136873728e-05
3.85198617562e-06
5.3506157323e-05
2.75992908815e-06
5.31242626674e-05
1.94681005067e-06
5.28449942861e-05
1.35287960379e-06
5.26454490552e-05
9.26022071627e-07
5.25057256674e-05
6.23727686223e-07
5.24097316192e-05
4.12677482195e-07
5.23450262304e-05
2.67450852837e-07
5.23022889487e-05
1.69042027436e-07
5.22747022445e-05
1.03476465864e-07
5.22573780311e-05
6.06301046936e-08
5.22468694996e-05
3.32674533663e-08
5.2240769731e-05
1.6290435783e-08
5.22374605756e-05
6.18249646794e-09
5.22359615031e-05
5.15135667172e-10
5.22354531239e-05
-2.42387801998e-09
5.22355177342e-05
-3.68649427553e-09
5.22358630173e-05
-3.98310787097e-09
5.22363172275e-05
-3.76294565168e-09
5.22367836273e-05
-3.3004861693e-09
5.22372109658e-05
-2.75644282225e-09
5.22375764243e-05
-2.22087854367e-09
5.22378733473e-05
-1.73858600292e-09
5.22381045013e-05
-1.3276204821e-09
5.22382802793e-05
-9.90927184864e-10
5.22384127179e-05
-7.2383638481e-10
5.22385128053e-05
-5.13672879559e-10
5.22385973349e-05
-3.5278970705e-10
5.22386626913e-05
-2.34384760007e-10
5.22387048125e-05
-1.5035842982e-10
5.22387369982e-05
-9.22270746689e-11
5.22387517125e-05
-3.75839939994e-11
5.22387561454e-05
-3.87236592679e-13
5.22387529804e-05
2.73372863561e-11
5.22387443281e-05
4.7995310465e-11
5.22387317212e-05
6.47678142756e-11
5.22387159922e-05
7.83033170429e-11
5.22386975878e-05
9.03383457996e-11
5.22386768717e-05
1.01610581869e-10
5.22386543538e-05
1.12225734343e-10
5.22386310433e-05
1.21848301387e-10
5.22386049084e-05
1.33832260411e-10
5.22385778567e-05
1.43868148727e-10
5.22385511057e-05
1.51966074212e-10
5.2238526403e-05
1.56628046538e-10
5.22385064834e-05
1.55119152944e-10
5.2238497205e-05
1.4166373296e-10
5.22385067032e-05
1.09570274158e-10
5.22385389293e-05
5.56575155783e-11
5.22386174401e-05
-5.19112947105e-11
5.22387386954e-05
-2.02904771448e-10
5.22389363891e-05
-4.51073428904e-10
5.22392757928e-05
-8.66877283024e-10
5.22397978447e-05
-1.58958790192e-09
5.22405762785e-05
-2.60423213331e-09
5.22417442264e-05
-4.14050982489e-09
5.22435052412e-05
-6.49104603153e-09
5.22461607252e-05
-1.01046530606e-08
5.22501627715e-05
-1.5687094313e-08
5.22562027475e-05
-2.43525779311e-08
5.22653398402e-05
-3.78770228426e-08
5.22791916775e-05
-5.91199824462e-08
5.23002162131e-05
-9.27278403133e-08
5.23321288287e-05
-1.46324270099e-07
5.23802718786e-05
-2.32565458323e-07
5.24515687054e-05
-3.72672820792e-07
5.25528779733e-05
-6.02103884366e-07
5.26847376296e-05
-9.7873523195e-07
5.28249146135e-05
-1.59003776823e-06
5.2891922528e-05
-2.54980819211e-06
5.2673325322e-05
-3.97201661344e-06
-5.76612631674e-06
5.18644861189e-05
5.19834866575e-05
4.18998847185e-06
5.50586643936e-05
9.80990080844e-06
5.76386139404e-05
1.21156457236e-05
5.93259042468e-05
1.20656822074e-05
6.022801677e-05
1.07325704676e-05
6.05929286037e-05
8.90015465088e-06
6.06482863393e-05
7.0382911597e-06
6.05531928464e-05
5.37797092111e-06
6.04029593455e-05
4.00222091321e-06
6.0247919937e-05
2.91496978987e-06
6.01107954601e-05
2.08393579684e-06
5.9999036876e-05
1.46463934586e-06
5.99125224786e-05
1.01253744224e-06
5.98479311907e-05
6.88319740922e-07
5.98010280863e-05
4.59581183961e-07
5.97677437984e-05
3.00735611895e-07
5.97446027303e-05
1.92183461453e-07
5.9728824391e-05
1.19255046252e-07
5.97182763265e-05
7.11782383252e-08
5.9711370057e-05
4.01735800267e-08
5.97069504638e-05
2.07096851013e-08
5.97042161954e-05
8.91627914041e-09
5.97026067452e-05
2.12405401486e-09
5.97017018481e-05
-1.51944119154e-09
5.97012433236e-05
-3.22826791575e-09
5.97010537661e-05
-3.79361385979e-09
5.97010176108e-05
-3.7266387756e-09
5.97010620595e-05
-3.344714799e-09
5.97011432867e-05
-2.83747521197e-09
5.9701235514e-05
-2.31307932677e-09
5.97013249014e-05
-1.82810834703e-09
5.97014048174e-05
-1.40789817435e-09
5.97014739516e-05
-1.06046082686e-09
5.97015331042e-05
-7.83211401499e-10
5.97015830763e-05
-5.63723386739e-10
5.97016227224e-05
-3.92422956023e-10
5.97016504183e-05
-2.62101558863e-10
5.97016652446e-05
-1.65630223654e-10
5.97016631047e-05
-9.07615333489e-11
5.97016543568e-05
-2.96591844388e-11
5.97016468727e-05
6.14043014295e-12
5.97016368949e-05
3.65377295127e-11
5.97016263123e-05
5.7970866939e-11
5.97016142288e-05
7.57354748344e-11
5.97016004056e-05
9.16119660245e-11
5.97015845207e-05
1.06150497969e-10
5.97015664277e-05
1.19759470561e-10
5.97015459717e-05
1.32544234313e-10
5.97015228273e-05
1.44491563229e-10
5.97015004646e-05
1.55555137196e-10
5.97014788931e-05
1.64731979047e-10
5.97014594279e-05
1.70696106974e-10
5.97014438622e-05
1.71530505392e-10
5.97014336193e-05
1.64727520016e-10
5.97014272929e-05
1.47527166075e-10
5.97014189543e-05
1.1740332001e-10
5.97014250082e-05
4.8847356853e-11
5.97014371833e-05
-6.43349622962e-11
5.97015252184e-05
-2.91852704573e-10
5.97017168511e-05
-6.43406787008e-10
5.97020188224e-05
-1.16975635859e-09
5.97024091244e-05
-1.98058640456e-09
5.97029923683e-05
-3.18796461799e-09
5.97038509536e-05
-4.99938222621e-09
5.97050990611e-05
-7.73930348093e-09
5.97069018826e-05
-1.19075895962e-08
5.97094976545e-05
-1.82830353314e-08
5.97132305857e-05
-2.80858589473e-08
5.97185907646e-05
-4.32376795759e-08
5.97262592805e-05
-6.67890559577e-08
5.97371378424e-05
-1.03606898147e-07
5.97522891083e-05
-1.61475855782e-07
5.97725506525e-05
-2.52827042937e-07
5.97973302375e-05
-3.97452201092e-07
5.98214705076e-05
-6.26243896568e-07
5.98280970838e-05
-9.85361611359e-07
5.97751750651e-05
-1.53711560818e-06
5.95748014393e-05
-2.34943455279e-06
5.90691976235e-05
-3.46641269079e-06
-4.79517000384e-06
5.80982412655e-05
5.14373055583e-05
2.7526830123e-06
5.42658210006e-05
6.98138547938e-06
5.72496439839e-05
9.13182295941e-06
5.97900286915e-05
9.52529778188e-06
6.17201296528e-05
8.80246994304e-06
6.30883052347e-05
7.53197972785e-06
6.40167195912e-05
6.10987768368e-06
6.46292403303e-05
4.76545126393e-06
6.50258083306e-05
3.60565414157e-06
6.52790839611e-05
2.66169542268e-06
6.54389800058e-05
1.92404096623e-06
6.55386977205e-05
1.36492273681e-06
6.55999370015e-05
9.5129911136e-07
6.56367524044e-05
6.51505088722e-07
6.56582039707e-05
4.38130193532e-07
6.56701125831e-05
2.88827453115e-07
6.56762021584e-05
1.86094253512e-07
6.56788387399e-05
1.16618726739e-07
6.5679509338e-05
7.05077288886e-08
6.56791331328e-05
4.05496556403e-08
6.56782655836e-05
2.15769133817e-08
6.56772344046e-05
9.94701817236e-09
6.56762248596e-05
3.13313673775e-09
6.56753153444e-05
-6.10307951977e-10
6.56745465567e-05
-2.45971889112e-09
6.56739182877e-05
-3.16534931057e-09
6.56734196229e-05
-3.22778660821e-09
6.56730329535e-05
-2.9578473324e-09
6.56727391925e-05
-2.54361471912e-09
6.56725200829e-05
-2.09407434184e-09
6.56723595459e-05
-1.6678346222e-09
6.56722439394e-05
-1.29268488724e-09
6.56721612154e-05
-9.78170818902e-10
6.56721009616e-05
-7.23183259412e-10
6.56720573637e-05
-5.20257778348e-10
6.56720260986e-05
-3.61327170909e-10
6.56720009212e-05
-2.37278186193e-10
6.56719790777e-05
-1.44228915034e-10
6.5671963681e-05
-7.5894264977e-11
6.56719614088e-05
-2.82021580816e-11
6.56719588935e-05
7.46462853302e-12
6.56719511275e-05
4.39022056516e-11
6.56719402987e-05
6.81658076933e-11
6.56719275046e-05
8.7904995728e-11
6.56719135552e-05
1.05363075898e-10
6.56718983279e-05
1.21552762091e-10
6.56718814852e-05
1.36914974693e-10
6.56718627605e-05
1.51534683249e-10
6.56718425674e-05
1.64872296277e-10
6.5671823067e-05
1.7500609195e-10
6.56718032928e-05
1.84244839111e-10
6.56717838527e-05
1.89780013692e-10
6.56717660247e-05
1.89074791861e-10
6.56717517899e-05
1.78767999499e-10
6.56717451517e-05
1.54135073553e-10
6.56717532141e-05
1.09071616205e-10
6.56717588629e-05
4.28103577408e-11
6.56717953283e-05
-1.01863417137e-10
6.56718632354e-05
-3.60688184547e-10
6.56719632057e-05
-7.44339644321e-10
6.56721157328e-05
-1.32316995929e-09
6.56723281962e-05
-2.19376961434e-09
6.56726174614e-05
-3.4777002121e-09
6.56730002554e-05
-5.38242952873e-09
6.56734877169e-05
-8.22683004953e-09
6.56740777456e-05
-1.24976072883e-08
6.56747404471e-05
-1.89457957002e-08
6.56753907521e-05
-2.87364260875e-08
6.56758285923e-05
-4.36759756387e-08
6.56756275475e-05
-6.65885342346e-08
6.56739196527e-05
-1.01899444521e-07
6.56689732567e-05
-1.56529669748e-07
6.56572574637e-05
-2.41111185491e-07
6.56316484388e-05
-3.71842898292e-07
6.55780031224e-05
-5.72598257356e-07
6.54691031791e-05
-8.76461395032e-07
6.52558084474e-05
-1.32382067324e-06
6.48581219709e-05
-1.95174807338e-06
6.41636603768e-05
-2.7719510467e-06
-3.71386939871e-06
6.3082359902e-05
5.10850425474e-05
1.66764054714e-06
5.3611845006e-05
4.45458314294e-06
5.66873172732e-05
6.05635093121e-06
5.96894476753e-05
6.52316769577e-06
6.2299728789e-05
6.19218929156e-06
6.44136910214e-05
5.41801817107e-06
6.60471879886e-05
4.47638160098e-06
6.72686204947e-05
3.54401982447e-06
6.81599005876e-05
2.71437524295e-06
6.87977682644e-05
2.0238289649e-06
6.92467536684e-05
1.47505670613e-06
6.95579734303e-05
1.05370398549e-06
6.97704409193e-05
7.38832481017e-07
6.9913184682e-05
5.08762020795e-07
7.00073964184e-05
3.43919008978e-07
7.00683065818e-05
2.27917734427e-07
7.01067091829e-05
1.47692004452e-07
7.01301520146e-05
9.31761621133e-08
7.0143841561e-05
5.68183016855e-08
7.0151317926e-05
3.30732095152e-08
7.01549505152e-05
1.7944061213e-08
7.01562983011e-05
8.59885255014e-09
7.01563701632e-05
3.06086718502e-09
7.0155778141e-05
-1.86076391287e-11
7.01549174541e-05
-1.59915067947e-09
7.01539941585e-05
-2.24203023973e-09
7.01531259294e-05
-2.3594245558e-09
7.01523663115e-05
-2.19808900086e-09
7.01517324074e-05
-1.90966635641e-09
7.01512212997e-05
-1.5830902163e-09
7.01508200725e-05
-1.2669078928e-09
7.01505118553e-05
-9.84846297299e-10
7.01502790676e-05
-7.45806286816e-10
7.01501057051e-05
-5.50115205377e-10
7.01499787726e-05
-3.93466493083e-10
7.01498874844e-05
-2.70211653371e-10
7.01498246683e-05
-1.74689901712e-10
7.01497828696e-05
-1.02689322554e-10
7.01497540325e-05
-4.7488595287e-11
7.01497233296e-05
1.63953482207e-12
7.014969919e-05
3.03728733462e-11
7.01496853592e-05
5.60830006873e-11
7.01496743649e-05
7.81378009407e-11
7.0149664328e-05
9.73725854469e-11
7.01496544803e-05
1.1502615901e-10
7.01496442668e-05
1.31750905317e-10
7.01496333753e-05
1.47820315137e-10
7.01496217237e-05
1.63137132571e-10
7.01496091204e-05
1.77255140416e-10
7.01495941484e-05
1.89486914332e-10
7.01495788268e-05
1.98890166751e-10
7.01495641198e-05
2.03716891308e-10
7.01495508651e-05
2.01561929159e-10
7.01495396915e-05
1.89293127e-10
7.0149529895e-05
1.63334356366e-10
7.01495190648e-05
1.1985941713e-10
7.01495134726e-05
4.76705449336e-11
7.01495014768e-05
-8.98743800332e-11
7.01495140838e-05
-3.73990560879e-10
7.01495379995e-05
-7.69264610051e-10
7.01495622891e-05
-1.34837666459e-09
7.01495659156e-05
-2.19818675167e-09
7.01495223499e-05
-3.43463299608e-09
7.0149378505e-05
-5.23879600776e-09
7.01490354893e-05
-7.88390755061e-09
7.01483183815e-05
-1.1780523292e-08
7.01469256706e-05
-1.75532051145e-08
7.0144346391e-05
-2.61574290836e-08
7.01397073932e-05
-3.90374467905e-08
7.01315289611e-05
-5.84105779378e-08
7.01173230005e-05
-8.76938830108e-08
7.0092938105e-05
-1.32144927441e-07
7.00512901989e-05
-1.99463126345e-07
6.99804137229e-05
-3.00966045194e-07
6.98603563447e-05
-4.52540476442e-07
6.9658696079e-05
-6.74800859786e-07
6.93255569209e-05
-9.90681319998e-07
6.87914493389e-05
-1.41764042071e-06
6.7973876684e-05
-1.95437839491e-06
-2.55487539854e-06
6.68148828572e-05
5.088041338e-05
7.87227259222e-07
5.31704666701e-05
2.16453003471e-06
5.62177506015e-05
3.00906728384e-06
5.9438271026e-05
3.30264764529e-06
6.2444971375e-05
3.1854894689e-06
6.50382554688e-05
2.82473480575e-06
6.71548698461e-05
2.35976811543e-06
6.88135692524e-05
1.8853214486e-06
7.00731762248e-05
1.45476938945e-06
7.10056741557e-05
1.09133216633e-06
7.16812713391e-05
7.99460572947e-07
7.21614314627e-05
5.73544764704e-07
7.24966130247e-05
4.03651663302e-07
7.27264900926e-05
2.7888555956e-07
7.28812894257e-05
1.89120190858e-07
7.29834795749e-05
1.25728043172e-07
7.30494236916e-05
8.17482521857e-08
7.30908260623e-05
5.17740548371e-08
7.31159201663e-05
3.17243354327e-08
7.31304047032e-05
1.8588649764e-08
7.31381593086e-05
1.01892806567e-08
7.31417795422e-05
4.9783305805e-09
7.31429670119e-05
1.87305537799e-09
7.31428205091e-05
1.27675853627e-10
7.31419972707e-05
-7.75986168291e-10
7.31409144863e-05
-1.15915869305e-09
7.31397997999e-05
-1.24457976424e-09
7.31387725263e-05
-1.17070121474e-09
7.31378850097e-05
-1.02221252379e-09
7.31371511239e-05
-8.49464654462e-10
7.31365635147e-05
-6.79716143974e-10
7.31361048892e-05
-5.2669552287e-10
7.31357544467e-05
-3.95819766973e-10
7.31354916542e-05
-2.87690249687e-10
7.31352981632e-05
-2.0023216289e-10
7.31351582493e-05
-1.30512650332e-10
7.31350585859e-05
-7.52779292599e-11
7.31349865539e-05
-3.1035851672e-11
7.31349327876e-05
5.53441165294e-12
7.31349022918e-05
3.13841070778e-11
7.31348784163e-05
5.3342908866e-11
7.31348607613e-05
7.27242147112e-11
7.31348479034e-05
9.04589711625e-11
7.3134838042e-05
1.07152984769e-10
7.31348298225e-05
1.23477153937e-10
7.31348222253e-05
1.39717604149e-10
7.31348144724e-05
1.55886063492e-10
7.31348060014e-05
1.71698684685e-10
7.3134796482e-05
1.86549090149e-10
7.31347859089e-05
1.99545357022e-10
7.31347745023e-05
2.09664089757e-10
7.31347624583e-05
2.15122790589e-10
7.3134749957e-05
2.13474170513e-10
7.31347373429e-05
2.01501681876e-10
7.31347253368e-05
1.75071846397e-10
7.31347149237e-05
1.2973503868e-10
7.31346982129e-05
6.4006214238e-11
7.31346756446e-05
-6.75952285954e-11
7.31346346346e-05
-3.33596773891e-10
7.31345689793e-05
-7.04689134527e-10
7.31344554037e-05
-1.23583337004e-09
7.31342509505e-05
-1.99453600058e-09
7.31338877528e-05
-3.07206421006e-09
7.31332510838e-05
-4.60239757819e-09
7.31321479644e-05
-6.78089471403e-09
7.31302568477e-05
-9.88944866931e-09
7.31270500846e-05
-1.43466303693e-08
7.31216731749e-05
-2.07808618298e-08
7.31127145762e-05
-3.00793843688e-08
7.30978709212e-05
-4.35674252621e-08
7.30734355364e-05
-6.3258846641e-08
7.30335138633e-05
-9.22233528191e-08
7.29685971207e-05
-1.34546216384e-07
7.28636738903e-05
-1.96042420201e-07
7.26955872854e-05
-2.84453372975e-07
7.24298515007e-05
-4.09064787055e-07
7.20181277131e-05
-5.78957431481e-07
7.13992524736e-05
-7.98765116924e-07
7.05077226589e-05
-1.06284857759e-06
-1.34612933691e-06
6.92989767848e-05
5.07871727896e-05
5.46051453674e-11
5.29516504039e-05
5.27122526213e-11
5.59606894299e-05
2.86270104754e-11
5.92633233306e-05
1.41858782213e-11
6.24488104413e-05
2.94365089791e-12
6.52735516093e-05
-5.61534248302e-12
6.76333318785e-05
-1.12504572817e-11
6.95186682558e-05
-1.39385592301e-11
7.09734528152e-05
-1.41517120557e-11
7.2064798505e-05
-1.252454552e-11
7.28642697071e-05
-9.71465177042e-12
7.34378216253e-05
-6.3821293741e-12
7.38414770789e-05
-3.1707030265e-12
7.41203638338e-05
-6.92053434922e-13
7.43094839822e-05
4.90464548722e-13
7.44352124659e-05
-5.93121706811e-15
7.45169635269e-05
-2.4321982908e-12
7.45687443813e-05
-6.53607598823e-12
7.46004805266e-05
-1.16708495991e-11
7.46190860298e-05
-1.6850835714e-11
7.46292961139e-05
-2.09234300296e-11
7.46342970146e-05
-2.27689565377e-11
7.46361917714e-05
-2.18830824375e-11
7.46363388462e-05
-1.95221331983e-11
7.46355797003e-05
-1.68577507074e-11
7.46344340787e-05
-1.34672437105e-11
7.46331991731e-05
-9.59005870484e-12
7.46320338634e-05
-5.35429332405e-12
7.46310118594e-05
-3.2129029317e-13
7.46301582148e-05
3.84497957356e-12
7.46294694511e-05
8.58945331609e-12
7.46289286832e-05
1.36039396264e-11
7.46285135681e-05
1.88826280946e-11
7.46282010958e-05
2.45173752264e-11
7.46279700123e-05
3.06675205667e-11
7.46278019063e-05
3.74139862456e-11
7.46276815655e-05
4.48057087613e-11
7.46275972812e-05
5.27996135479e-11
7.46275406056e-05
6.12965136486e-11
7.46275007466e-05
7.02208255232e-11
7.46274738334e-05
7.94315414376e-11
7.46274559663e-05
8.98944132427e-11
7.4627444444e-05
1.01648008947e-10
7.462743706e-05
1.14559711127e-10
7.46274321737e-05
1.28606720861e-10
7.46274285844e-05
1.43632404873e-10
7.46274253909e-05
1.59316970539e-10
7.46274219249e-05
1.75153828233e-10
7.46274177084e-05
1.90428584285e-10
7.46274124371e-05
2.04212403415e-10
7.46274060759e-05
2.15337971407e-10
7.46273985221e-05
2.220424183e-10
7.46273894771e-05
2.21971518978e-10
7.46273782322e-05
2.12281872806e-10
7.46273636103e-05
1.89399660548e-10
7.46273440282e-05
1.49670186915e-10
7.46273186482e-05
8.90991065518e-11
7.46272724926e-05
-2.2553926434e-11
7.46271845494e-05
-2.46194288689e-10
7.46270488447e-05
-5.69957862523e-10
7.46268258974e-05
-1.01416001617e-09
7.46264555394e-05
-1.62512256926e-09
7.46258415309e-05
-2.45872448629e-09
7.46248273088e-05
-3.58851225408e-09
7.46231578412e-05
-5.11153559752e-09
7.46204167993e-05
-7.14843598197e-09
7.46159369019e-05
-9.86694447771e-09
7.46086611973e-05
-1.3505507442e-08
7.4596854945e-05
-1.82735818216e-08
7.4577719154e-05
-2.44320847284e-08
7.45468355444e-05
-3.23755348283e-08
7.44974798698e-05
-4.28676776158e-08
7.44189231106e-05
-5.5989244534e-08
7.42947764695e-05
-7.18954606268e-08
7.41006758457e-05
-9.03522476133e-08
7.38018260729e-05
-1.10214690771e-07
7.33515978713e-05
-1.28729198246e-07
7.2693563797e-05
-1.40731095938e-07
7.17697535268e-05
-1.39038384218e-07
-1.15168905435e-07
7.053879324e-05
5.07871717637e-05
-7.87116964895e-07