/*--------------------------------*- C++ -*----------------------------------*\
| =========                 |                                                 |
| \\      /  F ield         | OpenFOAM: The Open Source CFD Toolbox           |
|  \\    /   O peration     | Version:  2106                                  |
|   \\  /    A nd           | Website:  www.openfoam.com                      |
|    \\/     M anipulation  |                                                 |
\*---------------------------------------------------------------------------*/
FoamFile
{
    version     2.0;
    format      ascii;
    arch        "LSB;label=32;scalar=64";
    class       volVectorField;
    location    "0.235";
    object      U;
}
// * * * * * * * * * * * * * * * * * * * * * * * * * * * * * * * * * * * * * //

dimensions      [0 1 -1 0 0 0 0];

internalField   nonuniform List<vector> 
11200
(
(0.662462404103 0.15056944303 0)
(0.558948675187 0.103243389171 0)
(0.383850741722 0.0513512251491 0)
(0.283747602238 0.0248708561469 0)
(0.232075280058 0.0124170460293 0)
(0.201908600083 0.00662281755028 0)
(0.183197949856 0.00380291504438 0)
(0.171276508859 0.00231587061993 0)
(0.163510329607 0.00146450705869 0)
(0.158388795566 0.000944892870417 0)
(0.155006659086 0.000615177300321 0)
(0.152786705828 0.000402234166158 0)
(0.151346557026 0.000264232525347 0)
(0.150428320947 0.00017525039773 0)
(0.149856717312 0.000118360854702 0)
(0.149512516353 8.21600810011e-05 0)
(0.149314955882 5.88658955575e-05 0)
(0.149209593541 4.33156069556e-05 0)
(0.149159733352 3.29345791936e-05 0)
(0.149142491733 2.81860152076e-05 0)
(0.149144644289 2.76839670674e-05 0)
(0.149156915525 2.988964306e-05 0)
(0.149172531744 3.30500547586e-05 0)
(0.149188073138 3.59656870389e-05 0)
(0.149202275312 3.86012258355e-05 0)
(0.149214538354 4.10403212454e-05 0)
(0.149224694564 4.33176223223e-05 0)
(0.149232850747 4.54642823361e-05 0)
(0.149239243511 4.75195613431e-05 0)
(0.149244154786 4.95305085446e-05 0)
(0.149247869573 5.155915627e-05 0)
(0.149250655317 5.3696492723e-05 0)
(0.149252709148 5.60251191577e-05 0)
(0.149254201293 5.84065564803e-05 0)
(0.1492552644 6.07675889157e-05 0)
(0.149255985003 6.30886963102e-05 0)
(0.149256459903 6.53801491849e-05 0)
(0.14925677271 6.7654864704e-05 0)
(0.149256977066 6.99244227795e-05 0)
(0.149257102123 7.21949583872e-05 0)
(0.149257168793 7.44675780093e-05 0)
(0.14925719426 7.67432576009e-05 0)
(0.149257190572 7.9021692407e-05 0)
(0.149257166396 8.13017477045e-05 0)
(0.149257127851 8.35816889958e-05 0)
(0.149257079456 8.58591448812e-05 0)
(0.149257025093 8.81313033865e-05 0)
(0.149256968656 9.03951238836e-05 0)
(0.149256914469 9.26475090844e-05 0)
(0.149256867603 9.4885388773e-05 0)
(0.149256834996 9.71056729217e-05 0)
(0.149256826453 9.93054459618e-05 0)
(0.149256855386 0.000101481731273 0)
(0.149256940186 0.000103631216277 0)
(0.149257106496 0.000105749731873 0)
(0.149257390735 0.000107831704795 0)
(0.149257843416 0.000109870433848 0)
(0.149258538474 0.000111855992913 0)
(0.149259585195 0.000113775674885 0)
(0.149261141498 0.000115605235018 0)
(0.149263450395 0.000117289716388 0)
(0.149266919953 0.000118742303101 0)
(0.149272024237 0.000120001703752 0)
(0.149279406927 0.000121257902941 0)
(0.149290098 0.000122969125645 0)
(0.149305616833 0.000125336300453 0)
(0.14932834676 0.000128118075054 0)
(0.149361984663 0.00013108461621 0)
(0.149412126014 0.000134018595725 0)
(0.149487006547 0.000136804970523 0)
(0.149598574125 0.000140718768732 0)
(0.149769673709 0.000151584177794 0)
(0.150038106133 0.000172336190939 0)
(0.150467084312 0.000202626170858 0)
(0.151192495976 0.000232593773461 0)
(0.152492201006 0.000191767020095 0)
(0.155022782298 -0.000217099935485 0)
(0.162379791546 -0.00211256078466 0)
(0.187724536151 -0.0108008859028 0)
(0.204446864613 -0.0497265533304 0)
(0.965408254934 0.289214707542 0)
(0.961962862002 0.252656041264 0)
(0.823574396192 0.159021443126 0)
(0.69813937425 0.0959957327193 0)
(0.61022546995 0.0582481155814 0)
(0.548971498206 0.0362148545545 0)
(0.506588895175 0.0231612864102 0)
(0.477567274383 0.0151375165242 0)
(0.457745495725 0.0100177563205 0)
(0.444228462911 0.00665814231463 0)
(0.435053298754 0.00441555736967 0)
(0.42887311614 0.00290686687295 0)
(0.424754197457 0.00189105931951 0)
(0.422046644934 0.00121004607776 0)
(0.420297805174 0.000757163970813 0)
(0.419193193495 0.000459256210168 0)
(0.418515585894 0.000265854896575 0)
(0.418116436742 0.000142399549032 0)
(0.417895831095 6.6109440242e-05 0)
(0.417786778139 2.30919001175e-05 0)
(0.417745361731 1.40701855443e-06 0)
(0.417742082845 -1.01637055194e-05 0)
(0.417756679504 -1.37152468611e-05 0)
(0.417778637356 -1.32687611496e-05 0)
(0.417802931159 -1.08365616013e-05 0)
(0.417826301631 -7.49348692096e-06 0)
(0.417847055427 -3.87708172702e-06 0)
(0.417864593802 -3.57432974679e-07 0)
(0.417878920569 2.86397574513e-06 0)
(0.417890351061 5.68322635159e-06 0)
(0.41789935702 8.03594184105e-06 0)
(0.417906431767 9.83768692815e-06 0)
(0.417911777318 1.10064433874e-05 0)
(0.41791562763 1.18589737325e-05 0)
(0.417918360524 1.26809185336e-05 0)
(0.417920251029 1.3437816483e-05 0)
(0.417921541353 1.41117828031e-05 0)
(0.41792242278 1.47271033148e-05 0)
(0.417923021523 1.53127023794e-05 0)
(0.417923409182 1.58821459403e-05 0)
(0.417923638406 1.64358641759e-05 0)
(0.417923752446 1.6978966352e-05 0)
(0.417923781842 1.75151207258e-05 0)
(0.417923748943 1.80476963726e-05 0)
(0.417923669759 1.85798309772e-05 0)
(0.417923556221 1.91138734697e-05 0)
(0.417923418625 1.96517738421e-05 0)
(0.417923267274 2.01955344757e-05 0)
(0.417923113524 2.07473488245e-05 0)
(0.417922970708 2.13087794174e-05 0)
(0.417922856745 2.18799579511e-05 0)
(0.417922796458 2.24610836366e-05 0)
(0.417922823597 2.30522015837e-05 0)
(0.417922984425 2.36529240606e-05 0)
(0.417923343528 2.42623216384e-05 0)
(0.417923993457 2.48791944868e-05 0)
(0.417925063956 2.55029173091e-05 0)
(0.41792674542 2.61210988375e-05 0)
(0.417929314801 2.67151686497e-05 0)
(0.417933160509 2.72552732023e-05 0)
(0.417938874491 2.76960924755e-05 0)
(0.417947552899 2.79777258785e-05 0)
(0.417960692397 2.8260580975e-05 0)
(0.417980422333 2.78296470587e-05 0)
(0.418009520181 2.52680148694e-05 0)
(0.418051590996 1.94699937587e-05 0)
(0.418112802123 9.63272399178e-06 0)
(0.418203275736 -5.77292505522e-06 0)
(0.418338624066 -2.92722021822e-05 0)
(0.418543761059 -6.45512965258e-05 0)
(0.418860621168 -0.000115813222817 0)
(0.419358880466 -0.000188044599357 0)
(0.420152138516 -0.000307960817917 0)
(0.421444291186 -0.000533210621829 0)
(0.423627462115 -0.00100078009871 0)
(0.427421322125 -0.0020928151733 0)
(0.434250094961 -0.00486221879377 0)
(0.448293389737 -0.01226948427 0)
(0.474710557191 -0.0342857193514 0)
(0.47831027228 -0.0989095999708 0)
(1.02222096605 0.238416187626 0)
(1.08213753268 0.29592665326 0)
(1.03447723189 0.239503067092 0)
(0.954615416606 0.174290165158 0)
(0.879992064767 0.121345469111 0)
(0.81861444625 0.0830993848527 0)
(0.771410862591 0.056731667922 0)
(0.736634403981 0.0387409694039 0)
(0.711624447218 0.0264327879374 0)
(0.693916636794 0.0179731056615 0)
(0.681541428401 0.0121424488991 0)
(0.67300013712 0.00812490910464 0)
(0.667180672936 0.00536632186821 0)
(0.663271703498 0.00348444547153 0)
(0.660688532424 0.00221256210756 0)
(0.659014207875 0.00136338227975 0)
(0.657954526409 0.000805244115142 0)
(0.657304232643 0.000445916788062 0)
(0.656921812907 0.00022106845001 0)
(0.656710245955 8.55809236895e-05 0)
(0.656603380033 8.35740318713e-06 0)
(0.656561829141 -3.37203061436e-05 0)
(0.656557926452 -5.6854867203e-05 0)
(0.656571399664 -6.68740959719e-05 0)
(0.656592926677 -6.84816029154e-05 0)
(0.656616743973 -6.55601988908e-05 0)
(0.656639544291 -6.05492094907e-05 0)
(0.656659720769 -5.48593098141e-05 0)
(0.656676688121 -4.92749839927e-05 0)
(0.656690424113 -4.42032453742e-05 0)
(0.656701175133 -3.98390103803e-05 0)
(0.656709325534 -3.63007758353e-05 0)
(0.656715571386 -3.369444262e-05 0)
(0.656720602805 -3.18557118832e-05 0)
(0.656724463105 -3.08091265713e-05 0)
(0.656727167473 -3.03020739949e-05 0)
(0.656729027754 -3.02467098973e-05 0)
(0.6567303234 -3.05575662981e-05 0)
(0.656731221703 -3.10849592801e-05 0)
(0.656731812559 -3.17465554674e-05 0)
(0.656732170199 -3.25127794172e-05 0)
(0.656732359745 -3.33485207689e-05 0)
(0.656732426227 -3.42292850391e-05 0)
(0.656732403531 -3.51357597234e-05 0)
(0.656732316087 -3.60525448188e-05 0)
(0.656732182156 -3.69689008486e-05 0)
(0.656732017647 -3.78773736397e-05 0)
(0.656731838308 -3.87724988284e-05 0)
(0.656731660447 -3.96492410336e-05 0)
(0.65673150188 -4.05025429554e-05 0)
(0.656731387262 -4.13285450805e-05 0)
(0.656731352031 -4.21231512884e-05 0)
(0.656731444752 -4.28843837118e-05 0)
(0.656731732888 -4.36147167414e-05 0)
(0.656732312095 -4.43263635447e-05 0)
(0.656733320222 -4.50500351745e-05 0)
(0.656734943053 -4.5837093529e-05 0)
(0.656737451788 -4.67837459069e-05 0)
(0.656741254092 -4.80174544016e-05 0)
(0.656746948829 -4.97496235498e-05 0)
(0.656755449727 -5.24746233257e-05 0)
(0.656768401995 -5.72511824052e-05 0)
(0.656787165783 -6.48380757319e-05 0)
(0.656813170943 -7.61278435249e-05 0)
(0.65685020264 -9.27957055012e-05 0)
(0.656904970165 -0.000117258540896 0)
(0.656986879954 -0.000152715922546 0)
(0.657109727715 -0.000204457486509 0)
(0.657295340293 -0.000281014898403 0)
(0.657579141166 -0.000396286093355 0)
(0.658019322756 -0.00057466153903 0)
(0.658705200214 -0.000863476882353 0)
(0.659784041508 -0.00135294270225 0)
(0.661513783439 -0.00221643194863 0)
(0.664337334903 -0.00381701173834 0)
(0.668951831632 -0.00695464321143 0)
(0.676385662583 -0.0133707186355 0)
(0.688651017553 -0.0268829509502 0)
(0.705314000354 -0.0564081732749 0)
(0.700625274815 -0.113288261968 0)
(1.02251475515 0.17080715285 0)
(1.10138975997 0.276496478892 0)
(1.11752426608 0.266664799519 0)
(1.09214661213 0.219901699278 0)
(1.05187816388 0.168168847946 0)
(1.01020823294 0.123567396999 0)
(0.973494699417 0.0888375219124 0)
(0.943864564256 0.0630063720034 0)
(0.921142807219 0.0442232046507 0)
(0.904284079662 0.0307423933984 0)
(0.892074875105 0.0211562948402 0)
(0.883404516456 0.0143954692878 0)
(0.877352676092 0.00966794897126 0)
(0.873197712916 0.00639383791281 0)
(0.870392935858 0.00415116543348 0)
(0.868534046634 0.00263449133749 0)
(0.867327649086 0.00162401755082 0)
(0.866564245024 0.000962675851795 0)
(0.866096486416 0.000539121931852 0)
(0.865822242776 0.00027515287451 0)
(0.865671397549 0.000117067473257 0)
(0.865595145514 2.87914500514e-05 0)
(0.865564085982 -1.93256973965e-05 0)
(0.865561276383 -4.12620560506e-05 0)
(0.865572618926 -4.76661581946e-05 0)
(0.865589624112 -4.55255075323e-05 0)
(0.865607932984 -3.91559285717e-05 0)
(0.865625271586 -3.11449071229e-05 0)
(0.865640556029 -2.29635515165e-05 0)
(0.865653419232 -1.53795180931e-05 0)
(0.865663892745 -8.72149877336e-06 0)
(0.865672180036 -3.04221912906e-06 0)
(0.865678533403 1.73657976725e-06 0)
(0.865683160652 5.46775263681e-06 0)
(0.865686479633 8.03474109162e-06 0)
(0.865688877208 9.79169796618e-06 0)
(0.86569050841 1.11455447712e-05 0)
(0.865691669594 1.22906308417e-05 0)
(0.86569253614 1.3259862347e-05 0)
(0.865693126587 1.41467031321e-05 0)
(0.865693489033 1.49424313027e-05 0)
(0.865693687701 1.5669759809e-05 0)
(0.865693761346 1.63442241948e-05 0)
(0.865693741321 1.69823500851e-05 0)
(0.86569364956 1.75987884631e-05 0)
(0.865693501916 1.82038429733e-05 0)
(0.865693313207 1.88053441656e-05 0)
(0.865693100083 1.94105381619e-05 0)
(0.865692882334 2.00291139867e-05 0)
(0.865692682559 2.06652590282e-05 0)
(0.865692531186 2.13060281251e-05 0)
(0.865692469439 2.19397441953e-05 0)
(0.865692550807 2.25503568396e-05 0)
(0.865692845457 2.31119815701e-05 0)
(0.865693445533 2.35857285703e-05 0)
(0.865694484545 2.39280620235e-05 0)
(0.865696142654 2.41188192607e-05 0)
(0.865698701281 2.40351239333e-05 0)
(0.865702570133 2.35192557555e-05 0)
(0.865708178144 2.21740819218e-05 0)
(0.865715924889 1.94112550612e-05 0)
(0.865727453968 1.45964472107e-05 0)
(0.865745385724 5.87405277978e-06 0)
(0.865772656001 -8.40052524355e-06 0)
(0.865813152558 -3.02203351362e-05 0)
(0.865872781065 -6.35170203426e-05 0)
(0.865960871262 -0.00011517339795 0)
(0.866091932942 -0.000195965813249 0)
(0.866288523443 -0.000323178461906 0)
(0.866585486712 -0.000525329833412 0)
(0.867036484502 -0.000851443615635 0)
(0.86772669388 -0.00138858667095 0)
(0.868792668204 -0.00228577669326 0)
(0.870448036194 -0.00381806250676 0)
(0.873012353389 -0.00651058706129 0)
(0.876885655706 -0.011374551713 0)
(0.882392244822 -0.020282709873 0)
(0.889717785441 -0.036513255239 0)
(0.896419519723 -0.0656128794234 0)
(0.886623268934 -0.110281075615 0)
(1.01287875131 0.118961023774 0)
(1.08820670948 0.23180693732 0)
(1.13741367411 0.25310676511 0)
(1.15409087101 0.228992754167 0)
(1.14994211295 0.188368359656 0)
(1.13538465886 0.146579844928 0)
(1.11758895214 0.110150966692 0)
(1.10059500602 0.0808162231354 0)
(1.08612457511 0.0582265774423 0)
(1.07459092838 0.0413189860425 0)
(1.06579147059 0.0289160212617 0)
(1.05928799287 0.019960100995 0)
(1.05459976771 0.0135815610769 0)
(1.05129076949 0.00909744405384 0)
(1.0489998515 0.00598615474278 0)
(1.04744340803 0.00385696711292 0)
(1.04640653413 0.00242159855847 0)
(1.04573061819 0.0014701506719 0)
(1.04530106187 0.000851702391176 0)
(1.0450365635 0.00045901672842 0)
(1.04488019957 0.000216757175674 0)
(1.04479258189 7.30180333814e-05 0)
(1.04474871541 -5.5038238824e-06 0)
(1.0447318148 -4.40080114353e-05 0)
(1.04472956299 -5.93850831323e-05 0)
(1.04473504601 -6.17186560367e-05 0)
(1.04474399316 -5.72449788987e-05 0)
(1.04475387647 -4.98029641288e-05 0)
(1.04476331625 -4.16436579746e-05 0)
(1.04477164232 -3.39880410519e-05 0)
(1.04477860429 -2.74224766775e-05 0)
(1.0447841895 -2.21504676363e-05 0)
(1.04478854403 -1.812703575e-05 0)
(1.04479187901 -1.51381849503e-05 0)
(1.0447944491 -1.28066914463e-05 0)
(1.04479654784 -1.10100523329e-05 0)
(1.04479828632 -9.52044726762e-06 0)
(1.04479960989 -8.23030512675e-06 0)
(1.0448005887 -7.21105333494e-06 0)
(1.04480127363 -6.54212820722e-06 0)
(1.04480168642 -6.1622697309e-06 0)
(1.04480191364 -5.95313495748e-06 0)
(1.04480200076 -5.86445606684e-06 0)
(1.04480198617 -5.84577969032e-06 0)
(1.04480189445 -5.85702196442e-06 0)
(1.0448017433 -5.87865549975e-06 0)
(1.04480155079 -5.90132209135e-06 0)
(1.04480133897 -5.92203810287e-06 0)
(1.04480112708 -5.94709896573e-06 0)
(1.04480092108 -5.98128095252e-06 0)
(1.04480074146 -6.00983597364e-06 0)
(1.04480063226 -6.03181391516e-06 0)
(1.0448006465 -6.05354730271e-06 0)
(1.04480085571 -6.08902971421e-06 0)
(1.04480137331 -6.17128908218e-06 0)
(1.04480239949 -6.39672477443e-06 0)
(1.04480412101 -7.0356537434e-06 0)
(1.04480679715 -8.36861838657e-06 0)
(1.04481075403 -1.08768648816e-05 0)
(1.04481645277 -1.46850649014e-05 0)
(1.0448249276 -1.96470885639e-05 0)
(1.04483732352 -2.58212075037e-05 0)
(1.04485487327 -3.55394896443e-05 0)
(1.04487989675 -5.1775199854e-05 0)
(1.04491586212 -7.87609745988e-05 0)
(1.04496791015 -0.000122752986976 0)
(1.04504363816 -0.000193534430683 0)
(1.04515438807 -0.000306700923659 0)
(1.04531730226 -0.000487450234652 0)
(1.04555825046 -0.000776868536668 0)
(1.04591594668 -0.00124238681986 0)
(1.04644831362 -0.00199582763969 0)
(1.04723958958 -0.00322807726492 0)
(1.04840295786 -0.00527054540173 0)
(1.05006614308 -0.00870122028568 0)
(1.05228644732 -0.0145159568441 0)
(1.05482070929 -0.024325707088 0)
(1.0568800126 -0.0404475092319 0)
(1.0557577712 -0.0657328875665 0)
(1.04215000698 -0.0997035138602 0)
(1.00447483475 0.0814039978742 0)
(1.06917237426 0.181288539421 0)
(1.13080568891 0.216950419225 0)
(1.17375000671 0.210789156025 0)
(1.19865265561 0.183690077384 0)
(1.2101998847 0.149751683875 0)
(1.21350256302 0.116779144634 0)
(1.2125172467 0.0882206783496 0)
(1.20973098977 0.0650481513211 0)
(1.20651120347 0.0470209092111 0)
(1.2035191408 0.0334068087821 0)
(1.20101146008 0.0233557327385 0)
(1.19903445982 0.0160720139893 0)
(1.19753878832 0.0108795138149 0)
(1.19644132349 0.00723418811183 0)
(1.19565559426 0.00471351853266 0)
(1.19510489783 0.00299762922361 0)
(1.19472648409 0.00184916112356 0)
(1.1944715022 0.00109496083244 0)
(1.19430319082 0.000610611914553 0)
(1.19419455027 0.000307987235864 0)
(1.19412626415 0.000125769297621 0)
(1.19408521267 2.22240783968e-05 0)
(1.19406195191 -3.24508868547e-05 0)
(1.19404964948 -5.72694495361e-05 0)
(1.19404414856 -6.45950734962e-05 0)
(1.19404264843 -6.23730961966e-05 0)
(1.19404333066 -5.55183974642e-05 0)
(1.19404507958 -4.6941295123e-05 0)
(1.19404723696 -3.82552226893e-05 0)
(1.19404943048 -3.02612753335e-05 0)
(1.19405146808 -2.32644459874e-05 0)
(1.1940532807 -1.72882672805e-05 0)
(1.19405486269 -1.22591804774e-05 0)
(1.19405623015 -8.07076635878e-06 0)
(1.19405740219 -4.66896184881e-06 0)
(1.19405835112 -2.05782319412e-06 0)
(1.19405902343 -1.68364620229e-07 0)
(1.19405937871 1.14902892872e-06 0)
(1.19405949312 2.00582462389e-06 0)
(1.19405954755 2.6856318417e-06 0)
(1.19405957754 3.29045429345e-06 0)
(1.19405955783 3.82002011398e-06 0)
(1.1940595051 4.28279480431e-06 0)
(1.19405941366 4.69084538457e-06 0)
(1.19405927403 5.06108029249e-06 0)
(1.19405908807 5.4053139429e-06 0)
(1.19405886113 5.72551333921e-06 0)
(1.19405860862 6.01045379547e-06 0)
(1.19405837276 6.25361930242e-06 0)
(1.19405819328 6.47681795478e-06 0)
(1.1940581006 6.67168780035e-06 0)
(1.19405814496 6.81195989071e-06 0)
(1.19405838801 6.85754899461e-06 0)
(1.19405887491 6.75150263612e-06 0)
(1.19405957593 6.41082672192e-06 0)
(1.19406055814 5.66470264072e-06 0)
(1.19406198295 4.17991335353e-06 0)
(1.19406445763 1.47148003599e-06 0)
(1.1940690329 -2.70444157158e-06 0)
(1.19407633812 -9.11661802042e-06 0)
(1.19408627106 -1.91840705736e-05 0)
(1.19409954134 -3.48963146563e-05 0)
(1.19411813654 -5.91646100842e-05 0)
(1.19414418419 -9.65740031688e-05 0)
(1.19418049367 -0.000154443203351 0)
(1.19423104377 -0.000244430876041 0)
(1.19430145386 -0.00038503535409 0)
(1.19439958925 -0.000605754598381 0)
(1.1945362076 -0.000954001104415 0)
(1.19472535479 -0.00150642967711 0)
(1.1949838038 -0.00238752796594 0)
(1.19532636273 -0.00380093453374 0)
(1.19575031446 -0.00608031009648 0)
(1.19619537155 -0.00976576013367 0)
(1.19644179131 -0.0157032927506 0)
(1.19590248364 -0.0251075832321 0)
(1.19342185171 -0.0394405311478 0)
(1.18666157463 -0.059954751849 0)
(1.17009486229 -0.0853531676196 0)
(0.998962325647 0.0544316256509 0)
(1.05310956918 0.13340160821 0)
(1.11628268384 0.170777558747 0)
(1.17301272184 0.175143872506 0)
(1.21791246562 0.159583606797 0)
(1.25049858295 0.134951020585 0)
(1.27288491622 0.108411657356 0)
(1.28776722674 0.083884972377 0)
(1.29745268601 0.0630565729478 0)
(1.30366075709 0.0462999220198 0)
(1.30759235087 0.0333205155038 0)
(1.31005370948 0.0235495247348 0)
(1.31157363426 0.0163599084496 0)
(1.31249493781 0.0111713157383 0)
(1.31303863165 0.00749150713734 0)
(1.31334672409 0.00492448613476 0)
(1.31351013878 0.00316295523659 0)
(1.31358676947 0.00197475164274 0)
(1.31361314658 0.00118819643957 0)
(1.31361199786 0.000678628646402 0)
(1.31359716108 0.000357007705018 0)
(1.31357684079 0.00016075337991 0)
(1.31355584728 4.64686994852e-05 0)
(1.31353655264 -1.58695905854e-05 0)
(1.31351989554 -4.60579065126e-05 0)
(1.3135062078 -5.70677144917e-05 0)
(1.31349530448 -5.73222095104e-05 0)
(1.31348684846 -5.20834903616e-05 0)
(1.31348045155 -4.45208972826e-05 0)
(1.31347572857 -3.645883743e-05 0)
(1.31347232851 -2.88703856797e-05 0)
(1.31346994836 -2.22090524555e-05 0)
(1.31346832852 -1.66262790139e-05 0)
(1.31346724066 -1.21295487132e-05 0)
(1.31346651923 -8.65308519613e-06 0)
(1.31346606676 -6.09531561556e-06 0)
(1.31346578201 -4.31907258719e-06 0)
(1.31346557564 -3.11667507211e-06 0)
(1.31346544559 -2.25839648659e-06 0)
(1.31346547738 -1.54005132332e-06 0)
(1.31346563254 -9.63311404297e-07 0)
(1.31346573263 -5.48748454333e-07 0)
(1.31346572629 -1.8595601361e-07 0)
(1.31346564581 1.53257818717e-07 0)
(1.31346551303 4.67082852072e-07 0)
(1.31346533999 7.64523708351e-07 0)
(1.31346512958 1.05802815611e-06 0)
(1.31346488376 1.35944482306e-06 0)
(1.3134646148 1.68137816154e-06 0)
(1.313464356 2.01919680084e-06 0)
(1.31346412689 2.32489835097e-06 0)
(1.31346393531 2.56255095177e-06 0)
(1.31346381218 2.68871734996e-06 0)
(1.31346380922 2.63967301651e-06 0)
(1.31346401195 2.32717725433e-06 0)
(1.31346453927 1.6550346498e-06 0)
(1.31346539442 5.76159902234e-07 0)
(1.31346659883 -1.11281434092e-06 0)
(1.31346858684 -3.56510954042e-06 0)
(1.31347163005 -7.5111002609e-06 0)
(1.31347588423 -1.42568352639e-05 0)
(1.31348158366 -2.54001394631e-05 0)
(1.31348899082 -4.25210375103e-05 0)
(1.31349858593 -6.87811177092e-05 0)
(1.31351067997 -0.000109208942866 0)
(1.31352534012 -0.000171552175914 0)
(1.31354217062 -0.000267905792592 0)
(1.31355984067 -0.000417235368302 0)
(1.31357512212 -0.000649388264995 0)
(1.31358105623 -0.00101165992403 0)
(1.31356355928 -0.00157919527479 0)
(1.31349512088 -0.00247119090888 0)
(1.31332135681 -0.00387527184391 0)
(1.3129345012 -0.00608445909222 0)
(1.3121242475 -0.00954433606803 0)
(1.31048466453 -0.0148982750922 0)
(1.30726129506 -0.0229775507409 0)
(1.30124237598 -0.0346272531267 0)
(1.29055588351 -0.050291586561 0)
(1.27172158051 -0.0687525466791 0)
(0.99573607417 0.0346338600979 0)
(1.0417951453 0.0905689216402 0)
(1.10222839092 0.121549565418 0)
(1.16491412226 0.12960583451 0)
(1.22202567117 0.122009268894 0)
(1.26951893012 0.106019938888 0)
(1.30680224952 0.0870975565981 0)
(1.33499536721 0.0686366817855 0)
(1.35574479035 0.0523698398308 0)
(1.37069618555 0.0389256187862 0)
(1.3812827753 0.0282980741923 0)
(1.38866269885 0.0201712778739 0)
(1.3937303566 0.0141175109537 0)
(1.39715663184 0.00970533636593 0)
(1.39943437438 0.00655059540533 0)
(1.4009196971 0.00433445458923 0)
(1.40186624418 0.00280414468746 0)
(1.40245226549 0.00176574279081 0)
(1.40280136393 0.00107419477115 0)
(1.40299806167 0.000623234679102 0)
(1.40309928387 0.000336408921531 0)
(1.40314273822 0.000159622942827 0)
(1.40315299981 5.51641742097e-05 0)
(1.4031455119 -2.99792712259e-06 0)
(1.40312975361 -3.21220120519e-05 0)
(1.4031113529 -4.38892315845e-05 0)
(1.40309331675 -4.57591807991e-05 0)
(1.40307716973 -4.24169436091e-05 0)
(1.40306351343 -3.67260002849e-05 0)
(1.40305242158 -3.03631185728e-05 0)
(1.40304369245 -2.42429387083e-05 0)
(1.40303700068 -1.88125754944e-05 0)
(1.40303198492 -1.42404489999e-05 0)
(1.40302829518 -1.05286585771e-05 0)
(1.40302563346 -7.57654291389e-06 0)
(1.40302376752 -5.2592323722e-06 0)
(1.40302252089 -3.45388420177e-06 0)
(1.40302174287 -2.01677891803e-06 0)
(1.40302126767 -8.43440303753e-07 0)
(1.40302089983 8.96742057874e-08 0)
(1.40302057238 8.00218120604e-07 0)
(1.40302036829 1.29085880776e-06 0)
(1.40302027352 1.66424479444e-06 0)
(1.40302019511 1.98642849734e-06 0)
(1.40302009876 2.29473212748e-06 0)
(1.40301997753 2.60724887685e-06 0)
(1.40301982979 2.93347381209e-06 0)
(1.40301965729 3.27842567539e-06 0)
(1.40301946018 3.64355696076e-06 0)
(1.40301923115 4.01675104243e-06 0)
(1.40301898317 4.35761479059e-06 0)
(1.40301874998 4.63595528433e-06 0)
(1.40301855943 4.81400324216e-06 0)
(1.40301843769 4.83472926922e-06 0)
(1.40301840511 4.61088418024e-06 0)
(1.40301846495 3.99967361174e-06 0)
(1.4030185959 2.79493084664e-06 0)
(1.40301886351 8.77926907289e-07 0)
(1.40301944669 -2.09268593369e-06 0)
(1.4030204592 -6.96989244126e-06 0)
(1.40302184184 -1.45326545687e-05 0)
(1.40302325458 -2.60948087013e-05 0)
(1.40302419706 -4.34972553946e-05 0)
(1.40302391379 -6.97152076708e-05 0)
(1.40302090454 -0.000109333741983 0)
(1.40301240871 -0.000169378234994 0)
(1.40299360309 -0.000260736837281 0)
(1.40295627695 -0.000400273404948 0)
(1.40288642604 -0.000614060821575 0)
(1.40276023406 -0.000942771774452 0)
(1.40253762248 -0.00144988183372 0)
(1.40215208246 -0.00223386254541 0)
(1.40149170951 -0.00344409867193 0)
(1.40036771447 -0.00530487872711 0)
(1.39846611098 -0.00813990881624 0)
(1.39527255527 -0.0123854616686 0)
(1.389971965 -0.0185548291931 0)
(1.38141288719 -0.0270892534957 0)
(1.3680937522 -0.0380753333926 0)
(1.34761343381 -0.050626618675 0)
(0.994011531371 0.0192358062234 0)
(1.0348476373 0.0523338404426 0)
(1.09199263022 0.0723631274709 0)
(1.1566242047 0.0791292319912 0)
(1.2203211701 0.0761045463601 0)
(1.27701946152 0.0673339715676 0)
(1.32424420009 0.0561509037554 0)
(1.36181574935 0.04479901143 0)
(1.39068532351 0.0345303782201 0)
(1.4122607676 0.0258814332469 0)
(1.42801824075 0.0189465248601 0)
(1.43929886103 0.0135849829204 0)
(1.44722809523 0.00955653495568 0)
(1.45270415184 0.00660011583997 0)
(1.45641897785 0.00447419041046 0)
(1.45889146479 0.00297351342929 0)
(1.46050233104 0.00193276855754 0)
(1.46152572954 0.00122369370564 0)
(1.46215574708 0.000749550590113 0)
(1.46252757363 0.00043901796223 0)
(1.46273385247 0.000240521547782 0)
(1.46283699685 0.000117412542618 0)
(1.46287830081 4.40502392259e-05 0)
(1.46288454117 2.69190257083e-06 0)
(1.4628724179 -1.8443047527e-05 0)
(1.46285206759 -2.74367052092e-05 0)
(1.46282951737 -2.94364067996e-05 0)
(1.46280798012 -2.76862478237e-05 0)
(1.46278898367 -2.418411009e-05 0)
(1.46277307245 -2.01111865586e-05 0)
(1.4627602377 -1.61161083692e-05 0)
(1.46275018508 -1.25216775026e-05 0)
(1.46274250386 -9.45445402715e-06 0)
(1.46273676177 -6.92527424673e-06 0)
(1.4627325601 -4.88040700569e-06 0)
(1.46272955654 -3.25052636315e-06 0)
(1.4627274627 -1.97259436847e-06 0)
(1.46272602139 -1.00547640754e-06 0)
(1.46272502157 -3.03823396715e-07 0)
(1.46272439828 2.19889378738e-07 0)
(1.46272403716 7.04365298392e-07 0)
(1.46272378942 1.18384511572e-06 0)
(1.46272362285 1.6117874767e-06 0)
(1.46272349766 1.99564397066e-06 0)
(1.46272338427 2.35683575032e-06 0)
(1.46272326348 2.70895921112e-06 0)
(1.46272312165 3.0576487907e-06 0)
(1.46272295006 3.40115755288e-06 0)
(1.4627227441 3.73036004738e-06 0)
(1.46272250126 4.03410778241e-06 0)
(1.46272222489 4.30496565468e-06 0)
(1.46272192272 4.51144547953e-06 0)
(1.46272160149 4.60327678133e-06 0)
(1.46272127005 4.51119088723e-06 0)
(1.46272094149 4.14436439246e-06 0)
(1.4627206346 3.39037825984e-06 0)
(1.46272036077 2.12824984475e-06 0)
(1.46272000922 2.77280496072e-07 0)
(1.46271938821 -2.47978277009e-06 0)
(1.46271838205 -6.92456518205e-06 0)
(1.46271673797 -1.38569228439e-05 0)
(1.46271377442 -2.43763766624e-05 0)
(1.46270835921 -4.00182064548e-05 0)
(1.46269867267 -6.31543529201e-05 0)
(1.46268164129 -9.73782311658e-05 0)
(1.46265209436 -0.00014806750478 0)
(1.46260150998 -0.000223426158643 0)
(1.46251610861 -0.00033588120729 0)
(1.46237332975 -0.000504024163615 0)
(1.46213616726 -0.000756327720214 0)
(1.46174463825 -0.00113675747387 0)
(1.46110392357 -0.00171269152373 0)
(1.46006235107 -0.00258016381172 0)
(1.45837831825 -0.0038791169017 0)
(1.45567691198 -0.00580248226857 0)
(1.45139109896 -0.00859427409429 0)
(1.44469789157 -0.0125160484008 0)
(1.43452417021 -0.0177503156173 0)
(1.4196041962 -0.024248104635 0)
(1.39808251468 -0.0314666850798 0)
(0.993269667347 0.0061701500566 0)
(1.03158100132 0.0171020458164 0)
(1.08672182132 0.023990648437 0)
(1.15174554927 0.0265606656792 0)
(1.21823536933 0.0258180588374 0)
(1.27925774978 0.0230488863237 0)
(1.33140137 0.0193656318506 0)
(1.37377599972 0.0155468585508 0)
(1.40691054846 0.0120449309867 0)
(1.43203315073 0.00906640064043 0)
(1.45060216699 0.00666059571499 0)
(1.46402987698 0.00479009242416 0)
(1.47355018052 0.00337842921712 0)
(1.48017565485 0.00233873897762 0)
(1.48470231019 0.00158891477619 0)
(1.48773622873 0.00105828977072 0)
(1.48972736882 0.000689463687908 0)
(1.49100280147 0.000437639455962 0)
(1.49179588433 0.000268886984429 0)
(1.49227025786 0.000158112570011 0)
(1.49253875279 8.71263611345e-05 0)
(1.49267783222 4.29768386339e-05 0)
(1.4927383685 1.65871132568e-05 0)
(1.492753545 1.66677623235e-06 0)
(1.4927443104 -6.06577972771e-06 0)
(1.49272352436 -9.41078236639e-06 0)
(1.4926988821 -1.02166871681e-05 0)
(1.49267461162 -9.65314872387e-06 0)
(1.4926528104 -8.43891616595e-06 0)
(1.49263431997 -6.99197775766e-06 0)
(1.49261926298 -5.5525496086e-06 0)
(1.4926073772 -4.24064018129e-06 0)
(1.49259823306 -3.10364452467e-06 0)
(1.49259135499 -2.14771663184e-06 0)
(1.49258628897 -1.35672536403e-06 0)
(1.49258263483 -7.08928617423e-07 0)
(1.49258005684 -1.8288081903e-07 0)
(1.49257828516 2.43520746779e-07 0)
(1.49257711331 6.16908097876e-07 0)
(1.49257636372 9.8774893347e-07 0)
(1.49257588316 1.29498360708e-06 0)
(1.49257557941 1.58254854006e-06 0)
(1.49257539486 1.86752257833e-06 0)
(1.49257527667 2.1602606037e-06 0)
(1.49257518557 2.4681170335e-06 0)
(1.49257509509 2.79408618166e-06 0)
(1.4925749866 3.13779324964e-06 0)
(1.49257484661 3.49551459535e-06 0)
(1.49257466499 3.85904725477e-06 0)
(1.49257443329 4.21471588164e-06 0)
(1.49257414607 4.54305139569e-06 0)
(1.49257379971 4.81241240468e-06 0)
(1.49257338799 4.97878504408e-06 0)
(1.49257289986 4.9822153993e-06 0)
(1.49257231513 4.74066598773e-06 0)
(1.49257160449 4.14153691136e-06 0)
(1.49257075726 3.03641645258e-06 0)
(1.49256964863 1.27846943909e-06 0)
(1.49256784371 -1.3225579511e-06 0)
(1.49256502347 -5.28513864641e-06 0)
(1.49256081229 -1.12402042107e-05 0)
(1.49255419555 -1.99461382315e-05 0)
(1.49254354562 -3.24711910203e-05 0)
(1.4925263056 -5.03574438317e-05 0)
(1.49249835571 -7.57891901052e-05 0)
(1.49245295131 -0.00011175100902 0)
(1.4923792223 -0.000162663463362 0)
(1.49226010702 -0.000234909450339 0)
(1.49206809574 -0.000336946047211 0)
(1.49175828287 -0.00048147309885 0)
(1.49125859377 -0.000689202510364 0)
(1.49046007912 -0.000992626119244 0)
(1.48919243186 -0.00142448651427 0)
(1.48718913248 -0.00203259498837 0)
(1.48405064169 -0.00287844264872 0)
(1.47919525737 -0.00402971132275 0)
(1.47181317892 -0.00554103177431 0)
(1.46088638632 -0.00741448203156 0)
(1.44526086775 -0.00955683927645 0)
(1.42331695318 -0.0117204980206 0)
(0.993270465144 -0.0061684024383 0)
(1.0315809839 -0.0171003765375 0)
(1.08672175498 -0.0239897623402 0)
(1.15174558693 -0.0265602476065 0)
(1.21823544722 -0.0258179937364 0)
(1.27925785183 -0.0230491105571 0)