/*--------------------------------*- C++ -*----------------------------------*\
| =========                 |                                                 |
| \\      /  F ield         | OpenFOAM: The Open Source CFD Toolbox           |
|  \\    /   O peration     | Version:  2106                                  |
|   \\  /    A nd           | Website:  www.openfoam.com                      |
|    \\/     M anipulation  |                                                 |
\*---------------------------------------------------------------------------*/
FoamFile
{
    version     2.0;
    format      ascii;
    arch        "LSB;label=32;scalar=64";
    class       volScalarField;
    location    "0.005";
    object      p;
}
// * * * * * * * * * * * * * * * * * * * * * * * * * * * * * * * * * * * * * //

dimensions      [0 2 -2 0 0 0 0];

internalField   nonuniform List<scalar> 
160000
(
3.24739
0.0043502
6.11797
-2.15514
7.4298
-2.54456
7.04327
-1.53536
5.70433
-0.0400191
4.30483
1.21386
3.33367
1.98129
2.8336
2.354
2.64268
2.51038
2.59889
2.57788
2.60952
2.61776
2.63624
2.65148
2.66723
2.68308
2.69891
2.71468
2.73029
2.74561
2.76068
2.77541
2.78972
2.80361
2.817
2.82984
2.84206
2.85364
2.8645
2.87461
2.88396
2.89248
2.90016
2.90694
2.91279
2.91775
2.92173
2.92474
2.9268
2.92787
2.92795
2.92706
2.92518
2.92232
2.91848
2.91373
2.90803
2.90142
2.89393
2.88559
2.87642
2.86644
2.85575
2.84436
2.83231
2.81967
2.80646
2.79277
2.77859
2.76402
2.74914
2.73395
2.71858
2.70303
2.68741
2.67178
2.65615
2.64063
2.62524
2.61008
2.59519
2.58061
2.56645
2.55273
2.53952
2.52688
2.51483
2.50346
2.49277
2.48282
2.47364
2.46524
2.45771
2.45104
2.44526
2.44041
2.43649
2.43357
2.43161
2.43066
2.43071
2.43175
2.4338
2.43681
2.44081
2.44574
2.45159
2.45835
2.46594
2.4744
2.48363
2.49364
2.50437
2.51576
2.52783
2.54047
2.55368
2.56741
2.58155
2.59613
2.61102
2.62621
2.64164
2.65721
2.67291
2.68862
2.70431
2.71993
2.73538
2.75065
2.76562
2.78027
2.79454
2.80833
2.82165
2.8344
2.84655
2.85806
2.86885
2.87892
2.8882
2.89666
2.90427
2.91099
2.91683
2.92172
2.92569
2.92867
2.93069
2.93173
2.93176
2.93084
2.9289
2.926
2.92214
2.91732
2.9116
2.90495
2.89743
2.88907
2.87987
2.86991
2.8592
2.84778
2.83572
2.82303
2.80981
2.79607
2.78188
2.7673
2.75238
2.73719
2.72178
2.70622
2.69057
2.67488
2.65922
2.64366
2.62824
2.61305
2.59812
2.58353
2.56933
2.55558
2.54233
2.52964
2.51755
2.50611
2.49536
2.48536
2.47613
2.46772
2.46015
2.45347
2.44769
2.44284
2.43893
2.43599
2.43402
2.43304
2.43304
2.43402
2.43599
2.43894
2.44284
2.4477
2.45348
2.46017
2.46774
2.47615
2.48538
2.49539
2.50613
2.51758
2.52967
2.54237
2.55563
2.56938
2.58359
2.59818
2.61311
2.62831
2.64373
2.6593
2.67496
2.69065
2.70631
2.72188
2.73729
2.75248
2.7674
2.78198
2.79617
2.80992
2.82314
2.83584
2.8479
2.85932
2.87006
2.88002
2.88924
2.89762
2.90515
2.91181
2.91754
2.92237
2.92623
2.92913
2.93108
2.93201
2.93199
2.93096
2.92896
2.92598
2.92203
2.91715
2.91132
2.90459
2.89699
2.88853
2.87927
2.8692
2.85842
2.84692
2.83477
2.82203
2.80871
2.79491
2.78064
2.76599
2.75102
2.73575
2.7203
2.70467
2.68896
2.67324
2.65753
2.64196
2.62653
2.61133
2.59644
2.58186
2.56772
2.55401
2.54082
2.5282
2.51616
2.50479
2.49409
2.48412
2.47493
2.46651
2.45894
2.4522
2.44636
2.44144
2.43743
2.43441
2.43234
2.43127
2.4312
2.43212
2.43407
2.43698
2.4409
2.44576
2.45156
2.45828
2.46584
2.47427
2.48347
2.49344
2.50414
2.51549
2.52751
2.54011
2.55328
2.56699
2.58112
2.5957
2.61059
2.62578
2.64119
2.65672
2.67235
2.68797
2.70355
2.71905
2.73438
2.74952
2.7644
2.77897
2.79316
2.80689
2.82013
2.83278
2.84481
2.85619
2.86684
2.87679
2.88593
2.8943
2.90182
2.90844
2.91416
2.91892
2.92272
2.92553
2.9274
2.9283
2.9282
2.92715
2.92511
2.92208
2.91809
2.91314
2.90729
2.90051
2.89287
2.88437
2.875
2.86489
2.854
2.84242
2.83023
2.8174
2.80403
2.79016
2.7758
2.76107
2.74603
2.73069
2.71512
2.69941
2.68357
2.66768
2.65176
2.63696
2.61841
2.61018
2.57862
2.59955
2.51102
2.64337
2.35479
2.83445
1.98215
3.33454
1.21492
4.30598
-0.0388872
5.70564
-1.53384
7.04497
-2.54248
7.43226
-2.15154
6.12352
0.00978361
3.24952
0.00445737
-3.22529
2.86802
-5.38965
4.18447
-5.77827
3.80355
-4.76836
2.46846
-3.27266
1.0712
-2.01838
0.10098
-1.25079
-0.398549
-0.877978
-0.589364
-0.721583
-0.633068
-0.653958
-0.622439
-0.614145
-0.595476
-0.580661
-0.564707
-0.548808
-0.532967
-0.517199
-0.501623
-0.486282
-0.471214
-0.456523
-0.44219
-0.428301
-0.414938
-0.402084
-0.38986
-0.378278
-0.367406
-0.357304
-0.34796
-0.339446
-0.331778
-0.324984
-0.319125
-0.314179
-0.3102
-0.307168
-0.305106
-0.30405
-0.303953
-0.304861
-0.306749
-0.309598
-0.313427
-0.318186
-0.323897
-0.330494
-0.337981
-0.346347
-0.355504
-0.365468
-0.376149
-0.387552
-0.399606
-0.412254
-0.425474
-0.439178
-0.453357
-0.467918
-0.482806
-0.497986
-0.513345
-0.528872
-0.544488
-0.560125
-0.575758
-0.591272
-0.606661
-0.621831
-0.636716
-0.651294
-0.665455
-0.679187
-0.692403
-0.70504
-0.717085
-0.728455
-0.739158
-0.749113
-0.758294
-0.766687
-0.774226
-0.780908
-0.786683
-0.791522
-0.795431
-0.798344
-0.800302
-0.801249
-0.801199
-0.800161
-0.798116
-0.795113
-0.79112
-0.786203
-0.780353
-0.7736
-0.766005
-0.757549
-0.748316
-0.738312
-0.727566
-0.716166
-0.704089
-0.691443
-0.678237
-0.664511
-0.65036
-0.635781
-0.62089
-0.605697
-0.590275
-0.57471
-0.559011
-0.543299
-0.527597
-0.511983
-0.496535
-0.481263
-0.4663
-0.45165
-0.437385
-0.42359
-0.410268
-0.397521
-0.385377
-0.373867
-0.36308
-0.353009
-0.343738
-0.33527
-0.327654
-0.320926
-0.315086
-0.310198
-0.306236
-0.303254
-0.301241
-0.300201
-0.300167
-0.30109
-0.303021
-0.305913
-0.309765
-0.314584
-0.320314
-0.326964
-0.334493
-0.342864
-0.352067
-0.362034
-0.372752
-0.384167
-0.39623
-0.408911
-0.422128
-0.435867
-0.450044
-0.464618
-0.479532
-0.494718
-0.510126
-0.525686
-0.541343
-0.557032
-0.572691
-0.588259
-0.603672
-0.618871
-0.633796
-0.648387
-0.662587
-0.676339
-0.689591
-0.702289
-0.714382
-0.725824
-0.736571
-0.746576
-0.755803
-0.764217
-0.771779
-0.778462
-0.78424
-0.789091
-0.792995
-0.795934
-0.7979
-0.798884
-0.798884
-0.797897
-0.795929
-0.792986
-0.789081
-0.784228
-0.778449
-0.771762
-0.764199
-0.755785
-0.746555
-0.736547
-0.725797
-0.714352
-0.702254
-0.689552
-0.676297
-0.662541
-0.648338
-0.633744
-0.618816
-0.603614
-0.588198
-0.572628
-0.556965
-0.541272
-0.52561
-0.510043
-0.49463
-0.479437
-0.464512
-0.449936
-0.435744
-0.421997
-0.408776
-0.39608
-0.384017
-0.372597
-0.361864
-0.3519
-0.342683
-0.334311
-0.32678
-0.320115
-0.314384
-0.309551
-0.30569
-0.302786
-0.300843
-0.299909
-0.299931
-0.300966
-0.30297
-0.305944
-0.309901
-0.314777
-0.320609
-0.327328
-0.334934
-0.343398
-0.352659
-0.362729
-0.373507
-0.385012
-0.397154
-0.409894
-0.423216
-0.437008
-0.451273
-0.465926
-0.480895
-0.496168
-0.511619
-0.527248
-0.542957
-0.558673
-0.574381
-0.589952
-0.605384
-0.620584
-0.635476
-0.650055
-0.664193
-0.677905
-0.691095
-0.703721
-0.71577
-0.727138
-0.737847
-0.747817
-0.757016
-0.765441
-0.773012
-0.779746
-0.785586
-0.790503
-0.794505
-0.79752
-0.799586
-0.800645
-0.800713
-0.799786
-0.797839
-0.794932
-0.791015
-0.786159
-0.780367
-0.773654
-0.766091
-0.757667
-0.748466
-0.738492
-0.727797
-0.716436
-0.704408
-0.691803
-0.678633
-0.664934
-0.650795
-0.636217
-0.621322
-0.60614
-0.590732
-0.575209
-0.559576
-0.543952
-0.528356
-0.512856
-0.49752
-0.48236
-0.467493
-0.452929
-0.438748
-0.425036
-0.411804
-0.399159
-0.387124
-0.375741
-0.365082
-0.355126
-0.345972
-0.337613
-0.330101
-0.323483
-0.317769
-0.313025
-0.309195
-0.306369
-0.304502
-0.303607
-0.303697
-0.304754
-0.30681
-0.309836
-0.313823
-0.318783
-0.324631
-0.331408
-0.339058
-0.347558
-0.356916
-0.367043
-0.377913
-0.38948
-0.401689
-0.414511
-0.42788
-0.441771
-0.456102
-0.470819
-0.485888
-0.501213
-0.516776
-0.532511
-0.548332
-0.564219
-0.580214
-0.594937
-0.613502
-0.62177
-0.653295
-0.632405
-0.720898
-0.588658
-0.877181
-0.397726
-1.24996
0.101902
-2.0174
1.07228
-3.27155
2.46974
-4.76694
3.80513
-5.77628
4.1868
-5.38616
2.87248
-3.22056
0.00601265
6.11549
2.86592
8.97516
0.699286
10.283
0.308292
9.89429
1.31641
8.55365
2.81036
7.15342
4.06328
6.18188
4.83001
5.68189
5.20245
5.49084
5.35863
5.44712
5.42622
5.45774
5.46602
5.48459
5.49936
5.51544
5.53131
5.54713
5.56288
5.57848
5.59381
5.6089
5.62361
5.63795
5.65183
5.66519
5.67803
5.69025
5.70182
5.71269
5.72279
5.73215
5.74067
5.74833
5.75511
5.76097
5.76593
5.76991
5.77293
5.775
5.77606
5.77616
5.77525
5.77337
5.77051
5.76668
5.76192
5.75621
5.74961
5.74212
5.73376
5.7246
5.71462
5.70395
5.69255
5.6805
5.66786
5.65464
5.64095
5.62677
5.61221
5.59733
5.58214
5.56678
5.55123
5.53562
5.51997
5.50433
5.48881
5.47343
5.45826
5.44338
5.42881
5.41465
5.40092
5.38771
5.37507
5.36302
5.35165
5.34095
5.331
5.32182
5.31341
5.30588
5.2992
5.29343
5.28859
5.28468
5.28178
5.27982
5.27888
5.27893
5.27996
5.282
5.285
5.28899
5.2939
5.29975
5.3065
5.31409
5.32254
5.33177
5.34178
5.35252
5.36393
5.376
5.38865
5.40187
5.4156
5.42975
5.44433
5.45923
5.47442
5.48985
5.50541
5.52111
5.53681
5.55251
5.56813
5.58358
5.59885
5.61381
5.62847
5.64273
5.65653
5.66985
5.6826
5.69474
5.70626
5.71704
5.72712
5.73639
5.74485
5.75247
5.75919
5.76503
5.76992
5.77388
5.77687
5.77888
5.77992
5.77996
5.77903
5.77709
5.77419
5.77034
5.76551
5.75979
5.75314
5.74562
5.73726
5.72806
5.7181
5.70738
5.69597
5.68391
5.67122
5.658
5.64425
5.63007
5.61549
5.60057
5.58539
5.56998
5.55442
5.53876
5.52307
5.50741
5.49185
5.47644
5.46124
5.44631
5.43172
5.41752
5.40377
5.39052
5.37783
5.36574
5.3543
5.34355
5.33355
5.32432
5.31591
5.30835
5.30166
5.29588
5.29103
5.28712
5.28418
5.28221
5.28123
5.28123
5.28221
5.28419
5.28713
5.29104
5.29589
5.30168
5.30836
5.31593
5.32434
5.33357
5.34358
5.35433
5.36577
5.37787
5.39057
5.40382
5.41758
5.43178
5.44637
5.4613
5.4765
5.49192
5.50749
5.52315
5.53884
5.55451
5.57007
5.58548
5.60067
5.61559
5.63017
5.64436
5.65811
5.67133
5.68403
5.69609
5.70751
5.71825
5.72821
5.73743
5.74581
5.75334
5.76
5.76573
5.77056
5.77442
5.77733
5.77927
5.78021
5.78018
5.77915
5.77715
5.77418
5.77022
5.76534
5.75951
5.75279
5.74518
5.73672
5.72746
5.71739
5.70661
5.69511
5.68296
5.67022
5.6569
5.6431
5.62884
5.61418
5.59922
5.58394
5.56849
5.55287
5.53715
5.52144
5.50573
5.49016
5.47473
5.45953
5.44464
5.43006
5.41592
5.4022
5.38901
5.37638
5.36433
5.35296
5.34225
5.33227
5.32307
5.31465
5.30707
5.30034
5.29451
5.28959
5.2856
5.28259
5.28053
5.27948
5.27942
5.28035
5.28229
5.2852
5.28912
5.29396
5.29975
5.30646
5.31401
5.32243
5.33162
5.34159
5.3523
5.36366
5.37569
5.38831
5.40149
5.41519
5.42933
5.4439
5.45879
5.47397
5.48937
5.50488
5.52052
5.53614
5.55174
5.56725
5.58259
5.59775
5.61262
5.62718
5.64136
5.65507
5.6683
5.68094
5.69298
5.70437
5.71503
5.72499
5.73414
5.7425
5.75001
5.75662
5.76234
5.76709
5.77091
5.77374
5.77561
5.77651
5.77641
5.77535
5.7733
5.77027
5.76628
5.76133
5.75548
5.7487
5.74105
5.73254
5.72319
5.71307
5.7022
5.69064
5.67843
5.6656
5.65224
5.63835
5.62402
5.6093
5.59423
5.57891
5.56334
5.54761
5.53179
5.51593
5.49985
5.48519
5.46663
5.45836
5.42685
5.44776
5.3593
5.49158
5.2032
5.68267
4.83085
6.1828
4.06426
7.15448
2.81147
8.55493
1.3178
9.89585
0.310196
10.2852
0.702037
8.97778
2.86819
6.11611
-2.16516
-5.39803
0.694111
-7.55916
2.00717
-7.94704
1.62783
-6.93683
0.295152
-5.44136
-1.10025
-4.18734
-2.06935
-3.42003
-2.5683
-3.04729
-2.75891
-2.89099
-2.80253
-2.82333
-2.79185
-2.78353
-2.76499
-2.75028
-2.73407
-2.71825
-2.70242
-2.68668
-2.6711
-2.65575
-2.64068
-2.62596
-2.61162
-2.59774
-2.58437
-2.57153
-2.55932
-2.54775
-2.53689
-2.52679
-2.51743
-2.50891
-2.50124
-2.49445
-2.48859
-2.48365
-2.47967
-2.47664
-2.47457
-2.47351
-2.47341
-2.47433
-2.47622
-2.47907
-2.4829
-2.48765
-2.49338
-2.49998
-2.50747
-2.51583
-2.52499
-2.53495
-2.54563
-2.55703
-2.56908
-2.58173
-2.59495
-2.60866
-2.62283
-2.63739
-2.65227
-2.66744
-2.68281
-2.69834
-2.71396
-2.7296
-2.74525
-2.76076
-2.77615
-2.79131
-2.8062
-2.82077
-2.83493
-2.84865
-2.86187
-2.87451
-2.88657
-2.89795
-2.90864
-2.91861
-2.92779
-2.93618
-2.94372
-2.9504
-2.95617
-2.96101
-2.96491
-2.96781
-2.96976
-2.9707
-2.97065
-2.96961
-2.96757
-2.96458
-2.9606
-2.95569
-2.94985
-2.94311
-2.93551
-2.92707
-2.91783
-2.90782
-2.89708
-2.88567
-2.87359
-2.86093
-2.84771
-2.83399
-2.81983
-2.80524
-2.79035
-2.77515
-2.75973
-2.74417
-2.72847
-2.71276
-2.69706
-2.68145
-2.666
-2.65074
-2.63577
-2.62113
-2.60686
-2.59307
-2.57974
-2.567
-2.55485
-2.54334
-2.53256
-2.52249
-2.51322
-2.50475
-2.49713
-2.4904
-2.48456
-2.47968
-2.47571
-2.47273
-2.47072
-2.46968
-2.46964
-2.47057
-2.4725
-2.47539
-2.47925
-2.48406
-2.48979
-2.49644
-2.50397
-2.51234
-2.52154
-2.53151
-2.54223
-2.55364
-2.56571
-2.57839
-2.59161
-2.60534
-2.61952
-2.6341
-2.64901
-2.6642
-2.67961
-2.69516
-2.71082
-2.72651
-2.74217
-2.75774
-2.77315
-2.78835
-2.80327
-2.81786
-2.83206
-2.84581
-2.85906
-2.87176
-2.88386
-2.8953
-2.90604
-2.91605
-2.92528
-2.93369
-2.94125
-2.94793
-2.95371
-2.95856
-2.96246
-2.9654
-2.96737
-2.96836
-2.96836
-2.96737
-2.9654
-2.96246
-2.95855
-2.9537
-2.94792
-2.94123
-2.93367
-2.92526
-2.91603
-2.90602
-2.89527
-2.88383
-2.87173
-2.85903
-2.84577
-2.83201
-2.81781
-2.80322
-2.78829
-2.77309
-2.75767
-2.7421
-2.72644
-2.71075
-2.69508
-2.67952
-2.6641
-2.64891
-2.63399
-2.61941
-2.60523
-2.59148
-2.57825
-2.56557
-2.5535
-2.54208
-2.53135
-2.52138
-2.51216
-2.50379
-2.49625
-2.4896
-2.48386
-2.47903
-2.47517
-2.47226
-2.47033
-2.46938
-2.46941
-2.47044
-2.47245
-2.47542
-2.47938
-2.48425
-2.49009
-2.49681
-2.50441
-2.51288
-2.52214
-2.53221
-2.54299
-2.55449
-2.56663
-2.57937
-2.59269
-2.60649
-2.62075
-2.6354
-2.65037
-2.66564
-2.68109
-2.69671
-2.71242
-2.72814
-2.74384
-2.75941
-2.77484
-2.79004
-2.80494
-2.81951
-2.83366
-2.84737
-2.86057
-2.8732
-2.88525
-2.89663
-2.90735
-2.91733
-2.92653
-2.93496
-2.94253
-2.94926
-2.9551
-2.96001
-2.964
-2.967
-2.96906
-2.9701
-2.97016
-2.96923
-2.96728
-2.96437
-2.96047
-2.95562
-2.94984
-2.94314
-2.93559
-2.92717
-2.91797
-2.908
-2.8973
-2.88593
-2.87389
-2.86128
-2.84809
-2.83439
-2.82025
-2.80568
-2.79079
-2.77562
-2.76022
-2.74471
-2.72908
-2.71345
-2.69783
-2.68232
-2.66698
-2.65182
-2.63694
-2.62239
-2.60822
-2.59452
-2.5813
-2.56865
-2.55661
-2.54523
-2.53456
-2.5246
-2.51545
-2.50709
-2.49959
-2.49298
-2.48726
-2.48251
-2.47868
-2.47584
-2.47397
-2.47306
-2.47316
-2.47422
-2.47627
-2.47931
-2.48329
-2.48823
-2.49409
-2.50088
-2.50854
-2.51704
-2.52639
-2.5365
-2.54737
-2.55893
-2.57113
-2.58397
-2.59734
-2.61122
-2.62555
-2.64027
-2.65534
-2.67067
-2.68623
-2.70195
-2.71777
-2.73359
-2.74977
-2.76441
-2.78295
-2.79124
-2.82273
-2.80188
-2.89032
-2.7582
-3.04656
-2.56752
-3.41922
-2.06846
-4.18643
-1.09923
-5.4403
0.296328
-6.93556
1.62919
-7.94545
2.00882
-7.5572
0.695639
-5.39676
-2.16502
7.41144
4.16772
10.27
1.99956
11.5739
1.60639
11.1836
2.61236
9.8431
4.10432
8.44347
5.35583
7.47247
6.1217
6.97276
6.49377
6.78187
6.64979
6.73815
6.71733
6.74879
6.7571
6.77563
6.79032
6.80653
6.82234
6.83817
6.85391
6.86949
6.88483
6.89991
6.91463
6.92897
6.94286
6.95623
6.96906
6.98127
6.99283
7.0037
7.0138
7.02316
7.03167
7.03934
7.04613
7.05199
7.05693
7.06092
7.06396
7.06602
7.06708
7.06717
7.06626
7.06438
7.06153
7.05769
7.05294
7.04722
7.04061
7.03311
7.02476
7.0156
7.00563
6.99496
6.98356
6.97151
6.95886
6.94564
6.93193
6.91776
6.90321
6.88833
6.87316
6.8578
6.84225
6.82662
6.81097
6.79533
6.77981
6.76443
6.74927
6.73439
6.71981
6.70566
6.69194
6.67872
6.66608
6.65402
6.64264
6.63194
6.62198
6.6128
6.6044
6.59687
6.5902
6.58442
6.57959
6.57569
6.57278
6.57084
6.5699
6.56995
6.57098
6.57302
6.57602
6.57999
6.5849
6.59073
6.59747
6.60506
6.61351
6.62274
6.63275
6.64349
6.65491
6.66699
6.67965
6.69287
6.7066
6.72076
6.73535
6.75024
6.76544
6.78086
6.79643
6.81213
6.82783
6.84353
6.85914
6.87459
6.88985
6.90482
6.91947
6.93373
6.94753
6.96085
6.9736
6.98575
6.99726
7.00804
7.01812
7.02739
7.03586
7.04348
7.0502
7.05604
7.06093
7.06489
7.06787
7.06989
7.07092
7.07096
7.07003
7.0681
7.0652
7.06134
7.05652
7.05079
7.04414
7.03662
7.02825
7.01906
7.0091
6.99838
6.98697
6.9749
6.96222
6.949
6.93525
6.92107
6.90649
6.89158
6.87639
6.86098
6.84542
6.82977
6.81408
6.79842
6.78285
6.76744
6.75224
6.73732
6.72273
6.70853
6.69478
6.68153
6.66884
6.65674
6.6453
6.63456
6.62455
6.61533
6.60692
6.59935
6.59267
6.58689
6.58203
6.57813
6.57519
6.57322
6.57223
6.57223
6.57322
6.57519
6.57814
6.58204
6.5869
6.59268
6.59937
6.60694
6.61535
6.62458
6.63459
6.64533
6.65678
6.66887
6.68157
6.69483
6.70858
6.72278
6.73738
6.75231
6.76751
6.78293
6.7985
6.81416
6.82985
6.84551
6.86107
6.87649
6.89168
6.9066
6.92118
6.93536
6.94911
6.96234
6.97502
6.98709
6.99852
7.00925
7.01922
7.02843
7.03681
7.04434
7.051
7.05674
7.06156
7.06543
7.06833
7.07027
7.07121
7.07119
7.07016
7.06816
7.06518
7.06122
7.05635
7.05051
7.04379
7.03619
7.02772
7.01846
7.00839
6.99761
6.98611
6.97396
6.96122
6.9479
6.9341
6.91984
6.90519
6.89022
6.87495
6.8595
6.84387
6.82817
6.81245
6.79675
6.78118
6.76575
6.75055
6.73565
6.72107
6.70693
6.69321
6.68002
6.66738
6.65532
6.64394
6.63322
6.62324
6.61404
6.60561
6.59804
6.59131
6.58548
6.58057
6.57659
6.57359
6.57154
6.5705
6.57044
6.57138
6.57332
6.57623
6.58014
6.58498
6.59076
6.59745
6.605
6.61341
6.6226
6.63257
6.64327
6.65465
6.66669
6.67931
6.69251
6.70621
6.72036
6.73492
6.7498
6.76497
6.78036
6.79588
6.8115
6.82713
6.84274
6.85826
6.87361
6.88877
6.90365
6.91821
6.93237
6.94608
6.95929
6.97193
6.98397
6.99536
7.00604
7.01599
7.02515
7.03351
7.04101
7.04762
7.05333
7.05808
7.06191
7.06475
7.06663
7.06753
7.06743
7.06637
7.06431
7.06129
7.0573
7.05235
7.0465
7.03971
7.03205
7.02355
7.01419
7.00409
6.99322
6.98166
6.96946
6.95662
6.94326
6.92937
6.91504
6.90032
6.88525
6.86993
6.85436
6.83865
6.82284
6.80702
6.79083
6.77619
6.75767
6.74938
6.71792
6.73878
6.65043
6.78257
6.49448
6.97353
6.1225
7.47334
5.3567
8.44443
4.1053
9.84419
2.6135
11.1848
1.60773
11.5752
2.00095
10.271
4.16855
7.4115
-2.57307
-5.80499
0.285413
-7.96431
1.59675
-8.35181
1.21686
-7.34202
-0.115198
-5.8474
-1.50966
-4.59426
-2.47802
-3.82754
-2.97656
-3.45509
-3.16698
-3.29892
-3.21055
-3.23133
-3.19987
-3.19154
-3.173
-3.15835
-3.1421
-3.12632
-3.11048
-3.09474
-3.07917
-3.06382
-3.04876
-3.03403
-3.0197
-3.00581
-2.99244
-2.97961
-2.9674
-2.95584
-2.94497
-2.93487
-2.92551
-2.917
-2.90934
-2.90255
-2.89669
-2.89173
-2.88775
-2.88472
-2.88265
-2.8816
-2.8815
-2.88242
-2.8843
-2.88715
-2.89099
-2.89575
-2.90147
-2.90808
-2.91558
-2.92393
-2.93308
-2.94304
-2.95372
-2.96512
-2.97717
-2.98983
-3.00305
-3.01676
-3.03093
-3.04548
-3.06036
-3.07552
-3.09089
-3.10643
-3.12206
-3.13771
-3.15335
-3.16886
-3.18425
-3.19941
-3.2143
-3.22887
-3.24303
-3.25675
-3.26996
-3.28261
-3.29467
-3.30605
-3.31675
-3.32672
-3.3359
-3.34429
-3.35183
-3.3585
-3.36427
-3.36911
-3.373
-3.37591
-3.37785
-3.37879
-3.37873
-3.3777
-3.37566
-3.37267
-3.3687
-3.3638
-3.35797
-3.35123
-3.34364
-3.3352
-3.32596
-3.31595
-3.30521
-3.29378
-3.2817
-3.26904
-3.25582
-3.24208
-3.22792
-3.21333
-3.19843
-3.18324
-3.16781
-3.15225
-3.13655
-3.12085
-3.10515
-3.08954
-3.0741
-3.05883
-3.04387
-3.02922
-3.01496
-3.00117
-2.98784
-2.9751
-2.96295
-2.95144
-2.94066
-2.93058
-2.92132
-2.91285
-2.90523
-2.8985
-2.89266
-2.88777
-2.88381
-2.88083
-2.87881
-2.87778
-2.87774
-2.87867
-2.8806
-2.88349
-2.88735
-2.89216
-2.89789
-2.90454
-2.91207
-2.92044
-2.92964
-2.9396
-2.95032
-2.96173
-2.9738
-2.98648
-2.9997
-3.01344
-3.02762
-3.04219
-3.05711
-3.07229
-3.0877
-3.10326
-3.11892
-3.13461
-3.15026
-3.16583
-3.18124
-3.19644
-3.21137
-3.22596
-3.24016
-3.25391
-3.26716
-3.27985
-3.29195
-3.30339
-3.31413
-3.32414
-3.33337
-3.34178
-3.34934
-3.35602
-3.3618
-3.36665
-3.37055
-3.37349
-3.37546
-3.37645
-3.37644
-3.37546
-3.37349
-3.37055
-3.36664
-3.36179
-3.35601
-3.34932
-3.34176
-3.33334
-3.32412
-3.31411
-3.30336
-3.29192
-3.27982
-3.26712
-3.25386
-3.24011
-3.2259
-3.21131
-3.19638
-3.18118
-3.16576
-3.15019
-3.13453
-3.11884
-3.10318
-3.08761
-3.0722
-3.05701
-3.04209
-3.02751
-3.01332
-2.99958
-2.98635
-2.97367
-2.9616
-2.95018
-2.93945
-2.92947
-2.92026
-2.91188
-2.90435
-2.8977
-2.89196
-2.88713
-2.88327
-2.88036
-2.87843
-2.87748
-2.87751
-2.87854
-2.88054
-2.88352
-2.88747
-2.89235
-2.89818
-2.9049
-2.91251
-2.92098
-2.93023
-2.94031
-2.95108
-2.96259
-2.97473
-2.98747
-3.00079
-3.01458
-3.02885
-3.0435
-3.05846
-3.07373
-3.08918
-3.1048
-3.12051
-3.13622
-3.15193
-3.16749
-3.18292
-3.19812
-3.21302
-3.2276
-3.24175
-3.25546
-3.26866
-3.2813
-3.29336
-3.30475
-3.31547
-3.32545
-3.33466
-3.3431
-3.35067
-3.3574
-3.36323
-3.36813
-3.37211
-3.3751
-3.37715
-3.37819
-3.37824
-3.3773
-3.37535
-3.37245
-3.36855
-3.36371
-3.35793
-3.35124
-3.3437
-3.33529
-3.32609
-3.31612
-3.30542
-3.29404
-3.282
-3.26937
-3.25618
-3.24247
-3.22833
-3.21377
-3.19889
-3.18372
-3.16834
-3.15282
-3.13719
-3.12155
-3.10594
-3.09042
-3.07506
-3.0599
-3.04503
-3.03048
-3.01632
-3.00261
-2.9894
-2.97676
-2.96472
-2.95333
-2.94266
-2.93269
-2.92354
-2.91518
-2.90769
-2.90108
-2.89536
-2.89061
-2.88677
-2.88393
-2.88205
-2.88114
-2.88124
-2.8823
-2.88436
-2.88739
-2.89137
-2.89633
-2.90218
-2.90897
-2.91662
-2.92513
-2.93448
-2.94458
-2.95545
-2.96701
-2.97921
-2.99205
-3.00541
-3.0193
-3.03363
-3.04834
-3.06341
-3.07874
-3.09429
-3.11001
-3.12583
-3.14163
-3.15785
-3.17247
-3.191
-3.19929
-3.23075
-3.20994
-3.2983
-3.16632
-3.45441
-2.97583
-3.82679
-2.4772
-4.59344
-1.50875
-5.84651
-0.114203
-7.34102
1.21795
-8.35072
1.59782
-7.96327
0.286186
-5.80437
-2.57295
7.00314
3.76521
9.85983
1.59907
11.1625
1.20544
10.7729
2.20991
9.43384
3.70032
8.03557
4.95068
7.06546
5.71589
6.56619
6.08763
6.37548
6.24353
6.33179
6.31101
6.34244
6.35075
6.36928
6.38392
6.40017
6.41594
6.43178
6.44751
6.46309
6.47843
6.4935
6.50822
6.52256
6.53645
6.54982
6.56264
6.57485
6.58641
6.59728
6.60738
6.61673
6.62524
6.63291
6.6397
6.64555
6.65051
6.6545
6.65753
6.6596
6.66065
6.66075
6.65983
6.65795
6.6551
6.65126
6.6465
6.64078
6.63417
6.62667
6.61831
6.60917
6.5992
6.58853
6.57713
6.56507
6.55242
6.5392
6.52549
6.51132
6.49678
6.4819
6.46673
6.45136
6.43581
6.42018
6.40453
6.38889
6.37338
6.35799
6.34283
6.32795
6.31338
6.29922
6.2855
6.27229
6.25964
6.24758
6.2362
6.22549
6.21553
6.20635
6.19795
6.19042
6.18374
6.17797
6.17314
6.16925
6.16635
6.16441
6.16347
6.16352
6.16456
6.16659
6.16958
6.17355
6.17844
6.18427
6.191
6.19859
6.20703
6.21627
6.22628
6.23702
6.24845
6.26053
6.2732
6.28642
6.30016
6.31433
6.32892
6.34382
6.35901
6.37444
6.39
6.40569
6.42139
6.43709
6.45271
6.46815
6.48342
6.49838
6.51303
6.52729
6.54109
6.55441
6.56716
6.57931
6.59082
6.6016
6.61168
6.62095
6.62942
6.63704
6.64376
6.6496
6.65449
6.65845
6.66143
6.66345
6.66448
6.66452
6.66359
6.66166
6.65876
6.6549
6.65008
6.64435
6.6377
6.63018
6.62181
6.61261
6.60265
6.59193
6.58052
6.56846
6.55578
6.54255
6.52881
6.51464
6.50006
6.48514
6.46996
6.45455
6.43899
6.42333
6.40764
6.39199
6.37642
6.36101
6.34581
6.33088
6.31629
6.30209
6.28834
6.27509
6.2624
6.25031
6.23887
6.22812
6.21812
6.20889
6.20048
6.19292
6.18623
6.18045
6.1756
6.1717
6.16875
6.16679
6.1658
6.1658
6.16679
6.16876
6.1717
6.17561
6.18047
6.18625
6.19293
6.2005
6.20891
6.21814
6.22815
6.2389
6.25034
6.26243
6.27513
6.28839
6.30214
6.31635
6.33094
6.34587
6.36107
6.37649
6.39206
6.40772
6.42341
6.43907
6.45464
6.47005
6.48524
6.50016
6.51474
6.52892
6.54267
6.5559
6.56858
6.58065
6.59207
6.6028
6.61278
6.62199
6.63037
6.6379
6.64456
6.6503
6.65512
6.65899
6.66189
6.66383
6.66478
6.66475
6.66372
6.66172
6.65874
6.65479
6.64991
6.64407
6.63735
6.62975
6.62128
6.61202
6.60195
6.59117
6.57967
6.56752
6.55478
6.54146
6.52766
6.5134
6.49875
6.48378
6.46851
6.45306
6.43744
6.42173
6.40602
6.39032
6.37475
6.35932
6.34412
6.32922
6.31465
6.30049
6.28678
6.27358
6.26093
6.24887
6.23748
6.22676
6.21677
6.20756
6.19913
6.19156
6.18483
6.17901
6.17411
6.17013
6.16714
6.1651
6.16407
6.16402
6.16496
6.16691
6.16981
6.17371
6.17854
6.18432
6.191
6.19854
6.20695
6.21614
6.22611
6.23681
6.2482
6.26024
6.27288
6.28608
6.29978
6.31393
6.32849
6.34337
6.35853
6.37391
6.38943
6.40505
6.42069
6.4363
6.45182
6.46718
6.48235
6.49723
6.51177
6.52593
6.53964
6.55284
6.56549
6.57753
6.58892
6.5996
6.60956
6.61871
6.62707
6.63457
6.64117
6.64689
6.65165
6.65548
6.65832
6.6602
6.66111
6.66101
6.65995
6.65789
6.65486
6.65088
6.64592
6.64007
6.63328
6.62562
6.61712
6.60777
6.59767
6.5868
6.57524
6.56304
6.5502
6.53684
6.52295
6.50863
6.49391
6.47885
6.46352
6.44796
6.43225
6.41644
6.40064
6.38442
6.36981
6.35128
6.343
6.31157
6.33239
6.24412
6.37613
6.08828
6.5669
5.71661
7.06624
4.95146
8.03639
3.70114
9.43473
2.21079
10.7738
1.20634
11.1634
1.59983
9.86039
3.76561
7.00321
-1.58898
-4.82017
1.26846
-6.97902
2.57786
-7.36684
2.19653
-6.35809
0.86406
-4.86482
-0.530171
-3.61282
-1.49819
-2.84681
-1.99652
-2.47473
-2.18687
-2.31872
-2.23043
-2.25119
-2.21975
-2.21144
-2.19291
-2.17828
-2.16201
-2.14627
-2.13043
-2.1147
-2.09913
-2.08379
-2.06872
-2.054
-2.03966
-2.02577
-2.01241
-1.99959
-1.98738
-1.97582
-1.96495
-1.95485
-1.9455
-1.93699
-1.92932
-1.92253
-1.91668
-1.91172
-1.90773
-1.9047
-1.90264
-1.90158
-1.90149
-1.9024
-1.90429
-1.90714
-1.91098
-1.91574
-1.92147
-1.92808
-1.93558
-1.94393
-1.95308
-1.96304
-1.97371
-1.98511
-1.99717
-2.00982
-2.02305
-2.03676
-2.05092
-2.06547
-2.08034
-2.09551
-2.11089
-2.12644
-2.14207
-2.15772
-2.17336
-2.18887
-2.20425
-2.21942
-2.2343
-2.24887
-2.26303
-2.27675
-2.28996
-2.30261
-2.31467
-2.32605
-2.33676
-2.34672
-2.35591
-2.3643
-2.37184
-2.37851
-2.38428
-2.38911
-2.393
-2.3959
-2.39784
-2.39877
-2.39872
-2.39769
-2.39565
-2.39267
-2.3887
-2.38381
-2.37799
-2.37126
-2.36367
-2.35524
-2.346
-2.33598
-2.32523
-2.31381
-2.30172
-2.28905
-2.27582
-2.26208
-2.24791
-2.23332
-2.21842
-2.20322
-2.1878
-2.17224
-2.15655
-2.14084
-2.12515
-2.10953
-2.09409
-2.07883
-2.06387
-2.04922
-2.03496
-2.02117
-2.00784
-1.9951
-1.98295
-1.97144
-1.96066
-1.95058
-1.94132
-1.93284
-1.92522
-1.9185
-1.91265
-1.90777
-1.90381
-1.90083
-1.89881
-1.89778
-1.89774
-1.89867
-1.9006
-1.90349
-1.90735
-1.91217
-1.9179
-1.92454
-1.93207
-1.94044
-1.94964
-1.95961
-1.97032
-1.98173
-1.9938
-2.00647
-2.0197
-2.03344
-2.04761
-2.06219
-2.07711
-2.09229
-2.1077
-2.12326
-2.13892
-2.1546
-2.17026
-2.18583
-2.20124
-2.21644
-2.23136
-2.24595
-2.26015
-2.2739
-2.28715
-2.29985
-2.31194
-2.32338
-2.33413
-2.34413
-2.35336
-2.36177
-2.36933
-2.37601
-2.38179
-2.38664
-2.39055
-2.39349
-2.39545
-2.39644
-2.39644
-2.39545
-2.39348
-2.39054
-2.38663
-2.38178
-2.376
-2.36932
-2.36175
-2.35334
-2.34411
-2.3341
-2.32335
-2.31191
-2.29981
-2.28711
-2.27386
-2.2601
-2.2459
-2.2313
-2.21637
-2.20117
-2.18576
-2.17019
-2.15453
-2.13883
-2.12317
-2.10761
-2.0922
-2.07701
-2.06209
-2.04751
-2.03333
-2.01958
-2.00635
-1.99367
-1.9816
-1.97018
-1.95945
-1.94947
-1.94026
-1.93188
-1.92435
-1.9177
-1.91195
-1.90713
-1.90326
-1.90036
-1.89842
-1.89748
-1.8975
-1.89853
-1.90054
-1.90351
-1.90747
-1.91235
-1.91818
-1.9249
-1.93251
-1.94097
-1.95023
-1.96031
-1.97108
-1.98259
-1.99473
-2.00747
-2.02079
-2.03459
-2.04885
-2.0635
-2.07846
-2.09373
-2.10918
-2.1248
-2.1405
-2.15622
-2.17192
-2.18749
-2.20291
-2.21811
-2.23301
-2.24759
-2.26174
-2.27546
-2.28866
-2.30131
-2.31337
-2.32477
-2.33549
-2.34548
-2.3547
-2.36313
-2.37071
-2.37743
-2.38325
-2.38815
-2.39212
-2.39511
-2.39714
-2.39817
-2.39822
-2.39728
-2.39533
-2.39243
-2.38853
-2.3837
-2.37793
-2.37125
-2.36371
-2.35531
-2.34611
-2.33614
-2.32544
-2.31405
-2.302
-2.28937
-2.27617
-2.26246
-2.24832
-2.23376
-2.21888
-2.20372
-2.18834
-2.17282
-2.1572
-2.14156
-2.12595
-2.11043
-2.09506
-2.0799
-2.06502
-2.05047
-2.03632
-2.02262
-2.00941
-1.99676
-1.98473
-1.97333
-1.96266
-1.95269
-1.94355
-1.93518
-1.92769
-1.92108
-1.91536
-1.91061
-1.90677
-1.90392
-1.90204
-1.90113
-1.90122
-1.90228
-1.90434
-1.90737
-1.91135
-1.91631
-1.92216
-1.92895
-1.93661
-1.94511
-1.95446
-1.96456
-1.97543
-1.98699
-1.99918
-2.01202
-2.02538
-2.03927
-2.05359
-2.06831
-2.08337
-2.0987
-2.11425
-2.12997
-2.14579
-2.16157
-2.17779
-2.1924
-2.21093
-2.21922
-2.25065
-2.22986
-2.31813
-2.18625
-2.47411
-1.99586
-2.84615
-1.49746
-3.61209
-0.529401
-4.86408
0.864872
-6.35732
2.19734
-7.36609
2.57859
-6.97839
1.26893
-4.81988
-1.58891
5.63543
2.40151
8.4906
0.237908
9.79356
-0.155049
9.40543
0.849018
8.06815
2.33872
6.67125
3.58848
5.70198
4.35332
5.20311
4.72486
5.01253
4.88066
4.96888
4.94811
4.97952
4.98782
5.00634
5.02097
5.03723
5.05297
5.0688
5.08453
5.10009
5.11544
5.1305
5.14522
5.15956
5.17344
5.18681
5.19963
5.21183
5.2234
5.23426
5.24436
5.25371
5.26222
5.26989
5.27667
5.28253
5.28749
5.29148
5.29451
5.29657
5.29763
5.29772
5.29681
5.29492
5.29207
5.28823
5.28347
5.27774
5.27113
5.26363
5.25528
5.24613
5.23617
5.2255
5.21409
5.20204
5.18938
5.17615
5.16245
5.14829
5.13374
5.11886
5.10368
5.08831
5.07276
5.05713
5.04148
5.02585
5.01033
4.99495
4.97979
4.96491
4.95034
4.93618
4.92245
4.90924
4.89659
4.88453
4.87315
4.86244
4.85248
4.84329
4.8349
4.82736
4.82069
4.81492
4.81009
4.8062
4.80331
4.80137
4.80044
4.80049
4.80152
4.80355
4.80653
4.8105
4.81538
4.82121
4.82793
4.83552
4.84395
4.85319
4.86321
4.87395
4.88539
4.89747
4.91015
4.92338
4.93712
4.95129
4.96588
4.98078
4.99598
5.0114
5.02696
5.04266
5.05836
5.07405
5.08967
5.10511
5.12037
5.13533
5.14998
5.16425
5.17804
5.19137
5.20411
5.21626
5.22777
5.23855
5.24863
5.2579
5.26637
5.27399
5.28071
5.28656
5.29145
5.29541
5.29839
5.3004
5.30143
5.30148
5.30054
5.29861
5.29571
5.29185
5.28704
5.2813
5.27466
5.26713
5.25876
5.24956
5.2396
5.22888
5.21747
5.20541
5.19273
5.17951
5.16577
5.15159
5.13701
5.1221
5.10692
5.09151
5.07595
5.06029
5.0446
5.02895
5.01338
4.99797
4.98277
4.96784
4.95325
4.93905
4.9253
4.91205
4.89936
4.88727
4.87583
4.86508
4.85508
4.84585
4.83744
4.82988
4.8232
4.81742
4.81256
4.80866
4.80572
4.80375
4.80277
4.80277
4.80375
4.80572
4.80867
4.81257
4.81743
4.82321
4.8299
4.83746
4.84588
4.8551
4.86511
4.87586
4.8873
4.89939
4.91209
4.92535
4.9391
4.95331
4.9679
4.98283
4.99803
5.01345
5.02902
5.04468
5.06037
5.07603
5.0916
5.10701
5.1222
5.13712
5.1517
5.16588
5.17963
5.19285
5.20554
5.21761
5.22903