/*--------------------------------*- C++ -*----------------------------------*\
| =========                 |                                                 |
| \\      /  F ield         | OpenFOAM: The Open Source CFD Toolbox           |
|  \\    /   O peration     | Version:  2106                                  |
|   \\  /    A nd           | Website:  www.openfoam.com                      |
|    \\/     M anipulation  |                                                 |
\*---------------------------------------------------------------------------*/
FoamFile
{
    version     2.0;
    format      ascii;
    arch        "LSB;label=32;scalar=64";
    class       surfaceScalarField;
    location    "0.005";
    object      phi;
}
// * * * * * * * * * * * * * * * * * * * * * * * * * * * * * * * * * * * * * //

dimensions      [0 3 -1 0 0 0 0];

oriented        oriented;

internalField   nonuniform List<scalar> 
319200
(
1.82145e-06
-2.02638e-06
0.000458763
-0.000463216
2.02737e-06
0.000455581
0.000117768
-0.000115412
-1.67322e-06
0.000119932
3.04213e-05
-3.15315e-05
-2.96652e-06
3.38034e-05
6.87025e-06
-9.4893e-06
-2.92765e-06
9.99849e-06
2.46201e-07
-2.86044e-06
-2.52346e-06
2.78728e-06
-1.43508e-06
-8.15879e-07
-2.00622e-06
5.92532e-07
-1.56937e-06
-3.79272e-07
-1.52371e-06
5.81524e-08
-1.22253e-06
-3.76177e-07
-1.08929e-06
-1.35654e-08
-9.44608e-07
-3.18618e-08
-8.53584e-07
-2.13689e-07
-1.00871e-06
2.89169e-07
-1.06995e-06
1.7e-07
-1.18551e-06
5.62667e-08
-1.0893e-06
4.62284e-08
-1.13712e-06
1.99662e-07
-9.69881e-07
-6.52717e-08
-6.55733e-07
-3.77053e-07
-5.9245e-07
1.50833e-08
-3.7506e-07
5.09092e-08
-7.89617e-08
-5.47067e-07
-2.01289e-08
-4.49893e-09
-1.16656e-07
4.40257e-07
-7.61018e-08
-1.75493e-07
-9.47868e-08
-2.32796e-08
-1.51718e-07
1.98102e-07
-1.74034e-07
6.53754e-08
-1.34116e-07
6.82933e-08
9.83154e-08
-2.57797e-07
3.57888e-07
-4.33102e-07
3.67752e-07
6.02147e-08
3.75738e-07
1.42774e-07
6.03676e-07
-2.44883e-07
8.05263e-07
-3.42184e-07
8.1392e-07
-1.66114e-07
5.9214e-07
2.81212e-07
3.92064e-07
4.60002e-07
4.86752e-07
-9.91306e-08
6.83356e-07
-4.54144e-07
8.07953e-07
-1.97438e-07
9.50723e-07
-6.50145e-08
1.03712e-06
-1.43465e-07
1.02426e-06
1.07287e-07
1.11603e-06
1.3139e-07
1.39986e-06
-4.41887e-07
1.54089e-06
-5.35308e-07
1.32239e-06
1.66767e-07
1.00752e-06
6.39779e-07
7.77656e-07
4.46385e-07
5.91262e-07
2.50505e-07
5.18677e-07
1.01935e-07
6.33338e-07
-2.30388e-07
9.02318e-07
-4.59644e-07
1.05619e-06
-2.02675e-07
1.13765e-06
6.97867e-08
1.05813e-06
2.11563e-07
8.57478e-07
3.94001e-07
6.60438e-07
4.95509e-07
5.64417e-07
2.28757e-07
6.70898e-07
-3.09831e-07
7.42199e-07
-2.83155e-07
6.83538e-07
6.23527e-11
6.94947e-07
-9.9463e-08
8.19051e-07
-4.10301e-07
9.52152e-07
-3.98228e-07
9.32998e-07
4.36488e-08
8.85685e-07
2.37403e-07
1.03027e-06
-2.94853e-09
1.17804e-06
-1.22955e-07
1.27877e-06
-1.9059e-08
1.2161e-06
1.97128e-07
1.11503e-06
1.68139e-07
9.99337e-07
6.9166e-08
8.01604e-07
2.49887e-07
6.85292e-07
2.84185e-07
6.94432e-07
9.72942e-08
8.7251e-07
-2.78835e-07
1.09636e-06
-4.03719e-07
1.17431e-06
-1.30419e-07
1.29766e-06
-4.25198e-09
1.4401e-06
-5.58643e-08
1.63525e-06
-2.58673e-07
1.70512e-06
-2.52265e-07
1.55643e-06
1.01846e-07
1.3435e-06
2.89261e-07
1.12575e-06
2.60048e-07
1.01356e-06
6.53973e-08
9.76329e-07
-1.61956e-09
8.79533e-07
1.76582e-07
8.44394e-07
1.48294e-07
8.71022e-07
3.98981e-09
1.02016e-06
-2.31977e-07
1.11669e-06
-2.1639e-07
1.04032e-06
4.67243e-08
9.23744e-07
2.21552e-07
7.82644e-07
2.80755e-07
8.34354e-07
-2.36045e-08
9.39268e-07
-1.6719e-07
1.00373e-06
-1.33586e-07
9.75804e-07
5.025e-08
7.87855e-07
2.4281e-07
6.72823e-07
1.52299e-07
6.08332e-07
1.39613e-08
5.94762e-07
-1.08321e-07
6.16353e-07
-9.44364e-08
6.1884e-07
7.23663e-08
7.03283e-07
8.58769e-08
8.69763e-07
-3.24975e-08
1.11149e-06
-2.70081e-07
1.47437e-06
-4.75738e-07
1.66833e-06
-3.21675e-07
1.80035e-06
-1.521e-07
1.74792e-06
9.56572e-08
1.69155e-06
1.38302e-07
1.78305e-06
-5.21928e-08
1.90679e-06
-1.84123e-07
2.19302e-06
-4.10771e-07
2.42985e-06
-3.47083e-07
2.61745e-06
-1.86158e-07
2.79025e-06
-6.80658e-08
2.85372e-06
7.30499e-08
3.03011e-06
-9.27607e-08
3.20874e-06
-1.83763e-07
3.38991e-06
-2.83921e-07
3.53459e-06
-2.75525e-07
3.48559e-06
-2.58059e-08
3.35623e-06
1.75349e-07
3.06287e-06
4.18283e-07
2.66275e-06
5.13579e-07
2.30746e-06
3.96493e-07
1.89387e-06
3.95514e-07
1.64567e-06
1.78703e-07
1.37191e-06
1.65774e-07
1.18199e-06
1.05477e-07
1.03626e-06
1.35346e-07
8.71781e-07
2.54377e-07
7.64702e-07
2.50442e-07
5.32853e-07
3.56282e-07
3.49895e-07
2.52752e-07
1.07999e-07
2.48378e-07
-1.1038e-07
1.54537e-07
-3.01055e-07
6.46096e-08
-4.66966e-07
2.54336e-08
-5.21753e-07
-3.69752e-08
-5.403e-07
2.58227e-08
-5.25717e-07
7.53693e-08
-4.70516e-07
7.46527e-08
-4.52593e-07
1.38746e-07
-3.75472e-07
7.81684e-08
-3.22974e-07
5.9914e-08
-2.60481e-07
-3.07631e-08
-1.86212e-07
-1.19063e-07
-1.15818e-07
-1.7533e-07
-6.16474e-08
-1.97353e-07
-5.79869e-08
-1.68586e-07
-1.23572e-07
-1.12927e-07
-2.12445e-07
-5.96331e-08
-3.26042e-07
3.0151e-08
-3.95994e-07
5.5253e-08
-4.8024e-07
9.65509e-08
-5.64903e-07
1.0334e-07
-6.40445e-07
1.0327e-07
-7.30024e-07
1.56093e-07
-8.236e-07
1.90674e-07
-9.40387e-07
2.18303e-07
-1.06684e-06
2.04049e-07
-1.17553e-06
1.63345e-07
-1.24277e-06
1.1619e-07
-1.26069e-06
6.56293e-08
-1.23204e-06
3.59404e-09
-1.15603e-06
-7.16667e-08
-1.0221e-06
-1.46695e-07
-8.30619e-07
-2.04995e-07
-5.93211e-07
-2.39706e-07
-3.36957e-07
-2.571e-07
-9.60762e-08
-2.51144e-07
1.09619e-07
-2.28147e-07
2.4696e-07
-1.63521e-07
2.81052e-07
-5.62315e-08
2.00216e-07
6.173e-08
3.09817e-09
1.77092e-07
-2.59984e-07
2.47973e-07
-5.61005e-07
2.91858e-07
-8.62629e-07
2.99357e-07
-1.12505e-06
2.64124e-07
-1.32259e-06
2.01708e-07
-1.42534e-06
1.0912e-07
-1.41198e-06
-3.75294e-09
-1.27115e-06
-1.31495e-07
-1.00804e-06
-2.56524e-07
-6.49093e-07
-3.58316e-07
-2.41088e-07
-4.14036e-07
1.60667e-07
-4.15734e-07
5.04404e-07
-3.62251e-07
7.51927e-07
-2.70123e-07
8.84412e-07
-1.55376e-07
8.98177e-07
-3.3548e-08
7.97949e-07
8.49862e-08
5.89154e-07
1.93698e-07
2.90151e-07
2.83646e-07
-6.83161e-08
3.47213e-07
-4.51046e-07
3.83791e-07
-7.90661e-07
3.47278e-07
-1.0464e-06
2.62363e-07
-1.18432e-06
1.39057e-07
-1.20639e-06
1.9375e-08
-1.13164e-06
-7.7873e-08
-9.91576e-07
-1.4556e-07
-8.13764e-07
-1.93589e-07
-6.20933e-07
-2.17827e-07
-4.29074e-07
-2.1485e-07
-2.71979e-07
-1.66011e-07
-1.8318e-07
-9.02039e-08
-1.85826e-07
-8.57117e-09
-2.71028e-07
6.02959e-08
-4.03517e-07
1.11612e-07
-5.43043e-07
1.40606e-07
-6.6444e-07
1.3367e-07
-7.53123e-07
9.30296e-08
-8.04895e-07
4.16974e-08
-8.09207e-07
-2.72626e-10
-7.78751e-07
-9.17699e-10
-7.06138e-07
-1.45894e-08
-6.3773e-07
-1.61003e-08
-5.90554e-07
-2.6435e-08
-5.53135e-07
-2.84982e-08
-6.06905e-07
7.71527e-08
-6.61335e-07
1.03434e-07
-7.71093e-07
1.4923e-07
-8.6443e-07
1.07708e-07
-8.77423e-07
1.06797e-08
-8.87372e-07
-5.59238e-09
-8.00071e-07
-1.07649e-07
-7.16047e-07
-1.30775e-07
-6.07274e-07
-1.64576e-07
-4.60099e-07
-1.91047e-07
-3.56828e-07
-1.17224e-07
-2.77069e-07
-7.67611e-08
-2.97535e-07
3.23358e-08
-4.26061e-07
1.63203e-07
-6.21813e-07
2.60981e-07
-9.47604e-07
3.94159e-07
-1.24209e-06
3.30004e-07
-1.55579e-06
3.01858e-07
-1.78229e-06
1.95706e-07
-1.86881e-06
5.61863e-08
-1.89882e-06
5.59162e-09
-1.76856e-06
-1.55875e-07
-1.65425e-06
-1.16036e-07
-1.56914e-06
-5.11588e-08
-1.58437e-06
5.88574e-08
-1.73432e-06
1.65671e-07
-1.89162e-06
1.47996e-07
-2.13797e-06
2.26727e-07
-2.2994e-06
1.47832e-07
-2.50407e-06
1.75448e-07
-2.67522e-06
1.36508e-07
-2.7532e-06
8.41459e-08
-2.78207e-06
8.37916e-08
-2.63947e-06
-7.65099e-08
-2.43922e-06
-1.80931e-07
-2.19593e-06
-2.77235e-07
-1.9163e-06
-3.4737e-07
-1.73937e-06
-2.41032e-07
-1.54062e-06
-2.43911e-07
-1.43203e-06
-1.04636e-07
-1.34684e-06
-3.90161e-08
-1.22356e-06
-8.1686e-08
-1.12059e-06
-1.01656e-07
-9.30988e-07
-2.21961e-07
-7.93655e-07
-1.69535e-07
-6.94576e-07
-1.10099e-07
-5.63487e-07
-1.23544e-07
-3.93636e-07
-1.38366e-07
-7.26941e-08
-2.68655e-07
3.46387e-07
-3.95455e-07
7.59003e-07
-4.61919e-07
1.1432e-06
-4.39398e-07
1.34218e-06
-2.06015e-07
1.48644e-06
-8.18154e-08
1.49316e-06
4.65054e-08
1.43668e-06
7.38432e-08
1.40221e-06
2.52401e-08
1.26942e-06
1.31355e-07
1.19904e-06
6.35082e-08
1.09498e-06
1.09457e-07
1.01892e-06
6.952e-08
1.0337e-06
-3.6536e-08
1.00137e-06
-1.07568e-08
1.03421e-06
-4.67589e-08
9.86164e-07
7.04689e-08
9.56217e-07
4.78341e-08
9.49371e-07
-3.55193e-10
9.14875e-07
-8.1474e-09
8.83759e-07
-2.89766e-08
6.85686e-07
1.33747e-07
5.05206e-07
1.85231e-07
2.89256e-07
2.3515e-07
1.62812e-07
1.27697e-07
1.0112e-07
3.87979e-08
9.84567e-08
4.25166e-08
1.69287e-07
1.2726e-08
3.58936e-07
-1.70229e-07
6.67215e-07
-3.74467e-07
1.04296e-06
-4.16344e-07
1.26382e-06
-1.73006e-07
1.43396e-06
-7.54892e-08
1.44157e-06
7.53349e-09
1.35612e-06
1.56396e-08
1.17242e-06
1.00916e-07
8.15284e-07
3.513e-07
5.19703e-07
3.6885e-07
2.71746e-07
2.76027e-07
1.20487e-07
1.58397e-07
-1.36423e-08
1.83e-07
-7.22289e-08
1.46228e-07
-6.96255e-08
2.83853e-08
-3.08544e-08
-5.46204e-08
-4.76645e-08
6.11006e-08
-8.33798e-08
1.82731e-07
-1.57427e-08
9.53649e-08
1.05391e-07
-1.22445e-07
2.52259e-07
-2.2767e-07
3.13731e-07
-9.23732e-08
3.48171e-07
-4.22103e-08
3.38424e-07
-1.1049e-07
2.84454e-07
-1.03658e-07
1.25449e-07
9.94503e-08
-5.368e-08
1.87034e-07
-2.07166e-07
1.31735e-07
-3.27734e-07
1.74795e-07
-3.83134e-07
1.60106e-07
-4.30501e-07
1.00666e-07
-5.79328e-07
1.04448e-07
-8.64019e-07
2.55801e-07
-1.23479e-06
2.88485e-07
-1.48539e-06
1.48466e-07
-1.74361e-06
3.47602e-07
-1.91794e-06
4.32805e-07
-1.97003e-06
1.17747e-07
-1.77069e-06
-3.17908e-07
-1.51088e-06
-2.59814e-07
-1.31374e-06
-8.46658e-08
-1.04077e-06
-2.58793e-07
-8.10369e-07
-1.93367e-07
-7.18513e-07
4.95241e-08
-6.81181e-07
-2.40298e-08
-7.33645e-07
-6.78214e-08
-9.10354e-07
1.98323e-07
-1.202e-06
4.21342e-07
-1.3877e-06
2.13521e-07
-1.37774e-06
4.28894e-08
-1.3214e-06
-5.48061e-08
-1.27604e-06
-4.03913e-08
-1.30702e-06
1.39115e-07
-1.2236e-06
-5.89831e-08
-9.71893e-07
-3.07215e-07
-8.38534e-07
-8.16356e-08
-8.06564e-07
-1.20229e-07
-8.16545e-07
-2.19136e-08
-8.73775e-07
1.68615e-07
-7.93938e-07
-1.93792e-07
-7.36882e-07
-1.3018e-07
-7.35163e-07
1.32527e-07
-5.56905e-07
-2.83087e-07
-3.85377e-07
-2.93409e-07
-3.6693e-07
1.09723e-07
-3.43298e-07
-1.27857e-07
-4.14524e-07
4.97625e-10
-4.99473e-07
1.18146e-07
-6.48662e-07
1.59346e-07
-7.12714e-07
1.16355e-07
-7.80162e-07
-2.47334e-08
-7.81104e-07
1.38486e-07
-5.72241e-07
-1.15033e-07
-3.54441e-07
-2.64228e-07
-1.00089e-07
-8.64914e-08
-9.27614e-08
3.64176e-08
2.85966e-07
-3.15778e-07
-5.63627e-07
1.01553e-06
2.34055e-07
-7.91151e-07
-2.91884e-06
3.18402e-06
-1.93605e-07
-2.4932e-06
-1.04195e-05
1.01607e-05
-1.20539e-06
-9.00366e-06
-3.5192e-05
3.39567e-05
-4.07576e-06
-3.10819e-05
-0.000124302
0.000119952
-9.69636e-06
-0.00011507
-0.000465444
0.000455088
-6.89451e-06
-0.000461749
-2.13938e-06
-0.000464339
0.000458647
-0.000464609
-0.000462928
-0.00015167
0.000142609
-0.000118493
-0.000148576
-5.28432e-05
5.42758e-05
-3.26431e-05
-5.17271e-05
-1.90493e-05
2.02144e-05
-9.73385e-06
-1.87984e-05
-6.96481e-06
7.22476e-06
-3.13293e-06
-6.69507e-06
-2.584e-06
2.25246e-06
-1.18121e-06
-2.22197e-06
-1.11126e-06
5.17633e-07
-6.86506e-07
-7.99925e-07
-6.65551e-07
4.64208e-08
-6.34733e-07
-4.1065e-07
-6.07478e-07
-5.18604e-08
-5.88286e-07
-5.28986e-08
-6.17583e-07
-1.7836e-07
-5.11888e-07
1.92859e-07
-4.47978e-07
1.08336e-07
-4.37642e-07
3.80214e-08
-4.19084e-07
1.60544e-08
-3.97743e-07
1.76512e-07
-4.40647e-07
-1.28386e-08
-4.95422e-07
-3.10766e-07
-5.36662e-07
6.31927e-08
-5.54792e-07
7.38161e-08
-7.30742e-07
-3.65657e-07
-7.0858e-07
-2.32712e-08
-5.5057e-07
2.80517e-07
-6.25276e-07
-1.05179e-07
-5.82805e-07
-6.79253e-08
-3.73207e-07
-1.0389e-08
-2.3593e-07
-7.04835e-08
-1.44164e-07
-2.39413e-08
-1.60568e-07
-2.42612e-07
-1.18342e-07
-4.75112e-07
-2.88986e-08
-2.74484e-08
-9.88385e-09
1.25301e-07
-1.18544e-07
-1.36075e-07
-2.14332e-07
-2.46779e-07
-2.88469e-07
-9.1384e-08
-2.20163e-07
2.14707e-07
-1.48194e-07
3.89866e-07
-2.44593e-07
-2.0478e-09
-4.04529e-07
-2.94677e-07
-4.03804e-07
-1.98712e-07
-3.47318e-07
-1.21104e-07
-3.90817e-07
-9.86437e-08
-4.12369e-07
1.30165e-07
-4.18162e-07
1.37682e-07
-5.25536e-07
-3.34834e-07
-5.79952e-07
-4.81357e-07
-5.10916e-07
9.78229e-08
-3.12247e-07
4.41965e-07
-1.60091e-07
2.9549e-07
-5.57831e-08
1.47253e-07
-3.91552e-08
8.5754e-08
-1.02672e-07
-1.66913e-07
-1.4327e-07
-4.19073e-07
-1.02275e-07
-2.43214e-07
-9.02246e-08
5.88043e-08
-1.00514e-07
2.2332e-07
-6.15349e-08
3.56534e-07
2.93921e-08
4.05818e-07
4.24477e-08
2.16467e-07
-8.8688e-08
-1.7841e-07
-1.8456e-07
-1.87306e-07
-1.76029e-07
-8.57694e-09
-1.543e-07
-1.2125e-07
-1.91993e-07
-3.72566e-07
-2.05469e-07
-3.8458e-07
-1.43883e-07
-1.75811e-08
-6.28733e-08
1.56991e-07
-2.28873e-08
-4.20947e-08
5.82381e-08
-2.03071e-07
1.28974e-07
-8.87265e-08
1.79365e-07
1.4776e-07
1.51292e-07
1.97085e-07
1.30759e-07
9.03224e-08
2.03428e-07
1.77544e-07
3.05372e-07
1.82307e-07
2.93894e-07
1.08702e-07
1.57472e-07
-1.42447e-07
1.23958e-08
-2.5848e-07
-3.24108e-08
-8.51693e-08
-4.29746e-08
7.04825e-09
-4.39681e-08
-5.386e-08
-4.50262e-08
-2.56381e-07
-4.46856e-08
-2.51247e-07
2.75622e-08
3.09423e-08
6.85372e-08
2.49477e-07
1.11936e-07
2.17564e-07
1.35043e-07
4.28607e-08
2.14629e-07
-8.09795e-08
3.18793e-07
7.23494e-08
3.94852e-07
7.1941e-08
3.39871e-07
5.85303e-08
2.18204e-07
-1.10807e-07
1.14214e-07
-1.12838e-07
8.66036e-08
7.40812e-08
1.197e-07
1.88498e-07
1.56484e-07
2.44385e-07
1.58559e-07
-2.48663e-08
1.60574e-07
-1.68018e-07
2.00925e-07
-1.72425e-07
2.84148e-07
-3.11888e-08
3.27147e-07
2.01804e-07
3.25124e-07
1.56444e-07
2.59976e-07
8.12894e-08
2.05355e-07
-5.15292e-08
1.95141e-07
-8.21325e-08
2.19177e-07
5.02551e-08
2.47139e-07
5.96175e-08
2.30876e-07
-1.4777e-08
1.72025e-07
-2.10017e-07
9.5143e-08
-3.97859e-07
7.84382e-08
-3.04156e-07
1.15973e-07
-1.88977e-07
1.99617e-07
1.2537e-08
2.59205e-07
7.9123e-08
2.56876e-07
-4.95474e-08
2.08616e-07
-1.35619e-07
1.25708e-07
-3.27675e-07
5.5405e-08
-2.76635e-07
1.91661e-08
-1.49802e-07
-3.61478e-08
-1.26467e-08
-5.3033e-08
9.00434e-08
-1.49795e-07
4.12474e-09
-2.43181e-07
-9.0234e-08
-3.38021e-07
-1.88914e-07
-3.95642e-07
-2.17714e-07
-3.72752e-07
-4.84881e-08
-2.96683e-07
9.94994e-08
-1.67525e-07
2.89354e-07
-3.73039e-08
3.83597e-07
1.03757e-08
3.49062e-07
6.56397e-08
3.40508e-07
4.72553e-08
1.97355e-07
4.68387e-08
1.66474e-07
3.09556e-08
1.21657e-07
1.58845e-08
1.50728e-07
2.25652e-08
2.48017e-07
1.7467e-08
2.55868e-07
4.83657e-08
3.2572e-07
5.70658e-08
2.44396e-07
8.90561e-08
2.16746e-07
1.1022e-07
1.33749e-07
1.325e-07
4.27242e-08
1.35287e-07
2.30602e-08
1.28443e-07
-2.96973e-08
1.15232e-07
3.94855e-08
1.08257e-07
8.28106e-08
8.4709e-08
9.8679e-08
7.90395e-08
1.44907e-07
6.7049e-08
9.06661e-08
6.77157e-08
5.97721e-08
7.03309e-08
-3.28345e-08
6.0392e-08
-1.08561e-07
4.49274e-08
-1.59285e-07
1.73771e-08
-1.69209e-07
-1.0602e-08
-1.40004e-07
-3.64384e-08
-8.64874e-08
-5.85591e-08
-3.69131e-08
-6.42419e-08
3.64288e-08
-6.87476e-08
6.03493e-08
-5.84666e-08
8.68501e-08
-3.81602e-08
8.36001e-08
-1.21572e-08
7.78234e-08
4.22666e-08
1.02213e-07
1.06541e-07
1.26931e-07
1.71636e-07
1.53726e-07
2.15293e-07
1.609e-07
2.28645e-07
1.50491e-07
2.17737e-07
1.2759e-07
1.9619e-07
8.76609e-08
1.74655e-07
2.56076e-08
1.55639e-07
-5.21783e-08
1.38667e-07
-1.29252e-07
1.24885e-07
-1.90744e-07
1.14295e-07
-2.28647e-07
1.01235e-07
-2.43568e-07
7.66597e-08
-2.26093e-07
3.60635e-08
-1.87069e-07
-1.12588e-08
-1.1571e-07
-3.97664e-08
-2.72285e-08
-3.6122e-08
5.85874e-08
9.08154e-09
1.32395e-07
8.82645e-08
1.69299e-07
1.82165e-07
1.98465e-07
2.72327e-07
2.09699e-07
3.47512e-07
1.89437e-07
3.96867e-07
1.52841e-07
4.14005e-07
9.24575e-08
3.97941e-07
1.27727e-08
3.54577e-07
-8.76832e-08
3.03291e-07
-2.04805e-07
2.59912e-07
-3.14517e-07
2.30907e-07
-3.84621e-07
2.05704e-07
-3.90125e-07
1.7641e-07
-3.3255e-07
1.39953e-07
-2.33255e-07
1.04581e-07
-1.19585e-07
8.19024e-08
-1.0441e-08
8.05579e-08
8.67696e-08
1.04784e-07
1.69924e-07
1.55548e-07
2.33347e-07
2.32402e-07
2.70835e-07
3.34029e-07
2.82652e-07
4.35248e-07
2.46559e-07
5.06342e-07
1.91778e-07
5.32526e-07
1.13386e-07
5.17375e-07
3.50333e-08
4.83127e-07
-4.31244e-08
4.46873e-07
-1.08813e-07
4.15363e-07
-1.61592e-07
3.86555e-07
-1.88539e-07
3.67287e-07
-1.95106e-07
3.60969e-07
-1.5922e-07
3.65685e-07
-9.44505e-08
3.70092e-07
-1.25065e-08
3.65012e-07
6.58511e-08
3.56163e-07
1.20945e-07
3.59152e-07
1.3811e-07
3.80155e-07
1.1317e-07
4.12233e-07
6.14644e-08
4.39063e-07
1.53902e-08
4.65176e-07
-2.58548e-08
4.84067e-07
-1.92724e-08
5.00185e-07
-3.01651e-08
4.93058e-07
-8.42557e-09
4.56413e-07
1.07621e-08
4.41543e-07
-1.30698e-08
4.12329e-07
1.06931e-07
4.44675e-07
7.16552e-08
4.56793e-07
1.37683e-07
4.58333e-07
1.06743e-07
4.68387e-07
1.20252e-09
4.41479e-07
2.18882e-08
4.53553e-07
-1.19162e-07
4.30293e-07
-1.06967e-07
4.04269e-07
-1.38022e-07
3.8948e-07
-1.7575e-07
3.49522e-07
-7.67787e-08
3.35107e-07
-6.18812e-08
3.03968e-07
6.39212e-08
2.87282e-07
1.80318e-07
3.26827e-07
2.21849e-07
3.71381e-07
3.50005e-07
4.50669e-07
2.51106e-07
4.96841e-07
2.56066e-07
5.25352e-07
1.67565e-07
5.46886e-07
3.50092e-08
5.18605e-07
3.42167e-08
4.81613e-07
-1.18549e-07
4.1893e-07
-5.30298e-08
3.88139e-07
-2.00524e-08
3.70117e-07
7.71868e-08
3.44459e-07
1.91629e-07
3.30549e-07
1.62195e-07
3.39002e-07
2.18546e-07
3.90204e-07
9.68863e-08
4.65788e-07
1.00098e-07
5.32746e-07
6.97604e-08
5.89145e-07
2.79325e-08
6.10042e-07
6.30556e-08
5.97721e-07
-6.40481e-08
5.25615e-07
-1.08706e-07
4.30124e-07
-1.81646e-07
3.40082e-07
-2.57249e-07
2.82e-07
-1.82889e-07
2.3703e-07
-1.989e-07
2.06144e-07
-7.37286e-08
1.86746e-07
-1.96034e-08
1.61318e-07
-5.62402e-08
1.43994e-07
-8.42969e-08
1.26736e-07
-2.04629e-07
1.50705e-07
-1.93364e-07
1.75029e-07
-1.34178e-07
1.86375e-07
-1.34496e-07
1.4317e-07
-9.45733e-08
9.55547e-08
-2.20221e-07
5.01249e-09
-3.0383e-07
-9.52036e-08
-3.60338e-07
-1.94717e-07
-3.38225e-07
-2.38619e-07
-1.60161e-07
-2.37077e-07
-8.1139e-08
-2.20603e-07
3.24621e-08
-2.00582e-07
5.63891e-08
-1.7352e-07
7.87901e-10
-1.07041e-07
6.74179e-08
-7.86218e-08
3.74467e-08
-7.14263e-08
1.04318e-07
-9.64368e-08
9.61823e-08
-1.35711e-07
3.91408e-09
-1.52329e-07
6.52907e-09
-1.48012e-07
-5.09013e-08
-1.25716e-07
4.79213e-08
-1.26759e-07
4.82977e-08
-1.58964e-07
3.10734e-08
-2.0012e-07
3.21869e-08
-2.17742e-07
-1.20696e-08
-2.3245e-07
1.47974e-07
-1.99956e-07
1.52588e-07
-1.49805e-07
1.85245e-07
-8.45357e-08
6.30883e-08
-3.96367e-08
-5.06068e-09
1.44827e-08
-1.02603e-08
2.0484e-08
8.26406e-09
-5.14658e-08
-9.66637e-08
-1.94594e-07
-2.29781e-07
-2.78822e-07
-3.30746e-07
-2.85129e-07
-1.65639e-07
-2.90169e-07
-6.97929e-08
-3.47648e-07
6.52186e-08
-4.3413e-07
1.01923e-07
-4.59249e-07
1.25572e-07
-4.35848e-07
3.27394e-07
-3.45621e-07
2.78335e-07
-2.81879e-07
2.12461e-07
-2.24296e-07
1.01608e-07
-1.58081e-07
1.18198e-07
-1.36388e-07
1.26384e-07
-1.31395e-07
2.53395e-08
-1.18396e-07
-6.59742e-08
-4.36004e-08
-1.26882e-08
1.03411e-08
1.28993e-07
6.95005e-09
9.8234e-08
-8.00117e-08
-3.6428e-08
-1.81721e-07
-1.26897e-07
-2.48384e-07
-2.62313e-08
-2.84279e-07
-6.15783e-09
-3.67258e-07
-2.66333e-08
-4.01429e-07
-6.80651e-08
-3.66353e-07
6.60766e-08
-3.32531e-07
1.54907e-07
-3.30679e-07
1.31337e-07
-3.6862e-07
2.13783e-07
-3.53307e-07
1.45345e-07
-3.53892e-07
1.0135e-07
-2.99377e-07
4.97691e-08
-2.07676e-07
1.64014e-07
-1.74922e-07
2.56086e-07
-1.36604e-07
1.11131e-07
2.49305e-08
1.87493e-07
1.25661e-07
3.33421e-07
3.05248e-08
2.13566e-07
-1.37821e-07
-1.49766e-07
-1.87384e-07
-2.11002e-07
-2.06761e-07
-6.58502e-08
-2.97299e-07
-1.68006e-07
-3.25396e-07
-1.6418e-07
-3.09426e-07
3.49145e-08
-3.64293e-07
3.17731e-08
-4.65788e-07
3.39543e-08
-4.08279e-07
1.40831e-07
-3.56617e-07
3.70054e-07
-4.17637e-07
2.75569e-07
-4.91839e-07
1.18535e-07
-5.14736e-07
-3.05739e-08
-4.46613e-07
-1.07714e-07
-3.85704e-07
7.82952e-08
-3.68549e-07
-7.66239e-08
-3.04252e-07
-3.7198e-07
-1.90127e-07
-1.95281e-07
-1.66944e-07
-1.41494e-07
-8.43981e-08
-1.0185e-07
-2.11543e-08
1.07179e-07
-9.13507e-08
-1.23066e-07
-5.69827e-08
-1.63952e-07
-7.59346e-08
1.5363e-07
-2.26058e-07
-1.29668e-07
-2.50676e-07
-2.66075e-07
-1.9842e-07
5.92135e-08
-2.81773e-07
-4.23424e-08
-2.27217e-07
-5.12341e-08
-1.45737e-07
3.85744e-08
-7.46492e-08
8.77168e-08
6.7587e-10
3.99996e-08
4.03683e-08
-6.39645e-08
1.22827e-07
5.80921e-08
1.35588e-07
-1.26579e-07
6.05252e-08
-1.9185e-07
1.58028e-07
-1.84695e-07
7.47462e-08
1.21965e-07
4.81812e-07
-7.19596e-07
5.62707e-07
9.33413e-07
1.85235e-06
-2.08127e-06
2.37831e-06
2.66306e-06
6.16381e-06
-6.2827e-06
8.811e-06
7.51447e-06
1.80552e-05
-1.82455e-05
3.14121e-05
2.05971e-05
5.13585e-05
-5.10214e-05
0.000116395
5.49142e-05
0.000148724
-0.000147389
0.000460577
0.000143246
0.000459014
-0.000460171
0.00046053
0.000453783
4.03675e-06
0.000142003
-0.000151168
0.000142573
0.000142062
8.07113e-05
-8.67238e-05
5.08531e-05
8.41436e-05
3.70396e-05
-3.79247e-05
1.9167e-05
3.80864e-05
1.51435e-05
-1.47734e-05
7.18966e-06
1.51726e-05
5.63388e-06
-5.13855e-06
2.49422e-06
5.39236e-06
1.83322e-06
-1.56363e-06
6.85464e-07
1.6576e-06
3.36307e-07
-4.50563e-07
-2.66205e-08
4.18564e-07
-2.69995e-07
-1.64409e-07
-3.72436e-07
4.44274e-08
-4.17623e-07
-1.1423e-08
-5.25239e-07
-6.73835e-08
-4.12009e-07
8.40969e-08
-3.16808e-07
1.35087e-08
-3.28118e-07
4.70895e-08
-2.88081e-07
-2.61194e-08
-1.91088e-07
7.89463e-08
-2.04612e-07
-2.84165e-10
-3.90314e-07
-1.26583e-07
-3.57221e-07
3.01608e-08
-2.64567e-07
-1.58631e-08
-4.73222e-07
-1.53684e-07
-5.33789e-07
3.77557e-08
-2.66404e-07
1.12114e-08
-3.04935e-07
-6.7825e-08
-3.42177e-07
-2.99119e-08
-2.71802e-07
-8.00278e-08
-2.57109e-07
-8.62582e-08
-1.90166e-07
-9.27356e-08
-2.79735e-07
-1.53452e-07
-5.14968e-07
-2.38568e-07
-4.67503e-07
-7.37834e-08
-3.40957e-07
-1.83494e-09
-3.58028e-07
-1.20588e-07
-5.03971e-07
-1.01404e-07
-6.06501e-07
1.24503e-08
-4.4201e-07
5.2134e-08
-1.41818e-07
9.03174e-08
-9.88305e-08
-4.61745e-08
-3.09392e-07
-8.58145e-08
-4.19111e-07
-8.96685e-08
-4.12536e-07
-1.26893e-07
-4.68987e-07
-4.09191e-08
-3.35785e-07
-2.64258e-09
-1.89648e-07
-9.41505e-09
-3.74798e-07
-1.51256e-07
-7.0456e-07
-1.5257e-07
-7.10146e-07
1.03651e-07
-3.87205e-07
1.20118e-07
-1.79238e-07
8.85342e-08
-6.64224e-08
3.45992e-08
-1.78588e-08
3.64175e-08
-1.42581e-07
-4.33313e-08
-3.85943e-07
-1.76435e-07
-5.6007e-07
-6.8936e-08
-5.34462e-07
3.40923e-08
-4.60398e-07
1.5036e-07
-2.85615e-07
1.82519e-07
-1.11904e-08
1.31574e-07
1.4049e-07
6.4458e-08
-3.83218e-09
-3.46681e-08
-1.57234e-07
-3.44703e-08
-1.44456e-07
-2.17652e-08
-1.26631e-07
-1.39342e-07
-3.1455e-07
-1.84888e-07
-5.12415e-07
-1.87023e-07
-5.09191e-07
-2.11593e-08
-3.5954e-07
7.06108e-09
-3.18837e-07
-8.28593e-08
-4.20094e-07
-1.01599e-07
-4.49989e-07
-5.83984e-08
-3.67231e-07
6.54974e-08
-2.90415e-07
1.20642e-07
-2.5789e-07
5.78991e-08
-1.77543e-07
9.69579e-08
-2.94e-08
3.36217e-08
5.32414e-08
2.53485e-08
-6.79172e-08
-2.19753e-08
-2.52295e-07
-7.45722e-08
-3.26549e-07
-1.10466e-08
-2.42891e-07
-7.63812e-08
-2.00606e-07
-9.5622e-08
-3.11181e-07
-1.45097e-07
-4.53628e-07
-1.08043e-07
-4.64454e-07
4.24387e-08
-3.1206e-07
9.75522e-08
-1.87959e-07
9.36456e-08
-1.88806e-07
4.35603e-08
-2.22186e-07
-4.80694e-08
-1.95716e-07
4.51449e-08
-1.11024e-07
-1.36631e-08
-1.00786e-07
4.7299e-08
-2.11995e-07
-5.81636e-10
-3.42165e-07
1.64447e-08
-3.65852e-07
9.70636e-08
-2.32238e-07
5.44399e-08
-7.63766e-08
8.83966e-08
-5.20771e-08
-4.89373e-08
-1.55917e-07
-6.36001e-08
-2.79895e-07
-4.75534e-08
-2.87677e-07
-2.22507e-08
-1.93821e-07
1.09306e-07
-8.0257e-08
4.43675e-08
-5.16525e-08
5.4222e-08
-1.04576e-07
2.91732e-09
-1.54672e-07
-3.05916e-08
-1.20214e-07
1.71042e-08
-1.99866e-08
-3.94886e-08
4.66047e-08
-8.04637e-08
-8.34698e-09
-1.54386e-07
-1.68352e-07
-2.37393e-07
-3.06858e-07
-1.65392e-07
-3.36431e-07
-1.59324e-07
-2.60382e-07
-6.35883e-08
-1.26101e-07
-5.53597e-08
-6.87256e-08
-1.07221e-07
-9.68436e-08
-1.07871e-07
-2.42542e-07
-1.82395e-07
-3.79983e-07
-1.39643e-07
-4.35115e-07
-9.51398e-08
-3.95413e-07
-5.2829e-08
-3.03583e-07
-2.27038e-09
-2.56829e-07
-4.31101e-08
-2.87903e-07
-5.96292e-08
-4.06131e-07
-7.11401e-08
-5.49307e-07
-7.498e-08
-6.28336e-07
3.01096e-08
-6.08948e-07
7.96924e-08
-4.87399e-07
1.67397e-07
-3.2451e-07
2.20314e-07
-1.89981e-07
2.14154e-07
-8.84589e-08
2.38619e-07
-8.05886e-08
1.89135e-07
-1.11761e-07
1.97313e-07
-1.77824e-07
1.87402e-07
-2.09309e-07
1.81907e-07
-1.96282e-07
2.34691e-07
-1.29622e-07
1.8892e-07
-3.59195e-08
2.3174e-07
4.23807e-08
1.65834e-07
1.01981e-07
1.56898e-07
1.20693e-07
1.14805e-07
9.05251e-08
7.26758e-08
4.21623e-08
7.12237e-08
-3.03628e-08
4.26476e-08
-6.15321e-08
7.04915e-08
-5.73008e-08
7.84325e-08
-3.2403e-08
7.36532e-08
3.8866e-08
7.35269e-08
9.38071e-08
3.56319e-08
1.4518e-07
8.32705e-09
1.45138e-07
-3.28498e-08
1.05165e-07
-6.86311e-08
3.22865e-08
-8.64342e-08
-4.77694e-08
-8.91672e-08
-1.08067e-07
-7.97165e-08
-1.58508e-07
-3.60553e-08
-1.74677e-07
-2.07528e-08
-1.83986e-07
4.57271e-08
-1.63001e-07
3.93469e-08
-1.4911e-07
7.293e-08
-1.30976e-07
6.54295e-08
-1.18794e-07
6.55931e-08
-9.21353e-08
7.54942e-08
-4.93536e-08
8.40756e-08
3.90258e-09
1.00386e-07
6.66424e-08
9.80637e-08
1.21645e-07
9.53816e-08
1.69832e-07
7.9286e-08
2.04413e-07
5.29568e-08
2.18005e-07
1.18861e-08
2.05691e-07
-3.99997e-08
1.69761e-07
-9.34601e-08
1.15685e-07
-1.36807e-07
4.81927e-08
-1.61293e-07
-2.91351e-08
-1.66374e-07
-1.05708e-07
-1.49649e-07
-1.765e-07
-1.164e-07
-2.20686e-07
-7.16395e-08
-2.29768e-07
-1.82564e-08
-2.04107e-07
3.2822e-08
-1.50956e-07
7.91429e-08
-8.21051e-08
1.00349e-07
-2.79245e-09
1.19051e-07
9.15853e-08
1.15214e-07
1.77067e-07
1.0384e-07
2.4684e-07
8.29446e-08
2.92714e-07
4.64486e-08
3.08703e-07
-3.36604e-09
2.90078e-07
-6.92207e-08
2.29038e-07
-1.43941e-07
1.25823e-07
-2.11489e-07
-5.89207e-09
-2.531e-07
-1.37879e-07
-2.58339e-07
-2.4507e-07
-2.2556e-07
-3.13855e-07
-1.64667e-07
-3.44092e-07
-8.95366e-08
-3.4254e-07
-1.21705e-08
-3.10243e-07
5.43062e-08
-2.47097e-07
1.06621e-07
-1.57663e-07
1.43769e-07
-5.13147e-08
1.64356e-07
5.54314e-08
1.75787e-07
1.44511e-07
1.5737e-07
2.06086e-07
1.30101e-07
2.36132e-07
8.32418e-08
2.34291e-07
3.6773e-08
2.04282e-07
-1.32242e-08
1.52016e-07
-5.66606e-08
8.51546e-08
-9.48494e-08
1.52184e-08
-1.18727e-07
-5.49644e-08
-1.25052e-07
-1.0975e-07
-1.04567e-07
-1.39928e-07
-6.44074e-08
-1.37667e-07
-1.49027e-08
-1.0278e-07
3.08353e-08
-4.56607e-08
6.37038e-08
1.66926e-08
7.56438e-08
5.91145e-08
7.06447e-08
7.99278e-08
4.05576e-08
7.79043e-08
1.73299e-08
6.29924e-08
-1.10191e-08
4.82966e-08
-4.64578e-09
2.86202e-08
-1.05506e-08
1.39125e-08
6.22612e-09
1.8526e-09
2.27705e-08
-1.55832e-08
4.31814e-09
1.99498e-08
7.13546e-08
5.51916e-08
3.63752e-08
1.26023e-07
6.6817e-08
1.7514e-07
5.75956e-08
1.96108e-07
-1.97972e-08
1.8402e-07
3.39385e-08
1.45187e-07
-8.03762e-08
8.53487e-08
-4.71928e-08
3.05853e-08
-8.33405e-08
-5.22963e-08
-9.29692e-08
-1.08606e-07
-2.05925e-08
-1.60238e-07
-1.03918e-08
-1.67269e-07
7.07883e-08
-1.20919e-07
1.33786e-07
-3.77956e-08
1.38529e-07
8.92046e-08
2.22794e-07
1.95175e-07
1.44913e-07
2.83872e-07
1.67136e-07
3.27218e-07
1.23973e-07
3.20891e-07
4.10781e-08
2.73064e-07
8.17711e-08
1.81638e-07
-2.74095e-08
9.30718e-08
3.5239e-08
4.4707e-08
2.80071e-08
5.49775e-08
6.66034e-08
1.22693e-07
1.23589e-07
1.99825e-07
8.47268e-08
2.74988e-07
1.43032e-07
3.10464e-07
6.10402e-08
3.34987e-07
7.5183e-08
3.58555e-07
4.57771e-08
3.89116e-07
-3.06691e-09
4.24934e-07
2.67773e-08
4.28538e-07
-6.81329e-08
3.99291e-07
-7.99593e-08
3.36879e-07
-1.19752e-07
2.49175e-07
-1.70084e-07
1.84572e-07
-1.18843e-07
1.3591e-07
-1.50817e-07
1.55088e-07
-9.35021e-08
2.05325e-07
-7.04456e-08
2.6111e-07
-1.12625e-07
2.69547e-07
-9.33094e-08
2.36525e-07
-1.72135e-07
1.98582e-07
-1.55871e-07
1.89517e-07
-1.25445e-07
2.29647e-07
-1.74796e-07
2.50723e-07
-1.15619e-07
2.46266e-07
-2.15496e-07
1.41831e-07
-1.9886e-07
1.03156e-08
-2.28001e-07
-1.1835e-07
-2.08448e-07
-1.52733e-07
-1.24383e-07
-1.37058e-07
-9.51614e-08
-6.70312e-08
-3.57117e-08
1.38739e-08
-2.25408e-08
3.30881e-08
-1.64271e-08
7.40013e-08
2.84147e-08
8.3562e-08
2.95936e-08
1.36159e-07
5.31142e-08
1.75739e-07
5.75888e-08
1.73989e-07
6.18332e-09
1.4192e-07
3.86299e-08
1.00196e-07
-9.61114e-09
1.0486e-07
4.24211e-08
1.27758e-07
2.42661e-08
1.41879e-07
1.56508e-08
1.20244e-07
5.24965e-08
8.58879e-08
2.10761e-08
1.1607e-07
1.16813e-07
1.95062e-07
7.2934e-08
2.86783e-07
9.32269e-08
3.09222e-07
4.07161e-08
3.26223e-07
-2.16632e-08
3.1023e-07
6.39269e-09
3.59188e-07
-3.98654e-08
3.19751e-07
-5.63346e-08
2.14081e-07
-1.23272e-07
4.00701e-08
-1.56066e-07
-4.39106e-08
-8.12606e-08
-6.99376e-08
-4.37221e-08
-3.00716e-08
2.50107e-08
-1.38726e-08
8.50301e-08
-2.18083e-09
1.12954e-07
1.17784e-07
2.06467e-07
2.30704e-07
1.64657e-07
2.95098e-07
1.47723e-07
2.83944e-07
1.12965e-07
3.19302e-07
8.3578e-08
3.21604e-07
1.2518e-07
3.18491e-07
2.96021e-08
2.41683e-07
1.1672e-08
2.32175e-07
-2.94477e-09
3.37051e-07
2.3633e-08
3.71262e-07
6.29263e-08
3.34057e-07
-6.15562e-10
2.2118e-07
-1.53217e-08
2.07289e-07
-1.32053e-08
2.26876e-07
-2.5999e-08
1.71479e-07
2.90771e-08
1.01727e-07
2.38099e-09
1.05641e-07
6.29919e-08
1.57148e-07
1.0417e-07
2.05066e-07
8.4003e-08
2.26716e-07
1.92463e-07
2.68653e-07
1.03445e-07
2.45181e-07
1.24562e-07
2.2601e-07
6.8476e-08
2.73241e-07
1.16328e-07
3.62855e-07
1.66295e-07
3.86277e-07
8.79688e-08
4.17056e-07
1.57301e-07
5.90986e-07
1.59998e-07
6.92088e-07
1.12438e-07
5.53144e-07
-1.15626e-08
4.28878e-07
-8.78785e-08
3.8397e-07
-2.18629e-08
2.99801e-07
-8.40573e-08
1.90819e-07
-5.47712e-08
2.30131e-07
-3.86095e-09
2.74275e-07
-1.22658e-08
2.12633e-07
9.52219e-08
2.63888e-07
8.9183e-08
4.5171e-07
1.82321e-07
5.67563e-07
1.60339e-07
6.04908e-07
8.19443e-08
5.42495e-07
3.22986e-08
4.76563e-07
-4.17352e-08
5.59886e-07
-5.29829e-09
5.71917e-07
-8.9161e-08
4.05077e-07
-2.05726e-07
3.14854e-07
-1.05324e-07
3.02905e-07
-1.29187e-07
3.1056e-07
-1.08947e-07
4.33247e-07
-1.56964e-08
3.82938e-07
-7.39e-08
2.76781e-07
-5.88336e-08
4.32337e-07
-1.88757e-09
3.60095e-07
-5.69379e-08
1.80123e-07
-8.6412e-08
2.55873e-07
-1.73198e-08