/*--------------------------------*- C++ -*----------------------------------*\
| =========                 |                                                 |
| \\      /  F ield         | OpenFOAM: The Open Source CFD Toolbox           |
|  \\    /   O peration     | Version:  2106                                  |
|   \\  /    A nd           | Website:  www.openfoam.com                      |
|    \\/     M anipulation  |                                                 |
\*---------------------------------------------------------------------------*/
FoamFile
{
    version     2.0;
    format      ascii;
    arch        "LSB;label=32;scalar=64";
    class       surfaceScalarField;
    location    "0.005";
    object      phiB;
}
// * * * * * * * * * * * * * * * * * * * * * * * * * * * * * * * * * * * * * //

dimensions      [1 2 -2 0 0 -1 0];

oriented        oriented;

internalField   nonuniform List<scalar> 
319200
(
1.76808e-06
2.03016e-06
8.59673e-07
-4.50654e-07
2.83656e-06
3.90731e-07
1.93541e-06
-3.62525e-07
1.11965e-06
-1.21014e-06
7.2219e-08
-1.18657e-06
-6.42615e-07
-6.82257e-07
-8.84135e-07
-1.84948e-07
-8.05853e-07
1.12841e-07
-6.02984e-07
2.24533e-07
-3.92634e-07
2.27424e-07
-2.28903e-07
1.86177e-07
-1.17353e-07
1.39303e-07
-4.77391e-08
1.01159e-07
-1.20133e-08
7.49619e-08
1.1346e-08
6.0049e-08
1.80906e-08
5.07965e-08
2.48453e-08
4.82375e-08
3.03765e-08
4.74731e-08
3.0458e-08
4.8223e-08
3.98473e-08
5.17912e-08
4.76718e-08
5.32745e-08
5.55434e-08
5.63107e-08
7.30841e-08
6.01679e-08
8.71724e-08
6.09653e-08
1.01128e-07
6.3173e-08
1.2371e-07
6.55304e-08
1.41485e-07
6.42477e-08
1.5543e-07
6.38063e-08
1.76717e-07
6.41816e-08
1.93885e-07
6.08401e-08
2.02637e-07
5.73358e-08
2.15301e-07
5.63318e-08
2.28098e-07
5.28682e-08
2.31042e-07
4.75356e-08
2.32676e-07
4.56491e-08
2.39361e-07
4.46311e-08
2.4134e-07
4.0522e-08
2.36488e-07
3.7595e-08
2.35806e-07
3.86969e-08
2.40057e-07
3.88559e-08
2.39081e-07
3.61127e-08
2.34044e-07
3.54813e-08
2.34868e-07
3.81239e-08
2.40248e-07
3.8754e-08
2.40671e-07
3.60706e-08
2.36649e-07
3.50416e-08
2.37078e-07
3.72185e-08
2.42359e-07
3.79422e-08
2.44182e-07
3.50189e-08
2.40528e-07
3.2695e-08
2.38815e-07
3.42575e-08
2.43279e-07
3.65854e-08
2.4892e-07
3.56214e-08
2.50431e-07
3.30398e-08
2.50392e-07
3.33114e-08
2.55093e-07
3.6567e-08
2.64928e-07
3.85722e-08
2.74074e-07
3.69622e-08
2.78801e-07
3.42902e-08
2.8161e-07
3.40925e-08
2.87323e-07
3.59927e-08
2.96028e-07
3.64043e-08
3.02556e-07
3.33275e-08
3.03814e-07
2.87486e-08
3.01614e-07
2.61396e-08
2.99397e-07
2.63187e-08
2.99188e-07
2.67866e-08
2.99287e-07
2.50668e-08
2.9669e-07
2.13858e-08
2.9133e-07
1.83162e-08
2.85473e-07
1.81759e-08
2.8202e-07
2.06185e-08
2.82481e-07
2.31561e-08
2.84907e-07
2.3747e-08
2.86911e-07
2.24313e-08
2.88518e-07
2.09861e-08
2.90526e-07
2.12028e-08
2.93933e-07
2.32359e-08
2.99319e-07
2.56161e-08
3.05654e-07
2.64973e-08
3.11987e-07
2.49569e-08
3.17382e-07
2.17852e-08
3.20012e-07
1.87106e-08
3.20235e-07
1.67895e-08
3.20205e-07
1.60683e-08
3.20097e-07
1.59379e-08
3.1943e-07
1.53911e-08
3.18114e-07
1.38114e-08
3.14749e-07
1.139e-08
3.09096e-07
8.68525e-09
3.03584e-07
6.50075e-09
2.99348e-07
5.71181e-09
2.95977e-07
6.476e-09
2.94464e-07
8.1582e-09
2.95073e-07
1.00905e-08
2.96181e-07
1.17358e-08
2.97967e-07
1.25317e-08
3.01536e-07
1.2305e-08
3.05508e-07
1.13727e-08
3.08497e-07
9.96917e-09
3.11043e-07
8.24233e-09
3.1277e-07
6.55624e-09
3.12631e-07
5.09692e-09
3.11424e-07
3.71274e-09
3.10069e-07
2.35035e-09
3.07916e-07
1.07857e-09
3.04579e-07
-1.01363e-10
3.00495e-07
-1.12543e-09
2.9596e-07
-1.8864e-09
2.91735e-07
-2.42768e-09
2.88862e-07
-2.79558e-09
2.86819e-07
-2.90615e-09
2.84552e-07
-2.80773e-09
2.82948e-07
-2.72481e-09
2.83113e-07
-2.71355e-09
2.83934e-07
-2.69223e-09
2.84189e-07
-2.8202e-09
2.84468e-07
-3.35296e-09
2.84995e-07
-4.24525e-09
2.84534e-07
-5.3525e-09
2.82723e-07
-6.68098e-09
2.80634e-07
-8.13133e-09
2.7862e-07
-9.43342e-09
2.7602e-07
-1.0486e-08
2.72767e-07
-1.14259e-08
2.6938e-07
-1.23131e-08
2.6586e-07
-1.30087e-08
2.62178e-07
-1.34076e-08
2.59075e-07
-1.35862e-08
2.57055e-07
-1.36944e-08
2.55552e-07
-1.38681e-08
2.53969e-07
-1.42491e-08
2.52376e-07
-1.48999e-08
2.50716e-07
-1.57121e-08
2.48509e-07
-1.65701e-08
2.45724e-07
-1.74874e-08
2.42883e-07
-1.84625e-08
2.40132e-07
-1.93779e-08
2.37079e-07
-2.01403e-08
2.33581e-07
-2.07941e-08
2.30029e-07
-2.1415e-08
2.26782e-07
-2.198e-08
2.23884e-07
-2.2404e-08
2.21374e-07
-2.26662e-08
2.19345e-07
-2.2866e-08
2.17636e-07
-2.31774e-08
2.15825e-07
-2.37585e-08
2.13571e-07
-2.4648e-08
2.10756e-07
-2.57169e-08
2.0741e-07
-2.67555e-08
2.03722e-07
-2.76233e-08
1.99977e-07
-2.83174e-08
1.96336e-07
-2.89211e-08
1.92733e-07
-2.95161e-08
1.89054e-07
-3.01193e-08
1.85318e-07
-3.06823e-08
1.81609e-07
-3.11452e-08
1.78006e-07
-3.15004e-08
1.74674e-07
-3.18029e-08
1.71823e-07
-3.21083e-08
1.69412e-07
-3.24338e-08
1.67089e-07
-3.28076e-08
1.64537e-07
-3.33049e-08
1.61696e-07
-3.39739e-08
1.58554e-07
-3.47611e-08
1.54976e-07
-3.55623e-08
1.50975e-07
-3.62887e-08
1.46985e-07
-3.68709e-08
1.43499e-07
-3.72784e-08
1.40435e-07
-3.75553e-08
1.37154e-07
-3.78224e-08
1.33311e-07
-3.82233e-08
1.29347e-07
-3.88102e-08
1.25811e-07
-3.94493e-08
1.22557e-07
-3.99168e-08
1.19061e-07
-4.01365e-08
1.15289e-07
-4.02385e-08
1.11735e-07
-4.03684e-08
1.0866e-07
-4.05649e-08
1.05722e-07
-4.08362e-08
1.02452e-07
-4.12127e-08
9.88579e-08
-4.16871e-08
9.53236e-08
-4.21794e-08
9.19452e-08
-4.25744e-08
8.83088e-08
-4.2791e-08
8.41628e-08
-4.28573e-08
8.0052e-08
-4.28964e-08
7.68141e-08
-4.29889e-08
7.44654e-08
-4.31037e-08
7.20317e-08
-4.32174e-08
6.86131e-08
-4.34111e-08
6.43073e-08
-4.37609e-08
5.99104e-08
-4.41891e-08
5.59447e-08
-4.45007e-08
5.22664e-08
-4.45473e-08
4.85829e-08
-4.43377e-08
4.5049e-08
-4.4009e-08
4.2087e-08
-4.37043e-08
3.9665e-08
-4.34868e-08
3.70935e-08
-4.33771e-08
3.37422e-08
-4.34232e-08
2.97634e-08
-4.3652e-08
2.58462e-08
-4.39655e-08
2.2345e-08
-4.41679e-08
1.89251e-08
-4.41199e-08
1.5113e-08
-4.38368e-08
1.1014e-08
-4.34443e-08
7.3142e-09
-4.30704e-08
4.52872e-09
-4.27668e-08
2.34571e-09
-4.25119e-08
-1.38094e-10
-4.22897e-08
-3.52258e-09
-4.21341e-08
-7.59423e-09
-4.20581e-08
-1.17182e-08
-4.19798e-08
-1.54763e-08
-4.17768e-08
-1.88134e-08
-4.13971e-08
-2.18384e-08
-4.08806e-08
-2.47067e-08
-4.03134e-08
-2.75712e-08
-3.97981e-08
-3.04948e-08
-3.9423e-08
-3.34607e-08
-3.91983e-08
-3.64899e-08
-3.90317e-08
-3.96684e-08
-3.87967e-08
-4.30675e-08
-3.84256e-08
-4.66329e-08
-3.79364e-08
-5.01051e-08
-3.73964e-08
-5.31844e-08
-3.68745e-08
-5.59356e-08
-3.64029e-08
-5.88648e-08
-3.59729e-08
-6.23655e-08
-3.55622e-08
-6.62224e-08
-3.51432e-08
-6.98552e-08
-3.46558e-08
-7.29068e-08
-3.40158e-08
-7.54449e-08
-3.31996e-08
-7.77148e-08
-3.23043e-08
-7.987e-08
-3.14795e-08
-8.19863e-08
-3.08199e-08
-8.41789e-08
-3.03357e-08
-8.65776e-08
-2.99788e-08
-8.92513e-08
-2.96693e-08
-9.22062e-08
-2.93169e-08
-9.54099e-08
-2.88706e-08
-9.87533e-08
-2.83533e-08
-1.02072e-07
-2.78194e-08
-1.05305e-07
-2.72899e-08
-1.08541e-07
-2.67346e-08
-1.11833e-07
-2.60965e-08
-1.15054e-07
-2.53185e-08
-1.17943e-07
-2.43698e-08
-1.20279e-07
-2.3287e-08
-1.22028e-07
-2.21852e-08
-1.23394e-07
-2.12089e-08
-1.24769e-07
-2.04651e-08
-1.26507e-07
-1.99831e-08
-1.28688e-07
-1.96996e-08
-1.31185e-07
-1.94752e-08
-1.33907e-07
-1.91606e-08
-1.3681e-07
-1.86808e-08
-1.3975e-07
-1.80553e-08
-1.42574e-07
-1.73337e-08
-1.45301e-07
-1.65493e-08
-1.47954e-07
-1.57287e-08
-1.50299e-07
-1.48908e-08
-1.52033e-07
-1.4017e-08
-1.53226e-07
-1.30896e-08
-1.5425e-07
-1.21799e-08
-1.55318e-07
-1.14232e-08
-1.56568e-07
-1.08984e-08
-1.58387e-07
-1.05811e-08
-1.60995e-07
-1.04026e-08
-1.63966e-07
-1.02698e-08
-1.66821e-07
-1.00377e-08
-1.69635e-07
-9.5931e-09
-1.72515e-07
-8.95183e-09
-1.75186e-07
-8.17077e-09
-1.77502e-07
-7.23211e-09
-1.79479e-07
-6.11269e-09
-1.80671e-07
-4.88997e-09
-1.80492e-07
-3.66122e-09
-1.79337e-07
-2.48461e-09
-1.78216e-07
-1.49567e-09
-1.77354e-07
-8.69374e-10
-1.76652e-07
-6.03916e-10
-1.76865e-07
-5.44541e-10
-1.78553e-07
-6.23773e-10
-1.80938e-07
-8.46339e-10
-1.83382e-07
-1.09137e-09
-1.86424e-07
-1.21627e-09
-1.90271e-07
-1.22458e-09
-1.94183e-07
-1.1221e-09
-1.97716e-07
-8.26641e-10
-2.00805e-07
-3.16555e-10
-2.03136e-07
3.59467e-10
-2.04661e-07
1.22649e-09
-2.05591e-07
2.33023e-09
-2.05395e-07
3.67165e-09
-2.03574e-07
5.32066e-09
-2.00836e-07
7.27549e-09
-1.97642e-07
9.21434e-09
-1.93741e-07
1.06896e-08
-1.90074e-07
1.13664e-08
-1.87889e-07
1.09392e-08
-1.86872e-07
9.29636e-09
-1.87014e-07
6.87961e-09
-1.89399e-07
4.45436e-09
-1.93695e-07
2.71182e-09
-1.98559e-07
2.24646e-09
-2.03589e-07
3.26714e-09
-2.08028e-07
5.20649e-09
-2.10581e-07
7.09234e-09
-2.1167e-07
8.19218e-09
-2.12505e-07
8.26689e-09
-2.13172e-07
7.80957e-09
-2.13781e-07
7.95832e-09
-2.14109e-07
9.57304e-09
-2.12322e-07
1.25221e-08
-2.07594e-07
1.57741e-08
-2.0127e-07
1.78189e-08
-1.94636e-07
1.7637e-08
-1.89073e-07
1.57188e-08
-1.85851e-07
1.37204e-08
-1.84255e-07
1.30801e-08
-1.82834e-07
1.39096e-08
-1.81029e-07
1.48104e-08
-1.79305e-07
1.40599e-08
-1.79674e-07
1.1382e-08
-1.83677e-07
8.34182e-09
-1.89775e-07
6.99448e-09
-1.95183e-07
8.04516e-09
-1.9828e-07
1.01088e-08
-1.99296e-07
1.11845e-08
-2.00366e-07
1.09033e-08
-2.0256e-07
1.08539e-08
-2.03861e-07
1.27339e-08
-2.01909e-07
1.62916e-08
-1.96337e-07
1.93618e-08
-1.89521e-07
2.03999e-08
-1.84419e-07
2.02943e-08
-1.80305e-07
2.09493e-08
-1.74408e-07
2.26927e-08
-1.66684e-07
2.38149e-08
-1.59811e-07
2.29252e-08
-1.5598e-07
2.09892e-08
-1.54152e-07
1.9979e-08
-1.51644e-07
2.00814e-08
-1.48498e-07
1.97448e-08
-1.47092e-07
1.83544e-08
-1.4794e-07
1.72973e-08
-1.48606e-07
1.77109e-08
-1.4758e-07
1.87062e-08
-1.465e-07
1.90511e-08
-1.46729e-07
1.91958e-08
-1.47081e-07
2.00812e-08
-1.4637e-07
2.12794e-08
-1.45734e-07
2.18987e-08
-1.4627e-07
2.21378e-08
-1.47152e-07
2.26203e-08
-1.48007e-07
2.32239e-08
-1.49157e-07
2.37384e-08
-1.50176e-07
2.44678e-08
-1.50597e-07
2.54865e-08
-1.50573e-07
2.68136e-08
-1.48963e-07
2.88367e-08
-1.44338e-07
3.13578e-08
-1.38277e-07
3.38436e-08
-1.30687e-07
3.68331e-08
-1.18956e-07
4.05432e-08
-1.04677e-07
4.36908e-08
-9.0444e-08
4.64065e-08
-7.3342e-08
4.97166e-08
-5.38257e-08
5.22134e-08
-3.69393e-08
5.33628e-08
-1.95289e-08
5.4883e-08
-1.00305e-09
5.56595e-08
1.25646e-08
5.47326e-08
2.44063e-08
5.42741e-08
3.63248e-08
5.30799e-08
4.12492e-08
5.04188e-08
4.40788e-08
4.82572e-08
4.4753e-08
4.4946e-08
3.64727e-08
3.98443e-08
2.55545e-08
3.41456e-08
3.0386e-09
2.44736e-08
-3.55655e-08
1.05734e-08
-9.49157e-08
-9.81562e-09
-1.95163e-07
-3.97477e-08
-3.48095e-07
-7.8527e-08
-5.79049e-07
-1.24968e-07
-8.94984e-07
-1.67366e-07
-1.26974e-06
-1.83896e-07
-1.58977e-06
-1.39021e-07
-1.60242e-06
1.20086e-09
-9.48376e-07
2.25134e-07
5.25835e-07
3.97133e-07
1.96843e-06
2.12456e-07
1.06915e-06
-5.6454e-07
-3.89483e-07
-1.4155e-06
4.42219e-07
-8.23883e-07
-2.04382e-06
-7.30246e-07
2.69637e-07
1.69194e-06
7.4809e-07
2.08379e-06
2.15898e-07
1.08791e-06
-3.3513e-07
1.14313e-06
-6.51445e-07
5.76779e-07
-6.11261e-07
-1.44444e-07
-3.64276e-07
-5.8572e-07
-1.01265e-07
-6.94129e-07
7.78114e-08
-5.99932e-07
1.61014e-07
-4.33749e-07
1.77478e-07
-2.75656e-07
1.60438e-07
-1.55421e-07
1.33812e-07
-7.38789e-08
1.09211e-07
-2.68843e-08
9.06097e-08
2.27563e-09
7.91535e-08
1.56975e-08
7.18661e-08
2.35704e-08
6.92054e-08
3.05575e-08
6.86283e-08
3.38709e-08
6.91237e-08
4.13567e-08
7.16003e-08
5.08086e-08
7.34055e-08
5.93303e-08
7.53776e-08
7.38194e-08
7.8333e-08
8.93566e-08
7.94822e-08
1.03359e-07
8.04359e-08
1.22282e-07
8.18929e-08
1.41232e-07
8.12317e-08
1.56188e-07
7.98671e-08
1.73324e-07
7.92267e-08
1.90427e-07
7.68504e-08
2.01841e-07
7.31489e-08
2.11958e-07
7.07483e-08
2.23017e-07
6.80789e-08
2.29424e-07
6.37361e-08
2.31622e-07
6.04176e-08
2.35217e-07
5.87834e-08
2.38571e-07
5.62144e-08
2.37587e-07
5.31576e-08
2.35701e-07
5.21845e-08
2.37013e-07
5.22631e-08
2.38348e-07
5.09506e-08
2.36667e-07
4.94038e-08
2.3539e-07
4.97095e-08
2.37457e-07
5.04011e-08
2.39643e-07
4.92569e-08
2.38877e-07
4.74631e-08
2.37739e-07
4.71679e-08
2.39272e-07
4.75448e-08
2.41659e-07
4.64761e-08
2.41851e-07
4.43617e-08
2.40927e-07
4.34434e-08
2.42281e-07
4.41301e-08
2.46362e-07
4.44845e-08
2.50527e-07
4.34292e-08
2.53452e-07
4.23812e-08
2.57051e-07
4.28614e-08
2.63331e-07
4.41028e-08
2.71308e-07
4.4203e-08
2.78506e-07
4.27489e-08
2.83758e-07
4.11237e-08
2.88138e-07
4.0432e-08
2.93118e-07
4.01539e-08
2.98178e-07
3.88841e-08
3.01337e-07
3.60816e-08
3.01497e-07
3.2854e-08
2.99649e-07
3.06035e-08
2.97533e-07
2.94889e-08
2.95884e-07
2.84786e-08
2.93952e-07
2.67541e-08
2.90972e-07
2.46414e-08
2.87367e-07
2.31364e-08
2.84336e-07
2.29117e-08
2.83114e-07
2.3757e-08
2.84071e-07
2.47673e-08
2.8643e-07
2.50871e-08
2.89223e-07
2.46115e-08
2.92107e-07
2.39693e-08
2.95441e-07
2.3781e-08
2.99709e-07
2.40491e-08
3.04669e-07
2.4246e-08
3.09572e-07
2.37585e-08
3.1397e-07
2.23199e-08
3.17376e-07
2.01628e-08
3.19126e-07
1.77348e-08
3.19257e-07
1.5473e-08
3.18256e-07
1.36687e-08
3.1637e-07
1.22071e-08
3.13941e-07
1.07944e-08
3.11161e-07
9.3632e-09
3.07826e-07
7.94049e-09
3.04163e-07
6.60066e-09
3.00753e-07
5.5919e-09
2.979e-07
5.11468e-09
2.95967e-07
5.15625e-09
2.95387e-07
5.58931e-09
2.96129e-07
6.19591e-09
2.97819e-07
6.66704e-09
3.00213e-07
6.75988e-09
3.03108e-07
6.40109e-09
3.06022e-07
5.57158e-09
3.085e-07
4.28756e-09
3.10359e-07
2.72209e-09
3.11312e-07
1.05627e-09
3.11068e-07
-7.08627e-10
3.09691e-07
-2.55003e-09
3.07334e-07
-4.30456e-09
3.04156e-07
-5.84919e-09
3.00505e-07
-7.12938e-09
2.96653e-07
-8.1089e-09
2.92755e-07
-8.81296e-09
2.89245e-07
-9.27963e-09
2.86567e-07
-9.51147e-09
2.84661e-07
-9.56923e-09
2.83281e-07
-9.61744e-09
2.82582e-07
-9.77247e-09
2.8277e-07
-1.00072e-08
2.83397e-07
-1.03399e-08
2.83776e-07
-1.09441e-08
2.83725e-07
-1.19173e-08
2.83215e-07
-1.31427e-08
2.82016e-07
-1.44658e-08
2.80085e-07
-1.57924e-08
2.77604e-07
-1.70441e-08
2.74677e-07
-1.82085e-08
2.71438e-07
-1.93134e-08
2.68171e-07
-2.02883e-08
2.65097e-07
-2.10126e-08
2.62274e-07
-2.1479e-08
2.59721e-07
-2.18136e-08
2.57515e-07
-2.21532e-08
2.55695e-07
-2.25538e-08
2.54043e-07
-2.30333e-08
2.52213e-07
-2.36423e-08
2.50088e-07
-2.4426e-08
2.47704e-07
-2.53521e-08
2.45059e-07
-2.63335e-08
2.42203e-07
-2.72829e-08
2.39251e-07
-2.81355e-08
2.36196e-07
-2.88909e-08
2.32948e-07
-2.96083e-08
2.29579e-07
-3.03114e-08
2.26368e-07
-3.09355e-08
2.23571e-07
-3.13999e-08
2.21217e-07
-3.17157e-08
2.19129e-07
-3.20127e-08
2.17097e-07
-3.24571e-08
2.14937e-07
-3.31349e-08
2.12486e-07
-3.40027e-08
2.09648e-07
-3.4934e-08
2.06422e-07
-3.58146e-08
2.0288e-07
-3.66127e-08
1.99166e-07
-3.736e-08
1.95457e-07
-3.80778e-08
1.91852e-07
-3.87445e-08
1.88325e-07
-3.93282e-08
1.84812e-07
-3.98232e-08
1.81312e-07
-4.02538e-08
1.77909e-07
-4.06486e-08
1.74705e-07
-4.102e-08
1.71774e-07
-4.13768e-08
1.69126e-07
-4.17375e-08
1.66621e-07
-4.21299e-08
1.63952e-07
-4.26089e-08
1.60906e-07
-4.32384e-08
1.57571e-07
-4.40023e-08
1.54108e-07
-4.47733e-08
1.50548e-07
-4.54204e-08
1.46905e-07
-4.59132e-08
1.43287e-07
-4.62996e-08
1.398e-07
-4.66531e-08
1.36444e-07
-4.7044e-08
1.33083e-07
-4.74979e-08
1.29505e-07
-4.7984e-08
1.25679e-07
-4.84556e-08
1.21872e-07
-4.88598e-08
1.1831e-07
-4.91405e-08
1.14914e-07
-4.93112e-08
1.11591e-07
-4.9478e-08
1.08425e-07
-4.9721e-08
1.05393e-07
-5.00209e-08
1.02219e-07
-5.03445e-08
9.86987e-08
-5.07063e-08
9.4906e-08
-5.11025e-08
9.10605e-08
-5.14679e-08
8.73837e-08
-5.17297e-08
8.39697e-08
-5.18618e-08
8.0685e-08
-5.19002e-08
7.73536e-08
-5.19333e-08
7.4018e-08
-5.20434e-08
7.07838e-08
-5.22411e-08
6.75069e-08
-5.24894e-08
6.39227e-08
-5.27644e-08
6.00023e-08
-5.3037e-08
5.59768e-08
-5.32304e-08
5.21044e-08
-5.32602e-08
4.85141e-08
-5.3113e-08
4.51869e-08
-5.28591e-08
4.20545e-08
-5.26094e-08
3.91206e-08
-5.24565e-08
3.63649e-08
-5.24245e-08
3.35262e-08
-5.24735e-08
3.02203e-08
-5.25648e-08
2.63569e-08
-5.26828e-08
2.22566e-08
-5.27806e-08
1.83223e-08
-5.27669e-08
1.4735e-08
-5.25845e-08
1.14387e-08
-5.22661e-08
8.26787e-09
-5.18992e-08
5.10137e-09
-5.15699e-08
1.95299e-09
-5.13282e-08
-1.14416e-09
-5.11661e-08
-4.30384e-09
-5.10313e-08
-7.67831e-09
-5.08805e-08
-1.12193e-08
-5.06954e-08
-1.47212e-08
-5.04417e-08
-1.80632e-08
-5.00708e-08
-2.12458e-08
-4.95913e-08
-2.42592e-08
-4.90887e-08
-2.71188e-08
-4.86474e-08
-2.99882e-08
-4.82894e-08
-3.30747e-08
-4.79988e-08
-3.64009e-08
-4.77476e-08
-3.98043e-08
-4.74773e-08
-4.31456e-08
-4.71158e-08
-4.64051e-08
-4.66463e-08
-4.9596e-08
-4.61275e-08
-5.27161e-08
-4.56312e-08
-5.5798e-08
-4.51837e-08
-5.89068e-08
-4.47665e-08
-6.20809e-08
-4.43394e-08
-6.53229e-08
-4.38568e-08
-6.85837e-08
-4.32843e-08
-7.17011e-08
-4.2613e-08
-7.44819e-08
-4.18652e-08
-7.69052e-08
-4.10881e-08
-7.91395e-08
-4.03481e-08
-8.1367e-08
-3.97117e-08
-8.36853e-08
-3.92034e-08
-8.61714e-08
-3.87879e-08
-8.88997e-08
-3.84001e-08
-9.18569e-08
-3.79862e-08
-9.49476e-08
-3.75222e-08
-9.80959e-08
-3.70102e-08
-1.01286e-07
-3.64688e-08
-1.04518e-07
-3.59115e-08
-1.07767e-07
-3.53203e-08
-1.10971e-07
-3.46477e-08
-1.14022e-07
-3.38509e-08
-1.16752e-07
-3.29245e-08
-1.19032e-07
-3.19144e-08
-1.20881e-07
-3.09101e-08
-1.2247e-07
-3.0016e-08
-1.24049e-07
-2.93037e-08
-1.25863e-07
-2.87763e-08
-1.28049e-07
-2.83724e-08
-1.30565e-07
-2.80007e-08
-1.33266e-07
-2.75746e-08
-1.36049e-07
-2.70409e-08
-1.38866e-07
-2.63976e-08
-1.4163e-07
-2.5678e-08
-1.44209e-07
-2.49067e-08
-1.46542e-07
-2.40859e-08
-1.48653e-07
-2.32172e-08
-1.50511e-07
-2.23139e-08
-1.52045e-07
-2.13993e-08
-1.53344e-07
-2.05179e-08
-1.54649e-07
-1.97461e-08
-1.5617e-07
-1.91506e-08
-1.58049e-07
-1.87268e-08
-1.60413e-07
-1.84007e-08
-1.63255e-07
-1.80766e-08
-1.66332e-07
-1.76741e-08
-1.69341e-07
-1.71437e-08
-1.72105e-07
-1.64699e-08
-1.74551e-07
-1.56488e-08
-1.76557e-07
-1.46565e-08
-1.7799e-07
-1.34926e-08
-1.78802e-07
-1.22359e-08
-1.78969e-07
-1.09961e-08
-1.78575e-07
-9.85301e-09
-1.77959e-07
-8.89617e-09
-1.77484e-07
-8.24464e-09
-1.77287e-07
-7.92815e-09
-1.77528e-07
-7.8326e-09
-1.78574e-07
-7.84817e-09
-1.80593e-07
-7.94185e-09
-1.83378e-07
-8.04251e-09
-1.86741e-07
-8.00894e-09
-1.90582e-07
-7.74939e-09
-1.94559e-07
-7.24631e-09
-1.98134e-07
-6.47308e-09
-2.0096e-07
-5.425e-09
-2.0287e-07
-4.17457e-09
-2.03705e-07
-2.8165e-09
-2.03499e-07
-1.44643e-09
-2.02431e-07
-1.5987e-10
-2.006e-07
1.0231e-09
-1.98254e-07
2.13835e-09
-1.95771e-07
3.13168e-09
-1.93279e-07
3.89453e-09
-1.90952e-07
4.40923e-09
-1.89313e-07
4.64943e-09
-1.887e-07
4.49346e-09
-1.89069e-07
3.9083e-09
-1.90534e-07
3.0313e-09
-1.93273e-07
2.06707e-09
-1.97025e-07
1.32322e-09
-2.01312e-07
1.18622e-09
-2.05703e-07
1.82598e-09
-2.09528e-07
3.10338e-09
-2.12118e-07
4.7432e-09
-2.13341e-07
6.38229e-09
-2.13306e-07
7.71696e-09
-2.12228e-07
8.78729e-09
-2.10547e-07
9.89877e-09
-2.0826e-07
1.13137e-08
-2.0494e-07
1.30861e-08
-2.00592e-07
1.49095e-08
-1.95663e-07
1.61639e-08
-1.90798e-07
1.64189e-08
-1.86834e-07
1.58095e-08
-1.84283e-07
1.49094e-08
-1.82996e-07
1.43487e-08
-1.82512e-07
1.42961e-08
-1.82475e-07
1.42713e-08
-1.83107e-07
1.36945e-08
-1.85125e-07
1.25415e-08
-1.8867e-07
1.14734e-08
-1.92918e-07
1.13685e-08
-1.96693e-07
1.24894e-08
-1.99009e-07
1.41892e-08
-1.99876e-07
1.56538e-08
-2.00171e-07
1.67635e-08
-2.00142e-07
1.81678e-08
-1.98898e-07
2.0453e-08
-1.95447e-07
2.32174e-08
-1.90026e-07
2.5427e-08
-1.84139e-07
2.65974e-08
-1.78821e-07
2.72529e-08
-1.73669e-07
2.81427e-08
-1.67959e-07
2.91507e-08
-1.62028e-07
2.94451e-08
-1.57238e-07
2.87597e-08
-1.54325e-07
2.78848e-08
-1.52309e-07
2.75864e-08
-1.50125e-07
2.7639e-08
-1.48274e-07
2.74271e-08
-1.47657e-07
2.71118e-08
-1.47757e-07
2.74077e-08
-1.47376e-07
2.84001e-08
-1.46509e-07
2.94559e-08
-1.46013e-07
3.03063e-08
-1.45987e-07
3.13212e-08
-1.45835e-07
3.26077e-08
-1.45596e-07
3.37674e-08
-1.45917e-07
3.4629e-08
-1.46752e-07
3.54529e-08
-1.47672e-07
3.63606e-08
-1.48679e-07
3.72968e-08
-1.49518e-07
3.84131e-08
-1.49521e-07
3.97937e-08
-1.48617e-07
4.14124e-08
-1.46555e-07
4.3514e-08
-1.42096e-07
4.6168e-08
-1.35284e-07
4.89776e-08
-1.26924e-07
5.19917e-08
-1.15915e-07
5.55488e-08
-1.01913e-07
5.90461e-08
-8.70073e-08
6.20716e-08
-7.08986e-08
6.5225e-08
-5.25587e-08
6.81027e-08
-3.50619e-08
6.99546e-08
-1.87488e-08
7.15738e-08
-1.86142e-09
7.28514e-08
1.22871e-08
7.28946e-08
2.33962e-08
7.27113e-08
3.36199e-08
7.21536e-08
3.91555e-08
7.05994e-08
4.09156e-08
6.8903e-08
3.97455e-08
6.66397e-08
3.09122e-08
6.30103e-08
1.56486e-08
5.85212e-08
-1.09653e-08
5.13902e-08
-5.58929e-08
4.07058e-08
-1.24911e-07
2.49442e-08
-2.33897e-07
1.66661e-09
-3.94456e-07
-2.89851e-08
-6.21352e-07
-6.52899e-08
-9.11382e-07
-9.74554e-08
-1.22486e-06
-1.05141e-07
-1.44956e-06
-5.33014e-08
-1.37843e-06
9.9598e-08
-7.76121e-07
3.68398e-07
3.41193e-07
6.68818e-07
1.19152e-06
7.3802e-07
2.18497e-07
2.98471e-07
2.00233e-07
3.48783e-07
-7.8971e-07
8.08758e-07
4.80119e-07
-2.48637e-07
-5.96474e-07
1.15991e-06
2.01198e-07
1.53276e-06
7.54185e-08
7.71497e-07
-2.0334e-07
1.18325e-06
-3.48051e-07
8.23555e-07
-3.16025e-07
1.183e-07
-1.8115e-07
-4.06638e-07
-3.25749e-08
-6.10823e-07
7.71967e-08
-5.83401e-07
1.35521e-07
-4.50657e-07
1.53637e-07
-3.0226e-07
1.48243e-07
-1.80047e-07
1.33486e-07
-9.25064e-08
1.17995e-07
-3.83821e-08
1.05184e-07
-4.92534e-09
9.68481e-08
1.31109e-08
9.15422e-08
2.29601e-08
8.92453e-08
3.09367e-08
8.89487e-08
3.63599e-08
8.93469e-08
4.32056e-08
9.10876e-08
5.28105e-08
9.28973e-08
6.22919e-08
9.43396e-08
7.49321e-08
9.64039e-08
9.04547e-08
9.75503e-08
1.05049e-07
9.791e-08
1.2156e-07
9.84791e-08
1.3974e-07
9.79062e-08
1.55552e-07
9.61746e-08
1.70936e-07
9.45628e-08
1.86758e-07
9.23263e-08
1.99417e-07
8.88494e-08
2.09141e-07
8.55634e-08
2.18599e-07
8.26697e-08
2.26163e-07
7.90043e-08
2.29945e-07
7.52962e-08
2.32555e-07
7.27739e-08
2.35507e-07
7.05695e-08
2.3663e-07
6.79257e-08
2.35788e-07
6.59452e-08
2.35691e-07
6.51502e-08
2.36765e-07
6.43086e-08
2.3691e-07
6.28447e-08
2.36066e-07
6.18191e-08
2.3634e-07
6.15737e-08
2.37839e-07
6.09159e-08
2.38545e-07
5.93388e-08
2.3809e-07
5.78739e-08
2.38197e-07
5.71355e-08
2.3957e-07
5.6337e-08
2.40989e-07
5.48389e-08
2.41643e-07
5.32851e-08
2.42605e-07
5.25693e-08
2.45286e-07
5.24793e-08
2.49488e-07
5.20976e-08
2.53926e-07
5.11973e-08
2.58278e-07
5.05048e-08
2.63466e-07
5.04523e-08
2.69924e-07
5.04553e-08
2.76806e-07
4.96735e-08
2.82938e-07
4.81233e-08
2.87743e-07
4.64465e-08
2.91745e-07
4.49733e-08
2.95382e-07
4.34317e-08
2.98113e-07
4.1366e-08
2.9925e-07
3.86651e-08
2.98541e-07
3.58394e-08
2.96571e-07
3.35151e-08
2.9422e-07
3.18175e-08
2.91808e-07
3.03819e-08
2.89465e-07
2.88503e-08
2.87195e-07
2.73864e-08
2.85124e-07
2.63979e-08
2.83962e-07
2.60204e-08
2.84226e-07
2.6105e-08
2.85862e-07
2.6309e-08
2.88589e-07
2.6263e-08
2.91983e-07
2.58324e-08
2.95755e-07
2.51343e-08
2.99846e-07
2.43668e-08
3.04085e-07
2.36202e-08
3.08174e-07
2.27318e-08
3.11931e-07
2.14149e-08
3.15089e-07
1.96046e-08
3.17073e-07
1.7452e-08
3.17626e-07
1.51009e-08
3.16989e-07
1.27382e-08
3.15247e-07
1.05632e-08
3.12609e-07
8.65498e-09
3.09556e-07
7.05137e-09
3.06287e-07
5.72222e-09
3.03079e-07
4.57868e-09
3.00326e-07
3.66088e-09
2.98085e-07
3.03244e-09
2.96547e-07
2.62754e-09
2.96073e-07
2.39322e-09
2.96644e-07
2.30378e-09
2.98038e-07
2.21661e-09
3.00054e-07
1.92975e-09
3.02466e-07
1.33601e-09
3.0493e-07
4.29859e-10
3.07015e-07
-7.83366e-10
3.08503e-07
-2.29377e-09
3.09289e-07
-4.03539e-09
3.09127e-07
-5.9176e-09
3.07908e-07
-7.83407e-09
3.05734e-07
-9.66301e-09
3.02768e-07
-1.13464e-08
2.99334e-07
-1.28424e-08
2.95762e-07
-1.40502e-08
2.92246e-07
-1.49275e-08
2.89065e-07
-1.55477e-08
2.86489e-07
-1.59954e-08
2.84568e-07
-1.63297e-08
2.8327e-07
-1.66182e-08
2.82604e-07
-1.69285e-08
2.82554e-07
-1.73174e-08
2.82826e-07
-1.7859e-08
2.82893e-07
-1.86549e-08
2.82539e-07
-1.9743e-08
2.81851e-07
-2.1006e-08
2.80693e-07
-2.23e-08
2.78882e-07
-2.36124e-08
2.76511e-07
-2.49538e-08
2.73728e-07
-2.62435e-08
2.70671e-07
-2.73882e-08
2.67598e-07
-2.83385e-08
2.64674e-07
-2.90888e-08
2.61902e-07
-2.96969e-08
2.59344e-07
-3.02422e-08
2.57096e-07
-3.07529e-08
2.55166e-07
-3.12396e-08
2.53399e-07
-3.17701e-08
2.51492e-07
-3.24461e-08
2.49249e-07
-3.33099e-08
2.46745e-07
-3.42897e-08
2.44116e-07
-3.52614e-08
2.41397e-07
-3.61623e-08
2.3856e-07
-3.70083e-08
2.35532e-07
-3.78312e-08
2.32294e-07
-3.86349e-08
2.29022e-07
-3.93763e-08
2.25988e-07
-3.99844e-08
2.23317e-07
-4.0438e-08
2.20934e-07
-4.08179e-08
2.1867e-07
-4.12565e-08
2.16391e-07
-4.18432e-08
2.1404e-07
-4.25753e-08
2.1155e-07
-4.33865e-08
2.08794e-07
-4.42119e-08
2.05675e-07
-4.50265e-08
2.02209e-07
-4.58325e-08
1.98538e-07
-4.66243e-08
1.94855e-07
-4.7366e-08
1.91284e-07
-4.80145e-08
1.87809e-07
-4.85661e-08
1.84343e-07
-4.90582e-08
1.80851e-07
-4.95254e-08
1.77427e-07
-4.99761e-08
1.74248e-07
-5.03969e-08
1.71393e-07
-5.0772e-08
1.68743e-07
-5.11241e-08
1.66103e-07
-5.15246e-08
1.63298e-07
-5.20406e-08
1.60208e-07
-5.26814e-08
1.56862e-07
-5.34002e-08
1.53423e-07
-5.41037e-08
1.49974e-07
-5.46896e-08
1.46476e-07
-5.51409e-08
1.42939e-07
-5.55417e-08
1.39427e-07
-5.5967e-08
1.35929e-07
-5.64185e-08
1.32415e-07
-5.68756e-08
1.28904e-07
-5.73223e-08
1.25359e-07
-5.77256e-08
1.21724e-07
-5.80609e-08
1.18099e-07
-5.83426e-08
1.14639e-07
-5.85919e-08
1.11344e-07
-5.88235e-08
1.08134e-07
-5.907e-08
1.04973e-07
-5.93596e-08
1.01761e-07
-5.96777e-08
9.83284e-08
-6.00024e-08
9.46466e-08
-6.03392e-08
9.08855e-08
-6.06727e-08
8.72277e-08
-6.09391e-08
8.37616e-08
-6.10944e-08
8.04849e-08
-6.11678e-08
7.72924e-08
-6.12309e-08
7.40383e-08
-6.13482e-08
7.06626e-08
-6.15478e-08
6.71725e-08
-6.18035e-08
6.35468e-08
-6.20562e-08
5.97861e-08
-6.22614e-08
5.59917e-08
-6.23897e-08
5.22893e-08
-6.24026e-08
4.87461e-08
-6.22851e-08
4.5403e-08
-6.20925e-08
4.2279e-08
-6.19156e-08
3.93021e-08
-6.1811e-08
3.63265e-08
-6.17873e-08
3.32187e-08
-6.18262e-08
2.98749e-08
-6.1892e-08
2.62408e-08
-6.19493e-08
2.24073e-08
-6.19767e-08
1.86059e-08
-6.1944e-08
1.50241e-08
-6.18024e-08
1.1685e-08
-6.15405e-08
8.52201e-09
-6.12233e-08
5.44709e-09
-6.09336e-08
2.33278e-09
-6.07019e-08
-9.22032e-10
-6.05201e-08
-4.27969e-09
-6.03761e-08
-7.63499e-09
-6.02347e-08
-1.09791e-08
-6.00316e-08
-1.43518e-08
-5.97283e-08
-1.7681e-08
-5.93444e-08
-2.08438e-08
-5.89214e-08
-2.38494e-08
-5.84908e-08
-2.68122e-08
-5.80867e-08
-2.98028e-08
-5.77408e-08
-3.28556e-08
-5.74467e-08
-3.60335e-08
-5.71604e-08
-3.93437e-08
-5.68414e-08
-4.26736e-08
-5.647e-08
-4.59171e-08
-5.60384e-08
-4.9081e-08
-5.55609e-08
-5.22161e-08
-5.50836e-08
-5.5347e-08
-5.46464e-08
-5.85031e-08
-5.4234e-08
-6.17117e-08
-5.37914e-08
-6.49292e-08
-5.32799e-08
-6.80476e-08
-5.26935e-08
-7.09756e-08
-5.20356e-08
-7.36868e-08
-5.1321e-08
-7.62059e-08
-5.05942e-08
-7.8582e-08
-4.9915e-08
-8.0897e-08
-4.93192e-08
-8.32658e-08
-4.88021e-08
-8.57901e-08
-4.83382e-08
-8.85155e-08
-4.78979e-08
-9.14314e-08
-4.74513e-08
-9.44974e-08
-4.6976e-08
-9.7653e-08
-4.64674e-08
-1.00831e-07
-4.59312e-08
-1.03994e-07
-4.53637e-08
-1.0713e-07
-4.47415e-08
-1.10199e-07
-4.40327e-08
-1.13111e-07
-4.32165e-08
-1.15751e-07
-4.23016e-08
-1.18039e-07
-4.13353e-08
-1.20003e-07
-4.03936e-08
-1.21784e-07
-3.95506e-08
-1.23576e-07
-3.88481e-08
-1.25542e-07
-3.82803e-08
-1.27745e-07
-3.77994e-08
-1.3016e-07
-3.73355e-08
-1.32728e-07
-3.68243e-08
-1.35403e-07
-3.62308e-08
-1.38138e-07
-3.55538e-08
-1.40853e-07
-3.48103e-08
-1.43429e-07
-3.40129e-08
-1.45754e-07
-3.31669e-08
-1.47797e-07
-3.22786e-08
-1.49582e-07
-3.13578e-08
-1.5116e-07
-3.04255e-08
-1.52619e-07
-2.9529e-08
-1.54087e-07
-2.87377e-08
-1.55715e-07
-2.80936e-08
-1.57679e-07
-2.75687e-08
-1.60091e-07
-2.70957e-08
-1.6287e-07
-2.66218e-08
-1.6576e-07
-2.61089e-08
-1.68537e-07
-2.55024e-08
-1.71132e-07
-2.4746e-08
-1.73502e-07
-2.38264e-08
-1.75459e-07
-2.276e-08
-1.76786e-07
-2.15611e-08
-1.77489e-07
-2.02701e-08
-1.77714e-07
-1.89815e-08
-1.77563e-07
-1.7807e-08
-1.77213e-07
-1.6823e-08
-1.76976e-07
-1.60759e-08
-1.77089e-07
-1.55844e-08
-1.77654e-07
-1.53066e-08
-1.78797e-07
-1.51578e-08
-1.80666e-07
-1.50583e-08
-1.83254e-07
-1.49327e-08
-1.86397e-07
-1.46951e-08
-1.89887e-07
-1.42736e-08
-1.93455e-07
-1.36232e-08
-1.96764e-07
-1.26986e-08
-1.99539e-07
-1.14879e-08
-2.01551e-07
-1.00637e-08
-2.0253e-07
-8.52677e-09
-2.024e-07
-6.94954e-09
-2.01372e-07
-5.40809e-09
-1.99641e-07
-3.99793e-09
-1.97378e-07
-2.78957e-09
-1.94914e-07
-1.8294e-09
-1.92603e-07
-1.1475e-09
-1.90734e-07
-7.08098e-10
-1.896e-07
-4.45008e-10
-1.89387e-07
-3.44502e-10
-1.90067e-07
-3.95554e-10
-1.91605e-07
-5.2867e-10
-1.94052e-07
-6.7685e-10
-1.97242e-07
-7.69104e-10
-2.00784e-07
-6.41595e-10
-2.04395e-07
-1.18775e-10
-2.07773e-07
8.68349e-10
-2.10409e-07
2.31194e-09
-2.11932e-07
4.11013e-09
-2.12201e-07
6.03996e-09
-2.11212e-07
7.89126e-09
-2.09239e-07
9.56688e-09
-2.06562e-07
1.1061e-08
-2.03256e-07
1.24613e-08
-1.99478e-07
1.38593e-08
-1.95445e-07
1.51565e-08
-1.91339e-07
1.61004e-08
-1.87536e-07
1.65005e-08
-1.84594e-07
1.63659e-08
-1.82897e-07
1.59576e-08
-1.82463e-07
1.5625e-08
-1.83021e-07
1.55058e-08
-1.84282e-07
1.54935e-08
-1.86193e-07
1.54296e-08
-1.88786e-07
1.53234e-08
-1.91914e-07
1.54903e-08
-1.95144e-07
1.63245e-08
-1.97684e-07
1.78964e-08
-1.98872e-07
1.98902e-08
-1.98804e-07
2.19019e-08
-1.97885e-07
2.3839e-08
-1.96118e-07
2.59496e-08
-1.9317e-07
2.83592e-08
-1.88804e-07
3.07646e-08
-1.83457e-07
3.26883e-08
-1.77938e-07
3.39637e-08
-1.72702e-07
3.48621e-08
-1.67699e-07
3.56923e-08
-1.62724e-07
3.6331e-08
-1.58117e-07
3.64814e-08
-1.54615e-07
3.62347e-08
-1.52259e-07
3.60682e-08
-1.50369e-07
3.62643e-08
-1.48649e-07
3.66485e-08
-1.47424e-07
3.70517e-08
-1.46811e-07
3.76904e-08
-1.46356e-07
3.88035e-08
-1.457e-07
4.02271e-08
-1.45055e-07
4.16479e-08
-1.44772e-07
4.30491e-08
-1.44755e-07
4.45483e-08
-1.44797e-07
4.6051e-08
-1.45137e-07
4.73987e-08
-1.45913e-07
4.86413e-08
-1.46809e-07
4.99038e-08
-1.47632e-07
5.12113e-08
-1.48221e-07
5.26709e-08
-1.48005e-07
5.44002e-08
-1.46607e-07
5.6377e-08
-1.4396e-07
5.86882e-08
-1.39366e-07
6.14852e-08
-1.32346e-07
6.46023e-08
-1.23421e-07
6.78558e-08
-1.12521e-07
7.14345e-08
-9.89942e-08
7.51625e-08
-8.38671e-08
7.85552e-08
-6.80569e-08
8.17955e-08
-5.08354e-08
8.49186e-08
-3.35346e-08
8.73225e-08
-1.75857e-08
8.91921e-08