/*--------------------------------*- C++ -*----------------------------------*\
| =========                 |                                                 |
| \\      /  F ield         | OpenFOAM: The Open Source CFD Toolbox           |
|  \\    /   O peration     | Version:  2106                                  |
|   \\  /    A nd           | Website:  www.openfoam.com                      |
|    \\/     M anipulation  |                                                 |
\*---------------------------------------------------------------------------*/
FoamFile
{
    version     2.0;
    format      ascii;
    arch        "LSB;label=32;scalar=64";
    class       volScalarField;
    location    "0.295";
    object      p;
}
// * * * * * * * * * * * * * * * * * * * * * * * * * * * * * * * * * * * * * //

dimensions      [0 2 -2 0 0 0 0];

internalField   nonuniform List<scalar> 
11200
(
150.060213866
147.131612108
146.017761204
145.490429937
145.123100271
144.828322037
144.566678476
144.318140316
144.073622229
143.828554485
143.580239886
143.326923697
143.067373884
142.800654847
142.525999712
142.242735064
141.950235099
141.647893854
141.33511254
141.011303065
140.675841669
140.328079361
139.967357815
139.593009184
139.20434789
138.800672608
138.38126712
137.945400979
137.492330257
137.021298162
136.531535622
136.022261791
135.492684188
134.941998914
134.369391341
133.774037257
133.155102726
132.511744276
131.843109313
131.148336534
130.426556243
129.676890565
128.898453648
128.090351742
127.251683158
126.381538052
125.47899798
124.54313514
123.57301128
122.567676118
121.526165203
120.44749706
119.330669458
118.174654603
116.978392971
115.740785485
114.460683598
113.136876782
111.768076724
110.352897455
108.889830352
107.377212516
105.813186555
104.195651851
102.522198419
100.790021047
98.9958092624
97.135603009
95.2045981192
93.1968797901
91.1050588011
88.9197754581
86.6288313607
84.216039987
81.6593154756
78.9269978868
75.9714876415
72.7202090548
69.0194382727
64.2561422046
148.267171958
146.908997838
146.118026316
145.61801196
145.227023769
144.903141353
144.618620378
144.354018284
144.098530504
143.846008559
143.592625083
143.335866448
143.073995576
142.805735981
142.530087213
142.246214452
141.953380311
141.650901988
141.338121072
141.014375716
140.679015769
140.331365759
139.970781988
139.596596316
139.208112735
138.804624199
138.385411654
137.949742831
137.496872507
137.026042909
136.536483964
136.027413272
135.498036485
134.947553358
134.375151215
133.780005857
133.161283083
132.518139374
131.849722148
131.155170175
130.433613904
129.684175677
128.905969955
128.098103419
127.259674951
126.389775449
125.487487424
124.551884287
123.582029312
122.576974126
121.535756659
120.457398396
119.340900789
118.185240616
116.989364036
115.75217904
114.472545849
113.149264806
111.781061097
110.366565649
108.904291335
107.392602878
105.829676554
104.213449414
102.541553788
100.81124901
99.0193195641
97.1619280314
95.2344349844
93.2311556384
91.1450210928
88.967075044
86.6857698059
84.2859694764
81.7472788113
79.0411895217
76.126903558
72.946586794
69.3974488214
65.2846310442
147.271981686
146.617781258
146.065425495
145.627807727
145.256184003
144.934082424
144.644982764
144.374749079
144.114286292
143.857805468
143.60142157
143.342452857
143.078987252
142.809597759
142.533163286
142.24875521
141.955563912
141.652850823
141.33991768
141.016087652
140.680698697
140.333111254
139.972581326
139.598455243
139.210040904
138.806628704
138.38749729
137.951913311
137.499131242
137.028393535
136.538930992
136.029963466
135.500700021
134.950333233
134.378045337
133.783014517
133.164407718
132.521381934
131.853085429
131.15865781
130.43723038
129.687926413
128.909861465
128.102143522
127.263873044
126.394142844
125.492037763
124.556634069
123.586998525
122.582187046
121.541242832
120.463193831
119.347049404
118.191796004
116.996391622
115.759758702
114.480775168
113.158263197
111.790974939
110.377574525
108.916614925
107.406509264
105.845493585
104.231599135
102.562588585
100.835868199
99.0483962863
97.1965743057
95.2760881248
93.2816991781
91.2069578898
89.0438015006
86.7821351639
84.4090431158
81.9078044895
79.2565594642
76.4273348881
73.3885157509
70.1041250485
66.5511417347
146.722220495
146.358839146
145.958941067
145.58995052
145.252333666
144.944230983
144.658867314
144.388162936
144.125790416
143.867122724
143.608741782
143.348116008
143.083345536
142.812963068
142.535792515
142.250851359
141.957283294
141.654312155
141.341210842
141.01727947
140.681827137
140.334163699
139.973647954
139.59955675
139.211179354
138.807808039
138.388721206
137.953184271
137.500450584
137.029761583
136.5403469
136.031424594
135.502201999
134.951877424
134.379640705
133.784666333
133.166122228
132.523166113
131.854945275
131.160599784
130.439261744
129.69005544
128.912097873
128.104498895
127.266361307
126.396780828
125.49484587
124.559637076
123.590226557
122.585676709
121.54503856
120.467349617
119.351630946
118.196883339
117.002082438
115.766172555
114.488058694
113.166596291
111.800578432
110.388719557
108.929638216
107.421836716
105.863654071
104.253231131
102.588466429
100.866961285
99.0859404213
97.2421517989
95.3317423612
93.3501022541
91.2916745308
89.1497298423
86.9160366638
84.5805531875
82.1311906733
79.5538513504
76.833790308
73.9613007379
70.9399816418
67.8070126385
146.388172589
146.1563771
145.854964637
145.543987419
145.239147652
144.947123887
144.66814784
144.39902122
144.136060369
143.875975102
143.616004968
143.35391251
143.087905176
142.816533866
142.538601878
142.253092249
141.959112367
141.655853053
141.342559025
141.018507716
140.682994281
140.33532242
139.974795795
139.600703804
139.212349286
138.809015898
138.389976809
137.95449502
137.501822538
137.031200239
136.54185785
136.033014113
135.503876864
134.953642757
134.381497877
133.786618534
133.168170181
132.525310775
131.857190901
131.162951077
130.441725893
129.692641961
128.914818729
128.10736884
127.269398363
126.400006882
125.49828744
124.563326273
123.594202229
122.589985923
121.549738932
120.472511404
119.357339783
118.203243636
117.009221427
115.774244782
114.497251061
113.177136691
111.812744064
110.402853637
108.946162805
107.441259592
105.886606999
104.280510409
102.621076186
100.906162452
99.1333217251
97.2997320888
95.402114043
93.4366334135
91.3987935169
89.2833298712
87.0841341117
84.7942876359
82.4063699292
79.9133720489
77.3110978115
74.6039895006
71.8134073731
68.9900478676
146.184780164
146.008878113
145.767683348
145.500357511
145.223170407
144.946531865
144.674841793
144.408339631
144.145573789
143.884564153
143.623275779
143.359841586
143.092636079
142.820268411
142.541545687
142.255430216
141.960999982
141.657415621
141.343894438
141.019690676
140.684080966
140.336353453
139.975798738
139.601707081
139.213367896
138.810060416
138.391055164
137.955613091
137.502984703
137.032409625
136.543116603
136.034323545
135.505237725
134.955055921
134.382964854
133.788141845
133.169755418
132.526965321
131.858922839
131.164772305
130.443649183
129.694680811
128.916988716
128.109688148
127.271888579
126.402694146
125.501203524
124.566509826
123.597700389
122.593856243
121.554050748
120.477348831
119.362804968
118.209460734
117.016341672
115.782453662
114.50677854
113.188263769
111.825818738
110.418294131
108.96447395
107.463065641
105.912685764
104.311818258
102.658796072
100.951769399
99.1886674058
97.3671564737
95.4845967115
93.5380023709
91.5240174163
89.4389303223
87.2787748151
85.0396098023
82.7181506744
80.3130459549
77.827363375
75.27325768
72.6776771463
70.0877193319
146.061663459
145.90605587
145.69975415
145.463192181
145.20771721
144.944438006
144.679825095
144.416316788
144.154183814
143.892598304
143.630226197
143.365590957
143.097262791
142.823933143
142.544429844
142.257705334
141.962814714
141.658892191
141.345129785
141.020759624
140.685039911
140.337244232
139.976653752
139.602550919
139.214216858
138.810925833
138.391945513
137.956534662
137.503942269
137.033407111
136.544157544
136.035411459
135.506376377
134.956249818
134.384219702
133.789464255
133.171152417
132.52844475
131.860493437
131.166442032
130.445425917
129.696576253
128.919019004
128.111873683
127.274254564
126.405271074
125.504028273
124.569627073
123.601164279
122.597732344
121.55841874
120.482305746
119.368469045
118.215976049
117.023883588
115.79123448
114.517053219
113.200344847
111.840083941
110.435210214
108.984622582
107.487161088
105.941596586
104.346616555
102.700809263
101.00264553
99.2504610634
97.4424420998
95.5766189432
93.6508772445
91.6630028814
89.6107899049
87.4922589609
85.30607759
83.0523149341
80.7337288504
78.3578683292
75.9403325659
73.5079976924
71.1002207041
145.987583875
145.837573837
145.65081843
145.434713414
145.195007871
144.942187279
144.683550928
144.42281357
144.161447734
143.899526988
143.636310438
143.370674628
143.10137902
142.827202368
142.547001162
142.259725577
141.964414151
141.660179589
141.346192384
141.021665393
140.685840666
140.337978864
139.977351036
139.603231604
139.214896839
138.811616016
138.392654045
137.957267644
137.504704448
137.03420244
136.544989585
136.036283701
135.507292493
134.957213722
134.385235475
133.790536451
133.172286423
132.529646416
131.861769587
131.167802401
130.446886419
129.698154936
128.920734626
128.113748526
127.276315614
126.407551174
125.506567367
124.572473692
123.604377347
122.601383536
121.56259571
120.487114864
119.374039395
118.222464445
117.031480842
115.800173732
114.527620583
113.212887391
111.855026573
110.45306951
109.006024981
107.512873402
105.972560323
104.383988916
102.746014818
101.057442643
99.3170269307
97.5234817838
95.6755057647
93.7718340407
91.8113344113
89.7931770497
87.7171162144
85.5839643811
83.3963353715
81.1597629917
78.8842838137
76.5865035086
74.2911028585
72.0300904106
145.9453076
145.795860046
145.619444808
145.415707203
145.18617538
144.94046805
144.686109256
144.427472159
144.166766703
143.904673829
143.640877603
143.374520127
143.10450985
142.829698118
142.548968198
142.261271921
141.965637286
141.661161794
141.347000136
141.022350773
140.686443559
140.338529266
139.97787123
139.603738854
139.215400947
138.812126795
138.393178197
137.957810137
137.505269278
137.03479305
136.54560915
136.036935394
135.507979695
134.957940204
134.38600557
133.791355307
133.173160285
132.530583303
131.862779907
131.168898679
130.448079938
129.69946061
128.92217241
128.115342767
127.278095725
126.409552772
125.508833649
124.575057107
123.607341609
122.604805947
121.566569797
120.49175426
119.379482276
118.228878818
117.039070864
115.809187124
114.538357495
113.225713135
111.870385455
110.471505525
109.028201964
107.539601089
106.004827051
104.423003079
102.793256087
101.114725732
99.3865814272
97.608051891
95.7784741246
93.8973753661
91.9646009366
89.9805177549
87.9463209898
85.8645022082
83.739508236
81.5786348816
79.3931327444
77.1994144123
75.0195253641
72.8796456173
145.926031244
145.77615353
145.604190973
145.406256196
145.18169581
144.939577893
144.687444062
144.429936549
144.169610871
143.907451116
143.643361975
143.376627677
143.106238606
142.831087278
142.550073043
142.262149736
141.966340337
141.661734505
141.347478578
141.022763317
140.686812005
140.338870081
139.978196638
139.604057776
139.215720969
138.812452773
138.393514053
137.958159077
137.50563409
137.0351764
136.54601369
136.037363977
135.508435551
134.958427107
134.386528035
133.791918803
133.17377145
132.531250099
131.863511453
131.169705428
130.448976807
129.700464901
128.923304702
128.116627948
127.279564028
126.411240938
125.5107863
124.577328411
123.609997305
122.607925844
121.570250835
120.496114163
119.384663978
118.235055859
117.046454056
115.818032803
114.548977675
113.238486412
111.885771693
110.490064387
109.050612758
107.566690179
106.037600212
104.462684983
102.841338592
101.173026815
99.4573169227
97.6939222715
95.8827680856
94.0240919348
92.1185861301
90.167619993
88.1735338307
86.1400813768
84.0729706482
81.9805470778
79.87453465
77.7706886952
75.6887007306
73.6504963682
145.926033899
145.77616966
145.604218046
145.406292494
145.181740565
144.939630264
144.687503129
144.43000148
144.169680965
143.90752579
143.643440763
143.376710216
143.106324632
142.831176611
142.550165581
142.262245441
141.966439226
141.661836642
141.347584074
141.02287233
140.686924755
140.338986865
139.978317849
139.604183926
139.215852751
138.812590917
138.393659475
137.958312915
137.505797729
137.035351384
136.546202037
136.037568144
135.508658513
134.958672473
134.386800171
133.792222988
133.174114059
132.531638869
131.863955948
131.170217592
130.44957066
129.701157467
128.924116748
128.117584729
127.280696222
126.412585796
125.512389042
124.579243932
123.612292237
122.61068106
121.573564487
120.500105391
119.389477389
118.240866967
117.053475823
115.826523496
114.559250386
113.250920772
111.900828696
110.508305088
109.072715806
107.593478949
106.070073459
104.502053427
102.889068832
101.230892244
99.5274563248
97.7789105507
95.985700658
94.1486771196
92.2692717942
90.3497819808
88.3933198459
86.4045099161
84.3898683594
82.3582971081
80.3215827117
78.2947437529
76.2956841264
74.3434981654
145.945315615
145.795908808
145.619526625
145.415816838
145.186310491
144.940625931
144.686287098
144.427667487
144.166977421
143.904898205
143.641114245
143.374767959
143.104768086
142.829966225
142.549245871
142.261559053
141.965933932
141.661468151
141.347316535
141.022677692
140.686781656
140.338879421
139.978234589
139.604116968
139.215795797
138.812540562
138.393613587
137.958270458
137.505758559
137.035316163
136.546172057
136.03754534
135.508645484
134.958672544
134.386817497
133.792262703
133.174182464
132.531743666
131.864106509
131.170425305
130.449849362
129.701524005
128.92459163
128.118192883
127.281467926
126.413557812
125.513606
124.580760006
123.614173176
122.613006641
121.576431503
120.503631279
119.393804606
118.246168291
117.059960793
115.834446206
114.568918958
113.262709007
111.915188241
110.525779299
109.093970236
107.619313761
106.101453631
104.540141617
102.935263011
101.286874008
99.5952627988
97.861011748
96.0850082247
94.2686286807
92.4138473102
90.523352007
88.6011209399
86.6524100361
84.6842106737
82.7056765494
80.7284814291
78.7670306962
76.8380424805
74.9589583687
145.987597421
145.837656342
145.650956631
145.434898218
145.195235168
144.942452389
144.683849079
144.423140604
144.161800158
143.899901922
143.636705584
143.371088217
143.101809762
142.827649395
142.547463981
142.260204017
141.964908311
141.660689806
141.346719213
141.022209639
140.686403451
140.33856166
139.97795566
139.603860694
139.215553274
138.812303556
138.393377177
137.958031803
137.505516247
137.035069919
136.545922515
136.037293941
135.508394431
134.958424817
134.38657693
133.792034106
133.173971797
132.531558259
131.863955315
131.170319237
130.44980172
129.701550972
128.924712902
128.118432419
127.281854843
126.41412748
125.514401373
124.581833226
123.615587522
122.614838879
121.578774751
120.506598468
119.39753266
118.250823169
117.065743552
115.84160032
114.577739115
113.273551989
111.928485404
110.542052293
109.113843028
107.643545465
106.13095943
104.576024871
102.978856329
101.33976631
99.6593079769
97.9383429031
96.1781927306
94.3806706102
92.5482309913
90.6841353465
88.7926924117
86.8795039505
84.9517887138
83.0187189644
81.0917357803
79.1847858957
77.3140024732
75.4963009
146.06168289
145.906174244
145.699951793
145.463455541
145.208040087
144.94481353
144.68024641
144.416778007
144.154680041
143.893125537
143.630781261
143.366171424
143.097866892
142.824559697
142.54507818
142.258375214
141.963506267
141.659605864
141.345866325
141.021520114
140.685825868
140.338057722
139.977497411
139.603428158
139.215131704
138.811883382
138.392951923
137.957597374
137.505070332
137.034611562
136.545451825
136.03681192
135.507902887
134.957926348
134.386074967
133.791533009
133.173477004
132.531076504
131.863494897
131.16989033
130.449416761
129.701225114
128.924464581
128.118284041
127.281833636
126.414266538
125.514740904
124.582422045
123.61648486
122.616116592
121.58051999
120.508916902
119.400552356
118.254699288
117.070663981
115.847792443
114.585477913
113.283169912
111.940384741
110.556717377
109.131858493
107.665612274
106.157917446
104.608873785
103.018772899
101.388155387
99.7178552947
98.0090552497
96.2633664228
94.4829307829
92.6705465315
90.8298135597
88.9653131455
87.082819218
85.1895609501
83.2945220258
81.4087818982
79.5459101154
77.7219176951
75.9542147093
146.184806128
146.009036041
145.767945613
145.500705193
145.223594728
144.947023448
144.675391551
144.408939915
144.146218325
143.885247864
143.62399467
143.360592617
143.093417052
142.821077863
142.54238278
142.256294635
141.961891833
141.658335355
141.344842807
141.020668723
140.685090005
140.33739539
139.976878033
139.602829582
139.214538197
138.811284267
138.392339956
137.956967867
137.504420504
137.033940052
136.54475837
136.036097159
135.507168259
134.957174073
134.385308078
133.790755404
133.172693517
132.530293077
131.862718831
131.169130623
130.44868452
129.70053399
128.923831283
128.117728937
127.281381504
126.413947482
125.51459147
124.582486573
123.616817124
122.616781811
121.581597224
120.510501948
119.402761226
118.257672389
117.074571134
115.852838982
114.591912048
113.291291247
111.95055442
110.569370924
109.147518587
107.684904371
106.181589664
104.637820917
103.054064734
101.431049528
99.7698183846
98.0717927804
96.3388473674
94.5733950863
92.778490877
90.9579519441
89.116501727
87.2599307325
85.3952999103
83.5312025891
81.6781529171
79.8492314597
78.0604692429
76.3305407056
146.388205759
146.156579426
145.855297994
145.544426411
145.239680238
144.947737758
144.668831526
144.399765308
144.136857277
143.876818782
143.616890704
143.354836761
143.088865422
142.817528488
142.539630037
142.254153765
141.960207577
141.656982644
141.343723839
141.019708796
140.68423315
140.336600202
139.976114513
139.602076828
139.21378055
138.810511139
138.391544207
137.956144832
137.503567316
137.033055163
136.543841238
136.035148053
135.506188191
134.956164787
134.384272094
133.78969613
133.171615362
132.529201543
131.861620624
131.168033772
130.447598616
129.699470663
128.922804741
128.116756581
127.280484641
126.413152159
125.513929444
124.581996473
123.616545861
122.616786345
121.581946687
120.511280192
119.404069861
118.259634456
117.077335524
115.856585597
114.596857163
113.297695294
111.958730938
110.579696682
109.160445746
107.700974526
106.201449206
104.662237421
103.083945624
101.467463334
99.8140138195
98.1252133676
96.4031406375
94.6504133503
92.8702732058
91.0666778196
89.2444011891
87.4091401725
85.5676459858
83.7279124813
81.8995607805
80.094745066
78.3289808138
76.6221233577
146.722260882
146.359089536
145.95934802
145.590481202
145.252972078
144.944961404
144.659675778
144.389038322
144.126723932
143.868107458
143.609772424
143.349188629
143.084457431
142.814112648
142.536979238
142.252075709
141.958546792
141.655617285
141.342560576
141.018677648
140.683282835
140.335692571
139.975222816
139.601180884
139.212866579
138.809569652
138.390568821
137.95513145
137.50251339
137.031959193
136.542702524
136.033966544
135.504964335
134.954899451
134.382966582
133.788352363
133.170236179
132.527790784
131.860183303
131.166576545
130.446130157
129.698001218
128.921346701
128.115324971
127.279097637
126.41183174
125.512702223
124.580894723
123.615608791
122.616061606
121.581491693
120.511164357
119.404377088
118.260466088
117.078813873
115.858858359
114.600104097
113.302133319
111.964620769
110.587351251
109.170239816
107.713355542
106.216949561
104.681487912
103.107689723
101.496571614
99.8494983062
98.1682395979
96.455033048
94.712650863
92.9444688197
91.1545333975
89.347620684
87.5292819696
85.7058813759
83.8846357025
82.0738470558
80.2838962013
78.5279979113
76.8248039531
147.272034096
146.618093868
146.065916063
145.628435426
145.256929148
144.934926002
144.645908582
144.37574455
144.115341564
143.858912818
143.602575018
143.343647861
143.080220458
142.810866811
142.534466703
142.250092411
141.956935565
141.654259704
141.341368922
141.017587784
140.68224819
140.334679904
139.974203991
139.60014024
139.211793201
138.808455874
138.389409523
137.953923364
137.501254731
137.030649163
136.541341043
136.032554155
135.503502162
134.953389177
134.38141039
133.786752571
133.168594215
132.526109357
131.858466032
131.164827597
130.444354268
129.696205293
128.91953956
128.113517554
127.277303456
126.410067411
125.510988072
124.579255496
123.61407449
122.614668369
121.580283931
120.510196029
119.403713614
118.260186631
117.079014099
115.859653415
114.601631224
113.304557983
111.968142051
110.592207921
109.17671755
107.72179534
106.22775728
104.695144687
103.124763001
101.517725904
99.8755048817
98.1999835971
96.4935152114
94.7589855434
92.9998681038
91.2202727911
89.4249724045
87.6193956888
85.8095597519
84.0018522087
82.2029332878
80.4203615621
78.6612497638
76.9342893651
148.267271783
146.909455958
146.118709465
145.618867316
145.228028201
144.904274051
144.619864301
144.355360318
144.099960409
143.847518273
143.594208246
143.33751799
143.075711309
142.807512173
142.531920182
142.24810016
141.955313842
141.652876713
141.340131545
141.016429708
140.681111702
140.333528104
139.973026976
139.598924942
139.21053032
138.807139486
138.388035353
137.952486114
137.499750782
137.029076418
136.539698016
136.030839694
135.501715395
134.951529518
134.379477622
133.784747395
133.166520205
132.523969013
131.85626197
131.162563332
130.442034451
129.693835114
128.917125227
128.111066673
127.274825354
126.407573499
125.508492282
124.576774829
123.611629719
122.612284874
121.577992184
120.508032816
119.401723387
118.258423097
117.077542153
115.858551766
114.600995967
113.304503696
111.968806073
110.593754878
109.179344295
107.725736395
106.233290727
104.702598479
103.134521626
101.530237264
99.891286848
98.2196281218
96.5176876437
94.788439794
93.0354324958
91.2628339421
89.4754488459
87.6786945363
85.8784680111
84.0806357641
82.2907272586
80.5135048965
78.7437706027
76.9520081362
150.060380368
147.132282714
146.018755013
145.491684746
145.12458583
144.830013693
144.568557604
144.320193313
144.075839162
143.830928295
143.582765868
143.3295992
143.070198179
142.803629153
142.5291273
142.246021301
141.953687347
141.651520811
141.338919145
141.015274899
140.6799828
140.332403002
139.971866594
139.597708352
139.209246136
138.805780743
138.38659835
137.950973945
137.498165185
137.027417628
136.5379663
136.029035477
135.499839178
134.949581835
134.377459003
133.782658088
133.164359283
132.521736592
131.853958796
131.160190494
130.439593433
129.691328016
128.914554864
128.10843666
127.27214025
126.404838979
125.505715349
124.573964079
123.608795622
122.6094402
121.575152508
120.50521708
119.398954522
118.255728803
117.074955803
115.856113315
114.598752862
113.302513535
111.967138144
110.592492142
109.178585887
107.725600582
106.233918298
104.704156671
103.137208413
101.534285751
99.896970022
98.2272685538
96.5276781541
94.8012044647
93.0514526847
91.2826597865
89.499714758
87.7081363138
85.9139707625
84.123715801
82.3437928647
80.5789874476
78.8088437039
76.9088853836
56.8619354256
53.3098291021
50.9183857894
48.9609975801
47.2890333914
45.8323289487
44.5468998285
43.4030317976
42.3790384916
41.4581556544
40.6269572085
39.8744178726
39.1913176246
38.5698420212
38.0032999029
37.4859148882
37.0126673879
36.5791706134
36.1815726904
35.8164764552
35.4808744633
35.1720943704
34.887754148
34.6257234064
34.3840916873
34.1611405834
33.9553206843
33.7652311354
33.5896026214
33.4272822323
33.2772204785
33.1384600461
33.0101256669
32.8914157685
32.7815942773
32.6799838224
32.5859584964
32.4989375227
32.4183773631
32.3437624604
32.2746101696
32.2105728697
32.1516466748
32.097277771
32.0470008586
32.000429632
31.9572964042
31.9173528391
31.880361707
31.8461025076
31.8143788977
31.7850163913
31.7578118583
31.7325929642
31.7092071832
31.6875169728
31.6673725832
31.6486447266
31.6312161587
31.6149781369
31.5998303814
31.5856817994
31.5724480567
31.5600507032
31.5484173733
31.5374811777
31.5271804586
31.51745832
31.5082625227
31.4995450649
31.4912620339
31.4833730043
31.4758408343
31.4686313512
31.46171342
31.4550584005
31.4486405825
31.4424361889
31.4364236609
31.430582906
31.4248960366
31.4193466235
31.4139197222
31.4086016019
31.4033795901
31.3982424359
31.3931797664
31.3881821921
31.3832411704
31.3783487152
31.3734976763
31.3686814843
31.3638944769
31.3591307711
31.3543852385
31.3496529823
31.3449296292
31.3402093058
31.3354872723
31.3307594932
31.3260212614
31.3212675596
31.3164970342
31.3117110439
31.3069258155
31.3021314522
31.2973212763
31.2924965931
31.2876816126
31.2828308283
31.2779335622
31.2729869147
31.2679874516
31.262932753
31.2578193205
31.2526435255
31.2473992392
31.2420726092
31.2366379714
31.2310631424
31.2253673115
31.2198238052
31.2144879635
31.209301773
31.203872337
31.1982955426
31.1926469745
31.1869657207
31.1812704375
31.175585733
31.1699409664
31.1643710268
31.1589143057
31.1536133353
31.1485130717
31.1436561059
31.1390782739
31.134810273
31.1308374052
31.127141287
31.1238869208
31.1206792398
31.1175026827
31.1137400136
31.107825776
31.0957052479
31.0676693792
31.0024224851
30.859131547
30.567597786
30.0228629469
29.0922371645
27.6428624038
25.5813783561
22.8810265934
19.5974035433
15.8491027924
11.6051038373
6.59031095571
1.56623775943
60.0433058095
55.9904740289
53.2784929327
51.1261778482
49.3243198616
47.7745161368
46.4185513712
45.2191815805
44.1502176425
43.1920093275
42.3291958349
41.549415911
40.8424952399
40.1999318144
39.6145214263
39.0801091599
38.5913812406
38.1437306583
37.7331267862
37.3560376192
37.0093400935
36.6902747038
36.3963798633
36.1254649897
35.8755617732
35.6449074185
35.431908682
35.235129482
35.0532668039
34.8851379017
34.7296674128
34.5858717468
34.4528559603
34.329795733
34.2159409028
34.1105970859
34.0131318796
33.9229595777
33.8395483502
33.7624104304
33.6911043593
33.6251959958
33.5640875548
33.5075117823
33.455182027
33.4067896236
33.3620361891
33.3206429668
33.2823498346
33.2469174104
33.2141179798
33.1837419296
33.1556014549
33.1295208709
33.1053341146
33.0828816995
33.0620349136
33.0426644346
33.0246496431
33.0078818707
32.9922584837
32.9776811175
32.9640566844
32.9513067465
32.9393517378
32.9281259887
32.9175613144
32.9076019624
32.8981905091
32.8892794216
32.8808207917
32.8727741652
32.8650992626
32.8577622036
32.850728961
32.8439725774
32.8374641613
32.8311798208
32.8250949647
32.8191901319
32.8134455222
32.8078445495
32.8023716904
32.7970113659
32.791752696
32.7865806094
32.7814879037
32.7764615863
32.7714946031
32.7665780106
32.7617023333
32.7568636636
32.7520513068
32.7472645444
32.7424917436
32.7377325247
32.7329774816
32.7282330421
32.7234899317
32.7187449139
32.7139994087
32.7092516309
32.7044935468
32.6997144396
32.6948946321
32.6900357254
32.6851427199
32.6802122317
32.675236856
32.6702257828
32.6651768361
32.6600931817
32.6549656546
32.6497991647
32.6445839315
32.6393243753
32.6340142906
32.6286583354
32.6232580864
32.6178245746
32.6123524001
32.6068193128
32.6012002657
32.5952712674
32.589452747
32.5837325045
32.5779951713
32.5722480055
32.5665156428
32.5608212973
32.5551989377
32.5496924157
32.5443411817
32.5392004786
32.5343219888
32.5297640733
32.5255766075
32.5218140024
32.518417314
32.5155252976
32.5130316848
32.5108204543
32.5085962647
32.5055600593
32.4996253871
32.4857531587
32.4522725489
32.3746249198
32.2070327784
31.8730034655
31.2615158747
30.2369163511
28.6694516629
26.4755519141
23.6403415925
20.2239597091
16.3429798867
11.9815195667
6.87827238051
1.6993779031
62.2507597313
58.3172945889
55.4501565884
53.1662829749
51.2644228798
49.6381028325
48.2222867432
46.9749489458
45.866651138
44.8755151615
43.9846230643
43.1805055281
42.4521873424
41.7905796034
41.1880428168
40.6380951318
40.135174852
39.6744841818
39.2518442014
38.8636056489
38.5065518079
38.1778465426
37.8749653515
37.5956640577
37.3379289527
37.0999573308
36.8801213642
36.6769534232
36.4891227939
36.3154209514
36.154749379
36.0061028418
35.8685667012
35.7412983122
35.6235301552
35.5145516842
35.4137140155
35.3204143949
35.2341000394
35.1542560625
35.0804093284
35.0121211485
34.948888236
34.8902744794
34.8360787978
34.7859700057
34.7396287191
34.6967669276
34.6571169313
34.6204337914
34.5864884098
34.5550703993
34.5259819256
34.4990394565
34.4740733046
34.4509124214
34.4294193528
34.4094596496
34.3909075726
34.3736454227
34.3575602517
34.3425601886
34.3285506657
34.3154509178
34.3031781047
34.2916643089
34.2808385294
34.2706430439
34.2610180426
34.2519140935
34.243281219
34.2350773665
34.2272605468
34.2197956378
34.2126468289
34.2057847754
34.1991786776
34.192805933
34.1866408193
34.1806636289
34.1748535164
34.1691929779
34.1636664766
34.1582570647
34.1529542318
34.1477418298
34.142612313
34.1375522933
34.1325538542
34.1276094198
34.1227090548
34.1178498373
34.1130202214
34.1082199939
34.1034364888
34.0986716453
34.0939157359
34.089160438
34.0844017915
34.0796352335
34.0748524898
34.0700437227
34.0652115881
34.0603390501
34.0554472543
34.0505374742
34.0456063592
34.0406470893
34.0356545742
34.0306267011
34.0255559347
34.0204450093
34.0152850261
34.0100810714
34.0048238578
33.999517933
33.9941571033
33.9887448869
33.9832793985
33.9777645858
33.9722000249
33.9665726482
33.9609010988
33.9552327153
33.9495327366
33.9437794214
33.9378431075
33.9319425698
33.9261276214
33.9204032632
33.9147880338
33.9093272483
33.9040640862
33.8990604701
33.8943776407
33.8900850258
33.8862568893
33.8830007227
33.8801551765
33.8778540516
33.8761066538
33.874698386
33.8732302632
33.8706494638
33.8642968667
33.8480842873
33.8083552486
33.717277447
33.5243284245
33.1472038963
32.4696463401
31.353988707
29.6740366512
27.3553148806
24.3930749396
20.8501792075
16.8398694845
12.3606405296
7.16594955238
1.83034115075
64.0549568575
60.3302364639
57.4262771749
55.0711715639
53.1012032494
51.4170338143
49.9534948227
48.6666939787
47.5253664145
46.5061694513
45.5910684714
44.7657582579
44.0186407904
43.3401625872