/*--------------------------------*- C++ -*----------------------------------*\
| =========                 |                                                 |
| \\      /  F ield         | OpenFOAM: The Open Source CFD Toolbox           |
|  \\    /   O peration     | Version:  2106                                  |
|   \\  /    A nd           | Website:  www.openfoam.com                      |
|    \\/     M anipulation  |                                                 |
\*---------------------------------------------------------------------------*/
FoamFile
{
    version     2.0;
    format      ascii;
    arch        "LSB;label=32;scalar=64";
    class       surfaceScalarField;
    location    "0.115";
    object      phi;
}
// * * * * * * * * * * * * * * * * * * * * * * * * * * * * * * * * * * * * * //

dimensions      [0 3 -1 0 0 0 0];

oriented        oriented;

internalField   nonuniform List<scalar> 
799
(
1.66826e-32
4.33596e-32
5.53976e-32
4.34041e-32
1.70061e-32
-5.09724e-32
-1.11683e-31
-1.58886e-31
-1.70256e-31
-1.33807e-31
-7.93242e-32
-1.83582e-32
1.8809e-32
2.72491e-32
4.36043e-33
-3.61681e-32
-8.83596e-32
-1.42009e-31
-1.83275e-31
-2.12182e-31
-2.0494e-31
-1.69726e-31
-1.09426e-31
-3.95117e-32
2.28704e-34
8.48876e-33
-3.40039e-32
-1.05457e-31
-1.72575e-31
-2.25988e-31
-2.29651e-31
-2.03157e-31
-1.57627e-31
-1.03372e-31
-7.92738e-32
-6.8978e-32
-8.69531e-32
-1.25622e-31
-1.56265e-31
-1.93715e-31
-2.03425e-31
-1.91673e-31
-1.68924e-31
-1.2291e-31
-9.83531e-32
-8.87169e-32
-1.0527e-31
-1.54855e-31
-1.95419e-31
-2.323e-31
-2.34807e-31
-2.0152e-31
-1.58878e-31
-1.05091e-31
-8.11717e-32
-8.78024e-32
-1.21359e-31
-1.80882e-31
-2.26701e-31
-2.52244e-31
-2.39455e-31
-1.86662e-31
-1.249e-31
-7.02923e-32
-5.77869e-32
-9.88235e-32
-1.72894e-31
-2.56668e-31
-3.02332e-31
-2.85035e-31
-2.13855e-31
-1.12288e-31
-3.60081e-32
-1.96159e-32
-6.68042e-32
-1.60666e-31
-2.47235e-31
-2.91911e-31
-2.80427e-31
-2.21175e-31
-1.54913e-31
-1.05866e-31
-9.04442e-32
-1.05377e-31
-1.29408e-31
-1.5525e-31
-1.74709e-31
-1.92719e-31
-2.12884e-31
-2.24997e-31
-2.22873e-31
-1.91583e-31
-1.38852e-31
-8.5269e-32
-5.24289e-32
-7.1136e-32
-1.29541e-31
-2.11127e-31
-2.80291e-31
-2.93452e-31
-2.57967e-31
-1.71981e-31
-8.09361e-32
-2.74769e-32
-1.82166e-32
-7.59296e-32
-1.5496e-31
-2.28509e-31
-2.72197e-31
-2.54954e-31
-2.10873e-31
-1.47865e-31
-1.00974e-31
-9.21437e-32
-1.03344e-31
-1.3372e-31
-1.5032e-31
-1.47583e-31
-1.34603e-31
-1.20471e-31
-1.30152e-31
-1.60407e-31
-2.017e-31
-2.32281e-31
-2.30621e-31
-1.95706e-31
-1.36098e-31
-7.63962e-32
-3.83418e-32
-3.27412e-32
-6.24491e-32
-1.14588e-31
-1.75316e-31
-2.30409e-31
-2.62045e-31
-2.64555e-31
-2.30611e-31
-1.66244e-31
-9.22766e-32
-2.72729e-32
-1.7607e-33
-2.41004e-32
-8.70835e-32
-1.71057e-31
-2.35677e-31
-2.61956e-31
-2.38247e-31
-1.77781e-31
-1.14838e-31
-7.13121e-32
-7.03158e-32
-1.04674e-31
-1.51468e-31
-1.88347e-31
-1.88661e-31
-1.55546e-31
-1.04525e-31
-6.25777e-32
-5.95398e-32
-9.93449e-32
-1.70215e-31
-2.36807e-31
-2.63493e-31
-2.3233e-31
-1.51875e-31
-6.22436e-32
-3.87669e-33
-1.15037e-32
-7.77143e-32
-1.67374e-31
-2.37828e-31
-2.444e-31
-1.97672e-31
-1.19856e-31
-5.68059e-32
-5.0011e-32
-8.55805e-32
-1.54038e-31
-2.03209e-31
-2.04922e-31
-1.68211e-31
-9.67577e-32
-4.67926e-32
-3.28271e-32
-6.13499e-32
-1.28142e-31
-1.83497e-31
-2.19316e-31
-2.10963e-31
-1.63205e-31
-1.07127e-31
-5.04349e-32
-2.66215e-32
-3.43425e-32
-6.504e-32
-1.12696e-31
-1.49375e-31
-1.7264e-31
-1.75419e-31
-1.56762e-31
-1.29221e-31
-9.26598e-32
-5.78152e-32
-3.41732e-32
-2.57556e-32
-4.30277e-32
-8.0707e-32
-1.24945e-31
-1.59288e-31
-1.60009e-31
-1.23449e-31
-6.26501e-32
-2.58045e-33
2.14831e-32
-3.79722e-33
-6.82155e-32
-1.39902e-31
-1.7335e-31
-1.43322e-31
-5.64628e-32
5.0983e-32
1.22521e-31
1.17735e-31
3.66145e-32
-8.6765e-32
-1.85461e-31
-2.04043e-31
-1.30323e-31
1.29681e-32
1.54393e-31
2.30659e-31
2.13851e-31
1.09044e-31
-1.83586e-32
-1.08757e-31
-1.20183e-31
-4.01052e-32
8.32852e-32
2.04153e-31
2.73968e-31
2.68506e-31
2.12389e-31
1.34682e-31
8.05167e-32
7.86133e-32
1.26226e-31
2.06348e-31
2.84694e-31
3.32265e-31
3.39675e-31
3.21188e-31
3.00996e-31
3.0963e-31
3.57859e-31
4.26884e-31
4.94741e-31
5.25376e-31
5.11337e-31
4.77245e-31
4.5088e-31
4.75854e-31
5.59943e-31
6.77335e-31
7.95487e-31
8.6761e-31
8.81399e-31
8.59361e-31
8.29134e-31
8.32826e-31
8.8484e-31
9.67553e-31
1.06842e-30
1.15677e-30
1.2258e-30
1.28958e-30
1.34541e-30
1.41156e-30
1.48109e-30
1.54437e-30
1.61163e-30
1.67511e-30
1.75127e-30
1.84191e-30
1.93571e-30
2.03179e-30
2.11688e-30
2.20199e-30
2.30356e-30
2.43347e-30
2.59348e-30
2.75998e-30
2.90186e-30
2.9948e-30
3.04646e-30
3.08874e-30
3.17339e-30
3.33543e-30
3.56846e-30
3.83903e-30
4.08102e-30
4.25622e-30
4.36221e-30
4.43128e-30
4.53097e-30
4.6958e-30
4.93763e-30
5.22586e-30
5.50491e-30
5.74875e-30
5.94361e-30
6.12049e-30
6.31867e-30
6.55619e-30
6.84201e-30
7.14428e-30
7.43785e-30
7.71063e-30
7.96219e-30
8.22647e-30
8.52118e-30
8.85763e-30
9.22978e-30
9.60277e-30
9.96271e-30
1.02952e-29
1.06119e-29
1.0948e-29
1.13182e-29
1.17448e-29
1.22119e-29
1.26874e-29
1.31517e-29
1.35724e-29
1.39676e-29
1.43619e-29
1.47861e-29
1.52823e-29
1.58385e-29
1.64417e-29
1.70482e-29
1.76054e-29
1.80985e-29
1.85303e-29
1.89039e-29
1.9438e-29
2.00819e-29
2.1553e-29
2.40879e-29
2.78158e-29
3.48052e-29
3.76015e-29
4.05023e-29
2.35446e-29
-1.90918e-29
-7.03493e-29
-1.75823e-28
-1.66341e-28
-1.05423e-28
1.82724e-28
8.27086e-28
1.19258e-27
1.8352e-27
1.07374e-27
-7.4399e-28
-3.01914e-27
-7.52539e-27
-7.19564e-27
-5.91317e-27
1.76634e-27
1.68945e-26
2.26862e-26
3.30672e-26
1.66668e-26
-1.35924e-26
-4.09886e-26
-9.04768e-26
-7.13035e-26
-4.21758e-26
3.15892e-26
1.54644e-25
1.62755e-25
1.92017e-25
5.43306e-26
-1.45581e-25
-2.41543e-25
-4.15691e-25
-2.36504e-25
-3.16236e-26
2.19174e-25
5.89215e-25
4.55176e-25
3.83054e-25
-3.70641e-26
-5.43982e-25
-5.80029e-25
-7.54232e-25
-2.54558e-25
2.23648e-25
5.06868e-25
9.15313e-25
5.06879e-25
2.23664e-25
-2.54544e-25
-7.54227e-25
-5.80035e-25
-5.43994e-25
-3.70782e-26
3.83045e-25
4.55174e-25
5.89219e-25
2.19181e-25
-3.16179e-26
-2.36502e-25
-4.15693e-25
-2.41548e-25
-1.45585e-25
5.43269e-26
1.92015e-25
1.62755e-25
1.54644e-25
3.15895e-26
-4.21762e-26
-7.13043e-26
-9.04775e-26
-4.09896e-26
-1.35933e-26
1.66658e-26
3.30661e-26
2.26853e-26
1.68935e-26
1.76554e-27
-5.91387e-27
-7.19626e-27
-7.52595e-27
-3.01973e-27
-7.44596e-28
1.07308e-27
1.83451e-27
1.19188e-27
8.26399e-28
1.8211e-28
-1.05957e-28
-1.66773e-28
-1.76188e-28
-7.0714e-29
-1.95006e-29
2.30304e-29
3.99061e-29
3.69732e-29
3.42185e-29
2.73575e-29
2.37667e-29
2.13524e-29
1.99296e-29
1.92457e-29
1.86277e-29
1.8144e-29
1.76369e-29
1.71287e-29
1.66108e-29
1.61027e-29
1.56135e-29
1.51575e-29
1.47267e-29
1.4298e-29
1.38501e-29
1.33689e-29
1.28634e-29
1.2369e-29
1.19129e-29
1.15216e-29
1.11883e-29
1.08837e-29
1.05818e-29
1.02468e-29
9.88081e-30
9.49145e-30
9.09916e-30
8.73546e-30
8.40631e-30
8.12538e-30
7.8813e-30
7.65423e-30
7.42708e-30
7.17278e-30
6.88662e-30
6.57852e-30
6.271e-30
5.9983e-30
5.78289e-30
5.61848e-30
5.48642e-30
5.3435e-30
5.15468e-30
4.92095e-30
4.64899e-30
4.38999e-30
4.18011e-30
4.02982e-30
3.94376e-30
3.86999e-30
3.77766e-30
3.63938e-30
3.44206e-30
3.2252e-30
3.01432e-30
2.85098e-30
2.75681e-30
2.71361e-30
2.69723e-30
2.65828e-30
2.55987e-30
2.39663e-30
2.18864e-30
1.98612e-30
1.84404e-30
1.78708e-30
1.80706e-30
1.85691e-30
1.87143e-30
1.81136e-30
1.66724e-30
1.47756e-30
1.29995e-30
1.18227e-30
1.14537e-30
1.16644e-30
1.20794e-30
1.22175e-30
1.18801e-30
1.10743e-30
9.98264e-31
8.96651e-31
8.14003e-31
7.69732e-31
7.53574e-31
7.50645e-31
7.52536e-31
7.30076e-31
6.93706e-31
6.36804e-31
5.76003e-31
5.37027e-31
5.10164e-31
5.13064e-31
5.13808e-31
4.96248e-31
4.61781e-31
3.94607e-31
3.38175e-31
3.01512e-31
2.96495e-31
3.29982e-31
3.57955e-31
3.7322e-31
3.53599e-31
3.0023e-31
2.4668e-31
1.97552e-31
1.73869e-31
1.67557e-31
1.58497e-31
1.51055e-31
1.38471e-31
1.41523e-31
1.73546e-31
2.17834e-31
2.59815e-31
2.55024e-31
1.84859e-31
7.04289e-32
-5.61431e-32
-1.20983e-31
-9.07655e-32
2.5821e-32
1.90747e-31
3.07541e-31
3.25832e-31
2.25753e-31
3.80691e-32
-1.35966e-31
-2.33469e-31
-1.99934e-31
-5.01238e-32
1.29942e-31
2.72782e-31
2.95472e-31
1.9471e-31
2.7001e-32
-1.43921e-31
-2.2237e-31
-1.91004e-31
-7.22118e-32
8.10862e-32
1.79825e-31
2.00592e-31
1.36065e-31
2.34843e-32
-7.25037e-32
-1.32046e-31
-1.29742e-31
-8.66834e-32
-3.23812e-32
2.39404e-32
5.52953e-32
7.1765e-32
6.99383e-32
4.83768e-32
1.9822e-32
-2.22046e-32
-5.87735e-32
-8.53345e-32
-9.51093e-32
-8.19916e-32
-5.62733e-32
-1.74357e-32
1.94925e-32
5.1475e-32
6.64167e-32
5.81149e-32
3.01634e-32
-2.05116e-32
-6.68019e-32
-1.04075e-31
-1.14026e-31
-9.03931e-32
-5.49853e-32
-3.8481e-33
3.13985e-32
4.88148e-32
5.08927e-32
2.50619e-32
-2.61355e-33
-4.03497e-32
-7.3849e-32
-8.84288e-32
-9.17194e-32
-6.59531e-32
-2.90039e-32
1.01247e-32
4.16543e-32
4.48463e-32
2.90259e-32
-6.20811e-33
-4.49705e-32
-7.15366e-32
-8.26465e-32
-7.07372e-32
-4.46695e-32
-1.21544e-32
1.56933e-32
2.90921e-32
2.33938e-32
3.25603e-33
-2.1432e-32
-4.03362e-32
-4.03979e-32
-3.16686e-32
-1.77143e-32
-1.3124e-32
-2.59248e-32
-3.67838e-32
-4.34508e-32
-2.30991e-32
1.65098e-32
5.00817e-32
6.44479e-32
3.00912e-32
-3.10597e-32
-9.30585e-32
-1.22932e-31
-9.05067e-32
-1.93932e-32
6.56501e-32
1.1433e-31
1.00384e-31
3.64121e-32
-5.28021e-32
-1.11153e-31
-1.16264e-31
-6.56261e-32
1.48771e-32
7.48043e-32
9.29472e-32
5.58185e-32
-1.00013e-32
-6.45939e-32
-8.49131e-32
-5.25689e-32
6.96089e-33
6.2683e-32
8.75919e-32
6.06209e-32
2.85053e-33
-6.10913e-32
-1.00263e-31
-8.89577e-32
-3.9271e-32
3.23797e-32
9.52117e-32
1.17894e-31
1.00405e-31
4.46109e-32
-2.68035e-32
-8.27082e-32
-1.13535e-31
-1.02219e-31
-5.60385e-32
6.81904e-33
7.62969e-32
1.21766e-31
1.34163e-31
1.07098e-31
4.02655e-32
-3.7664e-32
-1.07853e-31
-1.38665e-31
-1.13017e-31
-4.14466e-32
5.74183e-32
1.38492e-31
1.68733e-31
1.34714e-31
4.63141e-32
-5.33904e-32
-1.21737e-31
-1.27492e-31
-6.71162e-32
2.72323e-32
1.1186e-31
1.47869e-31
1.17504e-31
4.17874e-32
-4.27406e-32
-9.5308e-32
-8.63599e-32
-2.90545e-32
5.34483e-32
1.1881e-31
1.31008e-31
9.68773e-32
2.29539e-32
-4.5458e-32
-7.39113e-32
-6.12024e-32
1.15556e-33
6.62076e-32
1.09149e-31
1.17753e-31
7.53877e-32
2.42727e-32
-2.39899e-32
-4.63337e-32
-2.67102e-32
6.43908e-33
5.15623e-32
8.23388e-32
8.79435e-32
7.98358e-32
5.54504e-32
3.34567e-32
2.03848e-32
1.3155e-32
1.51938e-32
1.76308e-32
1.58137e-32
1.69752e-32
1.70738e-32
2.68643e-32
4.96747e-32
7.35788e-32
1.02724e-31
1.11279e-31
9.72958e-32
6.21579e-32
4.07379e-33
-3.95929e-32
-6.54229e-32
-5.05787e-32
2.90394e-33
6.70423e-32
1.30336e-31
1.53882e-31
1.38679e-31
8.68572e-32
2.31947e-32
-2.58363e-32
-4.63743e-32
-2.51093e-32
5.57993e-33
5.43518e-32
7.47426e-32
7.53761e-32
6.83555e-32
2.35406e-32
1.41451e-32
-1.83294e-32
-2.45385e-32
-4.62303e-33
)
;

boundaryField
{
    left
    {
        type            calculated;
        value           uniform 0;
    }
    right
    {
        type            calculated;
        value           uniform 0;
    }
    empty
    {
        type            empty;
        value           nonuniform List<scalar> 0();
    }
}


// ************************************************************************* //
