/*--------------------------------*- C++ -*----------------------------------*\
| =========                 |                                                 |
| \\      /  F ield         | OpenFOAM: The Open Source CFD Toolbox           |
|  \\    /   O peration     | Version:  2106                                  |
|   \\  /    A nd           | Website:  www.openfoam.com                      |
|    \\/     M anipulation  |                                                 |
\*---------------------------------------------------------------------------*/
FoamFile
{
    version     2.0;
    format      ascii;
    arch        "LSB;label=32;scalar=64";
    class       surfaceScalarField;
    location    "0.08";
    object      phi;
}
// * * * * * * * * * * * * * * * * * * * * * * * * * * * * * * * * * * * * * //

dimensions      [0 3 -1 0 0 0 0];

oriented        oriented;

internalField   nonuniform List<scalar> 
799
(
1.75824e-32
4.5158e-32
5.80969e-32
4.70032e-32
2.15057e-32
-4.55693e-32
-1.05383e-31
-1.51691e-31
-1.62167e-31
-1.24833e-31
-6.94644e-32
-7.62002e-33
3.04213e-32
3.97279e-32
1.77003e-32
-2.19753e-32
-7.33193e-32
-1.2613e-31
-1.66566e-31
-1.94653e-31
-1.86599e-31
-1.5057e-31
-8.9464e-32
-1.87583e-32
2.17705e-32
3.08049e-32
-1.09251e-32
-8.16218e-32
-1.47995e-31
-2.00671e-31
-2.03607e-31
-1.76403e-31
-1.30172e-31
-7.5229e-32
-5.04542e-32
-3.9494e-32
-5.68153e-32
-9.48413e-32
-1.24851e-31
-1.61682e-31
-1.70791e-31
-1.58449e-31
-1.35121e-31
-8.85424e-32
-6.343e-32
-5.32512e-32
-6.9274e-32
-1.18344e-31
-1.58403e-31
-1.94796e-31
-1.96828e-31
-1.63079e-31
-1.19987e-31
-6.57628e-32
-4.14192e-32
-4.7638e-32
-8.07943e-32
-1.39929e-31
-1.85373e-31
-2.10552e-31
-1.97409e-31
-1.44284e-31
-8.21998e-32
-2.72807e-32
-1.44746e-32
-5.52223e-32
-1.29016e-31
-2.12526e-31
-2.57944e-31
-2.40407e-31
-1.68999e-31
-6.72097e-32
9.2802e-33
2.58722e-32
-2.11311e-32
-1.14818e-31
-2.01227e-31
-2.45743e-31
-2.34107e-31
-1.74715e-31
-1.08321e-31
-5.91528e-32
-4.36176e-32
-5.84467e-32
-8.23819e-32
-1.08136e-31
-1.27518e-31
-1.45459e-31
-1.65562e-31
-1.7762e-31
-1.75445e-31
-1.44115e-31
-9.13498e-32
-3.77407e-32
-4.88253e-33
-2.35746e-32
-8.19703e-32
-1.63552e-31
-2.32719e-31
-2.45889e-31
-2.10416e-31
-1.24448e-31
-3.34228e-32
2.00063e-32
2.92335e-32
-2.85179e-32
-1.07589e-31
-1.81182e-31
-2.24917e-31
-2.07722e-31
-1.63696e-31
-1.00752e-31
-5.3926e-32
-4.51661e-32
-5.64316e-32
-8.68775e-32
-1.03552e-31
-1.0089e-31
-8.799e-32
-7.39395e-32
-8.37046e-32
-1.14045e-31
-1.55426e-31
-1.86096e-31
-1.8453e-31
-1.49709e-31
-9.0193e-32
-3.05892e-32
7.36358e-33
1.28618e-32
-1.695e-32
-6.91935e-32
-1.30028e-31
-1.85226e-31
-2.16973e-31
-2.19595e-31
-1.85768e-31
-1.21519e-31
-4.76697e-32
1.72149e-32
4.26058e-32
2.01434e-32
-4.29662e-32
-1.27067e-31
-1.91818e-31
-2.18227e-31
-1.94651e-31
-1.34328e-31
-7.1521e-32
-2.81396e-32
-2.72881e-32
-6.17953e-32
-1.08735e-31
-1.45769e-31
-1.46245e-31
-1.13299e-31
-6.24483e-32
-2.06812e-32
-1.78209e-32
-5.7814e-32
-1.2888e-31
-1.95673e-31
-2.22567e-31
-1.91618e-31
-1.11382e-31
-2.19809e-32
3.61488e-32
2.82705e-32
-3.82026e-32
-1.28135e-31
-1.98877e-31
-2.0575e-31
-1.59337e-31
-8.1848e-32
-1.91419e-32
-1.27096e-32
-4.86602e-32
-1.17522e-31
-1.67116e-31
-1.69271e-31
-1.33031e-31
-6.20695e-32
-1.26269e-32
7.92377e-34
-2.83082e-32
-9.57082e-32
-1.51714e-31
-1.88215e-31
-1.80582e-31
-1.33578e-31
-7.83101e-32
-2.24656e-32
4.5139e-34
-8.21718e-33
-3.99149e-32
-8.86304e-32
-1.26429e-31
-1.50877e-31
-1.54908e-31
-1.37576e-31
-1.11435e-31
-7.63518e-32
-4.30698e-32
-2.10829e-32
-1.44069e-32
-3.35199e-32
-7.3142e-32
-1.19435e-31
-1.55944e-31
-1.58955e-31
-1.24815e-31
-6.65682e-32
-9.1918e-33
1.20295e-32
-1.62496e-32
-8.38276e-32
-1.58845e-31
-1.95802e-31
-1.69471e-31
-8.65043e-32
1.68436e-32
8.40729e-32
7.47502e-32
-1.11339e-32
-1.39526e-31
-2.43495e-31
-2.67617e-31
-1.99723e-31
-6.25536e-32
7.24466e-32
1.41967e-31
1.18075e-31
5.84334e-33
-1.29347e-31
-2.27907e-31
-2.47887e-31
-1.76768e-31
-6.27552e-32
4.82897e-32
1.07828e-31
9.16137e-32
2.42509e-32
-6.52099e-32
-1.31661e-31
-1.46397e-31
-1.12187e-31
-4.60583e-32
1.76817e-32
5.00155e-32
4.15309e-32
6.47895e-33
-3.09864e-32
-4.03279e-32
-1.08273e-32
3.87007e-32
8.62726e-32
9.57939e-32
5.98114e-32
2.90846e-33
-4.71552e-32
-4.67986e-32
1.17196e-32
1.02577e-31
1.93198e-31
2.36769e-31
2.20955e-31
1.68234e-31
1.06224e-31
7.69951e-32
9.49318e-32
1.42379e-31
2.06773e-31
2.57406e-31
2.87454e-31
3.10948e-31
3.2518e-31
3.48376e-31
3.73588e-31
3.9114e-31
4.11252e-31
4.26122e-31
4.52204e-31
4.91261e-31
5.31961e-31
5.73379e-31
6.02246e-31
6.29532e-31
6.71674e-31
7.40513e-31
8.37808e-31
9.39917e-31
1.01572e-30
1.04088e-30
1.02303e-30
9.94072e-31
1.00573e-30
1.09302e-30
1.24953e-30
1.44181e-30
1.60372e-30
1.69705e-30
1.71937e-30
1.70298e-30
1.71541e-30
1.79118e-30
1.94215e-30
2.13774e-30
2.32236e-30
2.46999e-30
2.56688e-30
2.64403e-30
2.74076e-30
2.87509e-30
3.05603e-30
3.25174e-30
3.43709e-30
3.60001e-30
3.74011e-30
3.89137e-30
4.0715e-30
4.29188e-30
4.54648e-30
4.8005e-30
5.04008e-30
5.25084e-30
5.44456e-30
5.65647e-30
5.90121e-30
6.20122e-30
6.54062e-30
6.88748e-30
7.22211e-30
7.51233e-30
7.77607e-30
8.0383e-30
8.32959e-30
8.69236e-30
9.11455e-30
9.58323e-30
1.00549e-29
1.04769e-29
1.08346e-29
1.11308e-29
1.13688e-29
1.17673e-29
1.22756e-29
1.36114e-29
1.60113e-29
1.96046e-29
2.64599e-29
2.91226e-29
3.18906e-29
1.48007e-29
-2.79669e-29
-7.93548e-29
-1.84957e-28
-1.75603e-28
-1.14813e-28
1.73209e-28
8.17447e-28
1.18282e-27
1.82532e-27
1.06374e-27
-7.54109e-28
-3.02937e-27
-7.53574e-27
-7.2061e-27
-5.92373e-27
1.75567e-27
1.68837e-26
2.26754e-26
3.30562e-26
1.66557e-26
-1.36036e-26
-4.09999e-26
-9.04882e-26
-7.1315e-26
-4.21874e-26
3.15776e-26
1.54632e-25
1.62743e-25
1.92005e-25
5.43187e-26
-1.45593e-25
-2.41555e-25
-4.15703e-25
-2.36516e-25
-3.16357e-26
2.19161e-25
5.89203e-25
4.55164e-25
3.83042e-25
-3.70764e-26
-5.43994e-25
-5.80042e-25
-7.54244e-25
-2.5457e-25
2.23636e-25
5.06856e-25
9.153e-25
5.06866e-25
2.23651e-25
-2.54557e-25
-7.54239e-25
-5.80047e-25
-5.44007e-25
-3.70905e-26
3.83033e-25
4.55162e-25
5.89207e-25
2.19169e-25
-3.163e-26
-2.36514e-25
-4.15705e-25
-2.4156e-25
-1.45597e-25
5.43151e-26
1.92003e-25
1.62743e-25
1.54632e-25
3.1578e-26
-4.21876e-26
-7.13156e-26
-9.04888e-26
-4.10008e-26
-1.36044e-26
1.66548e-26
3.30552e-26
2.26745e-26
1.68828e-26
1.75495e-27
-5.92435e-27
-7.20663e-27
-7.53622e-27
-3.02988e-27
-7.54629e-28
1.06316e-27
1.82472e-27
1.18221e-27
8.16848e-28
1.72684e-28
-1.15257e-28
-1.75946e-28
-1.85233e-28
-7.96287e-29
-2.82848e-29
1.43776e-29
3.13853e-29
2.85853e-29
2.5964e-29
1.92369e-29
1.57804e-29
1.35008e-29
1.22127e-29
1.16638e-29
1.11808e-29
1.08321e-29
1.04597e-29
1.00861e-29
9.70252e-30
9.32832e-30
8.97266e-30
8.6495e-30
8.35112e-30
8.054e-30
7.73706e-30
7.38592e-30
7.00957e-30
6.64349e-30
6.31458e-30
6.04949e-30
5.8413e-30
5.66055e-30
5.48135e-30
5.26775e-30
5.02182e-30
4.75118e-30
4.47618e-30
4.22833e-30
4.01355e-30
3.84547e-30
3.71267e-30
3.5953e-30
3.47622e-30
3.32838e-30
3.14701e-30
2.94201e-30
2.73589e-30
2.56289e-30
2.44542e-30
2.37721e-30
2.33959e-30
2.28935e-30
2.19143e-30
2.04683e-30
1.8622e-30
1.68875e-30
1.56265e-30
1.49435e-30
1.48851e-30
1.49318e-30
1.47753e-30
1.41418e-30
1.29004e-30
1.14462e-30
1.00346e-30
9.08124e-31
8.8027e-31
9.01704e-31
9.48289e-31
9.70667e-31
9.31965e-31
8.26826e-31
6.75356e-31
5.27777e-31
4.39115e-31
4.34041e-31
5.04413e-31
6.03179e-31
6.65177e-31
6.51151e-31
5.51693e-31
4.05302e-31
2.69624e-31
1.92567e-31
1.94997e-31
2.54132e-31
3.32462e-31
3.81877e-31
3.82562e-31
3.35248e-31
2.58224e-31
1.87644e-31
1.3495e-31
1.19583e-31
1.31305e-31
1.55253e-31
1.83053e-31
1.85559e-31
1.73228e-31
1.39475e-31
1.00954e-31
8.34127e-32
7.71636e-32
9.98866e-32
1.19678e-31
1.20415e-31
1.03521e-31
5.32196e-32
1.29805e-32
-8.14702e-33
1.73033e-33
4.94949e-32
9.11539e-32
1.19533e-31
1.12476e-31
7.11341e-32
2.90936e-32
-9.02479e-33
-2.21771e-32
-1.84227e-32
-1.78622e-32
-1.61109e-32
-1.99153e-32
-8.48331e-33
3.15386e-32
8.34603e-32
1.32721e-31
1.34872e-31
7.13256e-32
-3.67958e-32
-1.57357e-31
-2.16473e-31
-1.80812e-31
-5.90463e-32
1.10807e-31
2.3229e-31
2.55041e-31
1.59195e-31
-2.44634e-32
-1.94676e-31
-2.88551e-31
-2.51569e-31
-9.84857e-32
8.468e-32
2.30463e-31
2.55945e-31
1.57824e-31
-7.38624e-33
-1.75943e-31
-2.52152e-31
-2.18665e-31
-9.7867e-32
5.73288e-32
1.5786e-31
1.80321e-31
1.17401e-31
6.32849e-33
-8.82317e-32
-1.46426e-31
-1.42855e-31
-9.86001e-32
-4.31694e-32
1.4212e-32
4.65669e-32
6.39702e-32
6.3023e-32
4.2286e-32
1.45077e-32
-2.67877e-32
-6.26747e-32
-8.85898e-32
-9.77613e-32
-8.408e-32
-5.78336e-32
-1.85047e-32
1.88831e-32
5.12967e-32
6.66379e-32
5.87078e-32
3.11023e-32
-1.9252e-32
-6.52446e-32
-1.0224e-31
-1.1194e-31
-8.80797e-32
-5.24635e-32
-1.13675e-33
3.42849e-32
5.18677e-32
5.41006e-32
2.84105e-32
8.59145e-34
-3.67657e-32
-7.01644e-32
-8.46582e-32
-8.78796e-32
-6.20516e-32
-2.50535e-32
1.4115e-32
4.56716e-32
4.88863e-32
3.308e-32
-2.14034e-33
-4.08944e-32
-6.74634e-32
-7.8584e-32
-6.66867e-32
-4.06401e-32
-8.14848e-33
1.96716e-32
3.30312e-32
2.72914e-32
7.10789e-33
-1.76358e-32
-3.65972e-32
-3.67176e-32
-2.80537e-32
-1.41694e-32
-9.65485e-33
-2.25364e-32
-3.34826e-32
-4.02384e-32
-1.99725e-32
1.95503e-32
5.30413e-32
6.73173e-32
3.28642e-32
-2.83826e-32
-9.04811e-32
-1.20453e-31
-8.81316e-32
-1.71257e-32
6.78108e-32
1.1638e-31
1.02322e-31
3.82357e-32
-5.10973e-32
-1.09572e-31
-1.1481e-31
-6.43005e-32
1.60717e-32
7.58696e-32
9.38786e-32
5.66172e-32
-9.33775e-33
-6.40597e-32
-8.45056e-32
-5.22875e-32
7.11135e-33
6.27026e-32
8.74799e-32
6.03772e-32
2.47268e-33
-6.16041e-32
-1.00915e-31
-8.97483e-32
-4.02063e-32
3.13009e-32
9.39914e-32
1.16533e-31
9.89055e-32
4.29768e-32
-2.8573e-32
-8.46175e-32
-1.15576e-31
-1.04389e-31
-5.83361e-32
4.39357e-33
7.37436e-32
1.19083e-31
1.31353e-31
1.04166e-31
3.72126e-32
-4.08418e-32
-1.11151e-31
-1.42079e-31
-1.1655e-31
-4.50969e-32
5.36537e-32
1.34616e-31
1.64751e-31
1.30628e-31
4.21195e-32
-5.76876e-32
-1.26133e-31
-1.31985e-31
-7.17051e-32
2.25518e-32
1.07092e-31
1.43017e-31
1.12574e-31
3.67823e-32
-4.78142e-32
-1.00448e-31
-9.15592e-32
-3.43109e-32
4.81362e-32
1.13449e-31
1.25604e-31
9.14275e-32
1.74688e-32
-5.09807e-32
-7.94589e-32
-6.67726e-32
-4.43265e-33
6.06007e-32
1.03531e-31
1.12124e-31
6.97574e-32
1.86439e-32
-2.96088e-32
-5.19384e-32
-3.23015e-32
8.61402e-34
4.60079e-32
7.68213e-32
8.24704e-32
7.44101e-32
5.00774e-32
2.81415e-32
1.51336e-32
7.97004e-33
1.00754e-32
1.2586e-32
1.08514e-32
1.20996e-32
1.22876e-32
2.21746e-32
4.50916e-32
6.9104e-32
9.83639e-32
1.07034e-31
9.31716e-32
5.81593e-32
2.07639e-34
-4.33289e-32
-6.9022e-32
-5.40382e-32
-4.12269e-34
6.38705e-32
1.27309e-31
1.51003e-31
1.35956e-31
8.42888e-32
2.07895e-32
-2.80776e-32
-4.84484e-32
-2.70134e-32
3.84885e-33
5.2793e-32
7.33584e-32
7.41709e-32
6.73293e-32
2.26884e-32
1.34642e-32
-1.88418e-32
-2.48815e-32
-4.79515e-33
)
;

boundaryField
{
    left
    {
        type            calculated;
        value           uniform 0;
    }
    right
    {
        type            calculated;
        value           uniform 0;
    }
    empty
    {
        type            empty;
        value           nonuniform List<scalar> 0();
    }
}


// ************************************************************************* //
