/*--------------------------------*- C++ -*----------------------------------*\
| =========                 |                                                 |
| \\      /  F ield         | OpenFOAM: The Open Source CFD Toolbox           |
|  \\    /   O peration     | Version:  2106                                  |
|   \\  /    A nd           | Website:  www.openfoam.com                      |
|    \\/     M anipulation  |                                                 |
\*---------------------------------------------------------------------------*/
FoamFile
{
    version     2.0;
    format      ascii;
    arch        "LSB;label=32;scalar=64";
    class       surfaceScalarField;
    location    "0.4";
    object      phi;
}
// * * * * * * * * * * * * * * * * * * * * * * * * * * * * * * * * * * * * * //

dimensions      [0 3 -1 0 0 0 0];

oriented        oriented;

internalField   nonuniform List<scalar> 
18840
(
3.37543032179e-05
1.62456967693e-05
2.25359634982e-05
1.12183424812e-05
1.63023783751e-05
6.23358399135e-06
1.2809825114e-05
3.49255251226e-06
1.08065798045e-05
2.00324527006e-06
9.60476926815e-06
1.20181106309e-06
8.85167888327e-06
7.53090342912e-07
8.36503077348e-06
4.86647706355e-07
8.04518636967e-06
3.19844638982e-07
7.83374244101e-06
2.1144413043e-07
7.69428244433e-06
1.39459894439e-07
7.60308072953e-06
9.12017522798e-08
7.54426588597e-06
5.88149782869e-08
7.50707758077e-06
3.71882696241e-08
7.48418952599e-06
2.28879416124e-08
7.47062399454e-06
1.35655198033e-08
7.46302143485e-06
7.6025065863e-09
7.45913871726e-06
3.88270254055e-09
7.45749904615e-06
1.63965535561e-09
7.45714601641e-06
3.53031359294e-10
7.45748344205e-06
-3.37355289822e-10
7.45813456489e-06
-6.51034508048e-10
7.45888662755e-06
-7.51985472984e-10
7.45962030475e-06
-7.33712694007e-10
7.46027668797e-06
-6.56462399697e-10
7.46083311385e-06
-5.56456026633e-10
7.46128727836e-06
-4.54212307944e-10
7.4616474823e-06
-3.60287844405e-10
7.46192664971e-06
-2.79228242051e-10
7.46213888332e-06
-2.12203534981e-10
7.46229751007e-06
-1.5856020252e-10
7.46241419408e-06
-1.1666635515e-10
7.46249877525e-06
-8.45839503488e-11
7.46255923588e-06
-6.04578929057e-11
7.4626018775e-06
-4.26341386637e-11
7.46263154334e-06
-2.96852607932e-11
7.46265189508e-06
-2.03984158709e-11
7.46266567538e-06
-1.38042991147e-11
7.46267486102e-06
-9.17014668151e-12
7.4626808865e-06
-5.96667464715e-12
7.46268477884e-06
-3.84017218085e-12
7.46268727454e-06
-2.48899175053e-12
7.46268880113e-06
-1.5493054902e-12
7.4626896761e-06
-8.79460886875e-13
7.46269019888e-06
-5.33309817227e-13
7.4626905181e-06
-3.78525959104e-13
7.46269071155e-06
-2.93179933839e-13
7.46269088017e-06
-2.25430048242e-13
7.46269107042e-06
-1.98909627275e-13
7.46269129277e-06
-2.33285989757e-13
7.46269153407e-06
-2.83952440302e-13
7.462691797e-06
-3.00662931497e-13
7.4626921248e-06
-3.02345846521e-13
7.46269249772e-06
-3.26103505893e-13
7.46269288457e-06
-3.73530758892e-13
7.4626932781e-06
-4.14084713771e-13
7.46269369228e-06
-4.27515367242e-13
7.46269416465e-06
-4.39477751265e-13
7.46269466841e-06
-4.80039647322e-13
7.46269516998e-06
-5.28769560454e-13
7.46269567678e-06
-5.58202583759e-13
7.46269623381e-06
-5.81591380955e-13
7.46269686029e-06
-6.3247901922e-13
7.4626975202e-06
-7.02084432781e-13
7.46269819877e-06
-7.45992076041e-13
7.46269892602e-06
-7.58142944335e-13
7.46269971805e-06
-7.75599501446e-13
7.46270053757e-06
-8.14081375902e-13
7.46270134895e-06
-8.53543598813e-13
7.46270216617e-06
-8.82350778143e-13
7.46270303506e-06
-9.13566193066e-13
7.46270398331e-06
-9.61195445167e-13
7.46270499344e-06
-1.02122257187e-12
7.46270604143e-06
-1.07611579782e-12
7.46270712949e-06
-1.10649541974e-12
7.46270827769e-06
-1.11902846996e-12
7.46270948232e-06
-1.15375118165e-12
7.46271070693e-06
-1.21644080177e-12
7.46271193409e-06
-1.25788701606e-12
7.4627132071e-06
-1.275509038e-12
7.46271456676e-06
-1.33775385521e-12
7.46271598355e-06
-1.4464771138e-12
7.46271741323e-06
-1.5082526225e-12
7.46271887143e-06
-1.49255817361e-12
7.46272041383e-06
-1.5044801155e-12
7.46272202043e-06
-1.61287980105e-12
7.46272364076e-06
-1.73484682629e-12
7.46272534491e-06
-1.80340341055e-12
7.462727207e-06
-1.84235128764e-12
7.4627292044e-06
-1.88072232574e-12
7.46273123698e-06
-1.91444008074e-12
7.46273324896e-06
-1.94391502707e-12
7.46273530092e-06
-2.02715100717e-12
7.46273740922e-06
-2.14765560191e-12
7.4627396563e-06
-2.25479904412e-12
7.4627420767e-06
-2.3568973442e-12
7.46274460451e-06
-2.44685326389e-12
7.46274726645e-06
-2.55272845672e-12
7.46275008489e-06
-2.68161737152e-12
7.46275316886e-06
-2.87186066958e-12
7.46275651676e-06
-3.15808736225e-12
7.46276009284e-06
-3.43797610876e-12
7.46276403243e-06
-3.76144228015e-12
7.46276837035e-06
-4.18484370604e-12
7.46277323276e-06
-4.73222063774e-12
7.46277874866e-06
-5.42206564459e-12
7.46278506329e-06
-6.25867580109e-12
7.46279238609e-06
-7.28710554293e-12
7.4628008908e-06
-8.50528546542e-12
7.46281094781e-06
-1.00020269993e-11
7.46282295287e-06
-1.19147872886e-11
7.46283731718e-06
-1.42700630039e-11
7.46285468017e-06
-1.71971261598e-11
7.46287570916e-06
-2.08437061545e-11
7.4629012833e-06
-2.53849786065e-11
7.46293246432e-06
-3.10353267963e-11
7.46297060186e-06
-3.80027827595e-11
7.46301743481e-06
-4.6646947024e-11
7.46307498399e-06
-5.74210342112e-11
7.46314579187e-06
-7.08086618227e-11
7.46323304186e-06
-8.73503961747e-11
7.46334071671e-06
-1.07792411899e-10
7.46347377806e-06
-1.33190016983e-10
7.46363898155e-06
-1.65242431028e-10
7.46384738271e-06
-2.08336465598e-10
7.46410132809e-06
-2.53886209048e-10
7.46441433044e-06
-3.13150270606e-10
7.46480157912e-06
-3.87472963509e-10
7.46528112889e-06
-4.79734012682e-10
7.46587512783e-06
-5.94087058643e-10
7.46661070044e-06
-7.35692385863e-10
7.46752174998e-06
-9.11149388189e-10
7.46865020189e-06
-1.12859086442e-09
7.47004835385e-06
-1.39818185474e-09
7.47178076506e-06
-1.73245664634e-09
7.47392742303e-06
-2.14678345942e-09
7.47658832575e-06
-2.6607710073e-09
7.4798873024e-06
-3.29879692257e-09
7.48397885569e-06
-4.09126791375e-09
7.48905548496e-06
-5.07635060743e-09
7.49535747928e-06
-6.30179587319e-09
7.50318615427e-06
-7.82829203688e-09
7.51291878226e-06
-9.73252024198e-09
7.52503112205e-06
-1.2112266088e-08
7.54012449422e-06
-1.5093265964e-08
7.55896262541e-06
-1.88379940464e-08
7.58252270111e-06
-2.3559631838e-08
7.61206299788e-06
-2.95402198551e-08
7.64922212017e-06
-3.7159058097e-08
7.6961595496e-06
-4.69373058233e-08
7.75577158515e-06
-5.96119908589e-08
7.83204829883e-06
-7.62766075513e-08
7.93073602775e-06
-9.86878248307e-08
8.06079660269e-06
-1.30060533178e-07
8.23816746182e-06
-1.7737087526e-07
8.49641167049e-06
-2.58244459366e-07
8.91829391844e-06
-4.21882605127e-07
9.73600594208e-06
-8.17712401638e-07
1.16622666488e-05
-1.92626082312e-06
-5.21203010289e-06
1.68742972831e-05
5.01388804934e-05
1.61068134756e-05
4.41591296719e-05
1.71980949539e-05
3.77598741379e-05
1.26328401845e-05
3.26495147843e-05
8.60291181742e-06
2.89465819414e-05
5.70617732349e-06
2.63676030314e-05
3.7807900031e-06
2.45938855007e-05
2.52680845486e-06
2.33783983904e-05
1.70213461416e-06
2.25473239002e-05
1.15091910124e-06
2.19811571689e-05
7.77611219358e-07
2.15978048616e-05
5.22812303431e-07
2.13405418291e-05
3.48464646553e-07
2.11699443964e-05
2.29412405801e-07
2.10585367376e-05
1.4859595224e-07
2.09871855897e-05
9.42389323027e-08
2.0942622064e-05
5.81289716343e-08
2.09157075179e-05
3.45169820934e-08
2.09002077559e-05
1.93824923368e-08
2.0891920348e-05
9.92715161287e-09
2.08880552478e-05
4.21817243578e-09
2.08867856278e-05
9.32303740206e-10
2.08869506351e-05
-8.1602114851e-10
2.08878289904e-05
-1.63026203006e-09
2.0888987502e-05
-1.89221640298e-09
2.08901808201e-05
-1.8499435759e-09
2.08912812904e-05
-1.65709300796e-09
2.08922327276e-05
-1.40572123957e-09
2.08930204147e-05
-1.14797206141e-09
2.08936520075e-05
-9.10837934567e-10
2.08941458939e-05
-7.06088561843e-10
2.08945241986e-05
-5.36762135342e-10
2.0894808778e-05
-4.01146039327e-10
2.08950194083e-05
-2.95214992228e-10
2.08951729986e-05
-2.1414863311e-10
2.08952834586e-05
-1.53197797537e-10
2.08953618552e-05
-1.08114438596e-10
2.08954167512e-05
-7.52659914465e-11
2.08954546709e-05
-5.16636148264e-11
2.08954804619e-05
-3.49194291733e-11
2.08954977072e-05
-2.31842921223e-11
2.08955090145e-05
-1.50884792811e-11
2.08955161597e-05
-9.61952759628e-12
2.08955205492e-05
-5.99315710964e-12
2.08955232063e-05
-3.63592341885e-12
2.08955247434e-05
-2.14364711175e-12
2.0895525554e-05
-1.22545723863e-12
2.08955259249e-05
-7.28867783316e-13
2.08955261334e-05
-5.21246797253e-13
2.08955262673e-05
-3.87732269066e-13
2.08955263895e-05
-3.4209545512e-13
2.08955265165e-05
-3.71740184143e-13
2.08955266378e-05
-4.22229627791e-13
2.08955268003e-05
-4.56102769239e-13
2.08955270096e-05
-4.92323984429e-13
2.08955272574e-05
-5.64361248301e-13
2.08955275276e-05
-6.59856393324e-13
2.08955278065e-05
-7.29644043616e-13
2.08955281205e-05
-7.71799754794e-13
2.08955284714e-05
-8.38132986319e-13
2.08955288377e-05
-9.44832501819e-13
2.0895529206e-05
-1.05103271579e-12
2.08955296011e-05
-1.11125221134e-12
2.08955300584e-05
-1.15141902826e-12
2.08955305698e-05
-1.21982335338e-12
2.08955311044e-05
-1.30369683744e-12
2.08955316601e-05
-1.36303384107e-12
2.08955322586e-05
-1.39683982112e-12
2.08955328897e-05
-1.44737657298e-12
2.08955335203e-05
-1.53676476091e-12
2.08955341465e-05
-1.63605008621e-12
2.08955348047e-05
-1.70502291266e-12
2.089553553e-05
-1.7469242927e-12
2.08955363184e-05
-1.79797541471e-12
2.08955371479e-05
-1.87231666001e-12
2.0895538008e-05
-1.94479505173e-12
2.08955389095e-05
-1.99503369826e-12
2.0895539867e-05
-2.05093381476e-12
2.08955408662e-05
-2.15364548957e-12
2.08955418619e-05
-2.28021493168e-12
2.08955428558e-05
-2.36572130638e-12
2.08955439158e-05
-2.42080786141e-12
2.08955450714e-05
-2.52599034217e-12
2.08955462753e-05
-2.69191459025e-12
2.0895547481e-05
-2.83113090026e-12
2.08955487352e-05
-2.90923506478e-12
2.08955500908e-05
-3.00687916757e-12
2.08955515239e-05
-3.15826109904e-12
2.08955530686e-05
-3.29830835279e-12
2.08955547701e-05
-3.39573832301e-12
2.08955566156e-05
-3.49843906714e-12
2.08955585354e-05
-3.66238760663e-12
2.08955604744e-05
-3.87200302136e-12
2.08955625387e-05
-4.10550672346e-12
2.08955647771e-05
-4.34900064911e-12
2.0895567259e-05
-4.57509119758e-12
2.0895570042e-05
-4.85005392337e-12
2.08955730804e-05
-5.24180127535e-12
2.08955764662e-05
-5.7448203246e-12
2.08955802749e-05
-6.31092614366e-12
2.08955846781e-05
-6.95211825643e-12
2.08955897542e-05
-7.80271640638e-12
2.08955955097e-05
-8.89508216408e-12
2.08956021847e-05
-1.02278256995e-11
2.08956099607e-05
-1.18489434478e-11
2.08956191334e-05
-1.38164100526e-11
2.08956300406e-05
-1.62376202603e-11
2.08956430749e-05
-1.91832854427e-11
2.08956587705e-05
-2.27639774623e-11
2.08956775111e-05
-2.70954899568e-11
2.08956997585e-05
-3.21607664723e-11
2.08957265397e-05
-3.85763539161e-11
2.08957602909e-05
-4.78502312267e-11
2.08958019885e-05
-5.86507506958e-11
2.08958532911e-05
-7.19011504074e-11
2.08959164873e-05
-8.83178132362e-11
2.08959944383e-05
-1.08719948483e-10
2.08960905699e-05
-1.33992329055e-10
2.08962092698e-05
-1.65250070161e-10
2.08963559263e-05
-2.03981852865e-10
2.08965372045e-05
-2.51972132197e-10
2.08967612969e-05
-3.11366287682e-10
2.08970383461e-05
-3.84843731038e-10
2.08973808192e-05
-4.75692283416e-10
2.08978035367e-05
-5.88116459507e-10
2.08983227224e-05
-7.27702589386e-10
2.08989701562e-05
-9.01631309162e-10
2.08997745699e-05
-1.11764525518e-09
2.09007723476e-05
-1.38525170874e-09
2.09020091392e-05
-1.71649026512e-09
2.09035418143e-05
-2.12661685008e-09
2.09054407279e-05
-2.63461971935e-09
2.09077934739e-05
-3.26398479568e-09
2.09107084497e-05
-4.04373877328e-09
2.09143203479e-05
-5.00997606391e-09
2.09187961437e-05
-6.2078339748e-09
2.0924342702e-05
-7.69318421496e-09
2.09312177975e-05
-9.53565731565e-09
2.09397413748e-05
-1.18223137751e-08
2.09503120505e-05
-1.46619048501e-08
2.09634268302e-05
-1.81909498215e-08
2.09797057349e-05
-2.25808404452e-08
2.09999255814e-05
-2.80480176043e-08
2.10250601047e-05
-3.48670430312e-08
2.10563356473e-05
-4.33877756688e-08
2.10953025334e-05
-5.40597732238e-08
2.11439300209e-05
-6.7465296936e-08
2.1204738573e-05
-8.43675791918e-08
2.12809795287e-05
-1.05780738217e-07
2.13768972462e-05
-1.33076371637e-07
2.14981162656e-05
-1.68155876524e-07
2.16522475833e-05
-2.13743176023e-07
2.1849899304e-05
-2.73927868505e-07
2.21064715728e-05
-3.55259741453e-07
2.24455689154e-05
-4.69157518028e-07
2.29058078444e-05
-6.37609285592e-07
2.35546740698e-05
-9.07109837977e-07
2.45148042951e-05
-1.38201191592e-06
2.60001512673e-05
-2.30305875132e-06
2.83034785286e-05
-4.22958727278e-06
-8.28367524646e-06
3.1375123396e-05
5.35844260329e-05
1.25223863461e-05
5.2916600784e-05
1.78659202067e-05
4.9639301565e-05
1.59101396803e-05
4.58382174571e-05
1.24039964877e-05
4.24428746766e-05
9.10151965733e-06
3.97331591213e-05
6.49050516247e-06
3.76912455527e-05
4.56872250511e-06
3.62011672322e-05
3.19221298306e-06
3.51355937351e-05
2.21649245063e-06
3.43848448272e-05
1.5283603307e-06
3.38626594215e-05
1.04499792883e-06
3.35040069948e-05
7.07116995045e-07
3.32609629338e-05
4.724563882e-07
3.30987209437e-05
3.1083796287e-07
3.29922908683e-05
2.00668881709e-07
3.2923919679e-05
1.26500082503e-07
3.28811297534e-05
7.73068317789e-08
3.28552511778e-05
4.52610571295e-08
3.28403347588e-05
2.48436736223e-08
3.28323549031e-05
1.21981372236e-08
3.28286290764e-05
4.65820573482e-09
3.28274051366e-05
4.0788634778e-10
3.28275645645e-05
-1.78971437891e-09
3.28284106303e-05
-2.73827516252e-09
3.28295266704e-05
-2.96607136528e-09
3.28306762529e-05
-2.80680933027e-09
3.28317363457e-05
-2.4658942505e-09
3.28326528451e-05
-2.06444784687e-09
3.28334115461e-05
-1.66949329292e-09
3.28340198502e-05
-1.3143864501e-09
3.28344955056e-05
-1.01239248366e-09
3.28348597722e-05
-7.65376254582e-10
3.28351337531e-05
-5.69185392834e-10
3.28353365195e-05
-4.16965766909e-10
3.28354843754e-05
-3.01131487611e-10
3.28355907076e-05
-2.14474960072e-10
3.28356661272e-05
-1.5065903114e-10
3.28357188874e-05
-1.04351206655e-10
3.28357552394e-05
-7.12139341813e-11
3.2835779872e-05
-4.78074233352e-11
3.28357962868e-05
-3.15085442253e-11
3.28358070257e-05
-2.03639027101e-11
3.28358138919e-05
-1.29008586352e-11
3.2835818156e-05
-7.99881060265e-12
3.28358207338e-05
-4.83981189442e-12
3.28358223154e-05
-2.85915901217e-12
3.28358232489e-05
-1.6727621268e-12
3.28358236827e-05
-9.76409192274e-13
3.28358238064e-05
-5.5887016549e-13
3.28358238477e-05
-4.09051065692e-13
3.28358238805e-05
-3.69817793362e-13
3.28358239055e-05
-4.19675025255e-13
3.28358239489e-05
-5.03199935641e-13
3.2835824017e-05
-5.86194156141e-13
3.28358241208e-05
-6.71203496579e-13
3.28358242649e-05
-7.77462718764e-13
3.28358244201e-05
-8.90152926604e-13
3.28358245856e-05
-9.92421945704e-13
3.28358247792e-05
-1.09541765455e-12
3.28358250045e-05
-1.20614104969e-12
3.28358252506e-05
-1.32885891009e-12
3.28358255052e-05
-1.43412754149e-12
3.28358257898e-05
-1.50586301775e-12
3.28358261195e-05
-1.56872866166e-12
3.28358264808e-05
-1.6502559419e-12
3.28358268583e-05
-1.75045988725e-12
3.28358272463e-05
-1.82732456644e-12
3.28358276437e-05
-1.88804812009e-12
3.28358280484e-05
-1.97753114662e-12
3.28358284675e-05
-2.09356132756e-12
3.28358289124e-05
-2.1961828016e-12
3.28358293954e-05
-2.26805886725e-12
3.28358299222e-05
-2.33412183939e-12
3.28358304953e-05
-2.42185037791e-12
3.28358310999e-05
-2.53248844726e-12
3.28358317174e-05
-2.64005878841e-12
3.28358323583e-05
-2.72617130494e-12
3.28358330432e-05
-2.82129405489e-12
3.28358337479e-05
-2.96496492103e-12
3.28358344413e-05
-3.12481000482e-12
3.28358351626e-05
-3.24661350162e-12
3.28358359684e-05
-3.3644424284e-12
3.28358368515e-05
-3.54880328152e-12
3.28358377446e-05
-3.77158363983e-12
3.28358386467e-05
-3.94721438964e-12
3.28358396364e-05
-4.08787583457e-12
3.28358407388e-05
-4.25656807308e-12
3.28358419759e-05
-4.44546132374e-12
3.28358433564e-05
-4.63390708096e-12
3.28358448637e-05
-4.84893700732e-12
3.2835846473e-05
-5.14235804314e-12
3.28358481413e-05
-5.51069548914e-12
3.28358499826e-05
-5.91640081799e-12
3.28358520664e-05
-6.35741534546e-12
3.28358544206e-05
-6.82688014695e-12
3.2835857112e-05
-7.38655854826e-12
3.283586014e-05
-8.1161522533e-12
3.28358636309e-05
-9.03064831636e-12
3.28358676004e-05
-1.00940585217e-11
3.28358721435e-05
-1.12994668312e-11
3.28358777605e-05
-1.31372777875e-11
3.28358844185e-05
-1.53049832797e-11
3.28358923903e-05
-1.79797082412e-11
3.28359019671e-05
-2.12750418239e-11
3.28359135544e-05
-2.53070446583e-11
3.28359276695e-05
-3.02491383327e-11
3.2835944885e-05
-3.62891606461e-11
3.2835966045e-05
-4.3721495365e-11
3.28359920756e-05
-5.29390058197e-11
3.28360244098e-05
-6.43513129296e-11
3.28360645853e-05
-7.85193550703e-11
3.28361130961e-05
-9.61258914608e-11
3.28361726111e-05
-1.17932432203e-10
3.28362458233e-05
-1.44926386445e-10
3.28363360732e-05
-1.78375336013e-10
3.28364475077e-05
-2.19896598664e-10
3.28365850572e-05
-2.71373604034e-10
3.28367549088e-05
-3.35067399576e-10
3.28369647652e-05
-4.13874284668e-10
3.28372241896e-05
-5.11425048197e-10
3.28375449404e-05
-6.3220968618e-10
3.28379417081e-05
-7.81667856715e-10
3.28384327282e-05
-9.66659416035e-10
3.28390405244e-05
-1.19591599376e-09
3.28397929045e-05
-1.48029836967e-09
3.28407236912e-05
-1.83277682789e-09
3.2841875692e-05
-2.26990060381e-09
3.28433020551e-05
-2.81165368915e-09
3.28450682932e-05
-3.48275081791e-09
3.28472556722e-05
-4.31399542818e-09
3.28499646015e-05
-5.34369948349e-09
3.28533199239e-05
-6.61938419117e-09
3.28574761137e-05
-8.20001593389e-09
3.28626247749e-05
-1.01587301042e-08
3.28690038286e-05
-1.25866628986e-08
3.28769079879e-05
-1.55971409024e-08
3.288670394e-05
-1.93312621124e-08
3.28988470119e-05
-2.39651478843e-08
3.29139038324e-05
-2.9718649036e-08
3.29325806128e-05
-3.68674129467e-08
3.29557575214e-05
-4.57576943107e-08
3.29845356432e-05
-5.68259713754e-08
3.30202938363e-05
-7.0625150789e-08
3.30647650259e-05
-8.7858899219e-08
3.31201354413e-05
-1.09429664677e-07
3.31891745383e-05
-1.36504240804e-07
3.32754147447e-05
-1.70607498458e-07
3.33833942502e-05
-2.13759975724e-07
3.35190038756e-05
-2.68685788896e-07
3.36899916312e-05
-3.39143296e-07
3.39067235918e-05
-4.30475170922e-07
3.41833816592e-05
-5.50585748689e-07
3.45398938242e-05
-7.1177189558e-07
3.50050841379e-05
-9.34348102155e-07
3.56215856578e-05
-1.25411108941e-06
3.64523517674e-05
-1.73787622466e-06
3.75846631009e-05
-2.5143233167e-06
3.91103176685e-05
-3.82871308984e-06
4.10040970965e-05
-6.12336652084e-06
-1.00286640065e-05
4.27490865416e-05
5.35705199106e-05
8.95186652749e-06
5.55863056679e-05
1.58501341543e-05
5.52410586907e-05
1.6255386281e-05
5.35976160923e-05
1.40474396761e-05
5.15429061737e-05
1.11562295964e-05
4.95819402906e-05
8.45147050948e-06
4.79262513199e-05
6.22441174553e-06
4.66200401497e-05
4.49842440754e-06
4.56322341622e-05
3.20429833125e-06
4.49066880443e-05
2.25390649145e-06
4.43854428744e-05
1.56624332866e-06
4.40178335298e-05
1.07472632551e-06
4.37629129457e-05
7.27376842615e-07
4.35890454593e-05
4.84705427684e-07
4.34725021607e-05
3.17212071915e-07
4.33958691066e-05
2.03133068875e-07
4.33465910712e-05
1.26584839407e-07
4.33157569564e-05
7.60951721958e-08
4.32971355711e-05
4.34651378046e-08
4.32864340361e-05
2.28997648438e-08
4.32807407867e-05
1.03515512823e-08
4.32781180414e-05
3.03062255393e-09
4.32772913151e-05
-9.63074816381e-10
4.32774557988e-05
-2.90281631431e-09
4.32781071618e-05
-3.61748981785e-09
4.32789451205e-05
-3.64483971248e-09
4.32798000512e-05
-3.32089377786e-09
4.32805843999e-05
-2.8487799855e-09
4.32812602605e-05
-2.34526732132e-09
4.32818183943e-05
-1.87247850517e-09
4.32822650604e-05
-1.45907562518e-09
4.3282613768e-05
-1.1141271384e-09
4.32828804628e-05
-8.35906155129e-10
4.32830808246e-05
-6.17343730862e-10
4.32832289558e-05
-4.49285412883e-10
4.32833368722e-05
-3.22400943723e-10
4.32834143835e-05
-2.28159971628e-10
4.32834692997e-05
-1.59216465895e-10
4.3283507655e-05
-1.09506321191e-10
4.32835340184e-05
-7.41541135722e-11
4.32835518423e-05
-4.93650773105e-11
4.32835636791e-05
-3.22561874358e-11
4.32835713838e-05
-2.06564242165e-11
4.32835762677e-05
-1.29461943884e-11
4.32835792554e-05
-7.90860523312e-12
4.32835810282e-05
-4.67024408677e-12
4.32835820353e-05
-2.66189940285e-12
4.32835825838e-05
-1.49440296669e-12
4.32835828842e-05
-8.64877756656e-13
4.32835829795e-05
-5.36112306712e-13
4.32835830052e-05
-3.84157979389e-13
4.32835829905e-05
-3.54357856575e-13
4.32835829597e-05
-4.46314578914e-13
4.32835829096e-05
-5.4574375009e-13
4.32835828597e-05
-6.4897803781e-13
4.32835828427e-05
-7.54638701841e-13
4.32835828394e-05
-8.88167336291e-13
4.32835828238e-05
-1.0332794594e-12
4.3283582792e-05
-1.15882688245e-12
4.32835827774e-05
-1.259994804e-12
4.32835827933e-05
-1.3689114314e-12
4.32835828119e-05
-1.49200163539e-12
4.32835828289e-05
-1.59402446974e-12
4.3283582876e-05
-1.66394262894e-12
4.32835829724e-05
-1.73844715032e-12
4.32835830869e-05
-1.84272912915e-12
4.32835831856e-05
-1.94567514588e-12
4.32835832566e-05
-2.02265464968e-12
4.32835833202e-05
-2.10012617564e-12
4.32835834043e-05
-2.20348431684e-12
4.32835835068e-05
-2.32123571003e-12
4.32835836151e-05
-2.42072105027e-12
4.32835837372e-05
-2.49288773726e-12
4.32835838922e-05
-2.56668209486e-12
4.32835840794e-05
-2.68023591767e-12
4.32835842755e-05
-2.82177024969e-12
4.32835844655e-05
-2.93404835613e-12
4.32835846645e-05
-3.01839434628e-12
4.32835848838e-05
-3.15498463926e-12
4.32835851031e-05
-3.36121609508e-12
4.32835853195e-05
-3.56180334441e-12
4.32835855747e-05
-3.72763746737e-12
4.32835859121e-05
-3.91433254495e-12
4.32835862945e-05
-4.15852977357e-12
4.32835866743e-05
-4.40934091906e-12
4.32835871116e-05
-4.60820153059e-12
4.32835876686e-05
-4.78650212451e-12
4.32835883666e-05
-5.01429171861e-12
4.32835891925e-05
-5.32767265078e-12
4.32835901313e-05
-5.68503331718e-12
4.32835912015e-05
-6.09548190532e-12
4.32835923826e-05
-6.62269938044e-12
4.32835937713e-05
-7.23351402035e-12
4.32835954495e-05
-7.90707473959e-12
4.32835974189e-05
-8.67990281654e-12
4.32835997566e-05
-9.63256259814e-12
4.32836025334e-05
-1.08171037329e-11
4.32836059551e-05
-1.22618014034e-11
4.32836101966e-05
-1.40770514885e-11
4.32836154099e-05
-1.63117830869e-11
4.32836215475e-05
-1.906065892e-11
4.32836288888e-05
-2.24664543426e-11
4.32836377686e-05
-2.66805077159e-11
4.32836485462e-05
-3.19072014885e-11
4.32836616777e-05
-3.83238227767e-11
4.32836777906e-05
-4.61778792471e-11
4.32836975158e-05
-5.58237201472e-11
4.32837217409e-05
-6.77398423944e-11
4.3283751478e-05
-8.25194772477e-11
4.3283788005e-05
-1.00779986427e-10
4.32838330804e-05
-1.23414519893e-10
4.32838887815e-05
-1.51586011537e-10
4.32839575681e-05
-1.86482487896e-10
4.3284042438e-05
-2.29677754209e-10
4.32841472188e-05
-2.83107190135e-10
4.32842767808e-05
-3.4926859279e-10
4.32844369321e-05
-4.31266353389e-10
4.32846348593e-05
-5.32806843752e-10
4.32848795279e-05
-6.58451357152e-10
4.3285182098e-05
-8.13982291671e-10
4.3285556391e-05
-1.00657685385e-09
4.32860195212e-05
-1.24497093885e-09
4.32865927336e-05
-1.54006782603e-09
4.32873022603e-05
-1.90556016362e-09
4.32881805561e-05
-2.35860006332e-09
4.32892677693e-05
-2.92003217312e-09
4.32906135924e-05
-3.61573649002e-09
4.32922796692e-05
-4.47764481117e-09
4.32943422948e-05
-5.54529220906e-09
4.3296896152e-05
-6.86779071703e-09
4.3300058297e-05
-8.50598919872e-09
4.33039741925e-05
-1.05353010134e-08
4.33088238778e-05
-1.30495802556e-08
4.33148303669e-05
-1.61652245927e-08
4.3322270634e-05
-2.00268348393e-08
4.33314877226e-05
-2.48142973473e-08
4.33429080012e-05
-3.07515369268e-08
4.33570608137e-05
-3.81179086786e-08
4.3374603933e-05
-4.72619200311e-08
4.33963563131e-05
-5.86197098874e-08
4.34233372317e-05
-7.27386705034e-08
4.3456819051e-05
-9.0307730378e-08
4.34983917033e-05
-1.12197660851e-07
4.3550046798e-05
-1.39513967849e-07
4.36142873895e-05
-1.73669771168e-07
4.36942687762e-05
-2.1648531994e-07
4.37939893948e-05
-2.70327659283e-07
4.39185434068e-05
-3.38313523655e-07
4.4074468295e-05
-4.24610507856e-07
4.42702288269e-05
-5.349034597e-07
4.45168971862e-05
-6.77143415076e-07
4.48291183184e-05
-8.62806513035e-07
4.5226440683e-05
-1.10909397259e-06
4.57349892266e-05
-1.44289652745e-06
4.63889183241e-05
-1.90803995718e-06
4.72293453316e-05
-2.57830362667e-06
4.82938133225e-05
-3.57879148717e-06
4.95783963214e-05
-5.11329631262e-06
5.09330348775e-05
-7.47800562212e-06
-1.09663305455e-05
5.18707020613e-05
5.27606084822e-05
6.19125842621e-06
5.5740240884e-05
1.28705019149e-05
5.73124117669e-05
1.46832146569e-05
5.76111979515e-05
1.37486537727e-05
5.71338689171e-05
1.16335590336e-05
5.63199840693e-05
9.26535489591e-06
5.54496450095e-05
7.09475079766e-06
5.4663703213e-05
5.28436653381e-06
5.40144133824e-05
3.85358818948e-06
5.35068427853e-05
2.76147699832e-06
5.31248784595e-05
1.94820781573e-06
5.28455245144e-05
1.35408033488e-06
5.26458882543e-05
9.2701296309e-07
5.25060755882e-05
6.24518013177e-07
5.24099978887e-05
4.13289704392e-07
5.23452163339e-05
2.67914595619e-07
5.23024113944e-05
1.69389795044e-07
5.22747665296e-05
1.03740045664e-07
5.22573944014e-05
6.08373048007e-08
5.22468523859e-05
3.34418264261e-08
5.22407561901e-05
1.64478258466e-08
5.22374832109e-05
6.30363117693e-09
5.22359419318e-05
5.78126506042e-10
5.2235426589e-05
-2.38755712422e-09
5.2235478495e-05
-3.66944232369e-09
5.22358133389e-05
-3.9797093702e-09
5.22362606106e-05
-3.7681981931e-09
5.22367234745e-05
-3.3116423488e-09
5.22371513711e-05
-2.77309687352e-09
5.22375218312e-05
-2.24288567718e-09
5.2237828783e-05
-1.76604732069e-09
5.22380750449e-05
-1.36047235681e-09
5.22382677035e-05
-1.02863484162e-09
5.22384153256e-05
-7.6497455125e-10
5.223852641e-05
-5.60346813585e-10
5.22386086624e-05
-4.04627521434e-10
5.2238668657e-05
-2.88139311446e-10
5.22387118066e-05
-2.02341509284e-10
5.22387424135e-05
-1.40068350429e-10
5.22387637818e-05
-9.55165363873e-11
5.22387784576e-05
-6.40977389196e-11
5.22387883735e-05
-4.22660531832e-11
5.2238794971e-05
-2.73360624176e-11
5.22387992899e-05
-1.73038377245e-11
5.22388020507e-05
-1.06943639902e-11
5.22388037872e-05
-6.4210527423e-12
5.22388048511e-05
-3.72275855912e-12
5.22388054566e-05
-2.07610242621e-12
5.2238805734e-05
-1.12183816795e-12
5.22388057723e-05
-6.04823716534e-13
5.22388056956e-05
-3.35749433522e-13
5.2238805587e-05
-2.54005926286e-13
5.2238805469e-05
-3.0690573736e-13
5.22388053511e-05
-4.29975962053e-13
5.22388052295e-05
-5.69198805553e-13
5.22388051277e-05
-7.0030303651e-13
5.22388050419e-05
-8.35771627524e-13
5.22388049504e-05
-9.80330779617e-13
5.22388048422e-05
-1.11514100187e-12
5.22388047333e-05
-1.22024787364e-12
5.22388046454e-05
-1.31303063002e-12
5.22388045652e-05
-1.42014293982e-12
5.22388044735e-05
-1.530991414e-12
5.22388043806e-05
-1.61879662546e-12
5.22388043147e-05
-1.68595008337e-12
5.22388042715e-05
-1.76335484097e-12
5.223880421e-05
-1.86112179118e-12
5.22388041059e-05
-1.95785319369e-12
5.22388039796e-05
-2.04256515843e-12
5.22388038728e-05
-2.13362522431e-12
5.22388037934e-05
-2.24937684495e-12
5.22388037191e-05
-2.370383272e-12
5.22388036378e-05
-2.46528994324e-12
5.22388035652e-05
-2.53816811731e-12
5.22388035133e-05
-2.62285727683e-12
5.22388034593e-05
-2.73432674655e-12
5.2238803379e-05
-2.8558002302e-12
5.22388032862e-05
-2.97818340945e-12
5.22388032082e-05
-3.12908043534e-12
5.22388031424e-05
-3.33481179545e-12
5.22388030779e-05
-3.57240515094e-12
5.22388030323e-05
-3.79159884383e-12
5.22388030475e-05
-3.98253387259e-12
5.2238803112e-05
-4.19250271303e-12
5.22388031666e-05
-4.43867765854e-12
5.22388032365e-05
-4.6785931081e-12
5.22388033915e-05
-4.91123920367e-12
5.2238803674e-05
-5.20392077239e-12
5.22388040701e-05
-5.60068341622e-12
5.22388045535e-05
-6.07237021484e-12
5.2238805164e-05
-6.61215271563e-12
5.22388058985e-05
-7.26799851875e-12
5.22388068071e-05
-8.03444032941e-12
5.2238807958e-05
-8.92070748736e-12
5.22388093663e-05
-9.99634682053e-12
5.22388111332e-05
-1.13325995276e-11
5.22388133354e-05
-1.29691629077e-11
5.22388161207e-05
-1.49314475265e-11
5.22388196183e-05
-1.73666703158e-11
5.22388239362e-05
-2.04362153385e-11
5.22388293489e-05
-2.42863075591e-11
5.2238836052e-05
-2.90320099677e-11
5.22388443646e-05
-3.48635674392e-11
5.22388547021e-05
-4.20770694654e-11
5.22388675319e-05
-5.09584322073e-11
5.22388834884e-05
-6.18532661822e-11
5.22389032045e-05
-7.5280722394e-11
5.22389276041e-05
-9.19000076358e-11
5.2238957839e-05
-1.12528670065e-10
5.22389952373e-05
-1.38040376762e-10
5.22390415244e-05
-1.69548093565e-10
5.22390987214e-05
-2.08569604041e-10
5.22391694424e-05
-2.56939750762e-10
5.22392568752e-05
-3.16919597857e-10
5.22393649498e-05
-3.91157566771e-10
5.22394986973e-05
-4.82974452492e-10
5.22396642234e-05
-5.96654751116e-10
5.22398690203e-05
-7.37425614874e-10
5.22401223144e-05
-9.11672898696e-10
5.22404356895e-05
-1.12738961672e-09
5.2240823594e-05
-1.39448922655e-09
5.22413037635e-05
-1.72524760785e-09
5.22418981977e-05
-2.13471266538e-09
5.2242634033e-05
-2.64167872434e-09
5.22435449974e-05
-3.26965237739e-09
5.22446728161e-05
-4.04772180486e-09
5.22460689529e-05
-5.01173501786e-09
5.2247797262e-05
-6.20582943927e-09
5.2249936784e-05
-7.68479480282e-09
5.22525856979e-05
-9.51666825573e-09
5.22558653541e-05
-1.17857298241e-08
5.22599262768e-05
-1.45963346879e-08
5.22649549652e-05
-1.80782046078e-08
5.22711822551e-05
-2.2392418313e-08
5.22788945981e-05
-2.77389564774e-08
5.22884466005e-05
-3.43663362369e-08
5.23002784565e-05
-4.25835605868e-08
5.23149364139e-05
-5.2775836719e-08
5.23330980813e-05
-6.54235959041e-08
5.23556055387e-05
-8.11270176066e-08
5.23835047536e-05
-1.00637975734e-07
5.24180976651e-05
-1.24900734302e-07
5.24610059134e-05
-1.55105677806e-07
5.25142514185e-05
-1.92759370656e-07
5.25803610787e-05
-2.39779107015e-07
5.26624975206e-05
-2.98621553673e-07
5.2764630366e-05
-3.72460128055e-07
5.28917545995e-05
-4.65437225553e-07
5.30501734179e-05
-5.83029237843e-07
5.32478631846e-05
-7.3259300916e-07
5.34949260414e-05
-9.24206294682e-07
5.38041201147e-05
-1.17200050948e-06
5.41913524032e-05
-1.49632616003e-06
5.46757674615e-05