/*--------------------------------*- C++ -*----------------------------------*\
| =========                 |                                                 |
| \\      /  F ield         | OpenFOAM: The Open Source CFD Toolbox           |
|  \\    /   O peration     | Version:  2106                                  |
|   \\  /    A nd           | Website:  www.openfoam.com                      |
|    \\/     M anipulation  |                                                 |
\*---------------------------------------------------------------------------*/
FoamFile
{
    version     2.0;
    format      ascii;
    arch        "LSB;label=32;scalar=64";
    class       volVectorField;
    location    "0.4";
    object      U;
}
// * * * * * * * * * * * * * * * * * * * * * * * * * * * * * * * * * * * * * //

dimensions      [0 1 -1 0 0 0 0];

internalField   nonuniform List<vector> 
9600
(
(0.675396172606 0.157677443132 0)
(0.563826157526 0.102430809485 0)
(0.381538940899 0.0510646904925 0)
(0.283853190748 0.0244589864545 0)
(0.232281026491 0.0119348233527 0)
(0.201907708092 0.00623035926789 0)
(0.183178410786 0.00352192532312 0)
(0.171271989272 0.00212007450293 0)
(0.163512242732 0.0013252363176 0)
(0.158392665633 0.000841456427277 0)
(0.15501070502 0.000534135273525 0)
(0.152789985595 0.000335040025285 0)
(0.151348697649 0.00020552171408 0)
(0.150429250196 0.000121792148704 0)
(0.149856461093 6.84340027766e-05 0)
(0.149511123135 3.5173162603e-05 0)
(0.149312513105 1.50863159012e-05 0)
(0.149206462883 3.50339589386e-06 0)
(0.149157082845 -2.70732315141e-06 0)
(0.149140973811 -5.61177565235e-06 0)
(0.14914325799 -6.52722312142e-06 0)
(0.149154655511 -6.41773442687e-06 0)
(0.149169595927 -5.78186772577e-06 0)
(0.149184968472 -4.92835234041e-06 0)
(0.149199138285 -4.04268068739e-06 0)
(0.149211385262 -3.22361530399e-06 0)
(0.149221522465 -2.51509652633e-06 0)
(0.149229649898 -1.92864005735e-06 0)
(0.1492360045 -1.45849664869e-06 0)
(0.149240871195 -1.09140529857e-06 0)
(0.149244532436 -8.11406162413e-07 0)
(0.149247242226 -6.01845879705e-07 0)
(0.149249217351 -4.47531027415e-07 0)
(0.149250636337 -3.35695271372e-07 0)
(0.149251641543 -2.55897203869e-07 0)
(0.14925234369 -1.99630256817e-07 0)
(0.149252826974 -1.59869297595e-07 0)
(0.149253154565 -1.31268211086e-07 0)
(0.149253372903 -1.10141346874e-07 0)
(0.149253515477 -9.41365981742e-08 0)
(0.149253606416 -8.19065854781e-08 0)
(0.149253662837 -7.31826785023e-08 0)
(0.149253696023 -6.9463500816e-08 0)
(0.149253713364 -7.02694530609e-08 0)
(0.149253720774 -7.33922180462e-08 0)
(0.149253722465 -7.80552932553e-08 0)
(0.149253720633 -8.42162289752e-08 0)
(0.149253717061 -9.1710659766e-08 0)
(0.149253713146 -1.00043829695e-07 0)
(0.149253709351 -1.09015110101e-07 0)
(0.149253705601 -1.18411060061e-07 0)
(0.149253701761 -1.28089142505e-07 0)
(0.149253698257 -1.38283196772e-07 0)
(0.149253695294 -1.49283993094e-07 0)
(0.149253692339 -1.61140015632e-07 0)
(0.149253688983 -1.73641002353e-07 0)
(0.149253685265 -1.86706759254e-07 0)
(0.149253681678 -2.00588668704e-07 0)
(0.149253678295 -2.15639942394e-07 0)
(0.149253674481 -2.31857102904e-07 0)
(0.149253669959 -2.49089093952e-07 0)
(0.149253665228 -2.6739351471e-07 0)
(0.149253660894 -2.87028458547e-07 0)
(0.149253656766 -3.08057174139e-07 0)
(0.149253652324 -3.30221554425e-07 0)
(0.149253647696 -3.53458473485e-07 0)
(0.149253643307 -3.78073761592e-07 0)
(0.149253638921 -4.04305340218e-07 0)
(0.149253633802 -4.32090445035e-07 0)
(0.149253627725 -4.613615475e-07 0)
(0.149253621261 -4.92258304256e-07 0)
(0.149253615109 -5.25003603241e-07 0)
(0.149253609354 -5.59715746296e-07 0)
(0.149253603581 -5.9634257329e-07 0)
(0.149253597558 -6.34792424648e-07 0)
(0.149253591498 -6.75164009832e-07 0)
(0.149253585567 -7.17733865094e-07 0)
(0.149253579357 -7.62561019517e-07 0)
(0.149253572318 -8.09421921868e-07 0)
(0.149253564716 -8.58425959787e-07 0)
(0.149253557397 -9.10150820246e-07 0)
(0.149253550457 -9.64777313249e-07 0)
(0.149253543167 -1.02181032551e-06 0)
(0.149253535306 -1.08093644546e-06 0)
(0.149253527619 -1.14264865242e-06 0)
(0.149253520438 -1.20755076795e-06 0)
(0.14925351309 -1.27544847646e-06 0)
(0.149253505844 -1.34587816391e-06 0)
(0.149253500151 -1.41876089561e-06 0)
(0.149253496529 -1.4943940401e-06 0)
(0.149253493824 -1.57308503436e-06 0)
(0.14925349057 -1.65487493703e-06 0)
(0.149253486854 -1.73991638461e-06 0)
(0.149253483493 -1.82804964047e-06 0)
(0.14925348157 -1.91897670424e-06 0)
(0.149253482313 -2.01270758051e-06 0)
(0.149253485447 -2.10918242118e-06 0)
(0.149253490699 -2.20846790831e-06 0)
(0.14925349868 -2.31021387811e-06 0)
(0.149253510767 -2.41401959738e-06 0)
(0.149253528133 -2.5197453366e-06 0)
(0.149253550518 -2.62691384987e-06 0)
(0.149253578999 -2.73584155332e-06 0)
(0.149253615359 -2.84683648949e-06 0)
(0.149253661345 -2.95997692653e-06 0)
(0.149253719632 -3.07530474387e-06 0)
(0.149253793073 -3.19289719871e-06 0)
(0.149253885384 -3.31307435463e-06 0)
(0.14925400056 -3.43617085859e-06 0)
(0.149254143753 -3.56495361124e-06 0)
(0.149254322068 -3.70607017147e-06 0)
(0.149254544676 -3.86435734382e-06 0)
(0.149254822558 -4.03421617163e-06 0)
(0.149255167934 -4.21348159269e-06 0)
(0.149255596194 -4.40268437509e-06 0)
(0.149256126807 -4.60282496897e-06 0)
(0.149256783717 -4.81428151522e-06 0)
(0.1492575975 -5.03852472753e-06 0)
(0.149258605434 -5.27759561936e-06 0)
(0.149259852703 -5.53314207792e-06 0)
(0.149261395924 -5.80692306137e-06 0)
(0.149263305717 -6.10196323296e-06 0)
(0.14926567029 -6.42399998577e-06 0)
(0.149268608607 -6.78791912477e-06 0)
(0.149272290468 -7.2498858925e-06 0)
(0.149276849132 -7.93783351131e-06 0)
(0.149282448204 -8.79402486301e-06 0)
(0.149289363725 -9.77685643938e-06 0)
(0.149297925693 -1.08805723554e-05 0)
(0.149308531281 -1.21170470356e-05 0)
(0.149321666242 -1.35059291729e-05 0)
(0.149337932385 -1.50728039362e-05 0)
(0.149358077698 -1.68489759997e-05 0)
(0.14938303142 -1.88734592399e-05 0)
(0.149413945808 -2.11959352057e-05 0)
(0.149452246191 -2.38777817593e-05 0)
(0.149499707116 -2.69981927803e-05 0)
(0.149558534704 -3.06565891966e-05 0)
(0.149631471806 -3.4979158095e-05 0)
(0.149721937216 -4.01264829522e-05 0)
(0.14983419327 -4.62999673103e-05 0)
(0.149973571551 -5.37591383653e-05 0)
(0.150146748271 -6.28338698452e-05 0)
(0.15036210971 -7.39457829336e-05 0)
(0.150630234675 -8.7638607709e-05 0)
(0.150964514173 -0.000104614316339 0)
(0.15138199972 -0.000125791708654 0)
(0.151904540465 -0.000152372497791 0)
(0.152560369374 -0.000185941165627 0)
(0.153386351772 -0.000228606223303 0)
(0.154431256054 -0.00028320781058 0)
(0.155760832312 -0.000353732889014 0)
(0.157466434836 -0.000446485497752 0)
(0.159682503696 -0.000574414745767 0)
(0.162628470101 -0.000773780933071 0)
(0.166714645114 -0.00116535983097 0)
(0.172872116643 -0.00217719962579 0)
(0.183889229015 -0.00539958731092 0)
(0.208165568812 -0.01683633255 0)
(0.261638929201 -0.0585579515083 0)
(0.977201159778 0.296997127389 0)
(0.962687452503 0.250387278419 0)
(0.820646037344 0.15858100971 0)
(0.697824900349 0.0957993419031 0)
(0.610491667731 0.0579132750985 0)
(0.549133312632 0.0359038540582 0)
(0.506705988431 0.0229309353237 0)
(0.477662025732 0.0149788772825 0)
(0.457815303584 0.00990973308217 0)
(0.444277682085 0.0065833103916 0)
(0.435087235741 0.00436198680641 0)
(0.428895563993 0.00286682757256 0)
(0.424768044308 0.00185972181903 0)
(0.422054234505 0.00118457244589 0)
(0.420301050975 0.000736110278419 0)
(0.419193676269 0.000442158530815 0)
(0.418514606527 0.000252858875474 0)
(0.418114830508 0.000133738136058 0)
(0.417893373045 6.10514255649e-05 0)
(0.417782731019 1.85770070002e-05 0)
(0.41773847364 -4.63446538845e-06 0)
(0.417731936331 -1.60095141906e-05 0)
(0.417745152488 -2.03056178738e-05 0)
(0.41776717606 -2.06090198976e-05 0)
(0.41779162419 -1.88559120526e-05 0)
(0.417815036271 -1.62210820842e-05 0)
(0.41783575423 -1.33836574379e-05 0)
(0.41785318608 -1.07064753127e-05 0)
(0.417867335109 -8.35804026865e-06 0)
(0.417878507072 -6.39370126485e-06 0)
(0.417887133657 -4.8068195502e-06 0)
(0.417893669246 -3.55874019648e-06 0)
(0.417898537432 -2.59794269927e-06 0)
(0.417902107814 -1.87156597485e-06 0)
(0.417904688781 -1.33109739724e-06 0)
(0.417906529114 -9.34749775439e-07 0)
(0.417907823507 -6.47600254893e-07 0)
(0.41790872104 -4.41746158649e-07 0)
(0.417909333768 -2.95707122898e-07 0)
(0.417909744539 -1.93446426473e-07 0)
(0.417910013952 -1.23352379854e-07 0)
(0.417910184939 -7.7022456953e-08 0)
(0.41791028855 -4.88515992508e-08 0)
(0.417910348345 -3.34528786621e-08 0)
(0.417910380274 -2.57866992648e-08 0)
(0.417910394117 -2.27125065595e-08 0)
(0.417910396422 -2.12626744678e-08 0)
(0.417910392498 -1.96784759934e-08 0)
(0.41791038578 -1.86324895731e-08 0)
(0.417910377802 -1.8984769308e-08 0)
(0.417910369269 -2.03392042149e-08 0)
(0.417910360126 -2.19504496472e-08 0)
(0.417910350668 -2.3611840105e-08 0)
(0.417910341377 -2.56247080051e-08 0)
(0.417910332192 -2.81402365719e-08 0)
(0.417910322821 -3.08487320743e-08 0)
(0.417910312932 -3.33178763726e-08 0)
(0.417910302629 -3.56824033091e-08 0)
(0.417910292144 -3.85340121789e-08 0)
(0.41791028124 -4.18776576794e-08 0)
(0.417910269543 -4.52327218481e-08 0)
(0.417910257134 -4.82972687196e-08 0)
(0.417910244574 -5.14302979509e-08 0)
(0.417910232102 -5.49611359514e-08 0)
(0.417910219304 -5.85915131168e-08 0)
(0.417910205827 -6.19945564777e-08 0)
(0.417910191828 -6.53965538425e-08 0)
(0.417910177379 -6.92909998148e-08 0)
(0.417910162038 -7.37376664134e-08 0)
(0.417910145436 -7.84009848419e-08 0)
(0.417910127861 -8.30219672036e-08 0)
(0.417910109968 -8.77371685463e-08 0)
(0.417910092039 -9.28411910399e-08 0)
(0.417910073823 -9.83100807791e-08 0)
(0.417910054987 -1.03788788492e-07 0)
(0.417910035512 -1.09191950189e-07 0)
(0.417910015656 -1.14995807183e-07 0)
(0.417909995423 -1.21516823309e-07 0)
(0.417909974202 -1.28336432637e-07 0)
(0.417909951553 -1.35102192943e-07 0)
(0.417909928175 -1.42356562692e-07 0)
(0.417909905026 -1.50601619905e-07 0)
(0.417909881936 -1.59291073442e-07 0)
(0.417909858058 -1.67609549907e-07 0)
(0.417909833451 -1.75916206563e-07 0)
(0.417909809072 -1.85291681592e-07 0)
(0.417909785237 -1.95658438606e-07 0)
(0.41790976214 -2.06108338066e-07 0)
(0.417909740597 -2.16356558073e-07 0)
(0.41790972093 -2.2697812746e-07 0)
(0.417909702392 -2.38652366689e-07 0)
(0.417909683864 -2.51348353502e-07 0)
(0.417909665934 -2.6511607679e-07 0)
(0.4179096502 -2.79715504344e-07 0)
(0.417909637947 -2.94710844262e-07 0)
(0.417909630509 -3.10691140584e-07 0)
(0.417909628082 -3.28232666419e-07 0)
(0.417909631321 -3.47773046615e-07 0)
(0.417909641982 -3.69365512196e-07 0)
(0.417909662381 -3.94103276754e-07 0)
(0.417909695413 -4.2416976309e-07 0)
(0.417909742227 -4.58347315781e-07 0)
(0.417909805133 -4.96684625646e-07 0)
(0.417909888423 -5.39934783366e-07 0)
(0.417909997049 -5.88583321466e-07 0)
(0.417910137503 -6.43321128616e-07 0)
(0.417910317199 -7.04611751396e-07 0)
(0.417910545504 -7.73360892546e-07 0)
(0.4179108314 -8.49546399293e-07 0)
(0.417911183196 -9.31836242246e-07 0)
(0.417911616878 -1.01565290304e-06 0)
(0.417912165989 -1.09649177914e-06 0)
(0.417912863979 -1.18515717871e-06 0)
(0.417913738565 -1.2886946761e-06 0)
(0.417914828117 -1.4127634056e-06 0)
(0.417916183753 -1.56356531263e-06 0)
(0.417917867784 -1.74720038551e-06 0)
(0.417919957531 -1.9724327915e-06 0)
(0.417922549797 -2.25132976731e-06 0)
(0.417925763856 -2.59789282542e-06 0)
(0.417929746772 -3.02873372598e-06 0)
(0.417934679971 -3.56538142082e-06 0)
(0.417940786472 -4.23542470552e-06 0)
(0.417948332062 -5.07792773655e-06 0)
(0.41795763259 -6.16976192769e-06 0)
(0.417969155223 -7.656690285e-06 0)
(0.417983495323 -9.5662647736e-06 0)
(0.41800130443 -1.19504001888e-05 0)
(0.418023389671 -1.49031391212e-05 0)
(0.418050762973 -1.85550129514e-05 0)
(0.418084680664 -2.30705842718e-05 0)
(0.41812670253 -2.86535687431e-05 0)
(0.418178764208 -3.55541307245e-05 0)
(0.418243266076 -4.40819411852e-05 0)
(0.418323186592 -5.46239233932e-05 0)
(0.418422216699 -6.76571131874e-05 0)
(0.418544943352 -8.37768878663e-05 0)
(0.418697068555 -0.000103726317122 0)
(0.418885683194 -0.000128433832334 0)
(0.419119623749 -0.000159065754723 0)
(0.419409907645 -0.000197085133531 0)
(0.419770306959 -0.000244344928906 0)
(0.420218073186 -0.000303197373378 0)
(0.420774874801 -0.000376643451044 0)
(0.421468037934 -0.000468545966148 0)
(0.422332165658 -0.000583912865391 0)
(0.423411342376 -0.000729319792357 0)
(0.42476214358 -0.00091350518688 0)
(0.426457871301 -0.00114828236334 0)
(0.428594723794 -0.00145000825419 0)
(0.431301123807 -0.00184208086776 0)
(0.434752672967 -0.00235968920318 0)
(0.439197628858 -0.00305992677213 0)
(0.445004010902 -0.00404625498724 0)
(0.45275287721 -0.00553358634695 0)
(0.46341698042 -0.0080277375798 0)
(0.478698083797 -0.0128221258774 0)
(0.501887323004 -0.0234270849617 0)
(0.539369556255 -0.0496050177535 0)
(0.595141526752 -0.114732775564 0)
(1.03387038069 0.239240955168 0)
(1.08314080835 0.293634384959 0)
(1.03294437533 0.239131936994 0)
(0.954408210823 0.174539015913 0)
(0.880112587177 0.121551459654 0)
(0.818677613388 0.0832335950822 0)
(0.771466791987 0.0568258136175 0)
(0.736691576087 0.0388125716679 0)
(0.711672102691 0.026491318569 0)
(0.693953130742 0.018023578442 0)
(0.681568206518 0.0121876205135 0)
(0.673018605185 0.00816650344021 0)
(0.66719223394 0.00540556646289 0)
(0.66327774988 0.00352226261541 0)
(0.660690310312 0.00224961103625 0)
(0.659012734029 0.0014000270861 0)
(0.657950525599 0.000841455260169 0)
(0.657298071598 0.000481123093352 0)
(0.656913528302 0.000254194827951 0)
(0.656700338414 0.000115711912703 0)
(0.656593731046 3.4797979588e-05 0)
(0.656551017383 -9.46293186034e-06 0)
(0.656544673682 -3.10066866306e-05 0)
(0.656557370743 -3.90710947275e-05 0)
(0.656578552745 -3.95445048738e-05 0)
(0.656602074094 -3.61172553489e-05 0)
(0.656624602122 -3.10278126575e-05 0)
(0.656644539261 -2.55666762709e-05 0)
(0.656661314443 -2.04223075258e-05 0)
(0.656674930093 -1.59141794511e-05 0)
(0.656685680644 -1.21462203569e-05 0)
(0.656693981061 -9.10325299367e-06 0)
(0.656700268567 -6.7101404757e-06 0)
(0.656704951423 -4.86807310375e-06 0)
(0.656708385616 -3.47571002814e-06 0)
(0.656710868061 -2.44047462542e-06 0)
(0.656712637546 -1.6827175917e-06 0)
(0.656713880958 -1.13654586687e-06 0)
(0.656714741541 -7.49005850719e-07 0)
(0.656715327017 -4.78520545647e-07 0)
(0.65671571784 -2.93502050255e-07 0)
(0.656715973105 -1.70044308498e-07 0)
(0.656716135259 -8.93126403406e-08 0)
(0.656716234471 -3.75911838184e-08 0)
(0.656716291997 -5.70244589946e-09 0)
(0.656716323261 1.28560110932e-08 0)
(0.656716338257 2.34389576568e-08 0)
(0.65671634182 2.99611585997e-08 0)
(0.656716337155 3.4212477138e-08 0)
(0.656716328172 3.75992883166e-08 0)
(0.656716317751 4.01828108865e-08 0)
(0.656716306625 4.2599436201e-08 0)
(0.65671629498 4.55124618997e-08 0)
(0.65671628307 4.89202516562e-08 0)
(0.656716271027 5.24809911203e-08 0)
(0.65671625896 5.60625527509e-08 0)
(0.656716246571 6.00827589956e-08 0)
(0.65671623354 6.48328321286e-08 0)
(0.656716220006 6.99279118161e-08 0)
(0.656716206132 7.49272230022e-08 0)
(0.656716191808 8.00796416859e-08 0)
(0.656716176769 8.59909751152e-08 0)
(0.656716161079 9.26343144179e-08 0)
(0.656716145076 9.94710703835e-08 0)
(0.656716128739 1.0644447845e-07 0)
(0.656716111744 1.141577873e-07 0)
(0.656716093853 1.22874881161e-07 0)
(0.656716074974 1.32154513653e-07 0)
(0.656716055048 1.41539597111e-07 0)
(0.656716034115 1.51250449313e-07 0)
(0.656716012336 1.61900165359e-07 0)
(0.65671598989 1.73643031733e-07 0)
(0.656715966921 1.86061164354e-07 0)
(0.656715943524 1.98895508636e-07 0)
(0.656715919571 2.12399050065e-07 0)
(0.656715894699 2.26924514875e-07 0)
(0.656715868831 2.42369622305e-07 0)
(0.656715842294 2.58252507138e-07 0)
(0.656715815029 2.74485969208e-07 0)
(0.656715786449 2.91698275821e-07 0)
(0.656715756649 3.10215053599e-07 0)
(0.656715726612 3.29471652278e-07 0)
(0.656715696823 3.49070134525e-07 0)
(0.656715666588 3.69672117476e-07 0)
(0.656715635309 3.9196283841e-07 0)
(0.656715603744 4.15441127458e-07 0)
(0.656715572927 4.3965020717e-07 0)
(0.656715543409 4.65113337341e-07 0)
(0.656715515543 4.921427187e-07 0)
(0.656715489248 5.20266814602e-07 0)
(0.656715464167 5.48835112727e-07 0)
(0.656715439768 5.78102174883e-07 0)
(0.656715416857 6.08597929471e-07 0)
(0.656715397278 6.40507980402e-07 0)
(0.656715382095 6.74088864787e-07 0)
(0.656715372351 7.08451409064e-07 0)
(0.656715368765 7.42634994058e-07 0)
(0.656715372702 7.76625010348e-07 0)
(0.656715385647 8.11230041158e-07 0)
(0.656715409107 8.47932864624e-07 0)
(0.656715448898 8.86746850147e-07 0)
(0.656715509566 9.24999903526e-07 0)
(0.65671559401 9.61596364744e-07 0)
(0.656715707744 9.95212830677e-07 0)
(0.656715857846 1.02455097715e-06 0)
(0.656716053719 1.04753431206e-06 0)
(0.656716306284 1.06234307876e-06 0)
(0.656716629689 1.06599625342e-06 0)
(0.656717041854 1.05478077041e-06 0)
(0.656717566204 1.02688718864e-06 0)
(0.656718231198 9.8367767506e-07 0)
(0.656719058867 9.25448436253e-07 0)
(0.656720080407 8.36351059339e-07 0)
(0.656721347751 7.02627334802e-07 0)
(0.656722921521 5.10288204803e-07 0)
(0.656724875983 2.41976619231e-07 0)
(0.656727300965 -1.22376337193e-07 0)
(0.656730306436 -6.07393695849e-07 0)
(0.656734029839 -1.2453577284e-06 0)
(0.656738641986 -2.07666163475e-06 0)
(0.656744353795 -3.1510293881e-06 0)
(0.656751426878 -4.52934258706e-06 0)
(0.656760187546 -6.2875099867e-06 0)
(0.656771039025 -8.5201285899e-06 0)
(0.656784472572 -1.13365925791e-05 0)
(0.656801100189 -1.48552247379e-05 0)
(0.656821686278 -1.92839985231e-05 0)
(0.656847173829 -2.48683454656e-05 0)
(0.656878734198 -3.18997489577e-05 0)
(0.656917818773 -4.07377125012e-05 0)
(0.65696622255 -5.18276127281e-05 0)
(0.657026170724 -6.57212948981e-05 0)
(0.657100422849 -8.31020723964e-05 0)
(0.657192397812 -0.000104816890305 0)
(0.65730633834 -0.000131921476862 0)
(0.657447505297 -0.000165725314069 0)
(0.657622431124 -0.000207857414691 0)
(0.657839233158 -0.000260350168672 0)
(0.658108001463 -0.000325738990885 0)
(0.658441301291 -0.000407202566849 0)
(0.658854789037 -0.000508732189272 0)
(0.659368011936 -0.000635362835542 0)
(0.660005427907 -0.000793478662717 0)
(0.660797711187 -0.000991214261962 0)
(0.66178347001 -0.00123902081088 0)
(0.663011483453 -0.00155043897636 0)
(0.664543716397 -0.00194321696078 0)
(0.666459415702 -0.00244095236495 0)
(0.668860798245 -0.0030755967845 0)
(0.67188121678 -0.00389149599378 0)
(0.67569721931 -0.00495223534727 0)
(0.680547103176 -0.00635313025728 0)
(0.686760398787 -0.00824567890846 0)
(0.694806197467 -0.0108886647149 0)
(0.705373272196 -0.0147607659769 0)
(0.719488045378 -0.020813467114 0)
(0.738632250647 -0.0310176049757 0)
(0.764813520158 -0.0494720324761 0)
(0.800095436115 -0.0844684638971 0)
(0.840734404028 -0.149807943662 0)
(1.03384128196 0.171306937958 0)
(1.10231584603 0.275556743589 0)
(1.1166362058 0.266312375547 0)
(1.09207924724 0.219892603652 0)
(1.05195420247 0.168210312643 0)
(1.01022221441 0.123615335807 0)
(0.97350771691 0.088885061955 0)
(0.943885949982 0.063049461936 0)
(0.921162803885 0.0442607983974 0)
(0.904299827237 0.0307744370806 0)
(0.892086142287 0.0211830171219 0)
(0.883411242289 0.0144172993422 0)
(0.877355069782 0.0096854431132 0)
(0.87319622209 0.0064075881827 0)
(0.87038806946 0.00416172359649 0)
(0.868526263083 0.00264232140003 0)
(0.867317305741 0.00162947674399 0)
(0.866551592784 0.000966024801265 0)
(0.866081666708 0.000540573001561 0)
(0.865805310662 0.000274927169829 0)
(0.865652737057 0.000114791670646 0)
(0.86557710471 2.2956198886e-05 0)
(0.86554749087 -2.57249775598e-05 0)
(0.865543951813 -4.8045611354e-05 0)
(0.865553998164 -5.49265974795e-05 0)
(0.865569999926 -5.3328507508e-05 0)
(0.865587535838 -4.75752070023e-05 0)
(0.865604225073 -4.02474793964e-05 0)
(0.865618938608 -3.28001402902e-05 0)
(0.865631285471 -2.59818055966e-05 0)
(0.865641286407 -2.01142457131e-05 0)
(0.865649169637 -1.52733058479e-05 0)
(0.865655247387 -1.14024669241e-05 0)
(0.865659845449 -8.38284996255e-06 0)
(0.865663266014 -6.07473520112e-06 0)
(0.865665771724 -4.34143583025e-06 0)
(0.865667580677 -3.06075063639e-06 0)
(0.86566886804 -2.12881317163e-06 0)
(0.86566977091 -1.46053590576e-06 0)
(0.865670393941 -9.87924426654e-07 0)
(0.865670816105 -6.58499668876e-07 0)
(0.865671096359 -4.32795653118e-07 0)
(0.865671277835 -2.81268831961e-07 0)
(0.865671391475 -1.81824569491e-07 0)
(0.865671459024 -1.18017602117e-07 0)
(0.865671496129 -7.82660801907e-08 0)
(0.865671513817 -5.51057889869e-08 0)
(0.86567151926 -4.29404259068e-08 0)
(0.865671517309 -3.69669450025e-08 0)
(0.865671510504 -3.41184978822e-08 0)
(0.865671500531 -3.39389724278e-08 0)
(0.865671488892 -3.60666530756e-08 0)
(0.865671476065 -3.95618969297e-08 0)
(0.86567146222 -4.38630010369e-08 0)
(0.865671447466 -4.86472765982e-08 0)
(0.865671432257 -5.39325643516e-08 0)
(0.86567141667 -5.95889663303e-08 0)
(0.865671400238 -6.5236340223e-08 0)
(0.865671382636 -7.08006150951e-08 0)
(0.865671364112 -7.65765992343e-08 0)
(0.865671345089 -8.27226154378e-08 0)
(0.865671325389 -8.89983172679e-08 0)
(0.86567130467 -9.5178485197e-08 0)
(0.865671283175 -1.01560505701e-07 0)
(0.865671261371 -1.08511771696e-07 0)
(0.865671239098 -1.15848395483e-07 0)
(0.865671215677 -1.23219315021e-07 0)
(0.865671190639 -1.30723620302e-07 0)
(0.865671164053 -1.38763869059e-07 0)
(0.865671136361 -1.47459363807e-07 0)
(0.865671107794 -1.56485844542e-07 0)
(0.865671078179 -1.65552142225e-07 0)
(0.865671047429 -1.74787251574e-07 0)
(0.865671015809 -1.84539951318e-07 0)
(0.865670983509 -1.94982998034e-07 0)
(0.865670950256 -2.05955457727e-07 0)
(0.865670915653 -2.17367464156e-07 0)
(0.86567087973 -2.29575739286e-07 0)
(0.86567084275 -2.42996934475e-07 0)
(0.865670804574 -2.57382337414e-07 0)
(0.86567076497 -2.7215980625e-07 0)
(0.865670724384 -2.87425864677e-07 0)
(0.865670683661 -3.03735052109e-07 0)
(0.865670642859 -3.21038084303e-07 0)
(0.865670601213 -3.38676003611e-07 0)
(0.865670558888 -3.56724885069e-07 0)
(0.865670517092 -3.75919106537e-07 0)
(0.865670476704 -3.96509870923e-07 0)
(0.865670437863 -4.18551266091e-07 0)
(0.86567040032 -4.42404836491e-07 0)
(0.86567036416 -4.68640243309e-07 0)
(0.865670329472 -4.97207969401e-07 0)
(0.865670297124 -5.27682917719e-07 0)
(0.865670268921 -5.60506418961e-07 0)
(0.865670245766 -5.96350890339e-07 0)
(0.865670228561 -6.36308400583e-07 0)
(0.865670218841 -6.81234212545e-07 0)
(0.865670219517 -7.31321475881e-07 0)
(0.865670234564 -7.86956999658e-07 0)
(0.865670267006 -8.47467152724e-07 0)
(0.865670318424 -9.12752924205e-07 0)
(0.86567039123 -9.86133583122e-07 0)
(0.865670491296 -1.06952217264e-06 0)
(0.865670625804 -1.16508534496e-06 0)
(0.865670802991 -1.27490048777e-06 0)
(0.865671033837 -1.40215049596e-06 0)
(0.865671330921 -1.55074615497e-06 0)
(0.865671709299 -1.72645473724e-06 0)
(0.86567218782 -1.93731790461e-06 0)
(0.865672789731 -2.19288414432e-06 0)
(0.865673546054 -2.50859855381e-06 0)
(0.865674493687 -2.90266277995e-06 0)
(0.865675676941 -3.38562549233e-06 0)
(0.865677151188 -3.97549303407e-06 0)
(0.865678984093 -4.69679584785e-06 0)
(0.865681261656 -5.58160590891e-06 0)
(0.865684089592 -6.66906989273e-06 0)
(0.865687596458 -8.00606552617e-06 0)
(0.865691942057 -9.65115625117e-06 0)
(0.865697325466 -1.16784170439e-05 0)
(0.865703993739 -1.41797491638e-05 0)
(0.865712252815 -1.72669240131e-05 0)
(0.865722481943 -2.10805835728e-05 0)
(0.865735151135 -2.57995879196e-05 0)
(0.86575083997 -3.16494458345e-05 0)
(0.865770265605 -3.89006421672e-05 0)
(0.865794316754 -4.78844161305e-05 0)
(0.865824093032 -5.90063707412e-05 0)
(0.865860957602 -7.27722713168e-05 0)
(0.865906600728 -8.98141802844e-05 0)
(0.865963114808 -0.000110918137544 0)
(0.866033093617 -0.000137059798378 0)
(0.866119753535 -0.000169453007042 0)
(0.866227077278 -0.000209604043127 0)
(0.86636000491 -0.000259386946046 0)
(0.866524661803 -0.000321133164249 0)
(0.866728649209 -0.00039774565076 0)
(0.866981407907 -0.000492847094741 0)
(0.867294662831 -0.000610958402312 0)
(0.86768299775 -0.000757742336582 0)
(0.868164563181 -0.000940310407513 0)
(0.86876198109 -0.00116762193047 0)
(0.869503498621 -0.00145101724156 0)
(0.87042444839 -0.00180491862733 0)
(0.871569151119 -0.00224780398677 0)
(0.872993369706 -0.0028035407973 0)
(0.874767553587 -0.00350327948442 0)
(0.876981166063 -0.00438822734993 0)
(0.879748525288 -0.00551381863317 0)
(0.883216883928 -0.0069562845123 0)
(0.887577735473 -0.00882343714417 0)
(0.893082863488 -0.0112733410887 0)
(0.900067005936 -0.0145482412547 0)
(0.908978641835 -0.0190386179362 0)
(0.920416914068 -0.0254070798755 0)
(0.935153425276 -0.0348266450057 0)
(0.954055317626 -0.0494054058723 0)
(0.97774689853 -0.0728113328957 0)
(1.00557649211 -0.110849292745 0)
(1.03174826631 -0.170230227737 0)
(1.02388346058 0.119321979912 0)
(1.08875436578 0.231514417389 0)
(1.13660483176 0.252868939926 0)
(1.15406272595 0.228905050032 0)
(1.15000112847 0.188337383742 0)
(1.13537623973 0.146577290247 0)
(1.1175777755 0.110164822768 0)
(1.10059199848 0.0808376077992 0)
(1.08612241595 0.0582502010071 0)
(1.07458762156 0.0413417878384 0)
(1.06578680003 0.0289362853003 0)
(1.05928157112 0.0199770207712 0)
(1.05459133082 0.0135949301594 0)
(1.05128027099 0.00910742742134 0)
(1.04898736332 0.00599313247936 0)
(1.0474290531 0.00386144056232 0)
(1.04639046015 0.00242413593747 0)
(1.0457129927 0.00147134790327 0)
(1.04528206205 0.000852136450832 0)
(1.045016381 0.00045926408764 0)
(1.04485925903 0.000217490409233 0)
(1.04477182984 7.47183724792e-05 0)
(1.04472784814 -4.64587087521e-06 0)
(1.0447099808 -4.4445633237e-05 0)
(1.04470705338 -6.05361267265e-05 0)
(1.04471197518 -6.30937661828e-05 0)
(1.04472041469 -5.85441877465e-05 0)
(1.04472985567 -5.0810777129e-05 0)
(1.0447389305 -4.21789826831e-05 0)
(1.04474697803 -3.38914192361e-05 0)
(1.04475375746 -2.65464871915e-05 0)
(1.04475926428 -2.0360569307e-05 0)
(1.04476361453 -1.53361737539e-05 0)
(1.0447669747 -1.13670129704e-05 0)
(1.04476952074 -8.30101050231e-06 0)
(1.04477141718 -5.97714315853e-06 0)
(1.04477280772 -4.24500141829e-06 0)
(1.04477381216 -2.97350700907e-06 0)
(1.0447745271 -2.05357537919e-06 0)
(1.0447750279 -1.39719476594e-06 0)
(1.04477537233 -9.35327984515e-07 0)
(1.04477560449 -6.15063805252e-07 0)
(1.04477575748 -3.96436130345e-07 0)
(1.04477585561 -2.49523805752e-07 0)
(1.04477591608 -1.51990925433e-07 0)
(1.04477595108 -8.77324562216e-08 0)
(1.04477596922 -4.59853900738e-08 0)
(1.0447759759 -1.95635563997e-08 0)
(1.04477597447 -3.6036438557e-09 0)
(1.04477596701 5.16446125664e-09 0)
(1.04477595548 9.68128095285e-09 0)
(1.0447759419 1.14849187067e-08 0)
(1.04477592728 1.18734819111e-08 0)
(1.04477591188 1.15332072577e-08 0)
(1.04477589571 1.10751512853e-08 0)
(1.04477587893 1.06414974892e-08 0)
(1.04477586168 1.00474152423e-08 0)
(1.04477584366 9.41977759209e-09 0)
(1.04477582452 9.09680131447e-09 0)
(1.04477580429 9.3376350249e-09 0)
(1.04477578329 9.91224298551e-09 0)
(1.04477576156 1.06108465223e-08 0)
(1.04477573877 1.16662039459e-08 0)
(1.04477571479 1.32669576924e-08 0)
(1.04477568997 1.51626477038e-08 0)
(1.0447756645 1.69813726588e-08 0)
(1.04477563789 1.87977047854e-08 0)
(1.04477560951 2.08445174627e-08 0)
(1.04477557928 2.31380923134e-08 0)
(1.04477554778 2.54554281418e-08 0)
(1.04477551548 2.77421990962e-08 0)
(1.04477548222 3.03407410315e-08 0)
(1.04477544762 3.35772057545e-08 0)
(1.0447754117 3.73270055278e-08 0)
(1.04477537473 4.12063817288e-08 0)
(1.04477533659 4.50912923754e-08 0)
(1.04477529679 4.91304298085e-08 0)
(1.04477525523 5.33203099334e-08 0)
(1.04477521234 5.73006114512e-08 0)
(1.04477516835 6.0868175128e-08 0)
(1.04477512308 6.44320543555e-08 0)
(1.04477507667 6.85371794734e-08 0)
(1.04477502973 7.31574082324e-08 0)
(1.04477498254 7.78555168809e-08 0)
(1.04477493444 8.27835155932e-08 0)
(1.04477488518 8.837462538e-08 0)
(1.0447748357 9.42716055925e-08 0)
(1.04477478712 9.97223810511e-08 0)
(1.04477473979 1.04370109045e-07 0)
(1.04477469338 1.08314386893e-07 0)
(1.04477464808 1.11399035036e-07 0)
(1.04477460433 1.13392870846e-07 0)
(1.0447745627 1.14658624213e-07 0)
(1.04477452441 1.14700172338e-07 0)
(1.04477449034 1.12290586476e-07 0)
(1.04477446179 1.06282742183e-07 0)
(1.04477444057 9.59289033891e-08 0)
(1.04477442902 8.06156294487e-08 0)
(1.04477443008 5.7913100708e-08 0)
(1.04477444646 2.47899565472e-08 0)
(1.04477448183 -2.19787863079e-08 0)
(1.04477454071 -8.39311406855e-08 0)
(1.04477462862 -1.63690067264e-07 0)
(1.04477475301 -2.6539877592e-07 0)
(1.04477492272 -3.93052497237e-07 0)
(1.0447751489 -5.51712092502e-07 0)
(1.04477544424 -7.48538155561e-07 0)
(1.04477582425 -9.92732891112e-07 0)
(1.04477630962 -1.29547637288e-06 0)
(1.04477692514 -1.66809441668e-06 0)
(1.04477770138 -2.12534055586e-06 0)
(1.04477867536 -2.6880083093e-06 0)
(1.0447798929 -3.38175599546e-06 0)
(1.04478141186 -4.23849531224e-06 0)
(1.04478330279 -5.29540213107e-06 0)
(1.04478565444 -6.59915419836e-06 0)
(1.04478857708 -8.20888227282e-06 0)
(1.04479220526 -1.01959476696e-05 0)
(1.04479670445 -1.26477066907e-05 0)
(1.04480228049 -1.56734777038e-05 0)
(1.04480919087 -1.94094791616e-05 0)
(1.04481775395 -2.40240215912e-05 0)
(1.04482836258 -2.97250354357e-05 0)
(1.04484150286 -3.67729233177e-05 0)
(1.04485777646 -4.54945383441e-05 0)
(1.04487792896 -5.62922549126e-05 0)
(1.04490288177 -6.96605717232e-05 0)
(1.04493377449 -8.62085499025e-05 0)
(1.04497201918 -0.000106691767144 0)
(1.04501936776 -0.000132048868996 0)
(1.04507799009 -0.000163442919215 0)
(1.04515057293 -0.000202314788782 0)
(1.04524044695 -0.000250456754159 0)
(1.04535173664 -0.000310093611835 0)
(1.04548955421 -0.000383988637262 0)
(1.0456602343 -0.000475577789893 0)
(1.04587163072 -0.000589136144376 0)
(1.04613349084 -0.000729995892362 0)
(1.04645790678 -0.000904809804827 0)
(1.04685989258 -0.0011218975262 0)
(1.04735809985 -0.00139169355158 0)
(1.04797571992 -0.00172732014026 0)
(1.04874162604 -0.00214534741722 0)
(1.04969179546 -0.00266678928371 0)
(1.05087113475 -0.00331846209049 0)
(1.05233579709 -0.00413484068544 0)