/*--------------------------------*- C++ -*----------------------------------*\
| =========                 |                                                 |
| \\      /  F ield         | OpenFOAM: The Open Source CFD Toolbox           |
|  \\    /   O peration     | Version:  2106                                  |
|   \\  /    A nd           | Website:  www.openfoam.com                      |
|    \\/     M anipulation  |                                                 |
\*---------------------------------------------------------------------------*/
FoamFile
{
    version     2.0;
    format      ascii;
    arch        "LSB;label=32;scalar=64";
    class       volVectorField;
    location    "0.27";
    object      U;
}
// * * * * * * * * * * * * * * * * * * * * * * * * * * * * * * * * * * * * * //

dimensions      [0 1 -1 0 0 0 0];

internalField   nonuniform List<vector> 
11200
(
(0.662462405668 0.150569441968 0)
(0.55894868183 0.103243388198 0)
(0.383850754721 0.0513512242209 0)
(0.283747620964 0.0248708552847 0)
(0.232075304222 0.0124170451887 0)
(0.201908629369 0.00662281668227 0)
(0.183197983819 0.0038029141918 0)
(0.171276547318 0.00231586980048 0)
(0.163510372494 0.00146450628144 0)
(0.158388842703 0.000944892164976 0)
(0.155006710344 0.000615176692222 0)
(0.15278676103 0.000402233660219 0)
(0.151346615831 0.000264232099298 0)
(0.150428382988 0.000175250061417 0)
(0.14985678223 0.000118360563509 0)
(0.1495125838 8.21598313073e-05 0)
(0.149315025647 5.88657516549e-05 0)
(0.149209665604 4.33155947797e-05 0)
(0.149159807537 3.29345165045e-05 0)
(0.149142567788 2.81860277233e-05 0)
(0.149144722109 2.76840289619e-05 0)
(0.14915699499 2.98897187329e-05 0)
(0.149172612832 3.30502065495e-05 0)
(0.14918815582 3.59659012875e-05 0)
(0.149202359442 3.86014649272e-05 0)
(0.149214623778 4.10405890473e-05 0)
(0.149224781157 4.33178526278e-05 0)
(0.149232938518 4.54644734281e-05 0)
(0.149239332612 4.75196971098e-05 0)
(0.149244245396 4.95305646736e-05 0)
(0.149247961847 5.15591957855e-05 0)
(0.149250749199 5.3696561248e-05 0)
(0.149252804307 5.60252685971e-05 0)
(0.149254297253 5.84067955862e-05 0)
(0.149255360594 6.07679885214e-05 0)
(0.149256080906 6.30891973441e-05 0)
(0.149256555171 6.53806612668e-05 0)
(0.149256867187 6.76553074363e-05 0)
(0.149257070841 6.99247767158e-05 0)
(0.149257195584 7.21953029922e-05 0)
(0.149257262427 7.44679418786e-05 0)
(0.149257288459 7.6743595427e-05 0)
(0.149257285692 7.90219523032e-05 0)
(0.149257262815 8.13019128988e-05 0)
(0.149257226028 8.35817989485e-05 0)
(0.149257179861 8.58591769541e-05 0)
(0.149257128214 8.81311850823e-05 0)
(0.149257075188 9.03948391211e-05 0)
(0.149257025325 9.26470992938e-05 0)
(0.149256983667 9.48849852813e-05 0)
(0.14925695686 9.71053033079e-05 0)
(0.149256954378 9.93050528413e-05 0)
(0.149256989394 0.000101481330697 0)
(0.149257080194 0.000103630854062 0)
(0.149257252558 0.000105749331966 0)
(0.149257543228 0.000107831080518 0)
(0.149258003431 0.000109869050183 0)
(0.149258707967 0.00011185332749 0)
(0.149259766387 0.000113771502854 0)
(0.149261336788 0.000115599150124 0)
(0.149263664148 0.000117280775984 0)
(0.149267156443 0.000118731179299 0)
(0.14927228445 0.000119989788958 0)
(0.149279692593 0.000121248024699 0)
(0.14929041159 0.000122966286706 0)
(0.149305961946 0.000125336230272 0)
(0.149328728667 0.000128117341608 0)
(0.149362406767 0.000131081760779 0)
(0.149412588849 0.000134013129181 0)
(0.149487506933 0.000136796607938 0)
(0.149599103146 0.000140706578293 0)
(0.149770209894 0.000151563755605 0)
(0.150038606832 0.000172302068805 0)
(0.15046747736 0.000202573999584 0)
(0.151192655893 0.000232521880452 0)
(0.152491880125 0.000191711425451 0)
(0.155021494148 -0.000216910389447 0)
(0.162376370829 -0.00211114421926 0)
(0.187711582185 -0.0107936809345 0)
(0.204395374741 -0.0496867789614 0)
(0.965408256627 0.289214705752 0)
(0.961962868455 0.252656039654 0)
(0.823574408358 0.159021441495 0)
(0.698139391515 0.0959957311082 0)
(0.610225492072 0.0582481139881 0)
(0.548971525062 0.0362148528804 0)
(0.506588926498 0.0231612846769 0)
(0.477567310103 0.0151375148473 0)
(0.457745535902 0.0100177547396 0)
(0.444228507446 0.00665814087783 0)
(0.435053347542 0.00441555614218 0)
(0.428873168983 0.00290686583024 0)
(0.424754254033 0.00189105842175 0)
(0.422046704882 0.00121004527051 0)
(0.420297868147 0.000757163155072 0)
(0.419193259263 0.000459255397161 0)
(0.418515654316 0.000265854172812 0)
(0.418116507682 0.000142399020777 0)
(0.417895904544 6.61089935502e-05 0)
(0.41778685411 2.30916526237e-05 0)
(0.417745440137 1.40686976033e-06 0)
(0.417742163697 -1.01637269663e-05 0)
(0.417756762872 -1.3715047769e-05 0)
(0.417778723195 -1.32683967634e-05 0)
(0.417803019381 -1.08361005519e-05 0)
(0.417826392045 -7.49303370848e-06 0)
(0.417847147851 -3.87675551337e-06 0)
(0.4178646882 -3.57296519925e-07 0)
(0.417879016973 2.86383598987e-06 0)
(0.417890449639 5.68286371474e-06 0)
(0.417899457946 8.03555199803e-06 0)
(0.417906534985 9.83746112021e-06 0)
(0.417911882483 1.10064780305e-05 0)
(0.417915734297 1.18591885331e-05 0)
(0.417918468077 1.26814065173e-05 0)
(0.417920358784 1.34384558746e-05 0)
(0.417921648889 1.41124756196e-05 0)
(0.417922529948 1.47277032603e-05 0)
(0.417923128558 1.5313221084e-05 0)
(0.417923516601 1.58826617789e-05 0)
(0.417923746728 1.64363217279e-05 0)
(0.417923862128 1.69792259331e-05 0)
(0.417923893361 1.75150661489e-05 0)
(0.417923862851 1.80472972684e-05 0)
(0.417923786619 1.85790615339e-05 0)
(0.41792367647 1.91125373267e-05 0)
(0.417923542716 1.96496310851e-05 0)
(0.417923395889 2.01924008225e-05 0)
(0.417923247647 2.0743118494e-05 0)
(0.417923111265 2.13037027204e-05 0)
(0.417923004383 2.18740991249e-05 0)
(0.417922951884 2.24543708958e-05 0)
(0.417922987642 2.30445356738e-05 0)
(0.417923157899 2.36441859683e-05 0)
(0.417923527478 2.42525059607e-05 0)
(0.417924189233 2.48685340702e-05 0)
(0.417925274166 2.54906487702e-05 0)
(0.417926974734 2.61065781133e-05 0)
(0.417929568415 2.66988896363e-05 0)
(0.417933443762 2.72374222222e-05 0)
(0.417939198067 2.76748972706e-05 0)
(0.417947928499 2.79564392046e-05 0)
(0.417961126753 2.82418611568e-05 0)
(0.417980925314 2.780088064e-05 0)
(0.418010094493 2.52196619818e-05 0)
(0.418052240159 1.94103293531e-05 0)
(0.418113539614 9.56789648456e-06 0)
(0.418204110272 -5.83805830872e-06 0)
(0.418339554169 -2.93312492998e-05 0)
(0.418544769656 -6.4594234877e-05 0)
(0.418861663433 -0.000115825005825 0)
(0.419359863021 -0.000188002849166 0)
(0.420152884974 -0.00030782264753 0)
(0.421444474454 -0.000532892081372 0)
(0.423626469265 -0.00100010546019 0)
(0.42741796081 -0.00209135157381 0)
(0.434241955961 -0.00485875214804 0)
(0.448275352313 -0.0122604906689 0)
(0.474670351919 -0.0342603292725 0)
(0.478224870584 -0.0988284869152 0)
(1.02222096783 0.238416186374 0)
(1.08213753904 0.295926652141 0)
(1.03447724362 0.239503065882 0)
(0.954615433178 0.174290163808 0)
(0.879992085898 0.121345467635 0)
(0.818614471765 0.0830993832203 0)
(0.771410892349 0.0567316661467 0)
(0.736634437953 0.0387409676462 0)
(0.711624485372 0.0264327862783 0)
(0.693916679015 0.0179731041738 0)
(0.681541474524 0.0121424476207 0)
(0.673000186888 0.00812490799361 0)
(0.667180725981 0.00536632084752 0)
(0.663271759402 0.00348444441455 0)
(0.660688590875 0.00221256094743 0)
(0.65901426869 0.00136338103104 0)
(0.657954589517 0.000805242861001 0)
(0.65730429796 0.000445915609772 0)
(0.656921880397 0.000221067454016 0)
(0.656710315592 8.55801059078e-05 0)
(0.656603451871 8.35676496845e-06 0)
(0.656561903329 -3.37207148308e-05 0)
(0.656558003017 -5.68550719808e-05 0)
(0.656571478581 -6.68740770944e-05 0)
(0.656593007856 -6.84814427618e-05 0)
(0.656616827243 -6.55600484524e-05 0)
(0.656639629505 -6.05491615202e-05 0)
(0.656659807839 -5.48595444344e-05 0)
(0.65667677715 -4.92756328369e-05 0)
(0.656690515394 -4.42042413269e-05 0)
(0.656701268884 -3.98401907659e-05 0)
(0.656709421637 -3.63019152875e-05 0)
(0.656715669325 -3.36953685019e-05 0)
(0.656720702128 -3.18562617942e-05 0)
(0.656724563256 -3.08095804341e-05 0)
(0.656727267796 -3.03023790448e-05 0)
(0.656729127864 -3.02468367525e-05 0)
(0.6567304232 -3.05575909475e-05 0)
(0.656731321496 -3.10848497111e-05 0)
(0.656731912807 -3.17463492733e-05 0)
(0.656732271411 -3.25126597255e-05 0)
(0.656732462473 -3.33486941292e-05 0)
(0.656732531083 -3.42298242255e-05 0)
(0.656732511107 -3.51367166416e-05 0)
(0.656732426822 -3.60540790099e-05 0)
(0.656732296412 -3.69712686081e-05 0)
(0.656732135913 -3.78806596821e-05 0)
(0.65673196136 -3.87766204537e-05 0)
(0.656731789647 -3.96543853395e-05 0)
(0.6567316385 -4.05086872339e-05 0)
(0.656731532137 -4.1335866678e-05 0)
(0.656731506149 -4.21317347173e-05 0)
(0.656731609358 -4.28945636994e-05 0)
(0.656731909635 -4.36274210101e-05 0)
(0.656732503374 -4.43431212134e-05 0)
(0.656733528176 -4.50722860929e-05 0)
(0.656735171194 -4.58679277048e-05 0)
(0.656737707312 -4.68256749507e-05 0)
(0.656741544993 -4.8071810592e-05 0)
(0.656747281953 -4.98213598375e-05 0)
(0.656755841344 -5.25757996463e-05 0)
(0.656768869727 -5.73666835952e-05 0)
(0.656787705481 -6.49753855787e-05 0)
(0.656813783911 -7.62809456913e-05 0)
(0.656850917859 -9.29670600789e-05 0)
(0.656905814827 -0.000117439806839 0)
(0.656987866201 -0.000152899739106 0)
(0.657110862765 -0.000204634630737 0)
(0.657296620753 -0.000281167890144 0)
(0.657580541426 -0.000396382404756 0)
(0.658020775395 -0.000574644497008 0)
(0.658706564032 -0.000863247811414 0)
(0.659785042688 -0.00135232432981 0)
(0.661513907835 -0.00221509795524 0)
(0.664335629416 -0.00381433085092 0)
(0.6689465328 -0.00694931006844 0)
(0.676373549979 -0.0133598311692 0)
(0.688626352533 -0.0268597348437 0)
(0.705266904138 -0.0563564289652 0)
(0.700543929825 -0.113169122678 0)
(1.02251475694 0.170807151813 0)
(1.1013897663 0.276496477913 0)
(1.11752427772 0.266664798427 0)
(1.09214662852 0.21990169802 0)
(1.05187818477 0.16816884646 0)
(1.01020825817 0.123567395342 0)
(0.973494728858 0.0888375201696 0)
(0.943864597854 0.0630063702718 0)
(0.921142844901 0.0442232030422 0)
(0.904284121228 0.0307423919876 0)
(0.892074920299 0.0211562936311 0)
(0.883404564936 0.014395468226 0)
(0.877352727418 0.00966794791269 0)
(0.873197766685 0.00639383675576 0)
(0.870392991796 0.00415116414432 0)
(0.868534104626 0.00263448996141 0)
(0.867327709071 0.00162401617717 0)
(0.866564306945 0.000962674536167 0)
(0.866096550236 0.000539120746206 0)
(0.865822308494 0.000275151868263 0)
(0.865671465226 0.000117066789222 0)
(0.86559521524 2.87910454365e-05 0)
(0.865564157898 -1.93258658806e-05 0)
(0.86556135053 -4.12620395076e-05 0)
(0.865572695185 -4.76660313157e-05 0)
(0.865589702346 -4.5525319994e-05 0)
(0.865608013004 -3.91558330459e-05 0)
(0.865625353304 -3.11451085583e-05 0)
(0.86564063964 -2.296413868e-05 0)
(0.865653505081 -1.53804203059e-05 0)
(0.865663981072 -8.72257352345e-06 0)
(0.86567227074 -3.04332951631e-06 0)
(0.865678626087 1.73560167022e-06 0)
(0.865683254559 5.46711231388e-06 0)
(0.865686574177 8.03425238337e-06 0)
(0.865688972072 9.79143655117e-06 0)
(0.865690603136 1.11454026367e-05 0)
(0.86569176406 1.2290676527e-05 0)
(0.865692630635 1.32600177211e-05 0)
(0.865693221531 1.41468539022e-05 0)
(0.865693584931 1.4942292263e-05 0)
(0.865693785218 1.5669049707e-05 0)
(0.865693861141 1.63428278494e-05 0)
(0.865693843902 1.69800679995e-05 0)
(0.865693755361 1.75953183974e-05 0)
(0.86569361151 1.81988747499e-05 0)
(0.865693427433 1.8798603831e-05 0)
(0.865693219702 1.94013162026e-05 0)
(0.86569300855 2.00155599205e-05 0)
(0.865692816641 2.06480450919e-05 0)
(0.865692674187 2.1285040643e-05 0)
(0.865692622652 2.19144408947e-05 0)
(0.865692715384 2.25198601894e-05 0)
(0.865693022513 2.3075157545e-05 0)
(0.865693637232 2.35424466582e-05 0)
(0.865694692667 2.38820042519e-05 0)
(0.865696371125 2.40660557843e-05 0)
(0.865698959091 2.39729576145e-05 0)
(0.865702864262 2.34500256615e-05 0)
(0.865708509849 2.20927758327e-05 0)
(0.865716328157 1.93229696237e-05 0)
(0.865727950249 1.44742161399e-05 0)
(0.865745980868 5.70513426176e-06 0)
(0.865773371258 -8.60430403322e-06 0)
(0.865814000195 -3.04492855745e-05 0)
(0.865873778929 -6.37721538097e-05 0)
(0.865962038627 -0.000115449754706 0)
(0.866093286802 -0.00019624870737 0)
(0.866290070781 -0.000323436383745 0)
(0.866587211923 -0.000525502275389 0)
(0.8670383283 -0.000851421004624 0)
(0.867728520377 -0.00138817842987 0)
(0.868794205942 -0.00228464234174 0)
(0.870448771438 -0.00381558206993 0)
(0.873011348778 -0.00650560890354 0)
(0.876881259509 -0.0113648686693 0)
(0.882381694833 -0.020263958323 0)
(0.889696809869 -0.0364766784656 0)
(0.896382430993 -0.065541070184 0)
(0.886566603406 -0.110141036531 0)
(1.01287875309 0.118961022823 0)
(1.08820671575 0.231806936446 0)
(1.13741368566 0.253106764084 0)
(1.15409088736 0.228992752992 0)
(1.14994213384 0.188368358268 0)
(1.13538468418 0.146579843396 0)
(1.11758898172 0.110150965115 0)
(1.10059503977 0.0808162216208 0)
(1.08612461292 0.0582265760788 0)
(1.07459096996 0.0413189848522 0)
(1.06579151561 0.0289160202239 0)
(1.05928804089 0.0199600999961 0)
(1.05459981828 0.0135815600049 0)
(1.05129082224 0.00909744284987 0)
(1.04899990623 0.00598615343389 0)
(1.04744346466 0.0038569657586 0)
(1.04640659263 0.00242159721335 0)
(1.04573067848 0.00147014939685 0)
(1.04530112389 0.000851701238929 0)
(1.04503662728 0.000459015800484 0)
(1.04488026513 0.000216756550085 0)
(1.04479264932 7.30177119861e-05 0)
(1.04474878483 -5.50386821946e-06 0)
(1.04473188628 -4.40079049893e-05 0)
(1.04472963651 -5.93848232103e-05 0)
(1.0447351214 -6.17183125956e-05 0)
(1.04474407019 -5.7244747495e-05 0)
(1.04475395513 -4.98029966518e-05 0)
(1.04476339688 -4.16439977315e-05 0)
(1.04477172536 -3.39886008971e-05 0)
(1.04477868992 -2.74231464172e-05 0)
(1.04478427751 -2.21512475985e-05 0)
(1.04478863392 -1.81279346133e-05 0)
(1.04479197009 -1.51392299841e-05 0)
(1.04479454085 -1.28076457202e-05 0)
(1.04479663981 -1.10108946939e-05 0)
(1.04479837818 -9.52119792989e-06 0)
(1.04479970158 -8.23084056596e-06 0)
(1.0448006804 -7.21134191207e-06 0)
(1.0448013657 -6.54223728086e-06 0)
(1.04480177933 -6.16255055571e-06 0)
(1.04480200818 -5.95377913814e-06 0)
(1.04480209764 -5.86535312098e-06 0)
(1.04480208583 -5.84748203066e-06 0)
(1.04480199725 -5.8600325346e-06 0)
(1.04480184965 -5.88318055631e-06 0)
(1.04480166092 -5.9072959637e-06 0)
(1.04480145247 -5.92884317571e-06 0)
(1.04480124666 -5.95294503373e-06 0)
(1.04480104962 -5.98824058656e-06 0)
(1.04480087924 -6.01893362542e-06 0)
(1.04480078022 -6.04344521835e-06 0)
(1.04480080618 -6.06806146757e-06 0)
(1.04480103027 -6.10719920307e-06 0)
(1.04480157013 -6.19657406405e-06 0)
(1.04480261862 -6.44049599161e-06 0)
(1.04480436216 -7.10657029399e-06 0)
(1.04480707417 -8.47216528039e-06 0)
(1.04481107508 -1.1023169372e-05 0)
(1.04481683026 -1.48399891332e-05 0)
(1.04482536522 -1.97888167219e-05 0)
(1.04483782803 -2.59861832961e-05 0)
(1.04485547689 -3.57391627501e-05 0)
(1.04488062279 -5.20248368071e-05 0)
(1.04491673427 -7.90675219874e-05 0)
(1.04496895584 -0.000123116467237 0)
(1.04504488488 -0.000193945483333 0)
(1.04515586292 -0.000307138153289 0)
(1.04531902898 -0.000487870481913 0)
(1.04556024064 -0.000777187800132 0)
(1.04591818099 -0.00124245038032 0)
(1.0464507203 -0.00199536813996 0)
(1.0472420074 -0.0032266166118 0)
(1.04840506363 -0.00526722725895 0)
(1.05006734332 -0.00869450781232 0)
(1.05228574096 -0.0145030610205 0)
(1.05481658703 -0.0243015232601 0)
(1.05687059274 -0.0404027752246 0)
(1.05574174723 -0.0656512707715 0)
(1.04213015168 -0.0995580267738 0)
(1.00447483654 0.0814039969282 0)
(1.06917238046 0.18128853856 0)
(1.13080570034 0.216950418277 0)
(1.17375002301 0.210789154974 0)
(1.19865267653 0.183690076204 0)
(1.21019991015 0.149751682601 0)
(1.21350259282 0.116779143354 0)
(1.21251728072 0.0882206771758 0)
(1.2097310278 0.0650481502798 0)
(1.20651124516 0.0470209082999 0)
(1.20351918573 0.0334068079027 0)
(1.20101150779 0.0233557317823 0)
(1.1990345099 0.0160720128946 0)
(1.19753884045 0.0108795126039 0)
(1.19644137752 0.00723418686371 0)
(1.19565565012 0.0047135173108 0)
(1.19510495548 0.0029976280483 0)
(1.19472654344 0.00184916001686 0)
(1.19447156319 0.00109495987175 0)
(1.19430325341 0.000610611159217 0)
(1.19419461446 0.000307986718547 0)
(1.19412633004 0.000125769027572 0)
(1.19408528037 2.22239962053e-05 0)
(1.19406202157 -3.24507717266e-05 0)
(1.19404972107 -5.72691244737e-05 0)
(1.19404422183 -6.4594685973e-05 0)
(1.19404272319 -6.23728233431e-05 0)
(1.19404340703 -5.55183275107e-05 0)
(1.19404515798 -4.69414326229e-05 0)
(1.19404731783 -3.82555819547e-05 0)
(1.19404951386 -3.0261941573e-05 0)
(1.19405155366 -2.32655500641e-05 0)
(1.19405336802 -1.72898448595e-05 0)
(1.19405495124 -1.22610776123e-05 0)
(1.19405631953 -8.07266830162e-06 0)
(1.194057492 -4.67065299155e-06 0)
(1.19405844104 -2.05905881997e-06 0)
(1.19405911337 -1.69039117516e-07 0)
(1.19405946884 1.14885734086e-06 0)
(1.19405958361 2.00551122665e-06 0)
(1.19405963891 2.68454006255e-06 0)
(1.1940596709 3.28796956426e-06 0)
(1.19405965357 3.81568754742e-06 0)
(1.19405960325 4.27653126857e-06 0)
(1.19405951488 4.68253497622e-06 0)
(1.19405937929 5.05060149551e-06 0)
(1.19405919889 5.39259697428e-06 0)
(1.19405897969 5.71102027032e-06 0)
(1.19405873414 5.99587986895e-06 0)
(1.19405850435 6.23584938481e-06 0)
(1.19405833354 6.45378506025e-06 0)
(1.19405825178 6.64213889851e-06 0)
(1.19405830845 6.7745614414e-06 0)
(1.19405856305 6.81059138719e-06 0)
(1.19405905582 6.6920441584e-06 0)
(1.19405976059 6.33184128957e-06 0)
(1.19406075574 5.56740550394e-06 0)
(1.19406220174 4.04216627059e-06 0)
(1.19406473748 1.3105751227e-06 0)
(1.19406940237 -2.89868295701e-06 0)
(1.19407677636 -9.35872961928e-06 0)
(1.19408677643 -1.94685247382e-05 0)
(1.19410013973 -3.5230447498e-05 0)
(1.19411885482 -5.95582313237e-05 0)
(1.19414504948 -9.70347118563e-05 0)
(1.1941815388 -0.000154976026309 0)
(1.1942323058 -0.000245031173882 0)
(1.19430297465 -0.000385684907328 0)
(1.19440141804 -0.000606409421753 0)
(1.19453839917 -0.000954569062621 0)
(1.19472795566 -0.00150673453633 0)
(1.19498685262 -0.00238726893147 0)
(1.19532989036 -0.00379956766278 0)
(1.19575432086 -0.00607686894493 0)
(1.19619981223 -0.00975855339421 0)
(1.19644660998 -0.0156893708069 0)
(1.19590776294 -0.025081831921 0)
(1.19342828775 -0.0393942789982 0)
(1.18667176305 -0.05987389229 0)
(1.1701162659 -0.0852163357147 0)
(0.998962327446 0.0544316247487 0)
(1.05310957533 0.133401607367 0)
(1.11628269518 0.170777557906 0)
(1.17301273809 0.175143871632 0)
(1.21791248657 0.159583605885 0)
(1.25049860851 0.134951019665 0)
(1.2728849462 0.108411656494 0)
(1.28776726095 0.0838849716234 0)
(1.29745272419 0.0630565722874 0)
(1.3036607988 0.0462999213872 0)
(1.30759239566 0.0333205147799 0)
(1.31005375691 0.0235495238485 0)
(1.31157368395 0.0163599074126 0)
(1.31249498953 0.0111713146293 0)
(1.31303868527 0.0074915060507 0)
(1.31334677951 0.00492448513177 0)
(1.31351019594 0.00316295430525 0)
(1.31358682828 0.0019747508109 0)
(1.31361320693 0.00118819576118 0)
(1.31361205968 0.000678628134889 0)
(1.31359722434 0.000357007360731 0)
(1.31357690557 0.000160753198707 0)
(1.31355591376 4.64687145442e-05 0)
(1.31353662098 -1.58693621183e-05 0)
(1.31351996563 -4.60574723732e-05 0)
(1.31350627937 -5.70672385573e-05 0)
(1.31349537743 -5.73218205044e-05 0)
(1.31348692301 -5.20832204758e-05 0)
(1.31348052814 -4.45207533745e-05 0)
(1.31347580751 -3.6458957652e-05 0)
(1.31347240977 -2.88710045031e-05 0)
(1.31347003166 -2.22102650569e-05 0)
(1.31346841356 -1.66279750741e-05 0)
(1.31346732716 -1.2131448164e-05 0)
(1.31346660684 -8.65489890289e-06 0)
(1.31346615503 -6.09686729295e-06 0)
(1.31346587054 -4.3202394059e-06 0)
(1.31346566414 -3.11751027873e-06 0)
(1.31346553369 -2.25916566178e-06 0)
(1.31346556506 -1.5411930218e-06 0)
(1.3134657204 -9.64737692647e-07 0)
(1.31346582165 -5.51016017685e-07 0)
(1.31346581759 -1.90409958259e-07 0)
(1.31346574007 1.46271233061e-07 0)
(1.31346561051 4.5733702229e-07 0)
(1.31346544108 7.51569380894e-07 0)
(1.31346523501 1.04101216607e-06 0)
(1.31346499454 1.33660138252e-06 0)
(1.31346473067 1.64965271609e-06 0)
(1.31346447695 1.97923907352e-06 0)
(1.31346425478 2.2763696171e-06 0)
(1.31346407187 2.50390598136e-06 0)
(1.31346395881 2.61778098798e-06 0)
(1.31346396792 2.55411918677e-06 0)
(1.31346418604 2.22622117485e-06 0)
(1.31346473244 1.54246341426e-06 0)
(1.31346559389 4.54802763921e-07 0)
(1.31346683125 -1.23060194554e-06 0)
(1.31346887046 -3.70762877122e-06 0)
(1.31347195178 -7.70353150494e-06 0)
(1.31347625998 -1.45133559058e-05 0)
(1.31348202842 -2.57220426449e-05 0)
(1.31348952566 -4.29156570748e-05 0)
(1.31349923466 -6.92609415423e-05 0)
(1.31351147068 -0.000109785679503 0)
(1.31352631002 -0.00017223497306 0)
(1.31354336473 -0.000268694547465 0)
(1.31356131462 -0.00041811998707 0)
(1.31357695213 -0.000650334097242 0)
(1.31358334636 -0.0010125845194 0)
(1.31356642974 -0.00157992869564 0)
(1.31349873822 -0.00247146009805 0)
(1.31332598097 -0.0038745625917 0)
(1.31294050891 -0.00608185273523 0)
(1.31213221009 -0.00953824476408 0)
(1.31049552725 -0.0148859996033 0)
(1.30727671689 -0.0229545856019 0)
(1.30126539257 -0.0345862937244 0)
(1.29059225759 -0.0502213614619 0)
(1.27178224394 -0.0686369220788 0)
(0.995736075962 0.034633859276 0)
(1.04179515142 0.0905689208671 0)
(1.1022284022 0.121549564698 0)
(1.16491413849 0.129605833826 0)
(1.22202569215 0.122009268253 0)
(1.26951895577 0.106019938353 0)
(1.30680227963 0.0870975561907 0)
(1.33499540154 0.0686366814991 0)
(1.35574482857 0.0523698395754 0)
(1.37069622719 0.0389256184412 0)
(1.3812828199 0.0282980736631 0)
(1.38866274603 0.0201712771328 0)
(1.39373040603 0.0141175100686 0)
(1.39715668332 0.00970533544624 0)
(1.39943442777 0.00655059454801 0)
(1.4009197523 0.00433445383335 0)
(1.40186630111 0.00280414404453 0)
(1.40245232406 0.00176574227296 0)
(1.40280142398 0.00107419439377 0)
(1.40299812306 0.000623234428487 0)
(1.40309934657 0.000336408777569 0)
(1.40314280235 0.000159622962229 0)
(1.40315306555 5.51644390522e-05 0)
(1.40314557939 -2.99738649854e-06 0)
(1.40312982269 -3.21213963853e-05 0)
(1.40311142327 -4.38886204655e-05 0)
(1.40309338841 -4.57586164818e-05 0)
(1.40307724298 -4.24164451979e-05 0)
(1.4030635886 -3.67256488145e-05 0)
(1.40305249885 -3.03631413817e-05 0)
(1.4030437718 -2.42435584599e-05 0)
(1.403037082 -1.88137884988e-05 0)
(1.4030320681 -1.42420895012e-05 0)
(1.40302837999 -1.05305331529e-05 0)
(1.40302571949 -7.57851682026e-06 0)
(1.40302385423 -5.26122600792e-06 0)
(1.40302260775 -3.4557888582e-06 0)
(1.40302182951 -2.01858525087e-06 0)
(1.40302135404 -8.45154052038e-07 0)
(1.40302098653 8.76200092237e-08 0)
(1.4030206599 7.9762775845e-07 0)
(1.4030204566 1.28786845325e-06 0)
(1.40302036311 1.66043343336e-06 0)
(1.40302028677 1.98101882123e-06 0)
(1.40302019301 2.28703698522e-06 0)
(1.40302007481 2.59667674696e-06 0)
(1.40301993055 2.91934788588e-06 0)
(1.403019762 3.25962836268e-06 0)
(1.40301956984 3.61834224356e-06 0)
(1.40301934703 3.98479292217e-06 0)
(1.40301910613 4.31809274191e-06 0)
(1.40301888079 4.58730083501e-06 0)
(1.40301869885 4.754235569e-06 0)
(1.40301858609 4.76166210084e-06 0)
(1.40301856164 4.52199480329e-06 0)
(1.40301863022 3.89295222122e-06 0)
(1.40301878491 2.67013060146e-06 0)
(1.40301905901 7.33194421437e-07 0)
(1.40301965713 -2.29416596422e-06 0)
(1.40302072444 -7.22599333118e-06 0)
(1.40302215979 -1.4849405482e-05 0)
(1.40302362934 -2.64815187289e-05 0)
(1.40302464525 -4.39686907165e-05 0)
(1.40302445799 -7.02896495533e-05 0)
(1.40302157337 -0.000110029270803 0)
(1.40301324258 -0.000170212375768 0)
(1.40299465179 -0.000261718234575 0)
(1.40295760586 -0.00040140986231 0)
(1.40288813573 -0.000615343354435 0)
(1.40276247751 -0.000944151374363 0)
(1.40254058043 -0.00145122366243 0)
(1.40215603339 -0.00223499001438 0)
(1.40149713191 -0.00344462158197 0)
(1.40037533548 -0.00530407796347 0)
(1.39847706053 -0.00813654105455 0)
(1.39528865418 -0.012377430357 0)
(1.3899961942 -0.018538706259 0)
(1.38145015035 -0.0270596246801 0)
(1.36815218405 -0.0380240985592 0)
(1.34770645625 -0.0505425544405 0)
(0.994011533161 0.0192358055162 0)
(1.03484764342 0.0523338397905 0)
(1.09199264149 0.0723631268785 0)
(1.15662422092 0.0791292315032 0)
(1.22032119113 0.0761045460241 0)
(1.27701948726 0.0673339714295 0)
(1.32424423028 0.0561509037994 0)
(1.3618157837 0.0447990115906 0)
(1.39068536166 0.0345303783442 0)
(1.41226080909 0.0258814332001 0)
(1.42801828514 0.0189465245691 0)
(1.43929890798 0.0135849823941 0)
(1.44722814446 0.00955653428015 0)
(1.45270420317 0.00660011514852 0)
(1.45641903113 0.0044741898135 0)
(1.45889151993 0.0029735129915 0)
(1.46050238794 0.00193276829514 0)
(1.46152578809 0.00122369358155 0)
(1.46215580706 0.00074955056246 0)
(1.46252763489 0.000439018002317 0)
(1.462733915 0.000240521691669 0)
(1.46283706079 0.000117412867318 0)
(1.46287836633 4.40507886083e-05 0)
(1.46288460822 2.69267799552e-06 0)
(1.4628724863 -1.84422562527e-05 0)
(1.46285213724 -2.7435937767e-05 0)
(1.46282958826 -2.9435656441e-05 0)
(1.46280805248 -2.76855703007e-05 0)
(1.46278905774 -2.41836527983e-05 0)
(1.46277314836 -2.01111383343e-05 0)
(1.46276031553 -1.61166073308e-05 0)
(1.46275026489 -1.25226630655e-05 0)
(1.46274258563 -9.45584744793e-06 0)
(1.46273684525 -6.92705892517e-06 0)
(1.46273264486 -4.88254037782e-06 0)
(1.46272964204 -3.25283897847e-06 0)
(1.46272754845 -1.97484046521e-06 0)
(1.46272610707 -1.00758094224e-06 0)
(1.46272510661 -3.06112797997e-07 0)
(1.46272448267 2.17214952782e-07 0)
(1.46272412197 7.00457290224e-07 0)
(1.46272387534 1.17838746793e-06 0)
(1.46272371016 1.60480256735e-06 0)
(1.46272358669 1.98680321362e-06 0)
(1.46272347535 2.34564421964e-06 0)
(1.46272335701 2.69484085438e-06 0)
(1.46272321793 3.03982104723e-06 0)
(1.46272304925 3.37858466836e-06 0)
(1.46272284649 3.70180347862e-06 0)
(1.46272260746 3.99760229373e-06 0)
(1.46272233564 4.25834493212e-06 0)
(1.46272203866 4.45246857766e-06 0)
(1.46272172336 4.5294135338e-06 0)
(1.46272139928 4.41960254531e-06 0)
(1.46272108125 4.03224851649e-06 0)
(1.46272079011 3.25642789411e-06 0)
(1.46272051812 1.9715297019e-06 0)
(1.46272016367 7.87869619325e-08 0)
(1.46271956028 -2.70330552677e-06 0)
(1.46271858251 -7.19787760975e-06 0)
(1.46271697238 -1.4198165846e-05 0)
(1.46271404988 -2.4799480722e-05 0)
(1.46270868823 -4.0541658093e-05 0)
(1.46269907443 -6.38005470674e-05 0)
(1.46268214171 -9.81709225088e-05 0)
(1.46265273468 -0.000149034850126 0)
(1.46260233886 -0.000224584565872 0)
(1.46251719012 -0.000337264828313 0)
(1.4623747779 -0.000505664582283 0)
(1.46213817755 -0.000758221767408 0)
(1.46174741958 -0.00113878988769 0)
(1.46110782196 -0.00171488515817 0)
(1.46006801679 -0.00258233791282 0)
(1.45838673296 -0.0038808683053 0)
(1.45568960815 -0.00580309659346 0)
(1.45141052241 -0.00859252075465 0)
(1.44472794664 -0.0125099021936 0)
(1.4345710344 -0.0177365891669 0)
(1.41967758027 -0.0242220756138 0)
(1.39819750951 -0.0314218823293 0)
(0.993269669152 0.00617014947328 0)
(1.03158100747 0.0171020452871 0)
(1.08672183259 0.0239906479747 0)
(1.15174556553 0.026560665408 0)
(1.21823539043 0.0258180588363 0)
(1.27925777558 0.02304888657 0)
(1.33140140021 0.0193656323039 0)
(1.37377603402 0.0155468590794 0)
(1.40691058645 0.0120449314412 0)
(1.43203319199 0.00906640087986 0)
(1.45060221112 0.00666059569781 0)
(1.46402992367 0.00479009217077 0)
(1.47355022955 0.0033784288219 0)
(1.48017570605 0.00233873858333 0)
(1.48470236344 0.00158891451901 0)
(1.48773628392 0.00105828974144 0)
(1.48972742582 0.000689463885594 0)
(1.49100286011 0.000437639790833 0)
(1.49179594439 0.00026888737385 0)
(1.49227031921 0.000158113012728 0)
(1.49253881542 8.71269062681e-05 0)
(1.49267789623 4.29775234064e-05 0)
(1.492738434 1.65879483589e-05 0)
(1.49275361193 1.66766797281e-06 0)
(1.4927443786 -6.06485055458e-06 0)
(1.49272359373 -9.40985794757e-06 0)
(1.49269895262 -1.02157709271e-05 0)
(1.49267468342 -9.652313365e-06 0)
(1.49265288368 -8.43834934943e-06 0)
(1.49263439489 -6.99180686754e-06 0)
(1.49261933975 -5.55277370692e-06 0)
(1.49260745598 -4.24129355995e-06 0)
(1.4925983138 -3.10482891306e-06 0)
(1.49259143743 -2.14953620831e-06 0)
(1.49258637275 -1.35911108282e-06 0)
(1.49258271948 -7.11588182749e-07 0)
(1.49258014173 -1.85536826195e-07 0)
(1.49257836959 2.40851989782e-07 0)
(1.49257719718 6.1378157416e-07 0)
(1.49257644733 9.84359459347e-07 0)
(1.49257596687 1.29112847913e-06 0)
(1.49257566372 1.57762912442e-06 0)
(1.49257548009 1.86114336877e-06 0)
(1.49257536308 2.15198067599e-06 0)
(1.49257527338 2.45741861326e-06 0)
(1.49257518453 2.7802747149e-06 0)
(1.49257507778 3.11993927739e-06 0)
(1.49257493959 3.47251562807e-06 0)
(1.49257475997 3.82965827997e-06 0)
(1.49257453064 4.17748964421e-06 0)
(1.49257424619 4.49623548075e-06 0)
(1.49257390283 4.7538506579e-06 0)
(1.49257349419 4.90597430113e-06 0)
(1.49257300906 4.89205593058e-06 0)
(1.49257242723 4.62911157064e-06 0)
(1.49257172093 4.00236366128e-06 0)
(1.49257087765 2.86159247068e-06 0)
(1.49256976746 1.08842763005e-06 0)
(1.49256796335 -1.52726316391e-06 0)
(1.49256515453 -5.56186394535e-06 0)
(1.49256096 -1.15945380617e-05 0)
(1.49255436205 -2.03875734107e-05 0)
(1.49254373855 -3.30203877703e-05 0)
(1.49252654029 -5.10400036596e-05 0)
(1.49249865217 -7.66368696175e-05 0)
(1.49245335093 -0.000112812358347 0)
(1.49237976477 -0.000163964199066 0)
(1.49226083817 -0.00023652888869 0)
(1.49206913628 -0.000338966604889 0)
(1.49175989306 -0.000483898321458 0)
(1.49126092267 -0.0006917942371 0)
(1.49046343507 -0.000995792164554 0)
(1.48919760139 -0.00142835017795 0)
(1.48719722034 -0.00203714451608 0)
(1.48406335936 -0.00288359814626 0)
(1.47921534403 -0.00403526578605 0)
(1.47184497938 -0.00554656286303 0)
(1.46093668623 -0.00741923679277 0)
(1.44534013095 -0.00955961627797 0)
(1.42344111186 -0.0117196224186 0)
(0.993270466965 -0.0061684029357 0)
(1.03158099008 -0.0171003770097 0)
(1.08672176632 -0.023989762699 0)
(1.15174560328 -0.0265602476716 0)
(1.2182354684 -0.0258179934418 0)
(1.27925787767 -0.0230491099473 0)