/*--------------------------------*- C++ -*----------------------------------*\
| =========                 |                                                 |
| \\      /  F ield         | OpenFOAM: The Open Source CFD Toolbox           |
|  \\    /   O peration     | Version:  2106                                  |
|   \\  /    A nd           | Website:  www.openfoam.com                      |
|    \\/     M anipulation  |                                                 |
\*---------------------------------------------------------------------------*/
FoamFile
{
    version     2.0;
    format      ascii;
    arch        "LSB;label=32;scalar=64";
    class       volVectorField;
    location    "0.02";
    object      U;
}
// * * * * * * * * * * * * * * * * * * * * * * * * * * * * * * * * * * * * * //

dimensions      [0 1 -1 0 0 0 0];

internalField   nonuniform List<vector> 
800
(
(3.15417e-11 0 0)
(4.42918e-12 0 0)
(-2.86697e-11 0 0)
(-5.11131e-11 0 0)
(-8.18777e-11 0 0)
(-8.54765e-11 0 0)
(-4.16375e-11 0 0)
(3.29102e-12 0 0)
(2.24239e-11 0 0)
(3.27347e-11 0 0)
(-1.22274e-11 0 0)
(-7.36295e-11 0 0)
(-1.65962e-10 0 0)
(-2.49856e-10 0 0)
(-2.384e-10 0 0)
(-1.43854e-10 0 0)
(-5.91253e-11 0 0)
(5.40971e-11 0 0)
(1.39686e-10 0 0)
(1.40173e-10 0 0)
(9.15516e-11 0 0)
(8.39444e-11 0 0)
(5.56987e-11 0 0)
(3.07033e-11 0 0)
(1.99639e-11 0 0)
(2.90552e-11 0 0)
(2.61789e-11 0 0)
(-3.71424e-12 0 0)
(5.08627e-11 0 0)
(5.57855e-11 0 0)
(9.8404e-12 0 0)
(3.17934e-11 0 0)
(2.47662e-11 0 0)
(-2.43596e-11 0 0)
(-6.87128e-11 0 0)
(-8.23185e-11 0 0)
(-3.68891e-11 0 0)
(1.49924e-11 0 0)
(5.88316e-11 0 0)
(1.48921e-10 0 0)
(1.68583e-10 0 0)
(1.05357e-10 0 0)
(5.16511e-11 0 0)
(-1.00422e-11 0 0)
(-1.78061e-11 0 0)
(-7.42687e-12 0 0)
(4.47019e-11 0 0)
(1.19733e-10 0 0)
(1.60662e-10 0 0)
(1.33696e-10 0 0)
(1.03869e-10 0 0)
(8.35868e-11 0 0)
(4.13997e-11 0 0)
(-7.61407e-12 0 0)
(2.88064e-12 0 0)
(-7.22237e-12 0 0)
(-4.13531e-11 0 0)
(-7.8978e-11 0 0)
(-5.40831e-11 0 0)
(-8.07068e-11 0 0)
(-1.0493e-10 0 0)
(-7.41967e-11 0 0)
(-6.05066e-11 0 0)
(-4.85787e-11 0 0)
(-1.8636e-11 0 0)
(1.98805e-11 0 0)
(1.54218e-11 0 0)
(-6.38739e-11 0 0)
(-5.41463e-11 0 0)
(-1.1474e-11 0 0)
(-1.14835e-11 0 0)
(2.95961e-11 0 0)
(5.7406e-11 0 0)
(2.26261e-11 0 0)
(2.42994e-11 0 0)
(1.69907e-11 0 0)
(1.34242e-11 0 0)
(1.19211e-12 0 0)
(-1.34695e-11 0 0)
(-1.55119e-11 0 0)
(-5.45693e-11 0 0)
(-4.9716e-11 0 0)
(7.33891e-13 0 0)
(5.95526e-11 0 0)
(5.39385e-11 0 0)
(5.66777e-11 0 0)
(3.26062e-11 0 0)
(3.32309e-11 0 0)
(1.31621e-11 0 0)
(-1.64034e-11 0 0)
(-3.1242e-12 0 0)
(1.80912e-11 0 0)
(2.31678e-11 0 0)
(4.58008e-11 0 0)
(8.0769e-12 0 0)
(-2.72447e-11 0 0)
(-5.3042e-11 0 0)
(-1.31683e-11 0 0)
(3.41059e-11 0 0)
(5.60671e-11 0 0)
(6.52824e-11 0 0)
(5.62558e-11 0 0)
(3.14685e-11 0 0)
(1.32054e-11 0 0)
(-2.64372e-11 0 0)
(-4.2092e-11 0 0)
(-2.65284e-11 0 0)
(-2.67997e-11 0 0)
(1.8135e-11 0 0)
(-1.40696e-11 0 0)
(-4.69129e-11 0 0)
(-1.75911e-11 0 0)
(4.05012e-11 0 0)
(4.84436e-11 0 0)
(8.04461e-11 0 0)
(6.70282e-11 0 0)
(3.63259e-11 0 0)
(2.45346e-12 0 0)
(-7.39679e-11 0 0)
(-9.46388e-11 0 0)
(-3.26743e-11 0 0)
(1.51329e-11 0 0)
(-2.58944e-12 0 0)
(-1.91592e-11 0 0)
(-3.18121e-11 0 0)
(-1.95944e-11 0 0)
(-6.12261e-12 0 0)
(-2.31511e-11 0 0)
(-5.44075e-11 0 0)
(-3.52003e-12 0 0)
(-1.00546e-11 0 0)
(-5.59816e-11 0 0)
(-4.72249e-11 0 0)
(-6.80077e-12 0 0)
(4.26099e-12 0 0)
(-1.97128e-11 0 0)
(-2.56447e-11 0 0)
(1.07676e-11 0 0)
(-2.26674e-12 0 0)
(-6.82237e-11 0 0)
(-8.0329e-11 0 0)
(-7.97536e-11 0 0)
(-9.57535e-11 0 0)
(-1.13559e-10 0 0)
(-1.62385e-10 0 0)
(-1.83685e-10 0 0)
(-1.62527e-10 0 0)
(-8.67481e-11 0 0)
(-3.81259e-11 0 0)
(-3.32036e-11 0 0)
(-4.14654e-11 0 0)
(-6.63741e-11 0 0)
(-8.4242e-11 0 0)
(-5.0831e-11 0 0)
(-1.11854e-11 0 0)
(-2.64299e-11 0 0)
(2.24353e-11 0 0)
(4.96254e-11 0 0)
(2.53017e-11 0 0)
(3.4382e-11 0 0)
(9.12521e-12 0 0)
(6.46385e-12 0 0)
(7.62438e-12 0 0)
(1.92598e-11 0 0)
(1.32157e-11 0 0)
(-9.08581e-12 0 0)
(-1.13009e-12 0 0)
(-3.28627e-11 0 0)
(-8.92409e-11 0 0)
(-1.15991e-10 0 0)
(-9.62622e-11 0 0)
(-2.86346e-11 0 0)
(6.99309e-11 0 0)
(9.04833e-11 0 0)
(4.19635e-11 0 0)
(4.69142e-11 0 0)
(1.02707e-10 0 0)
(8.55379e-11 0 0)
(1.9556e-11 0 0)
(3.15474e-11 0 0)
(6.21717e-11 0 0)
(1.06087e-10 0 0)
(8.24133e-11 0 0)
(6.37577e-11 0 0)
(9.27975e-11 0 0)
(1.17186e-10 0 0)
(1.09016e-10 0 0)
(7.40103e-11 0 0)
(-3.21415e-11 0 0)
(-5.15993e-11 0 0)
(2.08048e-11 0 0)
(7.74553e-11 0 0)
(1.03297e-10 0 0)
(6.53149e-11 0 0)
(5.69433e-11 0 0)
(3.65804e-11 0 0)
(9.45065e-11 0 0)
(8.84365e-11 0 0)
(5.69637e-11 0 0)
(4.29471e-11 0 0)
(4.80431e-11 0 0)
(6.42577e-11 0 0)
(6.29706e-11 0 0)
(3.73826e-11 0 0)
(4.42334e-12 0 0)
(3.12592e-12 0 0)
(-2.48455e-11 0 0)
(-8.83436e-11 0 0)
(-3.85195e-11 0 0)
(-5.89248e-12 0 0)
(-2.44294e-11 0 0)
(-1.45712e-11 0 0)
(3.15984e-11 0 0)
(1.32135e-11 0 0)
(-1.19446e-11 0 0)
(-9.70516e-12 0 0)
(-3.34144e-11 0 0)
(-1.04901e-10 0 0)
(-1.22919e-10 0 0)
(-1.10359e-10 0 0)
(-6.53398e-11 0 0)
(-8.66095e-12 0 0)
(3.67987e-11 0 0)
(8.52869e-11 0 0)
(1.10483e-10 0 0)
(9.56807e-11 0 0)
(4.67405e-11 0 0)
(6.24489e-11 0 0)
(2.63374e-11 0 0)
(-8.33936e-11 0 0)
(-1.17448e-10 0 0)
(-1.40874e-10 0 0)
(-1.06875e-10 0 0)
(-6.8342e-11 0 0)
(-8.91623e-11 0 0)
(-1.30604e-10 0 0)
(-1.40724e-10 0 0)
(-1.06545e-10 0 0)
(-5.83066e-11 0 0)
(1.88213e-11 0 0)
(-3.28724e-11 0 0)
(-2.57657e-11 0 0)
(2.5572e-11 0 0)
(3.48333e-11 0 0)
(2.41125e-12 0 0)
(-3.19826e-15 0 0)
(3.82366e-11 0 0)
(4.25112e-11 0 0)
(-6.15114e-12 0 0)
(-8.08745e-11 0 0)
(-4.29594e-11 0 0)
(-5.87666e-13 0 0)
(3.22788e-11 0 0)
(6.83832e-12 0 0)
(-1.04798e-10 0 0)
(-9.41464e-11 0 0)
(-1.57821e-11 0 0)
(2.03423e-11 0 0)
(4.52592e-11 0 0)
(2.19744e-11 0 0)
(-1.97284e-12 0 0)
(3.07256e-11 0 0)
(3.95171e-11 0 0)
(6.49736e-11 0 0)
(1.15946e-10 0 0)
(2.08438e-10 0 0)
(2.07969e-10 0 0)
(1.75238e-10 0 0)
(1.07622e-10 0 0)
(5.27119e-11 0 0)
(2.79435e-11 0 0)
(-5.87519e-12 0 0)
(-3.75845e-11 0 0)
(-4.15538e-11 0 0)
(-6.57913e-11 0 0)
(-7.33896e-11 0 0)
(-3.02202e-11 0 0)
(-2.24807e-11 0 0)
(-1.98167e-11 0 0)
(-2.917e-11 0 0)
(-6.51659e-11 0 0)
(-3.38799e-12 0 0)
(8.20149e-11 0 0)
(1.17525e-10 0 0)
(1.45813e-10 0 0)
(1.40599e-10 0 0)
(1.55516e-10 0 0)
(1.28459e-10 0 0)
(4.50231e-11 0 0)
(1.11717e-11 0 0)
(6.50006e-12 0 0)
(-1.70745e-11 0 0)
(-1.62773e-12 0 0)
(-3.30035e-11 0 0)
(-9.53359e-11 0 0)
(-8.31963e-11 0 0)
(-7.40209e-11 0 0)
(-8.99303e-11 0 0)
(-4.83252e-11 0 0)
(1.71219e-11 0 0)
(9.75554e-11 0 0)
(4.38366e-11 0 0)
(-1.31715e-11 0 0)
(5.60467e-12 0 0)
(7.65608e-11 0 0)
(6.08704e-11 0 0)
(4.36965e-11 0 0)
(3.14465e-11 0 0)
(-2.006e-12 0 0)
(8.78956e-11 0 0)
(9.44868e-11 0 0)
(6.42369e-12 0 0)
(-3.6799e-11 0 0)
(-4.44321e-11 0 0)
(-5.35007e-12 0 0)
(4.34084e-11 0 0)
(-8.32504e-12 0 0)
(-6.55211e-11 0 0)
(-4.88863e-11 0 0)
(-3.3394e-11 0 0)
(-4.00492e-11 0 0)
(2.45967e-11 0 0)
(4.52947e-11 0 0)
(3.67244e-11 0 0)
(8.11626e-11 0 0)
(1.06198e-10 0 0)
(7.06869e-11 0 0)
(8.80156e-11 0 0)
(1.02908e-10 0 0)
(6.09902e-11 0 0)
(-1.83475e-12 0 0)
(-2.65649e-11 0 0)
(-1.59212e-11 0 0)
(6.58252e-11 0 0)
(1.21419e-10 0 0)
(1.34761e-10 0 0)
(8.02559e-11 0 0)
(1.16612e-11 0 0)
(-3.31671e-11 0 0)
(-8.29191e-11 0 0)
(-1.04415e-10 0 0)
(-1.31885e-10 0 0)
(-1.13958e-10 0 0)
(-9.18952e-11 0 0)
(-1.28393e-10 0 0)
(-1.2921e-10 0 0)
(-1.14633e-10 0 0)
(-9.62136e-11 0 0)
(-1.38622e-10 0 0)
(-1.82716e-10 0 0)
(-9.07978e-11 0 0)
(-1.39341e-11 0 0)
(-1.80783e-11 0 0)
(-2.10246e-11 0 0)
(8.03178e-12 0 0)
(-2.92997e-11 0 0)
(-4.70932e-11 0 0)
(-6.2311e-12 0 0)
(3.47754e-11 0 0)
(2.60049e-11 0 0)
(3.28437e-11 0 0)
(6.88823e-13 0 0)
(-3.47694e-11 0 0)
(-1.04193e-10 0 0)
(-9.54834e-11 0 0)
(-4.60166e-11 0 0)
(-4.68049e-11 0 0)
(-5.57867e-11 0 0)
(-5.29355e-11 0 0)
(-4.14273e-11 0 0)
(-4.60661e-11 0 0)
(-3.18752e-11 0 0)
(6.29433e-10 0 0)
(1.34882e-06 0 0)
(0.000214041 0 0)
(0.00460439 0 0)
(0.0252037 0 0)
(0.062346 0 0)
(0.104178 0 0)
(0.145097 0 0)
(0.184738 0 0)
(0.223693 0 0)
(0.262364 0 0)
(0.300932 0 0)
(0.339478 0 0)
(0.378044 0 0)
(0.416662 0 0)
(0.455358 0 0)
(0.494158 0 0)
(0.533087 0 0)
(0.572167 0 0)
(0.611414 0 0)
(0.650833 0 0)
(0.690413 0 0)
(0.730117 0 0)
(0.769863 0 0)
(0.809482 0 0)
(0.84852 0 0)
(0.885687 0 0)
(0.917221 0 0)
(0.935063 0 0)
(0.936223 0 0)
(0.926846 0 0)
(0.927468 0 0)
(0.928927 0 0)
(0.929434 0 0)
(0.930125 0 0)
(0.930389 0 0)
(0.930011 0 0)
(0.92977 0 0)
(0.929901 0 0)
(0.92991 0 0)
(0.929787 0 0)
(0.9296 0 0)
(0.929436 0 0)
(0.929425 0 0)
(0.9296 0 0)
(0.929849 0 0)
(0.929991 0 0)
(0.931243 0 0)
(0.934366 0 0)
(0.928209 0 0)
(0.923907 0 0)
(0.923949 0 0)
(0.924274 0 0)
(0.92598 0 0)
(0.930484 0 0)
(0.934941 0 0)
(0.934996 0 0)
(0.933094 0 0)
(0.928643 0 0)
(0.924344 0 0)
(0.921923 0 0)
(0.915433 0 0)
(0.853414 0 0)
(0.496557 0 0)
(0.0458485 0 0)
(0.000166779 0 0)
(1.1337e-08 0 0)
(3.19346e-11 0 0)
(5.03773e-11 0 0)
(6.90548e-11 0 0)
(4.37428e-11 0 0)
(4.68618e-11 0 0)
(8.02882e-11 0 0)
(7.73645e-11 0 0)
(6.61202e-11 0 0)
(4.59874e-11 0 0)
(-1.66335e-11 0 0)
(-1.35741e-12 0 0)
(8.47815e-11 0 0)
(9.48903e-11 0 0)
(8.37235e-11 0 0)
(7.93136e-11 0 0)
(7.87019e-11 0 0)
(4.67023e-11 0 0)
(-4.83973e-11 0 0)
(-8.39754e-11 0 0)
(-4.084e-11 0 0)
(-2.58195e-12 0 0)
(2.81272e-11 0 0)
(7.76395e-11 0 0)
(8.2494e-11 0 0)
(7.16682e-11 0 0)
(5.0528e-11 0 0)
(3.80386e-11 0 0)
(2.13885e-11 0 0)
(1.8261e-11 0 0)
(-2.36518e-12 0 0)
(-6.52209e-11 0 0)
(-1.31559e-11 0 0)
(2.99175e-11 0 0)
(-1.50628e-11 0 0)
(-7.57099e-11 0 0)
(-1.43318e-10 0 0)
(-1.47555e-10 0 0)
(-9.37815e-11 0 0)
(-5.0836e-11 0 0)
(-5.32005e-11 0 0)
(-9.63415e-11 0 0)
(-1.04608e-10 0 0)
(-6.26513e-11 0 0)
(-4.08433e-12 0 0)
(-4.96119e-12 0 0)
(-4.54361e-11 0 0)
(-7.89164e-11 0 0)
(-2.20435e-11 0 0)
(2.5578e-11 0 0)
(4.33546e-11 0 0)
(6.19768e-11 0 0)
(7.55561e-11 0 0)
(7.62321e-11 0 0)
(5.56628e-11 0 0)
(3.9044e-11 0 0)
(2.43765e-11 0 0)
(-1.11584e-11 0 0)
(2.15929e-13 0 0)
(9.42739e-11 0 0)
(1.54915e-10 0 0)
(1.7531e-10 0 0)
(6.05916e-11 0 0)
(-2.22575e-11 0 0)
(1.06288e-11 0 0)
(5.13791e-11 0 0)
(-4.28717e-12 0 0)
(-2.89829e-11 0 0)
(-1.63193e-11 0 0)
(2.50108e-11 0 0)
(6.26916e-11 0 0)
(4.93415e-11 0 0)
(7.06161e-11 0 0)
(1.31557e-10 0 0)
(1.67561e-10 0 0)
(1.00624e-10 0 0)
(4.56223e-11 0 0)
(3.90552e-12 0 0)
(-4.7673e-11 0 0)
(-8.49676e-11 0 0)
(-8.00044e-11 0 0)
(-8.50152e-11 0 0)
(-7.90255e-11 0 0)
(-6.46888e-11 0 0)
(-7.11956e-11 0 0)
(-9.87757e-11 0 0)
(-4.97834e-11 0 0)
(-9.84336e-12 0 0)
(-5.66844e-12 0 0)
(9.53688e-12 0 0)
(-3.0309e-11 0 0)
(-1.01587e-10 0 0)
(-1.22207e-10 0 0)
(-5.13873e-11 0 0)
(8.76256e-12 0 0)
(4.77845e-11 0 0)
(2.68899e-11 0 0)
(2.06042e-11 0 0)
(3.64767e-11 0 0)
(3.62343e-11 0 0)
(5.66064e-11 0 0)
(6.34341e-11 0 0)
(2.11499e-11 0 0)
(1.9072e-11 0 0)
(4.75202e-11 0 0)
(3.67986e-11 0 0)
(1.75632e-11 0 0)
(-7.73457e-12 0 0)
(-1.08616e-10 0 0)
(-1.74341e-10 0 0)
(-1.41133e-10 0 0)
(-7.87317e-11 0 0)
(-6.09527e-11 0 0)
(-7.3315e-11 0 0)
(-8.88341e-11 0 0)
(-9.9087e-11 0 0)
(-8.18439e-11 0 0)
(-4.33198e-11 0 0)
(-2.37353e-11 0 0)
(-6.34631e-12 0 0)
(1.74286e-11 0 0)
(-4.37347e-11 0 0)
(-1.04367e-10 0 0)
(-8.05281e-11 0 0)
(-6.75704e-11 0 0)
(-6.39577e-11 0 0)
(-2.66445e-11 0 0)
(-3.04056e-12 0 0)
(-5.12843e-11 0 0)
(-5.66091e-11 0 0)
(-2.67724e-11 0 0)
(9.19842e-11 0 0)
(1.77168e-10 0 0)
(2.04306e-10 0 0)
(1.40525e-10 0 0)
(5.33207e-11 0 0)
(-7.05274e-11 0 0)
(-8.54458e-11 0 0)
(-1.57522e-11 0 0)
(-1.68704e-11 0 0)
(-4.66418e-11 0 0)
(6.08963e-12 0 0)
(-2.1211e-11 0 0)
(-4.68236e-11 0 0)
(-3.15271e-11 0 0)
(2.93326e-11 0 0)
(4.44529e-11 0 0)
(4.78154e-11 0 0)
(9.17743e-11 0 0)
(1.1998e-10 0 0)
(1.13908e-10 0 0)
(4.72702e-11 0 0)
(1.19675e-11 0 0)
(1.4264e-11 0 0)
(-2.49094e-11 0 0)
(3.10949e-12 0 0)
(5.60735e-11 0 0)
(2.87521e-11 0 0)
(-3.77588e-11 0 0)
(-3.72181e-11 0 0)
(-8.26262e-12 0 0)
(4.01963e-11 0 0)
(7.96308e-11 0 0)
(3.10557e-11 0 0)
(-1.0367e-11 0 0)
(-3.46504e-11 0 0)
(-1.00126e-10 0 0)
(-1.15324e-10 0 0)
(-1.26234e-10 0 0)
(-1.05256e-10 0 0)
(-1.74355e-11 0 0)
(3.50758e-11 0 0)
(-1.48041e-11 0 0)
(-4.07894e-11 0 0)
(5.94223e-12 0 0)
(4.07722e-11 0 0)
(1.03279e-10 0 0)
(1.28539e-10 0 0)
(6.02124e-11 0 0)
(-3.7174e-12 0 0)
(-3.84588e-11 0 0)
(-5.38138e-11 0 0)
(3.71491e-12 0 0)
(8.80028e-12 0 0)
(4.17832e-11 0 0)
(9.58307e-11 0 0)
(7.16243e-11 0 0)
(-2.4449e-11 0 0)
(-5.78486e-11 0 0)
(-6.22894e-11 0 0)
(-4.70779e-11 0 0)
(-2.62358e-11 0 0)
(-4.25121e-11 0 0)
(-3.56089e-11 0 0)
(-4.15674e-11 0 0)
(4.92501e-13 0 0)
(4.26512e-11 0 0)
(6.35657e-11 0 0)
(1.51578e-11 0 0)
(-2.16351e-12 0 0)
(5.35125e-11 0 0)
(1.20543e-10 0 0)
(5.20374e-11 0 0)
(5.62217e-11 0 0)
(1.09312e-10 0 0)
(9.71648e-11 0 0)
(4.9041e-11 0 0)
(3.97113e-11 0 0)
(3.09311e-11 0 0)
(3.18154e-11 0 0)
(4.25678e-11 0 0)
(2.77562e-11 0 0)
(-2.35165e-11 0 0)
(2.11686e-11 0 0)
(7.64628e-11 0 0)
(8.04516e-11 0 0)
(7.24281e-11 0 0)
(2.34649e-11 0 0)
(-3.6258e-11 0 0)
(-8.29775e-11 0 0)
(-5.58324e-11 0 0)
(-2.67545e-11 0 0)
(-4.43442e-11 0 0)
(-6.6153e-11 0 0)
(-1.13938e-10 0 0)
(-1.04778e-10 0 0)
(-7.55383e-11 0 0)
(-9.00784e-11 0 0)
(-1.09551e-10 0 0)
(-1.19702e-10 0 0)
(-5.38358e-11 0 0)
(1.79867e-11 0 0)
(1.87661e-11 0 0)
(2.13762e-11 0 0)
(5.22123e-11 0 0)
(4.8559e-11 0 0)
(7.46411e-11 0 0)
(6.6398e-11 0 0)
(7.8119e-11 0 0)
(1.51218e-10 0 0)
(9.14996e-11 0 0)
(-1.06671e-12 0 0)
(-2.6404e-11 0 0)
(-8.70528e-13 0 0)
(5.79345e-12 0 0)
(7.18695e-12 0 0)
(2.09805e-11 0 0)
(1.09193e-11 0 0)
(4.35416e-11 0 0)
(5.9969e-11 0 0)
(4.88364e-11 0 0)
(4.75038e-11 0 0)
(3.69051e-11 0 0)
(2.68143e-11 0 0)
(1.42053e-11 0 0)
(1.72844e-11 0 0)
(-1.20245e-11 0 0)
(-3.36853e-11 0 0)
(-1.59251e-11 0 0)
(-4.64668e-11 0 0)
(-5.77709e-11 0 0)
(-7.12451e-11 0 0)
(-4.3136e-11 0 0)
(-1.22759e-11 0 0)
(2.63889e-11 0 0)
(5.2032e-11 0 0)
(-3.35553e-11 0 0)
(-4.65209e-11 0 0)
(-4.28456e-11 0 0)
(-1.00017e-10 0 0)
(-8.59749e-11 0 0)
(-3.43475e-12 0 0)
(1.20939e-11 0 0)
(2.76043e-12 0 0)
(9.11587e-11 0 0)
(1.37666e-10 0 0)
(1.02055e-10 0 0)
(3.25768e-11 0 0)
(-5.05221e-11 0 0)
(-9.58624e-11 0 0)
(-1.18614e-10 0 0)
(-9.90457e-11 0 0)
(-4.54157e-11 0 0)
(1.06786e-11 0 0)
(3.64083e-12 0 0)
(-6.27006e-12 0 0)
(2.49343e-11 0 0)
(3.361e-11 0 0)
(6.19004e-12 0 0)
(-4.66842e-11 0 0)
(-6.01268e-11 0 0)
(-5.58479e-11 0 0)
(-6.52805e-11 0 0)
(-4.49119e-11 0 0)
(5.55083e-12 0 0)
(-3.51678e-11 0 0)
(-5.19445e-11 0 0)
(-3.33904e-11 0 0)
(-4.53961e-11 0 0)
(-5.80239e-11 0 0)
(-3.1285e-11 0 0)
(-2.32964e-11 0 0)
(-5.22773e-11 0 0)
(-8.56523e-12 0 0)
(3.71834e-12 0 0)
(-1.71448e-11 0 0)
(-1.05529e-11 0 0)
(6.63668e-11 0 0)
(8.60742e-11 0 0)
(2.25541e-11 0 0)
(-2.7757e-11 0 0)
(-5.37774e-11 0 0)
(-6.38971e-11 0 0)
(-4.045e-11 0 0)
(-4.03258e-11 0 0)
(-3.50531e-11 0 0)
(1.22583e-11 0 0)
(3.21652e-11 0 0)
(5.26754e-11 0 0)
(9.67993e-11 0 0)
(1.34019e-10 0 0)
(1.24203e-10 0 0)
(4.84002e-11 0 0)
(-3.37986e-11 0 0)
(-2.70502e-11 0 0)
(-5.66459e-14 0 0)
(1.59667e-12 0 0)
(-2.92599e-11 0 0)
(-4.96e-11 0 0)
(-5.59877e-11 0 0)
(-1.37085e-11 0 0)
(3.26786e-11 0 0)
(4.62955e-11 0 0)
(1.39801e-11 0 0)
(2.39101e-11 0 0)
(1.46294e-11 0 0)
(2.63685e-11 0 0)
(2.99384e-11 0 0)
(4.70699e-11 0 0)
(9.08948e-11 0 0)
(1.06335e-10 0 0)
(7.34568e-11 0 0)
(8.68064e-11 0 0)
(8.54595e-11 0 0)
(1.07282e-10 0 0)
(1.11106e-10 0 0)
(9.70751e-11 0 0)
(7.56603e-11 0 0)
(9.77753e-11 0 0)
(7.20505e-11 0 0)
(-1.47069e-11 0 0)
(-6.26406e-11 0 0)
(-6.33836e-11 0 0)
(-1.14156e-10 0 0)
(-1.73497e-10 0 0)
(-1.11087e-10 0 0)
(-8.2278e-11 0 0)
(-1.3283e-10 0 0)
(-1.39497e-10 0 0)
(-1.06678e-10 0 0)
(-8.60293e-11 0 0)
(-3.83519e-11 0 0)
)
;

boundaryField
{
    left
    {
        type            noSlip;
    }
    right
    {
        type            noSlip;
    }
    empty
    {
        type            empty;
    }
}


// ************************************************************************* //
