/*--------------------------------*- C++ -*----------------------------------*\
| =========                 |                                                 |
| \\      /  F ield         | OpenFOAM: The Open Source CFD Toolbox           |
|  \\    /   O peration     | Version:  2106                                  |
|   \\  /    A nd           | Website:  www.openfoam.com                      |
|    \\/     M anipulation  |                                                 |
\*---------------------------------------------------------------------------*/
FoamFile
{
    version     2.0;
    format      ascii;
    arch        "LSB;label=32;scalar=64";
    class       volScalarField;
    location    "0.05";
    object      p;
}
// * * * * * * * * * * * * * * * * * * * * * * * * * * * * * * * * * * * * * //

dimensions      [0 2 -2 0 0 0 0];

internalField   nonuniform List<scalar> 
9600
(
2.39625244775
-0.50175037526
-1.40594320772
-1.79147919703
-2.01068893541
-2.15045487341
-2.25412909119
-2.34140536508
-2.42061288775
-2.49572433536
-2.56886949289
-2.6412369616
-2.71348780949
-2.78597549394
-2.85886785116
-2.93222100907
-3.00602447772
-3.08023127967
-3.15477728315
-3.2295989962
-3.30463451376
-3.37982896573
-3.45513627871
-3.53052057161
-3.60595416384
-3.68141689443
-3.75689477666
-3.83237812045
-3.90786028204
-3.98333685867
-4.05880464046
-4.13426114059
-4.20970438533
-4.28513286053
-4.36054485969
-4.43593923766
-4.5113141674
-4.58666819436
-4.6619994381
-4.73730585723
-4.81258550631
-4.88783633568
-4.96305579813
-5.03824092243
-5.11338849713
-5.18849520191
-5.26355752265
-5.3385717467
-5.41353378004
-5.48843925697
-5.56328357339
-5.63806180138
-5.71276853239
-5.78739791034
-5.86194368154
-5.9363991039
-6.0107569563
-6.08500958876
-6.1591488624
-6.2331660188
-6.30705163795
-6.38079570264
-6.45438761035
-6.52781611397
-6.60106929967
-6.67413459038
-6.74699865987
-6.81964728935
-6.89206527247
-6.96423643783
-7.0361437028
-7.10776906404
-7.17909353844
-7.25009711616
-7.32075872946
-7.39105620069
-7.46096614584
-7.5304638636
-7.59952326438
-7.66811686652
-7.73621584076
-7.80379005274
-7.87080805627
-7.93723700692
-8.00304249747
-8.06818837438
-8.13263664246
-8.19634752483
-8.25927962196
-8.32139000836
-8.38263414114
-8.44296561722
-8.50233596075
-8.56069460751
-8.61798909137
-8.67416525389
-8.72916725507
-8.7829373421
-8.83541551703
-8.8865394291
-8.93624457378
-8.98446463947
-9.03113165433
-9.07617582525
-9.1195252416
-9.16110574882
-9.20084116557
-9.23865358026
-9.27446339278
-9.30818921433
-9.33974771749
-9.36905372415
-9.39602040824
-9.42055953964
-9.44258137246
-9.46199464424
-9.4787067639
-9.4926240115
-9.50365148628
-9.51169292173
-9.5166507707
-9.51842675824
-9.51692230857
-9.51203850757
-9.50367600198
-9.49173418772
-9.47611108062
-9.45670561531
-9.43341667216
-9.40614263987
-9.37478150365
-9.33923111006
-9.29938897933
-9.25515178748
-9.20641556867
-9.15307606881
-9.09502793319
-9.0321631962
-8.96437074617
-8.89153654504
-8.81354256149
-8.73026413252
-8.64156755393
-8.54730798726
-8.44732607879
-8.34144332732
-8.22945608258
-8.11112609416
-7.98616782855
-7.85423263304
-7.71488236139
-7.56754411615
-7.41143868875
-7.24545353066
-7.06790857857
-6.87621005933
-6.66634018065
-6.43195393352
-6.17217313513
-5.96205352803
0.484706779136
-0.697643977943
-1.30629683298
-1.66027739512
-1.9028192963
-2.07326907048
-2.20118735946
-2.30550299613
-2.39637487607
-2.47945615104
-2.55806634429
-2.63418580026
-2.7090012228
-2.78322296786
-2.85726656353
-2.93136363747
-3.00563122549
-3.08011810629
-3.15480770569
-3.22969912454
-3.30475723951
-3.37994794873
-3.45523957475
-3.53060401952
-3.6060185781
-3.6814650611
-3.75692965851
-3.83240283013
-3.90787748542
-3.9833486663
-4.05881297481
-4.13426750056
-4.20970982117
-4.28513813874
-4.36055044056
-4.4359448824
-4.51131995688
-4.58667417248
-4.66200587175
-4.73731302195
-4.81259352214
-4.88784513207
-4.96306532215
-5.03825126747
-5.11339975004
-5.18850740033
-5.26357066485
-5.3385858725
-5.413549049
-5.48845591851
-5.56330177017
-5.63808152213
-5.71278977166
-5.78742078541
-5.86196833778
-5.93642566488
-6.01078556434
-6.08504042536
-6.15918209312
-6.23320177879
-6.3070900709
-6.38083696922
-6.45443187208
-6.52786354273
-6.60112010633
-6.67418902157
-6.74705696473
-6.81970968886
-6.89213197032
-6.9643076507
-7.03621967099
-7.10785004703
-7.17917981506
-7.25018899092
-7.32085653238
-7.39116027494
-7.4610768332
-7.5305814982
-7.59964817417
-7.66824937975
-7.73635630031
-7.80393884038
-7.87096560887
-7.93740379793
-8.00321898509
-8.06837495825
-8.13283367331
-8.19655536509
-8.25949870932
-8.32162087076
-8.38287734834
-8.44322169898
-8.50260535797
-8.5609777125
-8.61828635369
-8.67447725526
-8.72949466486
-8.78328078144
-8.83577545267
-8.88691621187
-8.93663859623
-8.98487647222
-9.0315620135
-9.07662539669
-9.11999456056
-9.16159524116
-9.20135126096
-9.23918480225
-9.27501629705
-9.30876423833
-9.34034511353
-9.36967377521
-9.39666356802
-9.42122622279
-9.44327188661
-9.4627092632
-9.47944586044
-9.49338806369
-9.50444093962
-9.51250808905
-9.51749198639
-9.51929462191
-9.51781761968
-9.51296176934
-9.50462653696
-9.49271104332
-9.47711531551
-9.45773882055
-9.43448055667
-9.40723906579
-9.37591309278
-9.34040161771
-9.30060321994
-9.25641576837
-9.20773701884
-9.15446472875
-9.09649560105
-9.03372449247
-8.96604461901
-8.89334712769
-8.81551935836
-8.73244370121
-8.64399701196
-8.55004775826
-8.45045197311
-8.34505156641
-8.23367162829
-8.11611240939
-7.99214080534
-7.86148282386
-7.72381010387
-7.57872097145
-7.42571942446
-7.26419383758
-7.09340935156
-6.91261027504
-6.72140922982
-6.51979347332
-6.30906503068
-6.11647062336
-0.491153130696
-0.972515765896
-1.36376402216
-1.65535761978
-1.87688865871
-2.04475350453
-2.176752046
-2.28640789608
-2.38211602683
-2.46911075492
-2.55072741735
-2.62908726923
-2.70553632917
-2.78092654031
-2.85578878672
-2.93044664191
-3.00508642935
-3.0798023269
-3.15465609174
-3.22963981931
-3.30474815499
-3.37996362865
-3.45526476332
-3.53063039636
-3.60604214123
-3.68148448444
-3.75694515092
-3.83241494763
-3.9078869578
-3.98335603303
-4.05881861083
-4.13427182278
-4.20971339999
-4.28514101232
-4.36055315193
-4.43594764081
-4.51132278755
-4.58667714578
-4.6620089296
-4.73731628897
-4.81259717517
-4.88784920188
-4.96306969451
-5.0382558807
-5.11340477297
-5.18851293289
-5.26357671646
-5.33859242326
-5.41355611511
-5.48846354183
-5.56331000245
-5.63809045059
-5.71279944972
-5.78743121339
-5.86197949439
-5.93643760129
-6.01079839414
-6.08505425124
-6.15919698232
-6.23321779221
-6.30710728795
-6.38085547524
-6.45445175133
-6.52788489659
-6.60114306324
-6.67421369182
-6.74708340753
-6.81973792826
-6.89216205614
-6.9643396814
-7.0362537822
-7.10788639127
-7.17921855251
-7.25023028454
-7.32090053698
-7.39120712491
-7.46112664369
-7.53063438519
-7.59970427771
-7.66830887306
-7.7364193835
-7.80400572964
-7.87103652343
-7.93747893553
-8.00329849173
-8.06845892383
-8.13292217704
-8.1966485461
-8.25959680448
-8.32172418416
-8.38298617582
-8.44333626838
-8.50272583332
-8.56110425674
-8.61841918971
-8.67461666365
-8.72964089939
-8.78343398091
-8.83593565994
-8.88708348594
-8.93681307543
-8.98505848646
-9.03175190081
-9.07682334991
-9.12020060951
-9.16180942278
-9.20157377552
-9.23941598399
-9.27525646556
-9.30901363062
-9.34060414076
-9.36994294171
-9.39694337967
-9.4215171761
-9.44357437587
-9.46302360105
-9.47977237801
-9.49372712977
-9.50479290896
-9.51287339413
-9.51787136243
-9.51968915408
-9.51822852288
-9.51339024046
-9.5050743735
-9.49318071501
-9.47760921099
-9.45825940322
-9.43503029376
-9.40782080684
-9.37653046181
-9.34105897214
-9.30130566395
-9.25716975002
-9.20855080769
-9.1553482597
-9.09746058261
-9.03478562028
-8.96722091337
-8.89466225559
-8.81700199017
-8.7341292629
-8.64593015168
-8.55228506939
-8.45306573443
-8.34813381191
-8.23733893702
-8.12051528426
-7.99747774534
-7.86801709092
-7.73189687774
-7.58885358049
-7.43859871433
-7.28084187824
-7.11535568111
-6.94213835346
-6.76182994854
-6.57600499278
-6.3870591348
-6.20568458164
-1.04263381935
-1.22897292796
-1.47141495032
-1.69387370706
-1.88104351645
-2.03503083798
-2.16340293992
-2.27360246266
-2.37128784264
-2.46053487027
-2.54420957759
-2.62428050952
-2.70207929867
-2.77849740188
-2.85412132064
-2.92932974919
-3.00435838673
-3.07934704381
-3.15437649322
-3.22947717251
-3.30466020451
-3.37992101522
-3.45524847072
-3.53062846431
-3.60604694012
-3.68149176356
-3.75695273069
-3.83242162113
-3.90789258738
-3.98336095435
-4.05882287362
-4.13427535688
-4.20971624025
-4.28514344433
-4.36055509217
-4.43594936894
-4.51132455829
-4.58667895158
-4.66201085229
-4.73731843031
-4.81259961799
-4.88785193917
-4.96307272818
-5.03825918011
-5.11340819249
-5.18851640893
-5.2635803761
-5.33859640276
-5.41356048906
-5.48846835334
-5.56331528845
-5.63809621211
-5.71280564499
-5.78743780587
-5.86198650547
-5.93644508944
-6.01080642654
-6.08506288174
-6.15920625228
-6.23322773912
-6.30711795173
-6.38086690852
-6.45446402753
-6.52789810634
-6.60115727755
-6.67422894883
-6.74709970378
-6.8197552573
-6.89218042807
-6.9643591523
-7.03627445547
-7.10790840036
-7.17924203442
-7.25025535282
-7.32092726771
-7.39123556434
-7.46115683231
-7.53066638493
-7.59973818901
-7.66834483444
-7.73645755498
-7.80404626716
-7.87107955333
-7.9375245377
-8.00334669984
-8.06850974977
-8.13297565642
-8.19670478103
-8.25965597223
-8.32178649819
-8.38305182759
-8.44340540288
-8.50279857997
-8.56118077994
-8.61849969988
-8.6747013608
-8.72972988917
-8.78352725642
-8.83603321185
-8.88718546382
-8.93691998257
-8.9851708027
-9.03186996954
-9.07694730303
-9.12033047702
-9.16194532981
-9.20171605088
-9.23956502913
-9.27541256816
-9.30917688996
-9.34077450112
-9.37012046191
-9.39712832984
-9.42170984746
-9.44377497355
-9.46323228463
-9.47998935038
-9.49395265276
-9.50502730079
-9.51311711966
-9.51812512287
-9.51995381471
-9.51850489021
-9.51367906496
-9.5053766373
-9.49349797305
-9.47794334587
-9.45861238819
-9.43540448914
-9.40821957108
-9.37695820885
-9.3415208333
-9.30180758087
-9.25771909018
-9.20915673008
-9.15602179184
-9.09821518491
-9.03563809734
-8.96819184931
-8.89577658631
-8.81829074221
-8.73563126044
-8.64769292428
-8.55436744142
-8.45554250782
-8.35109941429
-8.24091168221
-8.1248463307
-8.00276266851
-7.87450980874
-7.7399308741
-7.5988726204
-7.45119953515
-7.29682622973
-7.13578468089
-6.96833973151
-6.79519762688
-6.61759606701
-6.43692472936
-6.25674085073
-1.37999819504
-1.43175467146
-1.57564688633
-1.73993817887
-1.89426345696
-2.03230101318
-2.15441644383
-2.26314611209
-2.36151518385
-2.45226497722
-2.53760412281
-2.61920670938
-2.69829725775
-2.77574891577
-2.85217035321
-2.92797679765
-3.00344219309
-3.07874365206
-3.15398893564
-3.22923666964
-3.30451703998
-3.37984047238
-3.45520672834
-3.53060980968
-3.60604140099
-3.68149304614
-3.75695712628
-3.83242706374
-3.90789780153
-3.98336545783
-4.05882667268
-4.13427887187
-4.20971923228
-4.28514597636
-4.36055735158
-4.43595151618
-4.51132665636
-4.58668108356
-4.66201306811
-4.73732078513
-4.81260208459
-4.88785456267
-4.96307564849
-5.03826247737
-5.11341184983
-5.18852044426
-5.26358478419
-5.33860113599
-5.41356555629
-5.48847379905
-5.56332121623
-5.6381025985
-5.71281248131
-5.78744508767
-5.86199424565
-5.9364533241
-6.01081522579
-6.08507233017
-6.15921641901
-6.2332386834
-6.30712973592
-6.38087961715
-6.45447775634
-6.52791294222
-6.60117328197
-6.67424614087
-6.74711807823
-6.81977480163
-6.89220116497
-6.9643811559
-7.03629785517
-7.10793335918
-7.17926870821
-7.25028385339
-7.32095765643
-7.39126787965
-7.46119113102
-7.53070276906
-7.59977680712
-7.66838586318
-7.73650117236
-7.80409262397
-7.87112875075
-7.93757662506
-8.00340170201
-8.06856771171
-8.13303667454
-8.19676900731
-8.25972359181
-8.32185769125
-8.38312673849
-8.44348414737
-8.50288128788
-8.56126762665
-8.61859088116
-8.67479701178
-8.72983002468
-8.78363180692
-8.83614213456
-8.88729888571
-8.93703814203
-8.98529398388
-9.03199827899
-9.0770806737
-9.12046886617
-9.16208887383
-9.20186502936
-9.23971969388
-9.27557302187
-9.30934321091
-9.34094689964
-9.37029932633
-9.39731403795
-9.42190261266
-9.44397487851
-9.46343946297
-9.48020408537
-9.49417533475
-9.50525840288
-9.51335723938
-9.51837500735
-9.52021422479
-9.51877656412
-9.51396301607
-9.5056743968
-9.49381143724
-9.47827444462
-9.45896314008
-9.43577755834
-9.40861864436
-9.37738776217
-9.34198600612
-9.30231461011
-9.25827578464
-9.20977256066
-9.15670820742
-9.09898649348
-9.03651195651
-8.96918922193
-8.89692281693
-8.81961784399
-8.73717920637
-8.64951018117
-8.55651328796
-8.45809075807
-8.35414221462
-8.2445644095
-8.12925353949
-8.00810597325
-7.88101986936
-7.74790031299
-7.60867171644
-7.4632964511
-7.31179784194
-7.15430784579
-6.99112147376
-6.82275471359
-6.64985380333
-6.47270906268
-6.29153490154
-1.58408936847
-1.57910717588
-1.66308290383
-1.78387506534
-1.91051879506
-2.03319113867
-2.14806729199
-2.25422738202
-2.35246131778
-2.44419656584
-2.53091397158
-2.61391428091
-2.69425371425
-2.7727455451
-2.84999461566
-2.92643775913
-3.00237945383
-3.07802767142
-3.15351889668
-3.22893801837
-3.30433388904
-3.37973343502
-3.45514798787
-3.53058054702
-3.60602945223
-3.68149056738
-3.75695938849
-3.8324315792
-3.90790298281
-3.98337023222
-4.05883074896
-4.13428216176
-4.20972203828
-4.28514834085
-4.36055931788
-4.43595321408
-4.5113282847
-4.58668275626
-4.6620149006
-4.73732288578
-4.81260446577
-4.88785715096
-4.96307832281
-5.03826516857
-5.11341463562
-5.18852346359
-5.26358811472
-5.33860479147
-5.41356956762
-5.48847819825
-5.5633259228
-5.6381076086
-5.71281782004
-5.78745076723
-5.86200025914
-5.9364596845
-6.01082198915
-6.08507956091
-6.15922416401
-6.23324698584
-6.30713866407
-6.38088925604
-6.45448818546
-6.52792421527
-6.60118542229
-6.67425914528
-6.7471319238
-6.8197894669
-6.892216662
-6.96439755827
-7.03631529263
-7.10795197891
-7.17928862614
-7.25030512659
-7.32098029344
-7.3912918811
-7.46121653484
-7.53072967178
-7.59980535155
-7.668416206
-7.73653345231
-7.80412694071
-7.87116515594
-7.93761513147
-8.00344231538
-8.06861047188
-8.13308167863
-8.19681639828
-8.25977352314
-8.32191029476
-8.38318211856
-8.44354240829
-8.502942577
-8.56133214472
-8.61865882622
-8.67486850202
-8.7299050813
-8.78371043803
-8.83622447608
-8.88738523069
-8.93712882959
-8.98538924589
-9.03209816794
-9.07718516852
-9.12057808281
-9.16220312613
-9.20198465601
-9.23984486005
-9.27570372087
-9.30947946436
-9.34108892111
-9.37044745922
-9.39746856314
-9.42206364516
-9.44414250601
-9.46361394687
-9.48038587268
-9.49436492531
-9.50545628543
-9.5135640025
-9.51859137059
-9.52044097895
-9.51901456039
-9.51421342297
-9.50593881906
-9.49409168257
-9.47857239998
-9.45928118044
-9.43611893496
-9.40898731034
-9.37778802202
-9.34242285358
-9.30279449511
-9.25880682548
-9.21036431139
-9.15737203585
-9.09973648456
-9.03736534177
-8.97016668457
-8.89804956537
-8.82092480804
-8.73870401849
-8.65129885173
-8.55862201983
-8.46058773296
-8.35711145879
-8.24811024706
-8.13350324256
-8.01321496368
-7.88717968709
-7.75534462836
-7.61768128721
-7.47419984537
-7.32496425086
-7.17010999283
-7.00985970953
-6.844498639
-6.67424553337
-6.49882763046
-6.31736830751
-1.70723280093
-1.68177776041
-1.73114305749
-1.8213115431
-1.92624494677
-2.03556975243
-2.14339835485
-2.2466012339
-2.34424397177
-2.43660006009
-2.52444744546
-2.60869455239
-2.69019959799
-2.76969234547
-2.84775577722
-2.92483589072
-3.00126147912
-3.07726703816
-3.15301506873
-3.22861422183
-3.30413292386
-3.37961424623
-3.45508151928
-3.53054673905
-3.60601495896
-3.68148683294
-3.75696103444
-3.83243551636
-3.90790780186
-3.98337477699
-4.05883468444
-4.13428541389
-4.20972472004
-4.28515054777
-4.36056111601
-4.43595475731
-4.51132973635
-4.58668420518
-4.66201643875
-4.7373245762
-4.81260638727
-4.88785939591
-4.96308086297
-5.0382678335
-5.11341729214
-5.18852612386
-5.26359093884
-5.33860797862
-5.41357319723
-5.48848217901
-5.56333018487
-5.63811211226
-5.71282254681
-5.78745571195
-5.86200544468
-5.93646517278
-6.01082784822
-6.08508583423
-6.15923088964
-6.2332542199
-6.30714648544
-6.38089773836
-6.45449738028
-6.52793415568
-6.60119612694
-6.67427060853
-6.74714411374
-6.81980235406
-6.8922302658
-6.96441197256
-7.0363306633
-7.10796844885
-7.17930628559
-7.25032400027
-7.32100036849
-7.39131315644
-7.4612390619
-7.5307535633
-7.59983075496
-7.66844326011
-7.7365622536
-7.80415753632
-7.87119756141
-7.93764935931
-8.00347839996
-8.06864848276
-8.13312171843
-8.19685858255
-8.2598179509
-8.32195703283
-8.38323121424
-8.44359392281
-8.50299661599
-8.56138885171
-8.61871832446
-8.67493083683
-8.72997023375
-8.78377842143
-8.83629543037
-8.88745939258
-8.93720639248
-8.98547026384
-9.03218260007
-9.07727303415
-9.12066958286
-9.1622985992
-9.20208437177
-9.23994888013
-9.2758120325
-9.309592159
-9.34120626407
-9.37056972791
-9.39759589157
-9.42219610721
-9.44428034952
-9.46375767439
-9.48053608037
-9.49452209441
-9.50562081691
-9.51373641249
-9.51877236206
-9.52063136177
-9.51921531203
-9.51442576577
-9.50616424426
-9.49433186041
-9.4788293077
-9.45955749125
-9.4364180465
-9.40931296901
-9.37814428196
-9.34281476509
-9.30322868809
-9.25929132299
-9.21090834787
-9.15798660043
-9.1004349702
-9.03816400726
-8.97108549519
-8.8991128024
-8.82216099941
-8.74014716588
-8.65299105056
-8.56061445388
-8.46294112634
-8.35989899136
-8.25142071046
-8.13744341919
-8.01791240947
-7.89278511135
-7.76203482365
-7.62565632675
-7.48367653715
-7.33616167715
-7.18321764399
-7.02497971749
-6.86156900624
-6.69298082922
-6.51881604997
-6.33818757935
-1.78128686985
-1.7502439912
-1.78018729515
-1.8499760698
-1.93916168731
-2.03805079526
-2.13993228493
-2.24039495696
-2.33730266599
-2.43002797953
-2.51875451827
-2.60403725661
-2.68654352492
-2.76691454526
-2.84570388707
-2.92335846106
-3.00022412364
-3.07655738153
-3.15254280439
-3.22830946308
-3.30394316944
-3.37950114248
-3.45501813118
-3.53051432303
-3.60600081675
-3.68148295371
-3.75696255443
-3.8324394527
-3.90791232799
-3.98337929668
-4.05883860766
-4.13428852591
-4.20972715936
-4.28515250352
-4.3605626022
-4.43595587598
-4.51133073238
-4.58668538891
-4.66201791793
-4.73732618769
-4.81260802864
-4.88786113268
-4.96308279299
-5.03826998351
-5.11341962606
-5.18852856829
-5.26359345529
-5.33861063965
-5.41357609902
-5.4884853872
-5.56333367005
-5.6381158036
-5.71282638153
-5.78745966535
-5.86200955723
-5.93646952238
-6.01083249445
-6.08509080533
-6.15923621101
-6.23325993444
-6.3071526407
-6.38090437799
-6.45450454765
-6.52794189348
-6.60120446146
-6.67427952904
-6.74715358062
-6.81981234138
-6.89224080508
-6.96442316142
-7.03634262918
-7.10798129452
-7.17932005331
-7.25033867667
-7.32101592372
-7.39132959157
-7.46125643638
-7.53077198766
-7.59985035451
-7.66846413148
-7.73658443992
-7.80418103731
-7.87122237274
-7.93767551239
-8.00350597263
-8.06867757895
-8.13315243853
-8.19689100314
-8.25985211754
-8.32199296779
-8.38326894081
-8.44363349336
-8.50303812376
-8.56143242005
-8.61876407293
-8.6749788506
-8.7300205718
-8.78383116457
-8.83635072013
-8.88751738663
-8.93726716064
-8.98553376546
-9.03224879897
-9.07734205164
-9.12074168103
-9.16237403029
-9.20216322206
-9.24003108163
-9.27589756935
-9.30968119409
-9.34129905292
-9.37066641319
-9.39769646676
-9.4223006862
-9.44438938918
-9.46387184509
-9.48065591068
-9.49464785051
-9.50575279098
-9.51387518052
-9.51891876385
-9.52078625166
-9.5193795951
-9.51460058374
-9.50635100983
-9.49453229017
-9.47904556391
-9.45979229681
-9.43667450545
-9.40959444533
-9.37845482947
-9.3431597093
-9.3036145566
-9.259725518
-9.21139959365
-9.15854569226
-9.10107481744
-9.0388997923
-8.9719356927
-8.90009972479
-8.82331076193
-8.7414908426
-8.65456629181
-8.56246616843
-8.46512247993
-8.36247275628
-8.25446110036
-8.1410387606
-8.02216490069
-7.89781127147
-7.7679662175
-7.63263581544
-7.49185205378
-7.34566942894
-7.19416729151
-7.0374246449
-6.8754874556
-6.70830115991
-6.53556640405
-6.35674502177
-1.82352853208
-1.79197608805
-1.8116401351
-1.86910994113
-1.94814893697
-2.03994892484
-2.13757770798
-2.23596397827
-2.33223454836
-2.42515551094
-2.51448570914
-2.60051391657
-2.68375828106
-2.76478640482
-2.84412441597
-2.92221712585
-2.99942012646
-3.07600557989
-3.15217455934
-3.22807103109
-3.30379470719
-3.37941259105
-3.45496837798
-3.53048878891
-3.60598969614
-3.68147998492
-3.75696337345
-3.83244201409
-3.90791549623
-3.98338246579
-4.05884140323
-4.13429070777
-4.20972883483
-4.28515384999
-4.36056378233
-4.43595689799
-4.51133157588
-4.58668623993
-4.66201899782
-4.73732755215
-4.81260957413
-4.88786267008
-4.96308423439
-5.03827144337
-5.11342127764
-5.18853046537
-5.26359554235
-5.33861286991
-5.41357849256
-5.48848794832
-5.56333637462
-5.63811861941
-5.71282927973
-5.78746265424
-5.86201268345
-5.93647283934
-6.0108360325
-6.08509458444
-6.15924025323
-6.23326425827
-6.30715725564
-6.38090930352
-6.45450983343
-6.52794760266
-6.60121062635
-6.67428612831
-6.74716056765
-6.81981970196
-6.89224859087
-6.96443147444
-7.03635157248
-7.10799092595
-7.17933037147
-7.25034964417
-7.32102751157
-7.39134181729
-7.461269372
-7.53078573276
-7.59986499278
-7.66847970021
-7.73660093105
-7.80419842952
-7.87124067504
-7.93769478954
-8.00352633169
-8.06869912589
-8.13317523834
-8.19691507075
-8.2598774354
-8.32201951204
-8.38329670722
-8.44366251421
-8.50306846741
-8.56146417575
-8.61879733948
-8.67501373059
-8.73005717581
-8.78386960301
-8.83639107568
-8.88755969182
-8.93731139657
-8.98557990329
-9.03229689299
-9.07739228991
-9.12079429629
-9.16242914375
-9.2022207952
-9.24009102831
-9.27595992621
-9.30974616301
-9.34136683186
-9.37073704301
-9.3977699451
-9.4223772586
-9.44446963347
-9.46395638988
-9.48074508682
-9.49474180496
-9.50585186607
-9.51398008253
-9.51903034069
-9.5209053165
-9.51950703396
-9.51473755095
-9.50649894166
-9.49469291084
-9.47922099372
-9.45998507464
-9.43688746613
-9.40983089548
-9.37871906905
-9.34345713318
-9.30395120388
-9.2601081866
-9.21183680789
-9.15904811889
-9.10165479619
-9.03957144213
-8.97271581861
-8.90100857929
-8.8243727376
-8.7427348306
-8.65602558716
-8.56417987457
-8.4671375107
-8.36484374829
-8.2572512916
-8.1443214853
-8.02602344219
-7.90233983828
-7.77326765111
-7.63882152171
-7.4990333067
-7.35395395863
-7.20365222868
-7.04819465507
-6.88762434192
-6.72194031547
-6.55103646609
-6.37476370167
-1.84278190209
-1.81169934608
-1.82694601357
-1.87864249604
-1.95273086065
-2.04095912015
-2.1363795381
-2.23365150728
-2.32955667917
-2.42255842749
-2.5121952096
-2.59861366105
-2.68224988011
-2.76363026107
-2.84326415326
-2.92159411064
-2.99898049586
-3.07570343958
-3.15197253368
-3.22793964993
-3.30371295153
-3.37936365866
-3.45494056255
-3.53047436161
-3.60598330741
-3.68147816962
-3.75696407905
-3.83244363136
-3.90791728621
-3.98338429966
-4.05884311915
-4.13429205939
-4.20972961833
-4.2851542076
-4.36056413758
-4.43595742543
-4.51133221424
-4.58668692639
-4.66201976873
-4.73732855303
-4.81261084027
-4.88786403177
-4.9630855088
-5.03827261573
-5.11342245178
-5.18853174684
-5.26359701216
-5.33861454836
-5.4135803268
-5.48848986194
-5.56333831247
-5.6381205617
-5.71283124201
-5.78746468399
-5.8620148346
-5.93647514931
-6.01083851292
-6.08509722937
-6.15924305106
-6.23326719077
-6.30716030902
-6.3809124943
-6.45451322044
-6.5279512566
-6.60121458052
-6.67429036369
-6.74716505012
-6.8198244359
-6.89225363744
-6.96443692212
-7.03635748671
-7.10799731598
-7.17933719463
-7.25035684455
-7.32103506555
-7.39134976014
-7.4612777847
-7.53079469411
-7.59987452995
-7.66848977784
-7.73661149062
-7.80420944985
-7.87125220718
-7.93770694396
-8.00353923049
-8.0687128516
-8.13318980988
-8.19693045755
-8.25989358915
-8.32203638808
-8.38331427291
-8.4436807623
-8.5030874341
-8.5614839493
-8.61881804456
-8.67503550326
-8.73008013068
-8.7838938023
-8.83641651839
-8.88758631701
-8.93733915054
-8.98560880903
-9.03232707887
-9.07742392873
-9.12082749466
-9.16246386919
-9.20225694307
-9.24012858889
-9.27599903271
-9.30978699512
-9.34140946614
-9.37078147734
-9.39781632465
-9.4224260044
-9.44452127607
-9.4640112455
-9.48080325218
-9.49480351026
-9.50591773229
-9.51405091963
-9.5191068198
-9.52098808245
-9.51959705809
-9.51483618519
-9.50660765493
-9.49481324639
-9.47935484934
-9.46013487403
-9.43705611452
-9.4100219105
-9.37893679516
-9.34370660538
-9.30423807973
-9.26043933136
-9.21222078217
-9.15949493275
-9.10217597077
-9.04018070464
-8.97342930281
-8.90184510926
-8.825354966
-8.74388950179
-8.65738340848
-8.56577709788
-8.46901681215
-8.36705399047
-8.25984841062
-8.14736946349
-8.02959638513
-7.90651907791
-7.77814313768
-7.64449093836
-7.50560311234
-7.36153639539
-7.21236632115
-7.05818360678
-6.89907504712
-6.73513946647
-6.5664751461
-6.39325282504
-1.84278212731
-1.81169908542
-1.82694573176
-1.87864254418
-1.95273100459
-2.04095922017
-2.13637981048
-2.23365176557
-2.32955695207
-2.42255881562
-2.51219550409
-2.59861426871
-2.68225043599
-2.76363072631
-2.84326450939
-2.92159437531
-2.99898070255
-3.07570353982
-3.15197251565
-3.22793958932
-3.30371287648
-3.37936355217
-3.4549403633
-3.53047392452
-3.60598296876
-3.68147786568
-3.75696394372
-3.83244364847
-3.90791726908
-3.98338419264
-4.05884303986
-4.13429215745
-4.20972969847
-4.28515411585
-4.36056388416
-4.4359571857
-4.51133221605
-4.58668719182
-4.66202017192
-4.73732907393
-4.81261152797
-4.88786488341
-4.96308645952
-5.03827355698
-5.11342331049
-5.18853256481
-5.26359791415
-5.33861560858
-5.41358149806
-5.4884910516
-5.56333945803
-5.63812165438
-5.71283230717
-5.78746577139
-5.8620160015
-5.93647643403
-6.01083991888
-6.0850987225
-6.15924457289
-6.23326868906
-6.30716176736
-6.38091394643
-6.45451473173
-6.52795288459
-6.60121634358
-6.67429224745
-6.74716704372
-6.81982656347
-6.89225595631
-6.96443949003
-7.03636032494
-7.1080003933
-7.17934044739
-7.25036021674
-7.32103855006
-7.39135340765
-7.46128167038
-7.53079885941
-7.59987894126
-7.66849434037
-7.73661611799
-7.80421413698
-7.87125704548
-7.93771206595
-8.00354473154
-8.0687187495
-8.13319606299
-8.19693701462
-8.25990042273
-8.32204348284
-8.38332159586
-8.44368826814
-8.50309511313
-8.56149186956
-8.61882633946
-8.67504430284
-8.7300895003
-8.78390371892
-8.83642690509
-8.88759711223
-8.93735035376
-8.98562050228
-9.03233938271
-9.07743691337
-9.12084111503
-9.16247800212
-9.20227150419
-9.2401436545
-9.27601481171
-9.30980365064
-9.34142699988
-9.37079988311
-9.3978358315
-9.42244706102
-9.44454423528
-9.46403616064
-9.48083016281
-9.49483287226
-9.50595034197
-9.5140875065
-9.51914788235
-9.52103426685
-9.51964950736
-9.5148963175
-9.50667678412
-9.49489273411
-9.47944658305
-9.46024142353
-9.43718056188
-9.41016781252
-9.37910826214
-9.34390838163
-9.30447594441
-9.26072049622
-9.21255354872
-9.15988850633
-9.10264154953
-9.04073227057
-8.97408294956
-8.90261905003
-8.82627084133
-8.74497304357
-8.65866478422
-8.56729115329
-8.47080346273
-8.36916026348
-8.2623280114
-8.15028357239
-8.03301593154
-7.9105227188
-7.78282140988
-7.64994615159
-7.51194766911
-7.36890453236
-7.22091525841
-7.0681112772
-6.91064906777
-6.74873475989
-6.58263976655
-6.41276380306
-1.82352887391
-1.79197536012
-1.81163942415
-1.8691100895
-1.94814925801
-2.03994909069
-2.13757818586
-2.23596469802
-2.3322353268
-2.42515660825
-2.51448679532
-2.60051535432
-2.68375970032
-2.76478782703
-2.84412573035
-2.92221832082
-2.99942102841
-3.07600609119
-3.15217462517
-3.22807069248
-3.3037941075
-3.37941174096
-3.45496740596
-3.53048758101
-3.60598871275
-3.68147917811
-3.75696323133
-3.8324421313
-3.90791562955
-3.98338249917
-4.05884145039
-4.13429082751
-4.20972874211
-4.28515348588
-4.36056335053
-4.4359567094
-4.51133194362
-4.58668717295
-4.66202033648
-4.73732931183
-4.81261176366
-4.88786513736
-4.96308679145
-5.03827395498
-5.11342370269
-5.18853293669
-5.26359831362
-5.33861606404
-5.4135819741
-5.48849148537
-5.56333981158
-5.63812192456
-5.71283252111
-5.78746598
-5.86201625845
-5.9364767634
-6.01084029509
-6.08509907419
-6.15924480623
-6.23326872969
-6.30716159964
-6.38091361763
-6.4545143161
-6.52795243741
-6.60121588336
-6.67429177585
-6.74716657514
-6.81982613448
-6.89225560777
-6.96443923632
-7.03636013303
-7.10800018904
-7.17934014901
-7.2503597812
-7.32103799802
-7.3913528044
-7.46128106822
-7.53079824023
-7.59987820474
-7.66849335569
-7.73661480911
-7.80421254027
-7.87125528948
-7.93771028102
-8.00354295888
-8.06871692456
-8.13319407999
-8.19693480366
-8.2598979748
-8.32204080537
-8.38331866045
-8.44368501258
-8.50309151209
-8.56148799077
-8.61882231157
-8.67504020798
-8.73008530373
-8.78389930757
-8.83642217871
-8.88759206679
-8.93734506461
-8.98561504305
-9.03233377054
-9.07743107676
-9.12083493019
-9.16247136268
-9.20226440563
-9.2401362114
-9.27600720455
-9.30979601351
-9.34141939028
-9.37079238803
-9.39782865094
-9.42244042813
-9.44453824331
-9.46403086175
-9.48082582744
-9.49483009764
-9.505949789
-9.51408964504
-9.51915321068
-9.52104369067
-9.5196642847
-9.51491766144
-9.50670581099
-9.49493095361
-9.47949621054
-9.46030512844
-9.43726126064
-9.41026890863
-9.37923387379
-9.34406338884
-9.30466624349
-9.26095318456
-9.21283677938
-9.16023181831
-9.10305662323
-9.04123292325
-8.97468502337
-8.90334130527
-8.82713560177
-8.74600644596
-8.65989739167
-8.56875788671
-8.47254518574
-8.3712254639
-8.26477135782
-8.15316846166
-8.03641522559
-7.91452233598
-7.78751798063
-7.65545264097
-7.51839829635
-7.37645693795
-7.22976169171
-7.07849314331
-6.92287953895
-6.76322191438
-6.599921049
-6.4335213605
-1.7812866164
-1.75024288804
-1.78018630782
-1.84997605591
-1.93916178826
-2.03805092373
-2.1399328993
-2.24039607658
-2.33730406878
-2.43002955014
-2.51875646138
-2.60403940252
-2.6865456701
-2.76691672019
-2.84570595063
-2.92336055686
-3.00022581775
-3.07655849924
-3.1525432981
-3.22830941457
-3.3039427627
-3.37950004362
-3.45501659638
-3.53051263345
-3.60599941913
-3.6814819583
-3.75696182747
-3.83243897945
-3.90791210305
-3.98337928618
-4.05883865702
-4.13428832893
-4.20972665506
-4.28515187545