/*--------------------------------*- C++ -*----------------------------------*\
| =========                 |                                                 |
| \\      /  F ield         | OpenFOAM: The Open Source CFD Toolbox           |
|  \\    /   O peration     | Version:  2106                                  |
|   \\  /    A nd           | Website:  www.openfoam.com                      |
|    \\/     M anipulation  |                                                 |
\*---------------------------------------------------------------------------*/
FoamFile
{
    version     2.0;
    format      ascii;
    arch        "LSB;label=32;scalar=64";
    class       volVectorField;
    location    "0.05";
    object      U;
}
// * * * * * * * * * * * * * * * * * * * * * * * * * * * * * * * * * * * * * //

dimensions      [0 1 -1 0 0 0 0];

internalField   nonuniform List<vector> 
9600
(
(0.675395118974 0.157678463009 0)
(0.563821726732 0.102432450356 0)
(0.381531741578 0.0510662440556 0)
(0.283847648346 0.0244597042799 0)
(0.232285301419 0.0119336890263 0)
(0.20193489788 0.00622604958661 0)
(0.183246961157 0.00351302770939 0)
(0.171405118997 0.00210539822166 0)
(0.163736247805 0.00130411705096 0)
(0.158734371442 0.000813951302953 0)
(0.155494533019 0.000501063092361 0)
(0.153435144935 0.000297882452924 0)
(0.152167063485 0.00016620267805 0)
(0.15142428854 8.23876902998e-05 0)
(0.151023292936 3.08788025685e-05 0)
(0.15083759561 1.02903051884e-06 0)
(0.150780965936 -1.45477441971e-05 0)
(0.150795985996 -2.08779839584e-05 0)
(0.150845645627 -2.2033173062e-05 0)
(0.150907194887 -2.02284897502e-05 0)
(0.150967722478 -1.70738553271e-05 0)
(0.151020791318 -1.35751712347e-05 0)
(0.151064013307 -1.0292857236e-05 0)
(0.151097345115 -7.49616719448e-06 0)
(0.151121933097 -5.26472755777e-06 0)
(0.15113938703 -3.57468014583e-06 0)
(0.151151349825 -2.35183280686e-06 0)
(0.15115927831 -1.501248519e-06 0)
(0.151164360093 -9.31826123687e-07 0)
(0.151167504804 -5.65044021165e-07 0)
(0.151169375152 -3.36543763933e-07 0)
(0.15117043551 -1.98786021559e-07 0)
(0.15117100021 -1.17940201104e-07 0)
(0.151171273258 -7.03372884242e-08 0)
(0.151171384871 -4.1455461208e-08 0)
(0.151171413325 -2.7541380838e-08 0)
(0.151171400294 -2.60462487375e-08 0)
(0.151171370613 -3.28370065177e-08 0)
(0.151171338091 -3.97986929402e-08 0)
(0.151171309465 -4.5233651057e-08 0)
(0.151171287831 -4.97963981347e-08 0)
(0.15117127255 -5.46098621488e-08 0)
(0.151171261079 -5.98632250215e-08 0)
(0.151171251745 -6.52338865398e-08 0)
(0.151171243995 -7.10985215792e-08 0)
(0.151171237872 -7.80018407899e-08 0)
(0.151171233418 -8.57717970081e-08 0)
(0.151171230191 -9.40512026808e-08 0)
(0.151171227667 -1.02270349126e-07 0)
(0.151171225916 -1.10076057005e-07 0)
(0.151171225137 -1.18085246905e-07 0)
(0.151171224863 -1.27223591515e-07 0)
(0.151171224419 -1.37578146652e-07 0)
(0.151171223617 -1.48669045043e-07 0)
(0.15117122233 -1.60447557528e-07 0)
(0.151171220383 -1.73060031245e-07 0)
(0.151171218074 -1.86478453025e-07 0)
(0.151171215841 -2.00598192083e-07 0)
(0.151171213633 -2.15592435612e-07 0)
(0.151171210903 -2.31673579533e-07 0)
(0.15117120742 -2.48886862672e-07 0)
(0.151171203489 -2.67265996394e-07 0)
(0.151171199431 -2.86910166897e-07 0)
(0.151171195485 -3.07867693916e-07 0)
(0.151171192025 -3.3002333515e-07 0)
(0.151171189415 -3.5331148348e-07 0)
(0.151171187451 -3.77846801342e-07 0)
(0.151171185313 -4.03884997677e-07 0)
(0.151171182209 -4.31611168867e-07 0)
(0.151171177927 -4.61073065818e-07 0)
(0.151171172758 -4.92281460287e-07 0)
(0.151171167061 -5.25272921325e-07 0)
(0.151171161121 -5.60082542742e-07 0)
(0.151171155251 -5.96715907241e-07 0)
(0.151171149782 -6.3517815203e-07 0)
(0.151171144811 -6.75531840056e-07 0)
(0.151171139978 -7.17908285255e-07 0)
(0.151171134565 -7.62475099932e-07 0)
(0.151171127917 -8.09401854189e-07 0)
(0.151171119891 -8.58826998835e-07 0)
(0.151171111041 -9.10805299593e-07 0)
(0.151171102389 -9.6525651591e-07 0)
(0.151171094914 -1.02201424926e-06 0)
(0.151171088936 -1.0810094806e-06 0)
(0.15117108378 -1.1424374935e-06 0)
(0.151171078078 -1.20670784697e-06 0)
(0.151171070719 -1.27417553379e-06 0)
(0.151171061807 -1.34488140647e-06 0)
(0.151171052749 -1.41853689568e-06 0)
(0.151171045237 -1.49476911048e-06 0)
(0.151171039919 -1.57343864312e-06 0)
(0.151171035934 -1.65481120952e-06 0)
(0.151171031809 -1.73940443811e-06 0)
(0.15117102699 -1.82754004732e-06 0)
(0.151171022685 -1.91899038351e-06 0)
(0.151171021139 -2.01310037526e-06 0)
(0.151171023929 -2.10936627389e-06 0)
(0.151171030696 -2.20788842741e-06 0)
(0.151171039625 -2.3091574057e-06 0)
(0.151171049569 -2.4133809842e-06 0)
(0.151171061848 -2.52009285975e-06 0)
(0.151171079681 -2.62821787452e-06 0)
(0.151171106282 -2.73730938415e-06 0)
(0.151171143292 -2.84767593434e-06 0)
(0.151171190886 -2.96006315251e-06 0)
(0.151171250031 -3.07507106428e-06 0)
(0.151171324138 -3.19284957138e-06 0)
(0.15117141838 -3.3133005635e-06 0)
(0.151171538275 -3.43730196095e-06 0)
(0.151171688678 -3.56852006658e-06 0)
(0.15117187579 -3.71403043559e-06 0)
(0.151172109635 -3.87503289462e-06 0)
(0.151172402449 -4.04716620164e-06 0)
(0.151172768253 -4.22919143369e-06 0)
(0.151173224167 -4.42187255224e-06 0)
(0.151173791678 -4.62627506715e-06 0)
(0.151174498278 -4.84318739006e-06 0)
(0.151175377784 -5.07364333884e-06 0)
(0.151176470354 -5.31959832093e-06 0)
(0.151177824847 -5.58386867961e-06 0)
(0.151179503984 -5.86927364546e-06 0)
(0.151181589236 -6.17922439091e-06 0)
(0.151184186804 -6.52347174869e-06 0)
(0.151187440557 -6.93772026169e-06 0)
(0.151191502156 -7.5145663273e-06 0)
(0.151196518068 -8.29699217906e-06 0)
(0.151202712845 -9.22674520453e-06 0)
(0.151210400025 -1.02816240312e-05 0)
(0.151219949504 -1.14679127043e-05 0)
(0.151231812368 -1.28038549723e-05 0)
(0.151246549141 -1.43124881635e-05 0)
(0.151264857223 -1.60224953565e-05 0)
(0.151287602435 -1.79715290483e-05 0)
(0.151315863181 -2.02072346527e-05 0)
(0.151350986698 -2.27883750992e-05 0)
(0.151394651724 -2.57900907889e-05 0)
(0.151448945561 -2.93098919025e-05 0)
(0.151516471077 -3.34699262436e-05 0)
(0.151600486558 -3.84212280345e-05 0)
(0.151705072861 -4.43574014646e-05 0)
(0.151835339123 -5.15309144647e-05 0)
(0.151997695423 -6.02622895643e-05 0)
(0.152200212794 -7.0953821706e-05 0)
(0.152453086155 -8.41244919584e-05 0)
(0.152769239645 -0.000100455030982 0)
(0.153165134762 -0.00012082997425 0)
(0.153661854348 -0.00014639957456 0)
(0.15428658743 -0.000178682675782 0)
(0.155074710974 -0.000219701199074 0)
(0.156072735474 -0.000272158563285 0)
(0.157342588022 -0.000339706429586 0)
(0.158968178218 -0.000427409708371 0)
(0.161066259754 -0.000542977889418 0)
(0.16380748911 -0.000701299523201 0)
(0.167465947532 -0.000942634173847 0)
(0.172542768938 -0.00140252331706 0)
(0.180134366619 -0.00257397008223 0)
(0.193492285254 -0.00634594805399 0)
(0.223132699766 -0.0202164559354 0)
(0.291015227905 -0.0738295425166 0)
(0.977200103189 0.29700023603 0)
(0.962684294414 0.250390444927 0)
(0.820646414474 0.158579598184 0)
(0.697843319067 0.0957879262582 0)
(0.610552372122 0.0578851381833 0)
(0.549271905407 0.0358513194738 0)
(0.50696962891 0.0228465510107 0)
(0.478107620537 0.014856947916 0)
(0.458505466769 0.00974776031359 0)
(0.445274963647 0.00638291911705 0)
(0.436447627336 0.00412907298399 0)
(0.430662400094 0.0026109128296 0)
(0.426967414076 0.00159268065617 0)
(0.424692671712 0.000919006835018 0)
(0.423365741387 0.000483723803181 0)
(0.422654948038 0.000212456290632 0)
(0.422330088565 5.23728917144e-05 0)
(0.422234012855 -3.41353014581e-05 0)
(0.422262912656 -7.37419579757e-05 0)
(0.422350856466 -8.52925067169e-05 0)
(0.422457735004 -8.12803230318e-05 0)
(0.422561411438 -6.98769295501e-05 0)
(0.422651262207 -5.61013717484e-05 0)
(0.422723687569 -4.27728480813e-05 0)
(0.422779020291 -3.12512511798e-05 0)
(0.42281949745 -2.19967464965e-05 0)
(0.422848019632 -1.49609230634e-05 0)
(0.422867446013 -9.84612860054e-06 0)
(0.422880255663 -6.26997921583e-06 0)
(0.422888436195 -3.8581308784e-06 0)
(0.422893488237 -2.28546798035e-06 0)
(0.422896493635 -1.29316489006e-06 0)
(0.422898205134 -6.87047379893e-07 0)
(0.422899125634 -3.31168309506e-07 0)
(0.422899578617 -1.29809449819e-07 0)
(0.422899766796 -2.73919719435e-08 0)
(0.422899812963 1.54527751134e-08 0)
(0.422899795879 3.13821729732e-08 0)
(0.422899757258 3.21439999502e-08 0)
(0.422899713022 2.68829778867e-08 0)
(0.422899672081 2.00076997838e-08 0)
(0.422899637795 1.22447803349e-08 0)
(0.422899610049 4.03502116547e-09 0)
(0.42289958716 -3.20446933209e-09 0)
(0.42289956755 -8.17283090009e-09 0)
(0.422899551244 -1.11140483819e-08 0)
(0.422899538525 -1.3649300672e-08 0)
(0.422899528834 -1.64036418361e-08 0)
(0.422899521279 -1.88740014373e-08 0)
(0.422899514719 -2.05746677697e-08 0)
(0.422899508184 -2.19931858028e-08 0)
(0.42289950152 -2.37080177823e-08 0)
(0.422899495062 -2.59154065472e-08 0)
(0.422899488629 -2.83817556866e-08 0)
(0.422899481526 -3.11476601287e-08 0)
(0.422899473507 -3.40192844932e-08 0)
(0.422899465052 -3.66532207609e-08 0)
(0.422899456439 -3.89673920764e-08 0)
(0.422899447355 -4.12867478256e-08 0)
(0.422899437338 -4.38680667683e-08 0)
(0.422899426283 -4.66048713063e-08 0)
(0.422899414456 -4.94655484838e-08 0)
(0.422899402162 -5.25284872518e-08 0)
(0.422899389794 -5.57548049735e-08 0)
(0.422899377804 -5.89035179026e-08 0)
(0.422899366369 -6.19102862346e-08 0)
(0.422899355012 -6.51185928832e-08 0)
(0.422899342836 -6.89822181686e-08 0)
(0.422899329178 -7.35399868981e-08 0)
(0.422899313939 -7.85494968108e-08 0)
(0.422899297406 -8.37792856489e-08 0)
(0.422899279905 -8.91215568625e-08 0)
(0.422899261736 -9.4524254029e-08 0)
(0.422899243235 -9.99360645029e-08 0)
(0.422899224691 -1.05357769035e-07 0)
(0.422899206118 -1.10903121911e-07 0)
(0.422899187101 -1.16750772715e-07 0)
(0.422899166928 -1.23026164392e-07 0)
(0.422899144988 -1.29755076808e-07 0)
(0.42289912123 -1.36892234375e-07 0)
(0.422899096367 -1.443339178e-07 0)
(0.42289907161 -1.5188414862e-07 0)
(0.422899047985 -1.59320434678e-07 0)
(0.422899025623 -1.66648259754e-07 0)
(0.422899003563 -1.7430873889e-07 0)
(0.422898980374 -1.83000869085e-07 0)
(0.422898955275 -1.93156342917e-07 0)
(0.42289892893 -2.04543889505e-07 0)
(0.422898903174 -2.16404067897e-07 0)
(0.422898879744 -2.28037774995e-07 0)
(0.422898858978 -2.39366798321e-07 0)
(0.422898839707 -2.51043913863e-07 0)
(0.422898820628 -2.63985174441e-07 0)
(0.422898802031 -2.78624035895e-07 0)
(0.422898786256 -2.94568938758e-07 0)
(0.422898776296 -3.11059671702e-07 0)
(0.422898773804 -3.27961555328e-07 0)
(0.422898778358 -3.46331282197e-07 0)
(0.422898788776 -3.6791852677e-07 0)
(0.422898805518 -3.94481887468e-07 0)
(0.422898832347 -4.2696715467e-07 0)
(0.422898874319 -4.62683728706e-07 0)
(0.422898935709 -5.00839259323e-07 0)
(0.422899019798 -5.4296126864e-07 0)
(0.422899129628 -5.91345091978e-07 0)
(0.422899270426 -6.4732101371e-07 0)
(0.422899450874 -7.10846883507e-07 0)
(0.422899681452 -7.81418636597e-07 0)
(0.42289997195 -8.59028779919e-07 0)
(0.422900330974 -9.42765713725e-07 0)
(0.422900778171 -1.02643090708e-06 0)
(0.422901347662 -1.11043024334e-06 0)
(0.422902071222 -1.20388951799e-06 0)
(0.422902980306 -1.31329654779e-06 0)
(0.422904117046 -1.44516532613e-06 0)
(0.422905536393 -1.60671136381e-06 0)
(0.422907307486 -1.80566879119e-06 0)
(0.422909514906 -2.05166782451e-06 0)
(0.422912261548 -2.35777823549e-06 0)
(0.422915675329 -2.74030017314e-06 0)
(0.422919918058 -3.21773502517e-06 0)
(0.422925191279 -3.8126427466e-06 0)
(0.422931737138 -4.55832468069e-06 0)
(0.422939841491 -5.51516010402e-06 0)
(0.422949888508 -6.79596736738e-06 0)
(0.422962410402 -8.49360458155e-06 0)
(0.42297803632 -1.06420193964e-05 0)
(0.42299749718 -1.33188756161e-05 0)
(0.42302170963 -1.6644349528e-05 0)
(0.423051824625 -2.07728615412e-05 0)
(0.423089279061 -2.58941206914e-05 0)
(0.423135859634 -3.22445224339e-05 0)
(0.423193788204 -4.01201230723e-05 0)
(0.423265834712 -4.98873109514e-05 0)
(0.423355454685 -6.20004626127e-05 0)
(0.423466954227 -7.70305382631e-05 0)
(0.42360570219 -9.56955078844e-05 0)
(0.42377840606 -0.000118890178032 0)
(0.42399345587 -0.000147732289793 0)
(0.424261353031 -0.000183636327751 0)
(0.424595265227 -0.000228402085976 0)
(0.425011744734 -0.000284312657305 0)
(0.425531643043 -0.000354272071089 0)
(0.426181300698 -0.000442012052642 0)
(0.426994138809 -0.000552371309801 0)
(0.428012779119 -0.000691671258768 0)
(0.429291880498 -0.000868255442066 0)
(0.430902063489 -0.00109328136875 0)
(0.432935484575 -0.00138191961223 0)
(0.435513912894 -0.0017552587142 0)
(0.438800912625 -0.00224348757012 0)
(0.443021209721 -0.00289174278767 0)
(0.448493309137 -0.00377228057056 0)
(0.455688905746 -0.00501326407378 0)
(0.46535004705 -0.00687511263934 0)
(0.478716141761 -0.00996433198279 0)
(0.49794511628 -0.0158357331047 0)
(0.527176035387 -0.0287545871148 0)
(0.574786447697 -0.0609583549555 0)
(0.647655766504 -0.144223581281 0)
(1.03386997237 0.239244926782 0)
(1.08314198968 0.293634503494 0)
(1.03295754829 0.23911632915 0)
(0.954454658293 0.174493292096 0)
(0.88022629877 0.121458386774 0)
(0.818906644267 0.0830743865012 0)
(0.771872937046 0.0565829168191 0)
(0.737347827934 0.0384731494578 0)
(0.712657670274 0.026050481214 0)
(0.695346499038 0.0174864589871 0)
(0.683439348103 0.0115696741584 0)
(0.675421655394 0.00749192447988 0)
(0.670159912195 0.00470420417526 0)
(0.666818446083 0.00282570955584 0)
(0.664788199699 0.00158728267599 0)
(0.663630657657 0.000795975537576 0)
(0.663034915994 0.000312356248596 0)
(0.662785134774 3.55717211419e-05 0)
(0.662735053947 -0.000106260288287 0)
(0.662789198868 -0.000164549768504 0)
(0.662888300651 -0.000174228371343 0)
(0.662997561181 -0.000158509201925 0)
(0.663098647819 -0.000132050214493 0)
(0.663183580464 -0.000103462086431 0)
(0.663250448159 -7.72852681577e-05 0)
(0.663300551432 -5.54629073327e-05 0)
(0.663336593716 -3.84068508762e-05 0)
(0.663361613141 -2.57250237289e-05 0)
(0.663378421073 -1.66771932127e-05 0)
(0.663389363955 -1.04535930222e-05 0)
(0.663396267769 -6.31727645928e-06 0)
(0.663400480533 -3.65829751968e-06 0)
(0.66340295548 -2.0055252998e-06 0)
(0.663404344605 -1.01701088778e-06 0)
(0.663405076965 -4.5211410011e-07 0)
(0.663405426807 -1.48015582261e-07 0)
(0.663405569681 3.11867175214e-09 0)
(0.663405604241 7.30134800329e-08 0)
(0.663405585148 9.86799928461e-08 0)
(0.663405547731 1.00914715529e-07 0)
(0.663405507348 9.29564135965e-08 0)
(0.663405469992 8.11353592649e-08 0)
(0.663405438277 6.84949743419e-08 0)
(0.663405413042 5.68352182187e-08 0)
(0.663405392856 4.71460587197e-08 0)
(0.663405375247 3.9914125475e-08 0)
(0.663405359492 3.51449716661e-08 0)
(0.663405346321 3.30717988914e-08 0)
(0.66340533561 3.30935312118e-08 0)
(0.663405326279 3.46298182231e-08 0)
(0.663405317468 3.73355936411e-08 0)
(0.66340530879 4.08016105249e-08 0)
(0.66340530005 4.42756526271e-08 0)
(0.663405291023 4.74164660726e-08 0)
(0.663405281421 5.03829618116e-08 0)
(0.663405271274 5.37159130719e-08 0)
(0.663405260753 5.77870446325e-08 0)
(0.663405249759 6.24970804109e-08 0)
(0.663405237961 6.76164773882e-08 0)
(0.663405225124 7.30141444894e-08 0)
(0.663405211223 7.88005977803e-08 0)
(0.663405196398 8.50465165578e-08 0)
(0.663405180948 9.18097103393e-08 0)
(0.663405165329 9.92064680133e-08 0)
(0.663405149915 1.07288800492e-07 0)
(0.663405134606 1.15851434548e-07 0)
(0.663405118784 1.2446952488e-07 0)
(0.663405101862 1.33010672611e-07 0)
(0.663405083572 1.41595330021e-07 0)
(0.663405063879 1.50636536951e-07 0)
(0.663405042921 1.60532158575e-07 0)
(0.663405020876 1.71508489729e-07 0)
(0.663404997954 1.83614448421e-07 0)
(0.663404974413 1.96742306098e-07 0)
(0.663404950453 2.10670272857e-07 0)
(0.663404926066 2.2516809995e-07 0)
(0.663404900947 2.4012734305e-07 0)
(0.663404874573 2.5565095797e-07 0)
(0.663404846462 2.72009447499e-07 0)
(0.66340481656 2.89498984154e-07 0)
(0.663404785484 3.08315401823e-07 0)
(0.66340475434 3.28510494677e-07 0)
(0.663404724029 3.49979896966e-07 0)
(0.663404694526 3.72423365086e-07 0)
(0.663404664807 3.95371043799e-07 0)
(0.663404633657 4.18418162911e-07 0)
(0.663404600766 4.41585659236e-07 0)
(0.663404567228 4.65450982503e-07 0)
(0.663404534942 4.90838512672e-07 0)
(0.663404505321 5.18239873022e-07 0)
(0.663404478327 5.47463368101e-07 0)
(0.663404452746 5.77857149554e-07 0)
(0.663404427685 6.08914348073e-07 0)
(0.663404404027 6.40697071855e-07 0)
(0.663404384463 6.73645992371e-07 0)
(0.663404371876 7.07892903225e-07 0)
(0.663404367562 7.42705639576e-07 0)
(0.663404370993 7.7680146952e-07 0)
(0.66340438112 8.0966491097e-07 0)
(0.663404398875 8.42834256339e-07 0)
(0.663404431485 8.79362716753e-07 0)
(0.663404486597 9.18051528326e-07 0)
(0.663404567824 9.56754401575e-07 0)
(0.663404678869 9.92155532603e-07 0)
(0.663404825473 1.02111201238e-06 0)
(0.663405016963 1.04191295743e-06 0)
(0.663405266249 1.0538259628e-06 0)
(0.663405588511 1.05500605788e-06 0)
(0.663406002061 1.04179806705e-06 0)
(0.663406531987 1.01107139456e-06 0)
(0.663407203411 9.64880282076e-07 0)
(0.663408039559 8.99064403482e-07 0)
(0.663409077959 7.99582261826e-07 0)
(0.663410371841 6.52658384847e-07 0)
(0.663411984209 4.42248287237e-07 0)
(0.663413993354 1.4913040261e-07 0)
(0.663416496611 -2.49484954555e-07 0)
(0.663419612777 -7.81955878798e-07 0)
(0.663423487628 -1.48420630623e-06 0)
(0.663428303702 -2.40030715087e-06 0)
(0.663434291022 -3.5836441077e-06 0)
(0.663441736323 -5.10119794321e-06 0)
(0.663450993597 -7.03898902174e-06 0)
(0.663462498879 -9.50190064175e-06 0)
(0.663476794482 -1.26062799316e-05 0)
(0.663494561481 -1.65143309605e-05 0)
(0.663516646441 -2.14585809206e-05 0)
(0.663544099397 -2.77163224869e-05 0)
(0.66357823139 -3.5624092927e-05 0)
(0.663620676857 -4.55954274942e-05 0)
(0.663673468523 -5.81447084937e-05 0)
(0.663739132677 -7.39167069509e-05 0)
(0.663820815665 -9.37159527336e-05 0)
(0.663922441635 -0.000118541057974 0)
(0.664048902084 -0.00014963674796 0)
(0.664206293812 -0.000188562293863 0)
(0.664402227623 -0.000237269250786 0)
(0.664646216103 -0.000298198136594 0)
(0.664950150544 -0.000374413176491 0)
(0.665328908163 -0.000469779159466 0)
(0.665801143656 -0.000589181955602 0)
(0.66639029972 -0.000738820463691 0)
(0.667125886668 -0.000926604350065 0)
(0.668045147561 -0.00116268219123 0)
(0.669195263991 -0.00146016649816 0)
(0.670636277385 -0.00183617429009 0)
(0.672445000649 -0.00231330629161 0)
(0.674720371994 -0.00292178895238 0)
(0.677590937487 -0.00370276848358 0)
(0.681225574223 -0.0047135748475 0)
(0.685849342604 -0.00603650217145 0)
(0.691767744075 -0.00779453904394 0)
(0.699405154808 -0.0101817331852 0)
(0.709367688076 -0.0135259404917 0)
(0.722547987443 -0.0184267732344 0)
(0.740285062651 -0.0260691081452 0)
(0.764535830075 -0.038917426003 0)
(0.797997044628 -0.0621677566285 0)
(0.843701542828 -0.106636547294 0)
(0.897928819896 -0.191883872248 0)
(1.03384146287 0.171309671938 0)
(1.10232033924 0.275549128171 0)
(1.11665723789 0.266274895685 0)
(1.09213917891 0.219801101293 0)
(1.05208759074 0.168036386149 0)
(1.01047671624 0.123328727218 0)
(0.973943357401 0.0884580122259 0)
(0.944572564371 0.0624620687556 0)
(0.922175505122 0.0435059870719 0)
(0.905712806395 0.0298611807463 0)
(0.89396569012 0.0201368327724 0)
(0.885809097736 0.0132777978476 0)
(0.880303219745 0.00850146276363 0)
(0.876704008696 0.00523096268595 0)
(0.874442011983 0.00304097952478 0)
(0.873092447392 0.0016174645428 0)
(0.872345764214 0.000728663203369 0)
(0.871981890398 0.000204412511805 0)
(0.871848430811 -7.90867632752e-05 0)
(0.871843590305 -0.000210012042256 0)
(0.871902198841 -0.000249751915272 0)
(0.871984514058 -0.000239569659315 0)
(0.872068266052 -0.000205975260174 0)
(0.872142461856 -0.000164959455833 0)
(0.872202971347 -0.000125329948763 0)
(0.87224952013 -9.12360227606e-05 0)
(0.872283730063 -6.40061208741e-05 0)
(0.872307927441 -4.34190076981e-05 0)
(0.872324472085 -2.85266927731e-05 0)
(0.872335431625 -1.81543819753e-05 0)
(0.872342471342 -1.11754124922e-05 0)
(0.872346854793 -6.63046528046e-06 0)
(0.872349494266 -3.76819253143e-06 0)
(0.872351022832 -2.02559433327e-06 0)
(0.87235186598 -1.00552279585e-06 0)
(0.872352300758 -4.34227332622e-07 0)
(0.872352503546 -1.33267343868e-07 0)
(0.872352582277 8.44792020905e-09 0)
(0.872352596002 6.43066247254e-08 0)
(0.872352578552 7.66944618382e-08 0)
(0.872352550052 6.84927233598e-08 0)
(0.87235251944 5.23631900805e-08 0)
(0.872352490954 3.52782226656e-08 0)
(0.872352465714 1.97590528772e-08 0)
(0.872352443404 5.6775305559e-09 0)
(0.872352424382 -6.39659422735e-09 0)
(0.872352409268 -1.53715790805e-08 0)
(0.872352397157 -2.18931929413e-08 0)
(0.872352386472 -2.74302928784e-08 0)
(0.872352376213 -3.25159086438e-08 0)
(0.872352365489 -3.6843309759e-08 0)
(0.872352353765 -4.09981467767e-08 0)
(0.87235234135 -4.54218141411e-08 0)
(0.872352328701 -5.02915378078e-08 0)
(0.872352315734 -5.53990874546e-08 0)
(0.8723523023 -6.05157275265e-08 0)
(0.872352288333 -6.54773738055e-08 0)
(0.872352273622 -7.03330406893e-08 0)
(0.87235225783 -7.5247180639e-08 0)
(0.872352240736 -8.03701132818e-08 0)
(0.872352222367 -8.57152553842e-08 0)
(0.872352202909 -9.1145468466e-08 0)
(0.872352182668 -9.65381741206e-08 0)
(0.872352162008 -1.01909917876e-07 0)
(0.872352141116 -1.07567522125e-07 0)
(0.872352119801 -1.13935978162e-07 0)
(0.872352097666 -1.21361835504e-07 0)
(0.872352074258 -1.29864092525e-07 0)
(0.872352049349 -1.39267873621e-07 0)
(0.872352023031 -1.49148647432e-07 0)
(0.872351995391 -1.59028954706e-07 0)
(0.87235196644 -1.6862609614e-07 0)
(0.872351936191 -1.78010033415e-07 0)
(0.872351904756 -1.8757817408e-07 0)
(0.872351872326 -1.97822487538e-07 0)
(0.872351839022 -2.09037291943e-07 0)
(0.872351804734 -2.21183226104e-07 0)
(0.8723517691 -2.33962985625e-07 0)
(0.872351731684 -2.47018502844e-07 0)
(0.872351692353 -2.60117778239e-07 0)
(0.872351651564 -2.73256309554e-07 0)
(0.87235161026 -2.8668517696e-07 0)
(0.872351569238 -3.00870164614e-07 0)
(0.872351528484 -3.16365586651e-07 0)
(0.87235148713 -3.33617109178e-07 0)
(0.872351444253 -3.52776700325e-07 0)
(0.872351399882 -3.7363870909e-07 0)
(0.872351355303 -3.95759930916e-07 0)
(0.872351312314 -4.18752387545e-07 0)
(0.872351272017 -4.4263680665e-07 0)
(0.872351234168 -4.67967873213e-07 0)
(0.872351197729 -4.95506150149e-07 0)
(0.872351162288 -5.25712589812e-07 0)
(0.872351129135 -5.58613103139e-07 0)
(0.872351100966 -5.94246899939e-07 0)
(0.87235108036 -6.33369978431e-07 0)
(0.872351068636 -6.77587445039e-07 0)
(0.872351066509 -7.28553131351e-07 0)
(0.872351076032 -7.86715997944e-07 0)
(0.872351101615 -8.50311103308e-07 0)
(0.872351146402 -9.16593092228e-07 0)
(0.872351213273 -9.88193666403e-07 0)
(0.872351307415 -1.06891576515e-06 0)
(0.872351434516 -1.16303763676e-06 0)
(0.87235160273 -1.27392706778e-06 0)
(0.872351823753 -1.40387244467e-06 0)
(0.872352111754 -1.5556702418e-06 0)
(0.872352481917 -1.73476883735e-06 0)
(0.872352951847 -1.95012478636e-06 0)
(0.872353545537 -2.21416580382e-06 0)
(0.872354295021 -2.54432881658e-06 0)
(0.872355238776 -2.95421119898e-06 0)
(0.872356422779 -3.45581828244e-06 0)
(0.872357903213 -4.07023952809e-06 0)
(0.8723597504 -4.8258831282e-06 0)
(0.872362054315 -5.75705956836e-06 0)
(0.872364927121 -6.90539501537e-06 0)
(0.872368505653 -8.32293037721e-06 0)
(0.872372958462 -1.00748366769e-05 0)
(0.872378496968 -1.22418650053e-05 0)
(0.872385386612 -1.49239326485e-05 0)
(0.872393956753 -1.82469817055e-05 0)
(0.87240461469 -2.23712515972e-05 0)
(0.872417867131 -2.74983406853e-05 0)
(0.872434346615 -3.38765714683e-05 0)
(0.872454840085 -4.18099991325e-05 0)
(0.872480322067 -5.16755056633e-05 0)
(0.872512005335 -6.39406554203e-05 0)
(0.872551406121 -7.918752975e-05 0)
(0.87260041465 -9.81418191365e-05 0)
(0.872661380039 -0.000121713214166 0)
(0.872737223939 -0.000151041297574 0)
(0.872831589535 -0.000187547353567 0)
(0.872949021219 -0.000233002996015 0)
(0.873095181669 -0.000289622979117 0)
(0.873277130163 -0.000360178787592 0)
(0.873503680316 -0.000448137857289 0)
(0.873785842779 -0.000557848483655 0)
(0.874137374407 -0.00069478094981 0)
(0.874575480914 -0.00086582529713 0)
(0.875121716664 -0.00107967610315 0)
(0.875803122839 -0.00134736013262 0)
(0.876653680524 -0.00168293791424 0)
(0.877716187386 -0.00210441880777 0)
(0.879044688873 -0.00263501777287 0)
(0.880707667196 -0.00330493545128 0)
(0.88279227812 -0.00415387360552 0)
(0.885410010991 -0.00523468319355 0)
(0.888704371489 -0.00661886858413 0)
(0.892861537261 -0.00840517343951 0)
(0.898125340687 -0.0107335594826 0)
(0.904818548819 -0.0138091000191 0)
(0.913373117717 -0.0179449281652 0)
(0.924371930761 -0.0236428898101 0)
(0.938600852932 -0.0317495748503 0)
(0.957088280602 -0.0437602381401 0)
(0.981030813039 -0.0623782958617 0)
(1.01139294401 -0.0923920471654 0)
(1.04766149802 -0.141662832761 0)
(1.08289598042 -0.220330428583 0)
(1.02388391976 0.119322533058 0)
(1.0887596707 0.231497497064 0)
(1.13662525954 0.25280891118 0)
(1.1541155183 0.228769650921 0)
(1.15011210521 0.188089176056 0)
(1.13558020444 0.146177029787 0)
(1.11791768291 0.109576962229 0)
(1.10111705047 0.0800369659334 0)
(1.0868850836 0.0572281536434 0)
(1.07563968512 0.0401103389889 0)
(1.06717485734 0.0275287941183 0)
(1.06104265346 0.0184451968511 0)
(1.05674931086 0.0120027085944 0)
(1.05384365668 0.007522992345 0)
(1.05194883646 0.00448074446144 0)
(1.05076674828 0.00247456047268 0)
(1.05007070237 0.0012009099267 0)
(1.04969395933 0.000432860633586 0)
(1.04951755753 3.15568130812e-06 0)
(1.04945977427 -0.000208716589117 0)
(1.04946655781 -0.000287894519628 0)
(1.04950360087 -0.000292116088111 0)
(1.04955056066 -0.000258987839858 0)
(1.04959641307 -0.000211647224584 0)
(1.0496360117 -0.000163223023447 0)
(1.04966769766 -0.000120266469946 0)
(1.04969169574 -8.52653126401e-05 0)
(1.04970909796 -5.84067425231e-05 0)
(1.04972126297 -3.87449503027e-05 0)
(1.04972949291 -2.4910656381e-05 0)
(1.0497348931 -1.55115593656e-05 0)
(1.04973833084 -9.33043399996e-06 0)
(1.0497404527 -5.39461455538e-06 0)
(1.049741721 -2.9696782927e-06 0)
(1.04974245013 -1.5275978383e-06 0)
(1.04974284902 -7.04141637813e-07 0)
(1.04974305365 -2.5722370108e-07 0)
(1.04974314757 -3.26531857413e-08 0)
(1.04974318139 6.47277576223e-08 0)
(1.04974318546 9.66816224597e-08 0)
(1.04974317519 9.67010045593e-08 0)
(1.04974315936 8.32575047463e-08 0)
(1.04974314235 6.62595378397e-08 0)
(1.04974312541 5.02654473799e-08 0)
(1.0497431092 3.73870898412e-08 0)
(1.04974309435 2.82814636264e-08 0)
(1.04974308034 2.18207290998e-08 0)
(1.04974306647 1.62405269742e-08 0)
(1.04974305307 1.18382808329e-08 0)
(1.04974304067 9.42187877333e-09 0)
(1.04974302843 7.84225775635e-09 0)
(1.04974301544 6.53238532669e-09 0)
(1.04974300182 5.51373865567e-09 0)
(1.04974298779 4.6224698539e-09 0)
(1.04974297335 3.75172555887e-09 0)
(1.04974295843 3.04895058917e-09 0)
(1.04974294298 2.83076559548e-09 0)
(1.0497429266 3.17819714005e-09 0)
(1.0497429089 3.89513554049e-09 0)
(1.04974288971 4.87006807722e-09 0)
(1.04974286923 6.20068102718e-09 0)
(1.04974284767 8.05509570816e-09 0)
(1.04974282519 1.04531219104e-08 0)
(1.04974280191 1.32151692465e-08 0)
(1.04974277787 1.59714881509e-08 0)
(1.04974275296 1.83546527664e-08 0)
(1.04974272689 2.01218093101e-08 0)
(1.04974269947 2.11914684117e-08 0)
(1.04974267074 2.19278308681e-08 0)
(1.04974264089 2.29073173298e-08 0)
(1.04974260991 2.46906190019e-08 0)
(1.04974257753 2.75237085347e-08 0)
(1.04974254346 3.11839972868e-08 0)
(1.04974250763 3.51163136192e-08 0)
(1.04974247032 3.87880450444e-08 0)
(1.04974243192 4.20286058964e-08 0)
(1.04974239258 4.51158713909e-08 0)
(1.04974235202 4.8567951856e-08 0)
(1.04974230973 5.28269882926e-08 0)
(1.04974226537 5.80507474709e-08 0)
(1.04974221916 6.4083187787e-08 0)
(1.04974217184 7.05203612939e-08 0)
(1.04974212411 7.68199850671e-08 0)
(1.04974207605 8.24921803032e-08 0)
(1.04974202703 8.73353935624e-08 0)
(1.04974197641 9.15445127396e-08 0)
(1.04974192437 9.55644544938e-08 0)
(1.04974187211 9.97924385763e-08 0)
(1.04974182119 1.04320045849e-07 0)
(1.04974177238 1.08834030394e-07 0)
(1.0497417253 1.12733738791e-07 0)
(1.04974167905 1.15463079356e-07 0)
(1.04974163355 1.1679799931e-07 0)
(1.04974159018 1.16704432356e-07 0)
(1.04974155125 1.14757765448e-07 0)
(1.04974151876 1.09658222614e-07 0)
(1.04974149377 9.94781186035e-08 0)
(1.04974147725 8.24828127682e-08 0)
(1.04974147145 5.76175167222e-08 0)
(1.04974148056 2.38021404945e-08 0)
(1.0497415091 -2.16472379933e-08 0)
(1.04974156096 -8.08815195383e-08 0)
(1.04974164016 -1.58395806514e-07 0)
(1.04974175274 -2.59384645741e-07 0)
(1.04974190836 -3.88173950996e-07 0)
(1.04974211965 -5.48924122888e-07 0)
(1.04974240056 -7.48038165811e-07 0)
(1.04974276584 -9.9528711666e-07 0)
(1.04974323388 -1.30298123295e-06 0)
(1.04974382996 -1.68440550285e-06 0)
(1.04974458666 -2.15504433449e-06 0)
(1.04974554239 -2.73478642738e-06 0)
(1.04974674265 -3.45031373051e-06 0)
(1.04974824434 -4.33679050397e-06 0)
(1.04975012071 -5.43645490826e-06 0)
(1.0497524653 -6.79928536613e-06 0)
(1.04975539343 -8.48674640713e-06 0)
(1.0497590453 -1.05762313621e-05 0)
(1.04976359393 -1.3164452926e-05 0)
(1.04976925669 -1.63708650395e-05 0)
(1.049776306 -2.034438523e-05 0)
(1.04978507955 -2.52721338602e-05 0)
(1.04979599623 -3.13883232462e-05 0)
(1.04980957822 -3.89838990256e-05 0)
(1.04982647591 -4.84205942947e-05 0)
(1.04984749646 -6.01504726276e-05 0)
(1.04987364114 -7.47355541128e-05 0)
(1.04990615915 -9.28702173134e-05 0)
(1.04994661208 -0.000115415445142 0)
(1.04999694375 -0.000143445956973 0)
(1.05005956931 -0.000178306815544 0)
(1.05013749591 -0.000221675542119 0)
(1.05023447477 -0.000275640533548 0)
(1.05035518225 -0.000342808542099 0)
(1.05050544406 -0.000426440595197 0)
(1.05069252374 -0.000530613882262 0)
(1.05092548439 -0.000660427186276 0)
(1.0512156351 -0.000822274452414 0)
(1.05157709522 -0.00102419237527 0)
(1.05202751082 -0.00127629256127 0)
(1.05258894767 -0.0015913266581 0)
(1.05328901581 -0.00198544146694 0)
(1.05416231375 -0.0024791687169 0)
(1.0552522648 -0.00309873452004 0)
(1.05661343942 -0.00387783808623 0)
(1.05831454884 -0.00486010128282 0)
(1.06044233004 -0.00610250914462 0)