/*--------------------------------*- C++ -*----------------------------------*\
| =========                 |                                                 |
| \\      /  F ield         | OpenFOAM: The Open Source CFD Toolbox           |
|  \\    /   O peration     | Version:  2106                                  |
|   \\  /    A nd           | Website:  www.openfoam.com                      |
|    \\/     M anipulation  |                                                 |
\*---------------------------------------------------------------------------*/
FoamFile
{
    version     2.0;
    format      ascii;
    arch        "LSB;label=32;scalar=64";
    class       surfaceScalarField;
    location    "0.17";
    object      phi;
}
// * * * * * * * * * * * * * * * * * * * * * * * * * * * * * * * * * * * * * //

dimensions      [0 3 -1 0 0 0 0];

oriented        oriented;

internalField   nonuniform List<scalar> 
22100
(
3.38461203e-05
1.61538796791e-05
2.24572096854e-05
1.13889104588e-05
1.62585526922e-05
6.19865688975e-06
1.27977755901e-05
3.46077699108e-06
1.08046415975e-05
1.99313388529e-06
9.60458846676e-06
1.20005303374e-06
8.85132060535e-06
7.53267763027e-07
8.36435169037e-06
4.86968810263e-07
8.04433371195e-06
3.20017868307e-07
7.83283882177e-06
2.11494775498e-07
7.69339556298e-06
1.39443141716e-07
7.60223857701e-06
9.11568671062e-08
7.54347568924e-06
5.87627693315e-08
7.50633865954e-06
3.71369135243e-08
7.48349902654e-06
2.28395209918e-08
7.46997807242e-06
1.35208490836e-08
7.46241331448e-06
7.56466169925e-09
7.45854514537e-06
3.8680826529e-09
7.45682600671e-06
1.71906141821e-09
7.45641927911e-06
4.06656455407e-10
7.45676901923e-06
-3.49806946263e-10
7.45745513971e-06
-6.86189269868e-10
7.4582134448e-06
-7.58382220669e-10
7.45893873954e-06
-7.25382858369e-10
7.45958307744e-06
-6.44436434692e-10
7.46012708833e-06
-5.4411235896e-10
7.46056933771e-06
-4.42342512858e-10
7.46091828238e-06
-3.4902251703e-10
7.46118682145e-06
-2.68603845802e-10
7.46138903286e-06
-2.02269777616e-10
7.46153828951e-06
-1.49319453616e-10
7.46164626774e-06
-1.08054128341e-10
7.46172269791e-06
-7.65174721513e-11
7.46177571877e-06
-5.31111231645e-11
7.46180933979e-06
-3.37042452286e-11
7.4618284866e-06
-1.92179190481e-11
7.46183786454e-06
-9.44219826157e-12
7.46184093779e-06
-3.14317955177e-12
7.46183966854e-06
1.1857471237e-12
7.46183519065e-06
4.38538249398e-12
7.461828456e-06
6.64840295147e-12
7.46182007741e-06
8.31294257496e-12
7.46181040839e-06
9.6269875982e-12
7.46179959621e-06
1.07830170933e-11
7.46178761221e-06
1.19479433534e-11
7.46177430895e-06
1.3242865433e-11
7.46175945385e-06
1.47659718511e-11
7.46174272911e-06
1.66183387657e-11
7.46172370847e-06
1.89178311218e-11
7.46170187021e-06
2.17536243751e-11
7.46167660393e-06
2.51935289499e-11
7.4616472021e-06
2.93200890424e-11
7.46161286952e-06
3.42249243546e-11
7.46157274261e-06
3.99942403618e-11
7.46152593045e-06
4.66708257392e-11
7.46147158544e-06
5.42137128161e-11
7.46140897512e-06
6.25058675586e-11
7.46133779262e-06
7.11046479175e-11
7.46125864095e-06
7.90930644003e-11
7.46117381927e-06
8.47414983729e-11
7.46108922559e-06
8.44549992167e-11
7.46101729971e-06
7.17789432095e-11
7.46096644045e-06
5.07354192371e-11
7.46095510514e-06
1.11899405887e-11
7.46101922936e-06
-6.42247060075e-11
7.46121718093e-06
-1.980376123e-10
7.46164378308e-06
-4.26701729417e-10
7.46244977534e-06
-8.0611143161e-10
7.46387164048e-06
-1.42199343953e-09
7.46626675797e-06
-2.39524015767e-09
7.47008676668e-06
-3.82012455252e-09
7.47655168378e-06
-6.46500522229e-09
7.48735845832e-06
-1.08068405406e-08
7.50560312163e-06
-1.8244744846e-08
7.53891894751e-06
-3.33159680824e-08
7.6083955142e-06
-6.94767467993e-08
7.7756704775e-06
-1.67275104261e-07
8.23227979845e-06
-4.56609490897e-07
9.70583213215e-06
-1.47355256212e-06
-5.47843052846e-06
1.51842626763e-05
5.02175948188e-05
1.59362847425e-05
4.42441114386e-05
1.73623935907e-05
3.77795012096e-05
1.26632669197e-05
3.26461436158e-05
8.59413439388e-06
2.89380913808e-05
5.70118593325e-06
2.63596208605e-05
3.77852336789e-06
2.45875163233e-05
2.52537210728e-06
2.33734741347e-05
1.70101079793e-06
2.25435249567e-05
1.14996684025e-06
2.19782161479e-05
7.76803375001e-07
2.15955135036e-05
5.22145574574e-07
2.13387368309e-05
3.47933328115e-07
2.116849521e-05
2.29004181294e-07
2.10573375136e-05
1.48294406925e-07
2.09861495301e-05
9.40273131213e-08
2.09416771039e-05
5.79930975173e-08
2.09147952679e-05
3.44463349258e-08
2.08992961788e-05
1.93670251689e-08
2.08910724738e-05
9.94263233541e-09
2.08872722638e-05
4.20674053191e-09
2.0886203421e-05
7.18906030619e-10
2.08864492466e-05
-9.32158992409e-10
2.08873208646e-05
-1.6301612751e-09
2.08884606146e-05
-1.86530647693e-09
2.08896342788e-05
-1.81827454656e-09
2.08907177082e-05
-1.62770199978e-09
2.0891655854e-05
-1.380626989e-09
2.08924340384e-05
-1.12732624211e-09
2.08930600036e-05
-8.9468132836e-10
2.08935529239e-05
-6.95310981728e-10
2.08939375185e-05
-5.34054384073e-10
2.08942400923e-05
-4.10783553774e-10
2.0894452071e-05
-2.88656049504e-10
2.08946001677e-05
-2.01356434335e-10
2.0894701575e-05
-1.3524438026e-10
2.08947679866e-05
-8.57534232789e-11
2.08948094128e-05
-5.09974778962e-11
2.08948340778e-05
-2.7952087445e-11
2.08948468293e-05
-1.17187430563e-11
2.08948505764e-05
4.98310377154e-13
2.08948477451e-05
9.37304280123e-12
2.0894839998e-05
1.598682685e-11
2.08948284513e-05
2.11137736686e-11
2.0894813799e-05
2.5357904853e-11
2.08947963909e-05
2.92364324314e-11
2.08947763542e-05
3.31166749613e-11
2.08947536751e-05
3.72612230679e-11
2.08947282303e-05
4.18812675853e-11
2.08946997876e-05
4.71954341887e-11
2.08946680746e-05
5.33131771676e-11
2.089463284e-05
6.02675866658e-11
2.08945938943e-05
6.80796783902e-11
2.08945512036e-05
7.66968909269e-11
2.08945050295e-05
8.5928649951e-11
2.08944561536e-05
9.53173627013e-11
2.08944062586e-05
1.03926161366e-10
2.08943584526e-05
1.10186830111e-10
2.0894318318e-05
1.11110246588e-10
2.08942951569e-05
1.02080687663e-10
2.0894303951e-05
7.57448301276e-11
2.08943706696e-05
1.74613829393e-11
2.08945446325e-05
-1.02484335498e-10
2.08948940755e-05
-2.9891711192e-10
2.08955366263e-05
-6.31547451319e-10
2.08965864769e-05
-1.11427716113e-09
2.08982144408e-05
-1.82618951896e-09
2.09007802037e-05
-2.99268288203e-09
2.09048342773e-05
-4.86040900525e-09
2.09112502583e-05
-7.83814333572e-09
2.09214595939e-05
-1.26046758674e-08
2.09379665934e-05
-2.03272265607e-08
2.0964936364e-05
-3.34349713778e-08
2.10093495107e-05
-5.52202726983e-08
2.10844521886e-05
-9.33477289519e-08
2.12163140339e-05
-1.65178059982e-07
2.14581438362e-05
-3.11306690789e-07
2.19184788633e-05
-6.27610326008e-07
2.28108288326e-05
-1.34895973153e-06
2.44662364813e-05
-3.12896043675e-06
-7.08377756079e-06
2.60715844921e-05
5.35171052777e-05
1.2419179352e-05
5.29349681108e-05
1.79445305376e-05
4.96538397928e-05
1.59443950609e-05
4.58401809879e-05
1.24077930243e-05
4.24400918345e-05
9.10127491654e-06
3.97291717186e-05
6.48944331745e-06
3.76873050765e-05
4.56723857859e-06
3.61976620743e-05
3.19065362299e-06
3.51326112577e-05
2.21501747407e-06
3.43823660182e-05
1.52704842693e-06
3.38606248465e-05
1.04388655586e-06
3.35023444188e-05
7.06213565957e-07
3.3259599339e-05
4.71749076244e-07
3.3097588871e-05
3.10304700796e-07
3.29913326545e-05
2.00283369955e-07
3.29230906593e-05
1.26234947062e-07
3.28804026177e-05
7.71342415896e-08
3.28546174208e-05
4.51520928139e-08
3.28397903056e-05
2.47696224465e-08
3.28318638273e-05
1.2133094807e-08
3.2827994404e-05
4.58820200894e-09
3.28269959601e-05
6.61509371488e-11
3.28271769358e-05
-1.81128138459e-09
3.28280256683e-05
-2.71419086305e-09
3.28291418714e-05
-2.93462742888e-09
3.28302896772e-05
-2.77564484603e-09
3.28313463489e-05
-2.43741837813e-09
3.28322575849e-05
-2.03866621103e-09
3.28330085323e-05
-1.6457284536e-09
3.28336052762e-05
-1.29216323634e-09
3.28340627686e-05
-9.91669855558e-10
3.28343987373e-05
-7.4688808143e-10
3.28346660707e-05
-5.56123949775e-10
3.28348831305e-05
-4.18538664437e-10
3.28350318119e-05
-2.84032736957e-10
3.28351321901e-05
-1.86236970807e-10
3.28351990769e-05
-1.18001004346e-10
3.28352418711e-05
-7.08814153676e-11
3.28352675101e-05
-3.75027743664e-11
3.28352798975e-05
-1.20234494858e-11
3.28352826038e-05
6.5595764031e-12
3.28352781203e-05
2.03930779887e-11
3.2835268238e-05
3.09358231124e-11
3.28352541691e-05
3.93600577794e-11
3.28352366528e-05
4.66611626787e-11
3.28352161526e-05
5.34951147237e-11
3.28351929791e-05
6.02966611882e-11
3.28351673206e-05
6.74014828969e-11
3.2835139176e-05
7.52039492739e-11
3.28351085909e-05
8.37539122352e-11
3.28350758421e-05
9.28494867074e-11
3.28350414591e-05
1.02269708518e-10
3.28350063828e-05
1.11560829441e-10
3.28349722577e-05
1.19839180732e-10
3.28349419058e-05
1.25479606065e-10
3.28349199428e-05
1.25742015436e-10
3.28349132254e-05
1.16806020812e-10
3.2834932557e-05
9.16886953492e-11
3.28349949646e-05
3.95272426348e-11
3.28351294571e-05
-5.89246565225e-11
3.28353869122e-05
-2.40211472306e-10
3.2835854656e-05
-5.70484677121e-10
3.28365571149e-05
-1.00158176175e-09
3.28375794809e-05
-1.65407643757e-09
3.2839175857e-05
-2.71083812596e-09
3.28417295587e-05
-4.3800858478e-09
3.28457455282e-05
-7.00886521011e-09
3.28520411891e-05
-1.11563045246e-08
3.28619356586e-05
-1.77328143888e-08
3.28776045631e-05
-2.82737219315e-08
3.29027280854e-05
-4.54508543211e-08
3.29426909647e-05
-7.33979836141e-08
3.30073859476e-05
-1.19915482485e-07
3.31139078053e-05
-1.9986989877e-07
3.32914775478e-05
-3.42748073914e-07
3.35886833868e-05
-6.08512744198e-07
3.40772957316e-05
-1.11622298028e-06
3.48245720821e-05
-2.09623667491e-06
3.56954677041e-05
-3.99985736645e-06
-7.16383251813e-06
3.57755186723e-05
5.35105663963e-05
8.90861284496e-06
5.55742220069e-05
1.58808747101e-05
5.52424821691e-05
1.62761347279e-05
5.35977854992e-05
1.40524895259e-05
5.15418471172e-05
1.11572131347e-05
4.95802792225e-05
8.45101105145e-06
4.79243500636e-05
6.22316757292e-06
4.66181380421e-05
4.49686547295e-06
4.56304650859e-05
3.2026902529e-06
4.49051159797e-05
2.2523973526e-06
4.43840886316e-05
1.56491372259e-06
4.40166923247e-05
1.07360969415e-06
4.37619656807e-05
7.26475547511e-07
4.3588266936e-05
4.84003281777e-07
4.34718674576e-05
3.16682694579e-07
4.33953572944e-05
2.02744967054e-07
4.33461869577e-05
1.26304442454e-07
4.33154493285e-05
7.58895930141e-08
4.32969129946e-05
4.33058329863e-08
4.32862870105e-05
2.27589573168e-08
4.32806842995e-05
1.01907898581e-08
4.32778767943e-05
2.87352616366e-09
4.32770493758e-05
-9.84002031256e-10
4.32772676618e-05
-2.93262130706e-09
4.32779557086e-05
-3.62281436599e-09
4.32788194013e-05
-3.63946425669e-09
4.32796929743e-05
-3.31110174551e-09
4.3280491305e-05
-2.83709578064e-09
4.32811780232e-05
-2.33254617033e-09
4.32817448855e-05
-1.85913714146e-09
4.3282198702e-05
-1.44561414632e-09
4.32825522282e-05
-1.10054964822e-09
4.32828152794e-05
-8.19304948811e-10
4.32829923132e-05
-5.95686153721e-10
4.32831263802e-05
-4.18199348385e-10
4.32832137311e-05
-2.73688223089e-10
4.3283268335e-05
-1.72721525799e-10
4.32833090474e-05
-1.11730058871e-10
4.32833343297e-05
-6.29272508901e-11
4.32833470588e-05
-2.48806376321e-11
4.32833507014e-05
2.81975872677e-12
4.32833471986e-05
2.3830390593e-11
4.3283338186e-05
3.98955005597e-11
4.32833248348e-05
5.26470923987e-11
4.32833077778e-05
6.36233454141e-11
4.3283287432e-05
7.37133451983e-11
4.32832641246e-05
8.34598248458e-11
4.32832381385e-05
9.32433528643e-11
4.32832098448e-05
1.0335974446e-10
4.32831797639e-05
1.1369616149e-10
4.32831484663e-05
1.23990311302e-10
4.32831168697e-05
1.33679039886e-10
4.32830864045e-05
1.4182010601e-10
4.32830591662e-05
1.46884290054e-10
4.3283038094e-05
1.4639263946e-10
4.32830273604e-05
1.36337392754e-10
4.32830340482e-05
1.10016964465e-10
4.32830698428e-05
5.57965018018e-11
4.32831532103e-05
-4.3990225704e-11
4.32833047355e-05
-2.10645606886e-10
4.32835246847e-05
-4.60360268274e-10
4.32839475717e-05
-9.93619828454e-10
4.32846895749e-05
-1.74379013523e-09
4.32859135613e-05
-2.87823945042e-09
4.32878247136e-05
-4.62216678236e-09
4.32907719702e-05
-7.32752517575e-09
4.32953160582e-05
-1.15531449709e-08
4.33023386324e-05
-1.81790469337e-08
4.33132278914e-05
-2.86222375514e-08
4.33301532408e-05
-4.51992362821e-08
4.33564449287e-05
-7.17426869295e-08
4.33977092549e-05
-1.14662455273e-07
4.34628611586e-05
-1.85067591808e-07
4.35657356305e-05
-3.02744608947e-07
4.37264756853e-05
-5.03488344326e-07
4.39699823531e-05
-8.52019590903e-07
4.43133603529e-05
-1.4596011059e-06
4.47183698981e-05
-2.5012460725e-06
4.49439843972e-05
-4.22547115549e-06
-6.63996531752e-06
4.44201147829e-05
5.27351379253e-05
6.17347481562e-06
5.57309341787e-05
1.288507824e-05
5.73114738673e-05
1.46955948715e-05
5.76109912308e-05
1.37529719957e-05
5.7133521949e-05
1.16346822522e-05
5.63194673496e-05
9.26506548958e-06
5.54489871275e-05
7.0936476296e-06
5.46629765299e-05
5.28287590077e-06
5.40136809382e-05
3.85198567221e-06
5.35061495826e-05
2.75992853486e-06
5.31242536527e-05
1.94680947994e-06
5.28449841142e-05
1.35287906308e-06
5.26454378967e-05
9.26021601614e-07
5.25057137055e-05
6.23727316148e-07
5.24097190166e-05
4.12677234099e-07
5.23450131153e-05
2.67450725365e-07
5.23022754303e-05
1.69041990855e-07
5.22746884322e-05
1.03476460598e-07
5.22573640741e-05
6.0630065491e-08
5.22468555855e-05
3.3267322846e-08
5.22407560746e-05
1.62901754999e-08
5.22374474115e-05
6.18205825334e-09
5.22359488749e-05
5.14397320858e-10
5.22354411106e-05
-2.42499635025e-09
5.22355062648e-05
-3.68810213438e-09
5.22358519812e-05
-3.98530161983e-09
5.22363065572e-05
-3.76578519479e-09
5.22367733602e-05
-3.3039997101e-09
5.22372012902e-05
-2.76058090994e-09
5.22375676189e-05
-2.22558409319e-09
5.2237865646e-05
-1.74377258532e-09
5.22380981423e-05
-1.33317782913e-09
5.22382753522e-05
-9.96636320438e-10
5.2238409113e-05
-7.29551581978e-10
5.22385102202e-05
-5.19401571508e-10
5.22385947458e-05
-3.58316572975e-10
5.22386613456e-05
-2.39445717936e-10
5.22387039226e-05
-1.54450938275e-10
5.2238737583e-05
-9.67340277895e-11
5.22387535345e-05
-4.0958178585e-11
5.22387591676e-05
-2.90444442658e-12
5.22387570732e-05
2.58626596575e-11
5.22387491469e-05
4.77677445268e-11
5.22387367052e-05
6.50193690268e-11
5.22387206053e-05
7.96238690351e-11
5.22387014473e-05
9.27441054589e-11
5.2238679818e-05
1.04945518163e-10
5.22386567794e-05
1.16135728209e-10
5.22386315029e-05
1.28497063478e-10
5.22386036698e-05
1.41390712748e-10
5.22385745779e-05
1.5292504829e-10
5.22385452405e-05
1.62828525966e-10
5.22385171345e-05
1.69723492371e-10
5.22384925533e-05
1.71278354278e-10
5.22384755561e-05
1.63235220394e-10
5.22384761269e-05
1.35642812411e-10
5.22385011303e-05
8.49093642551e-11
5.22385646609e-05
-7.846267211e-12
5.22386764294e-05
-1.55901867199e-10
5.22388522088e-05
-3.86619274507e-10
5.22391733461e-05
-7.81686998164e-10
5.22396686771e-05
-1.48915082696e-09
5.22404138725e-05
-2.48919875488e-09
5.22415411697e-05
-4.00571305534e-09
5.22432533892e-05
-6.33457690944e-09
5.22458521421e-05
-9.92649397154e-09
5.22497899209e-05
-1.54911143795e-08
5.2255759283e-05
-2.41485494361e-08
5.22648227224e-05
-3.76858072161e-08
5.22786056316e-05
-5.89822926695e-08
5.22995814427e-05
-9.27186583567e-08
5.23314915456e-05
-1.46572749434e-07
5.23797250354e-05
-2.33301292762e-07
5.24512846184e-05
-3.74304369505e-07
5.2553152575e-05
-6.05356454564e-07
5.26860352277e-05
-9.84902375918e-07
5.28278620765e-05
-1.60142838118e-06
5.28971076366e-05
-2.57049200336e-06
5.26805581178e-05
-4.00892088911e-06
-5.83029930664e-06
5.187089066e-05
5.19834863882e-05
4.18998832314e-06
5.50586636926e-05
9.80990071408e-06
5.76386127685e-05
1.21156456249e-05
5.93259025549e-05
1.20656820392e-05
6.02280144334e-05
1.07325702051e-05
6.05929254648e-05
8.90015429267e-06
6.0648282228e-05
7.03829069796e-06
6.05531876065e-05
5.37797035242e-06
6.04029528637e-05
4.00222024565e-06
6.02479121857e-05
2.91496904487e-06
6.01107864823e-05
2.08393501682e-06
5.99990267851e-05
1.46463859595e-06
5.9912511439e-05
1.01253678679e-06
5.98479193818e-05
6.88319216966e-07
5.98010156564e-05
4.59580807187e-07
5.97677308555e-05
3.00735379212e-07
5.97445893597e-05
1.92183344563e-07
5.97288106856e-05
1.19254998716e-07
5.97182624214e-05
7.11781998758e-08
5.97113561278e-05
4.0173489861e-08
5.9706936691e-05
2.07094846105e-08
5.97042027261e-05
8.91589111735e-09
5.97025936252e-05
2.12336178711e-09
5.97016890601e-05
-1.52056767167e-09
5.9701230756e-05
-3.22992794941e-09
5.97010412606e-05
-3.79592415936e-09
5.97010050469e-05
-3.72967929702e-09
5.97010494512e-05
-3.34850887334e-09
5.97011307419e-05
-2.84198201626e-09
5.97012232401e-05
-2.31820428288e-09
5.97013130564e-05
-1.83371858817e-09
5.97013935716e-05
-1.41381833083e-09
5.97014633215e-05
-1.06649607127e-09
5.97015229239e-05
-7.89249137332e-10
5.97015731815e-05
-5.69750585281e-10
5.97016131154e-05
-3.98357640711e-10
5.97016411603e-05
-2.67623750972e-10
5.97016571007e-05
-1.70543228262e-10
5.97016557625e-05
-9.5544289231e-11
5.9701647345e-05
-3.26617117941e-11
5.97016406054e-05
3.74891706102e-12
5.97016312914e-05
3.51153322511e-11
5.97016203572e-05
5.86419509067e-11
5.97016083138e-05
7.69801134501e-11
5.97015938953e-05
9.39320454659e-11
5.97015768507e-05
1.09655280231e-10
5.97015571144e-05
1.24538087166e-10
5.97015342917e-05
1.38818884452e-10
5.97015101018e-05
1.52553357284e-10
5.97014859895e-05
1.65365045843e-10
5.97014621743e-05
1.76583448492e-10
5.97014398816e-05
1.84945083774e-10
5.97014208405e-05
1.88578619662e-10
5.97014070141e-05
1.84919188501e-10
5.97013993024e-05
1.70803780605e-10
5.97013913891e-05
1.43451152199e-10
5.97013872357e-05
8.89442960487e-11
5.97013963312e-05
-1.70659067408e-11
5.97014504902e-05
-2.10221229117e-10
5.97016205539e-05
-5.56876285864e-10
5.97019032163e-05
-1.06454016523e-09
5.97022686187e-05
-1.8547493438e-09
5.97028184127e-05
-3.03918749531e-09
5.97036358565e-05
-4.82333728239e-09
5.97048336682e-05
-7.53258809453e-09
5.97065756442e-05
-1.16686911472e-08
5.97090988356e-05
-1.80145123e-08
5.97127457452e-05
-2.77956291212e-08
5.97180051395e-05
-4.29453396145e-08
5.97255585598e-05
-6.65358405524e-08
5.97363119758e-05
-1.03472245832e-07
5.97513318497e-05
-1.61592862929e-07
5.97714655973e-05
-2.5343526996e-07
5.97961371405e-05
-3.98976124996e-07
5.98202029802e-05
-6.29422390756e-07
5.98267701112e-05
-9.91469577962e-07
5.9773667378e-05
-1.54832593865e-06
5.95725375e-05
-2.36936271179e-06
5.90644341586e-05
-3.5008170913e-06
-4.85257513312e-06
5.80867091678e-05
5.14373052878e-05
2.75268292665e-06
5.42658202862e-05
6.98138548829e-06
5.72496427782e-05
9.13182295676e-06
5.97900269502e-05
9.52529769123e-06
6.17201272583e-05
8.80246972268e-06
6.3088302026e-05
7.53197935574e-06
6.40167154079e-05
6.10987714714e-06
6.46292350304e-05
4.7654505623e-06
6.50258018157e-05
3.60565329545e-06
6.52790762195e-05
2.66169447842e-06
6.54389710963e-05
1.92403997759e-06
6.55386877561e-05
1.36492177282e-06
6.55999261299e-05
9.51298250036e-07
6.56367407921e-05
6.5150439339e-07
6.56581917504e-05
4.38129690259e-07
6.56700998422e-05
2.88827132838e-07
6.56761889583e-05
1.86094080422e-07
6.56788251478e-05
1.1661866867e-07
6.56794954673e-05
7.05077470323e-08
6.56791191326e-05
4.05496962731e-08
6.56782515856e-05
2.1576903589e-08
6.56772204845e-05
9.94686057495e-09
6.56762110124e-05
3.13269883464e-09
6.56753015122e-05
-6.11202222782e-10
6.56745325233e-05
-2.46106742843e-09
6.56739038413e-05
-3.16736009944e-09
6.56734045925e-05
-3.23054074143e-09
6.56730173055e-05
-2.96133221256e-09
6.56727229884e-05
-2.54778004639e-09
6.56725034754e-05
-2.0988139496e-09
6.5672342659e-05
-1.67302689883e-09
6.56722268831e-05
-1.29815709499e-09
6.56721440794e-05
-9.83791102209e-10
6.56720836131e-05
-7.28871370441e-10
6.56720396618e-05
-5.25893239919e-10
6.56720080059e-05
-3.66815978954e-10
6.56719826682e-05
-2.42426442044e-10
6.56719606288e-05
-1.48658960741e-10
6.56719444635e-05
-7.95239806546e-11
6.56719420564e-05
-3.03704516297e-11
6.56719401624e-05
5.56070946556e-12
6.5671932487e-05
4.27269077383e-11
6.5671922141e-05
6.89164213362e-11
6.56719090298e-05
8.99966295156e-11
6.56718941967e-05
1.08643646806e-10
6.56718776847e-05
1.26026163959e-10
6.56718593397e-05
1.42740274845e-10
6.5671839087e-05
1.58940120002e-10
6.56718178371e-05
1.73676969268e-10
6.56717970602e-05
1.86000851278e-10
6.56717755783e-05
1.97904483587e-10
6.56717539926e-05
2.06362241478e-10
6.56717333443e-05
2.09050244585e-10
6.56717152875e-05
2.0280933525e-10
6.56717028429e-05
1.83117790425e-10
6.5671702439e-05
1.43739835284e-10
6.56717113544e-05
7.99155831065e-11
6.56717238959e-05
-2.974440443e-11
6.56717877006e-05
-2.74194227724e-10
6.56718707877e-05
-6.4016975307e-10
6.56720030124e-05
-1.19696752177e-09
6.56721904986e-05
-2.04243153953e-09
6.56724479456e-05
-3.29682955141e-09
6.56727907538e-05
-5.16632983158e-09
6.56732280555e-05
-7.97008314139e-09
6.56737552045e-05
-1.21960408951e-08
6.56743396505e-05
-1.85991691551e-08
6.56748908343e-05
-2.83470103228e-08
6.56752013852e-05
-4.32560386939e-08
6.56748362588e-05
-6.61708347358e-08
6.56729195429e-05
-1.01555702536e-07
6.56676950725e-05
-1.56368614351e-07
6.5655598603e-05
-2.41339055991e-07
6.56294532629e-05
-3.72831032184e-07
6.55750181772e-05
-5.74987489109e-07
6.54648845094e-05
-8.81335978724e-07
6.52495336007e-05
-1.33297518878e-06
6.48482282278e-05
-1.96805790915e-06
6.41472119169e-05
-2.79980058439e-06
-3.75944882171e-06
6.30540851841e-05
5.10850422766e-05
1.66764053782e-06
5.36118442706e-05
4.4545832644e-06
5.66873160246e-05
6.0563510224e-06
5.96894458641e-05
6.52316767056e-06
6.22997263043e-05
6.19218910328e-06
6.44136877101e-05
5.4180177788e-06
6.6047183706e-05
4.47638098467e-06
6.72686151185e-05
3.54401898756e-06
6.81598940369e-05
2.71437421844e-06
6.87977605349e-05
2.02382782243e-06
6.92467448289e-05
1.47505552251e-06
6.95579635992e-05
1.05370283652e-06
6.97704302346e-05
7.38831446333e-07
6.9913173287e-05
5.08761173197e-07
7.00073844207e-05
3.43918391624e-07
7.00682940447e-05
2.2791735005e-07
7.01066961573e-05
1.47691818001e-07
7.01301385445e-05
9.31761404787e-08
7.01438277298e-05
5.6818428781e-08
7.01513038452e-05
3.3073453064e-08
7.01549362682e-05
1.79443528821e-08
7.01562839048e-05
8.59909342963e-09
7.01563555019e-05
3.06096865304e-09
7.0155763253e-05
-1.90864206544e-11
7.01549018754e-05
-1.59981838175e-09
7.01539777026e-05
-2.24330860555e-09
7.01531083968e-05
-2.36135096134e-09
7.01523476143e-05
-2.2006651274e-09
7.01517125639e-05
-1.9128495189e-09
7.01512004014e-05
-1.58677209841e-09
7.01507982144e-05
-1.27095691554e-09
7.01504890798e-05
-9.89126741273e-10
7.01502553952e-05
-7.50196172333e-10
7.01500809929e-05
-5.54555667169e-10
7.01499528646e-05
-3.97862658962e-10
7.01498603351e-05
-2.74407040273e-10
7.01497962584e-05
-1.78493736447e-10
7.01497533509e-05
-1.05903382121e-10
7.01497238646e-05
-5.01762809863e-11
7.01496933094e-05
7.38483554989e-14
7.01496687065e-05
3.00772206672e-11
7.0149654499e-05
5.68562014296e-11
7.01496431407e-05
8.01867830997e-11
7.01496324139e-05
1.00616273621e-10
7.01496215212e-05
1.19408091895e-10
7.01496100691e-05
1.373388324e-10
7.01495979173e-05
1.54757509042e-10
7.01495850873e-05
1.71648012275e-10
7.01495709641e-05
1.87678170526e-10
7.01495545548e-05
2.02271592672e-10
7.01495377467e-05
2.14557331725e-10
7.01495211631e-05
2.22778394782e-10
7.01495055325e-05
2.24522179532e-10
7.01494915541e-05
2.16646216125e-10
7.01494792585e-05
1.95280206125e-10
7.01494668511e-05
1.56017853623e-10
7.01494498753e-05
9.67627913673e-11
7.0149443301e-05
-2.33451965024e-11
7.0149436244e-05
-2.67317669123e-10
7.01494455486e-05
-6.49674395643e-10
7.01494537223e-05
-1.20532878377e-09
7.01494368988e-05
-2.02579019289e-09
7.01493664865e-05
-3.22660813392e-09
7.0149187626e-05
-4.98767351732e-09
7.0148798826e-05
-7.58148038662e-09
7.01480215007e-05
-1.14189018354e-08
7.01465508385e-05
-1.71287043635e-08
7.014386624e-05
-2.56626125041e-08
7.01390809016e-05
-3.8470866723e-08
7.01306977188e-05
-5.77877889942e-08
7.01162132407e-05
-8.70713734842e-08
7.00914208016e-05
-1.31576371221e-07
7.00491626059e-05
-1.99081162095e-07
6.99773588595e-05
-3.01027556118e-07
6.98558646938e-05
-4.53493569976e-07
6.96519308357e-05
-6.77402288218e-07
6.93151254779e-05
-9.96169904403e-07
6.87750314832e-05
-1.42796437232e-06
6.79476704508e-05
-1.97243957315e-06
-2.58467241472e-06
6.67728938413e-05
5.08804131087e-05
7.87227315017e-07
5.31704658968e-05
2.16453024684e-06
5.62177492904e-05
3.00906744719e-06
5.94382691221e-05
3.30264765462e-06
6.24449687657e-05
3.18548927833e-06
6.50382520198e-05
2.82473435416e-06
6.71548654317e-05
2.35976741045e-06
6.8813563773e-05
1.88532049055e-06
7.00731696231e-05
1.45476821591e-06
7.10056664331e-05
1.09133085757e-06
7.16812625675e-05
7.99459225549e-07
7.21614217634e-05
5.73543470331e-07
7.24966025295e-05
4.03650504591e-07
7.27264789232e-05
2.78884605071e-07
7.28812776601e-05
1.89119486793e-07
7.29834672461e-05
1.25727605523e-07
7.30494108432e-05
8.17480735054e-08
7.30908127351e-05
5.1774111333e-08
7.31159064152e-05
3.17246185188e-08
7.31303905987e-05
1.85891421432e-08
7.31381448918e-05
1.01899315335e-08
7.31417647965e-05
4.97905798932e-09
7.31429518941e-05
1.8737390025e-09
7.31428045503e-05
1.28126084002e-10
7.31419804162e-05
-7.7581315918e-10
7.31408963924e-05
-1.15941026888e-09
7.31397802449e-05
-1.24532424068e-09
7.31387513805e-05
-1.17192159317e-09
7.31378622657e-05
-1.02385599991e-09
7.31371268304e-05
-8.51454509927e-10
7.31365377142e-05
-6.81949205557e-10
7.31360775613e-05
-5.29069429958e-10
7.31357255332e-05
-3.98254404594e-10
7.31354610187e-05
-2.90129855389e-10
7.31352656878e-05
-2.02635366781e-10
7.31351239358e-05
-1.32781463519e-10
7.31350226048e-05
-7.73053037564e-11
7.31349493308e-05
-3.27717561075e-11
7.31348940953e-05
4.93298947657e-12
7.31348627595e-05
3.13053622821e-11
7.31348383539e-05
5.43897874687e-11
7.31348202441e-05
7.48700403853e-11
7.3134806687e-05
9.36371935096e-11
7.31347958548e-05
1.1132671525e-10
7.31347864658e-05
1.28666697883e-10
7.31347776245e-05
1.46050203552e-10
7.31347686932e-05
1.6356651153e-10
7.31347592089e-05
1.81014099736e-10
7.31347488907e-05
1.97873209118e-10
7.31347376489e-05
2.13383123225e-10
7.31347254819e-05
2.2657349221e-10
7.31347124013e-05
2.35692740066e-10
7.31346984579e-05
2.38320668375e-10
7.31346837095e-05
2.31263890097e-10
7.31346683572e-05
2.10508339024e-10
7.31346528749e-05
1.71364446794e-10
7.3134638599e-05
1.10874400953e-10
7.31346102637e-05
4.80964456191e-12
7.31345635032e-05
-2.20748450613e-10
7.31344885064e-05
-5.7488538705e-10
7.31343628633e-05
-1.07985879226e-09
7.3134143091e-05
-1.80617237876e-09
7.31337594861e-05
-2.84317969145e-09
7.31330952211e-05
-4.32361781605e-09
7.31319539631e-05
-6.44043305694e-09
7.313000948e-05
-9.47460591681e-09
7.31267327937e-05
-1.38521964621e-08
7.31212549254e-05
-2.0184929781e-08
7.31121450947e-05
-2.93612087769e-08
7.30970778927e-05
-4.2720740406e-08
7.30723262469e-05
-6.23198480564e-08
7.30319152687e-05
-9.11655750778e-08
7.29662328647e-05
-1.33399032552e-07
7.28601090597e-05
-1.94904096918e-07
7.26901275582e-05
-2.83512342145e-07
7.2421382256e-05
-4.0865720509e-07
7.20048638116e-05
-5.79651510865e-07
7.13783669634e-05
-8.01467873168e-07
7.04748435225e-05
-1.06891629812e-06
-1.35743373409e-06
6.92476047342e-05
5.07871725153e-05
5.46858262035e-11
5.29516495753e-05
5.29581207924e-11
5.59606880284e-05
2.88126185869e-11
5.92633213093e-05
1.41884409091e-11
6.24488076707e-05
2.73565531414e-12
6.52735480027e-05
-6.14725025562e-12
6.76333273091e-05
-1.2054609106e-11
6.95186626492e-05
-1.50004896089e-11
7.09734461433e-05
-1.54273804624e-11
7.20647907806e-05
-1.39351891239e-11
7.28642609994e-05
-1.11596569712e-11
7.34378120501e-05
-7.75668826778e-12
7.38414667589e-05
-4.38506749791e-12
7.41203528741e-05
-1.68705573839e-12
7.43094724393e-05
-2.45285295228e-13
7.44352003519e-05
-4.62056357073e-13
7.4516950868e-05
-2.58568659659e-12
7.45687312205e-05
-6.37557264024e-12
7.46004669062e-05
-1.11969454301e-11
7.4619071992e-05
-1.60722046118e-11
7.46292816692e-05
-1.98748783392e-11
7.46342821075e-05
-2.15112526366e-11
7.4636176237e-05
-2.05216295056e-11
7.46363224231e-05
-1.81900908739e-11
7.46355621123e-05
-1.56302308592e-11
7.46344150449e-05
-1.24704048726e-11
7.46331784821e-05
-8.88762036532e-12
7.46320113728e-05
-4.93785543337e-12
7.46309875373e-05
-1.43350537351e-13
7.46301320879e-05
3.88270261248e-12
7.46294415231e-05
8.51519102833e-12
7.46288988883e-05
1.34753632473e-11
7.46284818172e-05
1.87303403822e-11
7.46281672503e-05
2.43435166501e-11
7.46279340059e-05
3.04978275284e-11
7.46277637716e-05
3.73231895783e-11
7.46276414104e-05
4.49185768333e-11
7.46275552181e-05
5.3289658022e-11
7.4627497541e-05
6.24957190471e-11
7.46274566574e-05
7.20867435303e-11
7.46274288643e-05
8.20812843317e-11
7.46274102563e-05
9.33683810881e-11
7.46273978644e-05
1.05907155967e-10
7.46273894392e-05
1.19621451058e-10
7.46273834307e-05
1.34546119672e-10
7.4627378759e-05
1.50606624948e-10
7.46273746503e-05
1.67571884758e-10
7.46273705266e-05
1.85031198559e-10
7.46273659249e-05
2.02362328419e-10
7.46273604713e-05
2.18712260195e-10
7.46273539443e-05
2.32947877761e-10
7.46273460928e-05
2.433833169e-10
7.46273365211e-05
2.47731829962e-10
7.46273245906e-05
2.43058110402e-10
7.46273091885e-05
2.25773322334e-10
7.46272886408e-05
1.91773613518e-10
7.46272619085e-05
1.37439517259e-10
7.46272186492e-05
4.78871685031e-11
7.46271232929e-05
-1.25600391015e-10
7.46269851059e-05
-4.36913320831e-10
7.46267567881e-05
-8.51721340448e-10
7.46263785714e-05
-1.42809596548e-09
7.46257530015e-05
-2.21775891913e-09
7.4624721632e-05
-3.29244094295e-09
7.46230252955e-05
-4.74431721195e-09
7.4620242778e-05
-6.69229572136e-09
7.46157103435e-05
-9.31994175e-09
7.46083505123e-05
-1.28252537907e-08
7.45964032256e-05
-1.74140963578e-08
7.45770443977e-05
-2.3362094452e-08
7.45458641987e-05
-3.11397813385e-08
7.44960107202e-05
-4.13122494528e-08
7.44166436571e-05
-5.40322320163e-08
7.42911962558e-05
-6.94570317549e-08
7.40950124379e-05
-8.73287635589e-08
7.37928314247e-05
-1.06476434716e-07
7.33372983449e-05
-1.24118554334e-07
7.26708915172e-05
-1.35061307993e-07
7.1734070875e-05
-1.32095870293e-07
-1.06667144994e-07
7.04833041823e-05
5.07871714785e-05
-7.8711690493e-07
5.29516487192e-05