/*--------------------------------*- C++ -*----------------------------------*\
| =========                 |                                                 |
| \\      /  F ield         | OpenFOAM: The Open Source CFD Toolbox           |
|  \\    /   O peration     | Version:  2106                                  |
|   \\  /    A nd           | Website:  www.openfoam.com                      |
|    \\/     M anipulation  |                                                 |
\*---------------------------------------------------------------------------*/
FoamFile
{
    version     2.0;
    format      ascii;
    arch        "LSB;label=32;scalar=64";
    class       surfaceScalarField;
    location    "0.215";
    object      phi;
}
// * * * * * * * * * * * * * * * * * * * * * * * * * * * * * * * * * * * * * //

dimensions      [0 3 -1 0 0 0 0];

oriented        oriented;

internalField   nonuniform List<scalar> 
22100
(
3.38461204526e-05
1.61538795226e-05
2.24572101923e-05
1.13889103199e-05
1.62585535123e-05
6.19865675645e-06
1.2797776712e-05
3.46077687624e-06
1.08046430161e-05
1.99313378923e-06
9.60459016685e-06
1.20005295922e-06
8.85132256076e-06
7.53267706349e-07
8.36435388093e-06
4.86968769313e-07
8.04433611448e-06
3.2001783296e-07
7.83284143137e-06
2.11494736571e-07
7.69339839308e-06
1.39443098269e-07
7.60224163966e-06
9.11568223374e-08
7.54347899828e-06
5.87627251933e-08
7.50634221904e-06
3.71368727392e-08
7.48350283317e-06
2.28394845883e-08
7.46998211307e-06
1.35208131473e-08
7.46241758026e-06
7.56462431593e-09
7.45854963474e-06
3.86803960425e-09
7.45683075119e-06
1.71897971163e-09
7.45642417665e-06
4.066676748e-10
7.45677404034e-06
-3.49779493975e-10
7.45746024508e-06
-6.86130094522e-10
7.45821859082e-06
-7.58284706271e-10
7.45894388291e-06
-7.25242562021e-10
7.45958817601e-06
-6.44255385498e-10
7.46013210608e-06
-5.43895276341e-10
7.46057424403e-06
-4.42097965369e-10
7.46092305833e-06
-3.48757740852e-10
7.46119146078e-06
-2.68315594327e-10
7.46139352481e-06
-2.01949508014e-10
7.46154259524e-06
-1.48958171245e-10
7.46165035126e-06
-1.07671583883e-10
7.4617265317e-06
-7.61293404911e-11
7.4617792712e-06
-5.27230371249e-11
7.46181255503e-06
-3.32757061554e-11
7.4618313778e-06
-1.88029880483e-11
7.46184050579e-06
-9.08606620921e-12
7.46184337957e-06
-2.79603263957e-12
7.46184191488e-06
1.54570979722e-12
7.46183724606e-06
4.7550093688e-12
7.46183029585e-06
7.02373136451e-12
7.46182167377e-06
8.68084168975e-12
7.46181175688e-06
9.95618342546e-12
7.46180074315e-06
1.10604145117e-11
7.46178864266e-06
1.21610191547e-11
7.46177532509e-06
1.33938248938e-11
7.46176054424e-06
1.48593731138e-11
7.4617439551e-06
1.66436120047e-11
7.46172512356e-06
1.88463527784e-11
7.46170352398e-06
2.15608750831e-11
7.46167857346e-06
2.48806669581e-11
7.46164959485e-06
2.8910325067e-11
7.46161580535e-06
3.37375343659e-11
7.46157635883e-06
3.94466606661e-11
7.46153036958e-06
4.6081874477e-11
7.46147696469e-06
5.35863700399e-11
7.46141534981e-06
6.18259422027e-11
7.4613452848e-06
7.02554564221e-11
7.4612674539e-06
7.79955446819e-11
7.46118421278e-06
8.3341295947e-11
7.46110160978e-06
8.26091022384e-11
7.46103211941e-06
6.94672581901e-11
7.46098373334e-06
4.83890571921e-11
7.46097522895e-06
8.4526179277e-12
7.46104249779e-06
-6.72741711438e-11
7.46124384311e-06
-2.01274216736e-10
7.46167375055e-06
-4.297449025e-10
7.46248234854e-06
-8.08440816322e-10
7.46390525367e-06
-1.42274348689e-09
7.46629862973e-06
-2.39319850677e-09
7.47011302743e-06
-3.81425451124e-09
7.47656105494e-06
-6.44789294583e-09
7.48733860211e-06
-1.07774212023e-08
7.50553294256e-06
-1.81942644837e-08
7.53876209292e-06
-3.32291358841e-08
7.60807444008e-06
-6.93123432449e-08
7.77497535041e-06
-1.66900811425e-07
8.2305498932e-06
-4.55574323312e-07
9.70044367384e-06
-1.4698935946e-06
-5.46142524729e-06
1.51618686033e-05
5.02175949723e-05
1.59362846229e-05
4.42441119269e-05
1.73623934794e-05
3.77795019949e-05
1.26632668267e-05
3.26461446852e-05
8.59413432516e-06
2.89380927401e-05
5.70118589619e-06
2.63596225028e-05
3.77852336018e-06
2.45875182388e-05
2.52537212193e-06
2.33734763134e-05
1.70101082212e-06
2.25435273897e-05
1.14996685939e-06
2.19782188479e-05
7.76803390884e-07
2.15955164944e-05
5.22145592559e-07
2.13387401256e-05
3.47933349476e-07
2.11684988183e-05
2.29004209507e-07
2.10573414286e-05
1.48294440849e-07
2.09861537339e-05
9.40273483402e-08
2.09416815756e-05
5.79931278414e-08
2.09147999894e-05
3.44463609191e-08
2.08993011234e-05
1.93670523716e-08
2.08910775685e-05
9.9426722544e-09
2.08872775097e-05
4.20685020678e-09
2.08862086911e-05
7.19151096162e-10
2.08864545404e-05
-9.31883832262e-10
2.08873260777e-05
-1.62973416967e-09
2.08884656526e-05
-1.86473473842e-09
2.08896390449e-05
-1.81755578785e-09
2.08907221021e-05
-1.62684106397e-09
2.08916597823e-05
-1.37963911436e-09
2.08924374288e-05
-1.12622842301e-09
2.08930628059e-05
-8.93495689807e-10
2.08935551093e-05
-6.94075813565e-10
2.08939390964e-05
-5.32813323199e-10
2.08942407201e-05
-4.09220099997e-10
2.08944517486e-05
-2.87133384257e-10
2.08945988305e-05
-1.99788981544e-10
2.08946992528e-05
-1.3365226968e-10
2.08947646834e-05
-8.41587869829e-11
2.08948052939e-05
-4.95809085085e-11
2.08948292438e-05
-2.66132843348e-11
2.08948413462e-05
-1.04146659578e-11
2.08948445184e-05
1.70052870855e-12
2.08948411807e-05
1.04587634194e-11
2.08948329918e-05
1.69366688211e-11
2.089482111e-05
2.18995218777e-11
2.08948062602e-05
2.5979625522e-11
2.08947888147e-05
2.96995550099e-11
2.08947688868e-05
3.34156527257e-11
2.08947464233e-05
3.73908053812e-11
2.08947212629e-05
4.18180889908e-11
2.08946931714e-05
4.68950319927e-11
2.08946619021e-05
5.27804629056e-11
2.08946272512e-05
5.95152985351e-11
2.08945890762e-05
6.7119381485e-11
2.08945473932e-05
7.55354161654e-11
2.08945025085e-05
8.45654388654e-11
2.08944552188e-05
9.37083094986e-11
2.08944072147e-05
1.01950439232e-10
2.08943615912e-05
1.07757884558e-10
2.08943241051e-05
1.07946668113e-10
2.08943041589e-05
9.800967286e-11
2.08943167701e-05
7.06746243562e-11
2.08943882178e-05
1.11170921377e-11
2.08945680216e-05
-1.10379896574e-10
2.08949241538e-05
-3.07762809827e-10
2.08955745989e-05
-6.41901635707e-10
2.08966307626e-05
-1.12321590984e-09
2.08982659176e-05
-1.83604980947e-09
2.09008384305e-05
-3.00186140082e-09
2.09048970078e-05
-4.86660406836e-09
2.09113122306e-05
-7.83755396882e-09
2.09215103634e-05
-1.25909912116e-08
2.09379863434e-05
-2.0289963442e-08
2.09648944211e-05
-3.33557790122e-08
2.10091883717e-05
-5.50711668614e-08
2.10840693729e-05
-9.30750323624e-08
2.12155183679e-05
-1.64677872111e-07
2.14565574667e-05
-3.10350992069e-07
2.19152981284e-05
-6.2564092389e-07
2.2804243963e-05
-1.34451966003e-06
2.44523928925e-05
-3.11804216733e-06
-7.0548909868e-06
2.60458598081e-05
5.35171054321e-05
1.24191792455e-05
5.29349685975e-05
1.79445304333e-05
4.96538405727e-05
1.59443949846e-05
4.58401820517e-05
1.24077929804e-05
4.24400931854e-05
9.10127491229e-06
3.97291733494e-05
6.48944334165e-06
3.76873069772e-05
4.56723861458e-06
3.61976642384e-05
3.19065365894e-06
3.51326136913e-05
2.21501750014e-06
3.43823687411e-05
1.52704844429e-06
3.38606278837e-05
1.04388657264e-06
3.35023477863e-05
7.06213586255e-07
3.32596030417e-05
4.7174910573e-07
3.30975928947e-05
3.10304736856e-07
3.29913369725e-05
2.00283409189e-07
3.29230952457e-05
1.26234992773e-07
3.28804074462e-05
7.71343038032e-08
3.28546224541e-05
4.51521891441e-08
3.28397954866e-05
2.47697817875e-08
3.28318691072e-05
1.21333697722e-08
3.28279997408e-05
4.58864807003e-09
3.28270011854e-05
6.67923275147e-11
3.28271820085e-05
-1.81045264956e-09
3.28280304457e-05
-2.71308124337e-09
3.28291462204e-05
-2.93324953522e-09
3.28302934632e-05
-2.7740027589e-09
3.28313494461e-05
-2.43551862219e-09
3.28322598751e-05
-2.03651645456e-09
3.28330098871e-05
-1.64334458071e-09
3.28336055394e-05
-1.28957700877e-09
3.2834061758e-05
-9.88911147302e-10
3.28343966685e-05
-7.44051060458e-10
3.28346629354e-05
-5.53343521818e-10
3.28348791205e-05
-4.15918455686e-10
3.28350261841e-05
-2.80654616224e-10
3.28351252754e-05
-1.83152652159e-10
3.28351909862e-05
-1.15186241578e-10
3.28352327536e-05
-6.82698639374e-11
3.28352574519e-05
-3.49924048459e-11
3.28352690258e-05
-9.76820809051e-12
3.28352710277e-05
8.53907026592e-12
3.28352659607e-05
2.20727401053e-11
3.2835255667e-05
3.22703207774e-11
3.28352413812e-05
4.03556955727e-11
3.28352238501e-05
4.73335812625e-11
3.28352035162e-05
5.38662853119e-11
3.28351806299e-05
6.03603905064e-11
3.28351553516e-05
6.71272315798e-11
3.28351277255e-05
7.45035781959e-11
3.28350978016e-05
8.26677519838e-11
3.28350658904e-05
9.13921954545e-11
3.28350325773e-05
1.00427387886e-10
3.28349988803e-05
1.09301604392e-10
3.28349665211e-05
1.17094626186e-10
3.28349383838e-05
1.22083246654e-10
3.28349191233e-05
1.21467490143e-10
3.28349154524e-05
1.11680627947e-10
3.28349384929e-05
8.50836002034e-11
3.28350054581e-05
3.11135912349e-11
3.28351456879e-05
-6.9516627979e-11
3.28354104801e-05
-2.53647180868e-10
3.28358875543e-05
-5.87462834004e-10
3.28365966369e-05
-1.01676612141e-09
3.28376276741e-05
-1.67280651616e-09
3.28392362972e-05
-2.73165732798e-09
3.28418020364e-05
-4.40154046824e-09
3.28458288363e-05
-7.02836152492e-09
3.28521318102e-05
-1.11692632506e-08
3.28620257365e-05
-1.77311781765e-08
3.28776786448e-05
-2.8243594702e-08
3.29027577608e-05
-4.5368828533e-08
3.29426261321e-05
-7.32239602584e-08
3.3007135263e-05
-1.19580154869e-07
3.31133081522e-05
-1.99247770271e-07
3.32902329421e-05
-3.41602394318e-07
3.35862526081e-05
-6.06370247349e-07
3.40726967299e-05
-1.11208451827e-06
3.48161069819e-05
-2.08792930925e-06
3.5680706034e-05
-3.98264147549e-06
-7.12761108125e-06
3.57534243145e-05
5.35105665527e-05
8.90861274904e-06
5.55742225126e-05
1.58808746116e-05
5.52424829756e-05
1.6276134659e-05
5.35977866027e-05
1.40524895002e-05
5.15418485097e-05
1.11572131446e-05
4.95802808917e-05
8.45101108292e-06
4.79243520002e-05
6.22316760874e-06
4.66181402389e-05
4.49686549829e-06
4.56304675551e-05
3.20269026424e-06
4.49051187447e-05
2.25239735373e-06
4.43840917147e-05
1.56491372353e-06
4.40166957419e-05
1.07360970167e-06
4.37619694295e-05
7.26475565943e-07
4.35882709979e-05
4.84003311467e-07
4.34718718057e-05
3.1668273583e-07
4.33953619023e-05
2.02745026964e-07
4.33461917997e-05
1.26304539464e-07
4.33154543705e-05
7.58897532623e-08
4.32969181923e-05
4.33060985249e-08
4.32862923122e-05
2.27593867321e-08
4.3280689646e-05
1.0191446412e-08
4.32778821269e-05
2.87442771125e-09
4.32770544584e-05
-9.82688642733e-10
4.32772724494e-05
-2.93099635332e-09
4.32779600717e-05
-3.6208119457e-09
4.32788232157e-05
-3.63708328734e-09
4.32796961331e-05
-3.30834073183e-09
4.3280493713e-05
-2.8339639648e-09
4.32811795852e-05
-2.32907200384e-09
4.32817455132e-05
-1.85536755452e-09
4.3282198315e-05
-1.44160453684e-09
4.32825506939e-05
-1.09634223201e-09
4.32828123959e-05
-8.1497075817e-10
4.32829877512e-05
-5.91207936901e-10
4.32831207395e-05
-4.13566044679e-10
4.32832060693e-05
-2.68401204738e-10
4.32832600667e-05
-1.69110235785e-10
4.32832998577e-05
-1.07982186067e-10
4.32833242585e-05
-5.93264281458e-11
4.32833362438e-05
-2.17049905418e-11
4.32833392347e-05
5.58154214377e-12
4.32833352005e-05
2.61382575074e-11
4.32833258602e-05
4.16438949967e-11
4.32833123893e-05
5.39045574287e-11
4.32832954255e-05
6.4424877027e-11
4.32832753521e-05
7.40615725466e-11
4.3283252464e-05
8.33449393257e-11
4.3283227016e-05
9.26274879277e-11
4.32831993888e-05
1.02147818048e-10
4.32831701214e-05
1.11930651039e-10
4.32831398321e-05
1.21661147602e-10
4.32831095029e-05
1.30755423298e-10
4.32830806315e-05
1.38250383685e-10
4.32830553308e-05
1.42568126897e-10
4.32830364901e-05
1.41154617514e-10
4.3283028293e-05
1.29902412445e-10
4.32830383031e-05
1.01862001676e-10
4.32830783459e-05
4.5149375634e-11
4.32831675424e-05
-5.79918633608e-11
4.32833250664e-05
-2.26991114388e-10
4.32835517693e-05
-4.80355297646e-10
4.32839854932e-05
-1.0212162891e-09
4.32847412573e-05
-1.77253245714e-09
4.32859786094e-05
-2.91004910039e-09
4.32879039177e-05
-4.65667938947e-09
4.32908660994e-05
-7.36339860811e-09
4.32954248036e-05
-1.15867562989e-08
4.33024593649e-05
-1.82034992517e-08
4.33133535994e-05
-2.8625104262e-08
4.33302689947e-05
-4.51587521174e-08
4.33565216632e-05
-7.16212718998e-08
4.33976941186e-05
-1.14396159401e-07
4.3462659255e-05
-1.84545102808e-07
4.35651792887e-05
-3.01767661737e-07
4.37252734457e-05
-5.0169634566e-07
4.39676419189e-05
-8.4873845568e-07
4.43090984702e-05
-1.45354058944e-06
4.47110927627e-05
-2.48992272501e-06
4.49326556398e-05
-4.20420352145e-06
-6.60037430272e-06
4.44054179306e-05
5.27351380835e-05
6.1734747437e-06
5.57309347077e-05
1.28850781591e-05
5.73114747118e-05
1.46955948169e-05
5.76109923781e-05
1.37529719776e-05
5.71335233871e-05
1.16346822591e-05
5.63194690606e-05
9.26506551129e-06
5.54489890995e-05
7.09364764737e-06
5.46629787585e-05
5.28287590071e-06
5.40136834367e-05
3.85198565921e-06
5.35061523761e-05
2.75992851548e-06
5.31242567597e-05
1.94680946248e-06
5.28449875474e-05
1.3528790588e-06
5.26454416484e-05
9.26021614991e-07
5.25057177544e-05
6.2372734764e-07
5.24097233383e-05
4.12677284836e-07
5.23450176908e-05
2.67450806231e-07
5.23022802413e-05
1.69042120504e-07
5.22746934595e-05
1.0347667195e-07
5.22573692911e-05
6.06304102711e-08
5.22468609562e-05
3.32678689496e-08
5.22407615455e-05
1.62909940728e-08
5.22374528714e-05
6.18321295713e-09
5.22359542905e-05
5.15973225659e-10
5.22354463297e-05
-2.42298476309e-09
5.22355111945e-05
-3.68564193379e-09
5.22358565352e-05
-3.98237330133e-09
5.22363106578e-05
-3.76237697798e-09
5.22367769296e-05
-3.30011716525e-09
5.22372042371e-05
-2.75624260636e-09
5.22375698417e-05
-2.22083574689e-09
5.22378670345e-05
-1.73867070245e-09
5.22380986036e-05
-1.32780594372e-09
5.22382748407e-05
-9.91109496965e-10
5.22384076749e-05
-7.23942185828e-10
5.22385079703e-05
-5.1375863831e-10
5.22385925486e-05
-3.52895783449e-10
5.2238658016e-05
-2.34496456193e-10
5.22387002735e-05
-1.50161911684e-10
5.22387329527e-05
-9.19559756867e-11
5.22387482774e-05
-3.69929376144e-11
5.22387534103e-05
4.76534951181e-13
5.2238750932e-05
2.86381992721e-11
5.22387427945e-05
4.983382318e-11
5.22387303627e-05
6.64214197464e-11
5.22387144776e-05
8.04143455719e-11
5.22386956827e-05
9.29576811489e-11
5.22386744773e-05
1.04623844317e-10
5.22386517224e-05
1.15419566208e-10
5.22386273603e-05
1.26524294657e-10
5.22386004437e-05
1.38833785939e-10
5.22385724378e-05
1.49638259048e-10
5.22385444334e-05
1.58768067161e-10
5.22385179809e-05
1.6480043922e-10
5.22384954579e-05
1.65282662481e-10
5.2238481211e-05
1.55662436383e-10
5.22384869149e-05
1.24461282188e-10
5.22385144642e-05
7.45056558557e-11
5.2238583557e-05
-2.37555721743e-11
5.22386988454e-05
-1.73172390093e-10
5.22388822265e-05
-4.10342284447e-10
5.22392137191e-05
-8.11779839155e-10
5.22397178512e-05
-1.52532830633e-09
5.22404751896e-05
-2.52984365466e-09
5.22416171525e-05
-4.05184806389e-09
5.22433465053e-05
-6.38579955933e-09
5.22459643918e-05
-9.98101982231e-09
5.22499225592e-05
-1.55446369363e-08
5.22559121781e-05
-2.41927963626e-08
5.22649927941e-05
-3.77054281089e-08
5.22787840747e-05
-5.89498025498e-08
5.22997489406e-05
-9.25859249656e-08
5.2331611523e-05
-1.46258553892e-07
5.23797309393e-05
-2.3266432206e-07
5.24510602918e-05
-3.73096824945e-07
5.2552505436e-05
-6.03141382523e-07
5.26846692917e-05
-9.80902146087e-07
5.28253828093e-05
-1.59425392823e-06
5.28931494256e-05
-2.55768879678e-06
5.26752473813e-05
-3.98630052832e-06
-5.79117387683e-06
5.18660465028e-05
5.19834865475e-05
4.1899882808e-06
5.50586642414e-05
9.80990066696e-06
5.76386136404e-05
1.21156455937e-05
5.93259037287e-05
1.20656820291e-05
6.0228015899e-05
1.07325702093e-05
6.05929271958e-05
8.90015429843e-06
6.06482842108e-05
7.03829069293e-06
6.05531898441e-05
5.37797032964e-06
6.04029553667e-05
4.00222021009e-06
6.02479149777e-05
2.91496900861e-06
6.01107895818e-05
2.08393499097e-06
5.99990301986e-05
1.4646385893e-06
5.99125151541e-05
1.0125368013e-06
5.98479233766e-05
6.88319252026e-07
5.98010199137e-05
4.59580865434e-07
5.97677353654e-05
3.00735469723e-07
5.97445941209e-05
1.92183488066e-07
5.97288157028e-05
1.19255232018e-07
5.9718267695e-05
7.1178578563e-08
5.97113616472e-05
4.01740830603e-08
5.9706942427e-05
2.07103669835e-08
5.97042086271e-05
8.91713338305e-09
5.97025996455e-05
2.12503085675e-09
5.97016951239e-05
-1.51842817824e-09
5.97012368213e-05
-3.22731233066e-09
5.97010473022e-05
-3.79280528838e-09
5.97010110445e-05
-3.72604314377e-09
5.97010553935e-05
-3.3443570713e-09
5.97011366098e-05
-2.83733671762e-09
5.97012290135e-05
-2.31311494563e-09
5.97013187158e-05
-1.82825814839e-09
5.97013991054e-05
-1.40808528168e-09
5.97014687631e-05
-1.06065448091e-09
5.97015282895e-05
-7.83366954868e-10
5.97015784753e-05
-5.63869162903e-10
5.97016181994e-05
-3.92572799686e-10
5.97016459181e-05
-2.62172282892e-10
5.97016611347e-05
-1.65352173461e-10
5.97016593723e-05
-9.01832222132e-11
5.97016512454e-05
-2.88702971763e-11
5.97016445287e-05
7.16636699217e-12
5.97016351248e-05
3.8042912693e-11
5.97016246966e-05
6.03180454246e-11
5.97016130559e-05
7.81669584018e-11
5.97015991181e-05
9.44907601329e-11
5.97015826762e-05
1.09541609317e-10
5.97015636972e-05
1.23713508925e-10
5.97015419501e-05
1.37241335692e-10
5.97015183896e-05
1.50120450878e-10
5.97014951614e-05
1.62048398265e-10
5.97014724488e-05
1.72319216657e-10
5.97014515589e-05
1.79664166783e-10
5.97014342481e-05
1.82187585618e-10
5.97014223609e-05
1.77327383459e-10
5.97014162073e-05
1.620281941e-10
5.97014070891e-05
1.33760117797e-10
5.9701407248e-05
7.44823937923e-11
5.9701417854e-05
-3.42580662064e-11
5.97014858408e-05
-2.41137575985e-10
5.97016642513e-05
-5.88769607023e-10
5.97019549987e-05
-1.10257457015e-09
5.97023299704e-05
-1.90032612146e-09
5.97028924957e-05
-3.09225094576e-09
5.97037254035e-05
-4.88455559403e-09
5.97049418802e-05
-7.6020513202e-09
5.97067061022e-05
-1.17449837984e-08
5.9709255348e-05
-1.80935459787e-08
5.97129324e-05
-2.78695123045e-08
5.97182257673e-05
-4.29984867305e-08
5.97258155476e-05
-6.65393078486e-08
5.97366039153e-05
-1.03374043204e-07
5.97516529186e-05
-1.61307410114e-07
5.97718016187e-05
-2.52812860796e-07
5.97964615555e-05
-3.9775664255e-07
5.98204780253e-05
-6.27157637147e-07
5.98269660013e-05
-9.87390056664e-07
5.97738347072e-05
-1.54112241793e-06
5.95730036257e-05
-2.35685742905e-06
5.90662457361e-05
-3.47954190065e-06
-4.81740529734e-06
5.80924770564e-05
5.14373054563e-05
2.7526829302e-06
5.42658208479e-05
6.9813854777e-06
5.72496436614e-05
9.13182294453e-06
5.97900281328e-05
9.525297687e-06
6.17201287281e-05
8.80246972526e-06
6.3088303755e-05
7.53197934701e-06
6.4016717382e-05
6.10987712076e-06
6.46292372558e-05
4.76545052405e-06
6.50258043043e-05
3.60565325164e-06
6.52790789918e-05
2.66169444099e-06
6.54389741674e-05
1.92403995866e-06
6.55386911262e-05
1.36492177836e-06
6.55999297838e-05
9.51298278807e-07
6.56367447105e-05
6.51504441035e-07
6.56581959235e-05
4.38129755813e-07
6.56701042746e-05
2.88827223302e-07
6.56761936701e-05
1.86094213492e-07
6.56788301721e-05
1.16618881279e-07
6.5679500835e-05
7.0508089987e-08
6.56791248659e-05
4.05502342664e-08
6.56782576936e-05
2.15777051218e-08
6.56772269635e-05
9.94798906194e-09
6.56762178493e-05
3.13421466003e-09
6.56753086678e-05
-6.09217651196e-10
6.56745400578e-05
-2.45868080308e-09
6.56739117968e-05
-3.16450421252e-09
6.56734130238e-05
-3.22719242284e-09
6.56730262734e-05
-2.95749114104e-09
6.56727325392e-05
-2.54347421903e-09
6.567251365e-05
-2.0940838017e-09
6.56723534827e-05
-1.66794957561e-09
6.56722383762e-05
-1.29282146279e-09
6.56721561834e-05
-9.78312548882e-10
6.56720962815e-05
-7.23335409273e-10
6.5672052886e-05
-5.20374610244e-10
6.56720217617e-05
-3.6137135474e-10
6.56719967844e-05
-2.37132351961e-10
6.56719752863e-05
-1.43815220474e-10
6.56719604025e-05
-7.52943362148e-11
6.56719586836e-05
-2.71901067539e-11
6.56719571219e-05
8.66790590611e-12
6.56719497012e-05
4.54419947242e-11
6.56719395262e-05
7.05367753753e-11
6.56719269606e-05
9.08429066112e-11
6.56719128295e-05
1.08771342974e-10
6.56718970944e-05
1.25420599584e-10
6.56718795726e-05
1.41361981262e-10
6.56718601703e-05
1.56735085147e-10
6.56718395834e-05
1.70739786068e-10
6.56718196043e-05
1.82014085709e-10
6.5671799115e-05
1.92802223567e-10
6.56717787326e-05
2.00088545775e-10
6.56717595761e-05
2.014656333e-10
6.56717434298e-05
1.93693744945e-10
6.56717335844e-05
1.72109176235e-10
6.56717371067e-05
1.304411053e-10
6.56717463795e-05
6.53445902347e-11
6.56717650866e-05
-5.28791564883e-11
6.56718317504e-05
-3.07682848447e-10
6.56719221635e-05
-6.79080363027e-10
6.56720630507e-05
-1.24346129798e-09
6.56722606339e-05
-2.09786834377e-09
6.56725307322e-05
-3.36221668971e-09
6.56728893368e-05
-5.2430018902e-09
6.56733464939e-05
-8.05899101104e-09
6.56738986182e-05
-1.22968332811e-08
6.56745144093e-05
-1.87090214198e-08
6.56751058533e-05
-2.8460670794e-08
6.56754687767e-05
-4.33611679966e-08
6.56751721096e-05
-6.62423666735e-08
6.56733437713e-05
-1.01545454511e-07
6.56682396427e-05
-1.56203163109e-07
6.5656312518e-05
-2.40885631911e-07
6.56304141789e-05
-3.71858253036e-07
6.55763588483e-05
-5.73102165156e-07
6.5466847848e-05
-8.77878876823e-07
6.52525862931e-05
-1.32686071853e-06
6.48532812089e-05
-1.95755220036e-06
6.41560076129e-05
-2.78226766739e-06
-3.73118462181e-06
6.30697870851e-05
5.10850424547e-05
1.66764059024e-06
5.3611844836e-05
4.4545832865e-06
5.66873169079e-05
6.05635103136e-06
5.96894470444e-05
6.52316767395e-06
6.22997277617e-05
6.19218909792e-06
6.44136894231e-05
5.41801775899e-06
6.6047185665e-05
4.4763809493e-06
6.72686173264e-05
3.54401894421e-06
6.81598965063e-05
2.71437417649e-06
6.8797763284e-05
2.02382779595e-06
6.92467478671e-05
1.47505552205e-06
6.95579669206e-05
1.05370286382e-06
6.97704338214e-05
7.38831494447e-07
6.99131771233e-05
5.08761233484e-07
7.00073885063e-05
3.43918457428e-07
7.00682983992e-05
2.2791742544e-07
7.01067008251e-05
1.47691915888e-07
7.01301435839e-05
9.317628816e-08
7.0143833202e-05
5.68186684302e-08
7.01513098038e-05
3.30738361659e-08
7.01549427559e-05
1.79449339237e-08
7.01562909568e-05
8.59991682276e-09
7.01563632001e-05
3.0620430812e-09
7.01557714824e-05
-1.74715649137e-11
7.01549108951e-05
-1.59808237901e-09
7.01539875828e-05
-2.24116323584e-09
7.01531192649e-05
-2.35880921028e-09
7.01523595942e-05
-2.19772577226e-09
7.01517257704e-05
-1.90953009105e-09
7.01512149205e-05
-1.58311290454e-09
7.01508141203e-05
-1.26701246165e-09
7.01505064165e-05
-9.8497779056e-10
7.0150274161e-05
-7.45927169449e-10
7.01501011794e-05
-5.50249210332e-10
7.01499744795e-05
-3.93584517014e-10
7.01498834061e-05
-2.70229499245e-10
7.01498208619e-05
-1.7454822683e-10
7.01497793921e-05
-1.02330037419e-10
7.01497508462e-05
-4.67759629781e-11
7.01497207702e-05
2.82379026082e-12
7.01496973814e-05
3.19965505612e-11
7.01496844382e-05
5.83798398496e-11
7.01496739936e-05
8.10647791624e-11
7.01496641476e-05
1.00846147201e-10
7.01496541239e-05
1.18972350579e-10
7.0149643517e-05
1.36193659071e-10
7.01496321714e-05
1.52848667197e-10
7.01496200903e-05
1.68899271207e-10
7.01496068522e-05
1.83985026023e-10
7.01495913023e-05
1.97529122591e-10
7.0149575419e-05
2.08653526208e-10
7.01495599357e-05
2.15568432534e-10
7.01495456425e-05
2.15834171889e-10
7.01495332045e-05
2.06277389143e-10
7.01495224101e-05
1.83042086832e-10
7.01495111341e-05
1.41871399868e-10
7.01494956583e-05
8.0848728607e-11
7.01494912267e-05
-4.83933483678e-11
7.01494914829e-05
-3.07911514796e-10
7.01495067272e-05
-6.94255493064e-10
7.01495218298e-05
-1.25844375137e-09
7.01495136321e-05
-2.08955855875e-09
7.01494544401e-05
-3.30292155325e-09
7.01492902368e-05
-5.07861389921e-09
7.01489208816e-05
-7.68940410391e-09
7.01481694749e-05
-1.154512149e-08
7.01467331267e-05
-1.72723527991e-08
7.01440963286e-05
-2.58235807646e-08
7.01393790973e-05
-3.86436682545e-08
7.01310935507e-05
-5.79565511262e-08
7.01167454829e-05
-8.71972259944e-08
7.0092158056e-05
-1.31615544198e-07
7.00502140767e-05
-1.9894158524e-07
6.99788990092e-05
-3.00543048203e-07
6.98581792254e-05
-4.52382292899e-07
6.96554966372e-05
-6.75196178513e-07
6.93207471671e-05
-9.92110996322e-07
6.8784064976e-05
-1.42086979663e-06
6.79623570369e-05
-1.96055915901e-06
-2.56561459735e-06
6.67967873105e-05
5.08804132921e-05
7.8722741332e-07
5.31704664614e-05
2.16453030042e-06
5.62177501648e-05
3.00906747469e-06
5.94382702879e-05
3.30264766462e-06
6.24449702058e-05
3.18548926763e-06
6.50382537153e-05
2.82473433218e-06
6.71548673764e-05
2.35976737601e-06
6.88135659681e-05
1.88532045219e-06
7.00731720814e-05
1.45476818762e-06
7.10056691685e-05
1.0913308548e-06
7.16812655819e-05
7.99459254661e-07
7.2161425044e-05
5.73543526954e-07
7.24966060574e-05
4.03650576275e-07
7.27264826857e-05
2.78884675489e-07
7.28812816682e-05
1.89119541484e-07
7.29834715318e-05
1.257276478e-07
7.30494154699e-05
8.17481059013e-08
7.30908177833e-05
5.17741523221e-08
7.31159119686e-05
3.17246952708e-08
7.3130396734e-05
1.85892883666e-08
7.3138151673e-05
1.01901800969e-08
7.31417722802e-05
4.97943721063e-09
7.31429601063e-05
1.87428493794e-09
7.31428137833e-05
1.28874502543e-10
7.31419906284e-05
-7.7490686701e-10
7.31409078093e-05
-1.15829990437e-09
7.31397930488e-05
-1.24397813653e-09
7.313876575e-05
-1.17033441495e-09
7.31378783665e-05
-1.02202848755e-09
7.31371447967e-05
-8.49404131813e-10
7.31365576542e-05
-6.79729361177e-10
7.31360995609e-05
-5.26725780545e-10
7.31357496282e-05
-3.9585153081e-10
7.31354872283e-05
-2.87720632115e-10
7.31352940169e-05
-2.0026688666e-10
7.31351543568e-05
-1.30492427283e-10
7.31350549837e-05
-7.51332821064e-11
7.31349833239e-05
-3.06734748814e-11
7.31349302018e-05
6.29923422005e-12
7.3134900388e-05
3.25636514322e-11
7.31348771444e-05
5.51816167335e-11
7.31348602935e-05
7.52500265159e-11
7.31348479388e-05
9.35274654131e-11
7.3134838243e-05
1.10701123072e-10
7.31348299082e-05
1.27485473448e-10
7.31348220254e-05
1.44252995425e-10
7.31348139447e-05
1.61072343986e-10
7.31348052038e-05
1.7772007988e-10
7.31347955487e-05
1.93673455593e-10
7.31347849445e-05
2.08150626713e-10
7.31347734461e-05
2.20155429051e-10
7.31347611387e-05
2.27901079709e-10
7.31347481311e-05
2.28925422334e-10
7.31347345225e-05
2.19989307527e-10
7.3134720575e-05
1.97081726574e-10
7.313470687e-05
1.55687677009e-10
7.31346942563e-05
9.35739456924e-11
7.31346675477e-05
-2.15328937463e-11
7.31346229698e-05
-2.63244521819e-10
7.31345522815e-05
-6.2348759214e-10
7.31344323392e-05
-1.13842633093e-09
7.31342195867e-05
-1.87670230491e-09
7.31338452304e-05
-2.92836955502e-09
7.31331934204e-05
-4.42658798579e-09
7.3132069797e-05
-6.56552424859e-09
7.31301501708e-05
-9.62523993877e-09
7.31269070328e-05
-1.40289750199e-08
7.31214795059e-05
-2.03957733932e-08
7.31124465592e-05
-2.96104053068e-08
7.30974950951e-05
-4.30048368283e-08
7.30729114064e-05
-6.26132783104e-08
7.30327646774e-05
-9.14686098853e-08
7.29675009864e-05
-1.33677769843e-07
7.28620421956e-05
-1.95084148015e-07
7.26931230059e-05
-2.83463033831e-07
7.24260834258e-05
-4.08156469035e-07
7.20123084373e-05
-5.78335741683e-07
7.13902077902e-05
-7.98768880327e-07
7.04936468157e-05
-1.06399769339e-06
-1.34915917804e-06
6.92771917321e-05
5.07871726994e-05
5.4816479968e-11
5.29516501333e-05
5.30378083136e-11
5.59606888867e-05
2.88547614134e-11
5.92633224523e-05
1.42052945273e-11
6.2448809095e-05
2.72162420152e-12
6.52735496838e-05
-6.16118813734e-12
6.76333292454e-05
-1.20816319075e-11
6.95186648431e-05
-1.50245340587e-11
7.09734486063e-05
-1.54310275339e-11
7.20647935192e-05
-1.39053873424e-11
7.2864264007e-05
-1.10947549362e-11
7.34378153078e-05
-7.6677821975e-12
7.38414702453e-05
-4.29196203724e-12
7.41203565788e-05
-1.61028778364e-12
7.43094763878e-05
-2.18092901431e-13
7.44352045803e-05
-4.63455322344e-13
7.45169554552e-05
-2.63517279061e-12
7.4568736259e-05
-6.46472394478e-12
7.4600472492e-05
-1.13151140038e-11
7.46190782122e-05
-1.6207480434e-11
7.46292885993e-05
-2.00177396485e-11
7.4634289823e-05
-2.16564828324e-11
7.46361848396e-05
-2.06613893959e-11
7.46363320573e-05
-1.83056976301e-11
7.46355729431e-05
-1.57598846124e-11
7.46344272738e-05
-1.2588339838e-11
7.46331923192e-05
-8.96332033614e-12
7.46320270297e-05
-4.95237686013e-12
7.46310052053e-05
-9.63098914787e-14
7.46301519125e-05
4.00735987097e-12
7.46294636485e-05
8.67958836326e-12
7.46289234151e-05
1.36603843427e-11
7.46285088056e-05
1.89065052661e-11
7.46281967274e-05
2.44870184607e-11
7.4627965972e-05
3.06006498278e-11
7.46277981776e-05
3.73803350048e-11
7.46276781743e-05
4.4919803649e-11
7.46275943142e-05
5.31922066225e-11
7.46275383649e-05
6.22057189871e-11
7.46274992602e-05
7.16032595118e-11
7.46274730465e-05
8.13645849403e-11
7.46274559198e-05
9.24254401615e-11
7.46274448841e-05
1.04676024283e-10
7.46274376888e-05
1.18047390432e-10
7.4627432778e-05
1.32565901012e-10
7.4627429055e-05
1.4813760345e-10
7.46274257298e-05
1.64511317371e-10
7.46274222457e-05
1.81263266329e-10
7.46274181851e-05
1.97772057123e-10
7.46274131977e-05
2.13152778509e-10
7.4627407115e-05
2.26228285035e-10
7.46273997657e-05
2.35277773736e-10
7.46273907757e-05
2.3798305526e-10
7.46273794876e-05
2.31408080633e-10
7.46273647512e-05
2.11954500107e-10
7.46273448036e-05
1.75769510761e-10
7.46273186259e-05
1.19849909009e-10
7.46272750123e-05
2.22090763738e-11
7.46271841645e-05
-1.72290327836e-10
7.46270468309e-05
-4.86074790981e-10
7.46268216182e-05
-9.13126546028e-10
7.46264477643e-05
-1.50271534152e-09
7.4625828332e-05
-2.30877366153e-09
7.46248057549e-05
-3.40381592819e-09
7.46231235024e-05
-4.88305209431e-09
7.46203621041e-05
-6.86360799325e-09
7.4615857584e-05
-9.52414467826e-09
7.4608544085e-05
-1.30819540706e-08
7.45966739213e-05
-1.77399868875e-08
7.45774374234e-05
-2.37680377905e-08
7.45464260277e-05
-3.16016257269e-08
7.44968557105e-05
-4.18981400281e-08
7.44179491713e-05
-5.47710520549e-08
7.42932440887e-05
-7.03789257534e-08
7.40982551577e-05
-8.84739418446e-08
7.37979946015e-05
-1.07895767792e-07
7.33455338132e-05
-1.25874767799e-07
7.26839950696e-05
-1.3722984483e-07
7.17547618378e-05
-1.34764017703e-07
-1.09953084401e-07
7.05155560432e-05
5.07871716627e-05
-7.87116753525e-07