/*--------------------------------*- C++ -*----------------------------------*\
| =========                 |                                                 |
| \\      /  F ield         | OpenFOAM: The Open Source CFD Toolbox           |
|  \\    /   O peration     | Version:  2106                                  |
|   \\  /    A nd           | Website:  www.openfoam.com                      |
|    \\/     M anipulation  |                                                 |
\*---------------------------------------------------------------------------*/
FoamFile
{
    version     2.0;
    format      ascii;
    arch        "LSB;label=32;scalar=64";
    class       volVectorField;
    location    "0.215";
    object      U;
}
// * * * * * * * * * * * * * * * * * * * * * * * * * * * * * * * * * * * * * //

dimensions      [0 1 -1 0 0 0 0];

internalField   nonuniform List<vector> 
11200
(
(0.66246240555 0.150569442134 0)
(0.558948680186 0.103243388228 0)
(0.383850751005 0.0513512242238 0)
(0.283747616076 0.024870855343 0)
(0.232075298381 0.0124170453398 0)
(0.201908622763 0.00662281700039 0)
(0.183197976493 0.00380291460436 0)
(0.171276538971 0.00231587024983 0)
(0.1635103627 0.00146450667007 0)
(0.158388831302 0.000944892410526 0)
(0.155006697558 0.000615176786514 0)
(0.152786747287 0.000402233641546 0)
(0.151346601715 0.00026423202647 0)
(0.150428369066 0.000175249959881 0)
(0.149856768917 0.000118360499917 0)
(0.149512571359 8.21598305766e-05 0)
(0.14931501422 5.88658426512e-05 0)
(0.14920965537 4.33158412049e-05 0)
(0.149159798809 3.29349508001e-05 0)
(0.14914256057 2.81863045444e-05 0)
(0.149144716078 2.76842543455e-05 0)
(0.149156989858 2.98900084085e-05 0)
(0.14917260812 3.30504399725e-05 0)
(0.149188151036 3.59660783114e-05 0)
(0.14920235432 3.86015763743e-05 0)
(0.149214618284 4.10406031461e-05 0)
(0.149224775535 4.33178059426e-05 0)
(0.149232933177 4.54643718152e-05 0)
(0.149239328022 4.75196465085e-05 0)
(0.149244241946 4.95306806894e-05 0)
(0.14924795954 5.15594065019e-05 0)
(0.149250747647 5.36968617048e-05 0)
(0.149252803165 5.60255132457e-05 0)
(0.149254296423 5.84068829241e-05 0)
(0.149255360377 6.07677781536e-05 0)
(0.149256081915 6.30889052846e-05 0)
(0.149256557958 6.53804695557e-05 0)
(0.149256872188 6.76553299904e-05 0)
(0.149257078038 6.9924887351e-05 0)
(0.149257204414 7.21954030076e-05 0)
(0.149257272142 7.44679008376e-05 0)
(0.149257298438 7.67434162593e-05 0)
(0.149257295607 7.90216005699e-05 0)
(0.149257272758 8.13014447244e-05 0)
(0.149257236426 8.35812316213e-05 0)
(0.149257191192 8.58586672798e-05 0)
(0.149257140739 8.81309084664e-05 0)
(0.149257088621 9.0394783471e-05 0)
(0.149257038885 9.26470759973e-05 0)
(0.149256996615 9.48845803067e-05 0)
(0.149256969022 9.71043406698e-05 0)
(0.14925696623 9.93035969788e-05 0)
(0.149257001737 0.000101479440715 0)
(0.149257093978 0.000103628736024 0)
(0.149257268617 0.000105747515451 0)
(0.149257561489 0.000107830220113 0)
(0.149258021927 0.000109869946667 0)
(0.149258722277 0.000111856888107 0)
(0.149259770878 0.000113778110317 0)
(0.149261325202 0.000115609150337 0)
(0.149263626737 0.000117295291275 0)
(0.149267084295 0.000118749178 0)
(0.149272175044 0.00012000896946 0)
(0.149279541986 0.000121262971607 0)
(0.149290214498 0.000122969269221 0)
(0.149305713599 0.000125334561707 0)
(0.149328423263 0.000128117285118 0)
(0.149362040486 0.000131085500682 0)
(0.14941216257 0.000134021427716 0)
(0.149487029473 0.000136810013658 0)
(0.149598595025 0.000140727864537 0)
(0.149769719245 0.000151604290774 0)
(0.150038222233 0.00017236834464 0)
(0.150467341015 0.000202672969362 0)
(0.151193011432 0.000232658172956 0)
(0.15249320547 0.000191820108753 0)
(0.15502472041 -0.000217269175184 0)
(0.162383717467 -0.00211389575912 0)
(0.187737630471 -0.0108078779343 0)
(0.204498135869 -0.049766032545 0)
(0.965408256219 0.289214705746 0)
(0.96196286577 0.252656039428 0)
(0.823574402917 0.159021441402 0)
(0.698139384155 0.0959957312781 0)
(0.610225483151 0.0582481144835 0)
(0.548971514794 0.0362148537867 0)
(0.50658891495 0.0231612858705 0)
(0.477567297077 0.0151375160749 0)
(0.457745521083 0.01001775575 0)
(0.444228490907 0.00665814158117 0)
(0.435053329763 0.00441555654587 0)
(0.428873150569 0.00290686602345 0)
(0.424754235604 0.00189105852436 0)
(0.422046686982 0.00121004537318 0)
(0.420297851118 0.000757163348801 0)
(0.419193243259 0.000459255638605 0)
(0.418515639442 0.000265854456183 0)
(0.41811649403 0.000142399336697 0)
(0.417895892012 6.61093472826e-05 0)
(0.417786842595 2.30917800944e-05 0)
(0.417745429521 1.40694949931e-06 0)
(0.417742153491 -1.01636042933e-05 0)
(0.417756752543 -1.37148550383e-05 0)
(0.417778712441 -1.32681421932e-05 0)
(0.417803008009 -1.08358256833e-05 0)
(0.417826380138 -7.49275907567e-06 0)
(0.417847135729 -3.87647517251e-06 0)
(0.417864676355 -3.56925689913e-07 0)
(0.417879006007 2.86455002729e-06 0)
(0.41789043984 5.68393739809e-06 0)
(0.417899449239 8.03659921579e-06 0)
(0.417906526885 9.83797214592e-06 0)
(0.417911874517 1.10064573723e-05 0)
(0.417915726336 1.18588754619e-05 0)
(0.417918460683 1.26808166367e-05 0)
(0.417920352883 1.34379355219e-05 0)
(0.417921645005 1.41123842692e-05 0)
(0.417922528301 1.47281202376e-05 0)
(0.417923128891 1.53139125062e-05 0)
(0.417923518231 1.588349738e-05 0)
(0.417923748933 1.64372193038e-05 0)
(0.417923864384 1.69801261669e-05 0)
(0.417923895424 1.75158811848e-05 0)
(0.417923864838 1.80480647577e-05 0)
(0.417923788946 1.85799352797e-05 0)
(0.417923679626 1.91139300273e-05 0)
(0.417923546719 1.96519991587e-05 0)
(0.417923399999 2.0195901298e-05 0)
(0.417923250371 2.07477248075e-05 0)
(0.41792311125 2.13090043982e-05 0)
(0.417923000996 2.18801318967e-05 0)
(0.417922944692 2.24614303212e-05 0)
(0.417922976163 2.30529642591e-05 0)
(0.417923141745 2.36545815708e-05 0)
(0.417923505716 2.42654857468e-05 0)
(0.417924159398 2.48841316355e-05 0)
(0.417925231174 2.55092240974e-05 0)
(0.417926909394 2.61291111911e-05 0)
(0.417929469415 2.67244884023e-05 0)
(0.417933299106 2.72652887027e-05 0)
(0.417938987315 2.77079497709e-05 0)
(0.417947630405 2.79898270364e-05 0)
(0.417960728816 2.82707472665e-05 0)
(0.417980411138 2.78454760088e-05 0)
(0.418009460173 2.52961616841e-05 0)
(0.41805148235 1.95064970583e-05 0)
(0.418112640224 9.67204438942e-06 0)
(0.418203058899 -5.73620319841e-06 0)
(0.418338360312 -2.92445453408e-05 0)
(0.418543474922 -6.45423246384e-05 0)
(0.41886036584 -0.000115836654307 0)
(0.419358754243 -0.000188119912432 0)
(0.420152318029 -0.000308132807775 0)
(0.421445098321 -0.000533559530426 0)
(0.423629490429 -0.00100146886808 0)
(0.427425719629 -0.00209424798625 0)
(0.43425917791 -0.00486555352927 0)
(0.448312083874 -0.012278127169 0)
(0.474750770384 -0.0343102982677 0)
(0.478394684224 -0.0989891395828 0)
(1.02222096724 0.238416185834 0)
(1.08213753636 0.295926651569 0)
(1.03447723865 0.239503065713 0)
(0.954615426529 0.174290164121 0)
(0.879992077897 0.121345468535 0)
(0.818614462583 0.083099384626 0)
(0.771410881893 0.0567316678325 0)
(0.736634425947 0.0387409692594 0)
(0.711624471669 0.0264327875486 0)
(0.693916663851 0.0179731050628 0)
(0.681541458454 0.012142448228 0)
(0.67300017057 0.00812490842706 0)
(0.667180710051 0.00536632128751 0)
(0.663271744357 0.00348444498358 0)
(0.660688576929 0.00221256164443 0)
(0.659014255929 0.00136338175396 0)
(0.65795457801 0.00080524348164 0)
(0.657304287796 0.000445916012471 0)
(0.656921871582 0.000221067575207 0)
(0.656710308082 8.55801069545e-05 0)
(0.656603445443 8.3567556543e-06 0)
(0.656561897562 -3.37206431441e-05 0)
(0.656557997419 -5.68547502801e-05 0)
(0.656571472692 -6.68734497457e-05 0)
(0.656593001469 -6.8480589776e-05 0)
(0.656616820403 -6.55590600671e-05 0)
(0.656639622566 -6.05481182389e-05 0)
(0.656659801452 -5.48582706715e-05 0)
(0.656676771803 -4.92739543773e-05 0)
(0.656690511038 -4.42023418926e-05 0)
(0.656701265116 -3.98384991023e-05 0)
(0.656709418306 -3.63010375639e-05 0)
(0.656715666585 -3.36953185591e-05 0)
(0.656720699834 -3.18568625963e-05 0)
(0.656724561781 -3.08098165952e-05 0)
(0.656727268092 -3.03021387207e-05 0)
(0.656729130334 -3.02461427885e-05 0)
(0.656730427818 -3.0556374813e-05 0)
(0.656731327978 -3.10832915109e-05 0)
(0.656731920544 -3.17445388264e-05 0)
(0.656732279606 -3.25106172282e-05 0)
(0.656732470462 -3.33465130169e-05 0)
(0.656732538573 -3.42276277546e-05 0)
(0.656732518235 -3.51345481138e-05 0)
(0.656732434072 -3.60516398802e-05 0)
(0.656732304242 -3.69680731945e-05 0)
(0.656732144127 -3.78765507723e-05 0)
(0.656731968924 -3.87717346833e-05 0)
(0.656731794585 -3.96485000247e-05 0)
(0.656731639001 -4.05015636114e-05 0)
(0.656731527087 -4.13268006866e-05 0)
(0.656731494376 -4.21202420526e-05 0)
(0.656731589591 -4.28800001192e-05 0)
(0.656731880208 -4.36082715724e-05 0)
(0.656732461059 -4.43168593687e-05 0)
(0.656733468156 -4.50360179438e-05 0)
(0.656735086473 -4.58176073088e-05 0)
(0.656737584796 -4.67566282862e-05 0)
(0.656741368417 -4.79819203165e-05 0)
(0.656747036883 -4.97022013878e-05 0)
(0.656755498314 -5.24062172609e-05 0)
(0.656768396992 -5.71726255531e-05 0)
(0.656787108396 -6.47454261407e-05 0)
(0.656813060896 -7.60249500024e-05 0)
(0.656850023028 -9.26823017776e-05 0)
(0.656904704997 -0.000117139680999 0)
(0.656986524489 -0.000152599869205 0)
(0.657109283909 -0.000204355401824 0)
(0.657294821374 -0.000280945215543 0)
(0.657578583458 -0.000396281268447 0)
(0.658018804596 -0.000574778009793 0)
(0.658704871218 -0.000863811693342 0)
(0.659784179411 -0.00135366521695 0)
(0.661514898637 -0.00221785123752 0)
(0.664340359929 -0.00381972464246 0)
(0.668958479483 -0.00695989397802 0)
(0.676399059837 -0.0133813068798 0)
(0.688676741943 -0.0269054639855 0)
(0.70536164736 -0.0564584654139 0)
(0.700706221234 -0.113404647163 0)
(1.02251475632 0.170807151106 0)
(1.10138976385 0.276496477314 0)
(1.11752427334 0.266664798393 0)
(1.09214662278 0.219901698642 0)
(1.05187817788 0.168168847788 0)
(1.01020825009 0.123567397143 0)
(0.973494719427 0.0888375220789 0)
(0.943864586827 0.0630063719553 0)
(0.921142832222 0.0442232042886 0)
(0.904284107307 0.0307423927825 0)
(0.89207490578 0.0211562941492 0)
(0.883404550528 0.0143954686373 0)
(0.877352713756 0.00966794846475 0)
(0.873197754132 0.0063938375384 0)
(0.870392980474 0.00415116510062 0)
(0.868534094559 0.00263449094401 0)
(0.867327700339 0.00162401702333 0)
(0.866564299677 0.000962675125648 0)
(0.866096544551 0.000539121062608 0)
(0.865822304416 0.000275152062577 0)
(0.865671462559 0.000117066985906 0)
(0.865595213557 2.87915013056e-05 0)
(0.865564156669 -1.9325060547e-05 0)
(0.865561349231 -4.12609066757e-05 0)
(0.865572693448 -4.76647073357e-05 0)
(0.865589700189 -4.55240090418e-05 0)
(0.865608010911 -3.91544998059e-05 0)
(0.865625351972 -3.11435923439e-05 0)
(0.865640639409 -2.29624799173e-05 0)
(0.865653505782 -1.53789016118e-05 0)
(0.865663982267 -8.72151431514e-06 0)
(0.865672272199 -3.04284435832e-06 0)
(0.865678627857 1.73540440477e-06 0)
(0.865683257263 5.46635185941e-06 0)
(0.86568657829 8.03381255131e-06 0)
(0.865688977697 9.79150535204e-06 0)
(0.865690610787 1.11461079775e-05 0)
(0.865691773796 1.22920072768e-05 0)
(0.865692641992 1.32619263527e-05 0)
(0.865693233848 1.41491804887e-05 0)
(0.865693597385 1.4945005738e-05 0)
(0.865693797122 1.56722106218e-05 0)
(0.865693872189 1.63463985762e-05 0)
(0.865693854357 1.69842387442e-05 0)
(0.865693765796 1.76006506061e-05 0)
(0.865693621996 1.82059963057e-05 0)
(0.865693437146 1.8808065309e-05 0)
(0.865693227527 1.9414371166e-05 0)
(0.865693012625 2.00350290388e-05 0)
(0.865692815132 2.06733503231e-05 0)
(0.865692665556 2.1316810736e-05 0)
(0.865692605143 2.19538946125e-05 0)
(0.865692687839 2.25687225379e-05 0)
(0.865692984173 2.31357006272e-05 0)
(0.865693585758 2.36160301653e-05 0)
(0.865694623574 2.39651087572e-05 0)
(0.865696276646 2.41576259409e-05 0)
(0.865698823 2.4078608293e-05 0)
(0.865702671604 2.35665639498e-05 0)
(0.865708256067 2.2229428573e-05 0)
(0.865715952905 1.94712155149e-05 0)
(0.865727414296 1.46798836948e-05 0)
(0.865745274103 5.98931305224e-06 0)
(0.865772458824 -8.26156878347e-06 0)
(0.865812863774 -3.00652726818e-05 0)
(0.865872391537 -6.33478494623e-05 0)
(0.865960370932 -0.000114997582388 0)
(0.866091316761 -0.000195800872708 0)
(0.866287797848 -0.000323058002104 0)
(0.866584681016 -0.000525315128585 0)
(0.867035672247 -0.000851642936163 0)
(0.867726025158 -0.00138918652314 0)
(0.868792426493 -0.00228710565542 0)
(0.870448742044 -0.00382071319683 0)
(0.873014937874 -0.00651565823716 0)
(0.876891739071 -0.0113841586855 0)
(0.882404529787 -0.0203010655257 0)
(0.889740454087 -0.0365488801894 0)
(0.896458119648 -0.0656827985959 0)
(0.886680944924 -0.110417662692 0)
(1.01287875247 0.118961022292 0)
(1.08820671355 0.231806936002 0)
(1.13741368188 0.25310676426 0)
(1.15409088233 0.228992753861 0)
(1.14994212764 0.188368359712 0)
(1.13538467662 0.146579845166 0)
(1.11758897263 0.110150966836 0)
(1.10059502897 0.0808162229388 0)
(1.08612460049 0.0582265769219 0)
(1.07459095645 0.041318985315 0)
(1.06579150175 0.0289160205138 0)
(1.05928802741 0.0199601004043 0)
(1.05459980574 0.0135815607209 0)
(1.05129081087 0.00909744389488 0)
(1.04899989605 0.00598615464638 0)
(1.04744345565 0.00385696693012 0)
(1.04640658492 0.00242159814249 0)
(1.04573067229 0.00147014995273 0)
(1.04530111948 0.000851701473405 0)
(1.04503662474 0.000459015867665 0)
(1.04488026435 0.000216756700001 0)
(1.04479264987 7.30181866039e-05 0)
(1.04474878601 -5.50293057639e-06 0)
(1.04473188744 -4.4006617709e-05 0)
(1.04472963721 -5.93834289474e-05 0)
(1.04473512175 -6.17169366071e-05 0)
(1.04474407075 -5.72432581142e-05 0)
(1.0447539565 -4.9801350873e-05 0)
(1.0447633992 -4.16423751497e-05 0)
(1.04477172838 -3.39873702225e-05 0)
(1.04477869331 -2.74225797899e-05 0)
(1.0447842812 -2.21512928373e-05 0)
(1.04478863813 -1.81283041e-05 0)
(1.04479197537 -1.51393624475e-05 0)
(1.04479454758 -1.28074377036e-05 0)
(1.04479664831 -1.10100283918e-05 0)
(1.04479838869 -9.51964415944e-06 0)
(1.04479971386 -8.22876184599e-06 0)
(1.04480069395 -7.20868882074e-06 0)
(1.04480137983 -6.53937276985e-06 0)
(1.04480179335 -6.15940573146e-06 0)
(1.04480202137 -5.95057580176e-06 0)
(1.04480210977 -5.86248487306e-06 0)
(1.0448020974 -5.8440992689e-06 0)
(1.04480200892 -5.85515459815e-06 0)
(1.04480186161 -5.87632422672e-06 0)
(1.04480167321 -5.89834630945e-06 0)
(1.04480146561 -5.91853008344e-06 0)
(1.04480125665 -5.94365204471e-06 0)
(1.04480105233 -5.97686638638e-06 0)
(1.04480087417 -6.00412643522e-06 0)
(1.04480076622 -6.02466567409e-06 0)
(1.04480078181 -6.04461258895e-06 0)
(1.04480099236 -6.07786299579e-06 0)
(1.04480150909 -6.15685543887e-06 0)
(1.04480252565 -6.37399206077e-06 0)
(1.0448042352 -6.98839350311e-06 0)
(1.04480689495 -8.29596156589e-06 0)
(1.04481082664 -1.07724972167e-05 0)
(1.04481648832 -1.45748614247e-05 0)
(1.04482492114 -1.95471932731e-05 0)
(1.04483726806 -2.5706051224e-05 0)
(1.04485474495 -3.54002728349e-05 0)
(1.04487968031 -5.16020773882e-05 0)
(1.0449155431 -7.85500162647e-05 0)
(1.04496747133 -0.000122508060576 0)
(1.04504306264 -0.000193267909955 0)
(1.04515366148 -0.000306436960766 0)
(1.04531641584 -0.000487235732501 0)
(1.04555720975 -0.000776789747072 0)
(1.04591478908 -0.00124259644857 0)
(1.0464471301 -0.00199658816698 0)
(1.04723856388 -0.00322985325254 0)
(1.04840243782 -0.00527416087269 0)
(1.05006674269 -0.00870815235757 0)
(1.05228917655 -0.0145288886476 0)
(1.05482707267 -0.0243495614964 0)
(1.05689188967 -0.0404912802387 0)
(1.05577649004 -0.0658125068899 0)
(1.04217270086 -0.0998453392185 0)
(1.00447483593 0.0814039968179 0)
(1.06917237847 0.181288538568 0)
(1.13080569702 0.216950418796 0)
(1.17375001841 0.210789155976 0)
(1.19865267062 0.183690077518 0)
(1.21019990269 0.149751684004 0)
(1.21350258358 0.11677914453 0)
(1.21251726966 0.0882206778667 0)
(1.20973101519 0.0650481505537 0)
(1.20651123163 0.0470209083566 0)
(1.20351917209 0.0334068080406 0)
(1.20101149473 0.0233557322994 0)
(1.19903449781 0.0160720138887 0)
(1.19753882941 0.0108795139587 0)
(1.19644136747 0.00723418832672 0)
(1.19565564109 0.00471351861805 0)
(1.19510494764 0.00299762897354 0)
(1.19472653717 0.00184916047863 0)
(1.19447155888 0.0010949599434 0)
(1.1943032513 0.000610611075593 0)
(1.19419461446 0.000307986775892 0)
(1.19412633164 0.000125769452485 0)
(1.19408528278 2.22248668357e-05 0)
(1.19406202394 -3.24496134476e-05 0)
(1.19404972297 -5.72678596585e-05 0)
(1.19404422351 -6.45933330268e-05 0)
(1.19404272524 -6.23713117121e-05 0)
(1.19404340988 -5.55167018733e-05 0)
(1.19404516167 -4.69399101353e-05 0)
(1.19404732211 -3.82544447201e-05 0)
(1.19404951854 -3.02612527613e-05 0)
(1.19405155885 -2.32651431002e-05 0)
(1.19405337402 -1.72893200761e-05 0)
(1.19405495842 -1.22601251809e-05 0)
(1.19405632811 -8.0713165111e-06 0)
(1.19405750197 -4.66888738046e-06 0)
(1.19405845244 -2.05714613441e-06 0)
(1.19405912622 -1.67067314985e-07 0)
(1.19405948238 1.15104182432e-06 0)
(1.19405959712 2.00854302142e-06 0)
(1.19405965166 2.688898631e-06 0)
(1.19405968181 3.2940239654e-06 0)
(1.1940596632 3.8237867813e-06 0)
(1.19405961291 4.28699144592e-06 0)
(1.19405952477 4.69577701633e-06 0)
(1.19405938867 5.06711252706e-06 0)
(1.19405920581 5.41266423276e-06 0)
(1.19405898086 5.73416988089e-06 0)
(1.19405873034 6.02003941234e-06 0)
(1.19405849645 6.26562349162e-06 0)
(1.19405831752 6.49232049839e-06 0)
(1.19405822482 6.69168003575e-06 0)
(1.19405826929 6.83759391839e-06 0)
(1.1940585131 6.89001554025e-06 0)
(1.19405900382 6.79197672908e-06 0)
(1.19405971757 6.46053476999e-06 0)
(1.19406070495 5.73394649472e-06 0)
(1.19406211908 4.28088562743e-06 0)
(1.19406455277 1.58713031837e-06 0)
(1.19406906473 -2.56573984122e-06 0)
(1.19407632037 -8.94408121539e-06 0)
(1.1940862035 -1.89822191409e-05 0)
(1.19409940516 -3.4659735736e-05 0)
(1.19411791319 -5.88868905419e-05 0)
(1.19414385539 -9.6251861448e-05 0)
(1.19418003684 -0.000154077670325 0)
(1.19423043354 -0.000244031869533 0)
(1.19430066138 -0.00038462576871 0)
(1.19439858106 -0.000605384474014 0)
(1.19453494942 -0.000953767758802 0)
(1.19472382219 -0.00150651014382 0)
(1.19498198316 -0.00238822168707 0)
(1.19532425757 -0.00380277328279 0)
(1.19574796763 -0.0060842293302 0)
(1.19619287733 -0.009773394625 0)
(1.19643926773 -0.0157174924156 0)
(1.1958999166 -0.0251332834319 0)
(1.19341863643 -0.0394861293393 0)
(1.18665528967 -0.0600339642099 0)
(1.17007820654 -0.085486771621 0)
(0.998962326929 0.0544316251611 0)
(1.05310957357 0.133401607915 0)
(1.11628269211 0.170777558734 0)
(1.17301273363 0.175143872659 0)
(1.21791248063 0.159583606975 0)
(1.25049860084 0.134951020526 0)
(1.27288493658 0.10841165693 0)
(1.2877672495 0.0838849716281 0)
(1.29745271133 0.0630565720072 0)
(1.30366078526 0.0462999211409 0)
(1.30759238221 0.0333205149181 0)
(1.31005374411 0.0235495245787 0)
(1.31157367202 0.0163599086974 0)
(1.3124949784 0.0111713162252 0)
(1.31303867485 0.0074915076491 0)
(1.31334676987 0.00492448643768 0)
(1.31351018741 0.0031629551322 0)
(1.31358682139 0.00197475112027 0)
(1.31361320223 0.00118819567071 0)
(1.31361205751 0.000678627926867 0)
(1.31359722462 0.000357007343249 0)
(1.31357690772 0.000160753578908 0)
(1.31355591679 4.64694409846e-05 0)
(1.31353662398 -1.58685069972e-05 0)
(1.31351996828 -4.60564057571e-05 0)
(1.31350628193 -5.706598697e-05 0)
(1.31349538043 -5.73203903812e-05 0)
(1.31348692683 -5.20817089348e-05 0)
(1.31348053274 -4.45194198664e-05 0)
(1.31347581272 -3.64578777726e-05 0)
(1.31347241554 -2.88701269928e-05 0)
(1.31347003813 -2.22093961411e-05 0)
(1.31346842093 -1.66269354069e-05 0)
(1.31346733551 -1.21302374414e-05 0)
(1.31346661621 -8.65365935177e-06 0)
(1.31346616549 -6.09558395369e-06 0)
(1.31346588212 -4.31867764712e-06 0)
(1.31346567685 -3.11547295132e-06 0)
(1.31346554747 -2.25636205557e-06 0)
(1.31346557946 -1.53730830399e-06 0)
(1.31346573454 -9.60430150074e-07 0)
(1.31346583472 -5.45806188728e-07 0)
(1.31346582937 -1.82363617244e-07 0)
(1.31346575109 1.57945993554e-07 0)
(1.31346562151 4.73267767908e-07 0)
(1.31346545215 7.72689091017e-07 0)
(1.31346524535 1.06879011459e-06 0)
(1.31346500271 1.37394284344e-06 0)
(1.31346473677 1.70131016758e-06 0)
(1.31346448072 2.04445932976e-06 0)
(1.31346425367 2.35633679174e-06 0)
(1.31346406398 2.60183327528e-06 0)
(1.31346394298 2.73763158494e-06 0)
(1.31346394205 2.70010396236e-06 0)
(1.31346414459 2.40072537899e-06 0)
(1.3134646701 1.74013142168e-06 0)
(1.31346552942 6.62811084148e-07 0)
(1.31346671179 -1.03175147846e-06 0)
(1.31346866577 -3.46457666774e-06 0)
(1.31347168551 -7.37384667901e-06 0)
(1.31347590131 -1.40732537121e-05 0)
(1.31348154939 -2.51693900384e-05 0)
(1.31348888953 -4.22382060998e-05 0)
(1.31349840043 -6.843846397e-05 0)
(1.31351038984 -0.000108800216874 0)
(1.31352491805 -0.000171075078953 0)
(1.31354158357 -0.000267367403912 0)
(1.31355904542 -0.000416652155136 0)
(1.31357405752 -0.000648802787326 0)
(1.31357964032 -0.00101116263181 0)
(1.31356169607 -0.00157896039955 0)
(1.31349267389 -0.00247149938554 0)
(1.31331811264 -0.00387663244997 0)
(1.31293014381 -0.00608776950525 0)
(1.31211828182 -0.00955113831147 0)
(1.31047625494 -0.0149111872287 0)
(1.30724892649 -0.0230009357933 0)
(1.30122320044 -0.0346681786873 0)
(1.29052444768 -0.0503609789749 0)
(1.27166734933 -0.0688660397309 0)
(0.99573607554 0.0346338602851 0)
(1.0417951498 0.0905689218385 0)
(1.10222839918 0.121549565725 0)
(1.16491413399 0.129605834795 0)
(1.22202568598 0.122009269002 0)
(1.26951894767 0.106019938613 0)
(1.30680226959 0.087097555909 0)
(1.33499538979 0.0686366808572 0)
(1.35574481563 0.0523698388534 0)
(1.37069621382 0.0389256180372 0)
(1.38128280679 0.0282980738951 0)
(1.38866273352 0.020171278099 0)
(1.39373039414 0.0141175115991 0)
(1.39715667191 0.00970533721223 0)
(1.39943441675 0.00655059618387 0)
(1.40091974184 0.00433445509705 0)
(1.40186629168 0.00280414476649 0)
(1.40245231635 0.00176574246377 0)
(1.40280141873 0.00107419421996 0)
(1.40299812069 0.000623234184904 0)
(1.40309934697 0.000336408755231 0)
(1.40314280476 0.000159623249389 0)
(1.40315306883 5.51649522875e-05 0)
(1.40314558279 -2.99664275516e-06 0)
(1.40312982593 -3.21206198779e-05 0)
(1.40311142652 -4.38876452319e-05 0)
(1.40309339221 -4.57573992387e-05 0)
(1.40307724759 -4.24151141484e-05 0)
(1.40306359407 -3.67244025886e-05 0)
(1.40305250509 -3.03619301093e-05 0)
(1.40304377875 -2.42422719533e-05 0)
(1.40303708972 -1.88123939391e-05 0)
(1.40303207661 -1.42406123262e-05 0)
(1.40302838926 -1.05290442831e-05 0)
(1.40302572963 -7.5769766276e-06 0)
(1.40302386545 -5.25941749587e-06 0)
(1.40302262014 -3.45343267557e-06 0)
(1.40302184299 -2.01543821456e-06 0)
(1.4030213679 -8.41313870643e-07 0)
(1.40302099927 9.24072957978e-08 0)
(1.40302067096 8.03300774178e-07 0)
(1.40302046703 1.29395568477e-06 0)
(1.40302037375 1.66770840677e-06 0)
(1.40302029793 1.99087994979e-06 0)
(1.40302020504 2.30078318525e-06 0)
(1.4030200877 2.61539649416e-06 0)
(1.40301994401 2.94432268698e-06 0)
(1.40301977533 3.29265484641e-06 0)
(1.40301958106 3.66196650465e-06 0)
(1.40301935405 4.03972100912e-06 0)
(1.40301910812 4.38610920463e-06 0)
(1.40301887715 4.67130813245e-06 0)
(1.40301868911 4.85772645835e-06 0)
(1.40301857045 4.88850712295e-06 0)
(1.40301854128 4.67614444098e-06 0)
(1.40301860424 4.07836895065e-06 0)
(1.4030187265 2.88664118909e-06 0)
(1.40301899816 9.80530505319e-07 0)
(1.40301957591 -1.94722532437e-06 0)
(1.40302054845 -6.78421772914e-06 0)
(1.40302189214 -1.43024847986e-05 0)
(1.40302326191 -2.58136443376e-05 0)
(1.40302414859 -4.31552695489e-05 0)
(1.40302379289 -6.93004595686e-05 0)
(1.4030206897 -0.000108834130797 0)
(1.40301206803 -0.000168784199321 0)
(1.40299309812 -0.000260049832154 0)
(1.40295555383 -0.000399493343633 0)
(1.4028853979 -0.000613207955303 0)
(1.40275877075 -0.00094190686923 0)
(1.4025355649 -0.00144914720557 0)
(1.40214918417 -0.00223345656035 0)
(1.40148754889 -0.00344441840934 0)
(1.40036163935 -0.00530663851113 0)
(1.39845709033 -0.00814433034306 0)
(1.39525891239 -0.0123945908245 0)
(1.38995092339 -0.0185720061847 0)
(1.3813798189 -0.0271197291241 0)
(1.36804094368 -0.0381269510602 0)
(1.34752805033 -0.0507102305327 0)
(0.994011532774 0.0192358070753 0)
(1.0348476418 0.052333841069 0)
(1.09199263835 0.072363128039 0)
(1.15662421615 0.0791292323557 0)
(1.22032118454 0.0761045463295 0)
(1.27701947867 0.0673339711217 0)
(1.32424421986 0.0561509029398 0)
(1.36181577182 0.0447990104421 0)
(1.3906853489 0.0345303773218 0)
(1.41226079616 0.0258814327403 0)
(1.42801827255 0.0189465249189 0)
(1.43929889585 0.0135849835314 0)
(1.44722813262 0.00955653594705 0)
(1.45270419141 0.00660011695485 0)
(1.45641901944 0.00447419136691 0)
(1.4588915086 0.0029735141012 0)
(1.46050237759 0.00193276883727 0)
(1.4615257796 0.00122369363741 0)
(1.46215580129 0.000749550349765 0)
(1.46252763231 0.00043901778493 0)
(1.46273391539 0.000240521630678 0)
(1.46283706328 0.000117412967979 0)
(1.46287836988 4.40510077753e-05 0)
(1.46288461185 2.69304962687e-06 0)
(1.4628724898 -1.84418427438e-05 0)
(1.46285214108 -2.74352691252e-05 0)
(1.46282959279 -2.94347064339e-05 0)
(1.46280805788 -2.76844413399e-05 0)
(1.46278906408 -2.41823779563e-05 0)
(1.46277315565 -2.01096850579e-05 0)
(1.46276032361 -1.61149982843e-05 0)
(1.46275027368 -1.25209655557e-05 0)
(1.46274259509 -9.45415897235e-06 0)
(1.4627368554 -6.92535841545e-06 0)
(1.46273265587 -4.88068435977e-06 0)
(1.46272965407 -3.25066473967e-06 0)
(1.46272756145 -1.97222872587e-06 0)
(1.46272612066 -1.00429755229e-06 0)
(1.46272512074 -3.01812476241e-07 0)
(1.4627244969 2.22659645968e-07 0)
(1.46272413491 7.08030260571e-07 0)
(1.46272388696 1.18852283041e-06 0)
(1.46272372174 1.61762704596e-06 0)
(1.46272359925 2.00298166958e-06 0)
(1.46272348951 2.36605482493e-06 0)
(1.46272337295 2.72054344662e-06 0)
(1.46272323554 3.07217341373e-06 0)
(1.46272306818 3.41903316859e-06 0)
(1.4627228661 3.75220214251e-06 0)
(1.46272262702 4.06146467989e-06 0)
(1.46272235448 4.33956964818e-06 0)
(1.46272205639 4.55495986599e-06 0)
(1.46272173986 4.65781280285e-06 0)
(1.46272141319 4.57888629265e-06 0)
(1.46272108744 4.22708471514e-06 0)
(1.46272078035 3.48949236534e-06 0)
(1.46272050971 2.24402635129e-06 0)
(1.4627201627 4.25235186926e-07 0)
(1.46271953464 -2.31543703522e-06 0)
(1.46271851068 -6.72500690679e-06 0)
(1.46271684238 -1.36065775861e-05 0)
(1.46271384694 -2.40654251217e-05 0)
(1.46270838975 -3.96342722779e-05 0)
(1.46269864762 -6.26824012558e-05 0)
(1.46268154039 -9.68003337938e-05 0)
(1.46265188171 -0.000147365587865 0)
(1.46260114764 -0.000222596483418 0)
(1.46251554249 -0.000334896867986 0)
(1.46237245592 -0.000502870802564 0)
(1.4621348136 -0.000755023620689 0)
(1.46174261026 -0.00113541809444 0)
(1.46110090352 -0.00171134566015 0)
(1.46005775428 -0.00257901631839 0)
(1.45837124436 -0.00387858398879 0)
(1.45566593996 -0.00580328993107 0)
(1.45137394834 -0.00859764707344 0)
(1.44467089944 -0.0125239892292 0)
(1.43448149778 -0.0177659467393 0)
(1.41953663466 -0.0242760224564 0)
(1.39797570052 -0.031513164407 0)
(0.993269668739 0.00617015144665 0)
(1.03158100573 0.0171020468093 0)
(1.08672182919 0.0239906492037 0)
(1.15174556031 0.0265606661032 0)
(1.21823538331 0.0258180588077 0)
(1.27925776655 0.0230488858118 0)
(1.33140138953 0.0193656310142 0)
(1.37377602219 0.0155468576272 0)
(1.40691057411 0.0120449302964 0)
(1.43203317973 0.009066400469 0)
(1.45060219921 0.00666059616524 0)
(1.464029912 0.00479009339624 0)
(1.47355021779 0.00337843048454 0)
(1.48017569394 0.00233874029313 0)
(1.4847023511 0.00158891595693 0)
(1.4877362718 0.00105829055549 0)
(1.48972741469 0.000689464120161 0)
(1.49100285102 0.000437639639876 0)
(1.49179593826 0.000268887067256 0)
(1.49227031645 0.000158112720788 0)
(1.49253881573 8.71266912726e-05 0)
(1.4926778987 4.29773753681e-05 0)
(1.49273843754 1.65878153934e-05 0)
(1.49275361574 1.66754216366e-06 0)
(1.49274438255 -6.06473421145e-06 0)
(1.49272359815 -9.40944390019e-06 0)
(1.49269895781 -1.0215062013e-05 0)
(1.49267468961 -9.65127022089e-06 0)
(1.49265289098 -8.43686456394e-06 0)
(1.49263440316 -6.99001453775e-06 0)
(1.49261934877 -5.55081594239e-06 0)
(1.49260746566 -4.23918311522e-06 0)
(1.49259832412 -3.10264777756e-06 0)
(1.49259144846 -2.14724438709e-06 0)
(1.49258638464 -1.35665008392e-06 0)
(1.49258273231 -7.08900452055e-07 0)
(1.49258015557 -1.82432463647e-07 0)
(1.49257838452 2.44762591333e-07 0)
(1.49257721243 6.19126344404e-07 0)
(1.49257646196 9.9070826122e-07 0)
(1.49257598064 1.29859161765e-06 0)
(1.49257567709 1.58727175571e-06 0)
(1.49257549412 1.87377610036e-06 0)
(1.49257537879 2.16831702479e-06 0)
(1.49257529159 2.47829527201e-06 0)
(1.49257520576 2.80684755682e-06 0)
(1.49257510218 3.15364043593e-06 0)
(1.49257496701 3.51491340858e-06 0)
(1.49257479023 3.88284377307e-06 0)
(1.49257456348 4.24416370426e-06 0)
(1.4925742813 4.57941237449e-06 0)
(1.49257394051 4.85731342357e-06 0)
(1.49257353525 5.03422559355e-06 0)
(1.49257305417 5.05014296612e-06 0)
(1.49257247624 4.82336375153e-06 0)
(1.49257177114 4.24252808055e-06 0)
(1.49257092969 3.15874682334e-06 0)
(1.49256982876 1.41677552204e-06 0)
(1.49256802594 -1.17241143426e-06 0)
(1.49256519959 -5.08034089998e-06 0)
(1.49256097747 -1.09768924523e-05 0)
(1.4925543447 -1.96189629555e-05 0)
(1.49254367204 -3.20656417482e-05 0)
(1.49252639943 -4.98555440424e-05 0)
(1.49249840072 -7.51636350668e-05 0)
(1.49245290745 -0.000110966043892 0)
(1.49237906144 -0.000161711011883 0)
(1.49225978922 -0.000233716276355 0)
(1.49206750517 -0.000335457721305 0)
(1.49175719318 -0.0004796924193 0)
(1.49125684599 -0.000687324513868 0)
(1.4904573735 -0.00099036591644 0)
(1.48918806507 -0.00142177109684 0)
(1.48718208036 -0.00202946854609 0)
(1.48403930158 -0.00287502990245 0)
(1.47917705888 -0.00402626708552 0)
(1.4717840283 -0.00553803231673 0)
(1.46083986129 -0.00741273259309 0)
(1.4451870416 -0.00955757949538 0)
(1.42320069376 -0.011725438939 0)
(0.993270466521 -0.00616840067786 0)
(1.03158098815 -0.0171003752963 0)
(1.0867217625 -0.0239897614439 0)
(1.15174559751 -0.0265602471352 0)
(1.21823546069 -0.0258179937309 0)
(1.27925786818 -0.0230491110328 0)