/*--------------------------------*- C++ -*----------------------------------*\
| =========                 |                                                 |
| \\      /  F ield         | OpenFOAM: The Open Source CFD Toolbox           |
|  \\    /   O peration     | Version:  2106                                  |
|   \\  /    A nd           | Website:  www.openfoam.com                      |
|    \\/     M anipulation  |                                                 |
\*---------------------------------------------------------------------------*/
FoamFile
{
    version     2.0;
    format      ascii;
    arch        "LSB;label=32;scalar=64";
    class       volVectorField;
    location    "0.05";
    object      U;
}
// * * * * * * * * * * * * * * * * * * * * * * * * * * * * * * * * * * * * * //

dimensions      [0 1 -1 0 0 0 0];

internalField   nonuniform List<vector> 
800
(
(-2.35314e-11 0 0)
(-1.42335e-11 0 0)
(4.85059e-12 0 0)
(-2.44607e-11 0 0)
(-6.15588e-11 0 0)
(-6.96525e-11 0 0)
(-4.91578e-11 0 0)
(-3.98275e-12 0 0)
(-5.17576e-11 0 0)
(-9.09103e-11 0 0)
(-1.09942e-10 0 0)
(-1.22002e-10 0 0)
(-9.16224e-11 0 0)
(-1.02085e-10 0 0)
(-7.93372e-11 0 0)
(-1.72993e-11 0 0)
(4.09839e-11 0 0)
(1.14393e-10 0 0)
(1.9008e-10 0 0)
(2.25074e-10 0 0)
(1.72319e-10 0 0)
(1.46064e-10 0 0)
(1.34153e-10 0 0)
(9.58493e-11 0 0)
(4.67166e-11 0 0)
(1.7167e-11 0 0)
(-4.55068e-11 0 0)
(-6.47231e-11 0 0)
(-2.15952e-11 0 0)
(-1.87208e-11 0 0)
(3.12574e-11 0 0)
(9.25282e-11 0 0)
(4.42854e-11 0 0)
(4.65955e-11 0 0)
(5.24194e-11 0 0)
(-1.37456e-11 0 0)
(-4.69836e-11 0 0)
(-7.86858e-11 0 0)
(-4.88528e-11 0 0)
(-2.13737e-15 0 0)
(2.73069e-11 0 0)
(-3.7827e-12 0 0)
(-1.19934e-10 0 0)
(-2.10744e-10 0 0)
(-1.79021e-10 0 0)
(-1.12456e-10 0 0)
(-1.07663e-10 0 0)
(-1.00033e-10 0 0)
(-3.81886e-11 0 0)
(-4.30265e-11 0 0)
(-8.25285e-11 0 0)
(-7.29466e-11 0 0)
(-2.66248e-11 0 0)
(5.9439e-12 0 0)
(1.68011e-11 0 0)
(3.0199e-11 0 0)
(6.92087e-11 0 0)
(5.3418e-11 0 0)
(-8.85858e-12 0 0)
(-8.73843e-11 0 0)
(-1.375e-10 0 0)
(-1.36086e-10 0 0)
(-1.64192e-10 0 0)
(-1.73721e-10 0 0)
(-2.07928e-10 0 0)
(-1.70264e-10 0 0)
(-8.99476e-11 0 0)
(5.03787e-11 0 0)
(1.1042e-10 0 0)
(8.71443e-11 0 0)
(3.6616e-11 0 0)
(-3.31997e-11 0 0)
(-5.91273e-11 0 0)
(-2.26835e-11 0 0)
(3.6966e-11 0 0)
(8.23491e-11 0 0)
(7.41665e-11 0 0)
(6.5357e-11 0 0)
(7.26264e-11 0 0)
(2.69523e-11 0 0)
(1.72167e-11 0 0)
(-3.59135e-11 0 0)
(-4.93337e-11 0 0)
(-2.70324e-12 0 0)
(3.62917e-11 0 0)
(5.76356e-11 0 0)
(1.06965e-10 0 0)
(6.91956e-11 0 0)
(-4.604e-11 0 0)
(-1.55229e-10 0 0)
(-2.11118e-10 0 0)
(-2.00742e-10 0 0)
(-1.36332e-10 0 0)
(-3.04304e-11 0 0)
(1.62557e-11 0 0)
(5.56749e-11 0 0)
(7.56992e-11 0 0)
(9.23955e-11 0 0)
(1.29085e-10 0 0)
(1.35395e-10 0 0)
(9.20717e-11 0 0)
(7.10585e-11 0 0)
(7.06756e-11 0 0)
(6.07602e-11 0 0)
(1.43549e-11 0 0)
(-3.40498e-11 0 0)
(-2.1059e-11 0 0)
(-3.47941e-11 0 0)
(-1.05195e-10 0 0)
(-9.04728e-11 0 0)
(-6.04654e-11 0 0)
(-4.99936e-11 0 0)
(-1.06296e-10 0 0)
(-1.36864e-10 0 0)
(-1.11901e-10 0 0)
(-7.52235e-11 0 0)
(-7.51955e-11 0 0)
(-6.90557e-11 0 0)
(-6.84327e-11 0 0)
(-6.70884e-11 0 0)
(-4.62109e-11 0 0)
(-1.10678e-11 0 0)
(3.07226e-11 0 0)
(3.03346e-11 0 0)
(3.76256e-11 0 0)
(1.67792e-11 0 0)
(-2.48509e-11 0 0)
(-5.71029e-11 0 0)
(-1.02681e-10 0 0)
(-2.31459e-11 0 0)
(2.25695e-11 0 0)
(1.24485e-11 0 0)
(6.51865e-12 0 0)
(1.93859e-11 0 0)
(4.66402e-12 0 0)
(-6.1536e-12 0 0)
(1.75181e-11 0 0)
(4.57953e-11 0 0)
(8.9968e-11 0 0)
(1.23144e-10 0 0)
(1.38733e-10 0 0)
(1.59771e-10 0 0)
(1.52837e-10 0 0)
(8.25057e-11 0 0)
(-1.04846e-11 0 0)
(-2.12283e-11 0 0)
(-4.74883e-11 0 0)
(-8.44605e-11 0 0)
(-1.2186e-10 0 0)
(-7.54991e-11 0 0)
(6.56403e-13 0 0)
(3.41128e-12 0 0)
(-7.23376e-11 0 0)
(-6.80185e-11 0 0)
(-6.22055e-11 0 0)
(-8.8137e-11 0 0)
(-1.00431e-10 0 0)
(-1.27061e-10 0 0)
(-1.30681e-10 0 0)
(-1.37701e-10 0 0)
(-1.42883e-10 0 0)
(-8.79098e-11 0 0)
(-6.24891e-11 0 0)
(-4.25702e-11 0 0)
(2.38488e-11 0 0)
(2.03059e-11 0 0)
(-2.38365e-11 0 0)
(-4.19925e-12 0 0)
(-1.79371e-11 0 0)
(-9.29937e-11 0 0)
(-8.42694e-11 0 0)
(-2.93205e-11 0 0)
(2.76551e-11 0 0)
(7.741e-11 0 0)
(8.6565e-11 0 0)
(3.70937e-11 0 0)
(-3.13341e-12 0 0)
(-8.289e-12 0 0)
(-1.72559e-11 0 0)
(-2.29081e-11 0 0)
(-3.14809e-11 0 0)
(-9.65693e-11 0 0)
(-1.74589e-10 0 0)
(-1.94807e-10 0 0)
(-1.87908e-10 0 0)
(-1.17613e-10 0 0)
(8.07286e-12 0 0)
(5.8238e-11 0 0)
(5.35262e-11 0 0)
(1.05656e-10 0 0)
(1.0572e-10 0 0)
(1.02107e-10 0 0)
(1.09148e-10 0 0)
(1.2915e-10 0 0)
(9.25991e-11 0 0)
(2.90876e-11 0 0)
(-3.68225e-11 0 0)
(-4.5525e-11 0 0)
(-3.04766e-11 0 0)
(-2.24685e-11 0 0)
(-3.84868e-11 0 0)
(-5.80925e-11 0 0)
(-2.00131e-11 0 0)
(9.68062e-12 0 0)
(7.5391e-11 0 0)
(7.33337e-11 0 0)
(5.32712e-11 0 0)
(5.94265e-11 0 0)
(1.40766e-10 0 0)
(1.80567e-10 0 0)
(2.21431e-10 0 0)
(2.03241e-10 0 0)
(1.73991e-10 0 0)
(1.23695e-10 0 0)
(8.12654e-11 0 0)
(1.30558e-11 0 0)
(-6.4252e-11 0 0)
(-6.91456e-11 0 0)
(-6.04329e-11 0 0)
(-1.31467e-11 0 0)
(5.78931e-11 0 0)
(1.04499e-10 0 0)
(7.88944e-11 0 0)
(1.03481e-10 0 0)
(1.16043e-10 0 0)
(1.36808e-10 0 0)
(1.26641e-10 0 0)
(1.90253e-10 0 0)
(2.50111e-10 0 0)
(2.73987e-10 0 0)
(3.07287e-10 0 0)
(2.79753e-10 0 0)
(2.16709e-10 0 0)
(9.94537e-11 0 0)
(-4.45224e-11 0 0)
(-9.9297e-11 0 0)
(-1.15397e-10 0 0)
(-1.5217e-10 0 0)
(-2.09576e-10 0 0)
(-2.04921e-10 0 0)
(-8.13278e-11 0 0)
(-6.07652e-12 0 0)
(2.12509e-11 0 0)
(8.91817e-11 0 0)
(9.60274e-11 0 0)
(6.49851e-11 0 0)
(7.53628e-11 0 0)
(1.18226e-10 0 0)
(1.60063e-10 0 0)
(1.47102e-10 0 0)
(8.94529e-11 0 0)
(3.07877e-11 0 0)
(3.97329e-11 0 0)
(1.45531e-11 0 0)
(-3.24931e-11 0 0)
(-3.73613e-11 0 0)
(-7.88697e-11 0 0)
(-1.34457e-10 0 0)
(-1.09888e-10 0 0)
(-6.98272e-11 0 0)
(-6.66526e-12 0 0)
(4.09893e-11 0 0)
(3.17381e-11 0 0)
(3.42568e-11 0 0)
(9.16597e-11 0 0)
(7.79473e-11 0 0)
(-3.73389e-11 0 0)
(-9.44481e-11 0 0)
(-1.29648e-10 0 0)
(-1.4759e-10 0 0)
(-2.92464e-11 0 0)
(9.0427e-12 0 0)
(-7.63175e-11 0 0)
(-1.07859e-10 0 0)
(-5.28537e-11 0 0)
(4.47556e-11 0 0)
(1.55207e-10 0 0)
(1.91365e-10 0 0)
(2.38206e-10 0 0)
(2.00099e-10 0 0)
(6.52831e-11 0 0)
(-7.44379e-11 0 0)
(-1.16553e-10 0 0)
(-1.17013e-10 0 0)
(-3.43898e-11 0 0)
(-6.65562e-12 0 0)
(-9.42123e-11 0 0)
(-1.49715e-10 0 0)
(-2.57371e-11 0 0)
(1.17674e-10 0 0)
(1.69167e-10 0 0)
(1.53117e-10 0 0)
(1.77472e-10 0 0)
(2.06891e-10 0 0)
(2.22122e-10 0 0)
(1.62328e-10 0 0)
(1.42096e-10 0 0)
(1.19103e-10 0 0)
(8.97834e-11 0 0)
(1.03996e-10 0 0)
(7.47593e-11 0 0)
(1.70986e-11 0 0)
(1.20247e-10 0 0)
(8.55433e-11 0 0)
(4.97506e-11 0 0)
(3.57887e-11 0 0)
(-7.26953e-12 0 0)
(-6.88586e-13 0 0)
(-6.0233e-11 0 0)
(-9.53929e-11 0 0)
(-7.10579e-12 0 0)
(2.79976e-11 0 0)
(1.64718e-11 0 0)
(-6.4239e-11 0 0)
(-5.49652e-11 0 0)
(-2.0834e-11 0 0)
(-3.94745e-12 0 0)
(3.23381e-11 0 0)
(1.02219e-10 0 0)
(7.64097e-11 0 0)
(-6.36007e-13 0 0)
(-4.78051e-11 0 0)
(-1.68102e-11 0 0)
(1.33984e-11 0 0)
(3.73944e-11 0 0)
(2.51061e-11 0 0)
(-6.58959e-11 0 0)
(-1.16654e-10 0 0)
(-1.55597e-10 0 0)
(-1.74602e-10 0 0)
(-1.51157e-10 0 0)
(-1.77825e-10 0 0)
(-2.36218e-10 0 0)
(-2.83383e-10 0 0)
(-3.64319e-10 0 0)
(-5.15482e-10 0 0)
(-5.58473e-10 0 0)
(-5.58641e-10 0 0)
(1.15407e-08 0 0)
(8.26017e-06 0 0)
(0.000534873 0 0)
(0.00604398 0 0)
(0.0220867 0 0)
(0.0436781 0 0)
(0.0645931 0 0)
(0.083543 0 0)
(0.101116 0 0)
(0.117951 0 0)
(0.134426 0 0)
(0.150728 0 0)
(0.166942 0 0)
(0.183109 0 0)
(0.199247 0 0)
(0.215366 0 0)
(0.231474 0 0)
(0.247573 0 0)
(0.263667 0 0)
(0.279758 0 0)
(0.295847 0 0)
(0.311936 0 0)
(0.328026 0 0)
(0.344118 0 0)
(0.360213 0 0)
(0.376311 0 0)
(0.392414 0 0)
(0.408523 0 0)
(0.424637 0 0)
(0.440759 0 0)
(0.456888 0 0)
(0.473025 0 0)
(0.489171 0 0)
(0.505328 0 0)
(0.521495 0 0)
(0.537673 0 0)
(0.553862 0 0)
(0.570064 0 0)
(0.586279 0 0)
(0.602506 0 0)
(0.618746 0 0)
(0.634999 0 0)
(0.651264 0 0)
(0.667541 0 0)
(0.68383 0 0)
(0.700128 0 0)
(0.716436 0 0)
(0.73275 0 0)
(0.749069 0 0)
(0.76539 0 0)
(0.781711 0 0)
(0.798029 0 0)
(0.81434 0 0)
(0.830642 0 0)
(0.846928 0 0)
(0.863177 0 0)
(0.879324 0 0)
(0.895161 0 0)
(0.910086 0 0)
(0.922602 0 0)
(0.930295 0 0)
(0.932474 0 0)
(0.930803 0 0)
(0.928377 0 0)
(0.928381 0 0)
(0.929578 0 0)
(0.930031 0 0)
(0.930185 0 0)
(0.930161 0 0)
(0.929969 0 0)
(0.929898 0 0)
(0.92989 0 0)
(0.929813 0 0)
(0.929629 0 0)
(0.929533 0 0)
(0.929499 0 0)
(0.92948 0 0)
(0.92936 0 0)
(0.929156 0 0)
(0.929052 0 0)
(0.929002 0 0)
(0.928941 0 0)
(0.928887 0 0)
(0.928886 0 0)
(0.928917 0 0)
(0.928894 0 0)
(0.928743 0 0)
(0.928646 0 0)
(0.928617 0 0)
(0.928576 0 0)
(0.92851 0 0)
(0.92848 0 0)
(0.928495 0 0)
(0.928507 0 0)
(0.928419 0 0)
(0.928338 0 0)
(0.928357 0 0)
(0.928391 0 0)
(0.928392 0 0)
(0.92843 0 0)
(0.928529 0 0)
(0.928662 0 0)
(0.928714 0 0)
(0.928678 0 0)
(0.928728 0 0)
(0.928843 0 0)
(0.929042 0 0)
(0.929384 0 0)
(0.929926 0 0)
(0.932227 0 0)
(0.92874 0 0)
(0.923291 0 0)
(0.929459 0 0)
(0.931659 0 0)
(0.932078 0 0)
(0.931437 0 0)
(0.929586 0 0)
(0.928086 0 0)
(0.927101 0 0)
(0.926376 0 0)
(0.926032 0 0)
(0.926445 0 0)
(0.928201 0 0)
(0.930759 0 0)
(0.931832 0 0)
(0.931691 0 0)
(0.931153 0 0)
(0.929681 0 0)
(0.92743 0 0)
(0.926053 0 0)
(0.925764 0 0)
(0.926067 0 0)
(0.92676 0 0)
(0.928511 0 0)
(0.9308 0 0)
(0.931439 0 0)
(0.931375 0 0)
(0.930834 0 0)
(0.928931 0 0)
(0.926384 0 0)
(0.925542 0 0)
(0.925455 0 0)
(0.925843 0 0)
(0.927314 0 0)
(0.929948 0 0)
(0.931286 0 0)
(0.931339 0 0)
(0.930586 0 0)
(0.919575 0 0)
(0.804873 0 0)
(0.33389 0 0)
(0.0130279 0 0)
(1.58844e-05 0 0)
(2.28264e-10 0 0)
(-1.46968e-10 0 0)
(-1.45287e-10 0 0)
(-1.10105e-10 0 0)
(-7.61631e-11 0 0)
(-2.27459e-12 0 0)
(1.96731e-11 0 0)
(2.36268e-11 0 0)
(2.61746e-11 0 0)
(-2.9486e-11 0 0)
(-1.10942e-10 0 0)
(-8.96267e-11 0 0)
(-3.82752e-11 0 0)
(9.19857e-12 0 0)
(8.9421e-11 0 0)
(1.34167e-10 0 0)
(1.45235e-10 0 0)
(1.19842e-10 0 0)
(5.65202e-11 0 0)
(-1.63213e-11 0 0)
(-3.48796e-11 0 0)
(-1.09408e-10 0 0)
(-1.37293e-10 0 0)
(-7.56371e-11 0 0)
(-7.39509e-11 0 0)
(-1.04394e-10 0 0)
(-1.70102e-10 0 0)
(-1.85701e-10 0 0)
(-1.55851e-10 0 0)
(-1.23442e-10 0 0)
(-1.10474e-10 0 0)
(-1.16989e-10 0 0)
(-1.6123e-10 0 0)
(-1.98294e-10 0 0)
(-1.64784e-10 0 0)
(-9.24542e-11 0 0)
(-4.99319e-11 0 0)
(-4.33345e-11 0 0)
(-3.15594e-11 0 0)
(-5.07522e-12 0 0)
(-7.71595e-11 0 0)
(-1.15131e-10 0 0)
(-9.55058e-11 0 0)
(-7.52393e-11 0 0)
(-8.00447e-11 0 0)
(-7.60601e-11 0 0)
(-1.03753e-10 0 0)
(-6.69667e-11 0 0)
(-9.47363e-11 0 0)
(-1.45173e-10 0 0)
(-1.32418e-10 0 0)
(-2.68531e-11 0 0)
(5.13374e-11 0 0)
(4.98372e-11 0 0)
(2.40358e-11 0 0)
(-4.0746e-11 0 0)
(-1.07446e-10 0 0)
(-1.41616e-10 0 0)
(-1.70458e-10 0 0)
(-1.45122e-10 0 0)
(-3.85295e-11 0 0)
(-2.08947e-11 0 0)
(1.52468e-11 0 0)
(1.0144e-11 0 0)
(-6.06691e-11 0 0)
(-7.91738e-11 0 0)
(-1.09101e-10 0 0)
(-2.83896e-11 0 0)
(7.4277e-11 0 0)
(8.83202e-11 0 0)
(1.35505e-10 0 0)
(1.57178e-10 0 0)
(1.48981e-10 0 0)
(1.41132e-10 0 0)
(1.16357e-10 0 0)
(1.91602e-11 0 0)
(-8.0662e-11 0 0)
(-1.48806e-10 0 0)
(-1.37237e-10 0 0)
(-4.97588e-11 0 0)
(5.32324e-11 0 0)
(3.72823e-11 0 0)
(-3.96628e-12 0 0)
(-5.15705e-11 0 0)
(-1.16887e-10 0 0)
(-1.35877e-10 0 0)
(-1.4302e-10 0 0)
(-1.03357e-10 0 0)
(-1.09676e-10 0 0)
(-1.11614e-10 0 0)
(-9.21965e-11 0 0)
(-7.11313e-11 0 0)
(1.47541e-11 0 0)
(6.45867e-11 0 0)
(1.07463e-10 0 0)
(1.2583e-10 0 0)
(7.67268e-11 0 0)
(1.02744e-10 0 0)
(1.64985e-10 0 0)
(1.77797e-10 0 0)
(2.53638e-10 0 0)
(2.18849e-10 0 0)
(1.88295e-10 0 0)
(8.93837e-11 0 0)
(-3.08474e-11 0 0)
(-1.42241e-10 0 0)
(-1.63925e-10 0 0)
(-2.00181e-10 0 0)
(-1.8864e-10 0 0)
(-1.27867e-10 0 0)
(-6.87323e-11 0 0)
(3.01981e-11 0 0)
(5.37502e-11 0 0)
(3.29851e-11 0 0)
(2.86305e-11 0 0)
(-4.38059e-11 0 0)
(-9.78629e-11 0 0)
(-9.76093e-11 0 0)
(-2.18667e-11 0 0)
(-9.21434e-12 0 0)
(-1.08467e-11 0 0)
(4.90541e-11 0 0)
(1.03272e-10 0 0)
(7.23622e-11 0 0)
(7.73389e-11 0 0)
(5.17694e-11 0 0)
(-5.86152e-12 0 0)
(1.76168e-11 0 0)
(6.26176e-13 0 0)
(-5.6759e-11 0 0)
(-8.0596e-11 0 0)
(-7.27751e-11 0 0)
(2.16886e-11 0 0)
(6.64814e-11 0 0)
(4.04386e-11 0 0)
(2.68158e-11 0 0)
(-2.48218e-12 0 0)
(-8.82629e-11 0 0)
(-1.01167e-10 0 0)
(-1.1849e-10 0 0)
(-1.42343e-10 0 0)
(-8.80947e-11 0 0)
(-4.32453e-11 0 0)
(-8.05877e-11 0 0)
(-1.0193e-10 0 0)
(-9.75016e-11 0 0)
(-1.14886e-10 0 0)
(-7.31777e-11 0 0)
(5.05387e-11 0 0)
(7.4933e-11 0 0)
(3.66339e-11 0 0)
(1.04062e-10 0 0)
(1.68054e-10 0 0)
(9.6149e-11 0 0)
(-4.81209e-12 0 0)
(-5.13104e-11 0 0)
(-1.59247e-11 0 0)
(1.23312e-11 0 0)
(-1.4418e-11 0 0)
(3.16514e-11 0 0)
(8.32761e-11 0 0)
(9.29022e-11 0 0)
(4.69386e-11 0 0)
(6.03415e-12 0 0)
(-1.3011e-11 0 0)
(-2.11455e-11 0 0)
(2.69862e-11 0 0)
(7.13168e-11 0 0)
(1.11578e-10 0 0)
(1.46589e-10 0 0)
(1.59951e-10 0 0)
(1.73686e-10 0 0)
(1.40155e-10 0 0)
(-5.81805e-12 0 0)
(-4.29226e-11 0 0)
(-4.64318e-11 0 0)
(-2.80246e-11 0 0)
(-2.53502e-11 0 0)
(2.74305e-11 0 0)
(5.70689e-11 0 0)
(-6.37163e-11 0 0)
(-9.24825e-11 0 0)
(-7.25842e-11 0 0)
(-5.80079e-11 0 0)
(-2.67823e-11 0 0)
(-1.88206e-11 0 0)
(-4.09648e-12 0 0)
(-3.38458e-11 0 0)
(-6.18481e-11 0 0)
(-9.62517e-11 0 0)
(-8.46857e-11 0 0)
(-2.3216e-11 0 0)
(8.81902e-11 0 0)
(1.94206e-10 0 0)
(2.4677e-10 0 0)
(1.76891e-10 0 0)
(7.8116e-12 0 0)
(-9.5175e-11 0 0)
(-9.67669e-11 0 0)
(-4.76054e-11 0 0)
(-5.15686e-11 0 0)
(-7.83635e-12 0 0)
(1.41783e-11 0 0)
(-3.13826e-11 0 0)
(-4.60842e-11 0 0)
(-4.25714e-11 0 0)
(-8.43466e-11 0 0)
(-9.17545e-11 0 0)
(-3.995e-11 0 0)
(-4.99405e-11 0 0)
(-7.64373e-11 0 0)
(-1.00182e-10 0 0)
(-1.00149e-10 0 0)
(-4.95625e-11 0 0)
(-6.58114e-11 0 0)
(5.34013e-11 0 0)
(2.39519e-10 0 0)
(2.54687e-10 0 0)
(1.60521e-10 0 0)
(8.42703e-11 0 0)
(3.04174e-11 0 0)
(2.85791e-11 0 0)
(-2.95386e-11 0 0)
(-2.81633e-11 0 0)
(3.39799e-12 0 0)
(-3.82573e-11 0 0)
(-4.04003e-11 0 0)
(-4.09094e-11 0 0)
(-6.72326e-11 0 0)
(-3.00842e-11 0 0)
(-2.42862e-11 0 0)
(3.68709e-12 0 0)
(4.72309e-11 0 0)
(1.21268e-10 0 0)
(8.561e-11 0 0)
(4.8573e-11 0 0)
(6.56606e-13 0 0)
(-3.73007e-11 0 0)
(-6.9451e-11 0 0)
(-7.49623e-11 0 0)
(-3.80104e-11 0 0)
(-6.20133e-11 0 0)
(6.80771e-12 0 0)
(3.98976e-11 0 0)
(2.51403e-11 0 0)
(1.50801e-11 0 0)
(1.47593e-11 0 0)
(6.10542e-11 0 0)
(1.26452e-10 0 0)
(1.21906e-10 0 0)
(1.59319e-10 0 0)
(1.02172e-10 0 0)
(7.24017e-11 0 0)
(2.5318e-11 0 0)
(-5.32672e-11 0 0)
(-1.76838e-11 0 0)
(4.13678e-11 0 0)
(9.07568e-11 0 0)
(9.00504e-11 0 0)
(8.23463e-11 0 0)
(7.10045e-11 0 0)
(9.69151e-11 0 0)
(1.58248e-10 0 0)
(1.2529e-10 0 0)
(1.7066e-11 0 0)
(3.11189e-13 0 0)
(-4.27156e-12 0 0)
(-4.96742e-11 0 0)
(-6.21887e-11 0 0)
(-1.04197e-10 0 0)
(-1.44605e-10 0 0)
(-1.97701e-10 0 0)
(-2.83297e-10 0 0)
(-3.06398e-10 0 0)
(-2.94363e-10 0 0)
(-1.50965e-10 0 0)
(-2.94136e-11 0 0)
(6.92116e-11 0 0)
(1.86978e-10 0 0)
(2.35774e-10 0 0)
(2.51548e-10 0 0)
(2.92111e-10 0 0)
(3.01838e-10 0 0)
(2.76951e-10 0 0)
(2.71814e-10 0 0)
(2.26115e-10 0 0)
(1.65929e-10 0 0)
(1.00929e-10 0 0)
(5.31698e-11 0 0)
(3.32657e-12 0 0)
(5.10758e-12 0 0)
(5.29702e-11 0 0)
(5.96291e-11 0 0)
(3.59414e-11 0 0)
(6.33049e-11 0 0)
(7.83422e-11 0 0)
(3.36819e-11 0 0)
(-2.07324e-11 0 0)
(-4.71446e-11 0 0)
(-7.38406e-11 0 0)
(-9.28789e-11 0 0)
(-8.7125e-11 0 0)
(-1.44796e-10 0 0)
(-1.15066e-10 0 0)
(-1.76875e-11 0 0)
(6.01479e-11 0 0)
(9.93882e-11 0 0)
(8.53353e-11 0 0)
(1.76651e-11 0 0)
)
;

boundaryField
{
    left
    {
        type            noSlip;
    }
    right
    {
        type            noSlip;
    }
    empty
    {
        type            empty;
    }
}


// ************************************************************************* //
