/*--------------------------------*- C++ -*----------------------------------*\
| =========                 |                                                 |
| \\      /  F ield         | OpenFOAM: The Open Source CFD Toolbox           |
|  \\    /   O peration     | Version:  2106                                  |
|   \\  /    A nd           | Website:  www.openfoam.com                      |
|    \\/     M anipulation  |                                                 |
\*---------------------------------------------------------------------------*/
FoamFile
{
    version     2.0;
    format      ascii;
    arch        "LSB;label=32;scalar=64";
    class       surfaceScalarField;
    location    "0.12";
    object      phi;
}
// * * * * * * * * * * * * * * * * * * * * * * * * * * * * * * * * * * * * * //

dimensions      [0 3 -1 0 0 0 0];

oriented        oriented;

internalField   nonuniform List<scalar> 
22100
(
3.38461204068e-05
1.61538795976e-05
2.24572102512e-05
1.13889104283e-05
1.62585535126e-05
6.19865695131e-06
1.27977764946e-05
3.46077717515e-06
1.08046424025e-05
1.9931341898e-06
9.60458900687e-06
1.20005343928e-06
8.85132078009e-06
7.53268239174e-07
8.36435149606e-06
4.86969300859e-07
8.04433327123e-06
3.20018277918e-07
7.83283841663e-06
2.11494959913e-07
7.69339568061e-06
1.39442893863e-07
7.60223994148e-06
9.11559165487e-08
7.54347931319e-06
5.87607893187e-08
7.50634588827e-06
3.71335308741e-08
7.48351156784e-06
2.28343343579e-08
7.4699980144e-06
1.35134599448e-08
7.4624430821e-06
7.55474173888e-09
7.4585871679e-06
3.85565631567e-09
7.45688143201e-06
1.70545173324e-09
7.45649376289e-06
3.87399107238e-10
7.45686459517e-06
-3.71059043632e-10
7.45757315847e-06
-7.08733405452e-10
7.45835524393e-06
-7.82201139968e-10
7.4591057386e-06
-7.50571264281e-10
7.45977607467e-06
-6.7039611606e-10
7.46034605883e-06
-5.70046519489e-10
7.46081353907e-06
-4.67551563078e-10
7.46118638692e-06
-3.72921665367e-10
7.46147702411e-06
-2.90699800601e-10
7.46169914996e-06
-2.22165761918e-10
7.46186589026e-06
-1.66757215214e-10
7.46198882706e-06
-1.22945568994e-10
7.46207758376e-06
-8.87827473512e-11
7.46214045292e-06
-6.29356371996e-11
7.46218290391e-06
-4.25655790363e-11
7.46220874452e-06
-2.59901228026e-11
7.4622224318e-06
-1.38422364926e-11
7.46222833714e-06
-6.02971604733e-12
7.46222886969e-06
-5.9800044443e-13
7.46222541268e-06
3.4590453259e-12
7.46221900924e-06
6.45729821784e-12
7.46221040105e-06
8.682229707e-12
7.46220010175e-06
1.0362031298e-11
7.46218842573e-06
1.17110954709e-11
7.46217551501e-06
1.29238953893e-11
7.46216136555e-06
1.41640783024e-11
7.46214582323e-06
1.5584287313e-11
7.4621285616e-06
1.73428400086e-11
7.46210910326e-06
1.95690428572e-11
7.46208686099e-06
2.23552649408e-11
7.4620611385e-06
2.58103313775e-11
7.46203115184e-06
3.00402370576e-11
7.46199604458e-06
3.51407762354e-11
7.46195490034e-06
4.11839890851e-11
7.46190678009e-06
4.81930161017e-11
7.4618508043e-06
5.61005486245e-11
7.46178627316e-06
6.47069303545e-11
7.46171281894e-06
7.36552015023e-11
7.4616310464e-06
8.19642255838e-11
7.46154329541e-06
8.79073141095e-11
7.46145543148e-06
8.79690848285e-11
7.46137969188e-06
7.57850023807e-11
7.46132529179e-06
5.4379353583e-11
7.46131020338e-06
1.49956285558e-11
7.46137047915e-06
-6.04308708237e-11
7.46156499076e-06
-1.94690241638e-10
7.46198955058e-06
-4.2470492357e-10
7.46279648865e-06
-8.06997980778e-10
7.46422479919e-06
-1.42827196267e-09
7.46663530308e-06
-2.41041088432e-09
7.47048216418e-06
-3.84678603446e-09
7.47700983314e-06
-6.52767708671e-09
7.4879137058e-06
-1.09039899696e-08
7.50631383847e-06
-1.84003279732e-08
7.53988405971e-06
-3.35704275595e-08
7.6098339197e-06
-6.99500199396e-08
7.77821221312e-06
-1.68378396897e-07
8.23799176335e-06
-4.59779657634e-07
9.72319297102e-06
-1.48520143806e-06
-5.53447098284e-06
1.52576637921e-05
5.0217594932e-05
1.59362849184e-05
4.4244111936e-05
1.7362393824e-05
3.77795018392e-05
1.26632673282e-05
3.26461441678e-05
8.5941350269e-06
2.89380916656e-05
5.70118678544e-06
2.63596207664e-05
3.77852438984e-06
2.45875158813e-05
2.52537318332e-06
2.33734735861e-05
1.7010117111e-06
2.25435248331e-05
1.14996722812e-06
2.19782173519e-05
7.76802700049e-07
2.15955174217e-05
5.22143111158e-07
2.13387454304e-05
3.47928159198e-07
2.11685111388e-05
2.28995227801e-07
2.10573641785e-05
1.48280485853e-07
2.09861911231e-05
9.40072133194e-08
2.09417385612e-05
5.7965690066e-08
2.09148821388e-05
3.44107251644e-08
2.08994146325e-05
1.93226823066e-08
2.08912303076e-05
9.88931938544e-09
2.08874730406e-05
4.14427764602e-09
2.0886470423e-05
6.31260139238e-10
2.08867632015e-05
-1.00172368112e-09
2.08876943982e-05
-1.71354696037e-09
2.08888976881e-05
-1.95398192711e-09
2.08901364364e-05
-1.90926464673e-09
2.08912848745e-05
-1.71861349203e-09
2.08922862886e-05
-1.46909357408e-09
2.08931244541e-05
-1.21119503505e-09
2.08938057334e-05
-9.72052591969e-10
2.08943480203e-05
-7.64494373622e-10
2.08947746324e-05
-5.93402673773e-10
2.08951123632e-05
-4.60739359089e-10
2.08953624229e-05
-3.3896819795e-10
2.08955392702e-05
-2.39981057613e-10
2.0895662523e-05
-1.66066906549e-10
2.08957454769e-05
-1.09196761379e-10
2.0895797729e-05
-6.62960428364e-11
2.08958294556e-05
-3.78639512126e-11
2.08958466539e-05
-1.77971187832e-11
2.08958529004e-05
-2.70462521933e-12
2.08958509755e-05
8.50184426969e-12
2.08958429689e-05
1.67976478311e-11
2.08958304018e-05
2.30015518957e-11
2.08958142931e-05
2.78621837725e-11
2.08957952548e-05
3.20061807567e-11
2.08957736026e-05
3.58974718718e-11
2.0895749421e-05
3.9901670109e-11
2.0895722583e-05
4.4358571455e-11
2.08956928236e-05
4.95124850855e-11
2.0895659839e-05
5.54931178175e-11
2.08956233142e-05
6.24442721792e-11
2.08955830012e-05
7.04384407543e-11
2.08955388012e-05
7.94424048925e-11
2.08954908798e-05
8.92648435715e-11
2.08954398669e-05
9.94480519766e-11
2.08953872289e-05
1.09052580617e-10
2.08953359029e-05
1.16371432073e-10
2.08952911099e-05
1.18758273241e-10
2.08952620072e-05
1.11313864072e-10
2.08952636115e-05
8.64649401277e-11
2.08953217796e-05
2.98622830819e-11
2.08954851388e-05
-8.76230506572e-11
2.0895822662e-05
-2.83305863793e-10
2.08964522454e-05
-6.1484193716e-10
2.08974928331e-05
-1.10130537997e-09
2.08991124395e-05
-1.81453118131e-09
2.09016744629e-05
-2.98683060316e-09
2.09057349784e-05
-4.86746586598e-09
2.09121767617e-05
-7.86993053721e-09
2.0922447041e-05
-1.26805987613e-08
2.09390792191e-05
-2.04789995917e-08
2.09662694585e-05
-3.37181193776e-08
2.1011082717e-05
-5.57175810992e-08
2.10869031048e-05
-9.42210837855e-08
2.1220077245e-05
-1.66744871087e-07
2.14644072101e-05
-3.14280193392e-07
2.19298070446e-05
-6.33778366969e-07
2.28330934348e-05
-1.36306602588e-06
2.45120817648e-05
-3.1641896766e-06
-7.17840300637e-06
2.61560113332e-05
5.35171054143e-05
1.2419179716e-05
5.29349686399e-05
1.79445309522e-05
4.96538404593e-05
1.5944395756e-05
4.58401815784e-05
1.24077940657e-05
4.24400921771e-05
9.10127626856e-06
3.97291717592e-05
6.48944485553e-06
3.76873049612e-05
4.56724003877e-06
3.61976622315e-05
3.19065454286e-06
3.51326125057e-05
2.21501712746e-06
3.43823696743e-05
1.52704576182e-06
3.38606328609e-05
1.04388017186e-06
3.35023595039e-05
7.06201725882e-07
3.32596250956e-05
4.71729757233e-07
3.30976298809e-05
3.10275691155e-07
3.29913945252e-05
2.00242411532e-07
3.29231800119e-05
1.26179915219e-07
3.28805270181e-05
7.70633445767e-08
3.28547852349e-05
4.50640602912e-08
3.28400104139e-05
2.46637556416e-08
3.28321455785e-05
1.20087861401e-08
3.2828333956e-05
4.44263010689e-09
3.2827421888e-05
-8.98402579901e-11
3.2827677656e-05
-1.96945549058e-09
3.28286099765e-05
-2.88642759221e-09
3.28298121593e-05
-3.11157503591e-09
3.28310458875e-05
-2.95247261113e-09
3.28321865468e-05
-2.60987362219e-09
3.28331781159e-05
-2.20285699513e-09
3.28340043127e-05
-1.7983039704e-09
3.28346701859e-05
-1.43039075193e-09
3.28351903136e-05
-1.11354962397e-09
3.28355805668e-05
-8.51045886574e-10
3.28358826468e-05
-6.41165932596e-10
3.28361251551e-05
-4.82677309699e-10
3.28363095493e-05
-3.50695775273e-10
3.28364331585e-05
-2.33040991605e-10
3.2836516424e-05
-1.49743239835e-10
3.28365701351e-05
-9.16635535651e-11
3.28366025692e-05
-5.02174754632e-11
3.28366190763e-05
-1.91215662303e-11
3.28366236279e-05
4.06898611563e-12
3.28366192759e-05
2.12501452903e-11
3.28366084016e-05
3.39352828572e-11
3.2836592685e-05
4.36060179949e-11
3.28365732334e-05
5.14842550361e-11
3.28365507666e-05
5.84231483719e-11
3.28365257037e-05
6.50710152826e-11
3.28364981518e-05
7.20546055313e-11
3.28364680816e-05
7.97348448525e-11
3.28364356131e-05
8.80938156408e-11
3.28364009677e-05
9.71951891884e-11
3.28363645821e-05
1.06919048671e-10
3.28363272802e-05
1.1685767595e-10
3.28362905305e-05
1.26177665889e-10
3.28362568855e-05
1.33321418951e-10
3.28362307011e-05
1.35515092207e-10
3.28362189423e-05
1.28421536901e-10
3.28362317498e-05
1.06219125064e-10
3.28362858746e-05
5.74059850421e-11
3.2836409666e-05
-3.7181543423e-11
3.2836653407e-05
-2.13820065556e-10
3.28371038157e-05
-5.38076083508e-10
3.2837794285e-05
-9.7392976847e-10
3.28388012515e-05
-1.62204815679e-09
3.28403780928e-05
-2.67841082969e-09
3.28429157185e-05
-4.35236070099e-09
3.28469232271e-05
-6.99441304026e-09
3.28532259021e-05
-1.11700832008e-08
3.28631567334e-05
-1.78006439103e-08
3.28789153688e-05
-2.84391649025e-08
3.2904222638e-05
-4.57863378279e-08
3.29445316871e-05
-7.40273905517e-08
3.30098659844e-05
-1.21052193877e-07
3.31175474396e-05
-2.01902856481e-07
3.32972215772e-05
-3.46419261353e-07
3.35982673823e-05
-6.15326212702e-07
3.40938875292e-05
-1.12939879711e-06
3.48536752116e-05
-2.12285385516e-06
3.57449500113e-05
-4.05546315188e-06
-7.28175396138e-06
3.58483058615e-05
5.35105665737e-05
8.90861334745e-06
5.55742226416e-05
1.58808752315e-05
5.52424830317e-05
1.62761356052e-05
5.3597786405e-05
1.40524908494e-05
5.15418479323e-05
1.11572148284e-05
4.958027994e-05
8.45101289725e-06
4.79243508915e-05
6.22316914985e-06
4.66181394793e-05
4.49686606428e-06
4.56304680155e-05
3.20268875802e-06
4.49051217754e-05
2.25239221414e-06
4.43840992812e-05
1.56490289219e-06
4.40167105474e-05
1.07359064733e-06
4.37619950457e-05
7.26445358848e-07
4.3588311951e-05
4.83958762217e-07
4.34719336138e-05
3.1662059137e-07
4.33954510469e-05
2.02662210915e-07
4.33463156197e-05
1.26198426653e-07
4.33156208415e-05
7.57584674118e-08
4.32971355121e-05
4.31487327881e-08
4.32865681701e-05
2.25758271693e-08
4.3281027713e-05
9.98284970261e-09
4.3278283294e-05
2.65439458099e-09
4.32775496666e-05
-1.23598210144e-09
4.3277848947e-05
-3.18585358286e-09
4.32786202092e-05
-3.88298359215e-09
4.32795674599e-05
-3.89986433648e-09
4.32805229252e-05
-3.56545907659e-09
4.32813997181e-05
-3.07973221322e-09
4.32821598928e-05
-2.55851672552e-09
4.32827938785e-05
-2.06438354891e-09
4.32833076151e-05
-1.62729642445e-09
4.32837139802e-05
-1.25746541125e-09
4.32840249942e-05
-9.52307554077e-10
4.32842478e-05
-7.05685649336e-10
4.3284405172e-05
-5.08315584788e-10
4.32845218407e-05
-3.49950041565e-10
4.32845847999e-05
-2.12877461458e-10
4.3284634715e-05
-1.41648910748e-10
4.32846669308e-05
-8.23954745117e-11
4.32846836153e-05
-3.56945164111e-11
4.32846889283e-05
-1.11355266444e-12
4.32846855262e-05
2.47530743633e-11
4.32846756131e-05
4.38990896538e-11
4.32846607168e-05
5.8515522703e-11
4.32846417647e-05
7.04455668854e-11
4.32846193824e-05
8.08457402754e-11
4.32845940004e-05
9.05436311171e-11
4.32845660042e-05
1.00183633054e-10
4.32845357703e-05
1.10116560357e-10
4.32845036376e-05
1.20365797131e-10
4.32844701314e-05
1.30827357029e-10
4.32844361312e-05
1.41044863092e-10
4.32844029969e-05
1.50139881546e-10
4.32843727452e-05
1.5661901524e-10
4.32843482637e-05
1.58036691194e-10
4.32843335636e-05
1.50477741219e-10
4.32843346968e-05
1.27556423764e-10
4.32843629185e-05
7.82441200528e-11
4.3284435136e-05
-1.46115602481e-11
4.32845746611e-05
-1.76572065046e-10
4.32847839262e-05
-4.23036270288e-10
4.32851847974e-05
-9.39007843414e-10
4.32859007529e-05
-1.6900614207e-09
4.32871005509e-05
-2.82210554859e-09
4.32889880164e-05
-4.56614357409e-09
4.32919133584e-05
-7.27788379719e-09
4.32964415765e-05
-1.15226722283e-08
4.33034624415e-05
-1.81908675485e-08
4.3314378732e-05
-2.87168204842e-08
4.33313855851e-05
-4.54459893649e-08
4.33578591938e-05
-7.22600768767e-08
4.33994828279e-05
-1.15651304961e-07
4.34653069223e-05
-1.86876637018e-07
4.35694007993e-05
-3.05997056035e-07
4.37323073615e-05
-5.09326047325e-07
4.39795780593e-05
-8.6259706951e-07
4.43292590747e-05
-1.47908016904e-06
4.47440980197e-05
-2.53769379985e-06
4.49827861124e-05
-4.29415250736e-06
-6.76823053998e-06
4.44692650511e-05
5.27351381423e-05
6.17347540741e-06
5.57309349384e-05
1.28850787851e-05
5.73114749856e-05
1.46955957992e-05
5.76109925707e-05
1.37529734201e-05
5.71335234215e-05
1.16346840706e-05
5.63194689745e-05
9.26506740511e-06
5.54489891016e-05
7.09364909075e-06
5.46629792774e-05
5.28287599607e-06
5.40136851666e-05
3.85198302588e-06
5.350615635e-05
2.75992122524e-06
5.31242644439e-05
1.94679499995e-06
5.28450009161e-05
1.35285433643e-06
5.26454632781e-05
9.25983074023e-07
5.25057508818e-05
6.23671122028e-07
5.24097718845e-05
4.12599434353e-07
5.23450862371e-05
2.67347605277e-07
5.23023739499e-05
1.68910396726e-07
5.22748179188e-05
1.03314158176e-07
5.22575302697e-05
6.04360578033e-08
5.22470638313e-05
3.30419845597e-08
5.22410107155e-05
1.60357340479e-08
5.22377612378e-05
5.90367799311e-09
5.22363119427e-05
2.13136321002e-10
5.22358667574e-05
-2.74084014134e-09
5.22359941449e-05
-4.01053851622e-09
5.22364019647e-05
-4.30783545494e-09
5.22369175376e-05
-4.08114977154e-09
5.22374431411e-05
-3.60540424294e-09
5.22379268607e-05
-3.04225465832e-09
5.2238344853e-05
-2.48236625962e-09
5.22386897907e-05
-1.97223884602e-09
5.22389634402e-05
-1.53117852012e-09
5.22391743249e-05
-1.16334098739e-09
5.22393341244e-05
-8.65713725722e-10
5.22394541039e-05
-6.28564497668e-10
5.22395453424e-05
-4.4143706138e-10
5.22396307443e-05
-2.98444535563e-10
5.22396829966e-05
-1.93946451335e-10
5.22397208628e-05
-1.20193231261e-10
5.22397439198e-05
-5.86141793384e-11
5.22397526307e-05
-9.68023503027e-12
5.22397515444e-05
2.59409622593e-11
5.22397433121e-05
5.21720805068e-11
5.22397298105e-05
7.20113812307e-11
5.22397123354e-05
8.79056179437e-11
5.22396918249e-05
1.01373584013e-10
5.22396693595e-05
1.13083159214e-10
5.22396446013e-05
1.25067914815e-10
5.22396166327e-05
1.38239340207e-10
5.22395867962e-05
1.50361731742e-10
5.2239555662e-05
1.62117823801e-10
5.22395240805e-05
1.72786740193e-10
5.22394933831e-05
1.8101855713e-10
5.22394656081e-05
1.84607074061e-10
5.22394441004e-05
1.79785497533e-10
5.22394356945e-05
1.59139738169e-10
5.22394564183e-05
1.07085650574e-10
5.22395093803e-05
2.55114064519e-11
5.22396160405e-05
-1.21084967563e-10
5.22397779211e-05
-3.38327925187e-10
5.22400769169e-05
-7.21997399421e-10
5.22405559881e-05
-1.41816062763e-09
5.22412777904e-05
-2.41206585457e-09
5.22423772612e-05
-3.92185723594e-09
5.22440583002e-05
-6.24744876337e-09
5.22466245312e-05
-9.84427012388e-09
5.22505314364e-05
-1.54295813236e-08
5.22564770784e-05
-2.41364054586e-08
5.22655346064e-05
-3.77742476818e-08
5.22793490785e-05
-5.92604813902e-08
5.23004295099e-05
-9.334070906e-08
5.23325756611e-05
-1.47797803701e-07
5.23812762434e-05
-2.35577603899e-07
5.2453697018e-05
-3.78418140883e-07
5.25570706664e-05
-6.1269990263e-07
5.26924406663e-05
-9.97967173838e-07
5.28380517952e-05
-1.6246913748e-06
5.29122531574e-05
-2.61189564928e-06
5.27001280855e-05
-4.08202890485e-06
-5.95669213926e-06
5.1888590725e-05
5.19834866435e-05
4.18998896671e-06
5.50586645755e-05
9.80990120225e-06
5.76386141502e-05
1.21156464689e-05
5.93259043551e-05
1.20656833801e-05
6.02280165991e-05
1.0732571928e-05
6.05929280112e-05
8.90015606369e-06
6.06482852693e-05
7.0382919042e-06
6.05531913655e-05
5.37797000104e-06
6.04029576734e-05
4.0022168592e-06
6.02479184925e-05
2.91496057695e-06
6.01107948524e-05
2.08391881177e-06
5.99990379142e-05
1.46461140633e-06
5.99125261747e-05
1.01249486926e-06
5.98479387493e-05
6.8825850478e-07
5.98010408824e-05
4.59497158624e-07
5.9767763377e-05
3.00624884175e-07
5.97446308114e-05
1.92042679688e-07
5.97288628688e-05
1.19081796618e-07
5.97183272483e-05
7.09713855443e-08
5.97114355002e-05
3.99334707e-08
5.97070326497e-05
2.04383542323e-08
5.97043182027e-05
8.61791374872e-09
5.97027282407e-05
1.80289405056e-09
5.97018449956e-05
-1.85779515483e-09
5.970140912e-05
-3.57485093146e-09
5.970124237e-05
-4.14124474957e-09
5.97012288638e-05
-4.06775438376e-09
5.97012954121e-05
-3.67200188083e-09
5.97013976182e-05
-3.14445627448e-09
5.97015095569e-05
-2.5942795021e-09
5.97016168736e-05
-2.07955907643e-09
5.97017126919e-05
-1.62707449057e-09
5.97017948126e-05
-1.24563512574e-09
5.9701864439e-05
-9.35595119037e-10
5.97019229468e-05
-6.87359860509e-10
5.97019711098e-05
-4.89849803635e-10
5.97020069214e-05
-3.34403125499e-10
5.97020298363e-05
-2.16875159433e-10
5.97020368007e-05
-1.27055144087e-10
5.97020275769e-05
-4.92275962344e-11
5.97020196989e-05
-1.64612855529e-12
5.97020093558e-05
3.63831504098e-11
5.97019983574e-05
6.31948051888e-11
5.9701985926e-05
8.44098149533e-11
5.9701970779e-05
1.03007351791e-10
5.97019526331e-05
1.19512331877e-10
5.97019310897e-05
1.3468664164e-10
5.97019071964e-05
1.49086768886e-10
5.97018826518e-05
1.62953132512e-10
5.97018570684e-05
1.76132320023e-10
5.97018312739e-05
1.88102455939e-10
5.97018065463e-05
1.97708232746e-10
5.9701784667e-05
2.03104946017e-10
5.97017678608e-05
2.01638187086e-10
5.97017580736e-05
1.89812147334e-10
5.97017537109e-05
1.63746519934e-10
5.97017422869e-05
1.1874300276e-10
5.97017505205e-05
1.74871849488e-11
5.97017749604e-05
-1.45352293365e-10
5.97019289046e-05
-4.92160937468e-10
5.97021956316e-05
-9.88708920692e-10
5.97025422547e-05
-1.76489302132e-09
5.97030667249e-05
-2.93676588325e-09
5.9703853412e-05
-4.70883402012e-09
5.9705014582e-05
-7.40886718957e-09
5.97067139318e-05
-1.15437369306e-08
5.97091884603e-05
-1.79040727491e-08
5.97127811353e-05
-2.77289611944e-08
5.97179833441e-05
-4.29763818485e-08
5.97254832863e-05
-6.67605044578e-08
5.97362020667e-05
-1.04059756161e-07
5.97512255532e-05
-1.62821684401e-07
5.97714337647e-05
-2.55786217487e-07
5.9796296609e-05
-4.03281310917e-07
5.98207138162e-05
-6.37117359982e-07
5.9827772033e-05
-1.00502561515e-06
5.97750396316e-05
-1.5719591057e-06
5.95732392857e-05
-2.41009552232e-06
5.90610183405e-05
-3.56980916338e-06
-4.96619130064e-06
5.80705178228e-05
5.14373055794e-05
2.7526835917e-06
5.42658212815e-05
6.98138585577e-06
5.72496444016e-05
9.13182360092e-06
5.97900291742e-05
9.52529878408e-06
6.1720130054e-05
8.80247116094e-06
6.30883053751e-05
7.53198082171e-06
6.40167192929e-05
6.10987805897e-06
6.46292393954e-05
4.76544999038e-06
6.50258065063e-05
3.60564986977e-06
6.52790809135e-05
2.66168631289e-06
6.54389752297e-05
1.92402463434e-06
6.55386904594e-05
1.36489627952e-06
6.55999261813e-05
9.51259186487e-07
6.56367365975e-05
6.51448046969e-07
6.56581813526e-05
4.3805227929e-07
6.56700809597e-05
2.88725081129e-07
6.5676159053e-05
1.85964340575e-07
6.56787815269e-05
1.16459055428e-07
6.56794354067e-05
7.0317241918e-08
6.56790399794e-05
4.03286493189e-08
6.56781508877e-05
2.13272088125e-08
6.56770963425e-05
9.6722248435e-09
6.56760616608e-05
2.83734117324e-09
6.56751277456e-05
-9.24108379518e-10
6.56743322634e-05
-2.77957534735e-09
6.567367771e-05
-3.48685422027e-09
6.567315367e-05
-3.5438122054e-09
6.56727431004e-05
-3.26145725928e-09
6.5672427349e-05
-2.82867564594e-09
6.56721885676e-05
-2.35545916906e-09
6.56720108161e-05
-1.90181422598e-09
6.56718805407e-05
-1.49689604774e-09
6.56717863785e-05
-1.15167528311e-09
6.56717174345e-05
-8.66934626098e-10
6.56716663944e-05
-6.36623381695e-10
6.56716289681e-05
-4.52669163087e-10
6.56716012459e-05
-3.06804829252e-10
6.56715768214e-05
-1.92430182092e-10
6.56715563879e-05
-1.06485150782e-10
6.5671551544e-05
-4.41962908876e-11
6.56715514183e-05
-1.35399506257e-12
6.56715449666e-05
4.29267018326e-11
6.56715342447e-05
7.39169430493e-11
6.56715208488e-05
9.77395868749e-11
6.56715058305e-05
1.17949572848e-10
6.56714891733e-05
1.36141699572e-10
6.56714706422e-05
1.53270051315e-10
6.56714500906e-05
1.69769035108e-10
6.56714291712e-05
1.84057973261e-10
6.56714076691e-05
1.97847461266e-10
6.56713850849e-05
2.10909738629e-10
6.56713620019e-05
2.21018418904e-10
6.56713393694e-05
2.25966726332e-10
6.56713186043e-05
2.22633376271e-10
6.56713020628e-05
2.06584262442e-10
6.56712945268e-05
1.71508717372e-10
6.56713032134e-05
1.10269920673e-10
6.56713050716e-05
1.5823280525e-11
6.56713641732e-05
-2.04293771086e-10
6.56714326549e-05
-5.60548019494e-10
6.56715470237e-05
-1.10308903945e-09
6.56717136009e-05
-1.93161302475e-09
6.56719446396e-05
-3.16805717362e-09
6.56722540981e-05
-5.01857776667e-09
6.56726493264e-05
-7.80430614462e-09
6.56731236293e-05
-1.20180954569e-08
6.56736406602e-05
-1.84210158517e-08
6.56741036556e-05
-2.81918317914e-08
6.56742972595e-05
-4.3169962186e-08
6.56737760186e-05
-6.62394340844e-08
6.56716549241e-05
-1.01939034627e-07
6.56661472703e-05
-1.57314502975e-07
6.56536417407e-05
-2.43281099855e-07
6.56268773955e-05
-3.76517230759e-07
6.55714458551e-05
-5.81686013155e-07
6.5459592538e-05
-8.93172570158e-07
6.52410824484e-05
-1.35344931399e-06
6.48337372854e-05
-2.00275054672e-06
6.41210821647e-05
-2.85715493124e-06
-3.85119856639e-06
6.30060894081e-05
5.10850426027e-05
1.66764119551e-06
5.36118453617e-05
4.45458346199e-06
5.66873178492e-05
6.05635137791e-06
5.96894484366e-05
6.52316838655e-06
6.22997296097e-05
6.19219011466e-06
6.44136916812e-05
5.41801883807e-06
6.60471881789e-05
4.47638163381e-06
6.72686197466e-05
3.54401850363e-06
6.81598981716e-05
2.71437154293e-06
6.87977630904e-05
2.02382150497e-06
6.92467441331e-05
1.47504369443e-06
6.95579572583e-05
1.05368322726e-06
6.97704150205e-05
7.38801447589e-07
6.99131450697e-05
5.08717958029e-07
7.00073381607e-05
3.4385908216e-07
7.00682238579e-05
2.2783921837e-07
7.01065954527e-05
1.47592537519e-07
7.01300002451e-05
9.3054033204e-08
7.0143644558e-05
5.66726932898e-08
7.01510686398e-05
3.29043292046e-08
7.01546423531e-05
1.77532491607e-08
7.01559255359e-05
8.38878415759e-09
7.01559262538e-05
2.83635934363e-09
7.01552653711e-05
-2.63480472008e-10
7.01543284451e-05
-1.84287152761e-09
7.01533305889e-05
-2.48916014833e-09
7.0152389476e-05
-2.60278094471e-09
7.01515602986e-05
-2.43228219379e-09
7.01508615704e-05
-2.12990084142e-09
7.01502914325e-05
-1.78527890346e-09
7.01498377168e-05
-1.44811823411e-09
7.01494839451e-05
-1.14324773042e-09
7.01492127394e-05
-8.80703549989e-10
7.01490075376e-05
-6.62041829753e-10
7.01488544972e-05
-4.83895469264e-10
7.01487424757e-05
-3.40880415098e-10
7.01486629569e-05
-2.27378434315e-10
7.01486096397e-05
-1.39052881206e-10
7.01485746585e-05
-7.13321929216e-11
7.01485436026e-05
-1.29313699792e-11
7.01485154645e-05
2.69516539626e-11
7.01485002534e-05
5.82094150743e-11
7.01484891833e-05
8.49511223922e-11
7.01484791484e-05
1.07669180833e-10
7.01484691273e-05
1.278660789e-10
7.01484586048e-05
1.46625231856e-10
7.014844735e-05
1.64582859501e-10
7.01484352739e-05
1.81993884943e-10
7.01484208293e-05
1.98713799005e-10
7.01484044624e-05
2.14458918286e-10
7.01483872664e-05
2.28363296488e-10
7.01483697697e-05
2.38771054508e-10
7.01483526644e-05
2.43315711705e-10
7.0148336715e-05
2.38812528854e-10
7.01483222894e-05
2.21227482804e-10
7.01483081176e-05
1.85885775414e-10
7.0148290176e-05
1.28405499553e-10
7.01482793017e-05
2.68768362631e-11
7.01482587476e-05
-1.83594524164e-10
7.01482562545e-05
-5.57980307359e-10
7.01482498748e-05
-1.09674769034e-09
7.0148214467e-05
-1.89637469925e-09
7.01481194409e-05
-3.07329667623e-09
7.01479077764e-05
-4.8071807264e-09
7.01474748172e-05
-7.37150209455e-09
7.0146638415e-05
-1.118168108e-08
7.01450863797e-05
-1.68688473532e-08
7.01422848619e-05
-2.53901889171e-08
7.01373279684e-05
-3.82130949422e-08
7.01286905974e-05
-5.76023239308e-08
7.01138416876e-05
-8.70905642429e-08
7.00884915259e-05
-1.31964809678e-07
7.00453601702e-05
-2.00150113439e-07
6.99721673986e-05
-3.03324650796e-07
6.98484223057e-05
-4.5794103267e-07
6.96407739044e-05
-6.85524391011e-07
6.92977485551e-05
-1.01042435036e-06
6.87471659327e-05
-1.4521681974e-06
6.7902206254e-05
-2.01219592282e-06
-2.64752815798e-06
6.66985356747e-05
5.08804134668e-05
7.87227939627e-07
5.31704670645e-05
2.16453024255e-06
5.62177512645e-05
3.00906745528e-06
5.94382719478e-05
3.30264790754e-06
6.24449724352e-05
3.18548976756e-06
6.50382564175e-05
2.82473495032e-06
6.71548702702e-05
2.35976785135e-06
6.88135684662e-05
1.88532037407e-06
7.00731731247e-05
1.45476695602e-06
7.10056670501e-05
1.09132765534e-06
7.16812577559e-05
7.99453056583e-07
7.2161407934e-05
5.73533096281e-07
7.24965748852e-05
4.03634509121e-07
7.2726431353e-05
2.78861457754e-07
7.28812027059e-05
1.89087646699e-07
7.2983356203e-05
1.25685591857e-07
7.3049253934e-05
8.16946409219e-08
7.30905994254e-05
5.17083520896e-08
7.31156258269e-05
3.16460827194e-08
7.3130032012e-05
1.8497912213e-08
7.31376983307e-05
1.00866709973e-08
7.3141221865e-05
4.86496566466e-09
7.31423086647e-05
1.74926483355e-09
7.31420429267e-05
1.9766151621e-12
7.3141110647e-05
-9.1082678153e-10
7.31399151717e-05
-1.29384280302e-09
7.31386898298e-05
-1.37750305532e-09
7.31375565099e-05
-1.29894339209e-09
7.31365697797e-05
-1.14310957201e-09
7.31357450118e-05
-9.60467441044e-10
7.31350761836e-05
-7.79323596426e-10
7.31345465934e-05
-6.13806010869e-10
7.31341355942e-05
-4.6996656928e-10
7.31338222948e-05
-3.49071367267e-10
7.31335876862e-05
-2.496015052e-10
7.31334153934e-05
-1.68801750138e-10
7.31332915611e-05
-1.03604341913e-10
7.3133203572e-05
-5.09659367021e-11
7.3133137638e-05
-5.19797586273e-12
7.31330983448e-05
2.6580412586e-11
7.31330716099e-05
5.38414825919e-11
7.31330524599e-05
7.73987865561e-11
7.31330390971e-05
9.8238325501e-11
7.31330293021e-05
1.17327410424e-10
7.31330214273e-05
1.35621697591e-10
7.31330142935e-05
1.53722557127e-10
7.31330070423e-05
1.71906505151e-10
7.31329990637e-05
1.90142975355e-10
7.31329899709e-05
2.08044431939e-10
7.31329795943e-05
2.25108345251e-10
7.3132967879e-05
2.40357765097e-10
7.31329548127e-05
2.52101806917e-10
7.31329403991e-05
2.57970179837e-10
7.31329246438e-05
2.54785425519e-10
7.3132907652e-05
2.38416178537e-10
7.31328899099e-05
2.03810794748e-10
7.31328727061e-05
1.45786032626e-10
7.31328429035e-05
5.68452991773e-11
7.31327902681e-05
-1.30827663014e-10
7.31327070245e-05
-4.74681310552e-10
7.31325697982e-05
-9.5958461357e-10
7.31323344675e-05
-1.66123473407e-09
7.31319296525e-05
-2.668745203e-09
7.31312355968e-05
-4.11335127061e-09
7.31300514197e-05
-6.18741392926e-09
7.31280474506e-05
-9.17763531434e-09
7.31246848049e-05
-1.3506033168e-08
7.31190742351e-05
-1.97795084317e-08
7.31097567592e-05
-2.88957106036e-08
7.30943673588e-05
-4.22132628287e-08
7.30691375456e-05
-6.18612419826e-08
7.30279669458e-05
-9.07946629226e-08
7.2961065031e-05
-1.33248509475e-07
7.28529763642e-05
-1.9523611155e-07
7.26798123011e-05
-2.84777016666e-07
7.24058925815e-05
-4.1160484397e-07
7.19809601648e-05
-5.85492368017e-07
7.13408612149e-05
-8.12069633285e-07
7.04156567288e-05
-1.08699199192e-06
-1.38659938444e-06
6.91547277366e-05
5.07871729017e-05
5.52540290194e-11
5.29516507981e-05
5.27389562785e-11
5.59606900949e-05
2.8448431561e-11
5.9263324282e-05
1.3940419139e-11
6.24488115503e-05
2.65286615421e-12
6.5273552637e-05
-6.0353705498e-12
6.76333323409e-05
-1.17853152491e-11
6.95186673544e-05
-1.45892525142e-11
7.09734492528e-05
-1.48985550942e-11
7.20647902669e-05
-1.3317570904e-11
7.28642538426e-05
-1.04833549832e-11
7.3437794011e-05
-7.04771317754e-12
7.38414321862e-05
-3.66167673501e-12
7.41202945889e-05
-9.68903519309e-13
7.43093816521e-05
5.25807524288e-13
7.44350668291e-05
3.2330687441e-13
7.45167630817e-05
-1.73411291962e-12
7.45684767332e-05
-5.45174107776e-12
7.46001328406e-05
-1.0211748757e-11
7.46186456101e-05
-1.50874542352e-11
7.46287510105e-05
-1.9005308514e-11
7.4633636563e-05
-2.08990181845e-11
7.46354058008e-05
-2.02985936976e-11
7.46354249444e-05
-1.74715168128e-11
7.46345303823e-05
-1.65085315116e-11
7.46332503095e-05
-1.39201765627e-11
7.46318835255e-05
-1.07645590447e-11
7.46305917455e-05
-7.12442210054e-12
7.46294515015e-05
-2.79173793783e-12
7.46284890829e-05
1.99442669488e-12
7.46277030347e-05
6.6765357876e-12
7.46270770614e-05
1.19941856915e-11
7.46265890829e-05
1.77243758294e-11
7.46262158204e-05
2.38472153989e-11
7.46259354105e-05
3.0498142124e-11
7.46257285619e-05
3.78573971151e-11
7.46255788696e-05
4.60658797215e-11
7.4625472866e-05
5.51683493698e-11
7.46254026945e-05
6.51909012002e-11
7.46253541993e-05
7.52891895887e-11
7.46253223677e-05
8.5800482346e-11
7.46253023262e-05
9.74387479483e-11
7.4625290212e-05
1.1023956739e-10
7.46252831514e-05
1.2423163031e-10
7.46252791319e-05
1.39523406007e-10
7.46252767274e-05
1.56106201668e-10
7.46252749089e-05
1.73820224542e-10
7.46252729145e-05
1.92334474699e-10
7.46252701319e-05
2.11092514502e-10
7.46252661642e-05
2.29370670752e-10
7.46252607463e-05
2.46064383156e-10
7.46252535823e-05
2.59528173441e-10
7.46252442486e-05
2.67534335052e-10
7.46252320605e-05
2.67173223749e-10
7.46252158696e-05
2.54782078002e-10
7.4625193845e-05
2.25998335118e-10
7.46251638157e-05
1.7597570502e-10
7.46251196202e-05
1.01193052803e-10
7.4625034389e-05
-4.5480386642e-11
7.46248869007e-05
-3.27160668303e-10
7.46246502138e-05
-7.2298691184e-10
7.46242605852e-05
-1.2718087757e-09
7.46236193679e-05
-2.02776968465e-09
7.46225642866e-05
-3.05844026101e-09
7.46208306078e-05
-4.45374782165e-09
7.46179965985e-05
-6.34348502224e-09
7.46133873211e-05
-8.89657253193e-09
7.46058981478e-05
-1.22902687057e-08
7.45937333109e-05
-1.6731052354e-08
7.45740188422e-05
-2.24992058536e-08
7.45423317236e-05
-3.01746295761e-08
7.44916368383e-05
-4.01001978098e-08
7.44108937348e-05
-5.25056027499e-08
7.42832079889e-05
-6.75504004276e-08
7.40833878931e-05
-8.49569311729e-08
7.37753138106e-05
-1.0353092607e-07
7.33102850979e-05
-1.20464113359e-07
7.26287486172e-05
-1.30533618546e-07
7.16682617317e-05
-1.26505582258e-07
-9.97550665928e-08
7.03814172261e-05
5.07871718915e-05
-7.87116412946e-07
5.29516499761e-05