/*--------------------------------*- C++ -*----------------------------------*\
| =========                 |                                                 |
| \\      /  F ield         | OpenFOAM: The Open Source CFD Toolbox           |
|  \\    /   O peration     | Version:  2106                                  |
|   \\  /    A nd           | Website:  www.openfoam.com                      |
|    \\/     M anipulation  |                                                 |
\*---------------------------------------------------------------------------*/
FoamFile
{
    version     2.0;
    format      ascii;
    arch        "LSB;label=32;scalar=64";
    class       surfaceScalarField;
    location    "0.041";
    object      phi;
}
// * * * * * * * * * * * * * * * * * * * * * * * * * * * * * * * * * * * * * //

dimensions      [0 3 -1 0 0 0 0];

oriented        oriented;

internalField   nonuniform List<scalar> 
799
(
1.89937e-32
4.79794e-32
6.23219e-32
5.26268e-32
2.85256e-32
-3.71599e-32
-9.55893e-32
-1.40521e-31
-1.49631e-31
-1.10943e-31
-5.4227e-32
8.95219e-33
4.8315e-32
5.89305e-32
3.81971e-32
-1.9927e-34
-5.02818e-32
-1.01847e-31
-1.41051e-31
-1.67928e-31
-1.58682e-31
-1.21487e-31
-5.92314e-32
1.26013e-32
5.4236e-32
6.43541e-32
2.36852e-32
-4.59725e-32
-1.1133e-31
-1.63019e-31
-1.65e-31
-1.36855e-31
-8.97077e-32
-3.38779e-32
-8.23904e-33
3.55947e-33
-1.29496e-32
-5.01908e-32
-7.94431e-32
-1.15541e-31
-1.2394e-31
-1.10911e-31
-8.69226e-32
-3.97118e-32
-1.39937e-32
-3.23421e-33
-1.87033e-32
-6.72426e-32
-1.06794e-31
-1.42704e-31
-1.44277e-31
-1.10092e-31
-6.65863e-32
-1.19722e-32
1.27397e-32
6.86667e-33
-2.59639e-32
-8.47973e-32
-1.29959e-31
-1.54878e-31
-1.41497e-31
-8.81459e-32
-2.58552e-32
2.92529e-32
4.2232e-32
1.6393e-33
-7.20208e-32
-1.55411e-31
-2.00721e-31
-1.83093e-31
-1.1161e-31
-9.7598e-33
6.67805e-32
8.34078e-32
3.64257e-32
-5.72531e-32
-1.43659e-31
-1.8819e-31
-1.76578e-31
-1.17221e-31
-5.08705e-32
-1.7544e-33
1.37204e-32
-1.17662e-33
-2.51891e-32
-5.10266e-32
-7.05011e-32
-8.85394e-32
-1.08743e-31
-1.20911e-31
-1.18853e-31
-8.76449e-32
-3.50092e-32
1.84724e-32
5.12027e-32
3.23737e-32
-2.61642e-32
-1.07891e-31
-1.77204e-31
-1.90521e-31
-1.552e-31
-6.93831e-32
2.1485e-32
7.47562e-32
8.38269e-32
2.59184e-32
-5.33071e-32
-1.27059e-31
-1.70955e-31
-1.53921e-31
-1.1005e-31
-4.72589e-32
-5.88311e-34
8.01367e-33
-3.41081e-33
-3.40167e-32
-5.08491e-32
-4.83444e-32
-3.56e-32
-2.17023e-32
-3.16192e-32
-6.21089e-32
-1.03638e-31
-1.34456e-31
-1.33032e-31
-9.83548e-32
-3.89813e-32
2.04826e-32
5.82975e-32
6.36589e-32
3.37132e-32
-1.86665e-32
-7.96297e-32
-1.3496e-31
-1.66835e-31
-1.69582e-31
-1.35877e-31
-7.17514e-32
1.97608e-33
6.67395e-32
9.20117e-32
6.94316e-32
6.2068e-33
-7.80079e-32
-1.42871e-31
-1.69393e-31
-1.45925e-31
-8.57099e-32
-2.30152e-32
2.02569e-32
2.09974e-32
-1.36199e-32
-6.06695e-32
-9.78132e-32
-9.83902e-32
-6.55448e-32
-1.47962e-32
2.68712e-32
2.96292e-32
-1.04662e-32
-8.1635e-32
-1.4853e-31
-1.75527e-31
-1.44681e-31
-6.45504e-32
2.47445e-32
8.27676e-32
7.47825e-32
8.20627e-33
-8.18325e-32
-1.52682e-31
-1.59663e-31
-1.13358e-31
-3.59796e-32
2.66139e-32
3.29349e-32
-3.13152e-33
-7.21095e-32
-1.21818e-31
-1.24092e-31
-8.79691e-32
-1.71282e-32
3.21931e-32
4.54872e-32
1.62591e-32
-5.12689e-32
-1.07402e-31
-1.44036e-31
-1.36538e-31
-8.96761e-32
-3.45554e-32
2.11374e-32
4.39052e-32
3.50801e-32
3.2154e-33
-4.56701e-32
-8.36428e-32
-1.0827e-31
-1.12485e-31
-9.53463e-32
-6.94049e-32
-3.45306e-32
-1.46732e-33
2.02915e-32
2.6726e-32
7.36113e-33
-3.25278e-32
-7.91016e-32
-1.15905e-31
-1.19227e-31
-8.5421e-32
-2.75259e-32
2.94712e-32
5.02954e-32
2.15943e-32
-4.64315e-32
-1.21931e-31
-1.59404e-31
-1.33623e-31
-5.12388e-32
5.14788e-32
1.18037e-31
1.07994e-31
2.13274e-32
-1.07896e-31
-2.12758e-31
-2.3784e-31
-1.70972e-31
-3.48992e-32
9.89221e-32
1.67177e-31
1.41931e-31
2.82409e-32
-1.08512e-31
-2.0875e-31
-2.30528e-31
-1.61345e-31
-4.94099e-32
5.94089e-32
1.16561e-31
9.77887e-32
2.7686e-32
-6.47116e-32
-1.34305e-31
-1.52404e-31
-1.21794e-31
-5.95157e-32
1.09838e-34
2.80479e-32
1.48658e-32
-2.52086e-32
-6.80305e-32
-8.30956e-32
-5.96978e-32
-1.66713e-32
2.39692e-32
2.61144e-32
-1.77313e-32
-8.30001e-32
-1.41969e-31
-1.51083e-31
-1.02623e-31
-2.24551e-32
5.68183e-32
8.8346e-32
5.9761e-32
-6.49936e-33
-8.28541e-32
-1.2728e-31
-1.2544e-31
-9.50221e-32
-4.86454e-32
-1.7059e-32
-7.13572e-33
-4.89608e-33
-1.30982e-32
-1.3571e-32
-1.3316e-32
-2.20669e-32
-2.96626e-32
-4.39623e-32
-4.85756e-32
-4.18047e-32
-3.50417e-32
-2.92794e-32
-3.78496e-32
-4.9853e-32
-4.89305e-32
-2.33007e-32
2.87246e-32
8.34249e-32
1.09616e-31
8.28707e-32
1.07596e-32
-7.48881e-32
-1.22429e-31
-9.69254e-32
-4.85695e-33
1.20241e-31
2.12165e-31
2.32628e-31
1.79113e-31
8.38532e-32
1.43091e-32
4.93858e-33
6.75238e-32
1.71414e-31
2.60957e-31
3.10073e-31
3.04949e-31
2.7653e-31
2.64075e-31
2.8556e-31
3.4993e-31
4.2532e-31
4.86557e-31
5.21529e-31
5.29816e-31
5.45366e-31
5.85886e-31
6.62717e-31
7.69841e-31
8.72439e-31
9.56656e-31
1.00813e-30
1.03864e-30
1.08346e-30
1.15724e-30
1.28248e-30
1.4433e-30
1.60786e-30
1.75653e-30
1.85718e-30
1.92783e-30
1.99351e-30
2.08492e-30
2.24455e-30
2.46046e-30
2.71984e-30
2.97929e-30
3.18633e-30
3.32643e-30
3.40255e-30
3.41817e-30
3.59213e-30
3.87398e-30
4.98148e-30
7.15152e-30
1.05135e-29
1.71362e-29
1.95655e-29
2.20992e-29
4.77451e-30
-3.82283e-29
-8.98514e-29
-1.95689e-28
-1.8657e-28
-1.26013e-28
1.61776e-28
8.05781e-28
1.17093e-27
1.8132e-27
1.05139e-27
-7.66686e-28
-3.04217e-27
-7.54876e-27
-7.21933e-27
-5.93718e-27
1.74201e-27
1.68699e-26
2.26613e-26
3.30419e-26
1.66413e-26
-1.36183e-26
-4.10147e-26
-9.05032e-26
-7.13302e-26
-4.22027e-26
3.15621e-26
1.54617e-25
1.62727e-25
1.91989e-25
5.43026e-26
-1.45609e-25
-2.41571e-25
-4.1572e-25
-2.36533e-25
-3.16524e-26
2.19145e-25
5.89186e-25
4.55147e-25
3.83025e-25
-3.70935e-26
-5.44011e-25
-5.80059e-25
-7.54261e-25
-2.54588e-25
2.23618e-25
5.06838e-25
9.15283e-25
5.06849e-25
2.23634e-25
-2.54574e-25
-7.54257e-25
-5.80064e-25
-5.44024e-25
-3.71075e-26
3.83016e-25
4.55145e-25
5.8919e-25
2.19153e-25
-3.16466e-26
-2.36531e-25
-4.15722e-25
-2.41576e-25
-1.45613e-25
5.42991e-26
1.91988e-25
1.62727e-25
1.54617e-25
3.15626e-26
-4.22028e-26
-7.13307e-26
-9.05037e-26
-4.10155e-26
-1.36189e-26
1.66405e-26
3.30412e-26
2.26606e-26
1.68691e-26
1.74148e-27
-5.93762e-27
-7.21968e-27
-7.54905e-27
-3.04249e-27
-7.67016e-28
1.051e-27
1.81278e-27
1.1705e-27
8.05373e-28
1.6144e-28
-1.26268e-28
-1.86725e-28
-1.95778e-28
-8.99405e-29
-3.83633e-29
4.53215e-30
2.17725e-29
1.92042e-29
1.68138e-29
1.03164e-29
7.08823e-30
5.03533e-30
3.97227e-30
3.64647e-30
3.38441e-30
3.25445e-30
3.09842e-30
2.93859e-30
2.76603e-30
2.60004e-30
2.44963e-30
2.32865e-30
2.22926e-30
2.12783e-30
2.00322e-30
1.84095e-30
1.64993e-30
1.46557e-30
1.31473e-30
1.22397e-30
1.18636e-30
1.17238e-30
1.15613e-30
1.10162e-30
1.01091e-30
8.91601e-31
7.64053e-31
6.59772e-31
5.84681e-31
5.5243e-31
5.51627e-31
5.62429e-31
5.67746e-31
5.40533e-31
4.76076e-31
3.84325e-31
2.87821e-31
2.20847e-31
2.05892e-31
2.36715e-31
2.94722e-31
3.36749e-31
3.27817e-31
2.68971e-31
1.66956e-31
7.30243e-32
2.34241e-32
2.86926e-32
9.35367e-32
1.66094e-31
2.1561e-31
2.14761e-31
1.50556e-31
6.25596e-32
-2.36047e-32
-6.62956e-32
-4.37878e-32
2.57969e-32
1.18394e-31
1.84719e-31
1.87969e-31
1.22853e-31
9.55141e-33
-1.01649e-31
-1.55657e-31
-1.27737e-31
-2.59662e-32
1.02665e-31
1.93056e-31
2.06008e-31
1.32173e-31
1.01036e-32
-1.02493e-31
-1.5766e-31
-1.34484e-31
-5.56925e-32
4.12585e-32
1.08305e-31
1.25665e-31
9.41238e-32
3.20088e-32
-2.44849e-32
-6.38732e-32
-6.66727e-32
-4.30936e-32
-7.95725e-33
3.03898e-32
4.28369e-32
3.98743e-32
1.4944e-32
-1.52703e-32
-2.49901e-32
-2.388e-32
5.76425e-33
3.20556e-32
3.89083e-32
2.77552e-32
-1.71513e-32
-5.23255e-32
-6.87008e-32
-5.43601e-32
-2.40967e-33
4.31728e-32
7.52333e-32
7.16213e-32
3.35061e-32
-5.50997e-33
-4.07981e-32
-5.13001e-32
-4.50638e-32
-4.21816e-32
-3.82568e-32
-4.00277e-32
-2.66955e-32
1.51047e-32
6.86878e-32
1.19502e-31
1.23106e-31
6.09181e-32
-4.59349e-32
-1.65311e-31
-2.23316e-31
-1.86623e-31
-6.38948e-32
1.06858e-31
2.2918e-31
2.52712e-31
1.57602e-31
-2.53698e-32
-1.9494e-31
-2.88214e-31
-2.50673e-31
-9.70759e-32
8.65766e-32
2.32812e-31
2.58716e-31
1.60993e-31
-3.8402e-33
-1.72046e-31
-2.47921e-31
-2.14127e-31
-9.30442e-32
6.24212e-32
1.63205e-31
1.859e-31
1.23193e-31
1.23229e-32
-8.20476e-32
-1.40065e-31
-1.36325e-31
-9.19112e-32
-3.63369e-32
2.11792e-32
5.36537e-32
7.11789e-32
7.03416e-32
4.97057e-32
2.20173e-32
-1.91984e-32
-5.50083e-32
-8.0856e-32
-8.99646e-32
-7.62228e-32
-4.99267e-32
-1.05558e-32
2.68667e-32
5.93021e-32
7.46636e-32
6.67485e-32
3.91536e-32
-1.11956e-32
-5.71866e-32
-9.41825e-32
-1.03886e-31
-8.00209e-32
-4.44017e-32
6.92357e-33
4.2339e-32
5.99085e-32
6.21173e-32
3.63843e-32
8.78405e-33
-2.8892e-32
-6.23482e-32
-7.69018e-32
-8.01819e-32
-5.44167e-32
-1.74829e-32
2.16186e-32
5.31045e-32
5.62454e-32
4.03624e-32
5.05858e-33
-3.3776e-32
-6.04324e-32
-7.16446e-32
-5.98449e-32
-3.38964e-32
-1.51131e-33
2.62017e-32
3.94515e-32
3.36037e-32
1.3307e-32
-1.15466e-32
-3.06223e-32
-3.0863e-32
-2.23218e-32
-8.56497e-33
-4.18288e-33
-1.7198e-32
-2.82766e-32
-3.51693e-32
-1.50433e-32
2.43421e-32
5.76876e-32
7.18161e-32
3.72126e-32
-2.41841e-32
-8.64381e-32
-1.16568e-31
-8.44061e-32
-1.35582e-32
7.12203e-32
1.1963e-31
1.05414e-31
4.11698e-32
-4.83243e-32
-1.06962e-31
-1.12364e-31
-6.2018e-32
1.81872e-32
7.78151e-32
9.56555e-32
5.82259e-32
-7.89782e-33
-6.27943e-32
-8.34216e-32
-5.13862e-32
7.83478e-33
6.32457e-32
8.78386e-32
6.05487e-32
2.45575e-33
-6.18135e-32
-1.01319e-31
-9.03502e-32
-4.10031e-32
3.03048e-32
9.27997e-32
1.15143e-31
9.73166e-32
4.11856e-32
-3.05651e-32
-8.68053e-32
-1.17961e-31
-1.06971e-31
-6.11144e-32
1.41802e-33
7.05658e-32
1.15704e-31
1.27771e-31
1.00379e-31
3.32208e-32
-4.50382e-32
-1.15557e-31
-1.46694e-31
-1.21373e-31
-5.01223e-32
4.84206e-32
1.29173e-31
1.59094e-31
1.2476e-31
3.60453e-32
-6.39695e-32
-1.32621e-31
-1.38682e-31
-7.86087e-32
1.54438e-32
9.97815e-32
1.35506e-31
1.04862e-31
2.88769e-32
-5.59122e-32
-1.08732e-31
-1.00026e-31
-4.2955e-32
3.93168e-32
1.0446e-31
1.16453e-31
8.21214e-32
8.01367e-33
-6.05742e-32
-8.91879e-32
-7.66294e-32
-1.44084e-32
5.05185e-32
9.33414e-32
1.01841e-31
5.93894e-32
8.20476e-33
-4.01172e-32
-6.2507e-32
-4.29151e-32
-9.78463e-33
3.53371e-32
6.61316e-32
7.17702e-32
6.37152e-32
3.94013e-32
1.74968e-32
4.53346e-33
-2.56991e-33
-3.87067e-34
2.21731e-33
5.83798e-34
1.94453e-33
2.26071e-33
1.22898e-32
3.53604e-32
5.95428e-32
8.8984e-32
9.78468e-32
8.41916e-32
4.94001e-32
-8.32194e-33
-5.16104e-32
-7.70458e-32
-6.17949e-32
-7.88804e-33
5.66912e-32
1.20437e-31
1.44452e-31
1.29732e-31
7.84042e-32
1.52502e-32
-3.32632e-32
-5.32715e-32
-3.14694e-32
-2.33218e-34
4.90947e-32
7.00512e-32
7.12609e-32
6.48226e-32
2.05891e-32
1.17798e-32
-2.01064e-32
-2.57255e-32
-5.21644e-33
)
;

boundaryField
{
    left
    {
        type            calculated;
        value           uniform 0;
    }
    right
    {
        type            calculated;
        value           uniform 0;
    }
    empty
    {
        type            empty;
        value           nonuniform List<scalar> 0();
    }
}


// ************************************************************************* //
