/*--------------------------------*- C++ -*----------------------------------*\
| =========                 |                                                 |
| \\      /  F ield         | OpenFOAM: The Open Source CFD Toolbox           |
|  \\    /   O peration     | Version:  2106                                  |
|   \\  /    A nd           | Website:  www.openfoam.com                      |
|    \\/     M anipulation  |                                                 |
\*---------------------------------------------------------------------------*/
FoamFile
{
    version     2.0;
    format      ascii;
    arch        "LSB;label=32;scalar=64";
    class       volScalarField;
    location    "0.43";
    object      p;
}
// * * * * * * * * * * * * * * * * * * * * * * * * * * * * * * * * * * * * * //

dimensions      [0 2 -2 0 0 0 0];

internalField   nonuniform List<scalar> 
9600
(
2.2701781888
-0.627831369252
-1.53206219084
-1.91767464777
-2.13700491572
-2.27694705092
-2.38085271081
-2.46840201464
-2.54790113205
-2.62329175151
-2.69666577188
-2.76917462325
-2.84144791541
-2.91381654166
-2.98643681179
-3.05936491264
-3.13260077661
-3.20611594539
-3.27987031026
-3.35382100436
-3.42792722087
-3.50215458593
-3.57647239284
-3.65085668195
-3.72528808917
-3.79975148604
-3.87423533559
-3.94873053492
-4.02323043816
-4.0977296498
-4.17222418893
-4.24671082636
-4.3211868062
-4.39564990487
-4.47009802561
-4.54452928141
-4.61894168911
-4.69333326516
-4.76770197214
-4.84204570891
-4.9163621668
-4.9906489002
-5.0649033145
-5.13912258006
-5.21330370702
-5.28744335458
-5.36153800422
-5.43558384393
-5.50957680544
-5.58351252339
-5.6573862858
-5.73119309122
-5.80492746835
-5.87858356664
-5.95215510185
-6.02563542365
-6.09901743593
-6.17229347401
-6.24545537876
-6.31849446519
-6.3914014629
-6.46416643925
-6.53677884195
-6.60922748362
-6.68150048359
-6.75358518479
-6.82546813822
-6.89713510997
-6.96857094932
-7.03975959842
-7.11068409543
-7.18132653411
-7.25166799119
-7.32168844245
-7.39136678487
-7.46068080101
-7.52960702843
-7.59812072407
-7.6661958946
-7.73380523906
-7.80092009127
-7.86751034351
-7.93354445386
-7.99898936895
-8.06381040197
-8.12797129121
-8.19143417215
-8.25415953503
-8.31610611717
-8.37723089964
-8.43748915089
-8.49683428439
-8.5552178371
-8.61258949744
-8.66889709095
-8.72408647339
-8.77810143515
-8.83088378694
-8.88237342289
-8.93250825305
-8.98122414959
-9.02845508078
-9.0741329892
-9.11818778927
-9.16054746506
-9.20113794801
-9.23988335803
-9.27670569509
-9.31152523665
-9.34426062278
-9.37482857957
-9.40314410336
-9.42912034814
-9.45266905621
-9.47370038481
-9.49212298768
-9.50784432856
-9.52077058284
-9.53080672693
-9.53785642528
-9.54182242553
-9.54260671614
-9.54011039972
-9.53423395866
-9.5248774497
-9.51194091472
-9.49532280092
-9.47492106403
-9.45063369292
-9.42235879068
-9.38999371087
-9.35343543916
-9.31258081763
-9.26732562524
-9.21756499979
-9.16319239891
-9.10410045859
-9.04017941325
-8.97131516367
-8.8973903141
-8.81828173269
-8.73385943371
-8.64398344456
-8.54850031423
-8.44724153294
-8.34001616462
-8.22660431163
-8.10674910029
-7.9801419615
-7.84640559292
-7.70506395665
-7.55549857365
-7.39687792447
-7.22802715256
-7.04721560853
-6.85184231298
-6.63794832925
-6.39970830674
-6.13774972576
-5.91211110638
0.358636770617
-0.823717838424
-1.43238969518
-1.78641591411
-2.02903230362
-2.19959430605
-2.32766642873
-2.43216911301
-2.52324433032
-2.6065232447
-2.68529647594
-2.76151371816
-2.8363343744
-2.91044684347
-2.98425275759
-3.05797910882
-3.13174575545
-3.20560823718
-3.27958525187
-3.35367509379
-3.42786605708
-3.502141874
-3.57648557303
-3.65088198507
-3.72531746656
-3.79978042547
-3.87426166496
-3.94875338263
-4.02324973927
-4.09774574692
-4.17223753643
-4.24672198325
-4.32119631124
-4.39565824135
-4.47010557001
-4.54453635363
-4.6189485944
-4.69334027082
-4.7677092552
-4.84205340749
-4.91637042193
-4.99065782052
-5.06491299241
-5.13913306082
-5.21331506175
-5.28745565746
-5.36155133029
-5.43559824832
-5.50959237915
-5.58352938191
-5.65740451887
-5.73121278937
-5.80494873711
-5.87860653369
-5.95217988628
-6.02566211931
-6.09904617161
-6.17232442072
-6.2454886973
-6.31853029031
-6.39143994033
-6.4642077394
-6.53682314733
-6.60927497554
-6.68155135678
-6.75363966302
-6.82552643949
-6.89719745457
-6.96863757764
-7.03983076369
-7.11076004922
-7.18140753336
-7.25175432534
-7.32178042443
-7.39146471487
-7.46078497802
-7.52971778333
-7.59823840164
-7.6663208359
-7.73393779135
-7.80106063801
-7.86765928783
-7.93370217391
-7.9991562494
-8.0639868602
-8.12815776592
-8.19163109519
-8.25436734478
-8.31632528965
-8.37746190721
-8.4377324487
-8.4970903433
-8.55548716559
-8.61287262396
-8.66919453937
-8.72439875887
-8.77842905109
-8.83122720626
-8.88273314832
-8.9328848724
-8.98161825102
-9.02886718282
-9.07456361478
-9.11863746489
-9.16101675079
-9.201627354
-9.24039341253
-9.27723696741
-9.3120782089
-9.34483571073
-9.37542607813
-9.40376426454
-9.4297635162
-9.45333560086
-9.47439073919
-9.49283754387
-9.50858342735
-9.52153456377
-9.53159599652
-9.53867143309
-9.5426636203
-9.5434746178
-9.54100563008
-9.53515711823
-9.52582882739
-9.51291955953
-9.49632859988
-9.47595511761
-9.45169754652
-9.42345435241
-9.39112363177
-9.35460304866
-9.31379036641
-9.26858241436
-9.21887586161
-9.16456588893
-9.10554701662
-9.04171257075
-8.97295186394
-8.89915147634
-8.82019332304
-8.73595396173
-8.64630237804
-8.5510955981
-8.45017860439
-8.34337894506
-8.23050032043
-8.11131759376
-7.98556597213
-7.852930958
-7.71302964
-7.56538604682
-7.40940580674
-7.24433587452
-7.06923162726
-6.88300472926
-6.68461507623
-6.47286090136
-6.24760132708
-6.02961106204
-0.61720452643
-1.09857426443
-1.48983013063
-1.78144707155
-2.00302137748
-2.17095609036
-2.30305783186
-2.41284677247
-2.50870514906
-2.59585002745
-2.67759255117
-2.75602721925
-2.83247437224
-2.90776393289
-2.98241177959
-3.05673339122
-3.13091607109
-3.20506583793
-3.27923854438
-3.35345973692
-3.42773705732
-3.50206870497
-3.5764476539
-3.65086554582
-3.72531361442
-3.79978345375
-3.87426805543
-3.94876106693
-4.02325754754
-4.09775314487
-4.17224427483
-4.24672800858
-4.32120169984
-4.39566313103
-4.47011009145
-4.54454059843
-4.61895264872
-4.69334424854
-4.76771324074
-4.84205742915
-4.91637452456
-4.99066206212
-5.06491746976
-5.13913784237
-5.21332018299
-5.28746116529
-5.36155725259
-5.43560468145
-5.5095993746
-5.58353700189
-5.65741280825
-5.73122177381
-5.80495843687
-5.87861699343
-5.95219118312
-6.02567430694
-6.0990592767
-6.17233849733
-6.24550382239
-6.31854652213
-6.39145733342
-6.46422637727
-6.53684312708
-6.60929638993
-6.68157429689
-6.75366423125
-6.82555273634
-6.89722556807
-6.9686675989
-7.03986281904
-7.1107942731
-7.18144404688
-7.25179324991
-7.32182190532
-7.39150889549
-7.46083197536
-7.52976772558
-7.59829143953
-7.66637712485
-7.73399748445
-7.80112389953
-7.86772629902
-7.93377309193
-7.99923122355
-8.06406607212
-8.12824141932
-8.19171938328
-8.25446045402
-8.31642344742
-8.37756535007
-8.43784137409
-8.49720493969
-8.55560765859
-8.61299924686
-8.66932748369
-8.72453820457
-8.77857519715
-8.83138025786
-8.88289327823
-8.93305227017
-8.9817930507
-9.02904953963
-9.07475372804
-9.11883554074
-9.1612229724
-9.20184181863
-9.24061620747
-9.27746835192
-9.31231848279
-9.34508514487
-9.37568508703
-9.40403338708
-9.4300431241
-9.4536259966
-9.47469234296
-9.49315088806
-9.50890900918
-9.52187276937
-9.53194725654
-9.53903635153
-9.54304286602
-9.54386893847
-9.54141599536
-9.535584679
-9.52627506377
-9.51338711729
-9.49682012577
-9.47647303142
-9.45224429855
-9.42403270206
-9.39173717399
-9.35525616261
-9.31448824647
-9.26933125004
-9.2196833504
-9.16544175032
-9.1065026611
-9.04276199412
-8.9741128675
-8.90044626454
-8.8216493626
-8.73760489384
-8.64819039758
-8.55327403269
-8.45271420014
-8.34635650045
-8.23402835013
-8.11553584868
-7.99065669079
-7.85913498576
-7.72067284137
-7.57491899402
-7.42146680139
-7.25985719322
-7.08960588606
-6.91031330863
-6.72193074725
-6.52486823773
-6.32007432091
-6.11568544464
-1.16866384519
-1.35501279766
-1.59745780598
-1.81992548118
-2.00711728112
-2.16114432113
-2.28958135128
-2.39987234661
-2.49766689983
-2.58702701647
-2.67079839938
-2.75092524573
-2.82871502477
-2.90503711131
-2.9804617841
-3.05535770394
-3.12995862173
-3.20440893865
-3.27879473519
-3.3531650567
-3.42754519484
-3.50194661379
-3.57637267636
-3.65082130239
-3.7252891402
-3.79977137212
-3.87426346751
-3.94876083066
-4.02325962997
-4.09775634551
-4.17224790762
-4.24673168932
-4.32120522915
-4.39566643642
-4.47011317835
-4.54454350065
-4.61895538726
-4.69334686998
-4.76771583074
-4.84206003978
-4.91637721096
-4.99066486754
-5.06492044829
-5.13914103483
-5.21332359134
-5.28746480159
-5.3615611395
-5.43560882106
-5.50960377697
-5.58354171344
-5.65741790327
-5.7312272981
-5.80496441073
-5.87862342744
-5.95219812397
-6.02568179205
-6.09906732467
-6.17234711935
-6.24551306231
-6.31855644103
-6.39146799047
-6.46423783846
-6.53685545947
-6.60930964201
-6.68158848421
-6.75367937886
-6.82556888303
-6.89724274549
-6.96868589778
-7.03988234416
-7.11081513022
-7.18146632105
-7.25181700492
-7.32184720969
-7.39153582517
-7.46086058827
-7.52979808976
-7.5983236524
-7.66641129051
-7.73403369701
-7.80116224343
-7.86776687313
-7.93381598932
-7.99927652747
-8.06411388885
-8.12829188277
-8.19177263162
-8.25451661065
-8.31648265574
-8.37762777161
-8.4379071459
-8.49727418407
-8.55568053355
-8.6130759182
-8.66940805474
-8.72462276991
-8.77866391842
-8.8314733602
-8.88299094108
-8.93315463571
-8.98190047771
-9.02916226082
-9.07487195918
-9.11895951738
-9.16135294099
-9.2019779958
-9.2407587315
-9.27761748975
-9.31247456894
-9.34524837899
-9.37585544563
-9.40421084045
-9.43022788722
-9.45381828107
-9.47489234598
-9.49335895275
-9.50912557534
-9.52209818698
-9.53218184687
-9.53928059155
-9.54329737865
-9.54413440199
-9.54169321002
-9.53587476055
-9.52657916846
-9.51370638022
-9.49715612467
-9.47682797766
-9.45262105379
-9.42443455073
-9.39216826945
-9.3557216658
-9.31499429359
-9.26988524461
-9.22029429478
-9.16612106881
-9.107264167
-9.04362212153
-8.9750919433
-8.90156943059
-8.82294776217
-8.73911671449
-8.64996263016
-8.55536561796
-8.45519862272
-8.34932575141
-8.23759905509
-8.11985682511
-7.99591979703
-7.8655891786
-7.72864560064
-7.58484843635
-7.43394416907
-7.27568579869
-7.10987152446
-6.93642872727
-6.75557063166
-6.56785783422
-6.37409566933
-6.17735574052
-1.50600841088
-1.55777449357
-1.70166845891
-1.86596044482
-2.02029435931
-2.1583519541
-2.28050516829
-2.38929382725
-2.4877381065
-2.57856825528
-2.66397610965
-2.74561420074
-2.82468421888
-2.90203811254
-2.97826755193
-3.05377627337
-3.12883484049
-3.20362149015
-3.27825080617
-3.35279502107
-3.42729774009
-3.50178438699
-3.57626876185
-3.65075653045
-3.7252502829
-3.79974936768
-3.87425213468
-3.94875609093
-4.02325878374
-4.09775766582
-4.1722503406
-4.24673462393
-4.32120831243
-4.39566947907
-4.47011609516
-4.54454629132
-4.61895806559
-4.69334944183
-4.767718358
-4.84206258585
-4.91637984147
-4.99066762022
-5.06492335999
-5.1391441576
-5.2133269519
-5.2874684355
-5.36156509742
-5.43561317693
-5.5096085863
-5.58354700812
-5.65742371635
-5.73123362968
-5.80497128442
-5.87863086666
-5.9522061425
-6.02569041569
-6.09907657657
-6.17235701708
-6.24552363388
-6.31856772085
-6.39148001925
-6.46425067962
-6.53686918872
-6.60932433578
-6.6816042144
-6.75369621958
-6.82558691516
-6.8972620423
-6.968706523
-7.0399043946
-7.11083871795
-7.18149155213
-7.25184397432
-7.32187600392
-7.39156652455
-7.46089325756
-7.52983279302
-7.59836046844
-7.66645031118
-7.73407502529
-7.80120598638
-7.8678131381
-7.93386488308
-7.9993281637
-8.06416839519
-8.12834939116
-8.19183328541
-8.25458057501
-8.31655009685
-8.37769884674
-8.43798200786
-8.49735298313
-8.55576339323
-8.6131629305
-8.6694992848
-8.72471829109
-8.77876384198
-8.83157783963
-8.88310010426
-8.93326853669
-8.9820191316
-9.02928577946
-9.07500043581
-9.11909301951
-9.16149155975
-9.20212191134
-9.24090806061
-9.27777233799
-9.31263511815
-9.34541483137
-9.37602795926
-9.40438963199
-9.4304133077
-9.45401067191
-9.47509191387
-9.49356591725
-9.50934034538
-9.52232125764
-9.5324136568
-9.53952161236
-9.54354830738
-9.54439605685
-9.54196644141
-9.53616074945
-9.52687950797
-9.51402282248
-9.49749055086
-9.47718261228
-9.4529989507
-9.42483945597
-9.39260468953
-9.3561950729
-9.31551125808
-9.27045390405
-9.22092442086
-9.16682475083
-9.10805642392
-9.04452101349
-8.97611949458
-8.90275256613
-8.82431959366
-8.7407181426
-8.65184371697
-8.55758843827
-8.45784032014
-8.35248185726
-8.24138919755
-8.12443146885
-8.00146970401
-7.87235749536
-7.73694274929
-7.59507376216
-7.44661093128
-7.29144800291
-7.12954502221
-6.96097560423
-6.78598833588
-6.60497475553
-6.41825430749
-6.22650688941
-1.71008251893
-1.70510595429
-1.78908169355
-1.90986928797
-2.03651283075
-2.15919289007
-2.27408939377
-2.38028569504
-2.47856907477
-2.57035825188
-2.65711932941
-2.74013453185
-2.82043868299
-2.89882546762
-2.97588281716
-3.05203540263
-3.12758312124
-3.20273444302
-3.27763119001
-3.35236854836
-3.42700887471
-3.50159210791
-3.57614305967
-3.65067680794
-3.72520112726
-3.79972034986
-3.87423608541
-3.94874820674
-4.02325589987
-4.09775771334
-4.17225198655
-4.24673706416
-4.32121107377
-4.39567230682
-4.47011884932
-4.54454892694
-4.61896060076
-4.69335186928
-4.76772070801
-4.84206490749
-4.91638220285
-4.99067006613
-5.0649259089
-5.13914684846
-5.21332981388
-5.28747149153
-5.36156836206
-5.4356166866
-5.5096123708
-5.58355107273
-5.65742807364
-5.73123830652
-5.80497631892
-5.87863629648
-5.95221201398
-6.02569676457
-6.09908342024
-6.17236436814
-6.2455315254
-6.31857620158
-6.39148911932
-6.46426043205
-6.53687964442
-6.60933554609
-6.68161620839
-6.75370901847
-6.82560057372
-6.89727663006
-6.9687220875
-7.03992100406
-7.11085646257
-7.18151049595
-7.25186414633
-7.3218974362
-7.39158928955
-7.46091742484
-7.52985841824
-7.59838764472
-7.66647915329
-7.73410561376
-7.80123836383
-7.86784738148
-7.93390109895
-7.99936641931
-8.06420874709
-8.12839196034
-8.19187822955
-8.25462800045
-8.31660008973
-8.37775154047
-8.4380375536
-8.49741147563
-8.5558249149
-8.61322763216
-8.6695673099
-8.72478975346
-8.7788388709
-8.83165662485
-8.88318284334
-8.93335531772
-8.98211010604
-9.02938118749
-9.07510045487
-9.11919771832
-9.1616010007
-9.20223633939
-9.24102774168
-9.27789739498
-9.31276563526
-9.34555097724
-9.37616992264
-9.40453755819
-9.43056743462
-9.45417137494
-9.47525952246
-9.49374061606
-9.50952243282
-9.52251126442
-9.5326121616
-9.53972917607
-9.54376563723
-9.54462415236
-9.54220631915
-9.53641357561
-9.52714683634
-9.51430660617
-9.4977930571
-9.47750630299
-9.45334704877
-9.42521604107
-9.39301453829
-9.35664392922
-9.31600601839
-9.27100320966
-9.22153875435
-9.16751658816
-9.10884106849
-9.04541701561
-8.9771494603
-8.90394410112
-8.82570611332
-8.74234070061
-8.65375254653
-8.55984502288
-8.46052052929
-8.35567881017
-8.24521805657
-8.12903486764
-8.00702443376
-7.87908420825
-7.74511541555
-7.60503152074
-7.45876969532
-7.30630671761
-7.14768265209
-6.98301939072
-6.81253077963
-6.63645567764
-6.4548472351
-6.26759419483
-1.83321194154
-1.80775591029
-1.8571169227
-1.94727519367
-2.05219994437
-2.16152271562
-2.26935957322
-2.37258320715
-2.47025740028
-2.56264786942
-2.65051939969
-2.73476332831
-2.81621864914
-2.89559669351
-2.97346446517
-3.0502565369
-3.12629557747
-3.20181645752
-3.27698629794
-3.35192217354
-3.42670471809
-3.50138837877
-3.57600929644
-3.6505910152
-3.72514755464
-3.79968821189
-3.87421786896
-3.9487387956
-4.02325191817
-4.09775698439
-4.17225308812
-4.2467391073
-4.3212135132
-4.39567485421
-4.47012135281
-4.54455130288
-4.61896285968
-4.69335401843
-4.76772277189
-4.84206692207
-4.91638422319
-4.99067214187
-5.06492805408
-5.13914909018
-5.21333218671
-5.28747403765
-5.3615711094
-5.43561967725
-5.50961565819
-5.58355468237
-5.65743202085
-5.73124261519
-5.80498098748
-5.87864130334
-5.95221736537
-6.02570248937
-6.09908954658
-6.17237090712
-6.24553849745
-6.31858366388
-6.39149712285
-6.46426900802
-6.53688883088
-6.60934539236
-6.68162675148
-6.75372027562
-6.82561258517
-6.8972894731
-6.96873582417
-7.03993568362
-7.11087215977
-7.1815272837
-7.25188205961
-7.32191649077
-7.39160954455
-7.46093896305
-7.52988128653
-7.59841188931
-7.66650486038
-7.73413287242
-7.80126721023
-7.86787784891
-7.93393327934
-7.99940040997
-8.06424460112
-8.1284297503
-8.19191809733
-8.25467006827
-8.31664441234
-8.37779818315
-8.43808664847
-8.49746312421
-8.55587911928
-8.61328443065
-8.66962681895
-8.72485209447
-8.77890411177
-8.831724825
-8.88325414002
-8.93342978436
-8.98218777094
-9.02946218233
-9.07518495771
-9.11928583182
-9.16169273499
-9.20233183398
-9.24112727531
-9.27800114445
-9.31287365624
-9.34566342952
-9.37628710713
-9.40465968749
-9.43069463183
-9.4543039134
-9.47539785637
-9.4938850974
-9.50967334371
-9.52266902187
-9.53277737892
-9.53990253652
-9.54394782339
-9.54481614841
-9.54240932305
-9.53662884706
-9.52737586428
-9.5145512326
-9.49805568668
-9.47778971806
-9.45365460892
-9.42555188876
-9.39338351068
-9.35705193457
-9.31646015607
-9.27151218404
-9.22211327761
-9.16816931702
-9.10958722746
-9.04627501442
-8.9781416046
-8.90509776528
-8.82705417077
-8.74392294849
-8.65561762769
-8.56205181679
-8.46314091283
-8.35880013857
-8.24894688176
-8.13350164021
-8.01238730875
-7.88553572468
-7.7528886927
-7.61440559954
-7.47007392259
-7.31991778931
-7.1640146822
-7.0024987908
-6.83555101017
-6.66334581655
-6.48590595798
-6.30308951502
-1.90725477926
-1.87620369362
-1.90613634457
-1.975908021
-2.06507582961
-2.16395298776
-2.26583249947
-2.36630465913
-2.46323156874
-2.55597788025
-2.64471513552
-2.72998146904
-2.81242645253
-2.89267425545
-2.97126312331
-3.04862990128
-3.12511379801
-3.20097112898
-3.27639070369
-3.35150881392
-3.42642230996
-3.50119870081
-3.57588436681
-3.65051073752
-3.72509713273
-3.79965774257
-3.87420043758
-3.94872965228
-4.0232478706
-4.09775599308
-4.17225383607
-4.24674077067
-4.32121557064
-4.39567701993
-4.47012350077
-4.54455334077
-4.61896477412
-4.69335581949
-4.76772448765
-4.84206858697
-4.91638587882
-4.99067383745
-5.06492980539
-5.13915090907
-5.21333409691
-5.28747608927
-5.36157333785
-5.43562210554
-5.50961831099
-5.58355756457
-5.65743512097
-5.7312459356
-5.80498456012
-5.87864514893
-5.95222148874
-6.02570691469
-6.09909431083
-6.17237602442
-6.24554396095
-6.31858950596
-6.39150339895
-6.46427574873
-6.53689605091
-6.60935311843
-6.68163501772
-6.75372909717
-6.8256219786
-6.8972995038
-6.96874656366
-7.0399471582
-7.11088439668
-7.18154033549
-7.2518959684
-7.32193125822
-7.39162519246
-7.46095557546
-7.52989893121
-7.59843058689
-7.6665246518
-7.73415384704
-7.80128942363
-7.86790129937
-7.93395800706
-7.99942652319
-8.06427217865
-8.12845882066
-8.19194874494
-8.25470242216
-8.31667854186
-8.37783409904
-8.43812442245
-8.49750288914
-8.55592091627
-8.61332827236
-8.66967280315
-8.72490037091
-8.77895476724
-8.83177785673
-8.88330964361
-8.93348790719
-8.98224855308
-9.02952564155
-9.07525118998
-9.11935499369
-9.16176490106
-9.20240704005
-9.24120566852
-9.27808290196
-9.31295884414
-9.34575215116
-9.37637964861
-9.40475633435
-9.43079549221
-9.45440908491
-9.47550771393
-9.49400013011
-9.50979392066
-9.52279546324
-9.53291021734
-9.54004254904
-9.54409576112
-9.54497288804
-9.5425760077
-9.53680684028
-9.52756678344
-9.51475688973
-9.49827845406
-9.47803250951
-9.4539208177
-9.42584563677
-9.39370962992
-9.35741640123
-9.31687025124
-9.2719764821
-9.22264219548
-9.16877533259
-9.11028534526
-9.04708339717
-8.97908188303
-8.90619633639
-8.82834288038
-8.74543979458
-8.65740872304
-8.56417255205
-8.46565824558
-8.36179475381
-8.25251551144
-8.13776148268
-8.01747843637
-7.89162476193
-7.76017314014
-7.62311587542
-7.48047546995
-7.33230719304
-7.17871179829
-7.01983593546
-6.855857854
-6.68696404843
-6.51327084955
-6.33484948441
-1.94948855735
-1.91792231065
-1.93756901979
-1.99501492514
-2.07402774507
-2.16580646636
-2.26342467062
-2.36181208951
-2.45809383769
-2.55102767906
-2.64036025163
-2.72636421917
-2.80953994914
-2.89043914006
-2.96957327783
-3.04737759922
-3.12420193054
-3.20031768299
-3.27592957561
-3.35118834135
-3.42620308328
-3.50105126266
-3.57578694337
-3.65044694403
-3.72505763082
-3.799633887
-3.87418671828
-3.94872243646
-4.02324465506
-4.09775516062
-4.17225435129
-4.24674200435
-4.32121712755
-4.39567865556
-4.47012512808
-4.54455489585
-4.61896623835
-4.69335719913
-4.76772580114
-4.84206985702
-4.91638712864
-4.99067511344
-5.06493113599
-5.13915230298
-5.21333555748
-5.28747765185
-5.36157504296
-5.43562397014
-5.50962034692
-5.58355977442
-5.65743749918
-5.73124848521
-5.80498729872
-5.87864807708
-5.95222460414
-6.02571022613
-6.09909786084
-6.17237985936
-6.24554808054
-6.31859391117
-6.39150812799
-6.4642808367
-6.53690150268
-6.60935893907
-6.6816412345
-6.75373573661
-6.82562904478
-6.89730702838
-6.9687546175
-7.03995577192
-7.11089356044
-7.18155006655
-7.25190632609
-7.3219422744
-7.39163686177
-7.46096794153
-7.52991207522
-7.59844454005
-7.6665394051
-7.73416944178
-7.80130593336
-7.86791873972
-7.93397636861
-7.99944587532
-8.06429262726
-8.12848039384
-8.19197144798
-8.25472633351
-8.31670376122
-8.37786063512
-8.4381522473
-8.49753207693
-8.55595155339
-8.61336038287
-8.66970642871
-8.72493561778
-8.77899173798
-8.83181652233
-8.88335000592
-8.93353011859
-8.98229272178
-9.02957175317
-9.07529925092
-9.11940514764
-9.16181730345
-9.2024617213
-9.24126265465
-9.27814234998
-9.31302090228
-9.34581689855
-9.37644724195
-9.40482704379
-9.43086955821
-9.45448661069
-9.47558892893
-9.49408547054
-9.50988381584
-9.52289028592
-9.53301041789
-9.54014890405
-9.544209099
-9.54509404517
-9.54270606198
-9.53694712854
-9.52771902231
-9.51492301731
-9.49846078632
-9.47823392312
-9.45414470265
-9.42609614237
-9.39399161748
-9.35773572911
-9.31723419348
-9.27239355216
-9.22312248254
-9.16933098785
-9.11093099092
-9.04783688428
-8.97996424118
-8.90723270562
-8.82956384206
-8.74688163762
-8.65911497297
-8.56619512576
-8.46805930475
-8.36464899233
-8.25591110767
-8.14180370349
-8.0222922182
-7.89735652134
-7.76699417226
-7.63122313633
-7.49009350414
-7.34368713988
-7.19212817242
-7.0355876303
-6.874271655
-6.70842303588
-6.53829178435
-6.36418297433
-1.96873745661
-1.93763877827
-1.95286348689
-2.0045317265
-2.0785889958
-2.16678998803
-2.26219471697
-2.35946331823
-2.45537542718
-2.54838612424
-2.63802140546
-2.72441205222
-2.80797641253
-2.88922504737
-2.96865339916
-3.04669471695
-3.12370403407
-3.19996055257
-3.27567735784
-3.35101295147
-3.42608304497
-3.50097050768
-3.57573372869
-3.6504129649
-3.72503614563
-3.79962083136
-3.8741791896
-3.94871849649
-4.02324293697
-4.0977547604
-4.17225468214
-4.24674272702
-4.3212180553
-4.39567963619
-4.47012610463
-4.54455583339
-4.61896712828
-4.6933580575
-4.7677266462
-4.84207069621
-4.91638795437
-4.99067594659
-5.06493200765
-5.13915323743
-5.21333655271
-5.28747871894
-5.36157621296
-5.43562525946
-5.50962175783
-5.58356130321
-5.65743912992
-5.73125019529
-5.804989103
-5.87865000651
-5.95222666995
-6.02571241909
-6.09910019073
-6.17238237703
-6.24555081486
-6.31859685573
-6.39151129062
-6.4642842427
-6.53690515602
-6.60936282913
-6.6816453724
-6.75374015421
-6.82563374878
-6.89731201428
-6.96875992795
-7.03996144716
-7.11089958609
-7.18155642053
-7.25191304679
-7.32194942562
-7.39164444985
-7.46097596111
-7.52992057555
-7.59845357116
-7.66654895339
-7.73417949461
-7.80131654413
-7.86792995989
-7.93398818523
-7.99945829196
-8.06430572749
-8.12849423464
-8.19198600951
-8.25474161202
-8.31671982472
-8.37787752841
-8.43816992359
-8.4975505442
-8.55597089829
-8.61338065365
-8.66972762866
-8.7249577726
-8.77901494428
-8.83184080602
-8.8833753173
-8.9335565132
-8.98232031625
-9.02960058087
-9.07532927304
-9.11943642011
-9.16184997881
-9.20249587619
-9.24129825687
-9.27817948647
-9.31305978683
-9.34585765141
-9.37648989206
-9.40487172744
-9.4309166002
-9.45453625559
-9.47564134898
-9.49414094614
-9.50994274704
-9.52295314113
-9.53307766028
-9.54022122262
-9.54428734202
-9.54517907428
-9.54279895368
-9.53704920378
-9.52783199413
-9.51504888439
-9.49860183127
-9.47839299482
-9.45432521079
-9.4263022642
-9.39422830625
-9.35800868861
-9.31755043562
-9.27276152126
-9.22355215556
-9.16983436564
-9.11152233817
-9.04853363684
-8.98078708867
-8.90820578128
-8.8307164262
-8.74824864627
-8.66073802696
-8.5681236409
-8.47035162219
-8.36737507288
-8.25915315684
-8.14565836699
-8.02687367839
-7.90279769393
-7.77344977912
-7.63887080065
-7.49913581993
-7.35435403577
-7.20467737643
-7.0503110429
-6.89150841132
-6.72858434647
-6.56191541514
-6.39198822752
-1.9687373813
-1.93763939822
-1.952863192
-2.0045315297
-2.07858933857
-2.16678997108
-2.26219463362
-2.35946339823
-2.45537546855
-2.54838620519
-2.63802144711
-2.72441206468
-2.80797643192
-2.88922507636
-2.96865346085
-3.04669472548
-3.12370402755
-3.19996058204
-3.27567741337
-3.35101303263
-3.42608314077
-3.50097059567
-3.57573382491
-3.6504130772
-3.72503628026
-3.79962096956
-3.8741792929
-3.94871861828
-4.02324308859
-4.09775493201
-4.1722548494
-4.2467428808
-4.32121824816
-4.39567986529
-4.47012636485
-4.54455610625
-4.6189673962
-4.69335833353
-4.76772695618
-4.84207105773
-4.91638835123
-4.99067635972
-5.06493243744
-5.13915370943
-5.21333707691
-5.28747929801
-5.36157685517
-5.43562596621
-5.50962252389
-5.58356212652
-5.65744000213
-5.73125107882
-5.80498998607
-5.8786509219
-5.95222765956
-6.02571349796
-6.09910134179
-6.17238361476
-6.24555217705
-6.31859834948
-6.39151290221
-6.46428597211
-6.53690700521
-6.60936478742
-6.68164743289
-6.75374233709
-6.82563607083
-6.89731445209
-6.96876247891
-7.03996414627
-7.11090244856
-7.1815594201
-7.25191617378
-7.32195272897
-7.39164796278
-7.4609796649
-7.52992446474
-7.59845767748
-7.6665532789
-7.73418400669
-7.80132125629
-7.86793493738
-7.93399344626
-7.99946379302
-8.06431147848
-8.12850029646
-8.19199239412
-8.25474826957
-8.31672673566
-8.3778847332
-8.43817740981
-8.49755828601
-8.55597894558
-8.61338906643
-8.66973639866
-8.72496684139
-8.77902434968
-8.83185063684
-8.88338554524
-8.93356709369
-8.9823313054
-9.02961205835
-9.07534123106
-9.11944883646
-9.16186292431
-9.20250946798
-9.24131248782
-9.27819436427
-9.31307547042
-9.34587430163
-9.3765075567
-9.4048904486
-9.43093663759
-9.45455791649
-9.47566481009
-9.49416638901
-9.50997053243
-9.52298382633
-9.53311174732
-9.54025929445
-9.54433020359
-9.5452276187
-9.54285432632
-9.53711277655
-9.52790539097
-9.51513405287
-9.49870106891
-9.47850920338
-9.45446185861
-9.42646345404
-9.39441901272
-9.3582346217
-9.31781840812
-9.27307991333
-9.22393092347
-9.17028550744
-9.11205997576
-9.04917476696
-8.98155228398
-8.90911887498
-8.83180587231
-8.74954846135
-8.66228866325
-8.56997328656
-8.4725565512
-8.3700021854
-8.26228140817
-8.14937977855
-8.03129655695
-7.90804796702
-7.77967377331
-7.646237353
-7.50783819192
-7.3646146648
-7.21675112587
-7.06449057972
-6.90813913591
-6.74808061433
-6.5847897988
-6.41887029802
-1.94948844
-1.91792391805
-1.93756829256
-1.99501435706
-2.07402863208
-2.16580647092
-2.26342450894
-2.36181234208
-2.45809395499
-2.55102785431
-2.64036032785
-2.72636428339
-2.80954004216
-2.89043923221
-2.96957342421
-3.04737761718
-3.12420192951
-3.20031776684
-3.27592973675
-3.35118858817
-3.42620339023
-3.50105155702
-3.57578724777
-3.65044727439
-3.72505800264
-3.79963427604
-3.87418703728
-3.94872281307
-4.02324509994
-4.09775565925
-4.17225485931
-4.24674249311
-4.32121770855
-4.39567931816
-4.47012588658
-4.54455571776
-4.61896707433
-4.69335805759
-4.76772673153
-4.84207091378
-4.91638829073
-4.99067635309
-5.06493244391
-5.13915372543
-5.21333711609
-5.28747936765
-5.36157695307
-5.43562608228
-5.50962263935
-5.58356222779
-5.65744009614
-5.73125114722
-5.80498999467
-5.87865086806
-5.95222758334
-6.02571344431
-6.09910130764
-6.17238358573
-6.24555216979
-6.31859838133
-6.39151295567
-6.46428602301
-6.53690704333
-6.60936480248
-6.68164740586
-6.75374226741
-6.825635985
-6.89731433916
-6.96876229692
-7.03996388616
-7.11090213363
-7.18155905373
-7.25191572801
-7.32195220564
-7.39164739237
-7.460979042
-7.52992375299
-7.59845687132
-7.66655238773
-7.73418300715
-7.80132012397
-7.86793370355
-7.93399214872
-7.99946239113
-8.06430992325
-8.12849860177
-8.19199057825
-8.25474628043
-8.31672449665
-8.37788225051
-8.43817470291
-8.49755531886
-8.55597570403
-8.61338557488
-8.66973266992
-8.72496281916
-8.77901999749
-8.83184600563
-8.88338065453
-8.93356186537
-8.982325709
-9.0296061552
-9.07533506836
-9.11944238493
-9.16185615554
-9.20250246727
-9.24130531208
-9.2781869992
-9.31306796658
-9.34586677808
-9.37650014042
-9.40488318927
-9.43092966678
-9.45455148812
-9.47565912239
-9.49416163551
-9.50996701923
-9.52298213999
-9.5331124968
-9.54026298197
-9.54433752507
-9.54523949865
-9.54287196243
-9.53713758034
-9.52793891916
-9.51517819908
-9.49875817543
-9.478582224
-9.45455434464
-9.42657941458
-9.39456329576
-9.35841305218
-9.31803785353
-9.27334881107
-9.22425927837
-9.17068536114
-9.11254557313
-9.04976279813
-8.98226320606
-8.90997687388
-8.83283948405
-8.75079160175
-8.66378127834
-8.57176320712
-8.47469985752
-8.37256483448
-8.26534154083
-8.15302826106
-8.03563985512
-7.91321001223
-7.78579840571
-7.6534915056
-7.51641317494
-7.37473059783
-7.22866292662
-7.078490044
-6.92456526212
-6.76732774468
-6.60731693008
-6.44519740026
-1.90725486581
-1.87620549228
-1.90613557806
-1.97590719993
-2.06507692005
-2.16395312992
-2.26583241513
-2.36630503118
-2.46323172714
-2.55597806939
-2.6447152269
-2.72998163732
-2.81242663578
-2.89267437835
-2.97126327508
-3.04862994963
-3.12511388281
-3.20097128412
-3.27639096108
-3.3515092043
-3.42642282731
-3.50119923526
-3.57588489973
-3.65051127833
-3.72509767961
-3.79965833801
-3.87420100443
-3.94873031354
-4.02324858645
-4.09775676619
-4.17225467265
-4.24674164196
-4.32121657044
-4.39567811163
-4.47012474075