/*--------------------------------*- C++ -*----------------------------------*\
| =========                 |                                                 |
| \\      /  F ield         | OpenFOAM: The Open Source CFD Toolbox           |
|  \\    /   O peration     | Version:  2106                                  |
|   \\  /    A nd           | Website:  www.openfoam.com                      |
|    \\/     M anipulation  |                                                 |
\*---------------------------------------------------------------------------*/
FoamFile
{
    version     2.0;
    format      ascii;
    arch        "LSB;label=32;scalar=64";
    class       surfaceScalarField;
    location    "0.43";
    object      phi;
}
// * * * * * * * * * * * * * * * * * * * * * * * * * * * * * * * * * * * * * //

dimensions      [0 3 -1 0 0 0 0];

oriented        oriented;

internalField   nonuniform List<scalar> 
18840
(
3.37543045162e-05
1.62456954857e-05
2.25359620598e-05
1.12183421437e-05
1.63023784206e-05
6.23358437375e-06
1.28098249405e-05
3.49255270621e-06
1.08065798931e-05
2.0032451973e-06
9.60476928705e-06
1.20181082016e-06
8.85167864578e-06
7.53090453601e-07
8.3650309023e-06
4.86647848048e-07
8.04518651157e-06
3.19844540534e-07
7.83374232067e-06
2.11444144636e-07
7.69428240492e-06
1.39460008838e-07
7.60308070758e-06
9.12017324111e-08
7.54426577773e-06
5.88149254884e-08
7.50707742347e-06
3.71883013709e-08
7.48418949009e-06
2.28879465206e-08
7.47062397818e-06
1.35654812062e-08
7.46302145618e-06
7.60249284686e-09
7.45913876184e-06
3.88273602143e-09
7.45749910139e-06
1.6397192163e-09
7.45714607985e-06
3.53065056512e-10
7.45748347464e-06
-3.37391549756e-10
7.45813452395e-06
-6.51101882189e-10
7.45888654675e-06
-7.52035270202e-10
7.45962024926e-06
-7.33742883535e-10
7.46027672269e-06
-6.56502719527e-10
7.46083322196e-06
-5.56503271941e-10
7.46128740232e-06
-4.54202183479e-10
7.46164763442e-06
-3.60224766349e-10
7.46192677898e-06
-2.79173447278e-10
7.46213895422e-06
-2.12189782823e-10
7.46229749933e-06
-1.58567788942e-10
7.46241414571e-06
-1.16682385518e-10
7.46249876578e-06
-8.46251373892e-11
7.46255930593e-06
-6.05173078725e-11
7.46260204829e-06
-4.26825015775e-11
7.46263179413e-06
-2.9684987469e-11
7.46265219432e-06
-2.03391498695e-11
7.46266596945e-06
-1.37102606309e-11
7.46267512166e-06
-9.09346964736e-12
7.46268108544e-06
-5.9423830882e-12
7.46268491094e-06
-3.83938500125e-12
7.4626873761e-06
-2.50126366489e-12
7.46268889097e-06
-1.56374833741e-12
7.46268977082e-06
-9.30917214256e-13
7.46269028501e-06
-5.84516339463e-13
7.46269061486e-06
-3.97520013608e-13
7.46269085023e-06
-2.98263902987e-13
7.46269105896e-06
-2.5416789499e-13
7.46269126872e-06
-2.34460674031e-13
7.46269149101e-06
-2.28426310516e-13
7.46269173911e-06
-2.40472915709e-13
7.46269199589e-06
-2.64399530885e-13
7.46269227044e-06
-2.91775434703e-13
7.46269257118e-06
-3.15752478026e-13
7.46269292304e-06
-3.44447260956e-13
7.46269333671e-06
-3.88418858565e-13
7.46269379842e-06
-4.31971710838e-13
7.46269430411e-06
-4.61553198508e-13
7.46269484467e-06
-4.85067222551e-13
7.46269540797e-06
-5.16325960161e-13
7.46269598005e-06
-5.54447308875e-13
7.46269656391e-06
-5.95202620603e-13
7.46269716887e-06
-6.38333346965e-13
7.46269780728e-06
-6.85342082575e-13
7.46269848471e-06
-7.31695687093e-13
7.46269920282e-06
-7.68487845345e-13
7.4626999662e-06
-8.02032315041e-13
7.46270076135e-06
-8.35941874086e-13
7.46270158445e-06
-8.68825976759e-13
7.46270243989e-06
-9.02115404055e-13
7.46270333435e-06
-9.41425963532e-13
7.46270427113e-06
-9.8843616118e-13
7.46270524881e-06
-1.03250419875e-12
7.46270627964e-06
-1.0672477519e-12
7.46270737569e-06
-1.10005313916e-12
7.4627085292e-06
-1.13258381809e-12
7.46270972676e-06
-1.1580958893e-12
7.46271096244e-06
-1.18202350187e-12
7.46271223148e-06
-1.21659216196e-12
7.46271353497e-06
-1.26644643428e-12
7.46271487358e-06
-1.3214572956e-12
7.4627162576e-06
-1.37623411201e-12
7.46271769318e-06
-1.4381722373e-12
7.46271917195e-06
-1.50165343002e-12
7.46272069582e-06
-1.55789185399e-12
7.46272226091e-06
-1.60806994632e-12
7.46272386337e-06
-1.66355742243e-12
7.46272549739e-06
-1.72790322749e-12
7.46272716985e-06
-1.79112484454e-12
7.46272890795e-06
-1.85448000606e-12
7.46273072484e-06
-1.92174809084e-12
7.46273263254e-06
-1.99009121726e-12
7.46273464585e-06
-2.05624022764e-12
7.46273677307e-06
-2.11996370839e-12
7.46273901219e-06
-2.18233382993e-12
7.46274135113e-06
-2.24959659279e-12
7.46274378877e-06
-2.34112071449e-12
7.46274634085e-06
-2.47593463171e-12
7.46274902515e-06
-2.64673251562e-12
7.46275187591e-06
-2.83486117117e-12
7.46275498656e-06
-3.08051216443e-12
7.46275841313e-06
-3.38582911614e-12
7.46276222144e-06
-3.75841274477e-12
7.46276650426e-06
-4.21267831298e-12
7.462771333e-06
-4.74695083721e-12
7.4627768345e-06
-5.3935171917e-12
7.46278310904e-06
-6.17599187e-12
7.46279035763e-06
-7.13667642834e-12
7.4627988385e-06
-8.36378019133e-12
7.46280883947e-06
-9.92050807651e-12
7.46282077448e-06
-1.18752186293e-11
7.46283508472e-06
-1.42582700713e-11
7.46285238354e-06
-1.71977176549e-11
7.46287335666e-06
-2.08255150333e-11
7.46289884002e-06
-2.53020663773e-11
7.46292992326e-06
-3.08791193746e-11
7.46296793409e-06
-3.78425080057e-11
7.46301455425e-06
-4.64995766609e-11
7.46307185201e-06
-5.72160267224e-11
7.4631424126e-06
-7.04735824378e-11
7.46322942662e-06
-8.68798292157e-11
7.46333679857e-06
-1.07170740953e-10
7.46346945954e-06
-1.32363610152e-10
7.46363401861e-06
-1.64232440492e-10
7.46384124724e-06
-2.06999308655e-10
7.46409403237e-06
-2.52679910322e-10
7.46440530718e-06
-3.11188265731e-10
7.46479035109e-06
-3.84950107389e-10
7.46526720208e-06
-4.76771448778e-10
7.46585772884e-06
-5.90551313138e-10
7.46658907331e-06
-7.31386546452e-10
7.46749492696e-06
-9.05853795359e-10
7.46861690874e-06
-1.12203849988e-09
7.47000684146e-06
-1.39001819522e-09
7.47172890956e-06
-1.72221958447e-09
7.4738630408e-06
-2.13418463857e-09
7.47650835511e-06
-2.64534176811e-09
7.47978791677e-06
-3.27969064183e-09
7.48385537712e-06
-4.06745738125e-09
7.48890204883e-06
-5.04663839767e-09
7.49516702399e-06
-6.26494025712e-09
7.50294946375e-06
-7.78249144238e-09
7.51262465792e-06
-9.67534952902e-09
7.52466555941e-06
-1.20408515109e-08
7.53966959423e-06
-1.50040220214e-08
7.55839598681e-06
-1.8726466188e-08
7.58181590834e-06
-2.34198508323e-08
7.61118050518e-06
-2.936456461e-08
7.64811838996e-06
-3.69378525211e-08
7.69477575736e-06
-4.66575853861e-08
7.7540316174e-06
-5.92561899149e-08
7.82985265469e-06
-7.58210525117e-08
7.92795271868e-06
-9.81002719681e-08
8.05724704593e-06
-1.29294678432e-07
8.23360189315e-06
-1.76355290469e-07
8.49045381333e-06
-2.56852690162e-07
8.91029462363e-06
-4.19841505495e-07
9.72458378921e-06
-8.14289920625e-07
1.16436008558e-05
-1.91901765432e-06
-5.191639431e-06
1.68352404384e-05
5.01388822778e-05
1.61068134865e-05
4.41591287063e-05
1.71980943588e-05
3.77598740978e-05
1.26328401344e-05
3.26495144959e-05
8.60291190625e-06
2.89465819055e-05
5.70617749161e-06
2.63676032531e-05
3.7807898578e-06
2.45938853069e-05
2.52680837504e-06
2.33783983697e-05
1.70213476577e-06
2.25473240822e-05
1.1509191105e-06
2.19811570949e-05
7.7761115138e-07
2.15978047375e-05
5.22812372393e-07
2.13405417675e-05
3.48464683634e-07
2.11699443252e-05
2.29412366589e-07
2.10585365678e-05
1.48595955324e-07
2.09871855372e-05
9.42389864281e-08
2.09426220743e-05
5.81290124116e-08
2.09157075815e-05
3.45170164766e-08
2.09002078316e-05
1.93825218272e-08
2.08919203893e-05
9.92718793061e-09
2.08880552617e-05
4.21820939882e-09
2.08867856276e-05
9.32277780783e-10
2.08869505877e-05
-8.16133863242e-10
2.08878289089e-05
-1.63039748164e-09
2.08889874296e-05
-1.89230162002e-09
2.08901808425e-05
-1.84995873833e-09
2.08912814309e-05
-1.65708242116e-09
2.08922328841e-05
-1.40569102783e-09
2.08930205669e-05
-1.14790999297e-09
2.08936521219e-05
-9.10779959269e-10
2.08941459639e-05
-7.06084694268e-10
2.08945241979e-05
-5.36822253871e-10
2.08948087287e-05
-4.01221644578e-10
2.0895019396e-05
-2.95255729631e-10
2.08951730755e-05
-2.14135384976e-10
2.08952836463e-05
-1.53139939496e-10
2.08953621144e-05
-1.08024032947e-10
2.08954170378e-05
-7.5159878096e-11
2.08954549311e-05
-5.15559525077e-11
2.08954806922e-05
-3.48396937442e-11
2.08954979042e-05
-2.31745655621e-11
2.08955091548e-05
-1.51452151796e-11
2.08955162673e-05
-9.69699394395e-12
2.0895520656e-05
-6.06567998586e-12
2.0895523332e-05
-3.71549797558e-12
2.08955248622e-05
-2.23359988012e-12
2.08955256724e-05
-1.30552566771e-12
2.08955260473e-05
-7.39620697183e-13
2.08955262851e-05
-5.26947909845e-13
2.08955264496e-05
-4.16663767157e-13
2.08955265701e-05
-3.6916182603e-13
2.08955266898e-05
-3.62269683822e-13
2.08955268116e-05
-3.85363820809e-13
2.08955269523e-05
-4.30420722828e-13
2.08955271166e-05
-4.83689389926e-13
2.08955273272e-05
-5.32643017411e-13
2.08955275988e-05
-5.85424487535e-13
2.08955279193e-05
-6.55203941204e-13
2.08955282763e-05
-7.33158510727e-13
2.08955286583e-05
-8.1124472782e-13
2.0895529063e-05
-8.96097526818e-13
2.08955294802e-05
-9.90762001469e-13
2.08955299095e-05
-1.08733500807e-12
2.08955303599e-05
-1.18007975043e-12
2.08955308467e-05
-1.26596480194e-12
2.08955313736e-05
-1.34252998899e-12
2.08955319342e-05
-1.40765479624e-12
2.08955325316e-05
-1.46452014587e-12
2.08955331506e-05
-1.52190609589e-12
2.08955337857e-05
-1.58797887583e-12
2.08955344385e-05
-1.65214242093e-12
2.08955351159e-05
-1.71207881388e-12
2.08955358287e-05
-1.77288197256e-12
2.08955365779e-05
-1.83451619138e-12
2.08955373728e-05
-1.88684876436e-12
2.08955382305e-05
-1.92917134703e-12
2.08955391497e-05
-1.97406074373e-12
2.08955401119e-05
-2.02776146371e-12
2.08955411052e-05
-2.09413435734e-12
2.08955421234e-05
-2.17874709231e-12
2.08955431715e-05
-2.28391730015e-12
2.08955442503e-05
-2.40364077665e-12
2.08955453703e-05
-2.52701865409e-12
2.089554655e-05
-2.6559802545e-12
2.08955477846e-05
-2.79124077731e-12
2.089554907e-05
-2.92540177176e-12
2.08955503981e-05
-3.05764891572e-12
2.08955517713e-05
-3.19631964861e-12
2.08955531964e-05
-3.34531382236e-12
2.08955546849e-05
-3.48911112872e-12
2.08955562754e-05
-3.61980530793e-12
2.08955579964e-05
-3.751057479e-12
2.08955598683e-05
-3.89651819756e-12
2.08955619115e-05
-4.06118705731e-12
2.08955641463e-05
-4.25531825329e-12
2.08955665916e-05
-4.49748637684e-12
2.08955692629e-05
-4.80098180243e-12
2.08955721973e-05
-5.17941923757e-12
2.08955754662e-05
-5.65259824851e-12
2.08955791565e-05
-6.24607881688e-12
2.08955833391e-05
-6.96231393951e-12
2.08955881375e-05
-7.84259622597e-12
2.08955937072e-05
-8.91072934494e-12
2.08956002269e-05
-1.01945672295e-11
2.08956079379e-05
-1.17461054278e-11
2.08956170705e-05
-1.36473733802e-11
2.08956279621e-05
-1.60157865866e-11
2.08956409427e-05
-1.89622256386e-11
2.08956564632e-05
-2.25510481949e-11
2.08956750754e-05
-2.68752161393e-11
2.08956972271e-05
-3.19564315007e-11
2.08957238291e-05
-3.83012098159e-11
2.08957574037e-05
-4.76077177499e-11
2.08957989008e-05
-5.83981482062e-11
2.08958500142e-05
-7.16182411333e-11
2.08959129228e-05
-8.79528130316e-11
2.0895990442e-05
-1.0817686963e-10
2.0896086062e-05
-1.3325273725e-10
2.08962041398e-05
-1.64352307569e-10
2.08963500329e-05
-2.0288757773e-10
2.08965303891e-05
-2.50580648669e-10
2.0896753434e-05
-3.09578601196e-10
2.08970292097e-05
-3.82527185897e-10
2.08973699967e-05
-4.72714194611e-10
2.08977905693e-05
-5.84383329587e-10
2.08983070588e-05
-7.23167057606e-10
2.0898950679e-05
-8.96125501026e-10
2.08997503749e-05
-1.1108301493e-09
2.09007422332e-05
-1.37681517074e-09
2.09019717302e-05
-1.70619020198e-09
2.09034953196e-05
-2.11408200274e-09
2.09053830647e-05
-2.61918802782e-09
2.09077219659e-05
-3.24482302931e-09
2.09106197195e-05
-4.0199724844e-09
2.09142101506e-05
-4.98061974841e-09
2.09186591024e-05
-6.1714236431e-09
2.09241726776e-05
-7.64790345772e-09
2.09310069149e-05
-9.47947034855e-09
2.09394797416e-05
-1.17526308773e-08
2.09499874213e-05
-1.45754127436e-08
2.09630237881e-05
-1.80833668235e-08
2.09792056294e-05
-2.24469736028e-08
2.09993047299e-05
-2.78814993836e-08
2.10242889684e-05
-3.46596889546e-08
2.10553773643e-05
-4.3129288047e-08
2.10941105816e-05
-5.37372068448e-08
2.11424462096e-05
-6.70622994409e-08
2.12028891758e-05
-8.38629337799e-08
2.12786715112e-05
-1.05146963142e-07
2.13740121128e-05
-1.32278077705e-07
2.14945017381e-05
-1.67146594847e-07
2.16477064121e-05
-2.12460817536e-07
2.18441733068e-05
-2.72287931091e-07
2.20992181302e-05
-3.53145090932e-07
2.24363230823e-05
-4.66399584456e-07
2.28939195954e-05
-6.33951445903e-07
2.35391927587e-05
-9.02125773908e-07
2.44942566426e-05
-1.37490508756e-06
2.59721213868e-05
-2.29215422675e-06
2.8264028824e-05
-4.21092498909e-06
-8.24735270726e-06
3.131974261e-05
5.35844274095e-05
1.25223867927e-05
5.29166002129e-05
1.78659199707e-05
4.96393016292e-05
1.59101395344e-05
4.58382172141e-05
1.2403996348e-05
4.24428744462e-05
9.10151985796e-06
3.97331593906e-05
6.49050518243e-06
3.76912455054e-05
4.56872237461e-06
3.62011671159e-05
3.19221306305e-06
3.5135593858e-05
2.21649252566e-06
3.43848448243e-05
1.52836026107e-06
3.3862659264e-05
1.04499793906e-06
3.35040068732e-05
7.07117042279e-07
3.32609628787e-05
4.72456383744e-07
3.30987208073e-05
3.10837957504e-07
3.29922908169e-05
2.00668944743e-07
3.29239196963e-05
1.26500173815e-07
3.28811298291e-05
7.7306927904e-08
3.28552512758e-05
4.52611260256e-08
3.28403348133e-05
2.4843685592e-08
3.28323548832e-05
1.21981104513e-08
3.28286290231e-05
4.65814582478e-09
3.28274050689e-05
4.07766624527e-10
3.28275645037e-05
-1.78987031276e-09
3.28284105888e-05
-2.73839847987e-09
3.28295266962e-05
-2.96609848696e-09
3.28306763956e-05
-2.80677272547e-09
3.2831736516e-05
-2.46584854188e-09
3.28326529953e-05
-2.06439841098e-09
3.28334116328e-05
-1.66945414409e-09
3.28340198902e-05
-1.31439388405e-09
3.28344955082e-05
-1.01246160868e-09
3.28348597557e-05
-7.65459909385e-10
3.28351337785e-05
-5.69214734758e-10
3.28353366212e-05
-4.16904481066e-10
3.28354845734e-05
-3.01000539525e-10
3.28355909613e-05
-2.14319145218e-10
3.28356663997e-05
-1.5051888442e-10
3.2835719119e-05
-1.04248596462e-10
3.28357554214e-05
-7.11547611554e-11
3.28357800288e-05
-4.7817083369e-11
3.28357964233e-05
-3.1592306312e-11
3.28358071565e-05
-2.04889804853e-11
3.28358140194e-05
-1.30144486052e-11
3.28358183038e-05
-8.08147765461e-12
3.28358208937e-05
-4.91015171274e-12
3.28358224399e-05
-2.92503927819e-12
3.283582336e-05
-1.71138884853e-12
3.28358238109e-05
-1.00143784643e-12
3.28358239889e-05
-5.92776683547e-13
3.28358240447e-05
-4.29766071046e-13
3.28358240677e-05
-3.87181982111e-13
3.28358240726e-05
-3.9154384639e-13
3.28358240904e-05
-4.35823230232e-13
3.28358241321e-05
-5.10992941119e-13
3.28358242085e-05
-5.94716369594e-13
3.28358243427e-05
-6.85363972958e-13
3.28358245252e-05
-7.87736488872e-13
3.28358247449e-05
-9.05298557862e-13
3.28358249825e-05
-1.027147601e-12
3.28358252358e-05
-1.15595673063e-12
3.28358254994e-05
-1.29107388322e-12
3.28358257736e-05
-1.4210187426e-12
3.28358260654e-05
-1.5424871724e-12
3.2835826387e-05
-1.65099213565e-12
3.28358267462e-05
-1.74849214738e-12
3.28358271295e-05
-1.83383358592e-12
3.28358275338e-05
-1.90707959573e-12
3.28358279435e-05
-1.97184717574e-12
3.2835828363e-05
-2.06097932589e-12
3.28358287898e-05
-2.14679409712e-12
3.28358292278e-05
-2.22226846523e-12
3.28358296913e-05
-2.29192501612e-12
3.28358301873e-05
-2.36089185085e-12
3.28358307217e-05
-2.42714125422e-12
3.28358313054e-05
-2.48908600653e-12
3.28358319396e-05
-2.55832815215e-12
3.28358326074e-05
-2.64261740585e-12
3.2835833297e-05
-2.74344339562e-12
3.28358340043e-05
-2.86481501755e-12
3.28358347378e-05
-3.00981910783e-12
3.28358355006e-05
-3.17737148503e-12
3.28358362951e-05
-3.3554221267e-12
3.28358371386e-05
-3.54004380168e-12
3.28358380321e-05
-3.73524688714e-12
3.2835838975e-05
-3.9383573988e-12
3.28358399588e-05
-4.14499060694e-12
3.28358409885e-05
-4.35622562175e-12
3.28358420826e-05
-4.57755564999e-12
3.28358432552e-05
-4.80054378407e-12
3.28358445398e-05
-5.01881069425e-12
3.28358459694e-05
-5.24942131479e-12
3.28358475754e-05
-5.51664802785e-12
3.28358493852e-05
-5.82991692392e-12
3.28358514247e-05
-6.20747054695e-12
3.28358537251e-05
-6.69213259997e-12
3.28358563157e-05
-7.31136206853e-12
3.28358592454e-05
-8.07022057849e-12
3.28358625866e-05
-8.96944089559e-12
3.28358664135e-05
-1.0028726877e-11
3.28358707456e-05
-1.12504010585e-11
3.28358761004e-05
-1.3149930464e-11
3.28358825842e-05
-1.53173533636e-11
3.28358904175e-05
-1.79302331442e-11
3.28358999234e-05
-2.11064285284e-11
3.28359114414e-05
-2.50056818296e-11
3.28359254714e-05
-2.98442090237e-11
3.2835942585e-05
-3.58840961798e-11
3.28359635258e-05
-4.33639769807e-11
3.2835989339e-05
-5.25865993513e-11
3.28360214628e-05
-6.39866650981e-11
3.28360614336e-05
-7.81341857598e-11
3.28361096763e-05
-9.5671017062e-11
3.2836168892e-05
-1.17360000685e-10
3.28362418181e-05
-1.44222617027e-10
3.28363316734e-05
-1.77522762418e-10
3.28364424822e-05
-2.1876907855e-10
3.28365792316e-05
-2.69835882009e-10
3.28367481447e-05
-3.33083591187e-10
3.28369568806e-05
-4.11415307848e-10
3.28372149285e-05
-5.08384266862e-10
3.28375340772e-05
-6.28387029318e-10
3.28379288579e-05
-7.76908320141e-10
3.28384172564e-05
-9.60775433488e-10
3.28390216721e-05
-1.18854694694e-09
3.28397698143e-05
-1.47106678444e-09
3.28406952918e-05
-1.82140357627e-09
3.2841840574e-05
-2.25601258645e-09
3.28432583937e-05
-2.79469994745e-09
3.28450140987e-05
-3.46195728108e-09
3.28471884624e-05
-4.2884213868e-09
3.28498813674e-05
-5.31210202534e-09
3.28532167369e-05
-6.58020959191e-09
3.28573480463e-05
-8.15142090001e-09
3.28624658922e-05
-1.00985769688e-08
3.28688065179e-05
-1.25122036127e-08
3.28766631947e-05
-1.5504781569e-08
3.2886400352e-05
-1.92165807665e-08
3.28984704959e-05
-2.38227031374e-08
3.29134369115e-05
-2.95417877312e-08
3.29320011731e-05
-3.66477193318e-08
3.29550386111e-05
-4.54845741012e-08
3.29836434592e-05
-5.64862748872e-08
3.30191861197e-05
-7.02023496313e-08
3.30633890433e-05
-8.73322628476e-08
3.31184248484e-05
-1.08772939353e-07
3.31870466251e-05
-1.35684143804e-07
3.32727650376e-05
-1.69581485703e-07
3.33800908922e-05
-2.1247322641e-07
3.35148797559e-05
-2.67067325594e-07
3.36848333292e-05
-3.37100166612e-07
3.39002566602e-05
-4.27884410214e-07
3.41752496989e-05
-5.47281404644e-07
3.45296295292e-05
-7.07525473499e-07
3.49920648534e-05
-9.28835718526e-07
3.56049669169e-05
-1.24685412447e-06
3.64309664677e-05
-1.7281259578e-06
3.75568815916e-05
-2.50082063722e-06
3.90739199321e-05
-3.80919252294e-06
4.09565271399e-05
-6.09353199301e-06
-9.98040941228e-06
4.268958515e-05
5.35705208493e-05
8.95186686601e-06
5.55863051974e-05
1.58501341357e-05
5.52410587863e-05
1.62553862965e-05
5.35976160591e-05
1.40474394273e-05
5.15429058241e-05
1.11562296801e-05
4.95819404714e-05
8.45147062771e-06
4.79262514096e-05
6.22441162893e-06
4.66200400265e-05
4.49842439565e-06
4.563223419e-05
3.20429842039e-06
4.49066880854e-05
2.25390644092e-06
4.43854427321e-05
1.56624329284e-06
4.40178333669e-05
1.07472636734e-06
4.37629128801e-05
7.27376884923e-07
4.35890453616e-05
4.84705456986e-07
4.34725021291e-05
3.17212165187e-07
4.3395869131e-05
2.03133200929e-07
4.33465911367e-05
1.26584962316e-07
4.33157570301e-05
7.60952495734e-08
4.32971356123e-05
4.3465126942e-08
4.32864340039e-05
2.28996779957e-08
4.32807407031e-05
1.0351438403e-08
4.32781179515e-05
3.03049688251e-09
4.32772912714e-05
-9.63204909507e-10
4.32774558107e-05
-2.90292199467e-09
4.3278107218e-05
-3.61752262317e-09
4.32789452583e-05
-3.64480361975e-09
4.32798002138e-05
-3.32084554499e-09
4.32805845377e-05
-2.84875474555e-09
4.32812603168e-05
-2.34527009247e-09
4.32818183982e-05
-1.8725081369e-09
4.32822650608e-05
-1.45913185909e-09
4.32826137945e-05
-1.11417938799e-09
4.32828805516e-05
-8.35904866927e-10
4.3283080973e-05
-6.17250928585e-10
4.32832291682e-05
-4.49118757306e-10
4.32833371104e-05
-3.22208286749e-10
4.32834146244e-05
-2.27993105238e-10
4.32834694965e-05
-1.59118478832e-10
4.32835077883e-05
-1.09481371115e-10
4.32835341277e-05
-7.42033949363e-11
4.32835519586e-05
-4.94765716944e-11
4.32835638289e-05
-3.24013857213e-11
4.3283571545e-05
-2.07936051414e-11
4.32835764402e-05
-1.3038808627e-11
4.32835794375e-05
-7.97043149333e-12
4.32835811947e-05
-4.73429992487e-12
4.3283582175e-05
-2.72925788571e-12
4.32835826995e-05
-1.54438608792e-12
4.32835830063e-05
-8.86345869591e-13
4.32835831467e-05
-5.53616753417e-13
4.32835831861e-05
-4.11336392185e-13
4.32835831589e-05
-3.59634819126e-13
4.32835831048e-05
-3.76723379615e-13
4.3283583047e-05
-4.46263715029e-13
4.32835829955e-05
-5.39538952228e-13
4.32835829637e-05
-6.45512696247e-13
4.32835829553e-05
-7.67703289153e-13
4.32835829649e-05
-9.02315253334e-13
4.32835829808e-05
-1.0442743158e-12
4.32835830021e-05
-1.19317148828e-12
4.32835830243e-05
-1.34843380293e-12
4.32835830508e-05
-1.49798766253e-12
4.32835830887e-05
-1.63373526828e-12
4.32835831488e-05
-1.75276280873e-12
4.32835832368e-05
-1.85854691131e-12
4.32835833385e-05
-1.95464681028e-12
4.32835834465e-05
-2.03662059929e-12
4.32835835607e-05
-2.11515182101e-12
4.32835836659e-05
-2.20705601749e-12
4.32835837582e-05
-2.29447217378e-12
4.32835838406e-05
-2.36842513794e-12
4.32835839276e-05
-2.4340637468e-12
4.328358403e-05
-2.49720341299e-12
4.3283584154e-05
-2.55986425097e-12
4.32835843052e-05
-2.62345231636e-12
4.32835844895e-05
-2.70676670702e-12
4.32835846945e-05
-2.81710222332e-12
4.32835849082e-05
-2.94412882795e-12
4.32835851282e-05
-3.09091181069e-12
4.32835853653e-05
-3.26611578063e-12
4.32835856265e-05
-3.46974969399e-12
4.32835859089e-05
-3.68116931639e-12
4.32835862273e-05
-3.89905546836e-12
4.32835865878e-05
-4.14216541769e-12
4.32835869896e-05
-4.4064456869e-12
4.32835874241e-05
-4.67223776187e-12
4.32835879013e-05
-4.93960902569e-12
4.32835884527e-05
-5.22990938408e-12
4.32835890942e-05
-5.53400671549e-12
4.32835898537e-05
-5.84359769386e-12
4.3283590769e-05
-6.18919466496e-12
4.32835918822e-05
-6.61496416249e-12
4.32835932179e-05
-7.12368372632e-12
4.32835948001e-05
-7.72871755721e-12
4.32835966851e-05
-8.50699074912e-12
4.32835989323e-05
-9.5093292385e-12
4.32836016229e-05
-1.07471203367e-11
4.32836048776e-05
-1.22331694718e-11
4.32836088975e-05
-1.40444976842e-11
4.32836139439e-05
-1.62828618798e-11
4.32836198526e-05
-1.90332287928e-11
4.32836270217e-05
-2.23962300216e-11
4.32836357656e-05
-2.65329118381e-11
4.32836464616e-05
-3.16308669413e-11
4.3283659509e-05
-3.79189477843e-11
4.32836754817e-05
-4.56778285837e-11
4.32836950738e-05
-5.53038320458e-11
4.32837190945e-05
-6.72358007583e-11
4.32837485993e-05
-8.19761594401e-11
4.32837848962e-05
-1.00187898812e-10
4.32838296903e-05
-1.22779038628e-10
4.32838850693e-05
-1.50858668996e-10
4.32839534877e-05
-1.8554578134e-10
4.32840379951e-05
-2.28435483037e-10
4.32841423423e-05
-2.8157005356e-10
4.32842712082e-05
-3.47395469644e-10
4.32844303911e-05
-4.28872231496e-10
4.32846271604e-05
-5.29707564037e-10
4.32848704859e-05
-6.54542045687e-10
4.32851714499e-05
-8.09098840885e-10
4.32855437967e-05
-1.00041542478e-09
4.32860045218e-05
-1.23726044953e-09
4.32865746649e-05
-1.53056490438e-09
4.3287280214e-05
-1.89389686517e-09
4.32881534167e-05
-2.34415114307e-09
4.32892342558e-05
-2.90212447023e-09
4.32905721087e-05
-3.59374728805e-09
4.32922281698e-05
-4.45075869606e-09
4.32942784193e-05
-5.51227326058e-09
4.32968170161e-05
-6.82699046643e-09
4.3299960369e-05
-8.45542998479e-09
4.33038528311e-05
-1.04726818587e-08
4.33086732243e-05
-1.29719708109e-08
4.331464349e-05
-1.60689794221e-08
4.3322038745e-05
-1.99075199324e-08
4.33312001716e-05
-2.46663471854e-08
4.33425514896e-05
-3.05679742223e-08
4.33566187133e-05
-3.78899761281e-08
4.33740558406e-05
-4.69788835149e-08
4.33956764677e-05
-5.82683051051e-08
4.34224940495e-05
-7.23022267254e-08
4.34557730896e-05
-8.97653027408e-08
4.34970936764e-05
-1.1152294423e-07
4.35484354165e-05
-1.38674122018e-07
4.36122857217e-05
-1.72623305029e-07
4.36917811671e-05
-2.15179634647e-07
4.37908956177e-05
-2.68695894847e-07
4.39146923435e-05
-3.36270012268e-07
4.40696696497e-05
-4.22044874541e-07
4.42642413237e-05
-5.31671908635e-07
4.45094141521e-05
-6.73057228853e-07
4.48197469955e-05
-8.57614162339e-07
4.52146758668e-05
-1.10245418722e-06
4.57201763589e-05
-1.43433633473e-06
4.63702058762e-05
-1.89688385647e-06
4.72056313582e-05
-2.56355166537e-06
4.82637102444e-05
-3.55889992183e-06
4.95403132676e-05
-5.08579559041e-06
5.08856737844e-05
-7.4388929225e-06
-1.09093770727e-05
5.1814642059e-05
5.27606091836e-05
6.19125853515e-06
5.57402404428e-05
1.2870501877e-05
5.7312411723e-05
1.46832148474e-05
5.76111981322e-05
1.3748653554e-05
5.71338685796e-05
1.16335589612e-05
5.63199841019e-05
9.26535503279e-06
5.54496451721e-05
7.09475074247e-06
5.46637031531e-05
5.28436644234e-06
5.40144133207e-05
3.85358824861e-06
5.35068428333e-05
2.76147698636e-06
5.31248783614e-05
1.94820776195e-06
5.28455243471e-05
1.35408036348e-06
5.26458881723e-05
9.27013055663e-07
5.25060755241e-05
6.24518098727e-07
5.2409997881e-05
4.13289808055e-07
5.23452163545e-05
2.67914719136e-07
5.23024114339e-05
1.69389902442e-07
5.22747665552e-05
1.03740114147e-07
5.22573944043e-05
6.08372921085e-08
5.22468523448e-05
3.34417121007e-08
5.22407561052e-05
1.64476630407e-08
5.22374831226e-05
6.30347790002e-09
5.22359419035e-05
5.78013458416e-10
5.22354266418e-05
-2.38762934429e-09
5.22354785851e-05
-3.66946068974e-09
5.22358134729e-05
-3.97966908665e-09
5.22362607462e-05
-3.76814804633e-09
5.22367235853e-05
-3.31163674085e-09
5.22371514068e-05
-2.77314213759e-09
5.22375218187e-05
-2.24294494451e-09
5.22378287904e-05
-1.76608596573e-09
5.2238075113e-05
-1.36046791998e-09
5.22382678576e-05
-1.02858067423e-09
5.22384155261e-05
-7.64860162629e-10
5.22385266419e-05
-5.6018076488e-10
5.22386088835e-05
-4.0443907156e-10
5.22386688507e-05
-2.87972127199e-10
5.22387119534e-05
-2.0224887259e-10
5.22387424974e-05
-1.40070996072e-10
5.22387638509e-05
-9.55993513133e-11
5.22387785547e-05
-6.42243681277e-11
5.22387885343e-05
-4.24042215345e-11
5.22387951677e-05
-2.74624381986e-11
5.22387994874e-05
-1.73987554662e-11
5.22388022324e-05
-1.07589671972e-11
5.22388039443e-05
-6.47892082195e-12
5.22388049868e-05
-3.78859212919e-12
5.22388055762e-05
-2.1386866382e-12
5.22388058698e-05
-1.15624620375e-12
5.22388059581e-05
-6.09222841098e-13
5.2238805913e-05
-3.33138918059e-13
5.22388057912e-05
-2.2534725374e-13
5.22388056444e-05
-2.34594004679e-13
5.22388054954e-05
-3.14273615308e-13
5.22388053552e-05
-4.26858651771e-13
5.22388052419e-05
-5.59618661774e-13
5.22388051511e-05
-7.07043930226e-13
5.22388050788e-05
-8.62271675072e-13
5.22388050069e-05
-1.01517931977e-12
5.2238804932e-05
-1.16273665915e-12
5.22388048537e-05
-1.30984991817e-12
5.22388047736e-05
-1.45229745562e-12
5.22388046969e-05
-1.58145591433e-12
5.22388046319e-05
-1.69393343624e-12
5.22388045853e-05
-1.79548670265e-12
5.22388045392e-05
-1.89052794149e-12
5.22388044835e-05
-1.97708332683e-12
5.22388044185e-05
-2.05929219019e-12
5.2238804341e-05
-2.14794487752e-12
5.22388042473e-05
-2.2338821611e-12
5.2238804141e-05
-2.30612589235e-12
5.22388040357e-05
-2.36854915495e-12
5.2238803937e-05
-2.42988420935e-12
5.22388038444e-05
-2.49367111838e-12
5.22388037581e-05
-2.56054434768e-12
5.22388036852e-05
-2.64585758156e-12
5.22388036174e-05
-2.76189136612e-12
5.2238803548e-05
-2.90114266564e-12
5.22388034803e-05
-3.05957660734e-12
5.22388034252e-05
-3.24539178885e-12
5.2238803385e-05
-3.46188520314e-12
5.22388033546e-05
-3.6935592727e-12
5.22388033494e-05
-3.93451553528e-12
5.22388033735e-05
-4.20143229677e-12
5.22388034216e-05
-4.49794756672e-12
5.22388034906e-05
-4.80458077586e-12
5.22388035987e-05
-5.11507333151e-12
5.22388037705e-05
-5.44876012272e-12
5.22388040125e-05
-5.81415982028e-12
5.22388043492e-05
-6.21073730009e-12
5.22388048164e-05
-6.6630331168e-12
5.22388054494e-05
-7.22040430618e-12
5.22388062723e-05
-7.91463477336e-12
5.2238807313e-05
-8.76545364677e-12
5.22388086346e-05
-9.83158252473e-12
5.22388103014e-05
-1.11776280332e-11
5.22388123965e-05
-1.28458004934e-11
5.2238815018e-05
-1.487477141e-11
5.2238818308e-05
-1.73446247059e-11
5.22388224572e-05
-2.04088880064e-11
5.22388276737e-05
-2.42183803298e-11
5.22388342328e-05
-2.88739164897e-11
5.22388424413e-05
-3.45960234834e-11
5.22388526883e-05
-4.16805112322e-11
5.22388653934e-05
-5.04626514555e-11
5.2238881136e-05
-6.13012838651e-11
5.22389006724e-05
-7.46927952356e-11
5.22389248813e-05
-9.12849530236e-11
5.22389548655e-05
-1.11826022918e-10
5.22389919896e-05
-1.37212486366e-10
5.22390379947e-05
-1.68613644116e-10
5.22390949058e-05
-2.07520845594e-10
5.22391652759e-05
-2.55653788466e-10
5.22392522856e-05
-3.15192355209e-10
5.22393598778e-05
-3.88901479389e-10
5.22394929502e-05
-4.80200896799e-10
5.22396575054e-05
-5.93233180622e-10
5.22398610659e-05
-7.33114025796e-10
5.22401129485e-05
-9.06236399472e-10
5.22404246953e-05
-1.12058512272e-09
5.22408105589e-05
-1.38598938618e-09
5.22412881563e-05
-1.71455200991e-09
5.22418793495e-05
-2.12141979489e-09
5.22426110875e-05
-2.62538335103e-09
5.22435167577e-05
-3.2497197605e-09
5.22446378085e-05
-4.02320085889e-09
5.22460255148e-05
-4.98148488175e-09
5.22477433871e-05
-6.16861665208e-09
5.22498700871e-05
-7.63895897066e-09
5.22525031418e-05
-9.45995687678e-09
5.22557631669e-05
-1.17153973932e-08
5.22597996672e-05
-1.4509192676e-08
5.22647978456e-05
-1.79702915647e-08
5.22709873513e-05
-2.22586441674e-08
5.22786527982e-05
-2.75729705867e-08
5.22881468634e-05
-3.41603524443e-08
5.22999070129e-05
-4.23280580259e-08
5.23144759006e-05
-5.24588677626e-08
5.23325272441e-05
-6.50302280811e-08
5.23548977371e-05
-8.0638755586e-08
5.23826273454e-05
-1.00031798021e-07
5.24170099284e-05
-1.2414786005e-07
5.24596568831e-05
-1.54169914306e-07
5.25125780785e-05
-1.91595453651e-07
5.25782846045e-05
-2.38330102698e-07
5.26599201907e-05
-2.96815560125e-07
5.27614301047e-05
-3.7020607606e-07
5.28877788884e-05
-4.62618939923e-07
5.30452319864e-05
-5.79498159383e-07
5.32417169864e-05
-7.28157238163e-07
5.34872756441e-05
-9.18616204485e-07
5.37945891586e-05
-1.16492788607e-06
5.41794684766e-05