/*--------------------------------*- C++ -*----------------------------------*\
| =========                 |                                                 |
| \\      /  F ield         | OpenFOAM: The Open Source CFD Toolbox           |
|  \\    /   O peration     | Version:  2106                                  |
|   \\  /    A nd           | Website:  www.openfoam.com                      |
|    \\/     M anipulation  |                                                 |
\*---------------------------------------------------------------------------*/
FoamFile
{
    version     2.0;
    format      ascii;
    arch        "LSB;label=32;scalar=64";
    class       volVectorField;
    location    "0.43";
    object      U;
}
// * * * * * * * * * * * * * * * * * * * * * * * * * * * * * * * * * * * * * //

dimensions      [0 1 -1 0 0 0 0];

internalField   nonuniform List<vector> 
9600
(
(0.675396184725 0.157677433646 0)
(0.563826155377 0.10243080695 0)
(0.381538927722 0.0510646932659 0)
(0.283853189719 0.0244589877033 0)
(0.23228102559 0.0119348229964 0)
(0.201907709002 0.00623035757927 0)
(0.183178408566 0.00352192611468 0)
(0.171271988258 0.00212007562069 0)
(0.163512245448 0.00132523566682 0)
(0.158392665802 0.000841456555072 0)
(0.15501070343 0.000534136123547 0)
(0.15278998506 0.000335039858775 0)
(0.151348696347 0.000205521339414 0)
(0.150429247501 0.000121792401767 0)
(0.149856459184 6.84340091531e-05 0)
(0.149511122631 3.51728742014e-05 0)
(0.149312513118 1.50862513202e-05 0)
(0.14920646352 3.50364615654e-06 0)
(0.14915708386 -2.7068694139e-06 0)
(0.149140974998 -5.61152549864e-06 0)
(0.149143258941 -6.52753256013e-06 0)
(0.149154655439 -6.41830722923e-06 0)
(0.149169594734 -5.78231490944e-06 0)
(0.149184967132 -4.9286162007e-06 0)
(0.149199138082 -4.04297900015e-06 0)
(0.14921138668 -3.2239587941e-06 0)
(0.149221524766 -2.51499674767e-06 0)
(0.149229652627 -1.92813596483e-06 0)
(0.149236007301 -1.4580640889e-06 0)
(0.1492408732 -1.09127776141e-06 0)
(0.149244533042 -8.11461335673e-07 0)
(0.149247241657 -6.01991988022e-07 0)
(0.149249216794 -4.47842327894e-07 0)
(0.149250636948 -3.36099777331e-07 0)
(0.149251643958 -2.56195640026e-07 0)
(0.149252347905 -1.9958560143e-07 0)
(0.149252832457 -1.59486537368e-07 0)
(0.14925316048 -1.30766881616e-07 0)
(0.149253378434 -1.09783902509e-07 0)
(0.149253520059 -9.39433200812e-08 0)
(0.149253609724 -8.16871154349e-08 0)
(0.149253665189 -7.29962293873e-08 0)
(0.149253697962 -6.9486398549e-08 0)
(0.14925371522 -7.04487872063e-08 0)
(0.149253722577 -7.35613762795e-08 0)
(0.149253724295 -7.80818990181e-08 0)
(0.149253722987 -8.41025644387e-08 0)
(0.149253720227 -9.17270070134e-08 0)
(0.14925371691 -1.00177557783e-07 0)
(0.149253713306 -1.09036789416e-07 0)
(0.149253709619 -1.18327857714e-07 0)
(0.149253705788 -1.28130964773e-07 0)
(0.149253701699 -1.38479687902e-07 0)
(0.149253697494 -1.49403636854e-07 0)
(0.14925369348 -1.61008389071e-07 0)
(0.14925368998 -1.73413684705e-07 0)
(0.149253686938 -1.86639201865e-07 0)
(0.149253684147 -2.00686219576e-07 0)
(0.149253681449 -2.15665069996e-07 0)
(0.149253678612 -2.31738243053e-07 0)
(0.149253675355 -2.48958987312e-07 0)
(0.149253671539 -2.67343214673e-07 0)
(0.14925366726 -2.86950002679e-07 0)
(0.149253662713 -3.07829335217e-07 0)
(0.149253658053 -3.29976054139e-07 0)
(0.149253653322 -3.53394159757e-07 0)
(0.149253648562 -3.7817808707e-07 0)
(0.149253643667 -4.0441168451e-07 0)
(0.149253638435 -4.32155685725e-07 0)
(0.149253632843 -4.61479179172e-07 0)
(0.149253626989 -4.92493886725e-07 0)
(0.149253620966 -5.25302769432e-07 0)
(0.149253614774 -5.59923537475e-07 0)
(0.149253608501 -5.96383185721e-07 0)
(0.149253602384 -6.34789355308e-07 0)
(0.149253596465 -6.75211816924e-07 0)
(0.149253590521 -7.17659607105e-07 0)
(0.149253584348 -7.62235904968e-07 0)
(0.14925357784 -8.09113373034e-07 0)
(0.149253570959 -8.5841850311e-07 0)
(0.149253563722 -9.1018534381e-07 0)
(0.149253556246 -9.64459958121e-07 0)
(0.149253548719 -1.02132752718e-06 0)
(0.149253541138 -1.08075399673e-06 0)
(0.149253533449 -1.14270764372e-06 0)
(0.14925352566 -1.20728906713e-06 0)
(0.149253517725 -1.27467761357e-06 0)
(0.149253509578 -1.34497132206e-06 0)
(0.149253501257 -1.41814543229e-06 0)
(0.149253493152 -1.49422270011e-06 0)
(0.149253485735 -1.57322756077e-06 0)
(0.149253479302 -1.65513026104e-06 0)
(0.149253474153 -1.73992031228e-06 0)
(0.149253470576 -1.82762784331e-06 0)
(0.14925346873 -1.91826525364e-06 0)
(0.149253468561 -2.01181282185e-06 0)
(0.14925347001 -2.10829291453e-06 0)
(0.149253473302 -2.20767645205e-06 0)
(0.149253478862 -2.30962702206e-06 0)
(0.149253487279 -2.4134999992e-06 0)
(0.149253499929 -2.5190942916e-06 0)
(0.149253518426 -2.62650744893e-06 0)
(0.149253544089 -2.73590124714e-06 0)
(0.1492535786 -2.84733028602e-06 0)
(0.149253623717 -2.96065748139e-06 0)
(0.14925368154 -3.07591962168e-06 0)
(0.149253754458 -3.19316596853e-06 0)
(0.14925384562 -3.31273405854e-06 0)
(0.149253959786 -3.43580118033e-06 0)
(0.149254102205 -3.56496896616e-06 0)
(0.149254279293 -3.70608521678e-06 0)
(0.149254500672 -3.86425069599e-06 0)
(0.149254777379 -4.03400680315e-06 0)
(0.149255121577 -4.21317932347e-06 0)
(0.149255548422 -4.401903176e-06 0)
(0.149256077161 -4.60127032079e-06 0)
(0.149256731822 -4.81257722746e-06 0)
(0.149257542279 -5.03710487728e-06 0)
(0.149258545687 -5.27612107296e-06 0)
(0.149259788065 -5.53121135488e-06 0)
(0.149261326513 -5.80454889648e-06 0)
(0.149263231004 -6.09894948763e-06 0)
(0.149265588699 -6.41964019224e-06 0)
(0.1492685166 -6.78215135904e-06 0)
(0.149272180597 -7.24111452654e-06 0)
(0.149276716326 -7.92071873659e-06 0)
(0.149282286708 -8.77177131034e-06 0)
(0.149289163462 -9.75062444984e-06 0)
(0.149297676976 -1.08511920702e-05 0)
(0.149308221461 -1.20848721925e-05 0)
(0.14932128018 -1.34701744919e-05 0)
(0.149337453075 -1.50321361178e-05 0)
(0.149357482964 -1.6802231407e-05 0)
(0.149382291358 -1.88198138752e-05 0)
(0.149413022137 -2.11335912821e-05 0)
(0.149451096265 -2.38053814952e-05 0)
(0.149498279005 -2.69139379924e-05 0)
(0.149556760322 -3.05570808205e-05 0)
(0.149629267021 -3.48600040171e-05 0)
(0.14971919774 -3.99824205949e-05 0)
(0.14983079138 -4.61264095432e-05 0)
(0.149969346345 -5.35483577997e-05 0)
(0.150141497882 -6.25743636076e-05 0)
(0.150355585073 -7.36249340748e-05 0)
(0.150622120875 -8.72415233517e-05 0)
(0.150954413418 -0.000104122362565 0)
(0.151369410361 -0.000125178597637 0)
(0.151888831953 -0.000151604890954 0)
(0.152540743204 -0.000184977636094 0)
(0.15336178092 -0.00022739061482 0)
(0.15440041447 -0.000281663309274 0)
(0.155721997883 -0.000351758056679 0)
(0.157417345302 -0.000443947169852 0)
(0.159620140991 -0.000571126567597 0)
(0.162548711222 -0.000769452289883 0)
(0.166611610173 -0.00115939735342 0)
(0.172736799439 -0.00216789848117 0)
(0.183704302425 -0.00538059674339 0)
(0.207881427448 -0.0167796365517 0)
(0.261131606899 -0.0583329961762 0)
(0.97720117753 0.2969971178 0)
(0.962687459956 0.250387271311 0)
(0.820646027198 0.158581012145 0)
(0.697824897298 0.0957993438036 0)
(0.610491664735 0.0579132761332 0)
(0.549133314312 0.03590385124 0)
(0.506705988531 0.0229309354555 0)
(0.477662023685 0.0149788796277 0)
(0.457815305252 0.00990973251707 0)
(0.444277683084 0.00658330992497 0)
(0.43508723372 0.0043619881527 0)
(0.42889556227 0.00286682768724 0)
(0.424768042978 0.00185972108336 0)
(0.422054232043 0.00118457268503 0)
(0.4203010488 0.000736110741105 0)
(0.419193675868 0.000442158576742 0)
(0.418514607228 0.000252859087231 0)
(0.418114831881 0.00013373866475 0)
(0.417893374233 6.10522108247e-05 0)
(0.417782731573 1.85775514792e-05 0)
(0.417738473788 -4.63499315751e-06 0)
(0.417731935871 -1.601099783e-05 0)
(0.417745151214 -2.03071707332e-05 0)
(0.41776717455 -2.06099746027e-05 0)
(0.417791623682 -1.88563333856e-05 0)
(0.417815037865 -1.62213395555e-05 0)
(0.417835757157 -1.33833059192e-05 0)
(0.41785318912 -1.07054586895e-05 0)
(0.417867337769 -8.35713703326e-06 0)
(0.417878508942 -6.39355954948e-06 0)
(0.417887134387 -4.80737764993e-06 0)
(0.417893668802 -3.55950669534e-06 0)
(0.417898536853 -2.59860492823e-06 0)
(0.417902108462 -1.87189726401e-06 0)
(0.417904691422 -1.33095750713e-06 0)
(0.417906533555 -9.33995912898e-07 0)
(0.417907828913 -6.46364535525e-07 0)
(0.417908726462 -4.40353101548e-07 0)
(0.417909338646 -2.94664283787e-07 0)
(0.417909748797 -1.93121805799e-07 0)
(0.417910017336 -1.23549128316e-07 0)
(0.417910187467 -7.74826054127e-08 0)
(0.417910290751 -4.95295807176e-08 0)
(0.417910350706 -3.43540453748e-08 0)
(0.417910382739 -2.66888932589e-08 0)
(0.417910396477 -2.31863542114e-08 0)
(0.41791039879 -2.15583280594e-08 0)
(0.417910395213 -2.01519773426e-08 0)
(0.417910389101 -1.93045312583e-08 0)
(0.417910381404 -1.9267982263e-08 0)
(0.417910372775 -2.0001937028e-08 0)
(0.417910363574 -2.13253195225e-08 0)
(0.417910353921 -2.30996470855e-08 0)
(0.417910343989 -2.51675534711e-08 0)
(0.417910334005 -2.74511491829e-08 0)
(0.417910324293 -3.00437347496e-08 0)
(0.417910314835 -3.28749468885e-08 0)
(0.417910305348 -3.57740198224e-08 0)
(0.41791029557 -3.86809543174e-08 0)
(0.417910285336 -4.17211643322e-08 0)
(0.417910274493 -4.49324604245e-08 0)
(0.417910262903 -4.8257172945e-08 0)
(0.417910250618 -5.16766306316e-08 0)
(0.417910237848 -5.51982034893e-08 0)
(0.417910224754 -5.88146186242e-08 0)
(0.417910211272 -6.24539683373e-08 0)
(0.417910197331 -6.61788224167e-08 0)
(0.417910182783 -7.010090996e-08 0)
(0.417910167385 -7.4287437067e-08 0)
(0.417910151066 -7.86690502467e-08 0)
(0.417910133894 -8.32605019013e-08 0)
(0.417910116036 -8.8124915491e-08 0)
(0.417910097588 -9.32048812942e-08 0)
(0.41791007863 -9.8375413087e-08 0)
(0.417910059419 -1.03655683969e-07 0)
(0.41791004011 -1.09141925558e-07 0)
(0.417910020491 -1.14853333468e-07 0)
(0.417910000246 -1.2088391014e-07 0)
(0.417909979188 -1.27395780147e-07 0)
(0.417909957303 -1.34479529265e-07 0)
(0.417909934649 -1.42061210568e-07 0)
(0.417909911345 -1.50025582504e-07 0)
(0.417909887705 -1.58404528155e-07 0)
(0.417909863891 -1.67150312704e-07 0)
(0.417909839844 -1.76165401264e-07 0)
(0.417909815478 -1.85482086597e-07 0)
(0.417909790773 -1.95270242791e-07 0)
(0.417909765852 -2.05637712226e-07 0)
(0.417909740936 -2.16448082939e-07 0)
(0.417909716598 -2.27641500802e-07 0)
(0.417909693589 -2.39338024066e-07 0)
(0.417909672454 -2.51664746414e-07 0)
(0.417909653638 -2.64703288279e-07 0)
(0.417909637616 -2.78565572113e-07 0)
(0.417909624902 -2.93426757282e-07 0)
(0.417909615958 -3.09479934313e-07 0)
(0.417909611425 -3.27031054121e-07 0)
(0.417909612513 -3.46498270147e-07 0)
(0.417909620852 -3.68413550791e-07 0)
(0.41790963788 -3.93537316688e-07 0)
(0.41790966591 -4.23619909543e-07 0)
(0.417909708056 -4.57886045334e-07 0)
(0.417909767538 -4.96250812534e-07 0)
(0.417909848649 -5.39122494887e-07 0)
(0.41790995627 -5.87004118628e-07 0)
(0.417910096206 -6.40831312325e-07 0)
(0.417910275237 -7.01525290678e-07 0)
(0.41791050125 -7.69677313333e-07 0)
(0.417910784115 -8.45931364883e-07 0)
(0.417911133629 -9.29227654173e-07 0)
(0.417911564625 -1.01410808927e-06 0)
(0.417912110323 -1.09546089011e-06 0)
(0.41791280453 -1.18448431225e-06 0)
(0.417913675256 -1.28813686225e-06 0)
(0.417914760124 -1.41145380352e-06 0)
(0.417916108622 -1.56049105468e-06 0)
(0.41791778329 -1.74278676237e-06 0)
(0.417919861884 -1.96740480089e-06 0)
(0.417922440558 -2.24519366649e-06 0)
(0.417925638028 -2.58956967172e-06 0)
(0.41792960144 -3.0174903907e-06 0)
(0.417934511631 -3.54998354285e-06 0)
(0.417940588901 -4.21428099e-06 0)
(0.417948096688 -5.05057187776e-06 0)
(0.417957349141 -6.13488944161e-06 0)
(0.417968807562 -7.60882462952e-06 0)
(0.41798306355 -9.50509035728e-06 0)
(0.418000767427 -1.18740227831e-05 0)
(0.418022722036 -1.48103116792e-05 0)
(0.418049933224 -1.84432142414e-05 0)
(0.418083650476 -2.29340863677e-05 0)
(0.418125424945 -2.84847013682e-05 0)
(0.418177179356 -3.53450919229e-05 0)
(0.418241298573 -4.38246722644e-05 0)
(0.418320741323 -5.43058338338e-05 0)
(0.41841917974 -6.72634557061e-05 0)
(0.418541176045 -8.32909549517e-05 0)
(0.418692395305 -0.000103125712897 0)
(0.418879885168 -0.000127689843997 0)
(0.419112427387 -0.000158141718562 0)
(0.419400976295 -0.000195938567066 0)
(0.419759222314 -0.000242921652256 0)
(0.420204309296 -0.000301425952499 0)
(0.420757775725 -0.000374435762069 0)
(0.421446780492 -0.000465792206338 0)
(0.422305716508 -0.0005804745626 0)
(0.423378399896 -0.000725014688761 0)
(0.424721063837 -0.000908097349963 0)
(0.426406571061 -0.00114146915464 0)
(0.428530538584 -0.00144138978006 0)
(0.431220618951 -0.00183111936498 0)
(0.434651381681 -0.00234565286282 0)
(0.439069675257 -0.00304180358286 0)
(0.444841529773 -0.00402258233984 0)
(0.452545067722 -0.00550210254216 0)
(0.46314846137 -0.00798451146724 0)
(0.478346043587 -0.0127591288697 0)
(0.501415630783 -0.0233249133694 0)
(0.538713483823 -0.0494081775332 0)
(0.594204053112 -0.114270595591 0)
(1.03387039431 0.239240958479 0)
(1.0831408167 0.293634378442 0)
(1.03294437015 0.239131935566 0)
(0.954408208903 0.174539015505 0)
(0.880112582758 0.121551462542 0)
(0.818677613793 0.0832335940689 0)
(0.771466793953 0.0568258119177 0)
(0.736691574453 0.038812573462 0)
(0.711672102884 0.0264913192026 0)
(0.693953131913 0.0180235773421 0)
(0.681568204784 0.0121876211462 0)
(0.673018602506 0.00816650410856 0)
(0.667192232214 0.00540556613823 0)
(0.663277747902 0.0035222626309 0)
(0.660690308458 0.00224961200006 0)
(0.659012733721 0.00140002816618 0)
(0.657950526516 0.000841456324209 0)
(0.657298073322 0.000481123891581 0)
(0.656913529852 0.000254195214444 0)
(0.656700338771 0.000115711986768 0)
(0.656593730332 3.47972818307e-05 0)
(0.656551016191 -9.46477127684e-06 0)
(0.6565446724 -3.10090062176e-05 0)
(0.656557369735 -3.90727574674e-05 0)
(0.656578552563 -3.95448395076e-05 0)
(0.656602075721 -3.61168822856e-05 0)
(0.656624605204 -3.10272148687e-05 0)
(0.656644542424 -2.55658001692e-05 0)
(0.656661316816 -2.04215496284e-05 0)
(0.656674931416 -1.59142166953e-05 0)
(0.656685681128 -1.21472519197e-05 0)
(0.656693980986 -9.10452009745e-06 0)
(0.656700268701 -6.71069129847e-06 0)
(0.656704952685 -4.86747150634e-06 0)
(0.656708388584 -3.47420439292e-06 0)
(0.65671087253 -2.43851332438e-06 0)
(0.656712642737 -1.68075171481e-06 0)
(0.656713885942 -1.13484858873e-06 0)
(0.656714745644 -7.478505694e-07 0)
(0.656715330405 -4.78444266849e-07 0)
(0.656715720805 -2.94560308323e-07 0)
(0.656715975839 -1.71664152148e-07 0)
(0.656716137911 -9.08470776205e-08 0)
(0.656716237272 -3.89586745408e-08 0)
(0.656716295083 -6.96850567946e-09 0)
(0.656716326103 1.20218431837e-08 0)
(0.656716340594 2.30799847775e-08 0)
(0.656716344175 2.99306350295e-08 0)
(0.656716340215 3.40547973371e-08 0)
(0.656716331912 3.71569284709e-08 0)
(0.656716321547 4.00784773672e-08 0)
(0.656716310138 4.30287179305e-08 0)
(0.656716298066 4.61275092111e-08 0)
(0.656716285669 4.9486617624e-08 0)
(0.656716273118 5.32538087493e-08 0)
(0.656716260689 5.73195309488e-08 0)
(0.65671624847 6.15211518517e-08 0)
(0.656716236236 6.58767668922e-08 0)
(0.65671622364 7.04738121981e-08 0)
(0.656716210442 7.53601527878e-08 0)
(0.656716196548 8.05530298471e-08 0)
(0.656716181872 8.61239410116e-08 0)
(0.656716166451 9.21718201395e-08 0)
(0.656716150453 9.87489732392e-08 0)
(0.656716134044 1.05851251029e-07 0)
(0.656716117123 1.13549158552e-07 0)
(0.656716099488 1.21858576677e-07 0)
(0.656716080926 1.30704672179e-07 0)
(0.656716061289 1.40235875864e-07 0)
(0.656716040554 1.50517464366e-07 0)
(0.656716018722 1.61559334839e-07 0)
(0.65671599597 1.73314500772e-07 0)
(0.656715972496 1.85776816416e-07 0)
(0.656715948401 1.99053783698e-07 0)
(0.656715923838 2.13179835539e-07 0)
(0.656715898936 2.28006647149e-07 0)
(0.656715873529 2.43445654385e-07 0)
(0.656715847303 2.59458459123e-07 0)
(0.656715820092 2.75999162257e-07 0)
(0.656715791949 2.93088300401e-07 0)
(0.656715762988 3.10863548957e-07 0)
(0.656715733259 3.29559184257e-07 0)
(0.656715702985 3.49226755792e-07 0)
(0.656715672388 3.69854249027e-07 0)
(0.656715641497 3.91538679149e-07 0)
(0.65671561024 4.14361116692e-07 0)
(0.656715578621 4.38310847213e-07 0)
(0.656715546917 4.63395744829e-07 0)
(0.656715515496 4.89862470677e-07 0)
(0.656715484904 5.17885996271e-07 0)
(0.656715455886 5.47320466029e-07 0)
(0.656715429142 5.7794508513e-07 0)
(0.65671540528 6.09677086243e-07 0)
(0.656715384887 6.42358257566e-07 0)
(0.656715368673 6.75646658798e-07 0)
(0.656715357364 7.09336805138e-07 0)
(0.656715351829 7.43333151702e-07 0)
(0.656715353336 7.77563695e-07 0)
(0.656715363389 8.11972078274e-07 0)
(0.656715383328 8.47307548595e-07 0)
(0.65671541837 8.85537290826e-07 0)
(0.656715474645 9.24007807067e-07 0)
(0.656715555937 9.6126987234e-07 0)
(0.656715667622 9.96113829523e-07 0)
(0.656715816403 1.02684170605e-06 0)
(0.656716010758 1.0510641152e-06 0)
(0.656716261457 1.06596456885e-06 0)
(0.656716581674 1.06925789581e-06 0)
(0.656716989468 1.05814019723e-06 0)
(0.656717509605 1.03018505323e-06 0)
(0.656718170473 9.86687916831e-07 0)
(0.656718993479 9.28573717468e-07 0)
(0.656720009442 8.39946399226e-07 0)
(0.656721270977 7.07002103548e-07 0)
(0.656722838039 5.16052577214e-07 0)
(0.656724782419 2.50834831289e-07 0)
(0.656727193281 -1.09176323292e-07 0)
(0.656730181606 -5.89869792552e-07 0)
(0.656733884768 -1.22314675556e-06 0)
(0.65673847231 -2.04825318939e-06 0)
(0.656744154627 -3.11410311121e-06 0)
(0.656751192151 -4.4817280456e-06 0)
(0.656759907213 -6.22686717088e-06 0)
(0.656770699272 -8.44304421486e-06 0)
(0.656784057589 -1.12403397382e-05 0)
(0.656800590986 -1.473757177e-05 0)
(0.656821058109 -1.91386978394e-05 0)
(0.656846394867 -2.46882005576e-05 0)
(0.656877766704 -3.16766493343e-05 0)
(0.656916618241 -4.04613942047e-05 0)
(0.656964734689 -5.14834550307e-05 0)
(0.657024327109 -6.52907739521e-05 0)
(0.657098135919 -8.25639505962e-05 0)
(0.657189560078 -0.000104147080799 0)
(0.657302815837 -0.000131087628468 0)
(0.657443133238 -0.000164685778835 0)
(0.657617008014 -0.000206562489582 0)
(0.657832507494 -0.000258738047396 0)
(0.658099660931 -0.000323733037728 0)
(0.658430954396 -0.00040470518729 0)
(0.658841950754 -0.00050562220555 0)
(0.659352081925 -0.000631490576046 0)
(0.659985654662 -0.000788654426676 0)
(0.660773156297 -0.000985199681628 0)
(0.661752957532 -0.00123151456466 0)
(0.66297354223 -0.00154105921073 0)
(0.66449649929 -0.00193147244225 0)
(0.666400591949 -0.00242620803926 0)
(0.66878742182 -0.00305703062172 0)
(0.671789540644 -0.00386802827098 0)
(0.675582444839 -0.00492242904707 0)
(0.680403034419 -0.0063150332661 0)
(0.686578961459 -0.00819658418737 0)
(0.694576734057 -0.0108246887875 0)
(0.705081472845 -0.0146760533716 0)
(0.719114312481 -0.0206985335012 0)
(0.738149364011 -0.0308556044498 0)
(0.764183649559 -0.0492303156425 0)
(0.79926705513 -0.0840788410037 0)
(0.839658793622 -0.14912481982 0)
(1.03384129091 0.171306944078 0)
(1.10231585115 0.275556741531 0)
(1.11663620225 0.266312374571 0)
(1.09207924748 0.219892600578 0)
(1.05195419876 0.168210314878 0)
(1.01022221294 0.123615336859 0)
(0.973507719461 0.088885059966 0)
(0.943885949503 0.0630494624846 0)
(0.921162803042 0.0442607996899 0)
(0.90429982801 0.0307744361052 0)
(0.892086141118 0.0211830169411 0)
(0.883411239273 0.014417300074 0)
(0.877355067579 0.00968544341706 0)
(0.87319622041 0.00640758839342 0)
(0.87038806815 0.00416172487348 0)
(0.868526263028 0.00264232319397 0)
(0.867317306644 0.00162947849695 0)
(0.866551594173 0.000966025980483 0)
(0.866081667883 0.000540573015868 0)
(0.865805310771 0.000274926259292 0)
(0.865652735933 0.000114790288338 0)
(0.865577103012 2.29542535879e-05 0)
(0.865547489531 -2.57272612676e-05 0)
(0.86554395149 -4.80474532917e-05 0)
(0.865553998808 -5.49270946993e-05 0)
(0.865570001791 -5.33279480331e-05 0)
(0.865587538785 -4.75744791334e-05 0)
(0.865604228043 -4.02468963744e-05 0)
(0.86561894056 -3.27998533815e-05 0)
(0.865631286147 -2.59820969822e-05 0)
(0.865641286525 -2.01152303017e-05 0)
(0.865649169966 -1.5274368989e-05 0)
(0.865655248583 -1.14026724132e-05 0)
(0.865659847805 -8.38160708448e-06 0)
(0.865663269575 -6.0723574731e-06 0)
(0.865665776171 -4.33866446041e-06 0)
(0.865667585397 -3.05831030922e-06 0)
(0.865668872362 -2.12721171746e-06 0)
(0.865669774187 -1.45985245122e-06 0)
(0.865670396381 -9.8837339772e-07 0)
(0.865670818405 -6.60028046668e-07 0)
(0.865671099079 -4.34915693019e-07 0)
(0.865671281001 -2.83245998382e-07 0)
(0.865671394851 -1.83233147269e-07 0)
(0.865671462591 -1.19088966236e-07 0)
(0.865671499609 -7.92759219059e-08 0)
(0.865671516842 -5.58129117735e-08 0)
(0.865671521769 -4.32407701329e-08 0)
(0.865671519648 -3.71334706685e-08 0)
(0.865671513349 -3.45264026878e-08 0)
(0.865671503971 -3.41104881609e-08 0)
(0.865671492359 -3.55344004223e-08 0)
(0.865671479206 -3.83690598596e-08 0)
(0.865671465084 -4.22321648968e-08 0)
(0.865671450247 -4.67888862159e-08 0)
(0.865671434881 -5.18438478275e-08 0)
(0.865671419106 -5.73505680346e-08 0)
(0.865671402861 -6.32665075559e-08 0)
(0.86567138595 -6.94797401024e-08 0)
(0.865671368219 -7.5903179151e-08 0)
(0.865671349588 -8.25099522862e-08 0)
(0.865671330021 -8.92450027938e-08 0)
(0.865671309589 -9.60560229737e-08 0)
(0.865671288436 -1.02939085641e-07 0)
(0.865671266703 -1.0994671464e-07 0)
(0.865671244266 -1.17116143083e-07 0)
(0.86567122086 -1.2450387864e-07 0)
(0.865671196378 -1.32243906154e-07 0)
(0.865671170638 -1.4026795692e-07 0)
(0.865671143417 -1.4857134291e-07 0)
(0.865671114687 -1.57139968335e-07 0)
(0.865671084616 -1.65967900351e-07 0)
(0.865671053446 -1.7506435866e-07 0)
(0.865671021319 -1.84443899521e-07 0)
(0.865670988334 -1.94197604314e-07 0)
(0.86567095461 -2.04576447802e-07 0)
(0.865670920072 -2.15785632713e-07 0)
(0.865670884453 -2.27934757669e-07 0)
(0.8656708476 -2.4108580475e-07 0)
(0.865670809612 -2.55223410245e-07 0)
(0.865670770666 -2.70287827972e-07 0)
(0.8656707308 -2.86182261399e-07 0)
(0.865670690152 -3.02893923214e-07 0)
(0.865670648969 -3.20451312939e-07 0)
(0.865670607331 -3.38864964016e-07 0)
(0.865670565161 -3.58211053718e-07 0)
(0.865670522504 -3.78549009803e-07 0)
(0.865670479827 -3.99853406516e-07 0)
(0.865670437653 -4.22091616536e-07 0)
(0.865670396489 -4.45403693441e-07 0)
(0.865670357055 -4.70164191696e-07 0)
(0.865670320204 -4.96845061017e-07 0)
(0.865670286637 -5.25951250025e-07 0)
(0.865670256899 -5.58093289734e-07 0)
(0.865670231912 -5.94035406992e-07 0)
(0.865670212943 -6.34384376442e-07 0)
(0.865670201485 -6.79568771841e-07 0)
(0.865670199665 -7.29908994417e-07 0)
(0.86567021083 -7.8582215667e-07 0)
(0.865670239409 -8.47307990379e-07 0)
(0.865670286857 -9.1295374116e-07 0)
(0.865670355629 -9.85722566317e-07 0)
(0.865670452609 -1.06789187471e-06 0)
(0.865670584984 -1.16159504497e-06 0)
(0.865670760597 -1.26959950364e-06 0)
(0.865670989215 -1.39549117861e-06 0)
(0.865671283554 -1.54406569764e-06 0)
(0.865671658599 -1.72037199977e-06 0)
(0.865672132832 -1.93093023436e-06 0)
(0.865672730118 -2.18573042033e-06 0)
(0.86567348135 -2.50049906986e-06 0)
(0.865674423068 -2.89326497364e-06 0)
(0.865675599496 -3.37377714334e-06 0)
(0.865677066495 -3.96023634236e-06 0)
(0.86567889154 -4.67803088223e-06 0)
(0.865681157975 -5.55808868576e-06 0)
(0.865683969463 -6.63829856141e-06 0)
(0.865687455345 -7.96626875138e-06 0)
(0.865691776294 -9.60128711324e-06 0)
(0.8656971306 -1.16163389056e-05 0)
(0.865703763764 -1.41014495462e-05 0)
(0.865711979718 -1.71690549133e-05 0)
(0.865722154701 -2.09597398426e-05 0)
(0.865734754174 -2.56499747526e-05 0)
(0.865750353274 -3.1462958736e-05 0)
(0.865769665667 -3.8669696047e-05 0)
(0.865793575128 -4.76013270062e-05 0)
(0.865823173657 -5.86605520812e-05 0)
(0.865859816868 -7.23479139467e-05 0)
(0.865905186565 -8.9290797136e-05 0)
(0.865961363725 -0.000110270215544 0)
(0.866030925003 -0.000136256791967 0)
(0.866117063628 -0.000168457032598 0)
(0.866223739476 -0.000208369169826 0)
(0.866355863692 -0.000257856183071 0)
(0.866519525051 -0.000319233838881 0)
(0.866722280056 -0.000395387275135 0)
(0.866973510438 -0.000489916971957 0)
(0.867284871194 -0.000607318543447 0)
(0.867670855512 -0.000753220615189 0)
(0.868149503304 -0.000934690353582 0)
(0.86874330157 -0.00116063296921 0)
(0.869480322727 -0.00144231938637 0)
(0.870395683622 -0.00179408632579 0)
(0.871533431848 -0.00223429875753 0)
(0.872948991667 -0.002786679636 0)
(0.874712385556 -0.00348219146874 0)
(0.876912529892 -0.00436179276879 0)
(0.879663053295 -0.00548059017833 0)
(0.88311032117 -0.00691436962199 0)
(0.88744468305 -0.00877033877694 0)
(0.892916435174 -0.0112057050753 0)
(0.899858367843 -0.0144614736375 0)
(0.9087163914 -0.018926264636 0)
(0.92008623663 -0.0252597413743 0)
(0.934735037222 -0.0346299935592 0)
(0.95352441551 -0.0491363587059 0)
(0.977073020315 -0.0724308719397 0)
(1.00472664427 -0.110289821763 0)
(1.03070530364 -0.169378248353 0)
(1.02388346725 0.11932198354 0)
(1.08875436846 0.231514416873 0)
(1.13660482742 0.25286894155 0)
(1.15406272702 0.2289050463 0)
(1.15000112673 0.188337383822 0)
(1.13537623691 0.146577292256 0)
(1.11757777752 0.110164821376 0)
(1.1005919993 0.0808376069873 0)
(1.08612241474 0.058250202207 0)
(1.07458762158 0.0413417873311 0)
(1.06578679943 0.0289362845917 0)
(1.05928156842 0.0199770213574 0)
(1.05459132841 0.0135949312416 0)
(1.05128026951 0.00910742833935 0)
(1.04898736256 0.00599313406898 0)
(1.04742905322 0.00386144261436 0)
(1.04639046075 0.00242413777287 0)
(1.04571299336 0.00147134906806 0)
(1.04528206238 0.000852136267977 0)
(1.04501638065 0.00045926248146 0)
(1.0448592578 0.000217488203611 0)
(1.04477182816 7.47161392496e-05 0)
(1.04472784697 -4.6478171875e-06 0)
(1.04470998102 -4.44470693267e-05 0)
(1.04470705475 -6.05365564851e-05 0)
(1.04471197734 -6.30931773713e-05 0)
(1.04472041732 -5.85434210178e-05 0)
(1.04472985811 -5.08105396467e-05 0)
(1.04473893198 -4.21793609622e-05 0)
(1.04474697835 -3.38921134779e-05 0)
(1.0447537575 -2.65472192714e-05 0)
(1.04475926508 -2.03609215501e-05 0)
(1.04476361678 -1.53357101377e-05 0)
(1.04476697822 -1.13653483497e-05 0)
(1.044769525 -8.29835220001e-06 0)
(1.04477142165 -5.97410696234e-06 0)
(1.04477281181 -4.24234420286e-06 0)
(1.04477381552 -2.97199163982e-06 0)
(1.0447745294 -2.05339403159e-06 0)
(1.04477502946 -1.3982409567e-06 0)
(1.04477537403 -9.37215557462e-07 0)
(1.04477560711 -6.17311935355e-07 0)
(1.04477576109 -3.98535289376e-07 0)
(1.04477585958 -2.5104206082e-07 0)
(1.04477591988 -1.5306348576e-07 0)
(1.04477595447 -8.88275781197e-08 0)
(1.04477597214 -4.72302883656e-08 0)
(1.04477597842 -2.07115484087e-08 0)
(1.04477597697 -4.39788254631e-09 0)
(1.04477597017 4.78773847243e-09 0)
(1.04477595946 9.50389824801e-09 0)
(1.04477594609 1.1723032102e-08 0)
(1.04477593109 1.27689674839e-08 0)
(1.04477591512 1.32267646025e-08 0)
(1.04477589847 1.32614197301e-08 0)
(1.04477588139 1.29512651991e-08 0)
(1.04477586397 1.23867559481e-08 0)
(1.04477584608 1.16768623695e-08 0)
(1.04477582748 1.10289809e-08 0)
(1.04477580791 1.05482216064e-08 0)
(1.0447757873 1.02527382091e-08 0)
(1.04477576566 1.02547677682e-08 0)
(1.04477574302 1.06697592057e-08 0)
(1.04477571948 1.15581256874e-08 0)
(1.04477569515 1.28781351169e-08 0)
(1.04477566989 1.45703808548e-08 0)
(1.04477564337 1.66122883439e-08 0)
(1.04477561546 1.89103533597e-08 0)
(1.0447755861 2.131008871e-08 0)
(1.04477555519 2.39476310493e-08 0)
(1.04477552272 2.69661084528e-08 0)
(1.04477548884 3.03781561201e-08 0)
(1.04477545374 3.4133067455e-08 0)
(1.04477541745 3.81797038517e-08 0)
(1.04477537994 4.24578832124e-08 0)
(1.04477534127 4.6741310412e-08 0)
(1.04477530141 5.08311682791e-08 0)
(1.04477526022 5.47439753834e-08 0)
(1.04477521766 5.85522107559e-08 0)
(1.04477517386 6.22853591636e-08 0)
(1.04477512898 6.59745828353e-08 0)
(1.04477508298 6.97671213109e-08 0)
(1.04477503597 7.37591423487e-08 0)
(1.04477498819 7.78730553195e-08 0)
(1.04477493964 8.20629570758e-08 0)
(1.04477489027 8.64150663184e-08 0)
(1.04477484025 9.10191073388e-08 0)
(1.04477479006 9.5839769336e-08 0)
(1.04477474009 1.00795561181e-07 0)
(1.04477469071 1.05786417359e-07 0)
(1.04477464257 1.10512866988e-07 0)
(1.04477459641 1.14398962848e-07 0)
(1.04477455291 1.16822525661e-07 0)
(1.04477451263 1.17230716947e-07 0)
(1.04477447658 1.14775202076e-07 0)
(1.04477444614 1.08540774302e-07 0)
(1.04477442286 9.77315321911e-08 0)
(1.04477440864 8.15110091675e-08 0)
(1.04477440598 5.83389009783e-08 0)
(1.04477441859 2.53395150487e-08 0)
(1.0447744503 -2.10992580392e-08 0)
(1.04477450578 -8.18789979208e-08 0)
(1.04477459122 -1.59882078123e-07 0)
(1.0447747137 -2.59207242386e-07 0)
(1.04477488133 -3.84729583064e-07 0)
(1.04477510413 -5.41947845787e-07 0)
(1.04477539552 -7.38233917912e-07 0)
(1.04477577188 -9.82373894755e-07 0)
(1.04477625294 -1.28420271987e-06 0)
(1.04477686327 -1.65549556017e-06 0)
(1.04477763393 -2.1116052787e-06 0)
(1.04477860227 -2.67264913837e-06 0)
(1.04477981355 -3.36280539292e-06 0)
(1.04478132487 -4.21348284089e-06 0)
(1.04478320685 -5.26370979059e-06 0)
(1.04478554708 -6.56059496632e-06 0)
(1.04478845349 -8.16093109179e-06 0)
(1.04479205991 -1.01351541191e-05 0)
(1.04479653295 -1.25713357825e-05 0)
(1.04480207898 -1.55783189631e-05 0)
(1.04480895311 -1.9290504376e-05 0)
(1.04481747049 -2.38750602266e-05 0)
(1.0448280216 -2.95409247207e-05 0)
(1.0448410893 -3.65475303425e-05 0)
(1.04485727001 -4.52177191461e-05 0)
(1.04487730341 -5.59509246363e-05 0)
(1.0449021061 -6.92406409374e-05 0)
(1.04493281225 -8.56936523241e-05 0)
(1.04497082698 -0.000106058715444 0)
(1.04501789189 -0.000131266412525 0)
(1.04507616312 -0.000162473228014 0)
(1.04514831031 -0.000201113922775 0)
(1.04523764119 -0.000248969564758 0)
(1.04534825554 -0.000308250156439 0)
(1.04548523558 -0.000381702527944 0)
(1.04565487893 -0.00047274205936 0)
(1.04586499337 -0.000585618593815 0)
(1.04612526356 -0.000725630624608 0)
(1.04644770789 -0.000899391169077 0)
(1.04684724859 -0.00111517098336 0)
(1.04734242442 -0.00138334087711 0)
(1.04795628776 -0.00171694258622 0)
(1.04871753091 -0.00213244372929 0)
(1.04966191084 -0.00265073275311 0)
(1.05083405857 -0.00329846252717 0)
(1.05228978474 -0.00410989804472 0)
(1.05409903516 -0.00512949026428 0)