/*--------------------------------*- C++ -*----------------------------------*\
| =========                 |                                                 |
| \\      /  F ield         | OpenFOAM: The Open Source CFD Toolbox           |
|  \\    /   O peration     | Version:  2106                                  |
|   \\  /    A nd           | Website:  www.openfoam.com                      |
|    \\/     M anipulation  |                                                 |
\*---------------------------------------------------------------------------*/
FoamFile
{
    version     2.0;
    format      ascii;
    arch        "LSB;label=32;scalar=64";
    class       volScalarField;
    location    "0.4";
    object      p;
}
// * * * * * * * * * * * * * * * * * * * * * * * * * * * * * * * * * * * * * //

dimensions      [0 2 -2 0 0 0 0];

internalField   nonuniform List<scalar> 
11200
(
150.098459423
147.169857481
146.056005947
145.528673625
145.161342571
144.866562708
144.604917358
144.356377359
144.111857495
143.866788135
143.618472137
143.365154803
143.105604104
142.838884409
142.564228789
142.280963767
141.988463476
141.686121872
141.37334007
141.049529894
140.714067578
140.366304051
140.005580924
139.631230335
139.242566653
138.838888535
138.419479759
137.983609887
137.530535012
137.059498393
136.56973103
136.060452173
135.530869423
134.980178982
134.407566287
133.812207281
133.19326779
132.549904631
131.88126509
131.186487934
130.464703481
129.715033834
128.936593096
128.128487473
127.289815256
126.419666531
125.517122722
124.581256038
123.611128169
122.60578876
121.564273334
120.485600404
119.36876776
118.212747683
117.016480685
115.778867729
114.498760315
113.174947943
111.806142375
110.390957679
108.927885081
107.4152616
105.851230019
104.233689602
102.560230401
100.828046932
99.0338286173
97.1736152392
95.2426026215
93.234875924
91.1430459321
88.9577529414
86.6667980922
84.2539950117
81.6972577764
78.9649261439
76.0093998815
72.7581013717
69.0572987569
64.2939716693
148.30541756
146.947243247
146.156271056
145.656255628
145.265266025
144.941381952
144.656859164
144.392255219
144.136765653
143.88424209
143.630857226
143.374097458
143.112225713
142.843965475
142.568316241
142.284443128
141.991608686
141.689130008
141.376348598
141.052602593
140.717241749
140.369590531
140.009005189
139.634817565
139.246331601
138.842840231
138.423624394
137.987951821
137.535077322
137.064243176
136.574679396
136.065603688
135.536221735
134.985733405
134.413326156
133.81817578
133.199448143
132.556299689
131.88787792
131.193321598
130.471761177
129.72231899
128.944109461
128.136239229
127.297807123
126.42790398
125.52561224
124.590005259
123.620146252
122.615086784
121.573864773
120.495501702
119.378999062
118.223333666
117.027451718
115.790261274
114.510622594
113.187336027
111.819126803
110.40462591
108.942346105
107.430652136
105.867720293
104.251487354
102.579585669
100.849274638
99.0573386238
97.1999399549
95.2724391778
93.2691514556
91.1830078391
89.0050518649
86.7237360223
84.3239243994
81.785221857
79.0791201683
76.164821349
72.9844919236
69.4353432578
65.322526294
147.310227184
146.656026546
146.103670098
145.666051243
145.294426095
144.972322852
144.683221372
144.412985832
144.152521268
143.896038835
143.639653553
143.380683718
143.117217257
142.847827141
142.571392218
142.286983818
141.993792249
141.691078829
141.378145241
141.05431458
140.718924752
140.371336102
140.010804622
139.636676586
139.248259857
138.844844815
138.425710088
137.990122329
137.537336062
137.066593802
136.577126454
136.068153865
135.538885204
134.988513119
134.416220321
133.821184428
133.20257274
132.559542215
131.891241158
131.1968092
130.475377594
129.726069661
128.948000891
128.140279245
127.302005136
126.432271267
125.530162465
124.594754912
123.625115303
122.620299509
121.579350745
120.501296935
119.385147475
118.229888842
117.034479087
115.797840737
114.518851738
113.19633413
111.829040354
110.415634421
108.954669281
107.444558061
105.883536644
104.26963658
102.600620432
100.873894024
99.0864155401
97.2345863486
95.3140923268
93.3196948869
91.2449443653
89.0817779904
86.8201010058
84.4469977828
81.9457477693
79.2944914425
76.4652562971
73.426428661
70.1420327404
66.5890515405
146.760465767
146.397084184
145.997185411
145.628193769
145.29057548
144.982471125
144.697105642
144.426399417
144.164025128
143.905355835
143.64697352
143.386346639
143.121575331
142.851192266
142.574021301
142.289079866
141.99551155
141.692540131
141.379438419
141.055506443
140.72005325
140.372388637
140.011871351
139.637778196
139.249398407
138.846024235
138.42693406
137.991393317
137.538655407
137.067961829
136.578542307
136.069614955
135.540387178
134.990057665
134.417815683
133.822836286
133.204287217
132.561326348
131.893100955
131.198751082
130.477408882
129.728198612
128.950237192
128.1426345
127.304493274
126.434909099
125.532970367
124.597757649
123.628342986
122.623788769
121.583145987
120.505452178
119.389728425
118.234975586
117.040169389
115.804254232
114.526135103
113.204667204
111.838644023
110.426779851
108.967693492
107.45988666
105.90169854
104.291269888
102.626499122
100.904987583
99.1239598846
97.2801638726
95.3697464327
93.3880976547
91.3296605605
89.1877057556
86.9540017714
84.6185070506
82.1691331404
79.5917825998
76.871711242
73.9992131745
70.9778880853
67.8449178696
146.426417526
146.19462179
145.893208619
145.582230296
145.277389089
144.985363652
144.706385796
144.437257339
144.174294731
143.914207875
143.654236383
143.392142838
143.126134695
142.85476282
142.576830467
142.291320609
141.99734054
141.69408099
141.3807866
141.056734733
140.721220464
140.373547445
140.013019284
139.638925341
139.250568424
138.847232162
138.428189704
137.992704082
137.54002734
137.069400472
136.580053283
136.071204573
135.542062204
134.991822946
134.419672928
133.824788513
133.206335255
132.563471047
131.895346672
131.20110241
130.47987303
129.730785094
128.952957975
128.14550436
127.307530184
126.438134978
125.536411724
124.601446579
123.632318396
122.6280977
121.58784605
120.510613646
119.395436981
118.241335707
117.047308304
115.812326431
114.535327335
113.215207667
111.850809267
110.440913424
108.984217241
107.479308796
105.924650862
104.318548665
102.659108553
100.944188535
99.1713409595
97.3377438854
95.4401177677
93.4746283757
91.436778957
89.3213049757
87.1220981879
84.8322401813
82.4443106128
79.9513009171
77.3490155535
74.641896662
71.8513047468
69.0279371496
146.22302468
146.047122369
145.805926884
145.538599935
145.261411389
144.984771177
144.713079303
144.446575316
144.183807731
143.922796522
143.66150681
143.39807156
143.130865281
142.858497093
142.579774062
142.29365842
141.999228057
141.695643518
141.382122015
141.057917727
140.722307211
140.374578548
140.014022296
139.639928681
139.251587082
138.848276708
138.429268067
137.993822143
137.541189483
137.070609825
136.581312015
136.072513925
135.543423101
134.993236174
134.421140031
133.826312004
133.207920651
132.565125848
131.897078672
131.20292366
130.481796302
129.732823855
128.95512784
128.147823523
127.310020173
126.440821929
125.539327397
124.604629572
123.635815746
122.631967054
121.592156793
120.515449912
119.400900972
118.24755159
117.054427544
115.820535098
114.54485458
113.22633497
111.863884991
110.456355065
109.002529474
107.501115783
105.950730501
104.349857294
102.696829049
100.989795929
99.2266869111
97.4051683505
95.5226003242
93.5759970382
91.562002306
89.4769045707
87.3167377114
85.0775606926
82.7560888753
80.3509710946
77.865275567
75.3111560944
72.7155606019
70.1255864646
146.099907502
145.944299637
145.737997187
145.501434099
145.245957687
144.982676817
144.718062112
144.454551992
144.192417285
143.93083022
143.668456801
143.403820545
143.135491654
142.862161547
142.582658
142.295933376
142.001042688
141.697120039
141.383357361
141.058986703
140.723266195
140.375469369
140.014877346
139.640772541
139.252436044
138.8491421
138.430158386
137.99474368
137.542147016
137.071607302
136.582352961
136.073601934
135.544561874
134.994430257
134.422395075
133.827634626
133.209317835
132.566605355
131.898649349
131.204593446
130.483573085
129.734719262
128.957158103
128.150008878
127.312385906
126.443398569
125.542151817
124.607746475
123.639279389
122.635842959
121.596524655
120.520406834
119.406565245
118.254067241
117.061970113
115.829315378
114.555129484
113.238416207
111.878149624
110.473270861
109.022678052
107.525211352
105.979641487
104.384655846
102.73884257
101.040672375
99.2884808224
97.4804540934
95.6146225235
93.688871684
91.7009872509
89.6487633128
87.5302206278
85.3440266751
83.0902503766
80.7716497014
78.3957738714
75.9782209245
73.5458657086
71.1380643956
146.025827414
145.875817085
145.68906094
145.472954802
145.233247819
144.980425567
144.721787429
144.461048267
144.199680716
143.937758434
143.674540607
143.408903822
143.139607539
142.865430487
142.585229098
142.297953466
142.002642031
141.698407393
141.384419951
141.059892484
140.724066967
140.37620401
140.015574618
139.641453184
139.253115953
138.849832189
138.430866803
137.99547654
137.542909104
137.072402606
136.583185039
136.074474277
135.545478111
134.995394314
134.423411037
133.828706988
133.210452043
132.567807209
131.899925668
131.20595399
130.485033595
129.736297911
128.958873541
128.15188347
127.314446642
126.445678262
125.544690397
124.610592535
123.642491834
122.639493462
121.600700921
120.525215289
119.412134918
118.260554975
117.069566571
115.838254816
114.565697117
113.250958995
111.893093351
110.491131139
109.044081273
107.550924401
106.010605872
104.422028754
102.784048644
101.095469957
99.3550470837
97.5614940783
95.7135095191
93.8098284386
91.8493184387
89.8311497769
87.7550768043
85.6219118224
83.4342683447
81.1976800608
78.9221833533
76.6243827096
74.328957062
72.067913619
145.983550624
145.834102766
145.657686786
145.453948057
145.224414794
144.978705803
144.724345228
144.465706334
144.204999177
143.942904792
143.679107324
143.412748919
143.142738031
142.867925967
142.587195933
142.299499674
142.003865083
141.699389553
141.385227682
141.060577852
140.724669845
140.376754379
140.016094745
139.641960325
139.253619914
138.850342798
138.43139079
137.99601889
137.543473851
137.072993174
136.583804605
136.075126045
135.546165452
134.996121011
134.424181398
133.829526138
133.211326185
132.568744326
131.900936148
131.207050347
130.486227125
129.737603523
128.960311203
128.153477529
127.316226487
126.447679484
125.546956216
124.613175413
123.645455486
122.642915245
121.604674474
120.529854318
119.417577575
118.26696955
117.077156754
115.847268471
114.576434642
113.263785187
111.908452817
110.509567758
109.066259007
107.577652882
106.042873355
104.461043634
102.831290538
101.152753599
99.4246020394
97.6460645718
95.8164781581
93.9353698974
92.0025849793
90.0184903498
87.9842811865
85.9024488874
83.7774398838
81.6165496735
79.4310284598
77.2372874867
75.0573700751
72.9174544337
145.964273768
145.814395743
145.642432442
145.444496543
145.219934715
144.977815128
144.725679516
144.468170213
144.207842851
143.945681614
143.681591276
143.414856103
143.144466485
142.869314896
142.588300611
142.300377378
142.004568062
141.699962215
141.385706085
141.060990352
140.725038236
140.377095119
140.016420045
139.642279099
139.253939752
138.850668563
138.431726424
137.996367619
137.543838477
137.073376414
136.58420912
136.075554708
135.546621483
134.99660816
134.424704138
133.830089924
133.211937613
132.569411318
131.901667906
131.207857202
130.487124041
129.738607779
128.961443367
128.154762477
127.317694454
126.44936722
125.548908361
124.615446131
123.64811054
122.646034504
121.608354949
120.534213724
119.422758981
118.273146381
117.084540042
115.856114519
114.587054739
113.276558849
111.923839667
110.528127485
109.088670801
107.604742949
106.075647448
104.500726427
102.879373849
101.211055357
99.4953380483
97.7319353049
95.92077232
94.0620866657
92.1565705027
90.2055931944
88.2114947875
86.178028745
84.1109028706
82.0184621863
79.9124300897
77.808560467
75.7265425356
73.6882996031
145.964275967
145.814411416
145.642459058
145.444532381
145.219978996
144.977867032
144.725738112
144.468234676
144.207912491
143.945755867
143.681669688
143.414938323
143.144552254
142.869404038
142.588393015
142.300472991
142.004666885
141.700064297
141.385811521
141.06109929
140.72515089
140.377211775
140.016541096
139.64240504
139.254071283
138.850806428
138.431871555
137.996521212
137.544001939
137.073551322
136.584397495
136.07575898
135.546844626
134.996853745
134.424976508
133.830394369
133.212280489
132.569800369
131.902112588
131.208369502
130.487717974
129.739300332
128.962255291
128.155719044
127.318826336
126.450711676
125.550510621
124.617361104
123.650404895
122.64878917
121.611668098
120.538204528
119.427572203
118.278957473
117.091561865
115.864605387
114.597327509
113.288993805
111.938897251
110.546368721
109.110774543
107.63153244
106.108121461
104.540095518
102.927104531
101.268921192
99.5654782734
97.8169251651
96.0237073156
94.1866746895
92.3072555489
90.3877520906
88.4312782919
86.4424556444
84.4277997302
82.3962122193
80.3594790467
78.3326175196
76.3335294491
74.381307226
145.983557286
145.834150171
145.657767244
145.454056324
145.224548518
144.97886228
144.724521652
144.465900253
144.205208532
143.943127898
143.67934283
143.412995783
143.142995488
142.86819349
142.587473192
142.299786518
142.004161519
141.699695732
141.385543897
141.060904551
140.725007669
140.377104181
140.016457645
139.642337845
139.254014072
138.850755808
138.431825412
137.996478541
137.543962631
137.073516023
136.584367516
136.075736236
135.546831709
134.996853979
134.424994048
133.830434339
133.212349134
132.569905402
131.902263371
131.208577359
130.487996735
129.73966685
128.962730069
128.156326998
127.319597737
126.451683298
125.551727114
124.618876679
123.652285329
122.651114298
121.614534674
120.541730107
119.431899305
118.284258817
117.098047214
115.872528294
114.606996672
113.300782328
111.953257211
110.563844207
109.132030111
107.657368488
106.13950302
104.57818546
102.973301078
101.324905511
99.6332843647
97.899022997
96.1230102661
94.3066212103
92.4518330507
90.5613287328
88.6390849801
86.6903606027
84.722146929
82.743597202
80.766384505
78.8049129571
76.875898677
74.9967810598
146.025838768
145.875897388
145.68919693
145.47313737
145.233472846
144.980688368
144.722083248
144.461372982
144.200030892
143.938131269
143.674933871
143.409315796
143.140036976
142.865876519
142.585691194
142.298431392
142.00313581
141.69891729
141.384946463
141.060436369
140.724629314
140.37678625
140.016178521
139.642081376
139.253771307
138.850518542
138.431588758
137.996239653
137.543720137
137.073269661
136.584117926
136.075484876
135.54658076
134.996606415
134.424753704
133.830205961
133.212138685
132.569720186
131.902112324
131.208471387
130.48794913
129.739693788
128.962851237
128.156566335
127.319984361
126.452252595
125.552522075
124.619949484
123.653699284
122.652946168
121.616877625
120.544697081
119.435627266
118.28891379
117.103830288
115.87968283
114.615817507
113.311626224
111.966554704
110.580116911
109.151902885
107.681600263
106.169008569
104.614067541
103.016891194
101.3777939
99.6973303474
97.9763588361
96.2161997012
94.418667671
92.586217685
90.7221111706
88.8306567082
86.917456322
84.9897284159
83.0566450426
81.1296468695
79.222679599
77.3518745893
75.5341450696
146.099923986
145.944415043
145.738191842
145.501694427
145.246277477
144.983049197
144.718480249
144.455010049
144.19291045
143.931354588
143.669009294
143.404398799
143.136093947
142.862786696
142.583305288
142.296602489
142.001733661
141.697833233
141.384093445
141.059746695
140.724051559
140.376282119
140.015720053
139.641648589
139.253349477
138.850098096
138.431163232
137.995804987
137.543274051
137.072811203
136.5836472
136.075002888
135.5460893
134.996108067
134.424251885
133.829705042
133.21164407
132.569238592
131.901652041
131.208042593
130.487564246
129.739367937
128.962602846
128.156417813
127.319962938
126.452391378
125.55286129
124.62053796
123.654596315
122.654223567
121.618622618
120.547015338
119.438646814
118.292789897
117.108750826
115.885875338
114.623556895
113.321244832
111.978455611
110.594783292
109.169919442
107.703668081
106.195967889
104.646918718
103.05681241
101.42618757
99.7558790924
98.0470703003
96.301372536
94.520927648
92.7085336564
90.8677903179
89.0032791038
87.1207741954
85.2275046483
83.3324541661
81.4467020908
79.583817236
77.7598092416
75.9920862755
146.223047035
146.047276656
145.806185469
145.538943868
145.261831883
144.985258857
144.713625116
144.447171678
144.184448467
143.923476673
143.662222498
143.398819828
143.131643978
142.859304756
142.580609791
142.294521814
142.000119126
141.696562616
141.383069801
141.058895151
140.723315515
140.375619584
140.015100445
139.64104975
139.252755701
138.849498749
138.430551068
137.99517532
137.542624102
137.072139608
136.582953696
136.0742881
135.545354666
134.99535585
134.423485092
133.828927549
133.210860724
132.568455321
131.900876119
131.207283009
130.486832088
129.738676841
128.961969505
128.155862598
127.319510627
126.45207208
125.552711549
124.620602137
123.654928263
122.654888523
121.619699671
120.548600168
119.440855508
118.295762898
117.112657921
115.890921947
114.629991297
113.329366486
111.988625592
110.607437741
109.185580794
107.722961523
106.219641227
104.675866265
103.09210329
101.469080833
99.807841971
98.1098080592
96.376853817
94.6113923291
92.8164785793
90.9959297105
89.1544693355
87.2978881828
85.4332473739
83.569140489
81.7160819174
79.8871519496
78.0983808544
76.3684417386
146.426446524
146.194819903
145.893537699
145.582664914
145.277917199
144.985972951
144.707064863
144.437996846
144.175087208
143.915047403
143.655118374
143.393063845
143.127092244
142.85575529
142.577856962
142.292380856
141.998434778
141.695209799
141.381950707
141.057935068
140.722458481
140.374824186
140.014336708
139.640296782
139.251997864
138.848725436
138.429755148
137.994352144
137.541770793
137.071254609
136.582036476
136.073338939
135.544374583
134.99434657
134.422449155
133.827868355
133.209782685
132.567363927
131.899778058
131.206186296
130.485746296
129.73761358
128.960942979
128.154890197
127.318613662
126.451276593
125.552049304
124.620111811
123.654656805
122.654892977
121.620049081
120.549378483
119.442164165
118.297724971
117.115422272
115.89466865
114.634936556
113.335770996
111.996802657
110.617764097
109.198508457
107.739032095
106.239501186
104.70028329
103.121984782
101.505495115
99.8520376703
98.1632287886
96.4411472344
94.6884108323
92.9082612711
91.1046561863
89.282369824
87.4470992536
85.6055960354
83.7658544845
81.937496366
80.1326762202
78.3669095151
76.6600513617
146.760501533
146.397329899
145.997587591
145.62871955
145.291208863
144.983196407
144.69790892
144.427269674
144.164953695
143.906335935
143.647999974
143.387415617
143.122684171
142.852339371
142.575206083
142.290302714
141.996773898
141.693844337
141.380787329
141.056903783
140.721507991
140.373916355
140.013444817
139.639400627
139.251083685
138.847783754
138.428779595
137.993338631
137.54071675
137.070158528
136.580897674
136.072157347
135.543150673
134.993081202
134.421143628
133.826524599
133.20840355
132.565953241
131.89834083
131.204729146
130.484277906
129.736144183
128.959484955
128.153458571
127.317226605
126.449956071
125.550821914
124.619009876
123.653719505
122.654168198
121.619593977
120.549262637
119.442471346
118.298556508
117.116900561
115.896941387
114.638183421
113.340208919
112.002692467
110.625418753
109.208302728
107.751413383
106.25500178
104.71953391
103.145728891
101.534603325
99.8875220197
98.2062548723
96.4930395354
94.7506482675
92.9824568584
91.1925118303
89.3855895054
87.5672414482
85.7438322115
83.9225792113
82.1117855118
80.3218328557
78.5659369654
76.862751406
147.310274653
146.656334121
146.104155499
145.666673621
145.295165768
144.973160835
144.684141563
144.413975755
144.153571202
143.897141196
143.640802495
143.381874793
143.118447151
142.849093488
142.572693493
142.288319351
141.995162592
141.692486658
141.379595548
141.055813759
140.720473188
140.37290354
140.012425785
139.638359787
139.250010124
138.846669806
138.427620148
137.992130413
137.539457968
137.068848381
136.57953608
136.070744869
135.54168843
134.991570873
134.419587388
133.824924775
133.206761604
132.564271833
131.896623597
131.202980294
130.482502118
129.734348356
128.957677897
128.151651226
127.315432482
126.448191775
125.549107764
124.617370554
123.652185081
122.652774572
121.618386027
120.548294146
119.441807849
118.298277115
117.117100915
115.897736582
114.639710855
113.342634105
112.006214454
110.630276225
109.214781296
107.759853976
106.265810177
104.733191193
103.162802461
101.555757707
99.9135285389
98.2379987245
96.5315215024
94.7969827108
93.0378558327
91.2582507967
89.462940643
87.6573543897
85.8475095143
84.03979429
82.2408700098
80.4582966063
78.6991886267
76.9722427033
148.305512256
146.947696089
146.15694876
145.657105357
145.266264666
144.94250874
144.658097159
144.393591428
144.13818998
143.885746611
143.632435706
143.375744918
143.113938
142.845738842
142.57014695
142.286327055
141.993540798
141.691103564
141.378358033
141.054655536
140.719336568
140.371751575
140.011248587
139.637144308
139.248747067
138.845353261
138.426245834
137.990693016
137.537953897
137.067275551
136.577892993
136.069030374
135.53990165
134.989711234
134.417654684
133.822919715
133.20468763
132.56213154
131.894419617
131.200716122
130.480182407
129.731978272
128.955263629
128.149200365
127.312954367
126.445697847
125.546611964
124.614889829
123.649740147
122.650390994
121.616094188
120.546130864
119.43981759
118.296513623
117.115629005
115.896635006
114.63907572
113.34257985
112.006878383
110.63182299
109.21740778
107.763794719
106.271343282
104.740644628
103.172560721
101.568268709
99.929310188
98.2576430002
96.5556936826
94.826436624
93.0734197096
91.3008111455
89.513415872
87.7166513858
85.9164149437
84.1185735195
82.3286570371
80.5514285844
78.7816911822
76.989941173
150.09862077
147.1705227
146.056994158
145.529922648
145.162822176
144.868248294
144.606790409
144.358424407
144.114068752
143.869156682
143.620993396
143.367826202
143.108424937
142.841855871
142.56735409
142.284248193
141.99191428
141.689747619
141.377145638
141.05350077
140.718207612
140.370626308
140.010088023
139.635927529
139.247462689
138.843994322
138.424808656
137.989180749
137.536368217
137.065616699
136.576161244
136.067226147
135.538025436
134.987763566
134.415636085
133.820830382
133.202526703
132.559899124
131.89211645
131.198343282
130.477741376
129.729471149
128.952693227
128.146570258
127.310269119
126.442963209
125.543834883
124.612079046
123.646905982
122.647546274
121.613254439
120.543315076
119.437048717
118.293819384
117.11304271
115.894196651
114.636832677
113.340589764
112.005210547
110.630560366
109.216649456
107.763658906
106.271970765
104.742202644
103.17524723
101.572316807
99.934992838
98.2652826975
96.5656832901
94.8392001478
93.0894384384
91.3206351504
89.5376794755
87.746090244
85.9519135832
84.1616465898
82.3817102316
80.6168875187
78.8467181171
76.9467486122
56.8998832257
53.3477359508
50.9562823308
48.9988503296
47.3267970003
45.8699505275
44.5843263916
43.4402184054
42.4159538815
41.4947859619
40.6633074832
39.9105118124
39.2271958331
38.6055591943
38.0389210453
37.521511378
37.0483126267
36.6149362895
36.2175251764
35.8526745192
35.5173674635
35.2089216954
34.9249448555
34.6632969387
34.4220583532
34.199502825
33.994074171
33.8043663116
33.6291061157
33.4671383276
33.3174123414
33.1789705812
33.0509382671
32.932514819
32.8229662582
32.7216185484
32.6278515055
32.5410932667
32.4608151877
32.3865270111
32.3177721193
32.2541229421
32.1951738769
32.1405380586
32.0899099898
32.0432624802
32.0002805575
31.9605780154
31.9238303846
31.8897769616
31.8582178677
31.8289675851
31.8018508086
31.7767070025
31.75340195
31.7317919258
31.7117246713
31.6930806611
31.6757428368
31.6596136539
31.6445819393
31.6305525869
31.6174386597
31.6051596964
31.5936422064
31.5828185135
31.5726288007
31.5630170649
31.5539330051
31.5453282639
31.5371588395
31.5293813191
31.5219567562
31.5148559508
31.5080451711
31.5015011424
31.4951879722
31.4890875929
31.4831776595
31.4774366064
31.4718482359
31.4663978791
31.4610697102
31.4558504958
31.4507318789
31.4457084305
31.440762458
31.4358813801
31.4310639713
31.4262922617
31.4215675892
31.4168889823
31.4122613445
31.4076593911
31.4030737848
31.3984994277
31.3939320179
31.3893673305
31.3848012187
31.3802297773
31.3756493009
31.3710561247
31.3664467962
31.361817982
31.3571663383
31.3524886097
31.3477818092
31.3430433324
31.3382708612
31.3334619962
31.3286143106
31.3237254212
31.3187930003
31.3138152813
31.3087907506
31.303718322
31.2985969059
31.293425172
31.288201912
31.282925528
31.2775946685
31.2722075431
31.2667580806
31.2612259676
31.2555570689
31.2497021033
31.2444883582
31.2394328215
31.23415397
31.2288631355
31.2236464658
31.2185562737
31.2136375939
31.2089476695
31.204544149
31.2004835994
31.1968159791
31.1935811294
31.1907840907
31.1884004072
31.1866343886
31.1850293315
31.1836356212
31.1817972808
31.177870787
31.1676591905
31.1411375477
31.0766766359
30.9330710885
30.639816423
30.0917269182
29.1560278482
27.7000877943
25.6311263392
22.9230482986
19.6318961853
15.8762112457
11.6242890898
6.60092193269
1.56966404561
60.0812461164
56.0284070527
53.3164036407
51.164029631
49.3620663512
47.8121044068
46.4559303492
45.2563094757
44.1870675394
43.2285706227
42.3654789445
41.5854468159
40.8783190373
40.2356037072
39.6501095499
39.115683441
38.6270165284
38.1794957087
37.7690883325
37.3922504119
37.0458532851
36.7271233113
36.4335925132
36.1630573407
35.9135438949
35.6832789257
35.4706650503
35.2742596261
35.0927567627
34.9249715417
34.7698262602
34.6263385821
34.493610674
34.3708209211
34.257215902
34.1521038229
34.0548484839
33.9648642368
33.8816109259
33.8045902777
33.733342974
33.6674468846
33.6065169435
33.5502021935
33.4981554218
33.4499362905
33.4053069124
33.3639897046
33.3257679498
33.2904143153
33.2577074285
33.2274391978
33.199417861
33.1734638693
33.1494057338
33.1270905137
33.1063763853
33.0871369352
33.0692452201
33.0525853246
33.0370658966
33.0225919633
33.009073387
32.996427212
32.9845780992
32.9734580893
32.9630019802
32.9531524239
32.9438535685
32.9350522566
32.9267116388
32.9187744206
32.9112152646
32.9039925678
32.8970709503
32.8904325471
32.8840354194
32.8778589505
32.8718832477
32.8660847513
32.8604461338
32.8549533385
32.8495928227
32.8443445931
32.8391919699
32.834118577
32.8291195454
32.8241848741
32.8193097585
32.8144811103
32.8096972153
32.8049440728
32.8002129185
32.795502029
32.7908086374
32.7861282517
32.7814564739
32.7767895415
32.7721233392
32.7674538161
32.7627774233
32.7580905888
32.7533899386
32.7486721047
32.7439336034
32.7391710566
32.7343815591
32.729562551
32.7247115659
32.7198262018
32.7149038006
32.7099419364
32.7049381561
32.6998907627
32.694798198
32.6896596291
32.6844740324
32.6792407382
32.6739593372
32.6686298057
32.6632532892
32.6578326824
32.6523727411
32.6468830821
32.6413910277
32.6359162558
32.6305000628
32.6248094265
32.6193773713
32.6140862343
32.6088752947
32.6038440184
32.5990373151
32.5945189767
32.5903581797
32.5866256921
32.5833885881
32.5807016397
32.5785702516
32.5770719884
32.5761633194
32.5757137092
32.5754464876
32.5745367274
32.5708213111
32.5591196742
32.5274249555
32.4508498703
32.2832239061
31.9477236688
31.3330566285
30.3034585749
28.7294015321
26.5279221624
23.6848069542
20.2606046783
16.3718541473
12.002095906
6.88989453818
1.70316060348
62.2886815009
58.3552166809
55.48804527
53.2040967358
51.3021136964
49.6756187564
48.2595795621
47.0119805747
45.9033993377
44.9119739242
44.0208073407
43.2164451818
42.4879305996
41.8261839122
41.2235775098
40.6736305795
40.1707852989
39.7102371627
39.2878045847
38.8998260247
38.5430787574
38.2147126731
37.9121965621
37.6332738317
37.3759252892
37.1383383613
36.9188811101
36.7160800978
36.5286016133
36.3552352626
36.1948798089
36.0465312168
35.9092715359
35.7822603472
35.6647267023
35.5559622756
35.4553151773
35.3621849618
35.2760171434
35.1962992562
35.1225571461
35.0543513864
34.9912747459
34.9329510371
34.8790371349
34.8291953088
34.7829285564
34.7401157488
34.7005463981
34.663956562
34.6301091952
34.5987889925
34.5697985398
34.5429555085
34.5180885146
34.4950418349
34.4736658312
34.4538264074
34.4353981681
34.4182525268
34.4022899817
34.3874120414
34.3735233387
34.3605399408
34.3483841718
34.3369845509
34.3262689376
34.316182982
34.3066711394
34.2976760891
34.2891608906
34.2810664566
34.2733737139
34.2659979878
34.2589595531
34.2522071051
34.2457041983
34.2394346946
34.233371587
34.2274902419
34.2217744531
34.2162076969
34.2107673089
34.2054425182
34.200224486
34.1951004092
34.1900596335
34.1850874098
34.1801779325
34.1753202838
34.170508876
34.1657343662
34.1609902819
34.1562701069
34.1515674157
34.1468766547
34.142193121
34.1375129377
34.1328318734
34.1281456348
34.1234505022
34.1187428957
34.1140194622
34.109276641
34.1045107193
34.0997182969
34.0948964962
34.090042718
34.0851545225
34.0802295093
34.0752650746
34.0702589828
34.0652089579
34.0601134586
34.0549710367
34.0497808758
34.0445422388
34.0392547412
34.0339185595
34.0285346422
34.0231050477
34.0176338735
34.012127602
34.0065972006
34.0010613089
33.9955177392
33.9899903391
33.9845186135
33.9790951827
33.9738057957
33.9684761763
33.9634449394
33.9587147945
33.9543403697
33.9503886891
33.9469467526
33.9441024778
33.9419262238
33.9404129688
33.9396087191
33.9395435554
33.9400196947
33.9406562218
33.9403768124
33.936441438
33.922625416
33.8849141983
33.795154664
33.6024169648
33.2240434289
32.5434727934
31.4229055695
29.7363694649
27.4100049275
24.4397186705
20.8887510902
16.870323863
12.3824599906
7.17848543003
1.83444758178
64.0928609776
60.3681237983
57.4641158175
55.1089175529
53.1388079081
51.4544470968
49.9906721117
48.7036014805
47.5619869296
46.5425017377
45.6271321185
44.8015870223
44.054285973
43.3756837304
42.7578036614
42.1939016848