/*--------------------------------*- C++ -*----------------------------------*\
| =========                 |                                                 |
| \\      /  F ield         | OpenFOAM: The Open Source CFD Toolbox           |
|  \\    /   O peration     | Version:  2106                                  |
|   \\  /    A nd           | Website:  www.openfoam.com                      |
|    \\/     M anipulation  |                                                 |
\*---------------------------------------------------------------------------*/
FoamFile
{
    version     2.0;
    format      ascii;
    arch        "LSB;label=32;scalar=64";
    class       volScalarField;
    location    "0.14";
    object      p;
}
// * * * * * * * * * * * * * * * * * * * * * * * * * * * * * * * * * * * * * //

dimensions      [0 2 -2 0 0 0 0];

internalField   nonuniform List<scalar> 
11200
(
151.428448843
148.499846835
147.385995419
146.85866329
146.491332498
146.196552892
145.934907814
145.686368047
145.441848337
145.196779042
144.948463019
144.695145572
144.435594689
144.168874785
143.894218995
143.610953899
143.318453676
143.016112333
142.703331053
142.379521723
142.044060591
141.696298675
141.335577637
140.961229632
140.572569083
140.168894638
139.749490009
139.313624651
138.860554512
138.389522677
137.899759975
137.390485535
136.860906987
136.310220541
135.737611721
135.142256376
134.523320709
133.879961395
133.211325887
132.516552881
131.794772632
131.045107201
130.266670674
129.458569274
128.619901326
127.749757037
126.847218025
125.911356557
124.941234421
123.935901361
122.894392937
121.815727685
120.698903395
119.542892293
118.346634875
117.109032051
115.828935221
114.50513377
113.13633931
111.721165815
110.258104628
108.745492937
107.181473445
105.56394547
103.89049923
102.158329787
100.364126826
98.5039303167
96.5729360936
94.5652294229
92.4734214918
90.2881539885
87.9972280069
85.5844604487
83.0277721854
80.2955176437
77.3401227124
74.0890795472
70.3889851509
65.6265670556
149.635406985
148.277232639
147.486260592
146.986245358
146.595256031
146.271372233
145.986849721
145.722246009
145.466756601
145.214233102
144.9608482
144.704088297
144.442216345
144.17395587
143.898306435
143.614433211
143.321598791
143.019120347
142.706339438
142.382594227
142.047234569
141.699584675
141.339001341
140.964816249
140.576333354
140.172845595
139.753633857
139.31796577
138.865096002
138.394266688
137.904707738
137.395636843
136.866259512
136.315775269
135.743371718
135.148224979
134.529501001
133.8863564
133.217938623
132.523386422
131.801830192
131.052392207
130.274186867
129.466320829
128.627892997
127.757994324
126.855707383
125.920105652
124.95025244
123.945199391
122.903984441
121.825629092
120.709134821
119.553478435
118.357606106
117.120425795
115.84079766
114.51752196
113.14932381
111.734834078
110.272565557
108.760883028
107.197962968
105.581742863
103.909855414
102.179558875
100.387638077
98.5302557874
96.6027725816
94.5995036316
92.5133798457
90.3354442843
88.0541503
85.6543623059
83.1156860862
80.4096154007
77.4953522602
74.3150496109
70.7658871215
66.6527475287
148.640216776
147.986016114
147.433659815
146.996041174
146.624416308
146.302313347
146.013212153
145.742976855
145.482512446
145.226030068
144.969644736
144.710674743
144.44720804
144.177817652
143.901382498
143.616973945
143.323782349
143.021069111
142.70813594
142.384305988
142.048917194
141.701330197
141.340800565
140.966675055
140.578261451
140.174850072
139.755719489
139.320136241
138.86735467
138.396617089
137.907154166
137.398185628
136.868920812
136.318552834
135.746264313
135.151232498
134.532624853
133.889598438
133.22130154
132.526873809
131.805446489
131.056142785
130.278078207
129.470360737
128.632090867
127.762361472
126.860257456
125.924855141
124.955221324
123.950411943
122.909470214
121.831424098
120.715282984
119.560033364
118.364633267
117.12800515
115.849026892
114.52652053
113.159238114
111.745843731
110.284890421
108.774791429
107.213783215
105.599895232
103.930890885
102.204177972
100.416714532
98.5649017719
96.6444253389
94.6500463659
92.5753148021
90.4121672355
88.1505081665
85.7774199271
83.2761784434
80.6249170369
77.7956473207
74.7567237922
71.4721273834
67.9187458845
148.090455606
147.727074032
147.327175407
146.958183991
146.620566001
146.312461946
146.027096758
145.756390781
145.494016651
145.235347406
144.976965021
144.716337952
144.451566366
144.181182993
143.904011748
143.619070102
143.325501725
143.02253042
142.709429069
142.385497765
142.050045586
141.702382478
141.341867429
140.967776707
140.579399985
140.176029496
139.75694354
139.321407429
138.868674405
138.397985828
137.908571306
137.399648905
136.870425868
136.320100376
135.747862018
135.152886387
134.534340424
133.891383301
133.223161857
132.528815999
131.807477858
131.058271687
130.28031441
129.472715866
128.634578881
127.764999227
126.863065385
125.927858075
124.958449453
123.95390184
122.913266287
121.835580345
120.719865122
119.565121435
118.370324886
117.134419636
115.856310547
114.534853113
113.168840414
111.756987043
110.297910717
108.790114549
107.231937821
105.621522494
103.956766218
102.235269904
100.454258243
98.6104791928
96.7000795799
94.7184492627
92.6600308325
90.5180940533
88.284406075
85.9489227538
83.4995510362
80.9221852272
78.202066715
75.3294680344
72.307963949
69.1746954705
147.756407699
147.524611998
147.223198986
146.912220906
146.607380012
146.315354891
146.036377346
145.767249145
145.504286694
145.244199876
144.984228289
144.722134524
144.456126064
144.184753839
143.906821152
143.621311025
143.32733082
143.024071329
142.710777249
142.386725996
142.051212718
141.703541125
141.343014756
140.968923364
140.580569541
140.17723692
139.758198602
139.322717483
138.870045445
138.399423246
137.910080528
137.401235984
136.872097492
136.321861904
135.749715508
135.154834844
134.53638618
133.893526147
133.22540603
132.531166573
131.809941627
131.060857941
130.283035002
129.475585481
128.637615528
127.768224797
126.866506382
125.931546521
124.962424005
123.958209708
122.91796513
121.840740401
120.725571985
119.571479481
118.377461424
117.142489767
115.865502422
114.54539447
113.181008945
111.771124167
110.314439277
108.809542378
107.254895983
105.648805869
103.989378677
102.274472747
100.501640599
98.6680601994
96.7704518487
94.8049810626
92.7671507547
90.6516957258
88.4525066636
86.1626632178
83.7747417352
81.2817283115
78.6794199057
75.9722520483
73.1815823677
70.35811017
147.553015262
147.377113008
147.135917695
146.868591004
146.591402789
146.314762909
146.043071362
145.776567639
145.513800209
145.252789022
144.991499193
144.728063686
144.46085705
144.188488462
143.909765031
143.623649055
143.329218489
143.025633942
142.712112691
142.387908963
142.052299389
141.704572124
141.344017759
140.969926635
140.581588106
140.178281372
139.759276868
139.323835443
138.871207497
138.400632581
137.911339391
137.402545844
136.873459272
136.323276615
135.751184713
135.156360936
134.537973784
133.895183125
133.227140112
132.532988588
131.81186503
131.062896582
130.285204536
129.477904358
128.640105424
127.770911861
126.869422413
125.934730286
124.965922931
123.962081164
122.92227844
121.845579746
120.731039614
119.577699646
118.384585272
117.150701778
115.875030045
114.556519517
113.194077327
111.786559509
110.33274648
108.831344866
107.280971701
105.680111496
104.027097191
102.320079003
100.556986139
98.7354849618
96.8529355602
94.9063521072
92.8923785302
90.8073030506
88.6471594923
86.4080066158
84.0865593587
81.6814661956
79.1957965128
76.6417114165
74.0461746836
71.4563128528
147.429898535
147.274290744
147.067988483
146.831425672
146.57594961
146.312669091
146.048054727
145.784544877
145.522410328
145.260823273
144.998449712
144.733813162
144.465483867
144.192153297
143.912649288
143.625924268
143.331033311
143.027110593
142.713348107
142.388977965
142.053258369
141.705462925
141.344872813
140.970770511
140.582437044
140.179146729
139.760167119
139.324756875
138.872164886
138.40162985
137.912380077
137.403633455
136.874597557
136.324469941
135.752438628
135.157681996
134.539369107
133.896660444
133.228708412
132.534657024
131.813641311
131.064791943
130.287234876
129.480089734
128.642470993
127.773488182
126.872246402
125.937846584
124.969385535
123.965955646
122.926644467
121.850534315
120.736700892
119.584211626
118.39212341
117.159479398
115.885304449
114.568601367
113.208347881
111.80347946
110.352897046
108.855441268
107.309883044
105.714909963
104.069110336
102.370955044
100.618779855
98.8107710149
96.9449589889
95.0192295907
93.0313692242
90.9791721778
88.8606607064
86.6745043515
84.4207750852
82.102235916
79.7264455425
77.3090201695
74.8768635824
72.4693740141
147.355818917
147.20580868
147.019052742
146.802946899
146.563240285
146.310418403
146.051780621
145.791041738
145.529674339
145.267752059
145.004534065
144.738896951
144.469600221
144.19542265
143.915220735
143.627944639
143.332632871
143.028398106
142.714410808
142.38988382
142.054059195
141.706197612
141.345570158
140.971451371
140.583117034
140.179836852
139.760875529
139.325489667
138.872926809
138.402424858
137.913211744
137.40450529
136.875513251
136.325433479
135.753454183
135.158754182
134.54050336
133.897862906
133.229985904
132.536018479
131.815101784
131.066370004
130.288949833
129.481964039
128.644531632
127.77576797
126.874785267
125.940693039
124.972598481
123.969606922
122.930821772
121.855344054
120.742272219
119.590701419
118.399722384
117.168419985
115.89587141
114.581143595
113.223286832
111.821335679
110.374297402
108.881152144
107.340845677
105.752281418
104.114315125
102.425751521
100.685345277
98.8918105732
97.0438463995
95.1401884214
93.1797057722
91.1615688576
89.0855352974
86.9524217509
84.7648479625
82.528357433
80.2530027196
77.9554141537
75.6603075295
73.3997371406
147.313542601
147.164094851
146.987679093
146.783940676
146.554407804
146.308699206
146.054339
145.795700396
145.534993394
145.272899003
145.009101347
144.742742579
144.472731191
144.197918548
143.917187923
143.629491134
143.333856151
143.029380444
142.715218678
142.390569304
142.054662177
141.706748084
141.346090351
140.971958247
140.583621109
140.18034759
139.761399569
139.326031975
138.873491386
138.403015149
137.91383096
137.40515664
136.876200159
136.326159757
135.75422419
135.159573064
134.5413773
133.898799665
133.230995547
132.537113914
131.816295128
131.067675634
130.290387363
129.483557843
128.646311199
127.777768981
126.877050965
125.943275905
124.975562243
123.973028758
122.934795158
121.85998261
120.747714095
119.597114585
118.407311051
117.17743223
115.906608085
114.593968939
113.238646755
111.839772248
110.396474263
108.907879329
107.373111684
105.791294707
104.161555394
102.483033545
100.754898803
98.9763798443
97.1468144102
95.2657301338
93.3329740289
91.3489141233
89.3147507714
87.2329808527
85.1080591873
82.9472946133
80.7619580733
78.5684917155
76.3889803443
74.2496521802
147.2942662
147.144388293
146.972425226
146.774489654
146.549928237
146.30780907
146.055673847
145.798164846
145.537837643
145.27567639
145.011585839
144.744850267
144.4744601
144.199307873
143.918292937
143.630369114
143.334559357
143.029953292
142.715697241
142.390981954
142.055030721
141.707088993
141.346415878
140.972277466
140.583941193
140.180673542
139.761735327
139.326380745
138.87385597
138.403398188
137.91423517
137.405584912
136.876655756
136.326646477
135.754746548
135.160136507
134.541988431
133.899466476
133.231727411
132.537920888
131.817191833
131.068679591
130.291519235
129.484842561
128.647779028
127.779456681
126.879003163
125.945546758
124.978217488
123.97614823
122.938475834
121.864342248
120.75289565
119.60329161
118.414694291
117.186277744
115.917227291
114.606740731
113.254030757
111.85832923
110.41888348
108.934966902
107.405883241
105.830974895
104.209636111
102.541332919
100.825632908
99.0622491289
97.251107655
95.3924450301
93.4869565339
91.536011631
89.5419609325
87.5085624954
85.4415325407
83.3492313119
81.2434054944
79.1398424969
77.0582752276
75.0206799775
147.294268807
147.14440438
146.972452265
146.774525932
146.549972987
146.307861456
146.055732948
145.798229832
145.537907814
145.275751165
145.011664751
144.744932953
144.474546291
144.199397382
143.918385654
143.630464989
143.334658397
143.03005556
142.715802851
142.391091071
142.055143573
141.70720588
141.346537189
140.972403703
140.58407301
140.180811666
139.761880658
139.326534402
138.874019323
138.403572925
137.914423248
137.40578882
136.876878506
136.326891704
135.755018631
135.160440722
134.542331131
133.899855333
133.232171831
132.538432911
131.817785468
131.069371857
130.292330898
129.485798902
128.648910752
127.78080106
126.880605425
125.947461797
124.980511932
123.978902952
122.941788993
121.868332978
120.757708552
119.60910219
118.421715551
117.194768127
115.927500315
114.61917681
113.269090533
111.876569692
110.440986409
108.96175587
107.438356876
105.870344045
104.257366665
102.599195946
100.895764607
99.1472239098
97.3540207241
95.5170102899
93.6376688945
91.718197647
89.7617619415
87.7729995458
85.758433526
83.7269793548
81.690445495
79.6638820054
77.6652336676
75.7136416602
147.313550474
147.164143483
146.987760811
146.784050255
146.554542909
146.308857137
146.054516949
145.795895891
145.535204348
145.273123684
145.009338362
144.742990852
144.47298992
144.19818718
143.917466124
143.629778762
143.334153239
143.029687185
142.715535415
142.390896534
142.055000579
141.707098546
141.346454028
140.972336794
140.584016099
140.180761305
139.761834695
139.326491802
138.873979963
138.403537442
137.914392999
137.405765774
136.876865293
136.32689167
135.755035936
135.160480482
134.542399612
133.89996019
133.232322398
132.538640545
131.818063985
131.069738113
130.292805422
129.486406647
128.649682018
127.781772628
126.881821932
125.948977418
124.982392417
123.981228087
122.944655586
121.871858474
120.762035403
119.614403153
118.428200092
117.202690174
115.93716764
114.630962545
113.283446665
111.894043317
110.462236548
108.987585442
107.469730243
105.908422298
104.303548667
102.655172456
100.963589337
99.2293510191
97.4533587116
95.6369899753
93.7821774454
91.8917090011
89.9695156627
88.0208519508
86.0527204923
84.0742885964
82.0972502268
80.1360403884
78.2074170726
76.3288712489
147.355832233
147.205890974
147.019190783
146.803131615
146.563467579
146.310683606
146.052078958
145.791369057
145.530027157
145.268127502
145.004929834
144.739311268
144.470031772
144.195870529
143.915684399
143.628423869
143.333127738
143.028908942
142.714938187
142.390428579
142.054622484
141.706780906
141.346175222
140.97208065
140.583773642
140.180524309
139.761598232
139.326253029
138.87373748
138.403290984
137.914143239
137.405514185
136.876614108
136.32664389
135.754795396
135.160251973
134.542189053
133.899774861
133.232171212
132.538534389
131.818016154
131.069764808
130.292926362
129.486645811
128.650068545
127.782341899
126.882616906
125.950050238
124.983806359
123.983059925
122.946998449
121.874825298
120.765763109
119.619057692
118.433982538
117.209844076
115.945987882
114.641806085
113.29674585
111.910318563
110.482116111
109.011824345
107.499246465
105.944324901
104.347165766
102.708076195
101.02760504
99.3066455853
97.5465063135
95.7489973835
93.9165706913
92.0524926037
90.1610700469
88.24791032
86.3202393909
84.3872385555
82.4603643728
80.5535885494
78.6830807259
76.8658061279
147.429917656
147.274408834
147.068185914
146.831688917
146.576272488
146.313044753
146.048476311
145.785006501
145.522907107
145.261351216
144.999005641
144.734394631
144.466089071
144.192780997
143.913298748
143.626595193
143.331725799
143.027825091
142.71408539
142.389739156
142.054045019
141.706277101
141.345717111
140.971648232
140.583352157
140.180104173
139.761172959
139.325818523
138.873291441
138.40283247
137.913672388
137.405032031
136.876122486
136.326145416
135.754293501
135.159750995
134.541694396
133.899293214
133.231710829
132.538105421
131.817631031
131.069438696
130.292677718
129.486497073
128.650046968
127.782480589
126.882956064
125.950638674
124.984703309
123.984337258
122.948743323
121.877143379
120.768782454
119.622933427
118.438902487
117.216035518
115.953725633
114.651422191
113.308641514
111.924979655
110.500126943
109.033885816
107.526194708
105.977151268
104.387055349
102.756447445
101.086157388
99.3773651832
97.6316822086
95.8512526901
94.0388755005
92.1981515675
90.3336614167
88.4511806785
86.5579416748
84.6629324958
82.7772416262
80.9144559831
79.0906162929
77.3231784049
147.553040851
147.377270589
147.136179699
146.868938541
146.591827107
146.315254665
146.043621463
145.777168442
145.514445452
145.253473634
144.992219172
144.728815968
144.461639385
144.189299313
143.910603481
143.624514727
143.330111462
143.026554674
142.713061967
142.388887876
142.053309288
141.705614922
141.345097903
140.971049803
140.582758767
140.179505132
139.760561018
139.325188994
138.872641547
138.402160867
137.912978837
137.404317197
136.875387831
136.325393166
135.753526675
135.158973468
134.540910985
133.898509851
133.230934811
132.537345746
131.816898785
131.068747521
130.292044324
129.485941843
128.649594693
127.782161375
126.882806455
125.95070301
124.985035383
123.985002307
122.949820418
121.87872832
120.770991245
119.625906461
118.442809589
117.221082078
115.960159975
114.659544102
113.31881214
111.93763319
110.515785286
109.053176045
107.549867434
106.006105396
104.422355228
102.799345073
101.138118621
99.4400982304
97.7071577867
95.9417098159
94.1468086024
92.3262722922
90.4848232773
88.6282509545
86.7636156021
84.8995095789
83.0464477054
81.2175167013
79.4287654328
77.6989015166
147.75644044
147.524813933
147.223532042
146.912659725
146.607912585
146.315968954
146.037061435
145.767993857
145.505084456
145.245044635
144.985115317
144.723060242
144.457087891
144.185750069
143.907850858
143.622373964
143.328427306
143.025202061
142.711943107
142.387928072
142.052452582
141.704819898
141.34433454
140.970297224
140.582001274
140.178732122
139.759765347
139.324365995
138.871788363
138.401275965
137.9120617
137.403368121
136.874407843
136.324384005
135.752490832
135.157914284
134.539832788
133.897418081
133.22983615
132.536248278
131.815812196
131.067683505
130.291017135
129.484968907
128.648697315
127.781365582
126.882143979
125.950212453
124.98476364
123.985006351
122.950169397
121.879506085
120.772299394
119.62786802
118.445573435
117.224827996
115.965104036
114.665946719
113.326987015
111.947957564
110.528711626
109.069245539
107.569725513
106.030519154
104.452233072
102.835756482
101.182312136
99.4935164151
97.7714477158
96.0187233403
94.2385841963
92.4349875098
90.6127057525
88.7774331698
86.93591726
85.0961459203
83.2677319246
81.4628216867
79.6969304062
77.9899166145
148.090495519
147.727323994
147.32758202
146.958714467
146.62120438
146.313192564
146.027905669
145.757266879
145.494951149
145.236333379
144.977997127
144.717412217
144.452680013
144.18233434
143.905200164
143.620296008
143.326766619
143.023836805
142.71077996
142.386897063
142.051502433
141.703912436
141.343443058
140.969401483
140.581087489
140.177790796
139.758790087
139.3233527
138.870734493
138.400180042
137.910923049
137.402186723
136.873184187
136.323119007
135.751185842
135.15657124
134.538454473
133.896008318
133.228399908
132.534792049
131.814344446
131.066214609
130.289559527
129.483537623
128.647310549
127.780045342
126.880916916
125.949110908
124.983826908
123.98428203
122.949714901
121.879390795
120.772607186
119.628700209
118.447052314
117.227101418
115.968352047
114.670386213
113.332878609
111.955614015
110.538507526
109.081628289
107.585227484
106.049771053
104.475978071
102.864865072
101.21779661
99.5365423479
97.8233394975
96.0809597194
94.3127780668
92.5228401596
90.7159202759
88.8975667324
87.0741385785
85.2528437152
83.441968799
81.6518715179
79.8957428493
78.1921836954
148.640268686
147.986328265
147.434149998
146.996668627
146.625161388
146.303157109
146.014138438
145.743973094
145.483568795
145.227138778
144.970799783
144.711871524
144.448443124
144.179088589
143.902687716
143.618312801
143.325155488
143.022479332
142.709588433
142.385807348
142.050467984
141.702900005
141.342424421
140.968361016
140.580014278
140.176677167
139.757630905
139.322144679
138.869475838
138.39886995
137.909561428
137.400774092
136.871721615
136.321608094
135.749628689
135.154970206
134.536811401
133.894325709
133.226681382
132.533041965
131.812567844
131.064418118
130.287751906
129.481729811
128.645516043
127.77828073
126.879202496
125.947471379
124.982292155
123.982888292
122.948506565
121.878421839
120.771943011
119.62841996
118.447251572
117.227895043
115.969877197
114.672808448
113.336397114
111.960467709
110.544982272
109.090065268
107.596032697
106.063425784
104.493049844
102.8860184
101.243802789
99.5682863999
97.8618222096
96.1272955652
94.3681794513
92.5885831663
90.7932781362
88.9876910309
87.1778349774
85.3700896448
83.5710985148
81.7883869835
80.0290273575
78.3015781484
149.635506322
148.277690281
147.48694331
146.987100426
146.596260359
146.27250509
145.988094108
145.723588838
145.46818764
145.215744255
144.962433051
144.705741708
144.443934038
144.175734021
143.900141273
143.616320639
143.32353387
143.021096469
142.708351213
142.384649434
142.049331641
141.701748364
141.341247579
140.967145878
140.578751535
140.175360892
139.756256847
139.32070767
138.86797221
138.397297611
137.907918933
137.399060333
136.869935763
136.319749607
135.747697382
135.152966658
134.534738448
133.892186289
133.224478184
132.530778383
131.810248399
131.06204819
130.285337781
129.479279114
128.643038108
127.775786972
126.876706859
125.944990915
124.979847735
123.980505241
122.94621534
121.876259205
120.769953414
119.626657122
118.445780527
117.226794898
115.969243941
114.672756577
113.337063931
111.962017778
110.547612318
109.094009634
107.601569287
106.070882427
104.502810992
102.898532021
101.259586755
99.5879323258
97.8859966338
96.1567530019
94.4037489883
92.6311528424
90.8437691917
89.0470155535
87.2467886042
85.4489527154
83.6590338916
81.8817837851
80.1120169827
78.3199381651
151.428614859
148.500516954
147.386988767
146.859917771
146.492817916
146.198244676
145.936787375
145.688421817
145.444066396
145.199154297
144.950990708
144.697822963
144.438420962
144.171851068
143.897348473
143.614241881
143.321907505
143.019740732
142.707139018
142.383494924
142.048203068
141.700623643
141.340087604
140.965929729
140.577467833
140.174002677
139.754820397
139.319195832
138.866386874
138.395639035
137.906187363
137.397256163
136.868059458
136.317801665
135.745678315
135.150876797
134.532577276
133.889953679
133.222174815
132.528405402
131.807807326
131.059541094
130.282767445
129.476649142
128.640353049
127.773052493
126.873929963
125.942180186
124.977013632
123.977660555
122.943375656
121.873443452
120.767184506
119.623962727
118.443193931
117.224355854
115.967000013
114.670765451
113.335394947
111.960753983
110.546852939
109.093873047
107.602196421
106.072440683
104.505498486
102.902582035
101.265272802
99.5955790274
97.8959950833
96.1695278178
94.4197825602
92.6509968178
90.8680604163
89.0764940193
87.2823508895
85.4921470048
83.7123325712
81.9477782214
80.1782696915
78.2789648974
58.2270700234
54.6758665437
52.285601944
50.3304142338
48.6615371287
47.2084504814
45.9267633262
44.7863510146
43.7651685211
42.8461915618
42.0158570983
41.2631270107
40.5788736181
39.9554488867
39.3863658746
38.8660578085
38.3896950546
37.9530467508
37.552376969
37.1843664346
36.8460527836
36.5347837285
36.248179158
35.9840992365
35.7406170734
35.5159946307
35.3086615383
35.117196379
34.9403102212
34.7768320585
34.6256959545
34.4859296468
34.3566446241
34.2370273875
34.12633201
34.0238735762
33.9290224632
33.8411998728
33.7598782494
33.6846018248
33.6150201614
33.5506938924
33.4911552596
33.4360261325
33.3849753335
33.3376977904
33.2939085036
33.2533413082
33.21574892
33.1809020725
33.1485881619
33.1186098903
33.0907840417
33.0649405243
33.0409217852
33.0185816671
32.997784588
32.9784045787
32.9603251334
32.9434382858
32.9276446315
32.912852018
32.8989752417
32.8859355433
32.8736608328
32.8620846726
32.8511460474
32.8407879126
32.8309572326
32.8216059756
32.8126920112
32.804181701
32.796032521
32.7882101543
32.7806813495
32.7734271577
32.7664056638
32.7596067092
32.7530044253
32.7465918998
32.7403576659
32.7342648019
32.7282985619
32.7224455821
32.7166937618
32.7110325866
32.7054526941
32.6999453457
32.6945024272
32.6891167858
32.68378229
32.6784936539
32.6732464426
32.6680368306
32.6628613074
32.6577168622
32.6526014666
32.6475139731
32.6424536316
32.6374201286
32.632413896
32.6274359039
32.6224875189
32.6175708117
32.6126888639
32.6078456213
32.6030458891
32.5982963834
32.5936054486
32.5889816254
32.5844343998
32.5799759108
32.5756203681
32.5713842788
32.5672867278
32.5633497375
32.5596001284
32.5560680309
32.5527876586
32.5497987079
32.5471494039
32.5448947588
32.5430985156
32.5418362266
32.5411978415
32.5412866116
32.5422255749
32.5441621404
32.5472659419
32.5517491832
32.5578574094
32.5658880829
32.5761982946
32.5892183632
32.6054691532
32.6255761644
32.6502953276
32.680533908
32.7173705104
32.7620661744
32.8159895545
32.8803892397
32.9558410484
33.041087467
33.1308428217
33.215120142
33.2674558874
33.252707523
33.1153059643
32.775753285
32.1252833123
31.0326634655
29.3757893707
27.0816853574
24.1441242061
20.6305224319
16.6571693798
12.1746807155
6.90630895598
1.66822210421
61.4092559726
57.3564178458
54.6457931158
52.4958775444
50.6972398159
49.1511373929
47.7989450179
46.6030114877
45.5367986322
44.5804082588
43.7183584638
42.9382859
42.2301215609
41.5855341978
40.9975308674
40.4601635904
39.9683105556
39.5175137585
39.1038581671
38.7238813034
38.3745052238
38.0529832619
37.7568571016
37.4839217986
37.2321952807
36.9998924065
36.7854019483
36.5872668996
36.404166883
36.2349034111
36.0783862141
35.9336219764
35.7997038308
35.6758024858
35.5611579305
35.4550727358
35.3569055756
35.2660656813
35.1820050023
35.1042035748
35.0321535701
34.9653880147
34.9035913356
34.8463975111
34.7934542068
34.7444291014
34.6990246692
34.6569667433
34.6180004968
34.5818894343
34.548413618
34.517368799
34.4885650331
34.46182612
34.4369883976
34.4139000482
34.3924202159
34.3724177542
34.35377158
34.3363691235
34.3201070878
34.3048893126
34.2906273108
34.2772391542
34.2646499613
34.2527898893
34.241595181
34.231006603
34.2209702549
34.2114361224
34.2023553371
34.1936792293
34.1853744549
34.1774061619
34.1697417896
34.1623590313
34.1552216593
34.1483127749
34.1416068196
34.1350825265
34.1287117033
34.1224873097
34.1163946289
34.1104197574
34.1045501804
34.09877502
34.0930843556
34.0874691643
34.0819210692
34.0764324984
34.0709971596
34.0656097334
34.0602652057
34.0549595941
34.0496891063
34.0444501254
34.0392407858
34.0340595272
34.0289052054
34.0237770839
34.0186752807
34.0135999638
34.0085522342
34.0035331323
33.9985458742
33.9935929667
33.9886791034
33.9838096919
33.9789925572
33.9742342842
33.969544929
33.9649341408
33.9604158628
33.9560062548
33.9517209129
33.9475838478
33.9436163369
33.9398539308
33.9363212322
33.9330668122
33.9301290572
33.9275694606
33.9254471935
33.9238419607
33.9228394221
33.922552746
33.9231010845
33.9246380676
33.9273425684
33.9314334269
33.9371683428
33.9448573949
33.954883104
33.96769542
33.983855662
34.0040307923
34.0290307527
34.0598345211
34.0976177907
34.1437412988
34.1997016755
34.2668540952
34.3458314628
34.4352962122
34.529620675
34.6167954558
34.6703743253
34.651152558
34.4988846206
34.1270250891
33.4189871603
32.2388025543
30.4668607702
28.0403254285
24.9648344948
21.311634085
17.1957343722
12.5863601459
7.22021735166
1.81049244946
63.6174684358
59.6838487116
56.8181533943
54.5367993689
52.6382358473
51.015639125
49.6035610297
48.3595753774
47.253908281
46.2644493849
45.3741754733
44.5696285919
43.8399487695
43.1762239411
42.5710281662
42.0180858811
41.512024111
41.0481896913
40.6225142324
40.2314132204
39.8717105996
39.5405799192
39.2354972638
38.9542029633
38.6946686803
38.4550696624
38.2337602673
38.0292532046
37.8402008778
37.6653799648
37.5036771006
37.3540768919
37.2156509612
37.0875487435
36.9689889966
36.8592531542
36.7576789009
36.6636553787
36.5766198973
36.4960572425
36.4214948803
36.3524613646
36.2885221431
36.2293087923
36.1744789516
36.123716431
36.0767157838
36.0331913764
35.9928778275
35.9555291851
35.9209168754
35.8888288834
35.859068112
35.8314516864
35.8058098429
35.7819849033
35.759830785
35.739211341
35.7200010463
35.7020831112
35.6853503886
35.6697030259
35.6550488745
35.6413020581
35.6283852727
35.6162264043
35.6047592772
35.5939213921
35.5836510502
35.5738985947
35.5646196575
35.5557723441
35.5473152967
35.5392112428
35.5314261113
35.5239319785
35.5166964715
35.5096973685
35.5029102032
35.4963142712
35.4898883425
35.483615299
35.4774787151
35.4714633727
35.4655560121
35.4597451102
35.4540199678
35.4483709741
35.4427894486
35.4372674779
35.4317983616
35.4263763801
35.4209959838
35.4156525424
35.4103418892
35.4050600896
35.3998049899
35.3945746914
35.3893676516
35.3841827256
35.3790195085
35.3738775188
35.3687576716
35.3636606684
35.3585890113
35.3535450307
35.3485329772
35.3435568647
35.3386237213
35.3337394024
35.3289131212
35.3241545594
35.3194762127
35.3148930436
35.3104194633
35.3060791178
35.301890843
35.2978885807
35.2940968806
35.2905631508
35.2873254303
35.2844431035
35.281975856
35.2800033925
35.2786103362
35.2779097535
35.2780255529
35.2791145859
35.2813592022
35.2849831296
35.2902547564
35.2974951341
35.3071043815
35.3195503499
35.3354214318
35.3554213328
35.3804028749
35.411403909
35.4496729256
35.4966510492
35.5539251528
35.6229212467
35.70427135
35.7964707636
35.8934569221
35.9815631305
36.0336336444
36.0069306355
35.8369281863
35.4308620523
34.66555044
33.4013911329
31.5214478837
28.9718083755
25.7679525028
21.983139105
17.7298367848
12.9950759642
7.53025223488
1.94938042357
65.4222180404
61.6978060086
58.7954286128
56.4429379632
54.4763052412
52.7958314805
51.3359417861
50.0523553361
48.9134886645
47.8957848088
46.9811208644
46.1552165186
45.406598265