/*--------------------------------*- C++ -*----------------------------------*\
| =========                 |                                                 |
| \\      /  F ield         | OpenFOAM: The Open Source CFD Toolbox           |
|  \\    /   O peration     | Version:  2106                                  |
|   \\  /    A nd           | Website:  www.openfoam.com                      |
|    \\/     M anipulation  |                                                 |
\*---------------------------------------------------------------------------*/
FoamFile
{
    version     2.0;
    format      ascii;
    arch        "LSB;label=32;scalar=64";
    class       volVectorField;
    location    "0.14";
    object      U;
}
// * * * * * * * * * * * * * * * * * * * * * * * * * * * * * * * * * * * * * //

dimensions      [0 1 -1 0 0 0 0];

internalField   nonuniform List<vector> 
11200
(
(0.662462403748 0.150569443869 0)
(0.558948670486 0.103243390294 0)
(0.383850730823 0.0513512267348 0)
(0.283747585403 0.0248708578519 0)
(0.232075257437 0.0124170475094 0)
(0.201908572186 0.00662281872169 0)
(0.183197917336 0.00380291593329 0)
(0.17127647259 0.00231587119161 0)
(0.163510290336 0.0014645072922 0)
(0.158388754052 0.000944892781294 0)
(0.155006616293 0.000615176881651 0)
(0.15278666292 0.000402233369292 0)
(0.151346515499 0.000264231263844 0)
(0.150428282861 0.000175248528959 0)
(0.149856685489 0.000118358134237 0)
(0.14951249457 8.21560814224e-05 0)
(0.149314949058 5.88598515051e-05 0)
(0.149209607376 4.33063589602e-05 0)
(0.149159772718 3.2921790784e-05 0)
(0.149142565685 2.8173394276e-05 0)
(0.14914476709 2.76693740397e-05 0)
(0.14915709443 2.98847129384e-05 0)
(0.149172772907 3.30472089716e-05 0)
(0.14918838749 3.59624843872e-05 0)
(0.149202672672 3.85985671529e-05 0)
(0.149215026904 4.10390970765e-05 0)
(0.149225280838 4.33182476708e-05 0)
(0.14923353934 4.54667196826e-05 0)
(0.149240036841 4.75229350044e-05 0)
(0.149245052664 4.95320033447e-05 0)
(0.149248868332 5.15518592452e-05 0)
(0.149251750176 5.36693327238e-05 0)
(0.149253894423 5.5980451287e-05 0)
(0.149255466954 5.83598285518e-05 0)
(0.149256605553 6.07271202715e-05 0)
(0.149257397602 6.30582491024e-05 0)
(0.149257929659 6.5359636692e-05 0)
(0.14925828554 6.76406215058e-05 0)
(0.149258524388 6.99143530644e-05 0)
(0.149258677203 7.21879841307e-05 0)
(0.149258765174 7.44631393285e-05 0)
(0.149258805809 7.67406422898e-05 0)
(0.149258811941 7.9020324806e-05 0)
(0.149258793088 8.13011385571e-05 0)
(0.149258756301 8.35815053226e-05 0)
(0.149258706897 8.58591465819e-05 0)
(0.149258649575 8.81312329819e-05 0)
(0.149258589073 9.03946753981e-05 0)
(0.149258530079 9.26465147683e-05 0)
(0.14925847814 9.48835988948e-05 0)
(0.149258440662 9.71030447125e-05 0)
(0.149258427166 9.93020854342e-05 0)
(0.149258450231 0.00010147791592 0)
(0.149258527014 0.00010362752079 0)
(0.149258681506 0.00010574719297 0)
(0.149258948057 0.000107831789092 0)
(0.149259376119 0.000109874303261 0)
(0.14926003717 0.000111865376259 0)
(0.149261037314 0.000113791167124 0)
(0.149262533514 0.000115627570323 0)
(0.149264765936 0.000117322372141 0)
(0.149268138778 0.000118788691291 0)
(0.149273137646 0.000120053907091 0)
(0.149280407163 0.0001213024369 0)
(0.149290974644 0.0001229858273 0)
(0.149306363929 0.000125343370031 0)
(0.149328965101 0.000128129763484 0)
(0.149362496825 0.000131106061958 0)
(0.14941258868 0.000134049602575 0)
(0.149487522656 0.000136848559887 0)
(0.149599309281 0.000140815499876 0)
(0.149771005601 0.000151859103173 0)
(0.150040599859 0.000172752855012 0)
(0.150471497769 0.000203234162617 0)
(0.151200060298 0.000233509333203 0)
(0.15250527292 0.000192801975004 0)
(0.155045844959 -0.000218280223471 0)
(0.16242354177 -0.00212731571968 0)
(0.187876085402 -0.0108854098311 0)
(0.205080025069 -0.0502259033517 0)
(0.965408254641 0.289214709614 0)
(0.961962856735 0.252656045188 0)
(0.823574384341 0.159021448368 0)
(0.698139354974 0.0959957382221 0)
(0.61022544291 0.0582481206195 0)
(0.548971463737 0.0362148588295 0)
(0.506588853619 0.0231612898631 0)
(0.477567226276 0.0151375190778 0)
(0.457745441669 0.0100177578611 0)
(0.444228403749 0.00665814268356 0)
(0.435053235916 0.00441555626271 0)
(0.42887305191 0.00290686376932 0)
(0.424754135353 0.00189105346027 0)
(0.422046590176 0.00121003642582 0)
(0.420297765077 0.000757149172616 0)
(0.41919317777 0.000459234583601 0)
(0.418515606849 0.000265824440363 0)
(0.418116509576 0.000142358226312 0)
(0.417895974587 6.60569032936e-05 0)
(0.417787013921 2.30327942631e-05 0)
(0.417745728923 1.33802612013e-06 0)
(0.417742596551 -1.02623163934e-05 0)
(0.417757346888 -1.38297122667e-05 0)
(0.417779489995 -1.33994327349e-05 0)
(0.417803994965 -1.09839474337e-05 0)
(0.417827595709 -7.65576910534e-06 0)
(0.417848594153 -4.05135822773e-06 0)
(0.417866386219 -5.39828483899e-07 0)
(0.417880968988 2.67900907323e-06 0)
(0.417892648856 5.50424883699e-06 0)
(0.417901888232 7.87769622646e-06 0)
(0.417909191814 9.72319037628e-06 0)
(0.417914772856 1.09379238027e-05 0)
(0.41791884148 1.18092856567e-05 0)
(0.417921770715 1.26144489129e-05 0)
(0.417923838342 1.33722958771e-05 0)
(0.417925269395 1.40581458205e-05 0)
(0.41792625846 1.46809992042e-05 0)
(0.41792694444 1.52734024218e-05 0)
(0.41792740248 1.58494159743e-05 0)
(0.417927685546 1.64105027598e-05 0)
(0.417927837657 1.69609068519e-05 0)
(0.417927891417 1.75041544868e-05 0)
(0.417927871444 1.80430129444e-05 0)
(0.417927796175 1.85805790719e-05 0)
(0.417927679487 1.91192466186e-05 0)
(0.417927533358 1.96610537402e-05 0)
(0.417927369657 2.02082483243e-05 0)
(0.417927200099 2.0763533957e-05 0)
(0.417927038589 2.13275183623e-05 0)
(0.417926903726 2.19009810726e-05 0)
(0.417926819707 2.24849066631e-05 0)
(0.417926818911 2.30799869646e-05 0)
(0.417926945641 2.36862338044e-05 0)
(0.417927261541 2.43026332382e-05 0)
(0.417927854607 2.49271076969e-05 0)
(0.417928852028 2.55568980918e-05 0)
(0.417930437859 2.6184808746e-05 0)
(0.417932881536 2.67907340955e-05 0)
(0.417936570641 2.73432243955e-05 0)
(0.41794209048 2.77972828789e-05 0)
(0.417950519419 2.80850720499e-05 0)
(0.417963370549 2.83478021957e-05 0)
(0.417982780526 2.79504686958e-05 0)
(0.418011564164 2.54576047303e-05 0)
(0.418053340783 1.96815021559e-05 0)
(0.418114268382 9.81641730975e-06 0)
(0.418204534031 -5.67128235472e-06 0)
(0.418339870052 -2.93281542904e-05 0)
(0.418545396489 -6.48734812546e-05 0)
(0.4188633985 -0.000116540804873 0)
(0.419364056488 -0.000189361767791 0)
(0.420161871941 -0.00031041948851 0)
(0.421462443095 -0.000537678300758 0)
(0.423661022445 -0.00100900082172 0)
(0.427483769234 -0.00210931049157 0)
(0.434368820948 -0.00490057818189 0)
(0.448527293025 -0.0123710244457 0)
(0.47520607716 -0.0345821466955 0)
(0.479354927284 -0.0998956925586 0)
(1.02222096595 0.238416189333 0)
(1.08213752832 0.295926659115 0)
(1.03447722234 0.239503075412 0)
(0.954615400778 0.17429017416 0)
(0.879992042017 0.12134547783 0)
(0.818614416571 0.0830993927905 0)
(0.77141082603 0.0567316748325 0)
(0.736634360757 0.0387409750933 0)
(0.711624397698 0.0264327920575 0)
(0.693916581821 0.0179731075728 0)
(0.681541369722 0.0121424475411 0)
(0.673000077767 0.00812490286546 0)
(0.667180617725 0.00536630851496 0)
(0.663271659585 0.00348442210533 0)
(0.660688509834 0.00221252518207 0)
(0.659014219929 0.00136332774779 0)
(0.657954590071 0.000805167744162 0)
(0.657304368895 0.000445814715178 0)
(0.656922047242 0.000220937805066 0)
(0.656710605937 8.54196618618e-05 0)
(0.656603887251 8.16214651153e-06 0)
(0.656562522412 -3.39848466802e-05 0)
(0.656558844868 -5.7193116896e-05 0)
(0.656572562781 -6.72573682343e-05 0)
(0.65659436482 -6.89052118819e-05 0)
(0.656618484109 -6.60234727928e-05 0)
(0.656641606959 -6.10490881856e-05 0)
(0.656662120683 -5.53908265778e-05 0)
(0.656679434653 -4.98316080352e-05 0)
(0.656693522367 -4.47762487749e-05 0)
(0.656704625658 -4.04147915663e-05 0)
(0.656713104116 -3.68567404949e-05 0)
(0.656719619848 -3.42189844663e-05 0)
(0.656724863418 -3.23379051904e-05 0)
(0.656728956916 -3.12085662038e-05 0)
(0.656731914695 -3.06398485412e-05 0)
(0.656733973621 -3.04946189092e-05 0)
(0.656735418772 -3.07483442301e-05 0)
(0.656736439138 -3.12353246598e-05 0)
(0.656737128341 -3.18615442369e-05 0)
(0.656737561534 -3.25947902916e-05 0)
(0.656737804687 -3.34031282224e-05 0)
(0.656737905589 -3.42610999391e-05 0)
(0.656737901286 -3.51496653019e-05 0)
(0.656737819928 -3.60524617031e-05 0)
(0.656737682603 -3.69580201634e-05 0)
(0.656737507542 -3.78586794255e-05 0)
(0.656737312319 -3.87487941759e-05 0)
(0.656737112304 -3.96216709115e-05 0)
(0.65673692563 -4.04725713997e-05 0)
(0.656736778509 -4.12956156365e-05 0)
(0.656736705532 -4.20858475063e-05 0)
(0.656736753221 -4.28405043265e-05 0)
(0.65673698594 -4.35605187208e-05 0)
(0.65673749471 -4.4254761128e-05 0)
(0.656738410762 -4.49487557969e-05 0)
(0.656739921105 -4.56949023328e-05 0)
(0.656742289449 -4.6582748197e-05 0)
(0.656745908214 -4.77515384623e-05 0)
(0.656751371015 -4.94182311678e-05 0)
(0.656759577191 -5.20511795455e-05 0)
(0.656772147374 -5.6705921067e-05 0)
(0.656790539459 -6.41859447953e-05 0)
(0.65681618802 -7.54369779682e-05 0)
(0.656852758688 -9.20865137652e-05 0)
(0.656906993753 -0.000116600987271 0)
(0.65698841145 -0.000152202378186 0)
(0.65711090163 -0.000204227836544 0)
(0.657296453486 -0.000281302719959 0)
(0.657580786935 -0.000397485207276 0)
(0.658022610949 -0.000577439545093 0)
(0.658712092719 -0.000868973292433 0)
(0.659798041955 -0.00136310336895 0)
(0.661541177238 -0.00223480080343 0)
(0.664389419645 -0.00385049399481 0)
(0.669049280216 -0.00701787665042 0)
(0.676566268431 -0.0134972833635 0)
(0.688982375962 -0.027153369552 0)
(0.705913711986 -0.0570190803529 0)
(0.701633862521 -0.114721470524 0)
(1.02251475509 0.170807154427 0)
(1.10138975653 0.276496485965 0)
(1.11752425917 0.266664809968 0)
(1.09214660068 0.219901710939 0)
(1.05187814725 0.168168859555 0)
(1.01020821098 0.123567407929 0)
(0.973494672027 0.08883753181 0)
(0.943864531509 0.0630063804803 0)
(0.921142769363 0.0442232110292 0)
(0.904284037463 0.0307423964491 0)
(0.892074830282 0.0211562925719 0)
(0.883404472059 0.0143954587626 0)
(0.877352636968 0.0096679261971 0)
(0.87319768623 0.00639379779553 0)
(0.870392931574 0.00415110182271 0)
(0.868534077925 0.00263439719739 0)
(0.867327732588 0.0016238853192 0)
(0.866564401005 0.000962497899327 0)
(0.86609673902 0.000538890893397 0)
(0.865822618475 0.000274861367074 0)
(0.865671915709 0.00011670968697 0)
(0.865595825296 2.83707958828e-05 0)
(0.865564986692 -1.9815355552e-05 0)
(0.865562439029 -4.1823679239e-05 0)
(0.865574050302 -4.82881954119e-05 0)
(0.865591344569 -4.61970499858e-05 0)
(0.865609962542 -3.98654958507e-05 0)
(0.86562762386 -3.18793800879e-05 0)
(0.865643237551 -2.37086776481e-05 0)
(0.865656429325 -1.61207774859e-05 0)
(0.865667225508 -9.44671312157e-06 0)
(0.865675827076 -3.74241398244e-06 0)
(0.865682490733 1.08740779074e-06 0)
(0.865687434033 4.91747826993e-06 0)
(0.865691024569 7.63769232904e-06 0)
(0.865693664298 9.50080635604e-06 0)
(0.865695484888 1.08777563665e-05 0)
(0.86569676031 1.20682491415e-05 0)
(0.865697734073 1.30790154136e-05 0)
(0.86569841951 1.39902380593e-05 0)
(0.865698853792 1.48191510835e-05 0)
(0.865699101177 1.55817555918e-05 0)
(0.865699205164 1.62906462051e-05 0)
(0.865699200191 1.69584637443e-05 0)
(0.86569911217 1.76001042081e-05 0)
(0.865698958852 1.82261935553e-05 0)
(0.865698756417 1.88455866372e-05 0)
(0.865698523953 1.94690395529e-05 0)
(0.865698280243 2.01118245221e-05 0)
(0.865698048075 2.07651680607e-05 0)
(0.865697858706 2.14213791634e-05 0)
(0.865697751318 2.20730702814e-05 0)
(0.865697778184 2.27068979559e-05 0)
(0.865698009103 2.32994597028e-05 0)
(0.865698535458 2.38128669711e-05 0)
(0.865699481072 2.41946553937e-05 0)
(0.865701023593 2.43942579949e-05 0)
(0.865703425535 2.4346603913e-05 0)
(0.865707074999 2.38776313767e-05 0)
(0.865712425682 2.26231798011e-05 0)
(0.865719872677 1.99562945125e-05 0)
(0.865730981756 1.52334168592e-05 0)
(0.865748354586 6.6914630184e-06 0)
(0.865775005772 -7.46478489606e-06 0)
(0.865814875912 -2.92471002523e-05 0)
(0.865873853635 -6.25654908954e-05 0)
(0.865961298929 -0.00011437070386 0)
(0.866091804871 -0.000195556721427 0)
(0.866288095852 -0.000323600485991 0)
(0.866585324114 -0.000527341660363 0)
(0.867037710897 -0.000856347488217 0)
(0.86773138062 -0.00139860062821 0)
(0.86880453011 -0.00230475130596 0)
(0.870473672389 -0.00385295535466 0)
(0.873063334719 -0.00657436997963 0)
(0.876981950351 -0.0114924320397 0)
(0.882566999339 -0.0205055129253 0)
(0.890022010535 -0.0369450258935 0)
(0.896920599697 -0.0664636023221 0)
(0.887357265249 -0.111953506399 0)
(1.01287875119 0.118961024836 0)
(1.08820670653 0.231806944542 0)
(1.13741366903 0.253106776211 0)
(1.15409086298 0.22899276692 0)
(1.14994210147 0.18836837264 0)
(1.13538464384 0.146579857388 0)
(1.11758893348 0.110150978188 0)
(1.10059498376 0.0808162331254 0)
(1.08612454943 0.0582265849348 0)
(1.07459089981 0.041318989273 0)
(1.0657914404 0.0289160174102 0)
(1.05928796328 0.0199600859735 0)
(1.05459974226 0.0135815293898 0)
(1.05129075338 0.00909738875395 0)
(1.04899985191 0.00598606749825 0)
(1.04744343439 0.00385683843204 0)
(1.0464065983 0.00242141821301 0)
(1.04573073446 0.00146990834197 0)
(1.04530124704 0.000851388320816 0)
(1.04503683625 0.000458621974545 0)
(1.04488057831 0.000216275231515 0)
(1.04479309376 7.2456064926e-05 0)
(1.04474937972 -6.12924177798e-06 0)
(1.04473264924 -4.47209121808e-05 0)
(1.04473059599 -6.01751184993e-05 0)
(1.04473629351 -6.2568877584e-05 0)
(1.04474546898 -5.81360840966e-05 0)
(1.04475559223 -5.07126810924e-05 0)
(1.04476528053 -4.2547910328e-05 0)
(1.04477386001 -3.48622349897e-05 0)
(1.04478107634 -2.82423420442e-05 0)
(1.04478691034 -2.28956098543e-05 0)
(1.04479149756 -1.87856170454e-05 0)
(1.04479504322 -1.57213706015e-05 0)
(1.0447977815 -1.33523113859e-05 0)
(1.04479997697 -1.15148626262e-05 0)
(1.04480182384 -1.00354245469e-05 0)
(1.04480328214 -8.70883789291e-06 0)
(1.04480434502 -7.61158974991e-06 0)
(1.04480510761 -6.82243409047e-06 0)
(1.04480559592 -6.35197139089e-06 0)
(1.04480587396 -6.07644256145e-06 0)
(1.04480599057 -5.9309860161e-06 0)
(1.04480598888 -5.87347216681e-06 0)
(1.04480589958 -5.85611319205e-06 0)
(1.04480574297 -5.85497644989e-06 0)
(1.04480554105 -5.86007857714e-06 0)
(1.04480532051 -5.87093843951e-06 0)
(1.04480508473 -5.89977891493e-06 0)
(1.04480483918 -5.92992459837e-06 0)
(1.04480461835 -5.95100456601e-06 0)
(1.04480446313 -5.96411751958e-06 0)
(1.04480442289 -5.97490128375e-06 0)
(1.04480456471 -5.99572559483e-06 0)
(1.0448049881 -6.05383133868e-06 0)
(1.04480585993 -6.21799103644e-06 0)
(1.04480742304 -6.68119411286e-06 0)
(1.04480993639 -7.81602062251e-06 0)
(1.04481369127 -1.0052871454e-05 0)
(1.04481912024 -1.37911093539e-05 0)
(1.04482720509 -1.87559580759e-05 0)
(1.0448391679 -2.49204913299e-05 0)
(1.04485622962 -3.45354050999e-05 0)
(1.04488063425 -5.059321713e-05 0)
(1.04491587236 -7.74137078126e-05 0)
(1.04496709698 -0.000121328303859 0)
(1.04504193591 -0.000192221053188 0)
(1.04515178559 -0.000305843988119 0)
(1.04531389782 -0.000487667816499 0)
(1.04555436001 -0.000779242124953 0)
(1.04591230945 -0.00124878644491 0)
(1.04644637954 -0.00200943405179 0)
(1.04724200808 -0.00325442855828 0)
(1.04841443154 -0.00531944050314 0)
(1.05009468891 -0.00879025372341 0)
(1.0523450119 -0.0146772887111 0)
(1.05492835147 -0.0246188306414 0)
(1.05706014997 -0.0409819092321 0)
(1.05602623716 -0.0667036267328 0)
(1.0424690921 -0.101434418118 0)
(1.00447483459 0.0814039983735 0)
(1.06917237149 0.181288546189 0)
(1.13080568486 0.216950430014 0)
(1.17375000098 0.210789168644 0)
(1.19865264789 0.183690090377 0)
(1.21019987507 0.149751696412 0)
(1.21350255147 0.116779156221 0)
(1.21251723331 0.0882206883743 0)
(1.20973097457 0.0650481586184 0)
(1.2065111866 0.0470209117189 0)
(1.20351912266 0.033406803211 0)
(1.20101144141 0.0233557143509 0)
(1.1990344418 0.0160719764522 0)
(1.19753877269 0.0108794491599 0)
(1.19644131264 0.00723408682817 0)
(1.19565559132 0.00471336982362 0)
(1.19510490669 0.00299742148375 0)
(1.19472650942 0.00184888269921 0)
(1.1944715495 0.00109460087466 0)
(1.19430326628 0.000610161083653 0)
(1.19419466045 0.000307438802183 0)
(1.19412641959 0.000125121672839 0)
(1.19408541768 2.14702661076e-05 0)
(1.19406221391 -3.33025924973e-05 0)
(1.19404998106 -5.82020300644e-05 0)
(1.19404455395 -6.55980573042e-05 0)
(1.19404313359 -6.34308137743e-05 0)
(1.19404390086 -5.66107380866e-05 0)
(1.19404573777 -4.80472165826e-05 0)
(1.194047984 -3.93555651255e-05 0)
(1.19405026516 -3.13406145094e-05 0)
(1.19405238619 -2.43132192058e-05 0)
(1.19405427267 -1.83003189176e-05 0)
(1.19405591921 -1.3223580654e-05 0)
(1.19405734313 -8.97518885289e-06 0)
(1.19405856284 -5.48158648416e-06 0)
(1.19405957288 -2.71876579626e-06 0)
(1.19406032844 -6.88955797927e-07 0)
(1.1940607795 7.66677600311e-07 0)
(1.19406094107 1.73632616233e-06 0)
(1.19406098307 2.48150600151e-06 0)
(1.19406100769 3.13970286342e-06 0)
(1.19406098035 3.72234558416e-06 0)
(1.1940609131 4.24092637101e-06 0)
(1.19406081166 4.69792795711e-06 0)
(1.19406066081 5.10768545906e-06 0)
(1.19406045642 5.48243515349e-06 0)
(1.19406019921 5.82237111048e-06 0)
(1.19405992069 6.11178943485e-06 0)
(1.19405966396 6.3718800717e-06 0)
(1.19405944938 6.61943148919e-06 0)
(1.19405930878 6.84353870142e-06 0)
(1.19405929388 7.01952685584e-06 0)
(1.19405947 7.10906751145e-06 0)
(1.19405990235 7.05505679663e-06 0)
(1.19406060932 6.77521109264e-06 0)
(1.19406156187 6.13356778053e-06 0)
(1.19406288104 4.82769896358e-06 0)
(1.19406500217 2.28602539008e-06 0)
(1.19406906168 -1.70471243842e-06 0)
(1.19407596827 -7.91250826637e-06 0)
(1.19408550742 -1.77350256945e-05 0)
(1.19409827858 -3.32181527495e-05 0)
(1.19411622415 -5.72590221999e-05 0)
(1.1941414831 -9.44660205936e-05 0)
(1.19417684999 -0.00015221426601 0)
(1.19422629081 -0.000242270028798 0)
(1.19429541232 -0.000383310213416 0)
(1.19439207905 -0.00060516025236 0)
(1.19452708914 -0.000955792777398 0)
(1.19471465008 -0.00151281865512 0)
(1.19497176828 -0.00240222247692 0)
(1.1953135909 -0.00383038268811 0)
(1.19573799962 -0.00613575584351 0)
(1.19618547966 -0.00986681369415 0)
(1.19643675989 -0.0158842314077 0)
(1.19590335194 -0.0254280761897 0)
(1.19342241724 -0.04000249698 0)
(1.18663272293 -0.0609249284409 0)
(1.16994640827 -0.0869837414274 0)
(0.998962325442 0.0544316256359 0)
(1.05310956642 0.133401614157 0)
(1.11628268033 0.170777568534 0)
(1.17301271756 0.175143884026 0)
(1.21791246054 0.159583618641 0)
(1.25049857732 0.134951031923 0)
(1.27288491015 0.108411667697 0)
(1.28776722033 0.0838849811532 0)
(1.2974526791 0.0630565790337 0)
(1.30366074929 0.0462999233945 0)
(1.30759234149 0.0333205089188 0)
(1.3100536974 0.0235495054985 0)
(1.31157361775 0.0163598702991 0)
(1.31249491445 0.0111712507876 0)
(1.31303859808 0.00749140599332 0)
(1.31334667588 0.0049243381433 0)
(1.31351007038 0.00316274895273 0)
(1.31358667411 0.00197447554306 0)
(1.31361301636 0.00118783977205 0)
(1.31361182389 0.000678182204696 0)
(1.31359693341 0.000356464691706 0)
(1.31357654964 0.000160110102441 0)
(1.31355547998 4.57194120115e-05 0)
(1.31353610872 -1.67223037851e-05 0)
(1.31351936877 -4.69894747686e-05 0)
(1.31350558171 -5.80706636316e-05 0)
(1.31349457534 -5.83821255478e-05 0)
(1.31348601465 -5.31811515195e-05 0)
(1.31347951209 -4.56347411128e-05 0)
(1.31347468414 -3.75659317445e-05 0)
(1.31347118166 -2.99482287528e-05 0)
(1.31346870377 -2.32360643445e-05 0)
(1.31346699629 -1.75814100379e-05 0)
(1.31346583519 -1.29881241014e-05 0)
(1.31346504965 -9.39390764618e-06 0)
(1.31346453729 -6.70171626153e-06 0)
(1.31346421091 -4.78494452989e-06 0)
(1.3134639737 -3.47311483813e-06 0)
(1.31346378407 -2.54519396725e-06 0)
(1.31346374116 -1.80358945968e-06 0)
(1.31346385688 -1.15590566193e-06 0)
(1.31346395226 -6.71455554047e-07 0)
(1.31346394868 -2.64000072188e-07 0)
(1.31346386287 1.23532003868e-07 0)
(1.31346371441 4.85788753597e-07 0)
(1.31346352297 8.27700308095e-07 0)
(1.3134632935 1.16279374609e-06 0)
(1.31346302654 1.50815295501e-06 0)
(1.31346274082 1.88347639706e-06 0)
(1.31346246593 2.26329849428e-06 0)
(1.3134622106 2.60979117717e-06 0)
(1.3134619843 2.89526126631e-06 0)
(1.31346181762 3.0803188437e-06 0)
(1.31346175683 3.10389430568e-06 0)
(1.31346187355 2.87707575272e-06 0)
(1.31346228167 2.2848705806e-06 0)
(1.31346306296 1.2233406918e-06 0)
(1.31346414769 -4.04940230225e-07 0)
(1.31346592849 -2.78520867126e-06 0)
(1.31346872745 -6.48291736492e-06 0)
(1.31347263084 -1.2906420407e-05 0)
(1.31347790465 -2.37092504571e-05 0)
(1.31348478918 -4.04891616128e-05 0)
(1.31349372376 -6.63859203462e-05 0)
(1.3135049884 -0.000106450012691 0)
(1.3135186032 -0.000168490356638 0)
(1.31353411935 -0.000264705482153 0)
(1.31355011144 -0.000414217965546 0)
(1.31356320498 -0.000647202813107 0)
(1.31356624701 -0.00101152665507 0)
(1.3135450094 -0.00158333446222 0)
(1.31347162397 -0.00248319892172 0)
(1.31329097334 -0.00390145425271 0)
(1.31289421517 -0.00613574108234 0)
(1.31206908647 -0.00963938939235 0)
(1.31040576357 -0.0150687311496 0)
(1.30714184379 -0.023276198106 0)
(1.3010495862 -0.0351397068631 0)
(1.29022494462 -0.0511499584651 0)
(1.2711253514 -0.0701446894882 0)
(0.995736073913 0.0346338596003 0)
(1.0417951425 0.0905689265325 0)
(1.1022283877 0.121549573688 0)
(1.16491411895 0.129605844187 0)
(1.22202566795 0.122009278658 0)
(1.26951892742 0.10601994797 0)
(1.30680224756 0.0870975646132 0)
(1.33499536605 0.0686366883285 0)
(1.35574478963 0.0523698440545 0)
(1.3706961843 0.0389256190797 0)
(1.38128277175 0.0282980678884 0)
(1.38866269003 0.0201712610693 0)
(1.39373033795 0.0141174783971 0)
(1.39715659685 0.00970528142914 0)
(1.39943431412 0.00655051016775 0)
(1.40091959989 0.00433433006477 0)
(1.40186609529 0.00280397119742 0)
(1.40245204711 0.00176551053884 0)
(1.40280105524 0.00107389457676 0)
(1.40299763917 0.000622858691578 0)
(1.40309872169 0.000335951471586 0)
(1.40314200822 0.000159081769382 0)
(1.40315206943 5.45423291222e-05 0)
(1.40314437247 -3.68306272224e-06 0)
(1.4031283825 -3.28979734442e-05 0)
(1.40310971244 -4.4736784773e-05 0)
(1.4030913944 -4.66582234243e-05 0)
(1.40307495663 -4.33494117872e-05 0)
(1.40306100472 -3.76726418599e-05 0)
(1.40304961779 -3.13029244743e-05 0)
(1.4030405999 -2.5155767546e-05 0)
(1.40303363176 -1.96788636746e-05 0)
(1.40302835855 -1.50425263525e-05 0)
(1.40302443462 -1.12556858207e-05 0)
(1.40302156098 -8.224718663e-06 0)
(1.4030195021 -5.82635781377e-06 0)
(1.40301807944 -3.9399602774e-06 0)
(1.40301714947 -2.43753139855e-06 0)
(1.40301655912 -1.19537761722e-06 0)
(1.40301613083 -1.81071436418e-07 0)
(1.40301574931 6.15321525364e-07 0)
(1.40301546375 1.18751992327e-06 0)
(1.40301530854 1.62123898194e-06 0)
(1.40301519844 1.98550541464e-06 0)
(1.40301508074 2.32906205463e-06 0)
(1.40301494322 2.67452651206e-06 0)
(1.40301478281 3.03297817758e-06 0)
(1.40301459892 3.41120188813e-06 0)
(1.40301438556 3.8134773399e-06 0)
(1.40301413607 4.21976535743e-06 0)
(1.40301386689 4.59674929904e-06 0)
(1.40301360755 4.9193616244e-06 0)
(1.40301338275 5.15248019471e-06 0)
(1.40301321873 5.2419524367e-06 0)
(1.40301313922 5.10617375536e-06 0)
(1.40301315262 4.61673844781e-06 0)
(1.40301324289 3.57438594652e-06 0)
(1.40301345889 1.78707505039e-06 0)
(1.40301385537 -9.53899290555e-07 0)
(1.40301457127 -5.57243738966e-06 0)
(1.40301564874 -1.28252516685e-05 0)
(1.40301670556 -2.40244324509e-05 0)
(1.40301719182 -4.10118584247e-05 0)
(1.40301630764 -6.6756053317e-05 0)
(1.40301250073 -0.000105852040645 0)
(1.40300293545 -0.000165377994112 0)
(1.40298270825 -0.000256304223524 0)
(1.40294343337 -0.000395577475249 0)
(1.4028708038 -0.000609544556194 0)
(1.4027405551 -0.000939360588655 0)
(1.40251223057 -0.00144944523521 0)
(1.40211840371 -0.00223916933033 0)
(1.40144534355 -0.00346023846073 0)
(1.40030165471 -0.00534073019529 0)
(1.39836900726 -0.00821048628409 0)
(1.39512555235 -0.0125157358754 0)
(1.38974325339 -0.0187853927675 0)
(1.38104866174 -0.0274837888789 0)
(1.36750298424 -0.0387284890748 0)
(1.34664345694 -0.0516679548047 0)
(0.994011531068 0.0192358053002 0)
(1.03484763447 0.052333844158 0)
(1.09199262722 0.0723631338664 0)
(1.15662420208 0.0791292392724 0)
(1.22032116821 0.0761045533575 0)
(1.2770194609 0.0673339776017 0)
(1.32424420104 0.0561509086474 0)
(1.36181575189 0.0447990150575 0)
(1.39068532708 0.0345303802202 0)
(1.41226077077 0.0258814327405 0)
(1.42801824084 0.0189465202365 0)
(1.43929885362 0.0135849717022 0)
(1.44722807352 0.00955651373084 0)
(1.45270410612 0.00660008024708 0)
(1.45641889486 0.00447413519699 0)
(1.45889132716 0.00297343258287 0)
(1.46050211691 0.00193265557369 0)
(1.46152541247 0.00122354193369 0)
(1.46215529616 0.000749353753596 0)
(1.46252695402 0.000438770647549 0)
(1.46273302639 0.000240219774783 0)
(1.46283592662 0.000117054570732 0)
(1.46287695288 4.36385004022e-05 0)
(1.46288285464 2.23858921465e-06 0)
(1.46287035351 -1.89602406392e-05 0)
(1.46284961664 -2.80042869415e-05 0)
(1.46282664995 -3.00403494711e-05 0)
(1.46280467549 -2.83143186536e-05 0)
(1.46278523265 -2.48233296104e-05 0)
(1.46276887441 -2.07465658558e-05 0)
(1.46275560063 -1.67346167447e-05 0)
(1.46274512649 -1.31105843496e-05 0)
(1.46273704907 -1.00026420043e-05 0)
(1.46273094202 -7.42547428987e-06 0)
(1.46272640967 -5.32831646441e-06 0)
(1.46272311143 -3.6419242141e-06 0)
(1.46272076316 -2.30132637767e-06 0)
(1.46271911661 -1.26397404413e-06 0)
(1.46271793856 -4.94387885309e-07 0)
(1.46271715355 9.53477296111e-08 0)
(1.462716678 6.0461576521e-07 0)
(1.46271635234 1.11603756886e-06 0)
(1.46271612323 1.59011416916e-06 0)
(1.46271595329 2.01666057347e-06 0)
(1.46271580878 2.41512037391e-06 0)
(1.46271566731 2.80092845968e-06 0)
(1.46271551254 3.18129395811e-06 0)
(1.46271533309 3.55579489153e-06 0)
(1.46271512138 3.9177599916e-06 0)
(1.4627148732 4.26290621735e-06 0)
(1.46271459057 4.58393343965e-06 0)
(1.46271427875 4.85091162737e-06 0)
(1.4627139424 5.01694238473e-06 0)
(1.46271358774 5.01625451737e-06 0)
(1.46271322361 4.75988581615e-06 0)
(1.46271286555 4.13476856398e-06 0)
(1.46271253706 3.01380484795e-06 0)
(1.46271214097 1.28927848112e-06 0)
(1.46271144918 -1.32226398886e-06 0)
(1.46271030035 -5.45560394807e-06 0)
(1.46270843288 -1.19941576506e-05 0)
(1.46270517895 -2.20656677822e-05 0)
(1.46269938897 -3.71870395041e-05 0)
(1.4626891988 -5.97147473979e-05 0)
(1.46267145986 -9.3225368066e-05 0)
(1.46264090014 -0.000143134829966 0)
(1.46258892703 -0.000217692378491 0)
(1.46250152606 -0.000329264914099 0)
(1.46235568933 -0.000496613185656 0)
(1.46211370242 -0.000748553909813 0)
(1.46171515402 -0.00113009060887 0)
(1.46106389312 -0.00170822099826 0)
(1.46000544311 -0.0025808062628 0)
(1.45829452298 -0.00389031673976 0)
(1.45555017065 -0.00583349390865 0)
(1.45119532228 -0.00866046407209 0)
(1.44439071511 -0.0126421873304 0)
(1.43403750711 -0.0179746867263 0)
(1.41882984038 -0.0246265421913 0)
(1.39685118762 -0.0320742158194 0)
(0.993269667019 0.00617014877993 0)
(1.03158099852 0.0171020482714 0)
(1.0867218185 0.0239906526947 0)
(1.15174554717 0.0265606701174 0)
(1.21823536834 0.0258180624603 0)
(1.27925775051 0.0230488887799 0)
(1.33140137279 0.0193656331069 0)
(1.37377600452 0.0155468588504 0)
(1.40691055457 0.0120449305904 0)
(1.43203315646 0.009066399621 0)
(1.45060216917 0.00666059383545 0)
(1.46402987036 0.00479008906435 0)
(1.47355015711 0.00337842337307 0)
(1.4801756032 0.00233872925412 0)
(1.48470221469 0.00158889934366 0)
(1.48773606896 0.00105826644145 0)
(1.48972711906 0.000689430040855 0)
(1.49100243056 0.000437593010171 0)
(1.49179535586 0.000268825291823 0)
(1.49226953072 0.000158033368621 0)
(1.49253778214 8.70277084997e-05 0)
(1.49267657132 4.28570241875e-05 0)
(1.49273677098 1.64425551814e-05 0)
(1.49275155711 1.48944007058e-06 0)
(1.49274188776 -6.25337822968e-06 0)
(1.49272063687 -9.61285470518e-06 0)
(1.49269549832 -1.04330374552e-05 0)
(1.49267070853 -9.87993843746e-06 0)
(1.49264837741 -8.67110531e-06 0)
(1.49262935557 -7.22622913111e-06 0)
(1.49261377559 -5.78218226252e-06 0)
(1.49260138733 -4.45991528855e-06 0)
(1.49259176999 -3.30774135904e-06 0)
(1.49258445534 -2.33297615055e-06 0)
(1.49257899435 -1.52026447394e-06 0)
(1.49257498957 -8.47796460185e-07 0)
(1.49257210549 -2.9425277126e-07 0)
(1.49257007 1.58335283305e-07 0)
(1.49256868684 5.44521267927e-07 0)
(1.49256777114 9.41497463035e-07 0)
(1.49256715673 1.2843371591e-06 0)
(1.49256675174 1.59730986733e-06 0)
(1.49256649192 1.90552577553e-06 0)
(1.49256632192 2.2201894511e-06 0)
(1.49256619743 2.54993852942e-06 0)
(1.49256608751 2.89896826648e-06 0)
(1.49256596989 3.26781438011e-06 0)
(1.49256582788 3.6537502405e-06 0)
(1.49256564836 4.04988148919e-06 0)
(1.49256542083 4.4447932313e-06 0)
(1.49256513833 4.82061636438e-06 0)
(1.4925647954 5.14813079567e-06 0)
(1.49256438437 5.38613510878e-06 0)
(1.4925638934 5.47735196885e-06 0)
(1.49256330275 5.34218581016e-06 0)
(1.49256258276 4.86921174945e-06 0)
(1.49256170982 3.89937922177e-06 0)
(1.49256058235 2.234274112e-06 0)
(1.49255878222 -2.06834167466e-07 0)
(1.49255591419 -3.75313674455e-06 0)
(1.49255156661 -9.27450790934e-06 0)
(1.49254476563 -1.75095882216e-05 0)
(1.49253387125 -2.9458458248e-05 0)
(1.49251628461 -4.6635737087e-05 0)
(1.49248779548 -7.11495499787e-05 0)
(1.49244153745 -0.000106002307583 0)
(1.49236664388 -0.000155643975238 0)
(1.4922457949 -0.000226145786024 0)
(1.49205086971 -0.000326063326365 0)
(1.49173582736 -0.00046853288754 0)
(1.49122880311 -0.000676155839818 0)
(1.49041939279 -0.00097766589513 0)
(1.48913325954 -0.00140744216174 0)
(1.48709990771 -0.00201454266542 0)
(1.48391298947 -0.00286159065322 0)
(1.47897949944 -0.00401804864805 0)
(1.47147173393 -0.00554136710509 0)
(1.46034419642 -0.00743771705621 0)
(1.44440144747 -0.00961918630746 0)
(1.42196275836 -0.0118436500935 0)
(0.993270464808 -0.0061684040018 0)
(1.03158098112 -0.0171003754186 0)
(1.08672175227 -0.0239897603625 0)
(1.15174558508 -0.0265602461652 0)
(1.21823544676 -0.0258179936078 0)
(1.27925785328 -0.0230491118953 0)
(1.3314014996 -0.0193660499276 0)