/*--------------------------------*- C++ -*----------------------------------*\
| =========                 |                                                 |
| \\      /  F ield         | OpenFOAM: The Open Source CFD Toolbox           |
|  \\    /   O peration     | Version:  2106                                  |
|   \\  /    A nd           | Website:  www.openfoam.com                      |
|    \\/     M anipulation  |                                                 |
\*---------------------------------------------------------------------------*/
FoamFile
{
    version     2.0;
    format      ascii;
    arch        "LSB;label=32;scalar=64";
    class       volScalarField;
    location    "0.225";
    object      p;
}
// * * * * * * * * * * * * * * * * * * * * * * * * * * * * * * * * * * * * * //

dimensions      [0 2 -2 0 0 0 0];

internalField   nonuniform List<scalar> 
11200
(
149.979857857
147.05125621
145.937405789
145.410075349
145.042746937
144.747970431
144.486329048
144.237793431
143.993278176
143.748213509
143.499902198
143.246589469
142.987043194
142.720327643
142.445675816
142.162414222
141.869917056
141.567578385
141.25479943
140.930991906
140.59553211
140.247770892
139.887049823
139.512701019
139.124038907
138.720362191
138.30095467
137.865085933
137.412012116
136.940976536
136.451210238
135.941932472
135.412350753
134.861661144
134.28904897
133.693690034
133.074750487
132.431386993
131.762747083
131.067969534
130.346184683
129.596514693
128.818073806
128.009968435
127.171297098
126.301150144
125.398609261
124.462746701
123.492624168
122.487291282
121.445783481
120.367119193
119.250296144
118.094286565
116.898031037
115.660430608
114.380336826
113.056539189
111.687749331
110.272581139
108.809525798
107.296920336
105.732907297
104.115386047
102.441946674
100.709784051
98.9155877375
97.0553976622
95.1244096302
93.1167088463
91.0249061104
88.8396417722
86.5487175895
84.1359475053
81.5792467542
78.8469573878
75.8914830025
72.6402562931
68.9395918007
64.1764165293
148.186815835
146.828641845
146.037670795
145.537657277
145.146670371
144.822789714
144.538270933
144.273671382
144.018186425
143.765667559
143.512287394
143.255532245
142.993664929
142.725408816
142.449763337
142.165893611
141.873062256
141.570586489
141.25780788
140.934064604
140.598706275
140.251057349
139.890474041
139.516288188
139.127803793
138.724313823
138.305099236
137.869427792
137.416554352
136.945721265
136.456158578
135.947083979
135.417703096
134.86721563
134.294808863
133.699658621
133.080930805
132.43778204
131.769359865
131.074803114
130.35324226
129.603799687
128.825589963
128.017719941
127.179288714
126.309387379
125.407098574
124.471495752
123.501642135
122.496589246
121.455374896
120.377020471
119.260527385
118.104872465
116.90900199
115.671824078
114.392199033
113.068927208
111.700733715
110.286249328
108.823986714
107.312310557
105.749397097
104.13318351
102.461302277
100.731012407
98.9390984715
97.0817230744
95.1542467767
93.1509848066
91.0648682123
88.8869405591
86.6056541403
84.2058733307
81.6672032696
78.9611359699
76.0468730672
72.8665783817
69.3174566465
65.2046136736
147.191625515
146.537425229
145.985069956
145.547453059
145.175830649
144.853730847
144.564633376
144.294402217
144.033942239
143.777464489
143.521083905
143.262118681
142.998656623
142.729270598
142.452839406
142.168434373
141.875245885
141.572535391
141.259604602
140.935776631
140.600389292
140.252802902
139.892273419
139.518147154
139.129732006
138.72631837
138.307184895
137.871598269
137.418813068
136.94807188
136.45860564
135.94963424
135.420366721
134.869995577
134.297703016
133.702667269
133.084055394
132.441024535
131.772723072
131.078290661
130.356858631
129.6075503
128.829481336
128.021759901
127.183486669
126.313754651
125.411648808
124.476245435
123.506611238
122.501802029
121.460860896
120.382815696
119.266675764
118.111427618
116.916029379
115.679403623
114.40042834
113.077925698
111.710647761
110.297258522
108.836310769
107.326217524
105.765215
104.15133393
102.482337177
100.755631481
98.9681750559
97.1163692489
95.1958998794
93.2015283197
91.1268048352
88.9636664915
86.7020183592
84.3289446626
81.8277243287
79.1764965306
76.3472857778
73.3084726318
70.0240733865
66.4710551164
146.641864294
146.278483098
145.878585537
145.509595896
145.171980383
144.863879485
144.578517994
144.307816121
144.045446396
143.786781769
143.528404135
143.26778184
143.003014903
142.732635897
142.45546863
142.170530537
141.876965314
141.573996795
141.26089785
140.936968511
140.601517759
140.253855354
139.893340046
139.519248663
139.130870463
138.727497702
138.308408785
137.872869182
137.420132362
136.94943991
136.460021576
135.951095434
135.421868775
134.871539838
134.299298426
133.704319084
133.085769857
132.44280864
131.774582832
131.080232541
130.358889897
129.609679233
128.831717659
128.024115205
127.185974885
126.31639261
125.414456906
124.479248444
123.509839285
122.505291711
121.464656644
120.386971514
119.271257376
118.116515084
116.921720376
115.685817649
114.407711973
113.086258769
111.720251007
110.308402952
108.849332704
107.341543534
105.783373645
104.172964405
102.508214184
100.786724172
99.0057190507
97.1619467586
95.251554213
93.2699314683
91.2115214172
89.0695945434
86.8359192173
84.5004535589
82.0511084141
79.4737848745
76.7537360641
73.8812521233
70.8599276738
67.7269365535
146.307816362
146.076021041
145.774609126
145.463632846
145.158794439
144.866772461
144.587798583
144.318674453
144.055716382
143.79563417
143.535667331
143.27357834
143.007574532
142.736206685
142.458278
142.172771464
141.878794453
141.575537778
141.262246116
140.938196813
140.602684925
140.255014075
139.894487879
139.520395713
139.132040389
138.728705538
138.30966434
137.874179872
137.421504274
136.950878576
136.461532597
135.952685074
135.42354377
134.873305263
134.301155621
133.706271243
133.087817746
132.444953219
131.776828373
131.08258375
130.361353969
129.612265682
128.83443845
128.026985091
127.189011891
126.319618613
125.417898398
124.482937495
123.513814692
122.509600563
121.469356559
120.392132756
119.276965602
118.122874742
116.928858781
115.693889592
114.416904394
113.096799541
111.732417498
110.322538084
108.86585912
107.36096789
105.806328027
104.200244847
102.540824753
100.825925903
99.0531007719
97.2195273826
95.3219261617
93.3564628265
91.3186405432
89.2031946885
87.004016915
84.7141886191
82.3262889539
79.8333083125
77.2310495383
74.5239536955
71.7333799702
68.9100241267
146.104423912
145.928522044
145.687327851
145.42000298
145.142817254
144.866180503
144.594492593
144.327992912
144.065229839
143.804223245
143.542938155
143.279507417
143.012305434
142.739941238
142.461221836
142.175109486
141.88068215
141.57710044
141.263581611
140.939379825
140.603771632
140.25604511
139.895490818
139.521398981
139.133058976
138.729750014
138.310742635
137.875297886
137.42266642
136.952088003
136.462791448
135.953994636
135.424904751
134.8747185
134.302622617
133.707794528
133.089402923
132.4466077
131.778560232
131.084404917
130.36327722
129.61430452
128.836608474
128.029304456
127.191502178
126.322305951
125.42081455
124.486121127
123.517313001
122.513471075
121.473668635
120.396970561
119.282431353
118.129092641
116.935979997
115.702099185
114.426432065
113.107926365
111.745490759
110.337977196
108.884168848
107.382772819
105.83240583
104.231551954
102.578544148
100.871532575
99.1084463441
97.2869517755
95.404408926
93.4578319713
91.443864769
89.3587957529
87.1986589054
84.959513322
82.6380743604
80.2329905821
77.7473299677
75.1932477541
72.5976941453
70.0077696741
145.981307179
145.825699782
145.619398656
145.382837678
145.127364105
144.864086702
144.599475953
144.335970118
144.073839902
143.812257419
143.549888581
143.285256791
143.01693215
142.743605986
142.464106032
142.17738467
141.882496969
141.5785771
141.264817033
140.94044882
140.604730594
140.256935885
139.896345816
139.522242792
139.133907892
138.730615363
138.311632909
137.876219404
137.423623984
136.953085549
136.463832497
135.955082669
135.426043492
134.875912431
134.303877441
133.709116872
133.090799836
132.448087051
131.780130787
131.086074626
130.365053936
129.616199928
128.838638679
128.031489922
127.193868098
126.324882795
125.423639172
124.489238171
123.520776561
122.517346711
121.478036025
120.401926762
119.28809462
118.135607058
116.943520993
115.710879384
114.436706813
113.120007344
111.759757229
110.354894329
108.904318039
107.406868534
105.861316747
104.266350229
102.620557263
100.922408623
99.1702399495
97.3622373899
95.4964312156
93.570707002
91.582850602
89.5306561364
87.4121447973
85.2259846115
82.9722450857
80.653684766
78.2778541027
75.8603543289
73.428065478
71.0203496392
145.907227558
145.757217718
145.570462926
145.354358929
145.114654809
144.861836034
144.603201847
144.342466952
144.081103857
143.819186121
143.555972829
143.290340462
143.021048387
142.746875236
142.466677399
142.179404985
141.88409649
141.57986458
141.265879694
140.941354623
140.605531355
140.2576705
139.897043063
139.522923424
139.134587794
138.731305454
138.312341358
137.876952338
137.424386173
136.953880944
136.464664632
135.955954997
135.426959654
134.876876329
134.304893162
133.710188992
133.091933769
132.449288664
131.781406909
131.087434992
130.366514493
129.617778714
128.840354439
128.033364903
127.195929273
126.327162992
125.426178323
124.492084797
123.523989576
122.520997825
121.48221295
120.406735934
119.293665178
118.142095838
116.951118762
115.719819053
114.447274148
113.132550664
111.774699304
110.372752987
108.925719966
107.43258047
105.892280147
104.30372228
102.665762547
100.977205518
99.2368056548
97.4432769493
95.5953179415
93.6916637576
91.7311823654
89.7130439702
87.6370036845
85.5038747782
83.3162718624
81.079730014
78.8042881762
76.50655526
74.2112171329
71.9502885895
145.864951239
145.715503886
145.539089289
145.335352735
145.105822365
144.86011687
144.605760241
144.347125594
144.086422859
143.824332977
143.560539997
143.294185965
143.024179231
142.749371018
142.468644489
142.180951401
141.885319703
141.580846854
141.266687493
140.942040021
140.606134235
140.25822086
139.897563187
139.523430567
139.135091793
138.731816123
138.312865425
137.877494794
137.424951021
136.954471615
136.465284269
135.956606735
135.427646858
134.877602767
134.305663185
133.711007778
133.092807585
132.450225542
131.782417268
131.088531322
130.367708044
129.619084419
128.841792265
128.034959192
127.197709423
126.329164605
125.428444578
124.494668127
123.526953691
122.524420021
121.486186772
120.411375043
119.299107766
118.14850992
116.958708532
115.72883239
114.458011533
113.145376107
111.790058465
110.391189253
108.947896986
107.459308034
105.924546647
104.342736159
102.713003519
101.034488317
99.3063598989
97.527846787
95.6982859594
93.8172046134
91.8844483733
89.9003843323
87.8662088461
85.7844143726
83.6594487242
81.4986094648
79.313150224
77.1194876592
74.939673067
72.7998935589
145.845674837
145.695797331
145.523835444
145.325901757
145.101342856
144.859226788
144.607095117
144.349590036
144.089267056
143.827110273
143.563024372
143.296293523
143.025908009
142.75076022
142.469749394
142.181829286
141.886022824
141.581419619
141.267165963
140.942452561
140.606502645
140.258561608
139.8978885
139.523749379
139.135411689
138.732141989
138.313201202
137.877843707
137.425315854
136.954855012
136.465688851
135.95703533
135.428102684
134.878089609
134.306185581
133.711571222
133.093418734
132.450892357
131.783148838
131.089338129
130.36860499
129.62008879
128.842924646
128.036244466
127.199177815
126.330852837
125.43039725
124.496939386
123.529609279
122.527539777
121.489867677
120.415734852
119.304289428
118.154686984
116.966091778
115.737678024
114.468631271
113.158149247
111.805444337
110.409747798
108.970307504
107.48639681
105.957319433
104.382417647
102.761085605
101.09278898
99.3770950325
97.6137167892
95.8025794398
93.943920261
92.038432237
90.0874844783
88.0934196877
86.0599920906
83.9929106177
81.900522724
79.7945558107
77.6907697617
75.6088622883
73.5707668394
145.845677455
145.695813437
145.523862525
145.325938101
145.101387687
144.859279244
144.607154257
144.349655016
144.089337173
143.827184955
143.563103166
143.29637608
143.025994071
142.750849607
142.469841998
142.181925059
141.88612177
141.581521793
141.267271466
140.942561546
140.606615332
140.258678297
139.89800959
139.523875393
139.135543338
138.732280022
138.313346556
137.877997523
137.425479508
136.955030024
136.465877214
135.957239484
135.4283256
134.878334909
134.306457657
133.711875374
133.093761346
132.451281163
131.783593396
131.08985035
130.369198895
129.620781411
128.843736759
128.037201325
127.200310085
126.332197751
125.432000014
124.498854883
123.531904139
122.53029489
121.493181214
120.419725958
119.309102718
118.160497981
116.973113461
115.746168716
114.478904058
113.170583984
111.820502432
110.427988797
108.992410636
107.513185582
105.989792664
104.421786185
102.808816108
101.150654392
99.4472332848
97.6987023233
95.9055078833
94.0685019569
92.1891257633
90.2696525326
88.3132090877
86.3244222015
84.309808468
82.2782714811
80.2416009638
78.2148199836
76.215838503
74.2637578897
145.864959154
145.715552582
145.539171135
145.335462512
145.105957705
144.860275004
144.605938298
144.347321063
144.086633646
143.824557376
143.560776658
143.29443385
143.024437572
142.749639283
142.468922355
142.18123873
141.885616517
141.581153316
141.267003909
140.942366854
140.606472142
140.258570731
139.897926187
139.52380828
139.135486248
138.73222956
138.313300601
137.877955042
137.425440343
136.954994814
136.465847229
135.957216646
135.428312512
134.878334914
134.306474932
133.711915069
133.093829765
132.451385999
131.783744005
131.090058104
130.369477633
129.621147995
128.844211702
128.03780955
127.201081861
126.333169836
125.433217027
124.500370988
123.533785077
122.532620444
121.496048185
120.423251785
119.313429864
118.165799232
116.979598372
115.754091394
114.488572669
113.182372318
111.834861091
110.445462558
109.013664361
107.539019551
106.02117172
104.459872585
102.85500728
101.206632578
99.515041901
97.7808089511
96.0048218108
94.1884577455
92.3336822559
90.4432080382
88.5209995243
86.5723122602
84.6041397388
82.6256376235
80.6484826423
78.6870844661
76.7581671252
74.8791796813
145.907240965
145.757300136
145.570601193
145.354543976
145.11488248
144.862101551
144.603500341
144.342794211
144.081456388
143.819561094
143.556368011
143.290754141
143.0214793
142.747322514
142.467140524
142.17988374
141.884590919
141.580374964
141.266406542
140.941898717
140.606093816
140.258252822
139.897647099
139.523551867
139.135243588
138.731992447
138.313064124
137.877716358
137.425198027
136.954748571
136.465597673
135.956965207
135.428061398
134.878087123
134.306234319
133.71168646
133.093619119
132.451200629
131.783592849
131.089952066
130.369430018
129.621174992
128.844333013
128.038049138
127.20146885
126.333739596
125.4340125
124.501444299
123.535199494
122.534452725
121.498391441
120.426218943
119.317157853
118.170454035
116.985381087
115.761245531
114.497392928
113.193215335
111.848159314
110.46173675
109.033538517
107.563252569
106.050679246
104.495758931
102.898606767
101.259531981
99.5790835269
97.8581319986
96.0979981055
94.3004931323
92.4680705233
90.603992982
88.7125686104
86.7994002594
84.871707766
82.9386645566
81.0117139269
79.1048062173
77.234079901
75.4164577794
145.981326462
145.82581808
145.619596425
145.383101392
145.127687499
144.864462774
144.599897721
144.336431629
144.074336268
143.812784706
143.550443701
143.285837383
143.017536481
142.744232872
142.46475477
142.178054966
141.883188878
141.579290989
141.265553581
140.941209077
140.605516082
140.25774871
139.897188668
139.523119152
139.134821872
138.731572165
138.312638805
137.877281903
137.42475211
136.954290214
136.465126966
135.956483144
135.427569791
134.87758859
134.305732311
133.71118535
133.093124344
132.450718909
131.783132465
131.089523187
130.36904508
129.620849147
128.844084706
128.037900794
127.20144772
126.333878772
125.434352167
124.502033252
123.536096956
122.535730533
121.500136725
120.428537366
119.320177499
118.174330105
116.990301495
115.767437662
114.505131733
113.202833041
111.860057771
110.476401338
109.051553523
107.585318886
106.077636256
104.528605188
102.938516706
101.307914127
99.6376299956
97.9288458715
96.1831725867
94.4027525399
92.5903841803
90.7496677039
88.8851842316
87.0027079683
85.1094684356
83.2144499077
81.328733138
79.4658901263
77.6419361893
75.8742879712
146.104449749
145.928679937
145.687590328
145.420351142
145.143242233
144.866672763
144.595042898
144.328593544
144.065874544
143.80490703
143.543657126
143.280258612
143.013086689
142.740751086
142.462059407
142.175974403
141.881574428
141.578020426
141.264529962
140.940357542
140.604780043
140.257086187
139.8965691
139.5225204
139.134228219
138.730972946
138.312026781
137.876652378
137.424102284
136.953618705
136.464433493
135.955768333
135.426835092
134.876836242
134.304965369
133.710407723
133.092340865
132.44993551
131.782356432
131.088763504
130.368312843
129.620158018
128.843451416
128.037345747
127.200995709
126.333559891
125.434202938
124.502097996
123.536429439
122.536395944
121.501214103
120.430122506
119.322386443
118.177303297
116.994208788
115.772484403
114.511566137
113.210954713
111.870227754
110.489054465
109.067212819
107.604610062
106.101307792
104.557552476
102.973810466
101.350809776
99.6895932984
97.9915827568
96.2586525816
94.4932155614
92.6983265266
90.8778030153
89.0363683291
87.1798127108
85.3151968666
83.4511139735
81.598078291
79.7691712033
77.9804262958
76.2505225081
146.307849446
146.076223401
145.774942806
145.464072464
145.159327833
144.867387135
144.588482901
144.319418939
144.056513492
143.796477955
143.536553186
143.274502799
143.008535108
142.737201756
142.459306694
142.173833538
141.879890144
141.576667642
141.263410873
140.939397449
140.603922998
140.2562908
139.89580539
139.521767473
139.133470432
138.730199722
138.311230982
137.875829328
137.423249099
136.952733815
136.463516333
135.95481917
135.425854945
134.875826876
134.303929326
133.709348422
133.091262715
132.448844004
131.781258254
131.087666653
130.367226907
129.61909464
128.84242484
128.0363734
127.200098908
126.332764672
125.433541043
124.501608037
123.536158315
122.536400577
121.501563615
120.430900761
119.323695072
118.179265365
116.996973203
115.776231033
114.516511172
113.217358564
111.878404049
110.499380156
109.080140109
107.620680443
106.121167455
104.581968797
103.003690836
101.387223021
99.7337883204
98.0450029054
96.3229453036
94.5702331168
92.7901079008
90.9865273296
89.1642651978
87.3290178652
85.4875358607
83.6478121786
81.8194668258
80.0146528134
78.2488854817
76.5420202963
146.641904651
146.278733606
145.878992941
145.510127358
145.172619757
144.864610831
144.579327173
144.308691958
144.046380155
143.787766655
143.529434947
143.268854719
143.00412717
142.733785957
142.456655916
142.171755476
141.878229315
141.575302195
141.262247476
140.938366131
140.602972497
140.255382982
139.894913511
139.520871372
139.132556336
138.729258152
138.310255552
137.87481593
137.422195168
136.951637829
136.462377575
135.953637587
135.424631
134.874561455
134.302623755
133.70800464
133.089883559
132.447433299
131.779820994
131.086209458
130.365758464
129.617625223
128.840966874
128.034941939
127.198712132
126.331444553
125.432314179
124.500506686
123.535221733
122.535676292
121.501109038
120.430785315
119.324002679
118.180097379
116.998451938
115.778504187
114.519758597
113.221797155
111.884294476
110.507035303
109.089934726
107.633061961
106.136668243
104.601219634
103.027435177
101.416331396
99.7692728418
98.0880291699
96.3748377653
94.632470655
92.864303511
91.0743827263
89.2674840907
87.4491583955
85.6257689028
83.8045311404
81.9937451003
80.2037881609
78.4478714918
76.7446395772
147.191677954
146.537738043
145.985561096
145.548081682
145.176576899
144.85457547
144.565559995
144.295398197
144.03499781
143.778572057
143.522237598
143.26331401
142.999890246
142.730540151
142.454143388
142.169772154
141.876618026
141.573944511
141.261055681
140.93727609
140.601937676
140.254370144
139.893894527
139.519830587
139.131482845
138.728144293
138.309096204
137.873607807
137.420936477
136.950327752
136.461016025
135.952225108
135.423168725
134.873051087
134.3010675
133.70640483
133.088241604
132.445751881
131.778103695
131.084460489
130.363982548
129.615829285
128.839159758
128.033134598
127.19691808
126.329680391
125.430600208
124.498867599
123.533687296
122.534282899
121.499901134
120.429816876
119.323339114
118.179817831
116.998652037
115.779298981
114.521285267
113.224221216
111.887815049
110.511891222
109.096411751
107.641501132
106.147475427
104.614875983
103.044508163
101.437485523
99.7952794056
98.1197732947
96.4133202033
94.6788057643
92.9197034239
91.1401229714
89.3448369719
87.5392738409
85.7294499908
83.9217518831
82.1228373955
80.3402601658
78.5811266857
76.8541098222
148.186915725
146.829100247
146.038354613
145.538513667
145.147676018
144.823923558
144.539515742
144.275014002
144.019616711
143.767177585
143.513870905
143.257184207
142.99538114
142.727185526
142.451596848
142.167779853
141.874996222
141.57256141
141.259818165
140.936117819
140.600801033
140.253218194
139.892717366
139.518615153
139.130219845
138.726827809
138.307721963
137.872170478
137.419432446
136.948754913
136.459372887
135.950510521
135.421381829
134.871191319
134.299134667
133.704399638
133.086167627
132.443611575
131.775899664
131.082196238
130.361662756
129.613459163
128.836745534
128.030683888
127.194440203
126.327186742
125.428104701
124.496387239
123.531242932
122.531899804
121.497609784
120.427654076
119.321349329
118.178054774
116.997180637
115.778198111
114.520650936
113.224167906
111.888480075
110.513439212
109.099039552
107.645443237
106.153009869
104.622330666
103.054267558
101.449997568
99.8110619935
98.1394182743
96.4374932274
94.7082608413
92.9552689707
91.1826857929
89.3953160196
87.5985769977
85.7983655903
84.0005478135
82.2106525435
80.4334401273
78.6637121209
76.8719116454
149.980024367
147.051927142
145.938400287
145.411331198
145.044233721
144.749663259
144.488209107
144.239847077
143.995495565
143.750587719
143.50242863
143.249265493
142.989868047
142.723302505
142.448803933
142.165700937
141.87336966
141.57120545
141.258605752
140.934963136
140.599672079
140.252092962
139.891556837
139.517398405
139.128935492
138.725468887
138.306284781
137.870658221
137.417846775
136.947096045
136.457641085
135.948706214
135.419505532
134.869243586
134.297116034
133.702310341
133.08400672
132.441379166
131.773596504
131.079823419
130.359221774
129.610952132
128.834175274
128.028054013
127.19175526
126.324452395
125.42532795
124.493576668
123.52840903
122.529055328
121.494770312
120.424838547
119.318580675
118.175360687
116.994594446
115.775759667
114.518407717
113.222177575
111.886811957
110.512176308
109.098281016
107.645307348
106.153637457
104.623889011
103.056954662
101.454046561
99.8167459637
98.1470603053
96.4474856146
94.7210277503
92.9712919289
91.2025152052
89.4195867085
87.6280254268
85.8338786293
84.0436465714
82.263754299
80.4989977318
78.7289474675
76.829066641
56.7815951494
53.2296228996
50.8382953821
48.8811593218
47.209597728
45.7534294079
44.4686364067
43.3254562689
42.3021474412
41.3818901295
40.5512076297
39.7990341247
39.1161225809
38.4946467534
37.9279183849
37.4101776973
36.9364311355
36.5023232807
36.1040351471
35.7382014495
35.4018425621
35.0923095872
34.8072392435
34.5445143131
34.3022313901
34.0786756596
33.8722979487
33.6816951321
33.5055953433
33.3428432096
33.1923851204
33.0532586553
32.9245827377
32.8055490396
32.695415528
32.5934969432
32.4991569684
32.4118015801
32.3308760397
32.2559304558
32.1868022371
32.1229529648
32.0639064419
32.0092622818
31.9586865061
31.9118648009
31.8685231212
31.8283983728
31.7912370305
31.7568357149
31.7249635677
31.6954352203
31.6680652275
31.6426773389
31.6191119575
31.5972234832
31.5768751879
31.5579401913
31.5403034571
31.5238587534
31.5085049364
31.4941496885
31.4807087697
31.4681047883
31.4562658033
31.4451228458
31.4346132441
31.424681435
31.4152754671
31.4063469674
31.3978530341
31.3897536161
31.3820104524
31.3745876262
31.3674555316
31.3605892677
31.3539612192
31.3475443898
31.3413188894
31.3352674416
31.3293696736
31.3236080808
31.3179710614
31.3124429419
31.3070080367
31.3016569486
31.2963974093
31.2912060759
31.2860689598
31.2809838816
31.2759454621
31.2709495345
31.2659857238
31.2610472036
31.2561280598
31.2512250413
31.2463344765
31.241449358
31.2365708608
31.2317058123
31.2268495576
31.2219916223
31.2171199442
31.2122367066
31.2073381498
31.2024231126
31.1975050903
31.1925992555
31.1876986899
31.1827579156
31.1777868297
31.1728282815
31.1679873963
31.1631578564
31.158322235
31.153443418
31.148708473
31.143897544
31.1390905131
31.1343122778
31.1295930367
31.12460661
31.1200258073
31.116181273
31.1120080686
31.1079435478
31.1040362344
31.1002537075
31.0966834654
31.0933978123
31.0904658201
31.0879893186
31.0860631339
31.084801632
31.0843449836
31.0848319635
31.0864261285
31.0893324869
31.0936539006
31.100186115
31.1086616983
31.1194885744
31.1328028483
31.1482803339
31.1643353069
31.1763112816
31.173539189
31.1327566504
31.0112728763
30.7370541771
30.2035937435
29.2766717308
27.8222042039
25.7468972201
23.0257667126
19.7170736681
15.9420260332
11.6717380881
6.63142165398
1.57998703949
59.9630467909
55.9102206959
53.1983873106
51.0463651126
49.2449450182
47.6957074883
46.3404004441
45.141730107
44.0734525907
43.1158621364
42.2535505394
41.4741160179
40.7673623933
40.1247747803
39.5391575359
39.0043703931
38.5151304203
38.0668586153
37.6555610491
37.2777336447
36.9302837114
36.6104711259
36.3158558614
36.0442557907
35.7937126301
35.5624632499
35.3489170042
35.1516338312
34.9693092615
34.800758954
34.6449034708
34.5007568693
34.3674177782
34.2440619099
34.1299357594
34.024347172
33.9266633548
33.8363064322
33.7527462073
33.6754693442
33.6038793674
33.5376362428
33.4763196782
33.4195882399
33.3670989194
33.3185312442
33.2735895885
33.231996261
33.1934916541
33.1578528547
33.1248396463
33.0942442762
33.0658837883
33.0395849398
33.0151847412
32.9925329649
32.9714885869
32.9519261746
32.9337202566
32.9167574522
32.9009323033
32.8861484623
32.8723177221
32.8593597956
32.8472000767
32.835766426
32.8249937457
32.8148240244
32.8052039483
32.7960825211
32.7874182699
32.7791659471
32.7712856099
32.7637395145
32.7564975426
32.7495327499
32.7428181911
32.736324279
32.7300306834
32.7239191359
32.7179697136
32.7121647033
32.7064894477
32.7009279331
32.6954638426
32.6900934678
32.6847944493
32.6795570481
32.6743785613
32.6692528178
32.6641750189
32.6591335135
32.654126782
32.6491410231
32.6441781132
32.6392392696
32.6343100138
32.6293886208
32.624465075
32.619549078
32.6146424676
32.6097360482
32.6048273405
32.599916475
32.5949960331
32.5900767034
32.5851610576
32.5802632997
32.5753540888
32.5704309062
32.5654968115
32.5605644563
32.5554850977
32.5504209864
32.545532189
32.540570727
32.5354932604
32.5304966676
32.5255429514
32.5206410419
32.5158069834
32.5110833031
32.5063715235
32.5012995375
32.4963684229
32.492015586
32.4879149349
32.4838695112
32.4800479901
32.4765310806
32.4733740722
32.4706991218
32.4686010211
32.4671906123
32.466627797
32.4670528888
32.4686167092
32.4716051119
32.4761929732
32.4828086267
32.4915846224
32.502802517
32.5165011791
32.5321400271
32.547648609
32.5573490724
32.5487606876
32.4953718354
32.3497453354
32.033657653
31.4345040373
30.4149147851
28.8436246123
26.6369653126
23.7818102143
20.340980921
16.4337407531
12.0466833792
6.91896520276
1.71301897317
62.1705844077
58.2371051893
55.3701390614
53.0865919822
51.1852011921
49.5594717159
48.1443278795
46.8976930203
45.7900749139
44.7995405789
43.909126948
43.1053268072
42.3771455748
41.7154841258
41.1127137628
40.5623689096
40.0589192078
39.5975956489
39.1742556737
38.7852773702
38.4274738296
38.0980277148
37.7944343762
37.5144571412
37.2560918079
37.0175348429
36.797159923
36.5934967852
36.4052130384
36.2310984985
36.0700513111
35.9210644294
35.7832169487
35.6556663212
35.5376396711
35.4284253358
35.3273683451
35.2338631447
35.1473510427
35.0673245714
34.9932887473
34.924643057
34.8610910751
34.8023204838
34.7479604431
34.69767194
34.6511455389
34.6080954865
34.5682548411
34.5313863493
34.4972524995
34.4656386495
34.4363439554
34.4091886903
34.38400584
34.3606378428
34.3389380996
34.318765278
34.2999994523
34.2825252419
34.2662341206
34.2510260181
34.2368095863
34.2235011711
34.2110226918
34.1992999063
34.1882659173
34.1778597556
34.1680255778
34.1587102874
34.1498642826
34.1414462851
34.1334152456
34.1257328619
34.1183681941
34.1112902923
34.1044685543
34.0978773144
34.0914953126
34.0853012679
34.0792750303
34.0733898159
34.0676364024
34.0620017887
34.0564722415
34.0510402133
34.0456941313
34.0404159023
34.0352010441
34.030041297
34.0249317497
34.0198602246
34.0148255076
34.0098136781
34.0048240891
33.9998587147
33.9949043885
33.989958347
33.9850143094
33.9800761819
33.9751430843
33.9702069898
33.9652669259
33.9603223739
33.955365966
33.9504059308
33.9454407159
33.9404818241
33.9355085185
33.9305276675
33.9255422292
33.9205736383
33.9155867104
33.9105901646
33.9053476745
33.9001202721
33.8949516563
33.8898330014
33.8847543996
33.8797109328
33.8747244736
33.8698075804
33.8649456499
33.8600511609
33.8554646845
33.8507284816
33.8464866793
33.8419294692
33.8377454381
33.8339455436
33.830517784
33.8276146247
33.8253003942
33.8236843464
33.8229807815
33.8233135328
33.8247617531
33.8276713
33.8322845423
33.8389148883
33.8477836351
33.8591160785
33.8728434206
33.8881686999
33.9024872562
33.9090365763
33.8935408693
33.8262200159
33.655136443
33.2963739012
32.6320910192
31.5227394456
29.8403483087
27.510132849
24.5290362541
20.9626330517
16.926902501
12.4231072224
7.20538217857
1.84357374929
63.9748491972
60.2501804259
57.3464278672
54.9916829687
53.0222133983
51.3386543347
49.8757960781
48.5896945474
47.4490325146
46.4304135704
45.5157606241
44.6907333224
43.9437170657
43.2651508468