/*--------------------------------*- C++ -*----------------------------------*\
| =========                 |                                                 |
| \\      /  F ield         | OpenFOAM: The Open Source CFD Toolbox           |
|  \\    /   O peration     | Version:  2106                                  |
|   \\  /    A nd           | Website:  www.openfoam.com                      |
|    \\/     M anipulation  |                                                 |
\*---------------------------------------------------------------------------*/
FoamFile
{
    version     2.0;
    format      ascii;
    arch        "LSB;label=32;scalar=64";
    class       volVectorField;
    location    "0.225";
    object      U;
}
// * * * * * * * * * * * * * * * * * * * * * * * * * * * * * * * * * * * * * //

dimensions      [0 1 -1 0 0 0 0];

internalField   nonuniform List<vector> 
11200
(
(0.662462403976 0.150569443324 0)
(0.55894867385 0.103243389092 0)
(0.383850738478 0.0513512249057 0)
(0.283747597637 0.024870855854 0)
(0.232075274181 0.0124170457073 0)
(0.201908592893 0.00662281723073 0)
(0.183197941347 0.00380291479418 0)
(0.171276499078 0.00231587048644 0)
(0.163510318409 0.00146450707054 0)
(0.158388782574 0.000944893028767 0)
(0.155006643834 0.000615177549833 0)
(0.152786687894 0.000402234433099 0)
(0.151346536228 0.000264232778161 0)
(0.15042829743 0.000175250658951 0)
(0.149856691388 0.000118361169529 0)
(0.149512488272 8.21604977724e-05 0)
(0.149314925739 5.88664687057e-05 0)
(0.149209561357 4.33163897355e-05 0)
(0.149159699407 3.29355982806e-05 0)
(0.149142456023 2.81867796176e-05 0)
(0.149144606675 2.76847855288e-05 0)
(0.149156876203 2.98904819492e-05 0)
(0.149172490702 3.30509311476e-05 0)
(0.149188030159 3.59665376453e-05 0)
(0.149202230161 3.86019669415e-05 0)
(0.149214491007 4.10409089714e-05 0)
(0.149224645301 4.3318064413e-05 0)
(0.149232800069 4.54646329559e-05 0)
(0.149239191946 4.75199009574e-05 0)
(0.14924410272 4.95308945519e-05 0)
(0.149247817128 5.15596164799e-05 0)
(0.149250602375 5.36970342328e-05 0)
(0.149252655456 5.60256247615e-05 0)
(0.149254146649 5.84068980834e-05 0)
(0.149255208779 6.07677437702e-05 0)
(0.14925592859 6.30886606189e-05 0)
(0.149256403064 6.53799996915e-05 0)
(0.149256715805 6.76547062112e-05 0)
(0.149256920362 6.99243405091e-05 0)
(0.149257045823 7.21949624166e-05 0)
(0.149257113014 7.44676087117e-05 0)
(0.149257139022 7.6743227184e-05 0)
(0.149257135857 7.90215272569e-05 0)
(0.149257112205 8.13014264351e-05 0)
(0.149257074292 8.35812501576e-05 0)
(0.149257026739 8.58586756759e-05 0)
(0.149256973494 8.81308477272e-05 0)
(0.149256918539 9.03945681688e-05 0)
(0.149256866377 9.26466388303e-05 0)
(0.149256822518 9.48840784755e-05 0)
(0.149256794396 9.71040191026e-05 0)
(0.149256791869 9.9303758981e-05 0)
(0.149256827594 0.000101480343922 0)
(0.149256918611 0.000103630274014 0)
(0.149257089374 0.000105749146487 0)
(0.149257375835 0.000107831295288 0)
(0.149257828902 0.000109870141706 0)
(0.149258523101 0.000111856091025 0)
(0.149259568073 0.000113776461193 0)
(0.149261121578 0.000115606952232 0)
(0.149263425484 0.000117292641651 0)
(0.149266887726 0.000118746130603 0)
(0.14927198329 0.000120005968068 0)
(0.149279355266 0.00012126159336 0)
(0.149290033042 0.000122970722062 0)
(0.149305536322 0.000125337002867 0)
(0.149328249063 0.000128118966387 0)
(0.149361869072 0.000131086180448 0)
(0.149411993218 0.000134021071439 0)
(0.149486859142 0.000136808442666 0)
(0.149598417479 0.000140723851328 0)
(0.149769519818 0.000151593585117 0)
(0.150037976003 0.000172350976295 0)
(0.150467010434 0.000202647684341 0)
(0.151192532692 0.000232623152351 0)
(0.152492453179 0.000191790705548 0)
(0.155023451246 -0.000217177588325 0)
(0.162381354131 -0.00211316312258 0)
(0.187730217514 -0.0108040241942 0)
(0.204469639121 -0.0497442319664 0)
(0.965408254571 0.289214707689 0)
(0.961962859237 0.252656040734 0)
(0.823574390219 0.159021442311 0)
(0.698139365588 0.0959957318589 0)
(0.61022545881 0.058248114759 0)
(0.548971484697 0.0362148537981 0)
(0.506588879405 0.0231612857947 0)
(0.47756725649 0.0151375161194 0)
(0.457745475673 0.0100177561373 0)
(0.444228440409 0.00665814230257 0)
(0.43505327342 0.00441555742096 0)
(0.428873087687 0.00290686688607 0)
(0.424754165862 0.00189105928056 0)
(0.422046610454 0.00121004604505 0)
(0.420297768159 0.000757164010247 0)
(0.419193154182 0.000459256377723 0)
(0.418515544314 0.000265855225436 0)
(0.418116392787 0.000142400032805 0)
(0.417895784517 6.61100814754e-05 0)
(0.417786729037 2.30923340568e-05 0)
(0.417745310211 1.40739088972e-06 0)
(0.417742028794 -1.01632133225e-05 0)
(0.417756622836 -1.37147065435e-05 0)
(0.417778577759 -1.32683310205e-05 0)
(0.417802868433 -1.08363635976e-05 0)
(0.417826235852 -7.49355087252e-06 0)
(0.417846986996 -3.87734560662e-06 0)
(0.41786452334 -3.57763431374e-07 0)
(0.41787884869 2.86374587784e-06 0)
(0.41789027821 5.68323900202e-06 0)
(0.417899283383 8.036214353e-06 0)
(0.417906357211 9.83808573307e-06 0)
(0.417911701568 1.10067348752e-05 0)
(0.417915550656 1.18589326512e-05 0)
(0.417918282532 1.26805864774e-05 0)
(0.417920172429 1.34372174306e-05 0)
(0.417921462716 1.41111349382e-05 0)
(0.417922344551 1.47265504785e-05 0)
(0.417922943935 1.53123272715e-05 0)
(0.417923332343 1.58819284764e-05 0)
(0.417923562408 1.64357114607e-05 0)
(0.417923677409 1.69787779297e-05 0)
(0.417923707977 1.75148407729e-05 0)
(0.417923676566 1.8047342022e-05 0)
(0.417923599278 1.85794771229e-05 0)
(0.417923487987 1.91135928066e-05 0)
(0.417923352775 1.96515497452e-05 0)
(0.417923203878 2.01951751661e-05 0)
(0.417923052946 2.07466474076e-05 0)
(0.417922913969 2.13078238272e-05 0)
(0.417922805437 2.18791858578e-05 0)
(0.41792275201 2.24611005543e-05 0)
(0.417922786243 2.30533968904e-05 0)
(0.417922952702 2.36552047669e-05 0)
(0.417923314724 2.42652041696e-05 0)
(0.417923964583 2.48821538077e-05 0)
(0.417925032707 2.55056804383e-05 0)
(0.417926709828 2.61241822102e-05 0)
(0.417929272724 2.67188860071e-05 0)
(0.417933109407 2.72598022828e-05 0)
(0.417938809675 2.77022246589e-05 0)
(0.417947469466 2.79845145293e-05 0)
(0.417960587093 2.82671981963e-05 0)
(0.417980290837 2.78396503331e-05 0)
(0.41800936009 2.52841343302e-05 0)
(0.418051400365 1.94899242061e-05 0)
(0.418112577389 9.65375763291e-06 0)
(0.418203015534 -5.75297081932e-06 0)
(0.418338331487 -2.92561149604e-05 0)
(0.418543446381 -6.45434972409e-05 0)
(0.418860307624 -0.000115820138097 0)
(0.419358612307 -0.000188075295297 0)
(0.42015199554 -0.000308034859753 0)
(0.421444418302 -0.000533363977042 0)
(0.423628126855 -0.00100108650004 0)
(0.427423041904 -0.00209345791053 0)
(0.434253913 -0.0048637208201 0)
(0.448301520185 -0.0122733742573 0)
(0.474728331672 -0.0342967523488 0)
(0.478347826 -0.0989452319545 0)
(1.02222096553 0.238416187192 0)
(1.08213752942 0.295926652468 0)
(1.03447722521 0.239503066237 0)
(0.954615406853 0.174290164316 0)
(0.879992052118 0.121345468319 0)
(0.818614430847 0.0830993841074 0)
(0.771410844615 0.0567316672355 0)
(0.736634383576 0.0387409687992 0)
(0.711624424305 0.0264327873757 0)
(0.693916611087 0.0179731050493 0)
(0.681541399575 0.0121424481672 0)
(0.673000104979 0.00812490826406 0)
(0.667180637528 0.00536632101778 0)
(0.663271665081 0.00348444471844 0)
(0.660688491321 0.00221256149501 0)
(0.65901416429 0.00136338178786 0)
(0.657954480323 0.000805243655459 0)
(0.657304183949 0.00044591628196 0)
(0.656921761496 0.000221067842916 0)
(0.656710191814 8.55804059193e-05 0)
(0.656603323331 8.35682838542e-06 0)
(0.656561769799 -3.37208604713e-05 0)
(0.65655786412 -5.68555430492e-05 0)
(0.656571334065 -6.68749639607e-05 0)
(0.656592857686 -6.84826644956e-05 0)
(0.656616671727 -6.5561366824e-05 0)
(0.656639469219 -6.05503374334e-05 0)
(0.656659643491 -5.48602626404e-05 0)
(0.656676609245 -4.92756845972e-05 0)
(0.656690344019 -4.42036836357e-05 0)
(0.656701093849 -3.9839348651e-05 0)
(0.656709242853 -3.63012724599e-05 0)
(0.656715487044 -3.36953109688e-05 0)
(0.656720516859 -3.18569892422e-05 0)
(0.656724375826 -3.08108463797e-05 0)
(0.656727079319 -3.0303794742e-05 0)
(0.656728939302 -3.0248043815e-05 0)
(0.656730234972 -3.05585330988e-05 0)
(0.65673113346 -3.10856599543e-05 0)
(0.656731724561 -3.17471074245e-05 0)
(0.656732082534 -3.25132687461e-05 0)
(0.656732272581 -3.33489766396e-05 0)
(0.656732339849 -3.42296799534e-05 0)
(0.656732318305 -3.51360060045e-05 0)
(0.656732232403 -3.60526002717e-05 0)
(0.65673210031 -3.69688428519e-05 0)
(0.65673193774 -3.78773286386e-05 0)
(0.656731760465 -3.87725505875e-05 0)
(0.656731585229 -3.96493020366e-05 0)
(0.656731430506 -4.05021559566e-05 0)
(0.656731321286 -4.13271004545e-05 0)
(0.656731292507 -4.21202169274e-05 0)
(0.656731391304 -4.28800277418e-05 0)
(0.656731683467 -4.36093958883e-05 0)
(0.656732263583 -4.43204081924e-05 0)
(0.656733269303 -4.50430788526e-05 0)
(0.656734887298 -4.58284014925e-05 0)
(0.65673738866 -4.67716584697e-05 0)
(0.656741180349 -4.80010694766e-05 0)
(0.65674686133 -4.97272168984e-05 0)
(0.656755341978 -5.24420760031e-05 0)
(0.656768267098 -5.72132201026e-05 0)
(0.656787003609 -6.47926697515e-05 0)
(0.65681297964 -7.60769253816e-05 0)
(0.656849972258 -9.27393922841e-05 0)
(0.656904691237 -0.000117199667976 0)
(0.656986548998 -0.000152658147561 0)
(0.657109344759 -0.000204405520047 0)
(0.657294910333 -0.00028097694627 0)
(0.657578679442 -0.000396276766588 0)
(0.658018863646 -0.000574705946556 0)
(0.658704810651 -0.000863618320227 0)
(0.659783846102 -0.00135325765259 0)
(0.661514011223 -0.00221705997335 0)
(0.664338404547 -0.00381822196042 0)
(0.668954512502 -0.00695699721461 0)
(0.676391361582 -0.0133754790458 0)
(0.688662248235 -0.0268930781065 0)
(0.705335071288 -0.056430768698 0)
(0.700661255316 -0.113340450279 0)
(1.02251475459 0.170807152407 0)
(1.10138975671 0.276496478232 0)
(1.1175242595 0.266664798886 0)
(1.0921466025 0.219901698676 0)
(1.05187815137 0.168168847371 0)
(1.01020821766 0.123567396468 0)
(0.973494681527 0.0888375214231 0)
(0.943864543864 0.0630063715087 0)
(0.921142784209 0.0442232040715 0)
(0.904284053739 0.0307423926398 0)
(0.892074845979 0.0211562938732 0)
(0.883404483977 0.0143954681847 0)
(0.877352640314 0.00966794787175 0)
(0.873197674061 0.00639383693985 0)
(0.8703928942 0.00415116464163 0)
(0.868534002336 0.00263449068536 0)
(0.867327602154 0.00162401699008 0)
(0.866564195382 0.000962675374834 0)
(0.866096434005 0.000539121523997 0)
(0.865822187593 0.000275152594459 0)
(0.865671339586 0.000117067274496 0)
(0.865595084647 2.87910763849e-05 0)
(0.865564022003 -1.93263544032e-05 0)
(0.865561209114 -4.12629982569e-05 0)
(0.865572548304 -4.76672594977e-05 0)
(0.865589550315 -4.55265595833e-05 0)
(0.865607856411 -3.91567185181e-05 0)
(0.865625192766 -3.1145317134e-05 0)
(0.865640475459 -2.29636126029e-05 0)
(0.865653337147 -1.53794068733e-05 0)
(0.865663809061 -8.72151218399e-06 0)
(0.865672094482 -3.04262575731e-06 0)
(0.865678445784 1.73566589339e-06 0)
(0.865683071014 5.46648187064e-06 0)
(0.865686388568 8.03326241181e-06 0)
(0.865688785496 9.79045133742e-06 0)
(0.865690416254 1.11445289232e-05 0)
(0.865691577014 1.22899210776e-05 0)
(0.865692443212 1.32593811775e-05 0)
(0.865693033358 1.41463370778e-05 0)
(0.865693395624 1.49421417806e-05 0)
(0.86569359433 1.5669558152e-05 0)
(0.865693668352 1.63441194749e-05 0)
(0.865693649065 1.69824330638e-05 0)
(0.865693558338 1.7599061827e-05 0)
(0.865693411921 1.82042636297e-05 0)
(0.865693224521 1.88059332895e-05 0)
(0.865693012914 1.9411551709e-05 0)
(0.865692797454 2.00310679605e-05 0)
(0.865692601362 2.0668802051e-05 0)
(0.865692455122 2.13118036074e-05 0)
(0.865692399198 2.19481131262e-05 0)
(0.865692485649 2.25612370029e-05 0)
(0.865692783359 2.31251128664e-05 0)
(0.865693383941 2.36010537523e-05 0)
(0.865694420577 2.39454576209e-05 0)
(0.865696074106 2.41362624039e-05 0)
(0.865698625032 2.40548633338e-05 0)
(0.865702482632 2.35414978598e-05 0)
(0.86570807784 2.22007425497e-05 0)
(0.865715799529 1.94407736112e-05 0)
(0.865727295012 1.46378680407e-05 0)
(0.865745190104 5.93102310423e-06 0)
(0.865772415519 -8.33200553858e-06 0)
(0.865812862042 -3.01441461724e-05 0)
(0.865872434325 -6.34340515734e-05 0)
(0.865960462666 -0.000115086601457 0)
(0.866091459202 -0.000195882641269 0)
(0.866287986099 -0.000323113768936 0)
(0.866584897702 -0.000525310896419 0)
(0.867035875873 -0.000851518556048 0)
(0.867726132057 -0.00138883899468 0)
(0.868792279595 -0.00228635454463 0)
(0.870448053798 -0.00381923321303 0)
(0.873013193967 -0.00651284571258 0)
(0.876888043981 -0.0113788511555 0)
(0.882397393577 -0.0202909469849 0)
(0.889727579922 -0.0365292641485 0)
(0.896436464762 -0.0656443068352 0)
(0.886648754817 -0.110342419898 0)
(1.01287875074 0.118961023474 0)
(1.08820670629 0.231806936826 0)
(1.13741366771 0.253106764649 0)
(1.15409086166 0.228992753754 0)
(1.14994210078 0.188368359271 0)
(1.13538464397 0.146579844572 0)
(1.11758893465 0.110150966352 0)
(1.10059498597 0.0808162227315 0)
(1.08612455239 0.0582265768595 0)
(1.0745909027 0.0413189851912 0)
(1.06579144171 0.0289160201448 0)
(1.05928796068 0.019960099725 0)
(1.05459973226 0.013581559818 0)
(1.05129073096 0.00909744295289 0)
(1.04899981011 0.00598615387544 0)
(1.04744336391 0.00385696645275 0)
(1.04640648733 0.00242159807488 0)
(1.04573056864 0.00147015036012 0)
(1.0453010095 0.000851702234073 0)
(1.04503650826 0.00045901665181 0)
(1.04488014139 0.000216757033993 0)
(1.04479252067 7.30176271824e-05 0)
(1.04474865103 -5.50456916183e-06 0)
(1.04473174724 -4.40090539045e-05 0)
(1.04472949228 -5.93862076252e-05 0)
(1.04473497235 -6.171959982e-05 0)
(1.04474391687 -5.72455292422e-05 0)
(1.04475379798 -4.98030352061e-05 0)
(1.04476323594 -4.16433781679e-05 0)
(1.04477156034 -3.39877037843e-05 0)
(1.04477852048 -2.74224196176e-05 0)
(1.04478410363 -2.2150981879e-05 0)
(1.04478845604 -1.81281456949e-05 0)
(1.0447917891 -1.51396757742e-05 0)
(1.04479435778 -1.28081105455e-05 0)
(1.0447964555 -1.10112247324e-05 0)
(1.04479819325 -9.5213918228e-06 0)
(1.04479951628 -8.23089194406e-06 0)
(1.04480049448 -7.21132239577e-06 0)
(1.04480117885 -6.54221666737e-06 0)
(1.04480159124 -6.16217324403e-06 0)
(1.04480181829 -5.9528550353e-06 0)
(1.04480190559 -5.86407233491e-06 0)
(1.0448018915 -5.84523298639e-06 0)
(1.04480180048 -5.85637885838e-06 0)
(1.04480165024 -5.87792730866e-06 0)
(1.0448014589 -5.90043444903e-06 0)
(1.04480124877 -5.9208230419e-06 0)
(1.04480103946 -5.94533814825e-06 0)
(1.04480083734 -5.97852940455e-06 0)
(1.04480066284 -6.00579181626e-06 0)
(1.0448005591 -6.02653910416e-06 0)
(1.0448005778 -6.0473986382e-06 0)
(1.04480078931 -6.08237994261e-06 0)
(1.04480130598 -6.16399134555e-06 0)
(1.04480232589 -6.38642618169e-06 0)
(1.04480404009 -7.01430451189e-06 0)
(1.04480670726 -8.3350465006e-06 0)
(1.04481065084 -1.08279433199e-05 0)
(1.04481633066 -1.46323979277e-05 0)
(1.04482478413 -1.95980909785e-05 0)
(1.04483715479 -2.57640403591e-05 0)
(1.0448546669 -3.54703197206e-05 0)
(1.0448796437 -5.16899693736e-05 0)
(1.04491555369 -7.86581463298e-05 0)
(1.0449675369 -0.000122633764013 0)
(1.04504319131 -0.000193403645542 0)
(1.04515385989 -0.000306569036718 0)
(1.04531668731 -0.000487337927909 0)
(1.04555754994 -0.000776814031025 0)
(1.04591517617 -0.00124245807759 0)
(1.04644751255 -0.0019961421612 0)
(1.04723883874 -0.00322884383575 0)
(1.04840241177 -0.00527213518499 0)
(1.05006607511 -0.00870429890524 0)
(1.05228730664 -0.0145217326522 0)
(1.05482316608 -0.0243363926905 0)
(1.0568849115 -0.0404671511013 0)
(1.05576572454 -0.0657686513299 0)
(1.04215971641 -0.0997672349563 0)
(1.00447483419 0.0814039976546 0)
(1.06917237113 0.181288538971 0)
(1.13080568262 0.216950418795 0)
(1.17374999753 0.210789155645 0)
(1.19865264366 0.183690077055 0)
(1.21019987007 0.149751683588 0)
(1.21350254577 0.116779144355 0)
(1.21251722685 0.0882206779824 0)
(1.20973096717 0.0650481507231 0)
(1.20651117789 0.0470209083027 0)
(1.20351911205 0.0334068075901 0)
(1.20101142809 0.0233557313983 0)
(1.19903442465 0.0160720126786 0)
(1.1975387501 0.0108795126966 0)
(1.19644128238 0.00723418727563 0)
(1.19565555037 0.0047135179935 0)
(1.19510485121 0.0029976289407 0)
(1.19472643468 0.00184916106728 0)
(1.19447144989 0.00109496092366 0)
(1.19430313549 0.000610611987778 0)
(1.19419449184 0.000307987093981 0)
(1.1941262026 0.00012576879188 0)
(1.19408514803 2.22231874511e-05 0)
(1.19406188427 -3.24520246698e-05 0)
(1.19404957894 -5.72705621815e-05 0)
(1.19404407529 -6.45959131973e-05 0)
(1.19404257271 -6.23734820862e-05 0)
(1.19404325282 -5.55182874013e-05 0)
(1.19404499986 -4.69408744038e-05 0)
(1.1940471554 -3.82548600682e-05 0)
(1.19404934685 -3.0261350353e-05 0)
(1.19405138218 -2.32652145826e-05 0)
(1.19405319262 -1.72897338006e-05 0)
(1.19405477283 -1.22610580838e-05 0)
(1.1940561391 -8.07262269616e-06 0)
(1.19405731041 -4.67048779782e-06 0)
(1.19405825874 -2.05871915717e-06 0)
(1.19405893037 -1.68710249733e-07 0)
(1.19405928476 1.14903179909e-06 0)
(1.19405939834 2.00608905538e-06 0)
(1.19405945221 2.68627055235e-06 0)
(1.19405948182 3.29150159963e-06 0)
(1.1940594621 3.82149368964e-06 0)
(1.19405940968 4.28438389632e-06 0)
(1.19405931867 4.69254655017e-06 0)
(1.19405917967 5.06304234095e-06 0)
(1.19405899454 5.40781615581e-06 0)
(1.19405876876 5.72890222514e-06 0)
(1.19405851839 6.01515650852e-06 0)
(1.1940582861 6.26023665991e-06 0)
(1.19405811112 6.48586834521e-06 0)
(1.19405802301 6.68335295752e-06 0)
(1.19405807085 6.82621094192e-06 0)
(1.19405831568 6.87436298443e-06 0)
(1.19405880389 6.7709783477e-06 0)
(1.19405950947 6.43361138432e-06 0)
(1.19406049292 5.69586973225e-06 0)
(1.19406191155 4.22642918746e-06 0)
(1.19406436582 1.52613194967e-06 0)
(1.19406891016 -2.63771780168e-06 0)
(1.19407619041 -9.03316597871e-06 0)
(1.19408609753 -1.90860615569e-05 0)
(1.19409933165 -3.47814839191e-05 0)
(1.19411788017 -5.90303204845e-05 0)
(1.19414387119 -9.64186016771e-05 0)
(1.19418011261 -0.000154266454302 0)
(1.19423058193 -0.000244236409624 0)
(1.19430089681 -0.000384832932494 0)
(1.19439892046 -0.000605566115518 0)
(1.19453541033 -0.000953869506328 0)
(1.19472441684 -0.00150643377696 0)
(1.1949827173 -0.00238780148357 0)
(1.1953251268 -0.00380171594102 0)
(1.19574894537 -0.00608201997514 0)
(1.1961939075 -0.00976913481629 0)
(1.19644028095 -0.0157096159292 0)
(1.19590091318 -0.0251190728747 0)
(1.19341994157 -0.0394609625239 0)
(1.18665824555 -0.0599902981517 0)
(1.17008682626 -0.0854131796467 0)
(0.998962325093 0.0544316254663 0)
(1.05310956608 0.13340160772 0)
(1.11628267759 0.170777558257 0)
(1.17301271273 0.175143872071 0)
(1.21791245379 0.159583606454 0)
(1.25049856844 0.134951020329 0)
(1.27288489905 0.108411657121 0)
(1.28776720691 0.0838849720434 0)
(1.29745266338 0.0630565723578 0)
(1.30366073148 0.0462999211005 0)
(1.30759232214 0.0333205143011 0)
(1.3100536776 0.0235495233979 0)
(1.31157359926 0.0163599071721 0)
(1.31249489981 0.01117131468 0)
(1.31303859076 0.00749150639821 0)
(1.31334668037 0.00492448575656 0)
(1.31351009227 0.00316295518864 0)
(1.31358672009 0.00197475183146 0)
(1.31361309416 0.00118819671542 0)
(1.31361194227 0.000678628796829 0)
(1.31359710226 0.000357007537636 0)
(1.31357677882 0.000160752806888 0)
(1.31355578232 4.64677702611e-05 0)
(1.31353648489 -1.58707291771e-05 0)
(1.31351982514 -4.60589113099e-05 0)
(1.31350613487 -5.70683877099e-05 0)
(1.31349522925 -5.73224169067e-05 0)
(1.31348677117 -5.20832547715e-05 0)
(1.3134803723 -4.45204282536e-05 0)
(1.31347564728 -3.64585072217e-05 0)
(1.31347224496 -2.88705468593e-05 0)
(1.31346986245 -2.22098472611e-05 0)
(1.31346824056 -1.66275746867e-05 0)
(1.31346715124 -1.21309699275e-05 0)
(1.31346642892 -8.65422793265e-06 0)
(1.31346597584 -6.09595729592e-06 0)
(1.31346569037 -4.31917755204e-06 0)
(1.31346548301 -3.1164065888e-06 0)
(1.31346535185 -2.25785337253e-06 0)
(1.31346538286 -1.53913339456e-06 0)
(1.31346553757 -9.62208181922e-07 0)
(1.31346563737 -5.47342863123e-07 0)
(1.31346563077 -1.84122005033e-07 0)
(1.31346555027 1.55285000397e-07 0)
(1.31346541795 4.69396947862e-07 0)
(1.31346524576 7.67441628599e-07 0)
(1.31346503663 1.06206886877e-06 0)
(1.31346479275 1.36540610865e-06 0)
(1.31346452682 1.69028684064e-06 0)
(1.31346427234 2.03162214823e-06 0)
(1.31346404836 2.34132114214e-06 0)
(1.31346386175 2.58334998722e-06 0)
(1.3134637424 2.71410938223e-06 0)
(1.31346374117 2.66988363055e-06 0)
(1.313463943 2.36264340298e-06 0)
(1.31346446804 1.69561750297e-06 0)
(1.31346532473 6.17596454679e-07 0)
(1.31346651923 -1.07372219613e-06 0)
(1.31346849047 -3.51641228298e-06 0)
(1.3134715208 -7.44423660915e-06 0)
(1.31347575481 -1.41674142781e-05 0)
(1.31348142733 -2.52882235739e-05 0)
(1.31348879876 -4.23846267064e-05 0)
(1.31349834859 -6.86164473087e-05 0)
(1.31351038686 -0.000109012762561 0)
(1.31352497791 -0.000171322596353 0)
(1.3135417231 -0.000267645185897 0)
(1.31355928686 -0.000416950336269 0)
(1.31357443303 -0.000649097025069 0)
(1.31358019375 -0.00101140207545 0)
(1.31356247917 -0.00157904835747 0)
(1.31349376008 -0.00247127969917 0)
(1.3133196166 -0.00387582402248 0)
(1.31293223554 -0.00608587720821 0)
(1.31212122823 -0.00954731386005 0)
(1.31048051104 -0.0149039906672 0)
(1.30725531874 -0.0229879664793 0)
(1.3012332841 -0.0346455451233 0)
(1.29054122289 -0.050322672122 0)
(1.27169660483 -0.0688034726727 0)
(0.995736073614 0.0346338599271 0)
(1.04179514221 0.0905689210886 0)
(1.10222838467 0.121549564834 0)
(1.16491411318 0.129605834005 0)
(1.22202565939 0.122009268522 0)
(1.26951891565 0.106019938646 0)
(1.30680223236 0.0870975564025 0)
(1.33499534732 0.0686366814878 0)
(1.35574476761 0.0523698392663 0)
(1.37069615984 0.0389256178869 0)
(1.38128274654 0.0282980730181 0)
(1.38866266703 0.0201712765891 0)
(1.39373032173 0.0141175097577 0)
(1.39715659399 0.00970533541956 0)
(1.39943433362 0.0065505948046 0)
(1.40091965349 0.00433445437115 0)
(1.4018661977 0.00280414481152 0)
(1.40245221603 0.00176574312401 0)
(1.40280131129 0.00107419512251 0)
(1.4029980057 0.00062323483284 0)
(1.40309922459 0.000336408719287 0)
(1.4031426758 0.000159622354682 0)
(1.4031529345 5.51633090615e-05 0)
(1.40314544403 -2.99882232164e-06 0)
(1.40312968332 -3.21228398509e-05 0)
(1.40311128024 -4.38897344881e-05 0)
(1.4030932419 -4.57592482636e-05 0)
(1.40307709285 -4.24166489291e-05 0)
(1.40306343448 -3.67255757645e-05 0)
(1.40305234037 -3.03628978773e-05 0)
(1.40304360879 -2.42431846491e-05 0)
(1.40303691465 -1.88133433341e-05 0)
(1.40303189704 -1.42415533417e-05 0)
(1.40302820612 -1.0529765475e-05 0)
(1.40302554373 -7.57734010055e-06 0)
(1.40302367719 -5.25959120152e-06 0)
(1.40302242971 -3.45381638687e-06 0)
(1.40302165059 -2.01636063819e-06 0)
(1.40302117432 -8.42718272766e-07 0)
(1.40302080547 9.0960086924e-08 0)
(1.40302047734 8.01864202307e-07 0)
(1.40302027298 1.29268953739e-06 0)
(1.40302017797 1.66617972233e-06 0)
(1.40302009954 1.988634552e-06 0)
(1.40302000372 2.29737592101e-06 0)
(1.40301988356 2.61066544892e-06 0)
(1.40301973751 2.93812536221e-06 0)
(1.40301956748 3.28489166517e-06 0)
(1.40301937363 3.65250488514e-06 0)
(1.40301914878 4.02869881341e-06 0)
(1.40301890573 4.37291812189e-06 0)
(1.40301867729 4.65486824155e-06 0)
(1.40301849027 4.83665461937e-06 0)
(1.40301837061 4.86126600976e-06 0)
(1.40301833941 4.6417803238e-06 0)
(1.40301840028 4.03602989088e-06 0)
(1.40301852658 2.83707780816e-06 0)
(1.40301879535 9.2657558128e-07 0)
(1.40301937538 -2.02309300145e-06 0)
(1.40302036812 -6.88052997619e-06 0)
(1.40302173004 -1.44216295055e-05 0)
(1.40302311924 -2.59595402633e-05 0)
(1.40302403119 -4.33332984069e-05 0)
(1.40302370843 -6.95167401803e-05 0)
(1.40302064897 -0.000109094814087 0)
(1.40301208772 -0.000169093639939 0)
(1.40299319807 -0.000260406364127 0)
(1.40295576222 -0.000399895940739 0)
(1.40288576119 -0.000613644120975 0)
(1.40275935927 -0.00094234176331 0)
(1.40253646547 -0.00144950136878 0)
(1.40215053098 -0.00223361873306 0)
(1.40148957112 -0.0034441683239 0)
(1.40036469151 -0.00530558130075 0)
(1.39846173339 -0.00814179251801 0)
(1.39526606344 -0.0123894451817 0)
(1.38996210286 -0.0185624148105 0)
(1.3813975595 -0.0271028002509 0)
(1.36806947974 -0.0380983691577 0)
(1.3475744279 -0.0506640385082 0)
(0.994011530806 0.019235806068 0)
(1.0348476342 0.0523338398441 0)
(1.09199262396 0.072363126808 0)
(1.15662419562 0.0791292314399 0)
(1.22032115834 0.0761045459878 0)
(1.27701944707 0.0673339713353 0)
(1.3242441829 0.0561509035866 0)
(1.36181572935 0.0447990111514 0)
(1.39068530063 0.0345303776696 0)
(1.41226074177 0.025881432367 0)
(1.42801821194 0.01894652373 0)
(1.43929882924 0.0135849817102 0)
(1.44722806044 0.00955653385909 0)
(1.45270411409 0.00660011501245 0)
(1.45641893718 0.00447418993508 0)
(1.45889142123 0.00297351331456 0)
(1.46050228455 0.00193276875509 0)
(1.46152567997 0.00122369407096 0)
(1.46215569419 0.000749550925815 0)
(1.46252751729 0.000439018073395 0)
(1.46273379278 0.00024052131656 0)
(1.46283693408 0.000117411976796 0)
(1.46287823535 4.40494645123e-05 0)
(1.46288447321 2.69115242035e-06 0)
(1.46287234761 -1.8443713706e-05 0)
(1.46285199517 -2.74370738499e-05 0)
(1.46282944287 -2.94363989783e-05 0)
(1.46280790354 -2.76859579031e-05 0)
(1.46278890485 -2.41837764804e-05 0)
(1.46277299116 -2.01110907163e-05 0)
(1.46276015385 -1.61164239056e-05 0)
(1.46275009892 -1.25223823001e-05 0)
(1.46274241606 -9.45533966845e-06 0)
(1.46273667307 -6.92605250622e-06 0)
(1.46273247088 -4.88083789821e-06 0)
(1.46272946671 -3.25052196815e-06 0)
(1.4627273719 -1.97217042392e-06 0)
(1.46272592932 -1.00465700701e-06 0)
(1.46272492847 -3.02533355063e-07 0)
(1.46272430442 2.21463801616e-07 0)
(1.46272394253 7.06427530196e-07 0)
(1.46272369422 1.18622313076e-06 0)
(1.46272352735 1.61438398177e-06 0)
(1.46272340225 1.99864046956e-06 0)
(1.46272328957 2.36051136949e-06 0)
(1.46272317015 2.71367274714e-06 0)
(1.46272303036 3.06382246048e-06 0)
(1.46272286168 3.40925791803e-06 0)
(1.46272265972 3.74100435788e-06 0)
(1.46272242193 4.04818874509e-06 0)
(1.46272215119 4.32324647915e-06 0)
(1.46272185428 4.53441721587e-06 0)
(1.46272153706 4.63124001745e-06 0)
(1.46272120796 4.54457860813e-06 0)
(1.46272087999 4.18388505424e-06 0)
(1.46272057235 3.43666792342e-06 0)
(1.46272030159 2.18231790665e-06 0)
(1.46271995371 3.46799407091e-07 0)
(1.46271932826 -2.40146700969e-06 0)
(1.46271831165 -6.82897800817e-06 0)
(1.4627166532 -1.3737040387e-05 0)
(1.46271367101 -2.42277386815e-05 0)
(1.4627082317 -3.98350629211e-05 0)
(1.46269851378 -6.29292747815e-05 0)
(1.46268144115 -9.7102818532e-05 0)
(1.46265183614 -0.000147732646819 0)
(1.46260117546 -0.000223029214668 0)
(1.4625156723 -0.000335408914183 0)
(1.46237274384 -0.000503468553193 0)
(1.46213535311 -0.000755695209769 0)
(1.46174350812 -0.00113609920279 0)
(1.46110233353 -0.0017120168131 0)
(1.46006003523 -0.00257956186132 0)
(1.4583748674 -0.00387877263166 0)
(1.45567168094 -0.00580271936008 0)
(1.45138305577 -0.00859563985294 0)
(1.44468538115 -0.0125194415741 0)
(1.43450455244 -0.0177571366308 0)
(1.41957331281 -0.0242604170056 0)
(1.39803388099 -0.0314873178121 0)
(0.993269666772 0.00617014992085 0)
(1.03158099821 0.0171020451977 0)
(1.08672181505 0.023990647745 0)
(1.15174554022 0.0265606651162 0)
(1.21823535759 0.0258180584598 0)
(1.27925773533 0.0230488861358 0)
(1.33140135278 0.0193656317118 0)
(1.37377597963 0.0155468582816 0)
(1.40691052544 0.0120449304419 0)
(1.43203312478 0.00906639978723 0)
(1.45060213812 0.00666059465082 0)
(1.46402984518 0.00479009130854 0)
(1.47355014577 0.00337842821574 0)
(1.48017561715 0.00233873821878 0)
(1.48470226957 0.00158891433341 0)
(1.48773618521 0.00105828967157 0)
(1.48972732234 0.000689463871069 0)
(1.49100275182 0.000437639779226 0)
(1.49179583125 0.000268887258018 0)
(1.49227020124 0.000158112624256 0)
(1.49253869278 8.71261088928e-05 0)
(1.49267776919 4.29763042943e-05 0)
(1.49273830287 1.65864121102e-05 0)
(1.49275347705 1.66603415444e-06 0)
(1.4927442403 -6.06633653569e-06 0)
(1.49272345223 -9.41105623696e-06 0)
(1.49269880793 -1.02166536484e-05 0)
(1.49267453528 -9.65290073289e-06 0)
(1.49265273162 -8.43864977513e-06 0)
(1.49263423854 -6.99192585953e-06 0)
(1.49261917894 -5.55287732999e-06 0)
(1.49260729099 -4.24125776059e-06 0)
(1.49259814546 -3.10430090589e-06 0)
(1.4925912667 -2.14814751754e-06 0)
(1.49258620025 -1.35675820729e-06 0)
(1.49258254547 -7.08516775988e-07 0)
(1.49257996643 -1.82076474082e-07 0)
(1.49257819358 2.44681689945e-07 0)
(1.49257702054 6.18521196941e-07 0)
(1.49257626996 9.89562132318e-07 0)
(1.49257578874 1.29703236996e-06 0)
(1.49257548446 1.5848799103e-06 0)
(1.49257529967 1.87018805943e-06 0)
(1.49257518176 2.16348870112e-06 0)
(1.49257509161 2.47219333476e-06 0)
(1.49257500279 2.79932216132e-06 0)
(1.49257489672 3.14457371926e-06 0)
(1.49257476016 3.5043476133e-06 0)
(1.49257458322 3.87061784991e-06 0)
(1.49257435728 4.22982631461e-06 0)
(1.49257407621 4.56238098687e-06 0)
(1.49257373541 4.83630431177e-06 0)
(1.49257332805 5.00737165731e-06 0)
(1.4925728433 5.01587672879e-06 0)
(1.49257226158 4.78059281518e-06 0)
(1.49257155403 4.18993993135e-06 0)
(1.49257071023 3.09616900782e-06 0)
(1.49256960556 1.34485318771e-06 0)
(1.49256780131 -1.2504565725e-06 0)
(1.49256497638 -5.18718089047e-06 0)
(1.49256075686 -1.11144244841e-05 0)
(1.49255412872 -1.97901009634e-05 0)
(1.49254346395 -3.22779396221e-05 0)
(1.49252620357 -5.011776834e-05 0)
(1.49249822534 -7.54912993844e-05 0)
(1.49245277434 -0.000111377582545 0)
(1.49237898497 -0.000162209838785 0)
(1.49225979051 -0.000234341127792 0)
(1.49206764737 -0.000336236843564 0)
(1.49175759932 -0.000480623448663 0)
(1.49125760444 -0.000688302094921 0)
(1.49045864973 -0.000991538427989 0)
(1.48919024244 -0.00142317404216 0)
(1.48718571811 -0.00203107454187 0)
(1.48404527646 -0.00287676635679 0)
(1.47918677912 -0.00402798839913 0)
(1.47179973909 -0.00553947120022 0)
(1.46086508344 -0.00741343903264 0)
(1.44522721797 -0.00955686203896 0)
(1.42326412108 -0.0117223509601 0)
(0.993270464557 -0.00616840254228 0)
(1.03158098079 -0.0171003771417 0)
(1.08672174872 -0.0239897630098 0)
(1.15174557787 -0.0265602481385 0)
(1.21823543553 -0.0258179940771 0)
(1.27925783744 -0.0230491107183 0)