/*--------------------------------*- C++ -*----------------------------------*\
| =========                 |                                                 |
| \\      /  F ield         | OpenFOAM: The Open Source CFD Toolbox           |
|  \\    /   O peration     | Version:  2106                                  |
|   \\  /    A nd           | Website:  www.openfoam.com                      |
|    \\/     M anipulation  |                                                 |
\*---------------------------------------------------------------------------*/
FoamFile
{
    version     2.0;
    format      ascii;
    arch        "LSB;label=32;scalar=64";
    class       volVectorField;
    location    "0.065";
    object      U;
}
// * * * * * * * * * * * * * * * * * * * * * * * * * * * * * * * * * * * * * //

dimensions      [0 1 -1 0 0 0 0];

internalField   nonuniform List<vector> 
11200
(
(0.662462280605 0.15056956979 0)
(0.558947976814 0.103243694594 0)
(0.383849199674 0.0513516134097 0)
(0.283745427748 0.0248712333259 0)
(0.232073208416 0.01241727505 0)
(0.201908139347 0.0066226834628 0)
(0.183201626667 0.00380213141177 0)
(0.171288033193 0.00231411196389 0)
(0.163534609833 0.00146145619928 0)
(0.158431767871 0.000940293426246 0)
(0.155074931341 0.000608879898474 0)
(0.152887052946 0.000394223926638 0)
(0.151485338591 0.000254625109068 0)
(0.150610913445 0.000164244544255 0)
(0.150087055259 0.000106135816819 0)
(0.149792756976 6.871957812e-05 0)
(0.149644951644 4.40248282425e-05 0)
(0.149586022425 2.78785763898e-05 0)
(0.149579263016 2.16720894968e-05 0)
(0.149602696949 2.3863962189e-05 0)
(0.149640231997 2.86349190816e-05 0)
(0.149680815843 3.21939224937e-05 0)
(0.149718782766 3.44288770374e-05 0)
(0.149751234018 3.59663498517e-05 0)
(0.149777658066 3.83281470291e-05 0)
(0.14979867351 4.096675227e-05 0)
(0.149814687748 4.34506693853e-05 0)
(0.149826405281 4.57057560899e-05 0)
(0.149834683578 4.77819269992e-05 0)
(0.14984034292 4.97668069271e-05 0)
(0.14984409789 5.17759209036e-05 0)
(0.149846525552 5.39441584626e-05 0)
(0.149848037289 5.63023751335e-05 0)
(0.149848906602 5.86806443978e-05 0)
(0.149849342547 6.09998322999e-05 0)
(0.149849523684 6.32637405165e-05 0)
(0.149849570823 6.55047108262e-05 0)
(0.149849546503 6.77400496756e-05 0)
(0.149849488181 6.99787083292e-05 0)
(0.149849417652 7.22257731449e-05 0)
(0.14984934539 7.44830573923e-05 0)
(0.149849274969 7.67499281745e-05 0)
(0.149849206149 7.90240725501e-05 0)
(0.149849137479 8.13022595705e-05 0)
(0.149849068422 8.35810770179e-05 0)
(0.149849000202 8.58572851985e-05 0)
(0.149848935019 8.81277983755e-05 0)
(0.149848874906 9.03893889246e-05 0)
(0.149848821848 9.26386105883e-05 0)
(0.149848778459 9.48724036373e-05 0)
(0.149848748995 9.70881464545e-05 0)
(0.149848740682 9.92836513641e-05 0)
(0.149848764424 0.000101456900988 0)
(0.149848835504 0.000103605563233 0)
(0.149848975348 0.000105726632153 0)
(0.149849214794 0.000107816078704 0)
(0.14984959922 0.000109867784529 0)
(0.149850196474 0.000111872088467 0)
(0.149851105306 0.00011381553571 0)
(0.149852472698 0.00011567342656 0)
(0.149854533205 0.000117395369244 0)
(0.149857681423 0.000118898049199 0)
(0.149862436331 0.00012017814755 0)
(0.149869465054 0.000121420316326 0)
(0.149879803117 0.000123077397195 0)
(0.149895017621 0.00012544944943 0)
(0.149917579551 0.00012827770671 0)
(0.149951360354 0.00013130107695 0)
(0.150002225211 0.000134285531112 0)
(0.150078753563 0.000137170268133 0)
(0.150193333077 0.000141600565204 0)
(0.15037060563 0.000154157574628 0)
(0.150649824539 0.000176123415427 0)
(0.151095771619 0.000207922963402 0)
(0.151848742867 0.00023995655808 0)
(0.153197066208 0.000198343409436 0)
(0.155817726795 -0.000233386705925 0)
(0.163364385072 -0.00224917721327 0)
(0.189608781544 -0.0115166808965 0)
(0.210197671792 -0.053752730479 0)
(0.965408073597 0.289215210641 0)
(0.961961948595 0.252656993967 0)
(0.823572784477 0.159022270404 0)
(0.6981383 0.0959957054267 0)
(0.61022763986 0.0582462155405 0)
(0.548981581843 0.0362097040042 0)
(0.50661398992 0.023151212252 0)
(0.477617174835 0.0151207267294 0)
(0.457832635652 0.00999259112359 0)
(0.444367454663 0.00662335232141 0)
(0.435260072527 0.00437055178515 0)
(0.429163740194 0.00285187716181 0)
(0.425143528497 0.0018271757603 0)
(0.422546996663 0.00113910637697 0)
(0.420917817849 0.000681502360774 0)
(0.419937070941 0.000381374204492 0)
(0.419383089049 0.000188291336341 0)
(0.419104279522 6.86299811436e-05 0)
(0.418997701843 1.81022878047e-06 0)
(0.418990419821 -3.17017610841e-05 0)
(0.419032871826 -4.41554084143e-05 0)
(0.419096858675 -4.62005006493e-05 0)
(0.419166877768 -4.28392374669e-05 0)
(0.419233579478 -3.66922403249e-05 0)
(0.419291795216 -2.85391161396e-05 0)
(0.419339236704 -2.00009865015e-05 0)
(0.419376213023 -1.21238044124e-05 0)
(0.41940401799 -5.32732770195e-06 0)
(0.419424269879 2.80950872572e-07 0)
(0.419438634558 4.72517447554e-06 0)
(0.419448656257 8.05035562155e-06 0)
(0.419455532742 1.02646845241e-05 0)
(0.419459967775 1.1558531182e-05 0)
(0.419462543506 1.25423344258e-05 0)
(0.419463912811 1.33549055289e-05 0)
(0.419464594065 1.4013378054e-05 0)
(0.419464898745 1.45907303767e-05 0)
(0.419464984111 1.51205884604e-05 0)
(0.419464949329 1.56229033925e-05 0)
(0.419464855065 1.611383799e-05 0)
(0.419464733476 1.66039220177e-05 0)
(0.41946459922 1.70988936847e-05 0)
(0.419464456712 1.76011608931e-05 0)
(0.419464305391 1.81112397619e-05 0)
(0.419464143641 1.86291653289e-05 0)
(0.41946397079 1.91552799879e-05 0)
(0.419463786932 1.96903538425e-05 0)
(0.419463592674 2.02345596316e-05 0)
(0.419463391556 2.0787169315e-05 0)
(0.419463192016 2.13490812972e-05 0)
(0.41946300855 2.19224042791e-05 0)
(0.419462863483 2.25097909429e-05 0)
(0.419462788372 2.31134488641e-05 0)
(0.419462826163 2.37340495782e-05 0)
(0.419463035572 2.43702472868e-05 0)
(0.419463498354 2.50187722516e-05 0)
(0.419464331447 2.56742406792e-05 0)
(0.419465708378 2.63282211728e-05 0)
(0.419467880904 2.69692374268e-05 0)
(0.419471216839 2.75623031955e-05 0)
(0.419476293865 2.80460772442e-05 0)
(0.419484154247 2.83465084049e-05 0)
(0.419496382076 2.85387993718e-05 0)
(0.419515205661 2.81569829004e-05 0)
(0.419543559406 2.56682700699e-05 0)
(0.419585208381 1.97055394011e-05 0)
(0.419646537297 9.40920631942e-06 0)
(0.419738249557 -6.8463794471e-06 0)
(0.419876960085 -3.17720502304e-05 0)
(0.420089304043 -6.93073501379e-05 0)
(0.420420104343 -0.000123855532757 0)
(0.420943099096 -0.000200766663522 0)
(0.421779341764 -0.00033013478038 0)
(0.423146911342 -0.000572259149875 0)
(0.425463702537 -0.00107185696659 0)
(0.429502507538 -0.00223498005952 0)
(0.436800475259 -0.00518965647691 0)
(0.451790106194 -0.0131198443086 0)
(0.480318150494 -0.0367109349078 0)
(0.488254495687 -0.106762603691 0)
(1.02222084573 0.238417070864 0)
(1.08213705741 0.295928022485 0)
(1.0344769798 0.239503434782 0)
(0.954617499012 0.174287518404 0)
(0.880000600963 0.121337058529 0)
(0.818636114062 0.0830816665194 0)
(0.771455382439 0.0567004871625 0)
(0.736714789926 0.0386919830406 0)
(0.711756882414 0.0263620579118 0)
(0.694119882998 0.0178777550172 0)
(0.681835766668 0.0120212499162 0)
(0.673405930655 0.00797868087916 0)
(0.667716725607 0.00519804975701 0)
(0.663953639691 0.00329909227677 0)
(0.661527429849 0.00201661281655 0)
(0.660015682633 0.00116424670663 0)
(0.659118437794 0.000610691144017 0)
(0.658624762752 0.000263372801602 0)
(0.658386839273 5.56271432092e-05 0)
(0.658306487755 -6.1708335245e-05 0)
(0.658316100991 -0.000123402991549 0)
(0.65836966816 -0.000147182706419 0)
(0.658441387329 -0.000148097163065 0)
(0.658515371067 -0.000136772929583 0)
(0.658582856001 -0.000120240342382 0)
(0.658639873755 -0.000102387630264 0)
(0.658685537761 -8.54401541624e-05 0)
(0.658720546137 -7.05452227073e-05 0)
(0.658746350358 -5.8122750387e-05 0)
(0.65876464661 -4.81660747633e-05 0)
(0.65877707588 -4.04879217958e-05 0)
(0.658785238503 -3.49042923723e-05 0)
(0.658790796087 -3.12181344645e-05 0)
(0.65879457926 -2.91372204366e-05 0)
(0.658796815474 -2.82174842689e-05 0)
(0.6587980315 -2.81620127896e-05 0)
(0.658798658967 -2.85810283199e-05 0)
(0.658798918744 -2.92755718849e-05 0)
(0.658798965119 -3.01307009886e-05 0)
(0.658798896802 -3.10691232342e-05 0)
(0.658798768385 -3.20438325961e-05 0)
(0.65879860796 -3.30286258723e-05 0)
(0.658798427963 -3.40095054401e-05 0)
(0.65879823255 -3.49791851001e-05 0)
(0.658798022883 -3.59339777745e-05 0)
(0.658797799835 -3.68722855019e-05 0)
(0.658797563659 -3.77928557181e-05 0)
(0.658797314187 -3.86941934167e-05 0)
(0.658797056355 -3.95744204021e-05 0)
(0.658796802752 -4.04280583715e-05 0)
(0.658796573642 -4.12489643625e-05 0)
(0.658796399538 -4.20314037013e-05 0)
(0.658796323771 -4.27711906287e-05 0)
(0.658796406551 -4.34673636699e-05 0)
(0.658796732365 -4.41244911433e-05 0)
(0.6587974216 -4.4757977195e-05 0)
(0.658798648698 -4.54078005751e-05 0)
(0.658800672998 -4.61617312006e-05 0)
(0.658803863213 -4.71618170523e-05 0)
(0.658808767932 -4.86494258771e-05 0)
(0.658816273433 -5.1089062765e-05 0)
(0.658827953566 -5.5460505085e-05 0)
(0.658845517307 -6.28317411453e-05 0)
(0.658870475474 -7.42734650919e-05 0)
(0.658906360672 -9.13646731566e-05 0)
(0.658960223838 -0.00011674609142 0)
(0.659042156982 -0.000153863082175 0)
(0.659166840641 -0.000208454423881 0)
(0.659357597788 -0.000289828844464 0)
(0.659652427588 -0.000413186013066 0)
(0.660113855544 -0.000605145993122 0)
(0.660838270434 -0.000916981426229 0)
(0.661985741866 -0.00144554488492 0)
(0.663837021207 -0.00237747038381 0)
(0.666875523504 -0.00410351468982 0)
(0.671873266539 -0.00748640103291 0)
(0.679992962035 -0.0144183908343 0)
(0.693475267725 -0.0290845428999 0)
(0.712262661784 -0.0612949293787 0)
(0.7107241435 -0.12453037233 0)
(1.02251472455 0.170808146217 0)
(1.1013898343 0.276497648927 0)
(1.1175254062 0.26666364105 0)
(1.09215123505 0.21989473583 0)
(1.05189067465 0.168151401151 0)
(1.01023550329 0.123533575622 0)
(0.973546445773 0.0887805401211 0)
(0.943953519221 0.0629192184175 0)
(0.921284574031 0.0440995760148 0)
(0.904496588832 0.0305777289784 0)
(0.892377430617 0.0209487097598 0)
(0.883816499853 0.0141463922774 0)
(0.877892052527 0.00938232200872 0)
(0.873879535187 0.00607982052882 0)
(0.871228052455 0.00381938716375 0)
(0.86952818816 0.00229699024219 0)
(0.86848104771 0.00129305363796 0)
(0.867871833557 0.000649548502705 0)
(0.86754789698 0.000253301508588 0)
(0.867400997435 2.45627970252e-05 0)
(0.867361437542 -9.79216894296e-05 0)
(0.867383710757 -0.000151554673456 0)
(0.86743439542 -0.000163442086869 0)
(0.867494251132 -0.000152132069351 0)
(0.867552628871 -0.00012968146414 0)
(0.867604128271 -0.00010349920282 0)
(0.867646688354 -7.79468081572e-05 0)
(0.867680182481 -5.53046165885e-05 0)
(0.867705508329 -3.64749944227e-05 0)
(0.86772400146 -2.15247285635e-05 0)
(0.86773705724 -1.00771035607e-05 0)
(0.867745892397 -1.55557764241e-06 0)
(0.867751438712 4.50548435745e-06 0)
(0.867754633982 8.25010914591e-06 0)
(0.867756352879 1.047827281e-05 0)
(0.867757289926 1.20163296356e-05 0)
(0.867757855184 1.31480079919e-05 0)
(0.867758129538 1.40084639319e-05 0)
(0.867758216172 1.46892039978e-05 0)
(0.86775819342 1.52642082084e-05 0)
(0.867758102697 1.57859778998e-05 0)
(0.867757965927 1.62893660772e-05 0)
(0.867757794295 1.67958747846e-05 0)
(0.867757592609 1.73172859788e-05 0)
(0.867757362635 1.78592676163e-05 0)
(0.867757106023 1.84253684092e-05 0)
(0.867756824731 1.90218653087e-05 0)
(0.867756520694 1.96488723443e-05 0)
(0.867756202137 2.02959089943e-05 0)
(0.867755884539 2.09612408237e-05 0)
(0.86775559024 2.16434263828e-05 0)
(0.867755353364 2.23371510805e-05 0)
(0.867755222814 2.3031049739e-05 0)
(0.867755266109 2.37046978517e-05 0)
(0.867755574661 2.43237638025e-05 0)
(0.867756268074 2.48319829189e-05 0)
(0.867757501905 2.51431401472e-05 0)
(0.867759511853 2.51563113313e-05 0)
(0.867762640904 2.48040960125e-05 0)
(0.86776732305 2.37640337758e-05 0)
(0.867774031035 2.13255710422e-05 0)
(0.867784083328 1.6686708007e-05 0)
(0.867800061122 8.37323235945e-06 0)
(0.867825375918 -5.8691901134e-06 0)
(0.867864188436 -2.82094799312e-05 0)
(0.86792254866 -6.27368622612e-05 0)
(0.868010249159 -0.000116895946046 0)
(0.868142700033 -0.00020241681225 0)
(0.868344052478 -0.000338154463202 0)
(0.868651917717 -0.000555238950065 0)
(0.869124738816 -0.000907084338706 0)
(0.869855652762 -0.00148832399924 0)
(0.870994859654 -0.00246127562596 0)
(0.872779425816 -0.00412621204796 0)
(0.875568486068 -0.00705664136695 0)
(0.879827647738 -0.0123608781247 0)
(0.885981154084 -0.0221116092566 0)
(0.894343465113 -0.0399938792931 0)
(0.90257786249 -0.0723436462015 0)
(0.894513199881 -0.123243509042 0)
(1.01287878801 0.118961908209 0)
(1.0882071461 0.231807444689 0)
(1.13741550351 0.253103553057 0)
(1.1540961008 0.228981097235 0)
(1.14995418939 0.188341965302 0)
(1.13540877467 0.146530913282 0)
(1.11763224652 0.110070624016 0)
(1.10066663123 0.0806953706352 0)
(1.08623557712 0.0580570676376 0)
(1.07475389185 0.0410949343065 0)
(1.06601990981 0.0286350025604 0)
(1.05959551651 0.0196239830565 0)
(1.05499909562 0.0131967851548 0)
(1.05179271892 0.0086746690504 0)
(1.04961242548 0.00553930630017 0)
(1.04817110723 0.00340185354531 0)
(1.04725001106 0.00197433448593 0)
(1.04668673804 0.00104558778697 0)
(1.04636300662 0.000462004593664 0)
(1.0461941232 0.000113285279484 0)
(1.04612245745 -7.7158929418e-05 0)
(1.04610890027 -0.000167840195672 0)
(1.04612624418 -0.000197628885706 0)
(1.04615747996 -0.000192507937885 0)
(1.04619250551 -0.000169635623434 0)
(1.04622571296 -0.000139864649498 0)
(1.04625442043 -0.000109682274887 0)
(1.04627773087 -8.26017009358e-05 0)
(1.04629575538 -6.01843629992e-05 0)
(1.04630909108 -4.27844649399e-05 0)
(1.04631851867 -3.00476899482e-05 0)
(1.04632487464 -2.1247002033e-05 0)
(1.04632900916 -1.54511659601e-05 0)
(1.04633179728 -1.15938957664e-05 0)
(1.04633392913 -8.93020414544e-06 0)
(1.04633553459 -6.96681536353e-06 0)
(1.0463365395 -5.74706131285e-06 0)
(1.04633708223 -5.18470041179e-06 0)
(1.04633733314 -5.00970135085e-06 0)
(1.04633741491 -5.02555842235e-06 0)
(1.04633739488 -5.12350507264e-06 0)
(1.04633730935 -5.24956002103e-06 0)
(1.04633717602 -5.37553371709e-06 0)
(1.04633700285 -5.48665145517e-06 0)
(1.04633679528 -5.57676128584e-06 0)
(1.04633656155 -5.64713068845e-06 0)
(1.0463363029 -5.70832971378e-06 0)
(1.04633600735 -5.76518635473e-06 0)
(1.04633567964 -5.8069220427e-06 0)
(1.04633534118 -5.82935923957e-06 0)
(1.04633501342 -5.83293131841e-06 0)
(1.04633472651 -5.81953124599e-06 0)
(1.0463345243 -5.79442286807e-06 0)
(1.04633446796 -5.76910010481e-06 0)
(1.04633464188 -5.76536413081e-06 0)
(1.04633516689 -5.82472424804e-06 0)
(1.04633624359 -6.03574111759e-06 0)
(1.04633824192 -6.6375909857e-06 0)
(1.0463414897 -8.25405718209e-06 0)
(1.04634622288 -1.1495371366e-05 0)
(1.04635325183 -1.63911737499e-05 0)
(1.04636405137 -2.27364341289e-05 0)
(1.04637990504 -3.23516118377e-05 0)
(1.04640284346 -4.84489989178e-05 0)
(1.04643654739 -7.57694820279e-05 0)
(1.04648639542 -0.000121121109229 0)
(1.04656037619 -0.000195113063296 0)
(1.04667050917 -0.00031469406849 0)
(1.04683514171 -0.000507331325858 0)
(1.04708229219 -0.00081789950636 0)
(1.04745437826 -0.00132014782057 0)
(1.04801542605 -0.00213678690248 0)
(1.04885985326 -0.00347775039305 0)
(1.0501175339 -0.00570849385756 0)
(1.05194220931 -0.00946865922496 0)
(1.05442854793 -0.0158676528915 0)
(1.0573767725 -0.0267256066675 0)
(1.06002089558 -0.0447325891264 0)
(1.05957677227 -0.0733560809514 0)
(1.04629412417 -0.11299178384 0)
(1.00447490943 0.0814046731962 0)
(1.06917292825 0.181288285482 0)
(1.13080738128 0.216945434251 0)
(1.17375381307 0.210773995618 0)
(1.19866005363 0.183657542757 0)
(1.21021292043 0.149692951938 0)
(1.21352384126 0.11668427153 0)
(1.21254989091 0.0880795260446 0)
(1.20977858411 0.064851660248 0)
(1.20657771038 0.0467625256281 0)
(1.20360877864 0.0330838034864 0)
(1.20112852703 0.0229701398779 0)
(1.19918310208 0.0156309758043 0)
(1.19772272639 0.0103949273047 0)
(1.19666356444 0.00672168701099 0)
(1.19591816765 0.00419095709039 0)
(1.19540866988 0.00248332518733 0)
(1.19507109344 0.00136014483984 0)
(1.19485532225 0.00064543189249 0)
(1.19472353388 0.000211157383808 0)
(1.19464824542 -3.44684039031e-05 0)
(1.19460974237 -0.000158115618603 0)
(1.19459394456 -0.000205940698087 0)
(1.194591267 -0.000209348322433 0)
(1.19459549005 -0.000189231935528 0)
(1.19460272558 -0.000158937518617 0)
(1.19461068478 -0.000126531165764 0)
(1.19461813103 -9.64743340717e-05 0)
(1.19462449753 -7.08513374954e-05 0)
(1.1946296402 -5.02522211845e-05 0)
(1.19463365025 -3.43663862637e-05 0)
(1.19463671754 -2.24278882229e-05 0)
(1.19463907239 -1.35588756257e-05 0)
(1.19464091647 -7.04936898729e-06 0)
(1.19464230792 -2.50345089825e-06 0)
(1.19464313584 3.22798856155e-07 0)
(1.19464342881 1.91030306939e-06 0)
(1.19464351914 2.87972394169e-06 0)
(1.19464362098 3.53839912295e-06 0)
(1.19464371621 3.97115684898e-06 0)
(1.1946437648 4.26801045712e-06 0)
(1.19464375221 4.50531760682e-06 0)
(1.19464368064 4.73015303452e-06 0)
(1.19464355424 4.9672572703e-06 0)
(1.19464337398 5.22628846801e-06 0)
(1.19464313601 5.50497961695e-06 0)
(1.19464284367 5.78816636654e-06 0)
(1.19464251786 6.06387241735e-06 0)
(1.19464217531 6.34010783051e-06 0)
(1.19464182329 6.63094138598e-06 0)
(1.19464148117 6.93351369343e-06 0)
(1.19464118304 7.23458240543e-06 0)
(1.1946409768 7.51206929449e-06 0)
(1.19464092719 7.73113155822e-06 0)
(1.19464111768 7.83750697567e-06 0)
(1.1946416393 7.74884336185e-06 0)
(1.19464252733 7.34768071177e-06 0)
(1.19464364334 6.45015299856e-06 0)
(1.19464510283 4.57700536693e-06 0)
(1.1946479255 9.59098781868e-07 0)
(1.1946534186 -4.8512115545e-06 0)
(1.19466172588 -1.41839898887e-05 0)
(1.19467311072 -2.94052763631e-05 0)
(1.19468929963 -5.34918964099e-05 0)
(1.19471251939 -9.13115888972e-05 0)
(1.19474561765 -0.000150722476302 0)
(1.19479264064 -0.000244331018301 0)
(1.19485937678 -0.000392250487829 0)
(1.1949540733 -0.000626721912982 0)
(1.19508833222 -0.000999750886221 0)
(1.1952777204 -0.00159550133194 0)
(1.19554127276 -0.00255112057504 0)
(1.19589731919 -0.00409223001117 0)
(1.19634834855 -0.00659036379294 0)
(1.19684004012 -0.0106509591017 0)
(1.19715519518 -0.0172326458021 0)
(1.19669250562 -0.0277408638008 0)
(1.19423281521 -0.0439452495854 0)
(1.18725081485 -0.0675485479245 0)
(1.1697428755 -0.0977984117199 0)
(0.998962421566 0.0544320809573 0)
(1.05311006959 0.133400805501 0)
(1.1162836608 0.170771738517 0)
(1.17301375353 0.175127609153 0)
(1.2179125119 0.159549758309 0)
(1.25049577686 0.134890901214 0)
(1.27287634271 0.108315546331 0)
(1.2877487879 0.0837430021872 0)
(1.29741912266 0.0628599363427 0)
(1.30360586424 0.0460422303806 0)
(1.30750938203 0.0329990677662 0)
(1.30993592292 0.0231662295759 0)
(1.31141490219 0.0159216487137 0)
(1.3122903248 0.0106896444295 0)
(1.31278485308 0.00698169475053 0)
(1.31304241957 0.00440406728193 0)
(1.313155938 0.00265001398215 0)
(1.31318516207 0.00148620093198 0)
(1.31316814836 0.000738280696348 0)
(1.31312876869 0.000277936234842 0)
(1.31308162609 1.18826691301e-05 0)
(1.31303516046 -0.00012679668262 0)
(1.31299366119 -0.000185374740483 0)
(1.31295886662 -0.000196286321125 0)
(1.31293106541 -0.000181244480776 0)
(1.31290974297 -0.000154259943966 0)
(1.31289398936 -0.000123909042006 0)
(1.31288276502 -9.50342223451e-05 0)
(1.31287506378 -7.00018641648e-05 0)
(1.31287000907 -4.96242779044e-05 0)
(1.31286688083 -3.38261108082e-05 0)
(1.31286509317 -2.2084850384e-05 0)
(1.31286415356 -1.3720706068e-05 0)
(1.31286370187 -8.08789830611e-06 0)
(1.31286351888 -4.59072140611e-06 0)
(1.31286349501 -2.56690320855e-06 0)
(1.31286371527 -1.3338568684e-06 0)
(1.31286411064 -5.52336946752e-07 0)
(1.3128644028 -7.7886939064e-08 0)
(1.31286454819 2.18452734581e-07 0)
(1.31286462664 4.10875023906e-07 0)
(1.31286466225 5.57135704499e-07 0)
(1.31286465125 6.98486536442e-07 0)
(1.31286458755 8.60398583385e-07 0)
(1.3128644667 1.05743884856e-06 0)
(1.31286428497 1.29966831249e-06 0)
(1.3128640409 1.59961449018e-06 0)
(1.31286374346 1.96276644121e-06 0)
(1.31286341861 2.37587445344e-06 0)
(1.31286307929 2.80996234103e-06 0)
(1.31286272604 3.24595332649e-06 0)
(1.31286237523 3.66074924455e-06 0)
(1.31286205608 4.01718285398e-06 0)
(1.31286180831 4.25770900186e-06 0)
(1.31286168499 4.29549507472e-06 0)
(1.31286176637 4.00196268709e-06 0)
(1.31286218634 3.19899226869e-06 0)
(1.31286304654 1.71001643465e-06 0)
(1.3128642447 -4.91924549894e-07 0)
(1.31286609624 -3.72939064949e-06 0)
(1.31286901929 -9.40137621918e-06 0)
(1.31287302849 -1.94160216724e-05 0)
(1.31287830307 -3.56039737967e-05 0)
(1.3128851718 -6.11664287837e-05 0)
(1.31289383226 -0.000101424965179 0)
(1.31290415344 -0.000164679269188 0)
(1.31291542957 -0.000263954648048 0)
(1.31292584019 -0.000419819301547 0)
(1.31293144299 -0.000664920788594 0)
(1.31292444929 -0.00105129298844 0)
(1.31288958024 -0.00166156648472 0)
(1.31279675901 -0.00262731060304 0)
(1.31258706402 -0.00415775811481 0)
(1.31214492125 -0.00658207413559 0)
(1.31124492165 -0.01040581841 0)
(1.30945057118 -0.0163707286952 0)
(1.30594477903 -0.0254645080471 0)
(1.29939045664 -0.0387660554135 0)
(1.28767016447 -0.0570312845253 0)
(1.26684239419 -0.0793746141973 0)
(0.995736185225 0.034634130694 0)
(1.04179552221 0.0905679446034 0)
(1.1022284435 0.121544159143 0)
(1.16491199369 0.129591390062 0)
(1.22201780239 0.121979736014 0)
(1.26949958808 0.105967996123 0)
(1.30676311776 0.0870150499974 0)
(1.33492533446 0.0685153603674 0)
(1.35563005133 0.0522023445655 0)
(1.37052072799 0.0387065970441 0)
(1.38102926184 0.0280252295085 0)
(1.38831367364 0.0198461453679 0)
(1.39326963562 0.0137457809877 0)
(1.39657068951 0.00929662760853 0)
(1.3987135289 0.00611768457974 0)
(1.40005892837 0.00389207729788 0)
(1.40086554375 0.00236756077063 0)
(1.40131649371 0.00134928442295 0)
(1.40153963674 0.00069000203635 0)
(1.40162283226 0.000280375553309 0)
(1.40162533933 4.03787433747e-05 0)
(1.40158583058 -8.75917652693e-05 0)
(1.4015285452 -0.000144529281485 0)
(1.4014680273 -0.000158740692689 0)
(1.40141217104 -0.000149260640443 0)
(1.40136461828 -0.000128461831747 0)
(1.40132640926 -0.000103991374164 0)
(1.40129710059 -8.02322846676e-05 0)
(1.40127551272 -5.9393726815e-05 0)
(1.40126020933 -4.23122160472e-05 0)
(1.4012497728 -2.90201709963e-05 0)
(1.40124293986 -1.91301239171e-05 0)
(1.40123865474 -1.20660436947e-05 0)
(1.40123611362 -7.17479952027e-06 0)
(1.40123477854 -3.85680514386e-06 0)
(1.40123423782 -1.59921807678e-06 0)
(1.40123405777 -7.22839933367e-08 0)
(1.40123402623 8.47944782778e-07 0)
(1.4012341462 1.33391477969e-06 0)
(1.40123433811 1.62267444193e-06 0)
(1.40123451257 1.83446782551e-06 0)
(1.40123464215 2.02403313206e-06 0)
(1.40123471792 2.22200082193e-06 0)
(1.40123473573 2.44646617707e-06 0)
(1.40123469453 2.70772207937e-06 0)
(1.40123459594 3.01183334803e-06 0)
(1.40123444421 3.36410330421e-06 0)
(1.4012342421 3.76900563946e-06 0)
(1.40123397924 4.22150194665e-06 0)
(1.40123365814 4.69324353323e-06 0)
(1.4012333029 5.16566006725e-06 0)
(1.4012329332 5.61876668623e-06 0)
(1.40123256941 6.02091941776e-06 0)
(1.4012322369 6.32277300784e-06 0)
(1.40123196343 6.44967695649e-06 0)
(1.40123176991 6.28968087552e-06 0)
(1.40123165808 5.66731653394e-06 0)
(1.40123161054 4.30431121798e-06 0)
(1.4012316219 1.91682275535e-06 0)
(1.40123161364 -1.82641454946e-06 0)
(1.4012316124 -8.21261885863e-06 0)
(1.40123141352 -1.8521913879e-05 0)
(1.40123029449 -3.46488423802e-05 0)
(1.40122723996 -5.96457678335e-05 0)
(1.40122047562 -9.83395910202e-05 0)
(1.40120683037 -0.000158200132016 0)
(1.40118080603 -0.000250848226892 0)
(1.4011330232 -0.000394440566274 0)
(1.40104761022 -0.000617450121535 0)
(1.40089831154 -0.000964754493533 0)
(1.40064135587 -0.00150603918304 0)
(1.40020289943 -0.00234971813635 0)
(1.39945872599 -0.00366333603173 0)
(1.39820043719 -0.00570063531432 0)
(1.39608074406 -0.00883275745899 0)
(1.39252797651 -0.0135710938999 0)
(1.38662860018 -0.0205431350399 0)
(1.37706562227 -0.0303516396507 0)
(1.36206350912 -0.0432845077388 0)
(1.3387858364 -0.0586505899451 0)
(0.99401165434 0.0192359371638 0)
(1.03484789711 0.0523330725474 0)
(1.09199187924 0.0723593278992 0)
(1.15661942765 0.0791193112687 0)
(1.22030680108 0.0760844575498 0)
(1.27698670598 0.0672988316728 0)
(1.32418048387 0.0560952911284 0)
(1.36170445237 0.0447174507587 0)
(1.39050594308 0.0344179880504 0)
(1.41198961014 0.0257346555299 0)
(1.42762966192 0.0187638156383 0)
(1.43876697062 0.0133673282881 0)
(1.44652874334 0.00930767443622 0)
(1.45181694079 0.00632640471616 0)
(1.45532902068 0.00418410154879 0)
(1.45759064469 0.00267685025837 0)
(1.45898989776 0.00163971502059 0)
(1.45980817603 0.000943846466322 0)
(1.46024600536 0.000491074023764 0)
(1.46044370343 0.000208051780351 0)
(1.46049749952 4.08441918177e-05 0)
(1.46047146927 -4.96148048476e-05 0)
(1.46040684308 -9.10879562044e-05 0)
(1.46032911249 -0.00010288479015 0)
(1.46025285554 -9.80439755851e-05 0)
(1.46018548592 -8.50732442242e-05 0)
(1.46012991956 -6.92616045672e-05 0)
(1.46008640718 -5.36689907265e-05 0)
(1.46005377525 -3.98661385003e-05 0)
(1.46003024006 -2.84796692372e-05 0)
(1.46001389463 -1.95672174508e-05 0)
(1.4600029718 -1.28866363527e-05 0)
(1.45999597266 -8.06033594977e-06 0)
(1.45999171112 -4.66968224821e-06 0)
(1.45998929528 -2.35111392297e-06 0)
(1.45998804602 -8.50428791016e-07 0)
(1.45998753152 5.85544725001e-08 0)
(1.45998744559 6.85244413817e-07 0)
(1.45998754873 1.14273739358e-06 0)
(1.45998773707 1.46988798044e-06 0)
(1.45998794424 1.72963068749e-06 0)
(1.45998813049 1.97033331368e-06 0)
(1.45998827296 2.22152497304e-06 0)
(1.45998835899 2.49937323778e-06 0)
(1.45998838248 2.81116705767e-06 0)
(1.45998834142 3.15834295165e-06 0)
(1.45998823658 3.53808633528e-06 0)
(1.45998807033 3.94345906928e-06 0)
(1.45998784266 4.36732750225e-06 0)
(1.45998755613 4.81371183243e-06 0)
(1.45998721759 5.27038624637e-06 0)
(1.45998683196 5.71166773072e-06 0)
(1.4599864035 6.09879387319e-06 0)
(1.45998593541 6.37440277554e-06 0)
(1.45998542814 6.4545670256e-06 0)
(1.45998487814 6.22075346325e-06 0)
(1.45998428246 5.51461175975e-06 0)
(1.4599836491 4.13784512388e-06 0)
(1.45998281182 1.88190174641e-06 0)
(1.45998124051 -1.52975451592e-06 0)
(1.45997855033 -6.91925715886e-06 0)
(1.45997421728 -1.57504997407e-05 0)
(1.4599669478 -2.95787385612e-05 0)
(1.45995464494 -5.07723961186e-05 0)
(1.45993385726 -8.30437412267e-05 0)
(1.45989886571 -0.000132000015657 0)
(1.45984022482 -0.000206177444971 0)
(1.4597424279 -0.000318651347042 0)
(1.4595800041 -0.000489639016251 0)
(1.45931229188 -0.000751148715656 0)
(1.45887399228 -0.00115089250981 0)
(1.45815908353 -0.00176105429341 0)
(1.45699742697 -0.00269041041903 0)
(1.45511924384 -0.00409808696459 0)
(1.45210330793 -0.0062069138833 0)
(1.44730689134 -0.00930733061472 0)
(1.43978544783 -0.0137295726376 0)
(1.42827665696 -0.0197499706559 0)
(1.41122776971 -0.0274316676977 0)
(1.38636899913 -0.0363344629592 0)
(0.993269796938 0.00617017470827 0)
(1.03158119249 0.0171017632807 0)
(1.08672061148 0.0239892953217 0)
(1.15173928051 0.0265571496954 0)
(1.21821736893 0.0258109572376 0)
(1.27921753967 0.0230364867853 0)
(1.33132403943 0.0193460335457 0)
(1.37364190977 0.0155181439146 0)
(1.40669552957 0.0120053908114 0)
(1.43170930381 0.00901478729844 0)
(1.45013929486 0.00659636352747 0)
(1.46339745642 0.00471357842006 0)
(1.47271966966 0.00329093317122 0)
(1.4791228449 0.00224247803605 0)
(1.48340939893 0.00148685218797 0)
(1.48619332662 0.000953862484121 0)
(1.48793323844 0.00058625125295 0)
(1.48896475423 0.000339025334246 0)
(1.48952887985 0.00017776057876 0)
(1.4897953807 7.66587717554e-05 0)
(1.48988136889 1.66935020415e-05 0)
(1.48986538855 -1.59657641297e-05 0)
(1.48979841266 -3.11463090322e-05 0)
(1.48971223496 -3.57019554249e-05 0)
(1.48962533389 -3.42661417794e-05 0)
(1.48954735983 -2.98647632423e-05 0)
(1.48948237101 -2.43838095739e-05 0)
(1.48943107372 -1.89212405175e-05 0)
(1.48939234429 -1.40473775643e-05 0)
(1.48936423841 -9.98820649125e-06 0)
(1.48934459847 -6.78113245081e-06 0)
(1.48933138612 -4.35051994398e-06 0)
(1.48932285436 -2.56916487609e-06 0)
(1.48931760233 -1.29569474923e-06 0)
(1.48931456687 -4.05353050838e-07 0)
(1.48931297408 2.05515241928e-07 0)
(1.48931228399 6.5248906344e-07 0)
(1.48931210953 9.63462076486e-07 0)
(1.48931219648 1.20666598547e-06 0)
(1.48931240855 1.42320430608e-06 0)
(1.4893126613 1.63985162324e-06 0)
(1.48931290399 1.87415883097e-06 0)
(1.48931310775 2.13741016781e-06 0)
(1.48931325672 2.43615261523e-06 0)
(1.48931334318 2.77353667725e-06 0)
(1.48931336438 3.15060521568e-06 0)
(1.4893133201 3.56689842931e-06 0)
(1.48931321066 4.01977528157e-06 0)
(1.48931303446 4.50371476189e-06 0)
(1.48931279007 5.01238717799e-06 0)
(1.48931247706 5.53183363908e-06 0)
(1.4893120925 6.04026339047e-06 0)
(1.48931162919 6.50546739217e-06 0)
(1.48931107312 6.87977634694e-06 0)
(1.4893103989 7.09352614883e-06 0)
(1.48930956209 7.04649383549e-06 0)
(1.48930849229 6.59492872685e-06 0)
(1.48930711901 5.52581965337e-06 0)
(1.48930534658 3.54047790815e-06 0)
(1.48930254568 5.19206167598e-07 0)
(1.48929773425 -3.75361705888e-06 0)
(1.48929004563 -1.04450338387e-05 0)
(1.48927793876 -2.07304924174e-05 0)
(1.48925854009 -3.59083691733e-05 0)
(1.48922729593 -5.80555159266e-05 0)
(1.48917691605 -9.01658157372e-05 0)
(1.48909557557 -0.000136495045583 0)
(1.48896408553 -0.00020319729428 0)
(1.48875082977 -0.000299983421619 0)
(1.48840684319 -0.000444088003357 0)
(1.48785558184 -0.000655464027741 0)
(1.48697408315 -0.000961233417414 0)
(1.48556901656 -0.00140152957761 0)
(1.48334190965 -0.00203168408175 0)
(1.47984046678 -0.00292284370118 0)
(1.4743980487 -0.00415746795736 0)
(1.46607205148 -0.00581204043593 0)
(1.45364428151 -0.00791833678842 0)
(1.43566851482 -0.0104183754934 0)
(1.41012099999 -0.013095128233 0)
(0.99327059362 -0.00616847145486 0)
(1.03158117148 -0.0171000734467 0)
(1.08672053932 -0.0239883672696 0)
(1.15173931107 -0.0265566866022 0)
(1.21821743986 -0.0258108455891 0)
(1.27921763487 -0.0230366597963 0)