/*--------------------------------*- C++ -*----------------------------------*\
| =========                 |                                                 |
| \\      /  F ield         | OpenFOAM: The Open Source CFD Toolbox           |
|  \\    /   O peration     | Version:  2106                                  |
|   \\  /    A nd           | Website:  www.openfoam.com                      |
|    \\/     M anipulation  |                                                 |
\*---------------------------------------------------------------------------*/
FoamFile
{
    version     2.0;
    format      ascii;
    arch        "LSB;label=32;scalar=64";
    class       surfaceScalarField;
    location    "0.071";
    object      phi;
}
// * * * * * * * * * * * * * * * * * * * * * * * * * * * * * * * * * * * * * //

dimensions      [0 3 -1 0 0 0 0];

oriented        oriented;

internalField   nonuniform List<scalar> 
799
(
1.78622e-32
4.57188e-32
5.8932e-32
4.81106e-32
2.28875e-32
-4.39187e-32
-1.03459e-31
-1.495e-31
-1.59711e-31
-1.22113e-31
-6.64813e-32
-4.37434e-33
3.39272e-32
4.3492e-32
2.1722e-32
-1.76976e-32
-6.87873e-32
-1.21347e-31
-1.61529e-31
-1.89367e-31
-1.81068e-31
-1.44804e-31
-8.34635e-32
-1.25231e-32
2.82359e-32
3.74975e-32
-4.01436e-33
-7.44929e-32
-1.40655e-31
-1.9312e-31
-1.95851e-31
-1.68444e-31
-1.22013e-31
-6.68787e-32
-4.19133e-32
-3.0767e-32
-4.79069e-32
-8.57567e-32
-1.15596e-31
-1.5226e-31
-1.61204e-31
-1.48698e-31
-1.25213e-31
-7.84831e-32
-5.32238e-32
-4.29061e-32
-5.87939e-32
-1.07733e-31
-1.47665e-31
-1.83934e-31
-1.85846e-31
-1.51982e-31
-1.08778e-31
-5.44474e-32
-3.00006e-32
-3.6121e-32
-6.91845e-32
-1.28232e-31
-1.73591e-31
-1.98696e-31
-1.85481e-31
-1.32278e-31
-7.01213e-32
-1.51345e-32
-2.26748e-33
-4.29558e-32
-1.16695e-31
-2.00152e-31
-2.4552e-31
-2.2794e-31
-1.56489e-31
-5.46611e-32
2.18649e-32
3.849e-32
-8.48462e-33
-1.02146e-31
-1.88527e-31
-2.33025e-31
-2.21374e-31
-1.61965e-31
-9.55573e-32
-4.63797e-32
-3.08373e-32
-4.56611e-32
-6.95938e-32
-9.53441e-32
-1.14725e-31
-1.32667e-31
-1.52773e-31
-1.6484e-31
-1.62677e-31
-1.3136e-31
-7.86075e-32
-2.50085e-32
7.83763e-33
-1.08695e-32
-6.92803e-32
-1.50881e-31
-2.20065e-31
-2.33254e-31
-1.97803e-31
-1.11854e-31
-2.08553e-32
3.25497e-32
4.17498e-32
-1.60258e-32
-9.5119e-32
-1.6874e-31
-2.12497e-31
-1.95331e-31
-1.51335e-31
-8.84173e-32
-4.16196e-32
-3.28883e-32
-4.41815e-32
-7.46584e-32
-9.13628e-32
-8.87289e-32
-7.58587e-32
-6.18385e-32
-7.1634e-32
-1.02005e-31
-1.43418e-31
-1.74121e-31
-1.72583e-31
-1.37796e-31
-7.83116e-32
-1.87387e-32
1.91853e-32
2.46536e-32
-5.18882e-33
-5.74634e-32
-1.18329e-31
-1.73562e-31
-2.0534e-31
-2.07991e-31
-1.7419e-31
-1.09969e-31
-3.61483e-32
2.87069e-32
5.40697e-32
3.15775e-32
-3.15607e-32
-1.1569e-31
-1.80469e-31
-2.06906e-31
-1.83358e-31
-1.23058e-31
-6.02814e-32
-1.69286e-32
-1.61056e-32
-5.06414e-32
-9.76137e-32
-1.34677e-31
-1.35181e-31
-1.02261e-31
-5.14359e-32
-9.68984e-33
-6.85812e-33
-4.68783e-32
-1.17968e-31
-1.84788e-31
-2.11709e-31
-1.80788e-31
-1.0058e-31
-1.12077e-32
4.68919e-32
3.89843e-32
-2.75167e-32
-1.17474e-31
-1.8824e-31
-1.9514e-31
-1.48753e-31
-7.12987e-32
-8.63057e-33
-2.22987e-33
-3.82147e-32
-1.07107e-31
-1.56733e-31
-1.58922e-31
-1.22715e-31
-5.17893e-32
-2.38334e-33
1.09975e-32
-1.81429e-32
-8.5588e-32
-1.41636e-31
-1.7818e-31
-1.70592e-31
-1.23642e-31
-6.84217e-32
-1.26337e-32
1.02285e-32
1.50012e-33
-3.02627e-32
-7.90481e-32
-1.16917e-31
-1.41441e-31
-1.45552e-31
-1.28307e-31
-1.02259e-31
-6.72759e-32
-3.40974e-32
-1.22169e-32
-5.65516e-33
-2.48903e-32
-6.46475e-32
-1.11081e-31
-1.47741e-31
-1.50918e-31
-1.16952e-31
-5.88951e-32
-1.7228e-33
1.92804e-32
-9.22895e-33
-7.70553e-32
-1.52337e-31
-1.89576e-31
-1.63547e-31
-8.09011e-32
2.20985e-32
8.89554e-32
7.9231e-32
-7.08419e-33
-1.35938e-31
-2.40398e-31
-2.65047e-31
-1.97709e-31
-6.11298e-32
7.3235e-32
1.42078e-31
1.17468e-31
4.46641e-33
-1.31543e-31
-2.30978e-31
-2.51888e-31
-1.81767e-31
-6.88174e-32
4.1099e-32
9.94365e-32
8.19464e-32
1.32295e-32
-7.76719e-32
-1.45649e-31
-1.62005e-31
-1.29513e-31
-6.52078e-32
-3.39897e-33
2.68938e-32
1.62485e-32
-2.10919e-32
-6.09707e-32
-7.28761e-32
-4.60779e-32
5.98844e-34
4.51593e-32
5.15066e-32
1.2174e-32
-4.82536e-32
-1.02034e-31
-1.0559e-31
-5.11816e-32
3.53468e-32
1.21418e-31
1.60207e-31
1.3938e-31
8.13928e-32
1.38637e-32
-2.11521e-32
-9.28659e-33
3.18064e-32
8.95452e-32
1.33218e-31
1.55985e-31
1.71868e-31
1.7815e-31
1.93047e-31
2.09599e-31
2.18116e-31
2.28807e-31
2.33864e-31
2.49724e-31
2.78145e-31
3.07778e-31
3.3769e-31
3.54601e-31
3.69471e-31
3.98718e-31
4.54176e-31
5.37594e-31
6.25321e-31
6.86231e-31
6.95959e-31
6.62143e-31
6.16674e-31
6.11263e-31
6.80911e-31
8.19212e-31
9.92688e-31
1.13521e-30
1.20855e-30
1.21027e-30
1.17265e-30
1.16324e-30
1.21655e-30
1.34442e-30
1.51627e-30
1.6765e-30
1.7991e-30
1.87031e-30
1.92113e-30
1.99087e-30
2.09756e-30
2.2502e-30
2.41696e-30
2.57272e-30
2.70539e-30
2.8146e-30
2.93432e-30
3.08228e-30
3.26986e-30
3.49104e-30
3.71102e-30
3.91595e-30
4.09148e-30
4.24938e-30
4.4249e-30
4.63269e-30
4.89521e-30
5.19658e-30
5.50491e-30
5.80052e-30
6.05124e-30
6.27503e-30
6.49686e-30
6.74735e-30
7.06893e-30
7.44956e-30
7.87634e-30
8.30578e-30
8.6853e-30
9.00023e-30
9.25343e-30
9.44824e-30
9.80338e-30
1.02682e-29
1.15604e-29
1.39167e-29
1.74662e-29
2.42777e-29
2.68968e-29
2.96211e-29
1.24877e-29
-3.03233e-29
-8.17544e-29
-1.874e-28
-1.78089e-28
-1.1734e-28
1.70639e-28
8.14835e-28
1.18017e-27
1.82263e-27
1.061e-27
-7.56883e-28
-3.03219e-27
-7.53859e-27
-7.20899e-27
-5.92666e-27
1.7527e-27
1.68807e-26
2.26723e-26
3.30531e-26
1.66526e-26
-1.36068e-26
-4.1003e-26
-9.04914e-26
-7.13182e-26
-4.21906e-26
3.15744e-26
1.54629e-25
1.6274e-25
1.92002e-25
5.43154e-26
-1.45596e-25
-2.41558e-25
-4.15707e-25
-2.3652e-25
-3.16392e-26
2.19158e-25
5.89199e-25
4.5516e-25
3.83038e-25
-3.708e-26
-5.43998e-25
-5.80045e-25
-7.54248e-25
-2.54574e-25
2.23632e-25
5.06852e-25
9.15297e-25
5.06863e-25
2.23648e-25
-2.5456e-25
-7.54243e-25
-5.80051e-25
-5.4401e-25
-3.7094e-26
3.83029e-25
4.55159e-25
5.89204e-25
2.19166e-25
-3.16335e-26
-2.36518e-25
-4.15709e-25
-2.41563e-25
-1.45601e-25
5.43117e-26
1.92e-25
1.6274e-25
1.54629e-25
3.15747e-26
-4.21909e-26
-7.13188e-26
-9.0492e-26
-4.1004e-26
-1.36075e-26
1.66517e-26
3.30522e-26
2.26715e-26
1.68799e-26
1.75201e-27
-5.92725e-27
-7.20949e-27
-7.53904e-27
-3.03266e-27
-7.57372e-28
1.06046e-27
1.82206e-27
1.17959e-27
8.14268e-28
1.70146e-28
-1.17752e-28
-1.78399e-28
-1.87643e-28
-8.19961e-29
-3.0609e-29
1.20966e-29
2.91477e-29
2.63912e-29
2.38134e-29
1.71298e-29
1.37167e-29
1.14804e-29
1.02356e-29
9.72987e-30
9.28979e-30
8.98386e-30
8.65407e-30
8.32279e-30
7.9812e-30
7.64872e-30
7.33443e-30
7.05229e-30
6.79455e-30
6.53765e-30
6.26052e-30
5.94873e-30
5.61127e-30
5.28359e-30
4.99258e-30
4.76486e-30
4.59353e-30
4.44906e-30
4.3056e-30
4.12715e-30
3.91579e-30
3.67912e-30
3.43748e-30
3.22238e-30
3.03972e-30
2.90314e-30
2.80121e-30
2.71407e-30
2.62459e-30
2.50569e-30
2.35262e-30
2.17527e-30
1.99615e-30
1.8495e-30
1.75775e-30
1.7146e-30
1.70141e-30
1.67496e-30
1.6002e-30
1.47812e-30
1.3154e-30
1.16324e-30
1.05781e-30
1.00959e-30
1.02323e-30
1.04678e-30
1.04944e-30
1.00382e-30
8.96852e-31
7.68043e-31
6.42951e-31
5.63155e-31
5.5031e-31
5.86241e-31
6.46812e-31
6.82685e-31
6.56998e-31
5.64397e-31
4.25011e-31
2.89062e-31
2.1159e-31
2.17278e-31
2.97999e-31
4.06706e-31
4.78251e-31
4.73385e-31
3.8271e-31
2.44741e-31
1.17139e-31
4.78142e-32
5.7644e-32
1.23861e-31
2.08974e-31
2.64868e-31
2.71747e-31
2.30345e-31
1.58961e-31
9.37642e-32
4.62009e-32
3.57326e-32
5.21201e-32
8.05129e-32
1.12536e-31
1.1906e-31
1.10556e-31
8.04377e-32
4.53673e-32
3.11034e-32
2.79666e-32
5.36402e-32
7.62292e-32
7.96229e-32
6.52401e-32
1.73168e-32
-2.06727e-32
-3.96685e-32
-2.77748e-32
2.18924e-32
6.53486e-32
9.54255e-32
8.99673e-32
5.01368e-32
9.52132e-33
-2.72534e-32
-3.91403e-32
-3.41913e-32
-3.25076e-32
-2.97045e-32
-3.25136e-32
-2.01468e-32
2.07539e-32
7.35001e-32
1.23535e-31
1.26413e-31
6.35497e-32
-4.39338e-32
-1.63896e-31
-2.22448e-31
-1.86261e-31
-6.39996e-32
1.06317e-31
2.28232e-31
2.51387e-31
1.55925e-31
-2.73764e-32
-1.97256e-31
-2.90814e-31
-2.53543e-31
-1.00198e-31
8.32201e-32
2.29237e-31
2.54939e-31
1.57026e-31
-7.99073e-33
-1.76369e-31
-2.52411e-31
-2.18771e-31
-9.7826e-32
5.75063e-32
1.58164e-31
1.80739e-31
1.17921e-31
6.94238e-33
-8.7529e-32
-1.45636e-31
-1.41981e-31
-9.76507e-32
-4.21485e-32
1.53002e-32
4.77104e-32
6.51687e-32
6.42689e-32
4.35812e-32
1.58408e-32
-2.54185e-32
-6.12676e-32
-8.71498e-32
-9.62886e-32
-8.25739e-32
-5.63003e-32
-1.69497e-32
2.04555e-32
5.28807e-32
6.82351e-32
6.03147e-32
3.27182e-32
-1.76318e-32
-6.36196e-32
-1.00614e-31
-1.10308e-31
-8.64404e-32
-5.08175e-32
5.16089e-34
3.59427e-32
5.35228e-32
5.57497e-32
3.00528e-32
2.49017e-33
-3.51407e-32
-6.85527e-32
-8.30572e-32
-8.62877e-32
-6.04712e-32
-2.34852e-32
1.56677e-32
4.72124e-32
5.04127e-32
3.45919e-32
-6.43231e-34
-3.94108e-32
-6.59973e-32
-7.71365e-32
-6.52591e-32
-3.92333e-32
-6.76666e-33
2.10287e-32
3.43688e-32
2.86059e-32
8.39585e-33
-1.63644e-32
-3.53498e-32
-3.54958e-32
-2.68573e-32
-1.29982e-32
-8.51133e-33
-2.14215e-32
-3.23962e-32
-3.91821e-32
-1.89493e-32
2.05397e-32
5.39922e-32
6.82321e-32
3.37414e-32
-2.75425e-32
-8.96821e-32
-1.19695e-31
-8.74146e-32
-1.64456e-32
6.84578e-32
1.16996e-31
1.02908e-31
3.87879e-32
-5.05752e-32
-1.09082e-31
-1.14352e-31
-6.38777e-32
1.64622e-32
7.62239e-32
9.4199e-32
5.69012e-32
-9.08798e-33
-6.38506e-32
-8.43365e-32
-5.21611e-32
7.19681e-33
6.27462e-32
8.74841e-32
6.03388e-32
2.39086e-33
-6.17293e-32
-1.01081e-31
-8.99567e-32
-4.04543e-32
3.1012e-32
9.36604e-32
1.16161e-31
9.84925e-32
4.25217e-32
-2.90725e-32
-8.51622e-32
-1.16167e-31
-1.05029e-31
-5.90252e-32
3.65456e-33
7.29544e-32
1.18247e-31
1.3047e-31
1.03239e-31
3.62421e-32
-4.18529e-32
-1.12203e-31
-1.4317e-31
-1.17677e-31
-4.62554e-32
5.2459e-32
1.33387e-31
1.63484e-31
1.29326e-31
4.07867e-32
-5.90538e-32
-1.27533e-31
-1.33417e-31
-7.3172e-32
2.10517e-32
1.05558e-31
1.4145e-31
1.10976e-31
3.51542e-32
-4.94738e-32
-1.02133e-31
-9.32729e-32
-3.60502e-32
4.63728e-32
1.11663e-31
1.23792e-31
8.95964e-32
1.56166e-32
-5.2844e-32
-8.13397e-32
-6.86699e-32
-6.34353e-33
5.8682e-32
1.01608e-31
1.10198e-31
6.78273e-32
1.6715e-32
-3.15443e-32
-5.38726e-32
-3.42319e-32
-1.06001e-33
4.40955e-32
7.49119e-32
8.05633e-32
7.25113e-32
4.81891e-32
2.62655e-32
1.32709e-32
6.12536e-33
8.26043e-33
1.07997e-32
9.094e-33
1.03717e-32
1.05934e-32
2.05135e-32
4.34576e-32
6.75031e-32
9.6796e-32
1.05503e-31
9.16796e-32
5.67074e-32
-1.20559e-33
-4.46966e-32
-7.03438e-32
-5.53141e-32
-1.64306e-33
6.26856e-32
1.26175e-31
1.4992e-31
1.34926e-31
8.3316e-32
1.98679e-32
-2.89443e-32
-4.92587e-32
-2.77672e-32
3.15521e-33
5.21626e-32
7.27926e-32
7.36698e-32
6.6899e-32
2.23297e-32
1.31753e-32
-1.90592e-32
-2.50273e-32
-4.86859e-33
)
;

boundaryField
{
    left
    {
        type            calculated;
        value           uniform 0;
    }
    right
    {
        type            calculated;
        value           uniform 0;
    }
    empty
    {
        type            empty;
        value           nonuniform List<scalar> 0();
    }
}


// ************************************************************************* //
