/*--------------------------------*- C++ -*----------------------------------*\
| =========                 |                                                 |
| \\      /  F ield         | OpenFOAM: The Open Source CFD Toolbox           |
|  \\    /   O peration     | Version:  2106                                  |
|   \\  /    A nd           | Website:  www.openfoam.com                      |
|    \\/     M anipulation  |                                                 |
\*---------------------------------------------------------------------------*/
FoamFile
{
    version     2.0;
    format      ascii;
    arch        "LSB;label=32;scalar=64";
    class       volScalarField;
    location    "0.285";
    object      p;
}
// * * * * * * * * * * * * * * * * * * * * * * * * * * * * * * * * * * * * * //

dimensions      [0 2 -2 0 0 0 0];

internalField   nonuniform List<scalar> 
11200
(
150.117432777
147.188831418
146.074981678
145.547652413
145.180325466
144.885550757
144.623911522
144.375378533
144.130866514
143.885805742
143.637499018
143.384191617
143.124651487
142.857943006
142.583299272
142.30004684
142.007559872
141.705232364
141.392465511
141.068671252
140.733225708
140.385479869
140.024775404
139.650444457
139.261801448
138.858145061
138.438759082
138.002913075
137.549863116
137.078852419
136.589111908
136.079860736
135.550306414
134.999645034
134.427061947
133.831732916
133.21282397
132.569491614
131.90088324
131.206137535
130.484384807
129.734747198
128.956338884
128.148266153
127.309627326
126.439512536
125.537003303
124.601171784
123.631079669
122.6257766
121.58429803
120.505662391
119.388867385
118.232885176
117.036656218
115.799081424
114.519012242
113.195238158
111.826470882
110.41132447
108.948290318
107.43570558
105.871712884
104.25421161
102.580791765
100.848648158
99.0544703521
97.1942983538
95.2633280383
93.2556446174
91.1638588757
88.9786111744
86.6877031636
84.2749485523
81.7182616931
78.9859828666
76.0305128563
72.77927706
69.0785551456
64.3153126176
148.324390614
146.966216971
146.175246633
145.675234279
145.284248801
144.960369899
144.675853255
144.411256336
144.155774621
143.903259652
143.649884063
143.393134222
143.13127304
142.863024006
142.58738665
142.303526121
142.010705001
141.70824046
141.395474048
141.071743847
140.736399745
140.388766194
140.0281995
139.654031511
139.265566216
138.862096575
138.442903541
138.007254853
137.554405294
137.083597094
136.594060178
136.085012147
135.555658645
135.005199412
134.432821755
133.83770145
133.219004257
132.575886641
131.907496002
131.2129711
130.491442391
129.742032235
128.963855127
128.156017781
127.317619083
126.447749911
125.54549274
124.609920941
123.640097727
122.63507464
121.593889514
120.515563749
119.399098735
118.243471209
117.047627307
115.810475003
114.530874512
113.207626192
111.839455259
110.424992667
108.962751305
107.451095949
105.888202898
104.2720092
102.600147189
100.869876184
99.0779807129
97.2206234205
95.2931649186
93.2899204264
91.203821032
89.0259104567
86.744641195
84.3448775017
81.8062242308
79.1001731128
76.1859261816
73.0056494533
69.4565528265
65.3437779898
147.329200239
146.675000322
146.122645761
145.685029991
145.31340899
144.991310935
144.70221561
144.431987109
144.171530396
143.915056549
143.658680534
143.399720613
143.136264697
142.866885767
142.590462709
142.306066867
142.012888588
141.710189275
141.397270624
141.073455756
140.738082619
140.390511644
140.029998787
139.655890386
139.267494334
138.864101035
138.444989138
138.009425295
137.556663987
137.085947671
136.596507147
136.087562269
135.558322098
135.007979191
134.43571578
133.840710004
133.222128782
132.579129089
131.91085917
131.216458619
130.49505875
129.745782864
128.967746551
128.16005782
127.321817127
126.452117266
125.550043048
124.614670697
123.645066907
122.640287509
121.599375619
120.521359104
119.405247269
118.250026524
117.054654829
115.818054609
114.539103782
113.216624542
111.849369067
110.436001518
108.975074897
107.465002376
105.904020042
104.290159026
102.621182026
100.894495367
99.1070574032
97.2552696392
95.334817969
93.3404638175
91.2657575936
89.1026365916
86.8410061298
84.4679505614
81.9667489752
79.3155414788
76.4863549569
73.447573874
70.1632197985
66.6102720123
146.779438995
146.41605814
146.01616129
145.647172747
145.309558625
145.001459479
144.716100157
144.445400975
144.183034541
143.924373828
143.666000764
143.405383775
143.140622986
142.870251081
142.593091943
142.308163019
142.014607974
141.711650605
141.398563779
141.074647566
140.73921104
140.391564047
140.03106537
139.656991846
139.268632745
138.86528034
138.446213033
138.010696239
137.557983315
137.0873157
136.597923036
136.08902338
135.559824056
135.009523357
134.437311092
133.842361746
133.223843194
132.580913165
131.912718914
131.218400495
130.497090026
129.747911824
128.96998292
128.162413181
127.324305399
126.454755271
125.552851177
124.617673715
123.648294929
122.643777144
121.603171304
120.525514843
119.409828769
118.255113828
117.060345622
115.824468441
114.546387287
113.224957616
111.85897253
110.44714649
108.988098052
107.480329716
105.922180368
104.31179092
102.64705984
100.925588453
99.1446015359
97.300847104
95.3904721252
93.4088667306
91.3504739743
89.2085645887
86.9749072034
84.6394600559
82.1901342386
79.6128319905
76.8928085808
74.0203566187
70.9990735295
67.8661373699
146.445391055
146.213596045
145.912184823
145.601209619
145.296372596
145.004352383
144.725380699
144.456259287
144.19330453
143.933226244
143.673263986
143.411180312
143.145182659
142.873821912
142.595901338
142.310403945
142.016437082
141.713191535
141.399911985
141.075875822
140.740378181
140.39272275
140.032213181
139.658138871
139.269802657
138.86648819
138.447468635
138.012006994
137.559355275
137.08875436
136.59943398
136.090612878
135.561498877
135.011288615
134.439168162
133.844313819
133.225891039
132.583057725
131.914964454
131.220751714
130.499554123
129.750498321
128.972703789
128.165283166
127.32734251
126.457981384
125.556292799
124.621362941
123.652270592
122.648086319
121.607871611
120.530676546
119.415537511
118.261474028
117.06748453
115.832540633
114.555579664
113.235498071
111.871138286
110.461280736
109.004622957
107.499752888
105.945133611
104.339070463
102.679669793
100.964789751
99.1919829137
97.3584274131
95.4608437496
93.4953977353
91.4575927041
89.3421642812
87.1430042505
84.8531939736
82.465312726
79.9723515646
77.3701144741
74.6630435555
71.87249824
69.0491721001
146.241998596
146.066097026
145.824903502
145.557579691
145.280395345
145.003760372
144.732074681
144.465577739
144.202817996
143.941815342
143.680534848
143.417109438
143.149913615
142.877556512
142.598845205
142.312741973
142.018324761
141.714754162
141.401247441
141.077058807
140.741464874
140.393753777
140.033216112
139.659142135
139.270821258
138.867532708
138.448546998
138.013125076
137.560517454
137.089963759
136.600692737
136.091922297
135.56285971
135.012701731
134.440635081
133.845837071
133.227476212
132.584712219
131.916696332
131.222572892
130.501477385
129.752537177
128.974873829
128.167602545
127.329832805
126.460668723
125.559208949
124.624546552
123.655768813
122.651956666
121.612183416
120.535513941
119.421002676
118.267691141
117.074604828
115.840749545
114.565107165
113.246625138
111.884212825
110.476721149
109.022934049
107.521558948
105.971212416
104.370378356
102.717389714
101.010396719
99.2473285919
97.4258517556
95.543326328
93.5967665438
91.5828163927
89.4977644875
87.3376446664
85.0985157516
82.7770930322
80.3720250258
77.8863794148
75.33231095
72.7367679049
70.1468452167
146.11888187
145.963274758
145.756974282
145.520414352
145.264942156
145.001666534
144.73705802
144.473554945
144.211428079
143.949849557
143.687485335
143.422858883
143.154540405
142.881221325
142.601729448
142.315017182
142.020139586
141.716230817
141.402482856
141.078127804
140.742423849
140.394644572
140.034071134
139.659985978
139.271670227
138.868398134
138.449437359
138.01404666
137.561475032
137.090961253
136.60173368
136.093010196
135.563998321
135.013895569
134.44188986
133.847159407
133.228873133
132.586191569
131.918266871
131.224242592
130.503254119
129.754432644
128.976904125
128.169788102
127.332198815
126.463245674
125.562033717
124.627663813
123.659232697
122.655832733
121.616551336
120.540470751
119.426666626
118.274206321
117.082146607
115.849530308
114.575381891
113.258706249
111.898478251
110.49363745
109.04308287
107.545654573
106.000123389
104.40517677
102.759402982
101.06127288
99.3091222281
97.5011373136
95.6353484614
93.709641276
91.7218016827
89.6696238927
87.551128614
85.364983266
83.1112570081
80.7927077388
78.4168842443
75.9993858353
73.5670890469
71.1593490816
146.044802271
145.894792704
145.708038549
145.491935583
145.25223283
144.999415833
144.740783889
144.480051773
144.218692055
143.956778308
143.693569652
143.427942638
143.158656728
142.884490654
142.60430088
142.317037544
142.021739137
141.717518318
141.403545541
141.07903364
140.743224653
140.395379238
140.034768441
139.660666678
139.272350219
138.869088326
138.450145897
138.014779649
137.562237213
137.09175658
136.602565708
136.093882418
135.564914405
135.014859427
134.442905577
133.848231548
133.230007089
132.587393193
131.919542996
131.225602955
130.504714667
129.756011418
128.978619871
128.171663065
127.334259973
126.46552587
125.564572901
124.630510508
123.662445809
122.659483929
121.620728274
120.54527982
119.432236932
118.280694697
117.089743886
115.858469591
114.585949235
113.271248937
111.913420901
110.511496786
109.064485352
107.571366989
106.031087224
104.442549205
102.804608579
101.116069995
99.3756880594
97.5821769491
95.7342352187
93.8305979729
91.8701331102
89.8520109537
87.7759857838
85.6428698967
83.455277226
81.2187418008
78.9432998519
76.6455571954
74.3501952363
72.0892213665
146.002525984
145.853078898
145.676664923
145.472929374
145.243400351
144.997696629
144.743342248
144.484710405
144.224011078
143.961925218
143.6981369
143.431788235
143.161787669
142.88698653
142.606268053
142.318584028
142.022962404
141.718500639
141.40435339
141.079719101
140.743827611
140.395929689
140.03528867
139.661173954
139.272854343
138.869599111
138.45067005
138.015322136
137.562802037
137.092347184
136.603185265
136.094534093
135.56560158
135.015585876
134.443675636
133.849050369
133.230880919
132.588330056
131.920553315
131.226699263
130.505908241
129.757317174
128.98005775
128.173257399
127.336040173
126.46752756
125.566839273
124.633093996
123.665410106
122.66290633
121.624702317
120.549919156
119.43767975
118.287109015
117.097333873
115.867482985
114.596686243
113.284074687
111.928779882
110.529932928
109.086662469
107.598094809
106.063354066
104.481563449
102.851849877
101.17335306
99.4452425054
97.6667470049
95.8372035083
93.9561391966
92.0233995021
90.0393514734
88.0051903837
85.9234076271
83.7984499851
81.6376136013
79.4521488953
77.2584684921
75.0786185736
72.9387785095
145.983249631
145.833372388
145.661411101
145.463478388
145.238920805
144.996806504
144.744677094
144.487174848
144.226855313
143.964702589
143.700621376
143.433895908
143.163516566
142.888375845
142.607373064
142.319462006
142.023665607
141.719073483
141.404831946
141.080131739
140.744196137
140.396270568
140.035614127
139.661492912
139.273174388
138.869925103
138.45100591
138.015671073
137.563166843
137.092730533
136.603589808
136.09496268
135.566057434
135.016072773
134.444198093
133.849613857
133.231492079
132.588996852
131.921284868
131.227506067
130.506805201
129.758321568
128.981190146
128.174542679
127.337508574
126.469215829
125.568792021
124.635365368
123.668065829
122.666026219
121.628383334
120.554279042
119.442861444
118.293286059
117.104717071
115.87632866
114.607306367
113.296847961
111.944166124
110.548491833
109.109073342
107.625184001
106.096127337
104.521245448
102.899932432
101.231654133
99.5159779765
97.7526173623
95.9414974359
94.0828556874
92.1773845771
90.2264534626
88.2324029107
86.1989864925
84.1319121
82.0395254764
79.9335506261
77.8297427502
75.7477940355
73.7096299325
145.98325232
145.833388561
145.661438217
145.463514734
145.23896561
144.996858928
144.744736223
144.487239855
144.226925495
143.964777369
143.700700291
143.433978599
143.163602766
142.888465367
142.607465789
142.319557894
142.023764664
141.719175768
141.404937571
141.080240865
140.744308983
140.396387433
140.035735404
139.661619116
139.273306208
138.870063271
138.451151348
138.015824923
137.563330494
137.092905531
136.603778174
136.095166867
135.566280415
135.016318154
134.444470241
133.849918053
133.231834701
132.589385649
131.921729419
131.228018304
130.507399147
129.759014235
128.982002291
128.17549956
127.338640869
126.470560781
125.570394841
124.63728094
123.670360782
122.668781439
121.631696988
120.558270276
119.447674866
118.299097174
117.111738837
115.884819358
114.617579102
113.309282389
111.959223316
110.566732663
109.13117652
107.651972912
106.128600738
104.560614041
102.947662786
101.289519609
99.5861173121
97.8376054272
96.0444296806
94.2074406465
92.3280712105
90.4086161354
88.4521893512
86.4634152975
84.4488099588
82.4172754783
80.3805985378
78.3537974775
76.3547767214
74.4026306566
146.002534102
145.853127783
145.676746871
145.47303915
145.24353561
144.997854668
144.743520272
144.484905953
144.224222059
143.962149911
143.698373924
143.432036519
143.162046419
142.887255194
142.606546293
142.318871702
142.023259542
141.71880743
141.404670168
141.080046348
140.744165991
140.396280083
140.035652229
139.661552235
139.273249312
138.870012953
138.451105484
138.015782491
137.563291354
137.092870343
136.603748229
136.095144098
135.566267421
135.016318261
134.444487603
133.849957801
133.231903139
132.58949049
131.921880045
131.228226099
130.507677938
129.759380868
128.982477276
128.176107822
127.33941268
126.471532893
125.571611874
124.638797062
123.672241747
122.67110704
121.634564033
120.561796195
119.452002103
118.30439851
117.118223811
115.892742068
114.627247687
113.321070659
111.973582764
110.584206803
109.152430972
107.677807783
106.159980956
104.598702191
102.993856768
101.34550106
99.6539238986
97.9197071698
96.1437379513
94.3273927182
92.4726447361
90.582184868
88.6599896774
86.7113147872
84.7431516717
82.764654236
80.7874963854
78.8260832633
76.8971333806
75.0180885574
146.044816005
145.894875415
145.708176974
145.492120626
145.252460385
144.99968122
144.741082349
144.480379173
144.219044914
143.95715377
143.693965434
143.428356973
143.159088309
142.884938584
142.604764617
142.317516863
142.022234096
141.718029239
141.404072984
141.079578423
140.743787903
140.395962432
140.035373397
139.661296036
139.273006863
138.869776012
138.450869131
138.01554389
137.563049102
137.092624159
136.603498742
136.094892748
135.566016415
135.016070585
134.444247092
133.849729263
133.231692536
132.589305153
131.921728929
131.228120114
130.507630384
129.75940793
128.982598655
128.176347472
127.339799711
126.472102666
125.572407329
124.639870337
123.673656128
122.67293931
121.636907317
120.564763424
119.455730195
118.309053414
117.124006594
115.899896202
114.636067866
113.331913662
111.986880151
110.600480206
109.172304067
107.70203976
106.189487061
104.634585878
103.037450842
101.398394214
99.7179690226
97.9970375993
96.2369217704
94.4394342391
92.6070293664
90.742968838
88.8515614226
86.9384087347
85.0107295426
83.0776961958
81.1507497796
79.2438368932
77.3730909606
75.5554275258
146.11890159
145.963393431
145.75717225
145.52067806
145.265265415
145.002042466
144.737479785
144.47401669
144.211924928
143.950377539
143.688041292
143.423440385
143.155145658
142.881849105
142.602379023
142.315688247
142.020832218
141.716945444
141.403220231
141.078889024
140.743210444
140.395458615
140.034915262
139.660863606
139.272585386
138.869355923
138.450443957
138.015109538
137.562603263
137.092165875
136.603028122
136.094410795
135.56552494
135.01557219
134.443745206
133.849228247
133.23119783
132.588823488
131.921268597
131.227691293
130.507245518
129.759082175
128.982350447
128.176199217
127.339778631
126.472241835
125.572746936
124.6404592
123.674553494
122.67421705
121.638652588
120.567081896
119.458749939
118.312929591
117.128927081
115.906088366
114.643806676
113.341531552
111.998779349
110.615145158
109.190319507
107.724106587
106.216445049
104.66743459
103.077366769
101.446782609
99.7765161668
98.0677501426
96.3220956825
94.5416946155
92.729345188
90.8886472854
89.0241823039
87.1417240443
85.2485016307
83.3534988315
81.4677950017
79.6049595133
77.7810035661
76.0133371983
146.242024952
146.066255351
145.825166195
145.557927832
145.280820178
145.004252503
144.732625046
144.466178728
144.203463358
143.942500033
143.681254891
143.417861788
143.150696039
142.878367489
142.599683825
142.31360785
142.019217947
141.715675085
141.402196851
141.078037766
140.742474709
140.394796411
140.034296013
139.660265155
139.271991995
138.868756921
138.449832102
138.014480141
137.561953538
137.091494463
136.602334763
136.093696129
135.564790408
135.014820012
134.442978414
133.848450739
133.230414439
132.588040155
131.920492625
131.226931682
130.506513376
129.758391163
128.981717278
128.175644258
127.339326642
126.471922895
125.572597578
124.640523768
123.674885788
122.674882301
121.639729862
120.568666999
119.460958888
118.315902787
117.132834332
115.911134988
114.650240876
113.349652959
112.008949117
110.62779869
109.205979518
107.74339857
106.240117195
104.696381776
103.11265887
101.489676958
99.8284793189
98.130487706
96.397576738
94.6321591543
92.8372897896
91.0167859244
89.1753711559
87.3188358151
85.4542407415
83.5901793895
81.7371657082
79.9082798882
78.1195531085
76.3896595366
146.445424719
146.213798875
145.912518724
145.601649196
145.296905834
145.004966955
144.726065167
144.457004277
144.194102482
143.934071142
143.674151135
143.412106153
143.146144634
142.874818332
142.596931284
142.311467164
142.017533861
141.714322534
141.401078038
141.077077985
140.741617998
140.394001364
140.033532635
139.659512542
139.271234492
138.867983935
138.449036495
138.013657246
137.561100483
137.090609701
136.601417751
136.092747139
135.563810459
135.013810848
134.441942554
133.847391584
133.229336398
132.586948734
131.919394527
131.22583493
130.505427574
129.757327942
128.980690852
128.174672021
127.338429883
126.471127648
125.571935596
124.640033689
123.67461455
122.674886865
121.64007937
120.569445303
119.462267594
118.317864927
117.135598781
115.914881637
114.655186001
113.356057013
112.01712565
110.638124473
109.2189067
107.759468748
106.259976771
104.72079832
103.142539787
101.52609077
99.8726747542
98.183908304
96.4618701095
94.7091776667
92.9290724448
91.1255121759
89.3032710596
87.4680458042
85.6265874168
83.786889894
81.9585741011
80.1537936496
78.388064072
76.6812401007
146.779479991
146.416309145
146.016568921
145.647704155
145.310197839
145.002190764
144.716909588
144.446277473
144.183969334
143.925360031
143.667033079
143.406458253
143.141736872
142.87140271
142.59428069
142.309389298
142.015873254
141.712957344
141.399914939
141.076047003
140.740667847
140.393093893
140.032641099
139.658616764
139.270320687
138.867042614
138.448061274
138.012644029
137.560046718
137.089513883
136.600279178
136.091565766
135.562586736
135.012545645
134.440637174
133.846047949
133.227957364
132.585538134
131.91795738
131.224377875
130.503959318
129.755858735
128.979233065
128.17324065
127.337043084
126.469807392
125.570708497
124.63893204
123.673677617
122.674162254
121.639624526
120.569329626
119.462574973
118.318696693
117.137077238
115.917154496
114.658433053
113.360495177
112.023015615
110.645779155
109.228700866
107.771849856
106.275477214
104.74004887
103.166283896
101.555199022
99.9081592563
98.2269346416
96.5137627126
94.7714154228
93.0032683698
91.2133681584
89.4064910024
87.5881882208
85.7648237049
83.9436142986
82.1328618107
80.3429463659
78.5870826183
76.8839212872
147.329253358
146.675313652
146.123137148
145.685658557
145.314155084
144.992155545
144.703142585
144.432983904
144.172587181
143.916165615
143.659835906
143.400917717
143.137500126
142.868157091
142.591768364
142.3074062
142.014262218
141.711599945
141.398723463
141.074957323
140.739633376
140.392081398
140.031622446
139.657576296
139.269247486
138.865929015
138.446902152
138.011436126
137.55878824
137.088204025
136.598917861
136.090153534
135.561124713
135.01103551
134.439081097
133.84444824
133.2263155
132.58385678
131.916240167
131.222629063
130.502183588
129.754062979
128.977426089
128.171433387
127.335249041
126.468043178
125.568994436
124.637292865
123.672143212
122.672768924
121.638416674
120.568361236
119.461911452
118.318417195
117.137277423
115.917949506
114.659960102
113.362919762
112.026536808
110.650635729
109.235178513
107.780289573
106.286284849
104.753705578
103.183357134
101.576353301
99.9341658921
98.2586787991
96.5522451311
94.8177503887
93.05866793
91.2791078993
89.4838432054
87.6783026839
85.8685032101
84.0608323812
82.2619502016
80.4794147415
78.7203385947
76.9934115057
148.324491183
146.966675916
146.175930748
145.676090644
145.285254335
144.961503802
144.677098523
144.412599903
144.157206266
143.904771316
143.651469381
143.394788092
143.132991213
142.864802677
142.589222056
142.305414157
142.012640695
141.710217149
141.397486285
141.073799469
140.73849708
140.390929785
140.030445624
139.656361193
139.267984798
138.864612818
138.445528167
138.009999083
137.557284492
137.086631475
136.597275031
136.088439283
135.559338178
135.009176111
134.437148633
133.842443409
133.224241715
132.581716642
131.914036315
131.220364983
130.499863951
129.751692972
128.97501192
128.168982665
127.332771092
126.46554941
125.566498778
124.634812322
123.669698611
122.670385593
121.636125083
120.566198171
119.459921367
118.316653792
117.135805607
115.916848037
114.659325136
113.362865785
112.027201125
110.652182956
109.237805498
107.784230825
106.291818435
104.761159458
103.193115856
101.588864852
99.9499481499
98.2783236276
96.5764179026
94.847204984
93.094232617
91.3216693809
89.5343201901
87.7376023714
85.9374127046
84.1396177092
82.3497468793
80.5725627058
78.8028677371
77.0111426431
150.117599856
147.189502862
146.075976495
145.548908278
145.181812177
144.887243668
144.625792063
144.377433144
144.133085272
143.888181595
143.640027259
143.38686955
143.12747832
142.860919883
142.58642939
142.303335501
142.01101439
141.708861415
141.396274001
141.072644682
140.737368311
140.389804885
140.029285459
139.655144831
139.26670086
138.863254343
138.444091443
138.008487085
137.555699036
137.084972814
136.59554344
136.086635193
135.557462088
135.007228556
134.435130134
133.840354205
133.222080931
132.579484363
131.911733285
131.217992279
130.497423053
129.749185976
128.972441646
128.166352733
127.330086059
126.462814949
125.563721899
124.632001626
123.666864588
122.667540988
121.633285459
120.563382468
119.457152522
118.313959509
117.133219257
115.914409571
114.657081996
113.360875598
112.025533173
110.650920196
109.237047061
107.784094959
106.292445946
104.762717621
103.19580267
101.592913465
99.9556315912
98.2859645935
96.5864089107
94.85997004
93.1102531242
91.3414956226
89.5585867851
87.7670450784
85.9729165834
84.1826995275
82.4028159854
80.6380521957
78.8679548443
76.9680444459
56.9211279508
53.3690733268
50.9776635008
49.0203168767
47.3484035753
45.891760049
44.6064006903
43.462608719
42.438694447
41.5178895093
40.686763231
39.9342864356
39.2512360127
38.6297954711
38.0632726059
37.5458910844
37.0726322795
36.6391112995
36.2414785386
35.8763394974
35.5406891541
35.2318575071
34.9474645383
34.6853817795
34.4437000269
34.2207018087
34.0148383424
33.8247092235
33.6490452141
33.4866933432
33.3366040081
33.1978195993
33.069464688
32.9507369448
32.8408995824
32.7392741603
32.6452336557
32.5581951057
32.477611968
32.4029662966
32.333799594
32.2698621683
32.2109768489
32.1566067538
32.106302768
32.0597132105
32.0165681123
31.9766153241
31.9396167836
31.9053540761
31.8736434369
31.8442812293
31.8170736414
31.7918538368
31.7684703919
31.7467751413
31.7266231034
31.707886272
31.6904474757
31.6741979369
31.6590381787
31.6448770779
31.6316298669
31.6192177736
31.6075681401
31.5966140304
31.5862937616
31.576550676
31.5673326641
31.5585916297
31.5502834278
31.5423676171
31.5348070302
31.5275674244
31.5206174669
31.5139281646
31.5074740126
31.5012314641
31.4951789239
31.4892964117
31.483565889
31.4779707889
31.4724959982
31.467127673
31.4618534755
31.4566620233
31.4515430537
31.4464872369
31.4414861756
31.4365317768
31.4316166205
31.4267337393
31.4218770953
31.417040954
31.4122204099
31.4074100488
31.402603989
31.3977974272
31.3929872536
31.3881682287
31.3833333954
31.3784824544
31.3736168857
31.3687428966
31.3638681453
31.3589774398
31.3540618811
31.3491678426
31.3442380356
31.3392611156
31.3342316108
31.3291461166
31.3240010783
31.3187941113
31.3135218343
31.3081799426
31.302763923
31.297268638
31.2916814585
31.285976023
31.2800932042
31.2740024856
31.2682518734
31.2626026359
31.2570702156
31.2512623617
31.2452998905
31.2392475503
31.2331583113
31.2270478651
31.2209362082
31.2148546243
31.2088400199
31.2029274516
31.1971527646
31.1915481573
31.1861365067
31.1809322379
31.1759130204
31.1710170454
31.1663953666
31.1616018152
31.1565212364
31.1504835552
31.141816384
31.12641292
31.0945294777
31.0250187323
30.8772179778
30.5811250748
30.0319652601
29.0973053108
27.6446736263
25.5810635046
22.8797871881
19.5962024386
15.8483588944
11.6044027517
6.58911598426
1.56576085434
60.1024998213
56.0496983445
53.3377585796
51.1854907891
49.3836888554
47.83395092
46.478058782
45.2787678541
44.2098845359
43.2517541794
42.389012753
41.6092938683
40.902421878
40.2598908998
39.6744983383
39.1400866402
38.6513462975
38.2036693176
37.7930301481
37.4158969305
37.0691512448
36.7500338931
36.4560871662
36.1851203102
35.9351683608
35.7044671883
35.4914263314
35.2946086047
35.1127115603
34.9445528445
34.7890555296
34.6452384389
34.5122032636
34.3891290022
34.2752612312
34.1699094341
34.0724382832
33.982264989
33.8988571103
33.8217295327
33.7504266951
33.6844588205
33.6233558371
33.5667939763
33.514473519
33.4660875451
33.4213375032
33.3799456217
33.3416521359
33.3062162306
33.2734089999
33.2430259023
33.2148787928
33.1887908543
33.1645918678
33.1421327126
33.1212778098
33.1018993953
33.0838758185
33.0671000133
33.0514664021
33.03687598
33.023239065
33.0104732339
32.9985028752
32.9872582588
32.9766747935
32.9666938863
32.9572606534
32.9483256087
32.9398421118
32.9317685685
32.9240656055
32.9166983764
32.9096342186
32.9028445748
32.8963005906
32.889977955
32.8838536043
32.8779072796
32.8721189649
32.8664731712
32.860951443
32.8555426038
32.8502301435
32.8450055054
32.8398552204
32.8347719235
32.8297444352
32.8247660397
32.8198263763
32.8149208848
32.8100396256
32.8051797616
32.8003321275
32.7954942033
32.7906584791
32.785832372
32.781005755
32.7761762282
32.7713476345
32.7665124192
32.7616592705
32.75677394
32.7518413558
32.7468699522
32.7418584826
32.7368005418
32.7317037117
32.7265706916
32.7213976927
32.7161793291
32.710914517
32.7055970335
32.7002291436
32.6948031197
32.6893198071
32.6837745332
32.6781669576
32.6725001988
32.6667886698
32.6610281782
32.6552344386
32.6493190886
32.6430652162
32.6369709685
32.6309329314
32.6248294679
32.6187318168
32.6126501089
32.606599288
32.6006215922
32.5947620121
32.5890660097
32.5835824111
32.5783544261
32.5734134269
32.568798208
32.5644932236
32.5605207685
32.556811701
32.5531560044
32.5492152129
32.5441140336
32.5356551314
32.5187552413
32.4816814599
32.400008606
32.2280898075
31.8895774135
31.273611014
30.2448102476
28.6738548345
26.4775855398
23.6411977857
20.2245671997
16.3437228753
11.9819420889
6.87776846452
1.69913644988
62.3099395991
58.3765109738
55.5094185879
53.2255973043
51.3237975747
49.6975470121
48.2818068369
47.034549761
45.9263332283
44.9352749678
44.0444539341
43.2403956572
42.5121238823
41.8505460018
41.2480244776
40.6980751643
40.1951404662
39.7344218816
39.3117454531
38.9234621914
38.5663599078
38.2376028355
37.9346701782
37.6553175508
37.397534536
37.1595171547
36.9396400202
36.7364347841
36.5485708676
36.3748405041
36.2141433372
36.0654768003
35.9279228233
35.8006421419
35.6828633548
35.5738790218
35.4730372365
35.3797371313
35.2934234915
35.213583611
35.1397520579
35.0714914155
35.0081849026
34.9495617068
34.8953719368
34.8452667209
34.798926545
34.7560642249
34.7164127924
34.679727422
34.6457800092
34.6143589788
34.5852663744
34.5583195447
34.5333425389
34.5101746475
34.4886725129
34.4687038599
34.4501411222
34.4328652696
34.416768518
34.4017548607
34.3877326037
34.3746166617
34.3623284396
34.3507956514
34.3399512323
34.3297341897
34.320087431
34.3109594164
34.3023017557
34.2940710381
34.286226312
34.2787310357
34.2715499502
34.264652669
34.2580110825
34.2516003906
34.2453960885
34.2393777234
34.233523977
34.2278191258
34.2222437833
34.2167864714
34.2114302485
34.2061657571
34.200979267
34.1958626491
34.1908050533
34.1858003901
34.1808381735
34.1759142358
34.1710186059
34.1661464203
34.1612907654
34.1564496388
34.151615318
34.1467763212
34.1419317916
34.1370765931
34.132195355
34.1272906254
34.1223600201
34.1173923557
34.1124083909
34.1074017411
34.1023667904
34.0972984948
34.0921919902
34.0870438592
34.0818502766
34.0766066473
34.07131319
34.0659632555
34.0605589586
34.0550943891
34.0495709473
34.0439835974
34.0383324395
34.0326180412
34.0268462992
34.0210123768
34.015121062
34.0091642216
34.0032105477
33.9971890536
33.9911705152
33.9848938376
33.9787102837
33.9726165301
33.966605365
33.9607155734
33.9549947996
33.9494946514
33.9442741069
33.9393896375
33.9348956761
33.9308432538
33.9271979201
33.9239901819
33.921170038
33.9184965918
33.9155165705
33.9110983053
33.9024716977
33.8835176532
33.8404757492
33.7456441182
33.5485766532
33.1670715452
32.4850004688
31.3649858133
29.6813155964
27.3599709057
24.396279486
20.8528134172
16.8422735883
12.3623254703
7.16623652801
1.83037314355
64.114128325
60.3894526972
57.4855435877
55.1304950893
53.1605916736
51.4764952866
50.0130348339
48.726316021
47.5850699976
46.5659499748
45.6509184046
44.8256650283
44.0785911462
43.4001397797
42.7823255531