/*--------------------------------*- C++ -*----------------------------------*\
| =========                 |                                                 |
| \\      /  F ield         | OpenFOAM: The Open Source CFD Toolbox           |
|  \\    /   O peration     | Version:  2106                                  |
|   \\  /    A nd           | Website:  www.openfoam.com                      |
|    \\/     M anipulation  |                                                 |
\*---------------------------------------------------------------------------*/
FoamFile
{
    version     2.0;
    format      ascii;
    arch        "LSB;label=32;scalar=64";
    class       surfaceScalarField;
    location    "0.13";
    object      phi;
}
// * * * * * * * * * * * * * * * * * * * * * * * * * * * * * * * * * * * * * //

dimensions      [0 3 -1 0 0 0 0];

oriented        oriented;

internalField   nonuniform List<scalar> 
18840
(
3.37543041483e-05
1.62456958536e-05
2.25359627343e-05
1.12183421668e-05
1.63023784096e-05
6.2335842831e-06
1.2809825113e-05
3.49255278154e-06
1.0806579936e-05
2.00324528851e-06
9.60476911046e-06
1.2018109771e-06
8.85167830746e-06
7.53090567812e-07
8.36503029798e-06
4.86647931624e-07
8.04518568867e-06
3.19844650397e-07
7.83374148607e-06
2.11444170774e-07
7.69428163495e-06
1.39459895251e-07
7.6030802537e-06
9.12014787361e-08
7.54426590354e-06
5.88144610825e-08
7.50707853092e-06
3.71874852787e-08
7.48419194109e-06
2.28866644523e-08
7.47062837441e-06
1.35635915742e-08
7.46302854649e-06
7.59979312402e-09
7.45914942059e-06
3.87907553439e-09
7.4575143934e-06
1.6349898492e-09
7.45716713384e-06
3.47224535335e-10
7.45751139327e-06
-3.4425173716e-10
7.45817056035e-06
-6.59113996173e-10
7.45893165796e-06
-7.61038308708e-10
7.45967530631e-06
-7.43615672871e-10
7.4603423822e-06
-6.67093143341e-10
7.46090993213e-06
-5.6760236686e-10
7.4613754583e-06
-4.65570246084e-10
7.46174704413e-06
-3.71566456845e-10
7.462037345e-06
-2.90215041484e-10
7.46226014666e-06
-2.226935758e-10
7.46242857611e-06
-1.68326997029e-10
7.46255420602e-06
-1.25551564177e-10
7.4626467656e-06
-9.24948100971e-11
7.46271416902e-06
-6.73335816151e-11
7.46276265933e-06
-4.84386676929e-11
7.46279708349e-06
-3.44141470607e-11
7.4628211723e-06
-2.41189673299e-11
7.46283776167e-06
-1.66504382404e-11
7.46284897111e-06
-1.12838727126e-11
7.46285637347e-06
-7.46123311502e-12
7.46286115171e-06
-4.8052811576e-12
7.46286417276e-06
-3.03957707618e-12
7.46286604771e-06
-1.89900799308e-12
7.46286704643e-06
-1.00185182402e-12
7.46286756702e-06
-4.94932031964e-13
7.4628678055e-06
-1.9078063663e-13
7.46286789255e-06
-1.15219907962e-14
7.46286793599e-06
4.33588725013e-14
7.46286797089e-06
2.63502555664e-14
7.46286801919e-06
-2.2325589023e-14
7.46286809167e-06
-7.22089085207e-14
7.46286819139e-06
-1.17940205704e-13
7.46286832311e-06
-1.73853281414e-13
7.46286847475e-06
-2.38357698186e-13
7.46286864259e-06
-2.90622652905e-13
7.46286886102e-06
-3.4593389025e-13
7.46286914148e-06
-4.27502901711e-13
7.46286945962e-06
-5.04481295155e-13
7.46286981932e-06
-5.57200124837e-13
7.46287023795e-06
-5.90819297414e-13
7.46287071359e-06
-6.1721780838e-13
7.46287123742e-06
-6.51095298442e-13
7.46287180496e-06
-6.99534630598e-13
7.46287242032e-06
-7.55143682945e-13
7.46287311018e-06
-8.06979510398e-13
7.46287389422e-06
-8.41427373947e-13
7.46287474658e-06
-8.46118108316e-13
7.46287565166e-06
-8.38884356675e-13
7.46287661354e-06
-8.548987238e-13
7.46287759355e-06
-8.88399814835e-13
7.46287858395e-06
-9.20165407916e-13
7.46287962857e-06
-9.62020869077e-13
7.46288073036e-06
-1.01458084394e-12
7.46288188274e-06
-1.06017328868e-12
7.46288307885e-06
-1.08644875717e-12
7.46288428065e-06
-1.09862083482e-12
7.46288548635e-06
-1.14661280145e-12
7.46288672011e-06
-1.23912965738e-12
7.4628879865e-06
-1.29005607763e-12
7.46288931396e-06
-1.28311775515e-12
7.46289070786e-06
-1.31608065745e-12
7.46289210713e-06
-1.41361976024e-12
7.46289350454e-06
-1.49168275923e-12
7.46289499156e-06
-1.51636029738e-12
7.46289659744e-06
-1.55777272785e-12
7.46289825914e-06
-1.66202666515e-12
7.4628999784e-06
-1.75678030868e-12
7.46290179699e-06
-1.76613365204e-12
7.46290370218e-06
-1.77063084172e-12
7.4629056492e-06
-1.86960801794e-12
7.46290760168e-06
-1.97361248755e-12
7.46290960465e-06
-2.00313075734e-12
7.46291172387e-06
-2.05679490158e-12
7.46291390343e-06
-2.1683424549e-12
7.46291611819e-06
-2.2554990749e-12
7.46291851517e-06
-2.33592060819e-12
7.4629211362e-06
-2.44420432662e-12
7.46292385602e-06
-2.54849024958e-12
7.46292666803e-06
-2.70241493138e-12
7.46292964521e-06
-2.94191935978e-12
7.46293284416e-06
-3.1687831366e-12
7.46293639072e-06
-3.44195355275e-12
7.46294037301e-06
-3.85524548489e-12
7.4629447964e-06
-4.33674787967e-12
7.46294976941e-06
-4.92115936665e-12
7.46295551537e-06
-5.74195310354e-12
7.46296218473e-06
-6.77214146245e-12
7.46296989645e-06
-7.90506113727e-12
7.46297898272e-06
-9.14848205615e-12
7.4629899469e-06
-1.07895451999e-11
7.4630031101e-06
-1.31004927368e-11
7.46301880298e-06
-1.59797920893e-11
7.46303779822e-06
-1.93273942618e-11
7.46306108683e-06
-2.33958395418e-11
7.46308960662e-06
-2.85316599989e-11
7.46312443635e-06
-3.48718711958e-11
7.46316718007e-06
-4.26687934168e-11
7.46321984562e-06
-5.26001841839e-11
7.46328456993e-06
-6.49225385139e-11
7.46336434006e-06
-7.99478509335e-11
7.46346294293e-06
-9.85953424785e-11
7.4635846025e-06
-1.21770772936e-10
7.46373527203e-06
-1.50790617715e-10
7.46392442735e-06
-1.89056486536e-10
7.464158218e-06
-2.33536467087e-10
7.46444458576e-06
-2.86278348629e-10
7.46479840178e-06
-3.53939217015e-10
7.46523663063e-06
-4.38226458951e-10
7.46577940897e-06
-5.42871121312e-10
7.46645149926e-06
-6.72279850897e-10
7.46728409055e-06
-8.32530864266e-10
7.46831555997e-06
-1.03120922009e-09
7.46959317858e-06
-1.27758740652e-09
7.47117574634e-06
-1.58282722226e-09
7.47313700058e-06
-1.9610678923e-09
7.47556790521e-06
-2.43048792344e-09
7.47858107316e-06
-3.01301545583e-09
7.48231757985e-06
-3.73621687746e-09
7.48695237409e-06
-4.63471385132e-09
7.49270370122e-06
-5.75155249669e-09
7.49984499001e-06
-7.14134390118e-09
7.50871774406e-06
-8.87289397889e-09
7.51975107438e-06
-1.10334779161e-08
7.53348544562e-06
-1.37344791889e-08
7.5506046035e-06
-1.71189491605e-08
7.57197839299e-06
-2.13731306352e-08
7.59871835265e-06
-2.67400111168e-08
7.63225871968e-06
-3.3540825681e-08
7.67446800677e-06
-4.2209368888e-08
7.72780861486e-06
-5.33407994243e-08
7.79558318282e-06
-6.77745522158e-08
7.8823323414e-06
-8.67494306248e-08
7.99456674644e-06
-1.12234787703e-07
8.14234329421e-06
-1.47776697004e-07
8.34328581679e-06
-2.00943240341e-07
8.63396815408e-06
-2.90682491597e-07
9.10377741253e-06
-4.69808713536e-07
1.00030249566e-05
-8.99247959496e-07
1.21062132965e-05
-2.10318850474e-06
-5.72747299727e-06
1.78336878367e-05
5.01388816081e-05
1.61068135776e-05
4.41591293086e-05
1.71980945672e-05
3.77598741237e-05
1.26328401365e-05
3.26495145079e-05
8.60291205444e-06
2.89465817539e-05
5.70617767646e-06
2.63676027514e-05
3.78079012772e-06
2.45938845487e-05
2.52680868076e-06
2.33783973242e-05
1.70213500625e-06
2.25473227913e-05
1.1509192614e-06
2.19811559113e-05
7.77611128555e-07
2.15978039967e-05
5.22811935681e-07
2.13405420581e-05
3.48463605317e-07
2.11699463715e-05
2.2941032514e-07
2.10585414609e-05
1.48592520204e-07
2.09871944976e-05
9.42336610552e-08
2.09426367285e-05
5.81213264722e-08
2.09157299529e-05
3.45064894313e-08
2.09002402252e-05
1.93687161336e-08
2.08919654228e-05
9.90976509006e-09
2.08881157261e-05
4.19694037531e-09
2.08868643076e-05
9.07227422852e-10
2.08870502232e-05
-8.4493266837e-10
2.08879519273e-05
-1.66268591249e-09
2.08891359234e-05
-1.92763204695e-09
2.08903564389e-05
-1.88767491384e-09
2.08914852079e-05
-1.69640606353e-09
2.08924654364e-05
-1.44575074824e-09
2.08932817904e-05
-1.18778788875e-09
2.08939413387e-05
-9.49586461812e-10
2.08944618344e-05
-7.43035093805e-10
2.08948648671e-05
-5.71231064529e-10
2.08951719795e-05
-4.32548552296e-10
2.08954027063e-05
-3.23123948072e-10
2.08955738045e-05
-2.38348459686e-10
2.08956990766e-05
-1.73677862903e-10
2.0895789605e-05
-1.24991132118e-10
2.08958541409e-05
-8.8758601301e-11
2.08958994824e-05
-6.20931098698e-11
2.0895930814e-05
-4.26899519534e-11
2.08959520243e-05
-2.87318702154e-11
2.0895966003e-05
-1.88285869831e-11
2.08959748531e-05
-1.19190738205e-11
2.08959801237e-05
-7.18223183206e-12
2.08959831737e-05
-4.00577698554e-12
2.08959847211e-05
-1.91647358097e-12
2.08959852368e-05
-5.59043210233e-13
2.0895985347e-05
-6.92534014177e-15
2.0895985211e-05
2.51026078305e-13
2.08959849429e-05
3.24769683386e-13
2.08959846512e-05
2.68183009775e-13
2.08959843953e-05
1.4619542145e-13
2.08959841989e-05
-9.47550287164e-15
2.0895984074e-05
-1.85446203533e-13
2.08959840113e-05
-3.7777277553e-13
2.08959839936e-05
-5.61118365513e-13
2.08959840322e-05
-7.09309991675e-13
2.08959841392e-05
-8.40331616754e-13
2.08959843056e-05
-9.63232926048e-13
2.08959845178e-05
-1.06482647865e-12
2.08959847772e-05
-1.13972913632e-12
2.08959850947e-05
-1.19505371347e-12
2.08959854578e-05
-1.24884872133e-12
2.08959858498e-05
-1.3151252661e-12
2.08959862895e-05
-1.3736417627e-12
2.08959868068e-05
-1.39769356707e-12
2.08959874166e-05
-1.40352546709e-12
2.08959880864e-05
-1.41345845858e-12
2.08959887843e-05
-1.42230422888e-12
2.0895989533e-05
-1.43781382492e-12
2.08959903273e-05
-1.48287361967e-12
2.08959911211e-05
-1.54927531277e-12
2.08959919245e-05
-1.63393229691e-12
2.08959927875e-05
-1.72876105614e-12
2.089599373e-05
-1.8156185624e-12
2.08959947049e-05
-1.90646092174e-12
2.08959956476e-05
-1.99745332965e-12
2.08959965888e-05
-2.07123736403e-12
2.08959975969e-05
-2.15738037406e-12
2.08959986594e-05
-2.26136811535e-12
2.08959997369e-05
-2.35019537956e-12
2.08960008315e-05
-2.45210092731e-12
2.08960019721e-05
-2.59775826159e-12
2.08960031624e-05
-2.73201514639e-12
2.08960043925e-05
-2.82037833333e-12
2.0896005699e-05
-2.91213307873e-12
2.08960071258e-05
-3.03449566712e-12
2.08960086774e-05
-3.15891792438e-12
2.08960103323e-05
-3.26572096917e-12
2.08960120757e-05
-3.38967243232e-12
2.08960138951e-05
-3.59804474488e-12
2.08960157609e-05
-3.85280233974e-12
2.08960177219e-05
-4.0261851306e-12
2.08960198868e-05
-4.15098808293e-12
2.0896022253e-05
-4.37909259451e-12
2.089602479e-05
-4.69795116945e-12
2.08960276311e-05
-5.01938975596e-12
2.08960308661e-05
-5.39572036693e-12
2.08960344323e-05
-5.88315864995e-12
2.08960384205e-05
-6.48485634616e-12
2.08960429903e-05
-7.26081072967e-12
2.08960482022e-05
-8.23218002353e-12
2.08960542195e-05
-9.42140374953e-12
2.08960612996e-05
-1.08893937706e-11
2.08960696456e-05
-1.27103087024e-11
2.08960795345e-05
-1.49145268594e-11
2.08960914234e-05
-1.76038204882e-11
2.08961057893e-05
-2.09929341599e-11
2.08961229854e-05
-2.51558453603e-11
2.08961433543e-05
-2.99663509701e-11
2.08961673701e-05
-3.5226752072e-11
2.08961981611e-05
-4.38773396206e-11
2.08962362287e-05
-5.40145204049e-11
2.08962829646e-05
-6.63179078653e-11
2.08963405837e-05
-8.13512563737e-11
2.0896411772e-05
-9.99560753215e-11
2.08964995797e-05
-1.22960006311e-10
2.0896607951e-05
-1.51384336955e-10
2.08967421931e-05
-1.8667269486e-10
2.08969081414e-05
-2.3057748115e-10
2.08971131729e-05
-2.84875516573e-10
2.08973668516e-05
-3.5200990983e-10
2.08976803448e-05
-4.3526708659e-10
2.08980672885e-05
-5.38279695235e-10
2.0898543502e-05
-6.65684580275e-10
2.08991346304e-05
-8.24367425625e-10
2.08998704034e-05
-1.02176422952e-09
2.09007827802e-05
-1.26665415059e-09
2.09019142446e-05
-1.56967634444e-09
2.09033168727e-05
-1.94501532318e-09
2.0905054754e-05
-2.4099373614e-09
2.09072080275e-05
-2.98565637099e-09
2.0909876147e-05
-3.69891979658e-09
2.09131822067e-05
-4.58316317918e-09
2.09172785284e-05
-5.67918995325e-09
2.09223547362e-05
-7.03774604145e-09
2.09286464967e-05
-8.72260209866e-09
2.09364458126e-05
-1.08128147774e-08
2.09461168283e-05
-1.34071855935e-08
2.09581124611e-05
-1.66298661005e-08
2.09729970253e-05
-2.06359124087e-08
2.0991476533e-05
-2.5620368345e-08
2.10144339362e-05
-3.18298422849e-08
2.10429777738e-05
-3.95770523186e-08
2.10785038805e-05
-4.92608490373e-08
2.11227770894e-05
-6.13932994318e-08
2.11780427173e-05
-7.66390473952e-08
2.12471727631e-05
-9.58696144298e-08
2.13338735765e-05
-1.20241907996e-07
2.14429845327e-05
-1.51320500892e-07
2.15809148715e-05
-1.91270898047e-07
2.17563272828e-05
-2.43186546908e-07
2.19812644026e-05
-3.11686604649e-07
2.22731388002e-05
-4.04109102282e-07
2.26584816656e-05
-5.33118457823e-07
2.31803907748e-05
-7.22852128067e-07
2.3913712919e-05
-1.02400485819e-06
2.49941306962e-05
-1.55022606829e-06
2.66595786721e-05
-2.56469551236e-06
2.92423819054e-05
-4.68599212065e-06
-9.19496996324e-06
3.27098797103e-05
5.3584426779e-05
1.25223867426e-05
5.29166006264e-05
1.78659201824e-05
4.96393016654e-05
1.59101396337e-05
4.58382171347e-05
1.24039966175e-05
4.24428742298e-05
9.10152017893e-06
3.97331587971e-05
6.49050557578e-06
3.76912446299e-05
4.56872283196e-06
3.62011660433e-05
3.19221345255e-06
3.51355926879e-05
2.21649266336e-06
3.43848439479e-05
1.52835995829e-06
3.386265922e-05
1.04499678801e-06
3.35040084595e-05
7.07114531987e-07
3.32609670862e-05
4.72451840558e-07
3.30987290923e-05
3.10830591749e-07
3.29923049081e-05
2.00657841544e-07
3.29239417779e-05
1.26484413684e-07
3.28811625782e-05
7.72856289423e-08
3.28552977355e-05
4.52334860965e-08
3.28403983837e-05
2.48090928986e-08
3.28324392049e-05
1.21561573138e-08
3.28287378023e-05
4.60870101061e-09
3.2827541441e-05
3.51515412966e-10
3.28277319936e-05
-1.85319150287e-09
3.28286117964e-05
-2.80745500338e-09
3.28297637457e-05
-3.03968100944e-09
3.28309506911e-05
-2.88337772748e-09
3.28320487966e-05
-2.54382067865e-09
3.28330031098e-05
-2.14201249265e-09
3.28337986646e-05
-1.74501800707e-09
3.28344421253e-05
-1.3863811556e-09
3.28349505621e-05
-1.07956114583e-09
3.28353447639e-05
-8.26634663047e-10
3.28356454799e-05
-6.23736546915e-10
3.28358715806e-05
-4.64369515765e-10
3.28360392753e-05
-3.41328124284e-10
3.28361619738e-05
-2.47700987163e-10
3.28362505002e-05
-1.77350879465e-10
3.28363134326e-05
-1.251091161e-10
3.28363574429e-05
-8.67723340129e-11
3.28363876186e-05
-5.89816907579e-11
3.28364078265e-05
-3.91002907991e-11
3.28364209887e-05
-2.51029560568e-11
3.28364292541e-05
-1.5433114409e-11
3.28364341882e-05
-8.89341655465e-12
3.28364369769e-05
-4.61793133872e-12
3.28364384636e-05
-1.94503481708e-12
3.28364387814e-05
-2.48497211295e-13
3.28364386458e-05
4.33816308546e-13
3.28364383577e-05
6.43646814777e-13
3.28364379925e-05
6.42565685479e-13
3.28364375841e-05
5.27779946929e-13
3.28364372081e-05
2.76091462584e-13
3.28364368793e-05
3.16681724319e-15
3.28364366202e-05
-2.86842623149e-13
3.28364364201e-05
-5.79540470619e-13
3.28364362693e-05
-8.24079847988e-13
3.28364362355e-05
-1.06905732242e-12
3.28364362773e-05
-1.24276713621e-12
3.28364363796e-05
-1.39297021722e-12
3.28364365298e-05
-1.51661625576e-12
3.28364367181e-05
-1.60961943469e-12
3.28364369401e-05
-1.69217802745e-12
3.28364371932e-05
-1.75892341074e-12
3.28364374856e-05
-1.78265274066e-12
3.28364378254e-05
-1.76352628484e-12
3.2836438207e-05
-1.72692118557e-12
3.28364386362e-05
-1.74260138187e-12
3.28364390947e-05
-1.79730799133e-12
3.28364395923e-05
-1.83701456124e-12
3.28364401347e-05
-1.8817871186e-12
3.28364406819e-05
-1.96540763426e-12
3.28364412366e-05
-2.08633211416e-12
3.28364418337e-05
-2.21122515805e-12
3.2836442491e-05
-2.33054136612e-12
3.28364431859e-05
-2.46592270278e-12
3.28364438548e-05
-2.60633660193e-12
3.28364445122e-05
-2.71588151819e-12
3.28364452397e-05
-2.81857132167e-12
3.28364460152e-05
-2.96664889952e-12
3.28364467665e-05
-3.15206274607e-12
3.28364475191e-05
-3.31967447317e-12
3.28364483501e-05
-3.4488726295e-12
3.28364492512e-05
-3.58153749125e-12
3.28364501581e-05
-3.74527341977e-12
3.28364510968e-05
-3.90510934653e-12
3.28364521622e-05
-4.05614295071e-12
3.28364533848e-05
-4.24722439032e-12
3.28364546966e-05
-4.48094462857e-12
3.28364560689e-05
-4.73326638121e-12
3.28364575778e-05
-5.03403610395e-12
3.28364592301e-05
-5.38799865732e-12
3.28364609791e-05
-5.71625956228e-12
3.2836462901e-05
-6.01828272356e-12
3.28364650943e-05
-6.43039178e-12
3.28364675698e-05
-7.00375932026e-12
3.28364703971e-05
-7.67390156279e-12
3.28364736646e-05
-8.46686387409e-12
3.28364773421e-05
-9.42007583221e-12
3.28364814414e-05
-1.04601600542e-11
3.28364864039e-05
-1.20557935888e-11
3.28364923729e-05
-1.41057308153e-11
3.28364995513e-05
-1.65696988909e-11
3.28365082612e-05
-1.9554841863e-11
3.28365187911e-05
-2.32600365695e-11
3.2836531537e-05
-2.78356129494e-11
3.28365471004e-05
-3.33896136414e-11
3.28365662952e-05
-4.02035082313e-11
3.28365900377e-05
-4.87535729293e-11
3.2836619333e-05
-5.93930178254e-11
3.28366560612e-05
-7.23710034396e-11
3.28367003492e-05
-8.83906326009e-11
3.28367547413e-05
-1.08382293919e-10
3.28368216314e-05
-1.33217327818e-10
3.28369040919e-05
-1.63875103254e-10
3.28370060294e-05
-2.0178284719e-10
3.28371318927e-05
-2.48836464821e-10
3.28372871853e-05
-3.07015347218e-10
3.28374793166e-05
-3.78988222555e-10
3.283771699e-05
-4.6826422871e-10
3.28380107254e-05
-5.7878368565e-10
3.28383741208e-05
-7.15491456925e-10
3.28388238866e-05
-8.84884812319e-10
3.28393806402e-05
-1.09483596401e-09
3.28400697206e-05
-1.35492488678e-09
3.28409225481e-05
-1.67722596782e-09
3.28419782518e-05
-2.07726820872e-09
3.28432848835e-05
-2.57341702055e-09
3.28449029081e-05
-3.1878749933e-09
3.28469070859e-05
-3.94905002416e-09
3.28493894043e-05
-4.8920730291e-09
3.28524639581e-05
-6.06024835471e-09
3.28562723036e-05
-7.50752454367e-09
3.28609904437e-05
-9.30105581161e-09
3.28668358181e-05
-1.15242211627e-08
3.28740783861e-05
-1.42802661e-08
3.28830541629e-05
-1.76980001217e-08
3.289417933e-05
-2.19378752229e-08
3.29079719623e-05
-2.71999717119e-08
3.29250770353e-05
-3.37349479469e-08
3.29462973189e-05
-4.18564799558e-08
3.29726354757e-05
-5.19586673502e-08
3.30053445071e-05
-6.45389385054e-08
3.30459951447e-05
-8.02274104217e-08
3.30965618986e-05
-9.98268887364e-08
3.31595347339e-05
-1.243663429e-07
3.32380720128e-05
-1.5517659675e-07
3.33362010239e-05
-1.93998294592e-07
3.34590955401e-05
-2.43136577562e-07
3.36134716164e-05
-3.05696595844e-07
3.38081559447e-05
-3.85955540392e-07
3.40549453188e-05
-4.8997639024e-07
3.43699466583e-05
-6.26688093818e-07
3.47757322487e-05
-8.09895125013e-07
3.53048493489e-05
-1.06223556747e-06
3.60053120348e-05
-1.42331448393e-06
3.69480016547e-05
-1.96669468604e-06
3.8231741188e-05
-2.83396537295e-06
3.99633376325e-05
-4.29629203336e-06
4.21263985618e-05
-6.84905329541e-06
-1.12250246226e-05
4.41564527556e-05
5.35705203627e-05
8.95186678814e-06
5.55863054814e-05
1.58501343666e-05
5.52410588685e-05
1.62553864672e-05
5.35976159568e-05
1.4047439789e-05
5.15429056471e-05
1.11562301394e-05
4.95819399873e-05
8.45147112721e-06
4.79262506866e-05
6.2244121574e-06
4.6620039198e-05
4.49842482906e-06
4.56322334463e-05
3.2042984555e-06
4.49066877838e-05
2.25390573e-06
4.43854434546e-05
1.5662412527e-06
4.40178359133e-05
1.07472222428e-06
4.37629182474e-05
7.27369624341e-07
4.35890549687e-05
4.84693929468e-07
4.3472517703e-05
3.17195082052e-07
4.33958928251e-05
2.03109230666e-07
4.33466255627e-05
1.26552839604e-07
4.33158051697e-05
7.60538203477e-08
4.32972007515e-05
4.34135046989e-08
4.32865196853e-05
2.28372880378e-08
4.32808503536e-05
1.02781267715e-08
4.32782552018e-05
2.94675184365e-09
4.327745888e-05
-1.05683951115e-09
4.32776565936e-05
-3.0051901627e-09
4.32783432745e-05
-3.72641159913e-09
4.32792179867e-05
-3.75811807245e-09
4.3280110378e-05
-3.43618712705e-09
4.32809320443e-05
-2.9636153287e-09
4.32816443088e-05
-2.45719044526e-09
4.32822372586e-05
-1.97923265532e-09
4.32827165181e-05
-1.55871951902e-09
4.32830951057e-05
-1.20509982149e-09
4.3283388573e-05
-9.17082327245e-10
4.32836123675e-05
-6.88068562453e-10
4.32837805085e-05
-5.09407941027e-10
4.3283905042e-05
-3.72218895262e-10
4.32839959574e-05
-2.68309272516e-10
4.32840613478e-05
-1.90584757967e-10
4.32841076426e-05
-1.33156296018e-10
4.32841398268e-05
-9.12531163972e-11
4.32841617277e-05
-6.10679957792e-11
4.32841762627e-05
-3.96422598508e-11
4.32841855839e-05
-2.47090805302e-11
4.32841912692e-05
-1.45259207867e-11
4.32841944894e-05
-7.78450020894e-12
4.32841961133e-05
-3.51597028812e-12
4.32841969712e-05
-1.06305631409e-12
4.3284197287e-05
1.56946239695e-13
4.32841970086e-05
9.53933601474e-13
4.32841965555e-05
1.1110249742e-12
4.32841960926e-05
9.67784812089e-13
4.32841956379e-05
6.30341510771e-13
4.3284195269e-05
1.99488297241e-13
4.32841949652e-05
-1.74184906437e-13
4.32841947222e-05
-5.31601869682e-13
4.32841945036e-05
-8.21376973799e-13
4.32841942734e-05
-1.06768400451e-12
4.32841940821e-05
-1.28204681843e-12
4.32841939335e-05
-1.46666587042e-12
4.32841938191e-05
-1.61783634451e-12
4.32841937319e-05
-1.73631128361e-12
4.32841936623e-05
-1.81724506462e-12
4.32841936232e-05
-1.85240333697e-12
4.32841936407e-05
-1.85012269316e-12
4.32841937024e-05
-1.82505171808e-12
4.32841938184e-05
-1.80456070185e-12
4.3284193979e-05
-1.82209720694e-12
4.3284194144e-05
-1.87303477248e-12
4.32841943201e-05
-1.91882093917e-12
4.32841945167e-05
-1.96390504753e-12
4.32841947068e-05
-2.05389325982e-12
4.32841948917e-05
-2.19314530953e-12
4.32841950951e-05
-2.33389010953e-12
4.32841953323e-05
-2.46126145812e-12
4.32841956046e-05
-2.59896442091e-12
4.32841958616e-05
-2.75481728655e-12
4.32841960803e-05
-2.91136254572e-12
4.32841963196e-05
-3.06607578389e-12
4.328419659e-05
-3.24366619168e-12
4.32841968446e-05
-3.45959375053e-12
4.3284197093e-05
-3.65733034485e-12
4.32841973942e-05
-3.78219329837e-12
4.32841977607e-05
-3.91279330981e-12
4.32841981495e-05
-4.12830299275e-12
4.32841985652e-05
-4.33954453968e-12
4.32841990836e-05
-4.51876202912e-12
4.32841997549e-05
-4.7904126797e-12
4.32842005191e-05
-5.15486110261e-12
4.32842013216e-05
-5.51848447216e-12
4.32842022647e-05
-5.89946612763e-12
4.32842034273e-05
-6.34832169751e-12
4.32842047335e-05
-6.85233830865e-12
4.32842061866e-05
-7.41160656374e-12
4.32842079497e-05
-8.09185427273e-12
4.32842101125e-05
-8.95769901633e-12
4.32842126998e-05
-1.00296675935e-11
4.32842158342e-05
-1.13631246834e-11
4.32842196379e-05
-1.30303696549e-11
4.32842243045e-05
-1.50603384689e-11
4.3284229831e-05
-1.75838446846e-11
4.3284236461e-05
-2.07473751479e-11
4.32842444507e-05
-2.46030465626e-11
4.32842541651e-05
-2.93112038529e-11
4.3284266087e-05
-3.51896061599e-11
4.32842806721e-05
-4.25082424742e-11
4.32842984863e-05
-5.14518465634e-11
4.32843203754e-05
-6.23580041118e-11
4.3284347459e-05
-7.58651926183e-11
4.32843808592e-05
-9.26880491301e-11
4.32844218795e-05
-1.13503419556e-10
4.32844725926e-05
-1.39307306402e-10
4.32845353761e-05
-1.71254015762e-10
4.32846129582e-05
-2.10872631144e-10
4.32847087727e-05
-2.59812587069e-10
4.32848272793e-05
-3.20319703519e-10
4.3284973918e-05
-3.95326173069e-10
4.32851550429e-05
-4.88212960695e-10
4.3285379117e-05
-6.03145006984e-10
4.32856564846e-05
-7.45572730714e-10
4.3285999468e-05
-9.21994717943e-10
4.32864237653e-05
-1.14017620147e-09
4.32869490945e-05
-1.41029527628e-09
4.3287599658e-05
-1.74502874408e-09
4.32884047632e-05
-2.15996563354e-09
4.3289401257e-05
-2.67399364401e-09
4.32906353072e-05
-3.31106542382e-09
4.32921629796e-05
-4.10079755559e-09
4.32940541501e-05
-5.07914948111e-09
4.32963960703e-05
-6.29094108746e-09
4.32992962783e-05
-7.79205294135e-09
4.33028877583e-05
-9.65178452969e-09
4.330733549e-05
-1.19557204434e-08
4.33128446206e-05
-1.4810376755e-08
4.33196688829e-05
-1.83484197542e-08
4.33281227021e-05
-2.27341485469e-08
4.33385973434e-05
-2.8172159725e-08
4.3351577376e-05
-3.49174990846e-08
4.33676650122e-05
-4.3287689181e-08
4.33876098041e-05
-5.36796364184e-08
4.34123434877e-05
-6.65902015558e-08
4.34430275282e-05
-8.26428442898e-08
4.3481110806e-05
-1.0262259683e-07
4.35284049026e-05
-1.27521767855e-07
4.3587180499e-05
-1.58601847153e-07
4.36602894905e-05
-1.9747496351e-07
4.37513299806e-05
-2.46217108901e-07
4.38648612441e-05
-3.07529351115e-07
4.40066910906e-05
-3.84966429818e-07
4.4184272588e-05
-4.83277784315e-07
4.4407249993e-05
-6.08932632376e-07
4.46882302694e-05
-7.70956354553e-07
4.50438711661e-05
-9.82328355251e-07
4.5496386532e-05
-1.262410583e-06
4.60754568465e-05
-1.64130606658e-06
4.68199648721e-05
-2.16782199651e-06
4.777711119e-05
-2.92384095603e-06
4.89913855847e-05
-4.04823985967e-06
5.04637144123e-05
-5.76862096712e-06
5.20359164253e-05
-8.42125607309e-06
-1.23592762077e-05
5.3170168298e-05
5.27606088631e-05
6.19125847222e-06
5.57402406258e-05
1.28705021199e-05
5.73124118835e-05
1.46832150596e-05
5.76111980776e-05
1.37486539293e-05
5.71338684997e-05
1.16335594805e-05
5.63199838376e-05
9.26535559483e-06
5.54496447754e-05
7.09475126728e-06
5.46637027218e-05
5.28436682506e-06
5.40144130915e-05
3.85358813198e-06
5.35068430684e-05
2.76147588734e-06
5.3124879528e-05
1.94820494033e-06
5.28455270227e-05
1.35407485799e-06
5.26458930922e-05
9.2700363264e-07
5.25060837052e-05
6.24503349498e-07
5.2410010557e-05
4.13268191808e-07
5.2345235081e-05
2.67884622301e-07
5.23024380759e-05
1.69349788308e-07
5.22748032766e-05
1.03688573555e-07
5.22574435525e-05
6.07732263909e-08
5.22469164807e-05
3.336443749e-08
5.22408377686e-05
1.63569470614e-08
5.22375850019e-05
6.19960526808e-09
5.22360653526e-05
4.62840805717e-10
5.22355745129e-05
-2.51437453282e-09
5.22356521537e-05
-3.80410631171e-09
5.22360138007e-05
-4.11979837128e-09
5.2236488473e-05
-3.91084116874e-09
5.22369787261e-05
-3.45382088439e-09
5.22374334241e-05
-2.91181207541e-09
5.22378296148e-05
-2.37533215234e-09
5.22381607791e-05
-1.88978920984e-09
5.22384293746e-05
-1.4735764617e-09
5.22386421637e-05
-1.12974035907e-09
5.22388074901e-05
-8.53281404275e-10
5.22389337731e-05
-6.35611264666e-10
5.22390287336e-05
-4.67142637331e-10
5.22390990597e-05
-3.38660755132e-10
5.2239150348e-05
-2.41959998988e-10
5.22391871782e-05
-1.70092530877e-10
5.22392131903e-05
-1.17350888757e-10
5.22392312112e-05
-7.91394650976e-11
5.22392434276e-05
-5.1853196317e-11
5.22392514853e-05
-3.27205465973e-11
5.22392566024e-05
-1.96064713353e-11
5.22392597235e-05
-1.08874318223e-11
5.22392615447e-05
-5.31868876187e-12
5.22392624094e-05
-1.90078245743e-12
5.22392624525e-05
1.47521540817e-13
5.22392624687e-05
9.59559150078e-13
5.22392623179e-05
1.26094035966e-12
5.22392620746e-05
1.18128868267e-12
5.22392617421e-05
8.66662541854e-13
5.22392612876e-05
4.78259374305e-13
5.22392607911e-05
1.16741507651e-13
5.22392603686e-05
-2.94493407726e-13
5.2239260086e-05
-7.0941932175e-13
5.2239259851e-05
-1.02214528968e-12
5.2239259632e-05
-1.27996976602e-12
5.22392594354e-05
-1.49133822048e-12
5.22392592665e-05
-1.65704280203e-12
5.22392591186e-05
-1.77471657603e-12
5.2239258997e-05
-1.833844016e-12
5.22392589093e-05
-1.83164615114e-12
5.22392588475e-05
-1.79070217906e-12
5.22392587791e-05
-1.74321669735e-12
5.22392586969e-05
-1.71441653636e-12
5.22392586431e-05
-1.72397589634e-12
5.22392586242e-05
-1.76281212793e-12
5.22392586127e-05
-1.80477626435e-12
5.22392585866e-05
-1.85259426196e-12
5.22392585346e-05
-1.93983572828e-12
5.22392584819e-05
-2.08326867867e-12
5.22392584542e-05
-2.24618907687e-12
5.22392584476e-05
-2.38306529984e-12
5.22392584685e-05
-2.5083132471e-12
5.22392584873e-05
-2.6704013989e-12
5.22392584526e-05
-2.86731857436e-12
5.22392583935e-05
-3.06623829141e-12
5.22392583642e-05
-3.26588446741e-12
5.22392583673e-05
-3.47495326103e-12
5.22392583821e-05
-3.66723681602e-12
5.22392583981e-05
-3.815479846e-12
5.22392584263e-05
-3.96201942353e-12
5.22392584695e-05
-4.16678035306e-12
5.22392585325e-05
-4.40020351878e-12
5.22392586487e-05
-4.63300715e-12
5.22392588705e-05
-4.93564961636e-12
5.22392592071e-05
-5.35203914078e-12
5.22392596136e-05
-5.81859199174e-12
5.2239260135e-05
-6.28459302304e-12
5.22392608519e-05
-6.80899143977e-12
5.22392617063e-05
-7.47701046917e-12
5.22392626753e-05
-8.2847121251e-12
5.22392639149e-05
-9.21706322372e-12
5.22392655283e-05
-1.0363377471e-11
5.22392675324e-05
-1.18281984374e-11
5.2239270049e-05
-1.36758682684e-11
5.22392731779e-05
-1.59965207338e-11
5.22392769842e-05
-1.88764140806e-11
5.22392817414e-05
-2.24208052452e-11
5.22392877394e-05
-2.67769806242e-11
5.22392951758e-05
-3.21355539649e-11
5.22393043815e-05
-3.87102572004e-11
5.22393158855e-05
-4.68241709498e-11
5.22393302659e-05
-5.69028039528e-11
5.22393480885e-05
-6.93654547287e-11
5.22393700807e-05
-8.46421993138e-11
5.22393974418e-05
-1.03401267311e-10
5.22394315566e-05
-1.26686469937e-10
5.22394737688e-05
-1.5562800745e-10
5.22395258562e-05
-1.91481411479e-10
5.22395903418e-05
-2.35850682044e-10
5.22396702812e-05
-2.90797956267e-10
5.2239769148e-05
-3.58774461388e-10
5.22398914789e-05
-4.42793639605e-10
5.22400430638e-05
-5.46856116872e-10
5.22402305371e-05
-6.75782525927e-10
5.22404624964e-05
-8.35310911133e-10
5.22407498188e-05
-1.03285230136e-09
5.22411055243e-05
-1.27754783497e-09
5.22415456438e-05
-1.58049941512e-09
5.22420905942e-05
-1.95537351141e-09
5.22427655702e-05
-2.41982204507e-09
5.22436012108e-05
-2.9954588328e-09
5.22446354802e-05
-3.70848153316e-09
5.22459162158e-05
-4.59176921913e-09
5.22475018911e-05
-5.6863454488e-09
5.22494648811e-05
-7.04229987929e-09
5.22518955408e-05
-8.72163610178e-09
5.22549053774e-05
-1.08018023327e-08
5.22586324938e-05
-1.337872856e-08
5.22632477701e-05
-1.65710659056e-08
5.22689635194e-05
-2.05262051268e-08
5.22760428132e-05
-2.54275350049e-08
5.22848109539e-05
-3.15024056551e-08
5.22956723897e-05
-3.9033510676e-08
5.23091280892e-05
-4.8373055446e-08
5.23257994357e-05
-5.99592656817e-08
5.23464588987e-05
-7.43390454842e-08
5.23720651171e-05
-9.21963098795e-08
5.24038103371e-05
-1.14387797575e-07
5.244317776e-05
-1.41989868726e-07
5.24920147054e-05
-1.76359207807e-07
5.2552627086e-05
-2.19214116621e-07
5.26278947386e-05
-2.72742129035e-07
5.27214232206e-05
-3.39745642539e-07
5.28377389403e-05
-4.23844849751e-07
5.29825362762e-05
-5.29763514994e-07
5.31630012054e-05
-6.63742643351e-07
5.33882245295e-05
-8.3415593969e-07
5.3669719683e-05
-1.05245137303e-06
5.40220289565e-05
-1.33463753965e-06
5.44633044771e-05
-1.70368606735e-06
5.50154698704e-05
-2.19347178637e-06
5.57028346229e-05