/*--------------------------------*- C++ -*----------------------------------*\
| =========                 |                                                 |
| \\      /  F ield         | OpenFOAM: The Open Source CFD Toolbox           |
|  \\    /   O peration     | Version:  2106                                  |
|   \\  /    A nd           | Website:  www.openfoam.com                      |
|    \\/     M anipulation  |                                                 |
\*---------------------------------------------------------------------------*/
FoamFile
{
    version     2.0;
    format      ascii;
    arch        "LSB;label=32;scalar=64";
    class       volScalarField;
    location    "0.41";
    object      p;
}
// * * * * * * * * * * * * * * * * * * * * * * * * * * * * * * * * * * * * * //

dimensions      [0 2 -2 0 0 0 0];

internalField   nonuniform List<scalar> 
9600
(
2.26821096639
-0.6297986301
-1.53403180399
-1.91964002431
-2.13897198621
-2.27891504049
-2.38281992092
-2.47036958483
-2.54986931539
-2.62525985372
-2.69863431839
-2.77114316411
-2.84341647394
-2.9157853504
-2.98840566347
-3.06133358772
-3.13456943402
-3.20808456984
-3.28183883624
-3.35578949845
-3.42989583115
-3.50412343256
-3.57844166603
-3.6528264319
-3.72725840584
-3.80172213356
-3.87620619934
-3.95070171635
-4.02520164542
-4.09970098671
-4.17419570425
-4.24868247862
-4.3231587188
-4.39762211992
-4.4720706812
-4.54650237284
-4.62091514143
-4.69530713352
-4.76967625024
-4.8440202758
-4.91833699694
-4.99262387234
-5.06687830957
-5.1410976257
-5.21527872573
-5.28941840249
-5.36351323934
-5.43755943142
-5.51155293494
-5.58548932031
-5.65936379689
-5.73317126473
-5.80690613895
-5.88056252742
-5.95413432413
-6.02761484198
-6.10099688284
-6.17427296331
-6.24743502496
-6.32047432592
-6.39338156608
-6.46614688568
-6.53875977739
-6.61120893951
-6.68348242079
-6.75556764191
-6.8274510327
-6.89911815546
-6.97055399928
-7.04174269576
-7.11266723949
-7.1833096934
-7.25365133233
-7.32367229198
-7.39335129639
-7.46266598706
-7.53159299735
-7.60010751956
-7.66818329629
-7.73579300703
-7.8029081407
-7.86949853187
-7.9355325941
-8.00097749841
-8.06579861139
-8.12995940164
-8.19342200713
-8.25614727299
-8.31809397669
-8.37921882729
-8.43947716361
-8.49882254862
-8.55720631564
-8.61457801504
-8.67088557926
-8.72607489167
-8.78008953048
-8.83287144274
-8.88436099278
-8.93449583085
-8.98321146034
-9.03044203888
-9.07611966668
-9.12017417257
-9.16253317509
-9.20312280623
-9.2418674772
-9.27868896975
-9.31350756559
-9.34624209909
-9.37680931111
-9.40512418708
-9.43109986215
-9.454648107
-9.47567934704
-9.49410187663
-9.5098228767
-9.52274913997
-9.53278521979
-9.5398347391
-9.54380131735
-9.54458652855
-9.54209091397
-9.536215015
-9.5268588908
-9.51392278483
-9.49730451429
-9.47690238701
-9.45261524728
-9.42433987728
-9.3919743312
-9.35541668032
-9.31456200918
-9.26930692165
-9.21954766228
-9.1651769644
-9.10608694174
-9.04216719121
-8.97330538792
-8.89938377436
-8.82027702088
-8.73585746131
-8.64598553831
-8.55050543242
-8.44925024139
-8.34203077683
-8.22862551619
-8.10877801599
-7.98218116322
-7.84845706493
-7.70713018837
-7.55758195885
-7.3989841818
-7.23016392146
-7.04938870636
-6.85406288219
-6.64023159567
-6.402066008
-6.14019901829
-5.91486212964
0.356669513737
-0.825682770148
-1.4343599656
-1.78838226195
-2.03099866763
-2.20156222816
-2.3296339745
-2.43413661648
-2.52521257124
-2.60849132864
-2.68726491657
-2.76348227779
-2.83830285097
-2.91241554233
-2.98622168577
-3.05994788346
-3.13371439992
-3.2075768093
-3.28155375486
-3.35564357944
-3.42983468553
-3.50411075412
-3.57845489883
-3.65285175527
-3.7272878298
-3.80175116386
-3.87623249531
-3.95072453896
-4.02522096457
-4.09971704794
-4.17420901068
-4.24869359798
-4.32316820892
-4.39763043828
-4.47207820369
-4.54650947664
-4.62092207531
-4.69531410349
-4.7696834992
-4.84402794331
-4.91834522477
-4.99263280064
-5.06688796842
-5.14110807953
-5.21529009396
-5.28943072385
-5.3635265622
-5.4375738381
-5.51156853595
-5.58550623112
-5.65938206699
-5.73319098006
-5.80692745757
-5.88058552637
-5.95415906859
-6.02764150898
-6.10102562854
-6.17430388261
-6.24746826586
-6.32051008542
-6.39342000314
-6.46618811852
-6.53880401661
-6.61125646698
-6.68353339108
-6.75562216619
-6.82750936461
-6.89918055878
-6.97062063818
-7.04181378643
-7.11274312935
-7.18339069342
-7.25373766891
-7.32376428458
-7.3934493298
-7.46277030448
-7.53170380035
-7.60022518818
-7.66830825007
-7.7359255095
-7.80304852977
-7.86964736654
-7.93569033116
-8.00114438567
-8.06597500593
-8.1301458332
-8.19361889505
-8.25635500206
-8.31831314211
-8.37944995142
-8.43972054745
-8.49907865819
-8.55747581642
-8.61486136575
-8.67118304047
-8.72638702132
-8.78041711078
-8.8332148983
-8.88472066176
-8.93487239318
-8.98360556472
-9.03085411675
-9.07655015778
-9.12062373651
-9.16300245552
-9.20361215295
-9.24237741712
-9.27922019476
-9.3140604956
-9.3468170696
-9.37740671438
-9.40574441104
-9.43174328727
-9.45531488229
-9.47636983009
-9.49481662782
-9.51056201677
-9.52351291156
-9.53357441669
-9.54064983099
-9.54464256585
-9.54545444551
-9.54298608697
-9.53713815872
-9.52781007553
-9.51490101445
-9.49831030071
-9.47793632992
-9.45367895448
-9.42543579387
-9.3931042879
-9.35658412338
-9.31577185373
-9.27056415441
-9.22085892752
-9.16655102437
-9.10753467035
-9.04370147439
-8.974942527
-8.90114612038
-8.82219070824
-8.73795385803
-8.64830714966
-8.55310493493
-8.45219174737
-8.3453980904
-8.23252723382
-8.11335382968
-7.98761479125
-7.85499527691
-7.7151133264
-7.56749188358
-7.41154000529
-7.24651013497
-7.07145561342
-6.88529411984
-6.68699906092
-6.4753787434
-6.25031039273
-6.03264307742
-0.619173645758
-1.10053793583
-1.49179969574
-1.78341463116
-2.00498767775
-2.17292365635
-2.30502553861
-2.41481419648
-2.51067325502
-2.59781805536
-2.67956082293
-2.75799579955
-2.83444291007
-2.90973256569
-2.98438068168
-3.05870220869
-3.13288472909
-3.20703438677
-3.28120704393
-3.35542822434
-3.42970571651
-3.50403768679
-3.57841712583
-3.65283538344
-3.7272839339
-3.80175420251
-3.87623886793
-3.95073216371
-4.02522877754
-4.09972443017
-4.17421571294
-4.24869959967
-4.32317360067
-4.39763533087
-4.47208265782
-4.54651364715
-4.62092612014
-4.69531808147
-4.76968749125
-4.84403199221
-4.91834933541
-4.9926370759
-5.06689246165
-5.14111281938
-5.21529516298
-5.28943619178
-5.36353248315
-5.43758030288
-5.51157560345
-5.58551397405
-5.65939047046
-5.73319999836
-5.80693716196
-5.88059599211
-5.95417028268
-6.02765353667
-6.10103860696
-6.17431787698
-6.24748330387
-6.32052624462
-6.39343739303
-6.46620679856
-6.53882403607
-6.61127796024
-6.68355645058
-6.75564678542
-6.82753563184
-6.89920867183
-6.97065071353
-7.04184586938
-7.11277736434
-7.18342729046
-7.25377671995
-7.3238058429
-7.39349357127
-7.46281738638
-7.53175375436
-7.60027812111
-7.66836441458
-7.73598507314
-7.80311159495
-7.86971419159
-7.93576117114
-8.00121929185
-8.06605407187
-8.1302294033
-8.19370727096
-8.25644825477
-8.31841144264
-8.37955362101
-8.43982974612
-8.49919347243
-8.5575964979
-8.6149881813
-8.67131603983
-8.72652631414
-8.78056315614
-8.83336799017
-8.88488073795
-8.93503960734
-8.9837802466
-9.03103644697
-9.07674013025
-9.12082151685
-9.16320846623
-9.20382652336
-9.24260013767
-9.27945154984
-9.31430077203
-9.34706653392
-9.37766577549
-9.40601367792
-9.43202330393
-9.45560586666
-9.47667185428
-9.49513031628
-9.51088782672
-9.52385098117
-9.53392555394
-9.54101485382
-9.54502181335
-9.54584859045
-9.54339625023
-9.53756536888
-9.52825603735
-9.51536822867
-9.49880160375
-9.47845381421
-9.45422523241
-9.42601448742
-9.39371841408
-9.3572374302
-9.3164701916
-9.27131380037
-9.22166721305
-9.1674274072
-9.10849119248
-9.04475258554
-8.9761046588
-8.90244156867
-8.82364801734
-8.73960565243
-8.65019561378
-8.55528494557
-8.45472986001
-8.34837839417
-8.23605865441
-8.11757628752
-7.99271023842
-7.86120442646
-7.72276349078
-7.57703508963
-7.42361364692
-7.26204751031
-7.09185244837
-6.91263222873
-6.72435132701
-6.52743152141
-6.32283408003
-6.11872271403
-1.17063485178
-1.35697657551
-1.59942608184
-1.82189380697
-2.00908390879
-2.16311155027
-2.29154906713
-2.40183971515
-2.49963482355
-2.58899494534
-2.67276643217
-2.75289374906
-2.83068365304
-2.90700576673
-2.9824306504
-3.0573265121
-3.13192729041
-3.20637745655
-3.28076323121
-3.35513359392
-3.42951392514
-3.50391570298
-3.57834229659
-3.65279126032
-3.72725944656
-3.80174211573
-3.87623428252
-3.95073185078
-4.02523081269
-4.09972761318
-4.17421933172
-4.24870325699
-4.32317709923
-4.3976386185
-4.47208568158
-4.54651644539
-4.62092880787
-4.69532068354
-4.76969007071
-4.84403461686
-4.91835202692
-4.9926399122
-5.06689549666
-5.14111602338
-5.21529856161
-5.28943984742
-5.36353644225
-5.43758458622
-5.51158020111
-5.58551887782
-5.65939573147
-5.73320558796
-5.8069431006
-5.88060237593
-5.95417712769
-6.02766085011
-6.10104648256
-6.17432638176
-6.24749244773
-6.32053606199
-6.3934479937
-6.4662182661
-6.53883634463
-6.61129113842
-6.68357059258
-6.75566187656
-6.82755167113
-6.89922580956
-6.97066909462
-7.0418655198
-7.11279832632
-7.18344971379
-7.2538006842
-7.32383129328
-7.39352053879
-7.46284601533
-7.53178409751
-7.60031018137
-7.66839835245
-7.73602108661
-7.80314972736
-7.86975450212
-7.93580383388
-8.00126441486
-8.06610170467
-8.1302797708
-8.193760666
-8.25650470048
-8.31847090326
-8.37961632628
-8.43989591062
-8.49926307374
-8.55766955304
-8.61506494321
-8.67139670255
-8.72661087111
-8.78065182095
-8.83346110338
-8.8849783393
-8.93514175172
-8.98388736151
-9.03114891754
-9.07685804986
-9.12094497142
-9.16333796748
-9.20396247442
-9.24274254186
-9.27960059176
-9.31445684765
-9.34722993197
-9.37783648733
-9.40619153727
-9.4322085362
-9.45579868385
-9.47687218633
-9.49533855083
-9.51110457328
-9.52407637298
-9.53415999222
-9.5412590292
-9.54527613982
-9.54611377814
-9.54367306822
-9.53785501077
-9.52855949496
-9.51568662507
-9.49913686779
-9.47880845923
-9.45460157155
-9.42641632059
-9.39415000439
-9.35770317494
-9.31697654272
-9.27186854078
-9.22227918375
-9.16810736467
-9.10925298312
-9.04561376885
-8.97708469225
-8.90356484916
-8.82494710354
-8.7411183023
-8.65196767772
-8.55737625731
-8.45721439905
-8.35134776066
-8.23962975401
-8.1218985415
-7.9979755458
-7.86766060622
-7.73073829182
-7.58696835147
-7.43609539288
-7.27787958617
-7.11212166186
-6.93875022857
-6.75798738286
-6.57040241784
-6.37680483224
-6.18027204697
-1.50798030893
-1.55973961498
-1.70363561353
-1.86792898146
-2.0222614246
-2.16031892659
-2.28247278468
-2.39126110566
-2.48970580118
-2.5805361394
-2.66594400122
-2.74758258214
-2.82665285025
-2.90400678389
-2.98023638873
-3.05574501545
-3.13080346805
-3.20558996136
-3.28021930107
-3.3547636776
-3.42926661783
-3.50375357121
-3.57823846734
-3.6527265978
-3.72722061279
-3.80172012889
-3.87622300118
-3.95072707189
-4.02522989614
-4.09972889734
-4.17422176831
-4.24870618363
-4.32318011284
-4.39764157975
-4.4720885204
-4.54651913671
-4.62093141301
-4.69532321656
-4.76969257336
-4.84403718572
-4.91835467514
-4.99264268171
-5.06689845389
-5.14111917329
-5.21530194383
-5.28944354251
-5.36354052577
-5.43758910595
-5.51158514331
-5.58552425512
-5.65940157775
-5.7332118801
-5.80694982226
-5.88060960182
-5.95418490967
-6.02766919368
-6.10105544045
-6.1743360398
-6.24750286026
-6.32054725386
-6.3934600386
-6.46623127298
-6.5388503259
-6.61130606827
-6.68358653726
-6.75567890408
-6.82756980484
-6.89924515299
-6.97068981504
-7.0418877131
-7.11282203552
-7.18347505345
-7.25382776332
-7.32386008523
-7.39355104264
-7.46287840721
-7.53181854074
-7.60034670363
-7.66843707912
-7.73606228023
-7.80319345879
-7.86980070155
-7.935852643
-8.00131608969
-8.06615631672
-8.13033739462
-8.19382159511
-8.2565691048
-8.31853873672
-8.37968772329
-8.43997113623
-8.49934216144
-8.55775241857
-8.6151517721
-8.67148781447
-8.72670629636
-8.78075155992
-8.83356540472
-8.88508735414
-8.93525545861
-8.98400575448
-9.03127217606
-9.07698633083
-9.1210782184
-9.16347632364
-9.20410624433
-9.2428917496
-9.27975529839
-9.31461735778
-9.34739657366
-9.37800948571
-9.40637091626
-9.43239444613
-9.45599151793
-9.47707202767
-9.49554558195
-9.51131948723
-9.52429954821
-9.53439170078
-9.54149985504
-9.54552681091
-9.54637497217
-9.543945687
-9.53814036164
-9.52885921191
-9.51600199447
-9.49947026092
-9.47916285851
-9.45497931445
-9.42682110331
-9.39458681787
-9.35817696517
-9.31749391417
-9.27243793942
-9.22291043595
-9.16881203209
-9.1100453658
-9.04651294971
-8.97811268268
-8.90474734466
-8.8263184112
-8.74271985777
-8.65384815622
-8.55959779832
-8.45985470541
-8.35450210564
-8.24341754078
-8.12647052702
-8.00352329128
-7.87442630556
-7.73903123737
-7.597189112
-7.44875662034
-7.29363266523
-7.13178100502
-6.96327589548
-6.78837057333
-6.60746051658
-6.42086526748
-6.22925934703
-1.71205405286
-1.70707291533
-1.79104820209
-1.91183760043
-2.03848034212
-2.16115974227
-2.27605685324
-2.38225289631
-2.48053653938
-2.57232609577
-2.65908714468
-2.7421028077
-2.82240727766
-2.90079409634
-2.97785161393
-3.05400410022
-3.12955173291
-3.20470291082
-3.2795996681
-3.35433729205
-3.42897793798
-3.50356144446
-3.57811284991
-3.6526469644
-3.72717147575
-3.80169109093
-3.87620699325
-3.95071920968
-4.02522699414
-4.09972891471
-4.17422340208
-4.24870860796
-4.32318279499
-4.39764429649
-4.47209118517
-4.54652167713
-4.62093385478
-4.69532557739
-4.76969487967
-4.84403953302
-4.91835707714
-4.99264512997
-5.06690101843
-5.14112190272
-5.21530487643
-5.28944672085
-5.36354397424
-5.43759284738
-5.51158914715
-5.58552847735
-5.65940605798
-5.73321663029
-5.80695480688
-5.88061489885
-5.95419063243
-6.02767536057
-6.10106206633
-6.17434320424
-6.24751064904
-6.32055568266
-6.39346911715
-6.46624108512
-6.5388608973
-6.61131733711
-6.68359853756
-6.75569174145
-6.82758351333
-6.89925975919
-6.97070544317
-7.04190448503
-7.11283995833
-7.18349413911
-7.25384811119
-7.32388172491
-7.39357391956
-7.46290258529
-7.53184418486
-7.6003738528
-7.6684657075
-7.73609251548
-7.80322545668
-7.86983450477
-7.93588836445
-8.00135399938
-8.06619659114
-8.13038003256
-8.19386669634
-8.25661683371
-8.31858909609
-8.37974074144
-8.4400270004
-8.49940099265
-8.55781416719
-8.61521653835
-8.67155596563
-8.7267779539
-8.78082660655
-8.83364402943
-8.88516989903
-8.93534208091
-8.98409647837
-9.03136719076
-9.07708600727
-9.12118264747
-9.16358554441
-9.20422053806
-9.24301130784
-9.2798802711
-9.3147479629
-9.34753302126
-9.37815197389
-9.40651940552
-9.4325489731
-9.45615260919
-9.47723995898
-9.49572034424
-9.51150164018
-9.52448970476
-9.53459012773
-9.54170718766
-9.54574385284
-9.54660257048
-9.54418481144
-9.53839227211
-9.52912578778
-9.51628500728
-9.49977183813
-9.47948625059
-9.45532739774
-9.42719751965
-9.39499693544
-9.35862639057
-9.31798933178
-9.27298789472
-9.22352548318
-9.16950468705
-9.11082994185
-9.04740855723
-8.9791427373
-8.90593795977
-8.82770321841
-8.74434110193
-8.65575515281
-8.56185162074
-8.46253176401
-8.35769569211
-8.24724240237
-8.13106842427
-8.00907180427
-7.88114607831
-7.7471940954
-7.60713419925
-7.46089968633
-7.3084698855
-7.14988807824
-6.985276987
-6.81485221816
-6.63885225808
-6.45732980272
-6.27016403369
-1.83518211632
-1.80972449509
-1.85908337209
-1.94924303225
-2.0541677527
-2.16348957327
-2.27132692993
-2.37455041375
-2.47222463128
-2.5646156247
-2.65248718612
-2.7367315315
-2.81818724949
-2.89756528006
-2.97543316235
-3.05222513511
-3.12826415916
-3.20378498701
-3.27895479808
-3.3538909533
-3.42867391729
-3.50335786903
-3.57797918058
-3.65256127597
-3.72711795324
-3.80165890663
-3.87618875677
-3.95070982898
-4.02522306354
-4.09972819772
-4.17422446502
-4.24871059037
-4.32318514315
-4.39764673531
-4.47209360266
-4.54652396568
-4.62093602076
-4.6953276641
-4.7696969006
-4.84404156116
-4.91835913347
-4.99264719275
-5.06690315757
-5.14112420125
-5.21530737838
-5.2894494429
-5.36354691706
-5.43759604838
-5.51159261886
-5.58553216502
-5.65940996591
-5.73322080926
-5.8069592521
-5.88061963154
-5.9541957319
-6.02768086813
-6.101067989
-6.17434958518
-6.2475175755
-6.3205632015
-6.39347720702
-6.46624978243
-6.5388702638
-6.6113273363
-6.68360914902
-6.75570305443
-6.82759560902
-6.89927265881
-6.97071921326
-7.04191925696
-7.11285578332
-7.18351098057
-7.2538660063
-7.32390076704
-7.39359413845
-7.46292401719
-7.53186696846
-7.60039808101
-7.66849133861
-7.73611956542
-7.80325406658
-7.86986477749
-7.93592034958
-8.00138785447
-8.06623250904
-8.13041803147
-8.19390678394
-8.25665916626
-8.31863375468
-8.37978766922
-8.44007623318
-8.49945271045
-8.55786845017
-8.61527335803
-8.67161549813
-8.72684036965
-8.78089181325
-8.83371205304
-8.88524098305
-8.93541640227
-8.9841739913
-9.03144789169
-9.07717022956
-9.12127058678
-9.16367711789
-9.20431591351
-9.24311078607
-9.27998408062
-9.31485622008
-9.34764582386
-9.37826953582
-9.40664186741
-9.43267637236
-9.45628542153
-9.47737865099
-9.49586491892
-9.51165251361
-9.52464751339
-9.53475525875
-9.54188028368
-9.54592560661
-9.54679406117
-9.54438714537
-9.53860653007
-9.52935396238
-9.5165291424
-9.50003385848
-9.47976941403
-9.45563506013
-9.42753324219
-9.39536610871
-9.3590350973
-9.31844427326
-9.27349733723
-9.22410006598
-9.17015766566
-9.11157573834
-9.0482654002
-8.98013429785
-8.90709054489
-8.82904880138
-8.74592071524
-8.65761724278
-8.56405435159
-8.4651470829
-8.36081131151
-8.25096501722
-8.13552687118
-8.01442412525
-7.88758569243
-7.75495191685
-7.61648799923
-7.47217856442
-7.3220483704
-7.16617645674
-7.00469768576
-6.83779376739
-6.66563524191
-6.48824453091
-6.30547034123
-1.90922334036
-1.87817328698
-1.90810324851
-1.97787538666
-2.06704383292
-2.16591992968
-2.26779972953
-2.36827195321
-2.46519866894
-2.55794553352
-2.64668291534
-2.7319495672
-2.81439504216
-2.89464285876
-2.97323177016
-3.0505983882
-3.12708227269
-3.20293970427
-3.2783593089
-3.35347766033
-3.42839159708
-3.50316828393
-3.57785428064
-3.65248106248
-3.72706761639
-3.80162843647
-3.87617129155
-3.95070068569
-4.02521907535
-4.0997272478
-4.17422517762
-4.24871217602
-4.32318711377
-4.39764881588
-4.47209567524
-4.54652592269
-4.62093784643
-4.69532942252
-4.76969859358
-4.84404321802
-4.91836079894
-4.99264886907
-5.0669049034
-5.1411260919
-5.2153094491
-5.28945170369
-5.3635493472
-5.43759866033
-5.51159542953
-5.58553510557
-5.65941299923
-5.73322400719
-5.80696265849
-5.88062325532
-5.95419963186
-6.02768511378
-6.10107261257
-6.1743545949
-6.24752301054
-6.32056910906
-6.39348356535
-6.46625659428
-6.53887760092
-6.61133519692
-6.68361747936
-6.75571189799
-6.82760506419
-6.89928276082
-6.9707299791
-7.04193077985
-7.11286813592
-7.18352411783
-7.25387991289
-7.32391554336
-7.39360984829
-7.46294064422
-7.53188456975
-7.60041674174
-7.66851100976
-7.73614022826
-7.80327589942
-7.86988795189
-7.93594488962
-8.00141384058
-8.06626013505
-8.13044732728
-8.19393768022
-8.25669177441
-8.31866818831
-8.37982385072
-8.4401141167
-8.49949249482
-8.55791033796
-8.6153172994
-8.67166151074
-8.72688864365
-8.78094238631
-8.83376492985
-8.88529628979
-8.93547433338
-8.98423462459
-9.03151115336
-9.07723629661
-9.12133971435
-9.16374924662
-9.20439108786
-9.24318924172
-9.28006601734
-9.31494170574
-9.34773481705
-9.37836224662
-9.4067386685
-9.43277732248
-9.4563907197
-9.47748876883
-9.49598003764
-9.51177296227
-9.52477385411
-9.53488800369
-9.5420199511
-9.54607299796
-9.54695013347
-9.54455324428
-9.53878382937
-9.52954416285
-9.51673448385
-9.50025630084
-9.48001203595
-9.45590152739
-9.42782709937
-9.39569242709
-9.35940009207
-9.31885490373
-9.27396177458
-9.22462844208
-9.17076333011
-9.11227337755
-9.04907209614
-8.98107293249
-8.90818748352
-8.83033444892
-8.74743384169
-8.65940444344
-8.56617042211
-8.46765849724
-8.36379853412
-8.25452548316
-8.1397764791
-8.01950160811
-7.89365876691
-7.76221666994
-7.6251726233
-7.48254757352
-7.33439628689
-7.18082013551
-7.02196536718
-6.8580115361
-6.68913896489
-6.51546311338
-6.3370477866
-1.95145579732
-1.91989212818
-1.93953668781
-1.99698191494
-2.07599582778
-2.16777359428
-2.26539172872
-2.36377944644
-2.46006091291
-2.55299524922
-2.64232807878
-2.7283322158
-2.81150841712
-2.89240770912
-2.97154193591
-3.04934609671
-3.12617033491
-3.20228625908
-3.27789830185
-3.35315729223
-3.42817244585
-3.50302090152
-3.57775682412
-3.65241725054
-3.72702817219
-3.80160463814
-3.87615759633
-3.95069345729
-4.02521586403
-4.09972642265
-4.17422565819
-4.2487133511
-4.32318861986
-4.39765040858
-4.47209726033
-4.54652742875
-4.62093925197
-4.69533078271
-4.7696998935
-4.84404444832
-4.91836202294
-4.99265013059
-5.06690624466
-5.14112754706
-5.21531103382
-5.28945344809
-5.36355124164
-5.43760067957
-5.51159757608
-5.58553732984
-5.65941525415
-5.73322637082
-5.80696521614
-5.88062600727
-5.95420258658
-6.02768833475
-6.10107615358
-6.17435844415
-6.24752714522
-6.32057356977
-6.39348837075
-6.46626173113
-6.5388831113
-6.61134110875
-6.68362374362
-6.75571850656
-6.82761210927
-6.89929031893
-6.97073804272
-7.04193937174
-7.11287733915
-7.18353393732
-7.25389030686
-7.32392657892
-7.39362163145
-7.46295315272
-7.53189774545
-7.60043063024
-7.66852564293
-7.73615558987
-7.80329207703
-7.86990511997
-7.93596311856
-8.00143312977
-8.06628060798
-8.13046908762
-8.19396065161
-8.25671591292
-8.31869357487
-8.37985051456
-8.44014199437
-8.4995216586
-8.55794101741
-8.61534950983
-8.67169514058
-8.72692380844
-8.78097923014
-8.83380348059
-8.88533652719
-8.93551636289
-8.98427865343
-9.03155717145
-9.07728433214
-9.12138997058
-9.16380176272
-9.20444585119
-9.24324637943
-9.28012566874
-9.315003983
-9.34779968261
-9.37842983808
-9.40680945996
-9.43285148261
-9.45646821753
-9.47756997277
-9.49606534541
-9.51186264308
-9.52486850271
-9.53498808381
-9.54212598835
-9.54618575779
-9.54707062559
-9.54468286788
-9.53892379696
-9.52969601203
-9.51690054655
-9.50043860855
-9.48021337666
-9.45612576551
-9.42807795327
-9.39597453309
-9.35971945381
-9.31921878529
-9.2743786084
-9.22510778152
-9.17131800233
-9.11291837828
-9.04982372407
-8.98195270165
-8.90922154746
-8.83155215745
-8.74887138533
-8.66110588351
-8.56818749563
-8.47005301943
-8.36664419196
-8.25791102607
-8.14380683633
-8.02429942621
-7.89937089869
-7.76901395955
-7.6332497991
-7.49212814757
-7.34572972356
-7.19417830816
-7.03764314647
-6.87633223861
-6.71048253313
-6.54034228813
-6.36621176018
-1.97070401993
-1.93960806577
-1.95483201488
-2.00649850196
-2.08055699039
-2.16875740146
-2.26416163721
-2.36143063772
-2.45734252401
-2.55035359473
-2.63998927345
-2.72638002961
-2.80994474616
-2.89119350848
-2.97062201928
-3.04866329233
-3.12567247752
-3.20192914588
-3.27764618866
-3.35298199814
-3.42805245203
-3.50294019254
-3.57770357585
-3.65238318778
-3.72700666335
-3.80159161561
-3.87615012661
-3.95068952418
-4.02521411244
-4.09972598316
-4.17422594554
-4.2487140477
-4.32318954064
-4.39765138428
-4.4720982291
-4.54652837272
-4.62094014705
-4.69533165789
-4.76970073204
-4.84404522097
-4.91836279246
-4.99265095752
-5.06690715258
-5.14112853561
-5.21531209861
-5.2894546356
-5.36355256505
-5.43760207679
-5.51159901581
-5.58553879691
-5.65941672171
-5.73322788836
-5.80696686711
-5.8806278169
-5.95420456016
-6.02769050415
-6.10107856507
-6.17436107359
-6.24752992959
-6.32057653659
-6.39349158855
-6.46626519233
-6.53888679906
-6.6113450422
-6.68362791001
-6.75572288011
-6.82761673504
-6.89929527796
-6.97074334163
-7.04194498747
-7.11288332495
-7.18354034337
-7.2538971061
-7.32393378207
-7.39362933197
-7.46296135146
-7.53190632794
-7.6004395821
-7.66853505165
-7.73616547887
-7.80330245422
-7.8699161063
-7.93597482822
-8.00144554431
-8.06629376546
-8.13048309966
-8.1939754541
-8.25673135605
-8.31870968135
-8.37986741575
-8.4401596915
-8.49954010173
-8.55796035194
-8.61536981692
-8.67171629638
-8.72694584209
-8.78100229568
-8.8338276492
-8.88536175105
-8.93554263004
-8.98430617656
-9.03158604714
-9.07731449563
-9.12142146598
-9.16383468809
-9.20448022279
-9.24328219798
-9.28016298601
-9.31504296564
-9.34784040997
-9.37847233927
-9.40685411783
-9.43289857886
-9.45651766886
-9.47762212042
-9.49612065336
-9.51192138624
-9.52493113878
-9.53505512332
-9.54219797216
-9.54626356909
-9.54715520944
-9.54477549449
-9.53902579021
-9.52980886866
-9.51702663097
-9.50058005298
-9.48037260569
-9.45630658203
-9.4282843595
-9.39621108321
-9.35999192092
-9.31953440002
-9.27474610077
-9.22553643589
-9.17181982218
-9.11350859043
-9.05051860439
-8.98277244677
-8.91019170714
-8.83270158708
-8.75023429817
-8.66272394509
-8.57010999272
-8.47233845954
-8.36936125184
-8.26114176169
-8.14764857852
-8.02886413687
-7.90479099473
-7.7754441915
-7.64086586487
-7.5011310328
-7.35634797616
-7.20666787979
-7.05229350733
-6.89347901244
-6.73053496794
-6.56383562841
-6.39386538367
-1.97070404599
-1.93960761963
-1.95483247612
-2.00649836675
-2.08055704808
-2.16875764661
-2.26416153138
-2.36143061011
-2.45734261382
-2.55035355705
-2.63998923715
-2.72638004246
-2.80994471793
-2.89119347034
-2.97062200907
-3.04866335715
-3.12567258935
-3.20192924658
-3.27764633133
-3.35298213699
-3.42805253031
-3.50294030111
-3.57770368357
-3.65238324474
-3.72700672961
-3.8015917027
-3.87615023943
-3.95068964945
-4.0252142208
-4.0997261002
-4.17422607514
-4.24871421956
-4.32318979148
-4.39765166247
-4.47209851672
-4.54652868535
-4.62094045852
-4.69533197093
-4.76970104489
-4.84404551422
-4.91836310617
-4.99265132997
-5.0669075871
-5.14112903074
-5.2153126491
-5.28945527909
-5.36355331876
-5.43760284882
-5.51159974109
-5.58553950464
-5.65941743257
-5.733228621
-5.80696767289
-5.88062872878
-5.95420558805
-6.02769165519
-6.10107984618
-6.17436246232
-6.24753136201
-6.32057802081
-6.39349320919
-6.46626695466
-6.53888864095
-6.61134695354
-6.68362992546
-6.75572499995
-6.82761894422
-6.89929761664
-6.97074585349
-7.04194765339
-7.11288614226
-7.18354336537
-7.25390035156
-7.32393722153
-7.39363297885
-7.46296522238
-7.53191034024
-7.60044366321
-7.66853925655
-7.7361698786
-7.80330703965
-7.8699209076
-7.93597997148
-8.00145107202
-8.0662996278
-8.13048929477
-8.1939819541
-8.25673805733
-8.31871654501
-8.37987455067
-8.44016716827
-8.4995478285
-8.55796834235
-8.61537818405
-8.67172498696
-8.72695480591
-8.78101159311
-8.83383736333
-8.88537190532
-8.93555316713
-8.98431723282
-9.03159773766
-9.07732671671
-9.1214341905
-9.16384798273
-9.20449412182
-9.24329666847
-9.28017797329
-9.31505864628
-9.34785699496
-9.378489786
-9.40687261428
-9.43291846526
-9.45653898774
-9.47764518427
-9.49614588953
-9.51194905685
-9.52496159469
-9.53508889257
-9.54223576261
-9.54630623171
-9.54720363728
-9.5448309115
-9.53908953653
-9.52988232367
-9.51711213555
-9.50068000837
-9.48048921914
-9.45644330951
-9.42844543938
-9.39640136108
-9.36021710299
-9.3198013957
-9.2750637946
-9.22591426209
-9.17226904494
-9.11404443779
-9.05115791809
-8.98353461794
-8.91110147189
-8.83378774496
-8.75153024408
-8.66426991103
-8.5719537035
-8.47453655845
-8.37197969661
-8.26425847211
-8.15135668724
-8.03327063872
-7.91002045561
-7.78164317175
-7.64820161764
-7.50979541217
-7.36656204123
-7.21868478659
-7.06640514889
-6.91002853309
-6.74993583951
-6.58659863111
-6.42061973896
-1.95145589859
-1.91989086368
-1.9395379556
-1.99698155584
-2.0759959559
-2.16777424034
-2.2653915019
-2.36377940573
-2.46006112214
-2.55299514219
-2.6423280054
-2.72833223655
-2.81150833207
-2.89240764902
-2.97154194888
-3.04934628015
-3.12617063215
-3.20228655106
-3.27789874484
-3.35315773232
-3.42817269987
-3.50302120117
-3.57775709875
-3.6524174056
-3.72702837855
-3.8016048988
-3.87615791845
-3.95069381832
-4.02521619749
-4.09972679856
-4.17422608122
-4.24871388549
-4.323189366
-4.3976512372
-4.47209812798
-4.54652837257
-4.62094019036
-4.69533172629
-4.76970083857
-4.84404533987
-4.91836297066
-4.99265123315
-5.06690751399
-5.14112900031
-5.21531267563
-5.28945536931
-5.3635534663
-5.43760296356
-5.51159975288
-5.5855394669
-5.65941740293
-5.73322859178
-5.80696764479
-5.88062873769
-5.95420566465
-6.02769178177
-6.10107997778
-6.17436257981
-6.24753144333
-6.32057806555
-6.39349326757
-6.46626702466
-6.53888864675
-6.61134686215
-6.68362978493
-6.75572483823
-6.82761872031
-6.89929732371
-6.97074554795
-7.0419473423
-7.1128857924
-7.18354300229
-7.25390001813
-7.32393688175
-7.39363258441
-7.46296477156
-7.53190977815
-7.60044289998
-7.66853830485
-7.73616881417
-7.80330585877
-7.86991959124
-7.93597861796
-8.00144973038
-8.06629817429
-8.13048762973
-8.19398008928
-8.25673599525
-8.3187142318
-8.37987199099
-8.44016441818
-8.49954480627
-8.55796496729
-8.61537454873
-8.67172112787
-8.72695066912
-8.78100715603
-8.83383266833
-8.88536702704
-8.93554804877
-8.98431186884
-9.03159220899
-9.0773209496
-9.12142811923
-9.16384159431
-9.20448744715
-9.24328972031
-9.28017065587
-9.31505101991
-9.34784930813
-9.3784820564
-9.40686489847
-9.43291108468
-9.45653216398
-9.47763911817
-9.4961410408
-9.51194555552
-9.52495975823
-9.53508931758
-9.54223922316
-9.54631359884
-9.54721568599
-9.54484880141
-9.53911476559
-9.52991616435
-9.51715665377
-9.50073782068
-9.48056264651
-9.45653560426
-9.42856090555
-9.3965450613
-9.36039483193
-9.32001974639
-9.2753316442
-9.22624165106
-9.17266699652
-9.11452781922
-9.05174417165
-8.9842430966
-8.91195640555
-8.83481816886
-8.75276968742
-8.66575826574
-8.57373815269
-8.4766733535
-8.37453458802
-8.26730793514
-8.15499227201
-8.03759843267
-7.91516250358
-7.78774366714
-7.65542662469
-7.51833543004
-7.3766366293
-7.23054670085
-7.08034561329
-6.92638522583
-6.76910287015
-6.60903472497
-6.44684447024
-1.90922354556
-1.87817137518
-1.90810507548
-1.97787496048
-2.0670439522
-2.1659207652
-2.26779956682
-2.3682720175
-2.465198905
-2.55794538194
-2.6466828488
-2.73194956877
-2.81439493688
-2.89464287305
-2.97323186064
-3.0505986458
-3.1270826919
-3.20294018106
-3.27836004515
-3.35347840131
-3.42839206768
-3.50316875831
-3.57785466508
-3.65248131608
-3.72706797423
-3.80162884995
-3.87617178506
-3.95070126737
-4.02521966305
-4.0997279283
-4.17422594533
-4.24871311339
-4.32318835581
-4.3976501939
-4.47209713393