/*--------------------------------*- C++ -*----------------------------------*\
| =========                 |                                                 |
| \\      /  F ield         | OpenFOAM: The Open Source CFD Toolbox           |
|  \\    /   O peration     | Version:  2106                                  |
|   \\  /    A nd           | Website:  www.openfoam.com                      |
|    \\/     M anipulation  |                                                 |
\*---------------------------------------------------------------------------*/
FoamFile
{
    version     2.0;
    format      ascii;
    arch        "LSB;label=32;scalar=64";
    class       surfaceScalarField;
    location    "0.41";
    object      phi;
}
// * * * * * * * * * * * * * * * * * * * * * * * * * * * * * * * * * * * * * //

dimensions      [0 3 -1 0 0 0 0];

oriented        oriented;

internalField   nonuniform List<scalar> 
18840
(
3.37543045921e-05
1.624569542e-05
2.25359625911e-05
1.12183413461e-05
1.63023776986e-05
6.23358463446e-06
1.28098255148e-05
3.49255310555e-06
1.08065803707e-05
2.00324497496e-06
9.6047692801e-06
1.20181083278e-06
8.85167886851e-06
7.53090621158e-07
8.36503107e-06
4.86647849208e-07
8.04518640527e-06
3.19844558168e-07
7.83374225041e-06
2.11444101793e-07
7.69428220953e-06
1.39459905673e-07
7.60308054286e-06
9.12016583757e-08
7.54426573776e-06
5.88148200146e-08
7.50707745459e-06
3.71882146255e-08
7.48418957458e-06
2.28879512768e-08
7.47062414625e-06
1.3565517868e-08
7.46302161363e-06
7.60252057941e-09
7.45913886083e-06
3.88276322717e-09
7.45749913844e-06
1.63974458121e-09
7.45714606455e-06
3.53083578306e-10
7.45748342707e-06
-3.3736744429e-10
7.4581344838e-06
-6.51070904925e-10
7.45888652574e-06
-7.51997933879e-10
7.45962027978e-06
-7.33722588997e-10
7.46027675022e-06
-6.56479358243e-10
7.46083328683e-06
-5.56470378174e-10
7.4612875396e-06
-4.54218638346e-10
7.46164774821e-06
-3.60250810242e-10
7.46192692893e-06
-2.79191251593e-10
7.46213911248e-06
-2.1221893151e-10
7.46229762466e-06
-1.58583810265e-10
7.46241424985e-06
-1.16681218401e-10
7.46249881387e-06
-8.46090244763e-11
7.46255929715e-06
-6.05052822248e-11
7.46260195544e-06
-4.26826416432e-11
7.46263162398e-06
-2.96797921679e-11
7.46265200633e-06
-2.03523202431e-11
7.4626657816e-06
-1.37623325587e-11
7.4626749428e-06
-9.14515106768e-12
7.46268096187e-06
-5.97862005839e-12
7.46268483911e-06
-3.84351705593e-12
7.46268735148e-06
-2.48381178389e-12
7.4626889262e-06
-1.52839899703e-12
7.46268980824e-06
-8.86036899353e-13
7.46269031714e-06
-5.23175490112e-13
7.46269063281e-06
-3.44475623712e-13
7.4626908441e-06
-2.69556616109e-13
7.46269103489e-06
-2.45189440404e-13
7.46269123196e-06
-2.42025396911e-13
7.46269145317e-06
-2.42688992239e-13
7.46269171604e-06
-2.66295734545e-13
7.4626919854e-06
-2.92656838273e-13
7.46269226369e-06
-2.99657759717e-13
7.46269259078e-06
-3.24049479489e-13
7.46269293887e-06
-3.68407991796e-13
7.46269329692e-06
-3.9382407901e-13
7.46269370908e-06
-4.1813381778e-13
7.46269417196e-06
-4.67529136642e-13
7.46269466393e-06
-5.17637679567e-13
7.46269519444e-06
-5.49080939943e-13
7.4626957826e-06
-5.79713600086e-13
7.46269643078e-06
-6.27567529059e-13
7.4626971046e-06
-6.58720417156e-13
7.46269780057e-06
-6.52229677959e-13
7.46269853883e-06
-6.64258017462e-13
7.46269927323e-06
-7.14450890217e-13
7.46269998181e-06
-7.54866460686e-13
7.46270071922e-06
-7.90142716132e-13
7.46270150903e-06
-8.56410148982e-13
7.46270232846e-06
-9.29865898529e-13
7.46270318995e-06
-9.6632041806e-13
7.46270414467e-06
-9.89687021604e-13
7.4627051899e-06
-1.03393257252e-12
7.4627062628e-06
-1.06541465766e-12
7.46270736005e-06
-1.06721008688e-12
7.46270851139e-06
-1.09765615182e-12
7.46270967799e-06
-1.17306115667e-12
7.46271082568e-06
-1.23151050823e-12
7.46271201721e-06
-1.26512336905e-12
7.46271330917e-06
-1.33007098077e-12
7.46271466008e-06
-1.39717065582e-12
7.46271606052e-06
-1.39983096364e-12
7.46271754321e-06
-1.393110632e-12
7.46271905316e-06
-1.45379268982e-12
7.46272053212e-06
-1.53583121591e-12
7.46272204564e-06
-1.58690528426e-12
7.46272367691e-06
-1.66214252755e-12
7.46272536528e-06
-1.76272971934e-12
7.46272706452e-06
-1.79652768016e-12
7.4627288722e-06
-1.80128521043e-12
7.46273079718e-06
-1.8751813653e-12
7.46273275062e-06
-1.96164676647e-12
7.46273474865e-06
-1.98989678877e-12
7.46273687038e-06
-2.04442914275e-12
7.46273911951e-06
-2.20128626992e-12
7.46274142789e-06
-2.35002923747e-12
7.46274386281e-06
-2.42035450315e-12
7.46274653544e-06
-2.54846906376e-12
7.46274933391e-06
-2.74804126201e-12
7.46275224501e-06
-2.91165440601e-12
7.4627554373e-06
-3.11732543889e-12
7.46275895488e-06
-3.4232778463e-12
7.46276283599e-06
-3.81755164959e-12
7.46276711729e-06
-4.23065585986e-12
7.46277197516e-06
-4.70464231279e-12
7.46277755699e-06
-5.37718441253e-12
7.46278384941e-06
-6.20744870203e-12
7.4627910925e-06
-7.17670678902e-12
7.46279961712e-06
-8.42443809052e-12
7.46280970845e-06
-1.00157302507e-11
7.46282177747e-06
-1.19467526348e-11
7.46283622722e-06
-1.42565982386e-11
7.46285365894e-06
-1.71274867352e-11
7.46287479548e-06
-2.08094375981e-11
7.4629003173e-06
-2.53832603934e-11
7.46293136267e-06
-3.09855271137e-11
7.46296952907e-06
-3.80392002775e-11
7.46301629741e-06
-4.67997964213e-11
7.46307376181e-06
-5.74902341924e-11
7.46314466409e-06
-7.07431109418e-11
7.4632319834e-06
-8.71906920558e-11
7.46333960633e-06
-1.07541008372e-10
7.46347258633e-06
-1.32870402707e-10
7.46363761383e-06
-1.64869496495e-10
7.46384556425e-06
-2.07996991392e-10
7.46409908534e-06
-2.53349113343e-10
7.46441145902e-06
-3.12534115759e-10
7.46479815501e-06
-3.86526392982e-10
7.46527654407e-06
-4.78626266832e-10
7.46586922428e-06
-5.92617553094e-10
7.46660348183e-06
-7.34216298914e-10
7.46751260473e-06
-9.09462397408e-10
7.46863890669e-06
-1.12628500227e-09
7.47003445034e-06
-1.39525275649e-09
7.47176323791e-06
-1.72877943444e-09
7.47390543414e-06
-2.14230744089e-09
7.47656053849e-06
-2.65526604218e-09
7.47985268817e-06
-3.29220467206e-09
7.48393574941e-06
-4.08341924618e-09
7.48900141386e-06
-5.06620389786e-09
7.49529067435e-06
-6.28891057968e-09
7.50310336955e-06
-7.81242912337e-09
7.51281552218e-06
-9.71244635708e-09
7.52490279976e-06
-1.20868602898e-08
7.53996506104e-06
-1.50618265597e-08
7.55876381163e-06
-1.87990941252e-08
7.58227441141e-06
-2.35108207676e-08
7.61175308752e-06
-2.94787720243e-08
7.64883455967e-06
-3.70816398635e-08
7.69567360577e-06
-4.68393061171e-08
7.75516025142e-06
-5.94869215306e-08
7.83127716398e-06
-7.6116315615e-08
7.92975897602e-06
-9.84815220872e-08
8.05955024251e-06
-1.29791504976e-07
8.23656484524e-06
-1.77013967021e-07
8.49432095098e-06
-2.57755827412e-07
8.91548629688e-06
-4.21165957413e-07
9.73199638869e-06
-8.16510204399e-07
1.16557117693e-05
-1.92371550306e-06
-5.20485952488e-06
1.68605706556e-05
5.01388819252e-05
1.61068142049e-05
4.41591299336e-05
1.71980939881e-05
3.77598734243e-05
1.26328399306e-05
3.26495146493e-05
8.60291241352e-06
2.89465825382e-05
5.70617751379e-06
2.63676033347e-05
3.7807897419e-06
2.45938854164e-05
2.52680842244e-06
2.337839856e-05
1.7021346921e-06
2.25473239498e-05
1.15091898837e-06
2.1981157e-05
7.77611035799e-07
2.15978045678e-05
5.22812199022e-07
2.13405415871e-05
3.48464586147e-07
2.11699442942e-05
2.29412307599e-07
2.10585366466e-05
1.48595887547e-07
2.09871856291e-05
9.42389670374e-08
2.09426222271e-05
5.8129031718e-08
2.09157077304e-05
3.45170331245e-08
2.09002079221e-05
1.93825420413e-08
2.08919204212e-05
9.92722750432e-09
2.08880552525e-05
4.2182605484e-09
2.08867855888e-05
9.32352362681e-10
2.08869505563e-05
-8.16021897616e-10
2.08878288818e-05
-1.63026659871e-09
2.08889874664e-05
-1.89220945627e-09
2.08901808769e-05
-1.84992828785e-09
2.0891281462e-05
-1.65706946063e-09
2.08922330087e-05
-1.4057236008e-09
2.08930206743e-05
-1.14798087606e-09
2.0893652251e-05
-9.10838187436e-10
2.08941461157e-05
-7.06143741274e-10
2.08945243183e-05
-5.36873194617e-10
2.08948088272e-05
-4.01250174583e-10
2.08950194326e-05
-2.95266237037e-10
2.08951730613e-05
-2.14151325886e-10
2.08952835687e-05
-1.53191695306e-10
2.08953619499e-05
-1.08092169915e-10
2.08954168402e-05
-7.521846485e-11
2.08954547457e-05
-5.16098742968e-11
2.08954805113e-05
-3.48733048853e-11
2.08954977836e-05
-2.31613651295e-11
2.08955090931e-05
-1.50961088309e-11
2.08955162396e-05
-9.60154021575e-12
2.08955206764e-05
-5.95555946407e-12
2.08955233617e-05
-3.61500034074e-12
2.08955248821e-05
-2.14369492216e-12
2.08955256734e-05
-1.23410017318e-12
2.08955260305e-05
-7.15447535588e-13
2.08955262531e-05
-5.24273214544e-13
2.0895526415e-05
-4.28254771669e-13
2.0895526534e-05
-3.78077066323e-13
2.08955266677e-05
-3.79460829141e-13
2.08955268084e-05
-4.31638164947e-13
2.08955269377e-05
-4.8467961436e-13
2.08955271116e-05
-5.31231304728e-13
2.08955273262e-05
-6.05599932709e-13
2.08955275451e-05
-6.83809349797e-13
2.08955278011e-05
-7.39364743493e-13
2.08955281133e-05
-7.96335139152e-13
2.08955284649e-05
-8.68763299441e-13
2.08955288514e-05
-9.36820788015e-13
2.0895529286e-05
-9.86310846146e-13
2.08955297916e-05
-1.03793409375e-12
2.08955303311e-05
-1.1038899942e-12
2.08955308633e-05
-1.15821843313e-12
2.08955314199e-05
-1.21428721757e-12
2.08955319897e-05
-1.31039808791e-12
2.08955325281e-05
-1.41956013994e-12
2.08955330681e-05
-1.49777942779e-12
2.08955336602e-05
-1.56418307432e-12
2.08955342982e-05
-1.64570346952e-12
2.08955349635e-05
-1.71565685226e-12
2.0895535695e-05
-1.75227439512e-12
2.08955365207e-05
-1.80001059756e-12
2.08955373803e-05
-1.88254513566e-12
2.08955382333e-05
-1.9588798882e-12
2.08955391174e-05
-2.02612366121e-12
2.08955400357e-05
-2.12634831226e-12
2.08955409449e-05
-2.23926667804e-12
2.08955418769e-05
-2.31398330885e-12
2.08955429175e-05
-2.37744059072e-12
2.08955440451e-05
-2.46106621174e-12
2.08955451975e-05
-2.52974961972e-12
2.08955463936e-05
-2.59578132769e-12
2.08955476418e-05
-2.7260159081e-12
2.08955488958e-05
-2.89770678504e-12
2.08955501646e-05
-3.02279570885e-12
2.08955515514e-05
-3.11818274183e-12
2.0895553061e-05
-3.25641934147e-12
2.08955546092e-05
-3.39325177658e-12
2.08955562547e-05
-3.48205586736e-12
2.08955580723e-05
-3.6008605716e-12
2.08955600019e-05
-3.79611589381e-12
2.08955620107e-05
-4.01145253134e-12
2.08955641917e-05
-4.23395102013e-12
2.08955666584e-05
-4.54987703626e-12
2.0895569365e-05
-4.96354283879e-12
2.08955723042e-05
-5.36083364194e-12
2.08955756739e-05
-5.79039044387e-12
2.08955794993e-05
-6.38496953821e-12
2.08955837662e-05
-7.10348583459e-12
2.08955886328e-05
-7.92199040157e-12
2.08955942781e-05
-8.92654296556e-12
2.08956009149e-05
-1.02165973763e-11
2.08956086796e-05
-1.17951806124e-11
2.08956178373e-05
-1.36623864263e-11
2.08956288018e-05
-1.60114780657e-11
2.08956418246e-05
-1.89932927711e-11
2.08956573628e-05
-2.26130057981e-11
2.089567605e-05
-2.69557198235e-11
2.08956983519e-05
-3.20266095792e-11
2.08957252087e-05
-3.84238464041e-11
2.08957590326e-05
-4.77126932411e-11
2.0895800707e-05
-5.84808100977e-11
2.08958520528e-05
-7.17418573639e-11
2.08959151648e-05
-8.82651261746e-11
2.0895992799e-05
-1.08658736525e-10
2.08960887841e-05
-1.33871716604e-10
2.08962073448e-05
-1.65168076056e-10
2.08963537352e-05
-2.03826940659e-10
2.08965348537e-05
-2.51597386469e-10
2.08967587612e-05
-3.10802149221e-10
2.0897035394e-05
-3.84075614076e-10
2.08973773557e-05
-4.74593011831e-10
2.08977992435e-05
-5.86829533456e-10
2.08983175957e-05
-7.26111163399e-10
2.08989637538e-05
-8.99776338526e-10
2.08997664746e-05
-1.11517545928e-09
2.09007622743e-05
-1.38228376723e-09
2.09019963906e-05
-1.71292592418e-09
2.09035255569e-05
-2.12213510681e-09
2.09054207832e-05
-2.62915476962e-09
2.09077687442e-05
-3.2573771676e-09
2.0910677712e-05
-4.03546826598e-09
2.09142823022e-05
-4.99970721756e-09
2.09187486883e-05
-6.19512617891e-09
2.09242836795e-05
-7.67747228529e-09
2.09311439675e-05
-9.51610422003e-09
2.09396495628e-05
-1.17978972741e-08
2.09501984574e-05
-1.46318897964e-08
2.09632853321e-05
-1.81536594766e-08
2.09795302021e-05
-2.25340272289e-08
2.09997081393e-05
-2.79898699031e-08
2.10247896807e-05
-3.47947334282e-08
2.10559992273e-05
-4.32972020079e-08
2.10948842816e-05
-5.39464994257e-08
2.11434093934e-05
-6.73239675196e-08
2.12040894077e-05
-8.41906820411e-08
2.12801694222e-05
-1.05558470745e-07
2.13758846356e-05
-1.32796424613e-07
2.1496847809e-05
-1.67802194165e-07
2.16506534389e-05
-2.13293691607e-07
2.18478891184e-05
-2.73352449324e-07
2.21039258699e-05
-3.54517743872e-07
2.24423235503e-05
-4.68189742029e-07
2.29016348963e-05
-6.36324975819e-07
2.3549240405e-05
-9.05359644864e-07
2.45075913757e-05
-1.37951602747e-06
2.59903098956e-05
-2.29922769462e-06
2.82896240327e-05
-4.22302835624e-06
-8.27090273881e-06
3.13556674284e-05
5.3584426355e-05
1.2522387577e-05
5.2916601575e-05
1.78659201393e-05
4.96393014005e-05
1.59101391544e-05
4.58382170401e-05
1.24039967041e-05
4.2442874983e-05
9.10152001999e-06
3.9733159578e-05
6.49050505862e-06
3.76912455383e-05
4.56872234622e-06
3.62011672821e-05
3.19221296081e-06
3.51355937482e-05
2.21649233942e-06
3.4384844711e-05
1.52836010134e-06
3.38626591536e-05
1.04499773099e-06
3.35040067246e-05
7.07116905614e-07
3.3260962844e-05
4.72456331997e-07
3.30987209096e-05
3.10837915264e-07
3.29922909208e-05
2.00668916096e-07
3.29239198334e-05
1.26500176176e-07
3.28811299677e-05
7.73069458319e-08
3.28552513675e-05
4.52611408682e-08
3.28403348438e-05
2.48437268301e-08
3.28323548848e-05
1.2198199591e-08
3.28286290068e-05
4.65826904288e-09
3.28274050527e-05
4.07916410054e-10
3.28275644593e-05
-1.78970255674e-09
3.28284105971e-05
-2.73825968561e-09
3.28295267309e-05
-2.9660472211e-09
3.28306764067e-05
-2.80676911426e-09
3.28317366211e-05
-2.46588425597e-09
3.28326531096e-05
-2.06448603144e-09
3.28334117535e-05
-1.66953934808e-09
3.28340200342e-05
-1.3144617876e-09
3.28344956287e-05
-1.01251832451e-09
3.2834859854e-05
-7.65512244041e-10
3.28351338066e-05
-5.69269383452e-10
3.28353365888e-05
-4.16963906764e-10
3.2835484499e-05
-3.01088745637e-10
3.28355908211e-05
-2.14433202197e-10
3.28356662218e-05
-1.50613261414e-10
3.28357189573e-05
-1.04312759784e-10
3.28357552716e-05
-7.1172477046e-11
3.28357799207e-05
-4.7769709668e-11
3.28357963706e-05
-3.14927637705e-11
3.28358071128e-05
-2.03466461996e-11
3.28358140075e-05
-1.28500689515e-11
3.28358183008e-05
-7.93815584457e-12
3.28358208826e-05
-4.79830705188e-12
3.28358224297e-05
-2.84447056201e-12
3.28358233314e-05
-1.66915356595e-12
3.28358237765e-05
-9.87505079973e-13
3.28358239721e-05
-6.17956170355e-13
3.28358240193e-05
-4.3874671731e-13
3.28358240417e-05
-4.01855807439e-13
3.28358240714e-05
-4.49188407262e-13
3.28358240819e-05
-5.32443009168e-13
3.28358241133e-05
-6.11206748052e-13
3.28358241945e-05
-7.07346403021e-13
3.28358242895e-05
-8.22643414059e-13
3.28358244062e-05
-9.22248946643e-13
3.28358245757e-05
-1.00930506927e-12
3.28358247953e-05
-1.10302886826e-12
3.28358250501e-05
-1.19533633146e-12
3.28358253337e-05
-1.26268697801e-12
3.2835825675e-05
-1.31571865629e-12
3.28358260592e-05
-1.39122102578e-12
3.28358264197e-05
-1.48672717074e-12
3.28358267717e-05
-1.58505978964e-12
3.283582714e-05
-1.70555672549e-12
3.28358274924e-05
-1.84604787444e-12
3.28358278331e-05
-1.96628505535e-12
3.28358282041e-05
-2.04568376434e-12
3.28358286264e-05
-2.12555414395e-12
3.28358290808e-05
-2.20963746148e-12
3.28358295684e-05
-2.26838800975e-12
3.2835830124e-05
-2.32824105044e-12
3.28358307219e-05
-2.43852706749e-12
3.28358313068e-05
-2.57166092442e-12
3.2835831895e-05
-2.68321451337e-12
3.28358325192e-05
-2.79710941776e-12
3.28358331492e-05
-2.92776253988e-12
3.28358337786e-05
-3.02631253004e-12
3.28358344953e-05
-3.09409584099e-12
3.28358353103e-05
-3.19782075046e-12
3.28358361335e-05
-3.3414262865e-12
3.28358369605e-05
-3.49346947717e-12
3.28358378517e-05
-3.67825039764e-12
3.28358387936e-05
-3.90654997925e-12
3.28358397392e-05
-4.10550227913e-12
3.28358407695e-05
-4.24664001228e-12
3.2835841956e-05
-4.41882002605e-12
3.28358432109e-05
-4.64189812039e-12
3.28358445284e-05
-4.84305141434e-12
3.28358460131e-05
-5.05653501125e-12
3.28358476739e-05
-5.38195857604e-12
3.28358494639e-05
-5.81096491846e-12
3.28358514263e-05
-6.26952265532e-12
3.28358537283e-05
-6.79743184952e-12
3.28358564106e-05
-7.48856813258e-12
3.28358593946e-05
-8.28301186309e-12
3.28358628302e-05
-9.14309003824e-12
3.2835866802e-05
-1.01788619407e-11
3.28358712366e-05
-1.14037159307e-11
3.28358766553e-05
-1.32625127647e-11
3.28358831796e-05
-1.53730143633e-11
3.28358911223e-05
-1.79511637137e-11
3.28359007203e-05
-2.11588203385e-11
3.28359122661e-05
-2.50836810953e-11
3.28359263624e-05
-2.99273777925e-11
3.28359435489e-05
-3.60022944e-11
3.28359645434e-05
-4.35299103065e-11
3.28359905003e-05
-5.27651089176e-11
3.28360228769e-05
-6.41422317528e-11
3.28360631248e-05
-7.82736771602e-11
3.28361116854e-05
-9.58834380688e-11
3.28361710999e-05
-1.17674634782e-10
3.2836244256e-05
-1.44666742921e-10
3.28363344441e-05
-1.78227630871e-10
3.28364454991e-05
-2.19748923869e-10
3.28365827346e-05
-2.71022326438e-10
3.28367524001e-05
-3.34560997908e-10
3.28369619329e-05
-4.13202841532e-10
3.28372209968e-05
-5.1045791797e-10
3.28375413378e-05
-6.30948227875e-10
3.28379375208e-05
-7.80019155063e-10
3.28384275964e-05
-9.64650800304e-10
3.2839034198e-05
-1.19336210799e-09
3.28397851267e-05
-1.47705017846e-09
3.28407142624e-05
-1.82871607736e-09
3.284186373e-05
-2.26494706358e-09
3.28432871984e-05
-2.80555721654e-09
3.28450497311e-05
-3.47547121409e-09
3.28472321213e-05
-4.30503239702e-09
3.28499355708e-05
-5.3325284445e-09
3.28532841013e-05
-6.60569496197e-09
3.2857431596e-05
-8.18307020528e-09
3.28625696168e-05
-1.01377132666e-08
3.2868935146e-05
-1.25606755611e-08
3.2876822739e-05
-1.55650973911e-08
3.28865976763e-05
-1.92915800577e-08
3.28987147188e-05
-2.39154761613e-08
3.29137402516e-05
-2.96568902908e-08
3.29323774334e-05
-3.67908088948e-08
3.29555051557e-05
-4.56620397913e-08
3.29842228973e-05
-5.67068731189e-08
3.30199055171e-05
-7.04772190692e-08
3.30642821734e-05
-8.7674578504e-08
3.31195350903e-05
-1.09199560499e-07
3.31884278315e-05
-1.36216861292e-07
3.32744847892e-05
-1.70247928717e-07
3.33822348507e-05
-2.13308743647e-07
3.35175563117e-05
-2.68117878946e-07
3.36881814267e-05
-3.38426418531e-07
3.39044539387e-05
-4.29566240212e-07
3.4180527132e-05
-5.4942595102e-07
3.45362914797e-05
-7.10281261489e-07
3.50005148452e-05
-9.32413211872e-07
3.5615752553e-05
-1.25156329561e-06
3.64448458803e-05
-1.73445261826e-06
3.75749114414e-05
-2.50958158052e-06
3.90975394974e-05
-3.82185629849e-06
4.09873943249e-05
-6.11288329605e-06
-1.00117008108e-05
4.27281923353e-05
5.35705193943e-05
8.95186734809e-06
5.5586306215e-05
1.58501347779e-05
5.52410590257e-05
1.6255385988e-05
5.35976157548e-05
1.40474395886e-05
5.15429061717e-05
1.11562298829e-05
4.95819407208e-05
8.45147052024e-06
4.79262513948e-05
6.2244115469e-06
4.66200401377e-05
4.49842427354e-06
4.56322341033e-05
3.20429820803e-06
4.49066879514e-05
2.25390628487e-06
4.43854426732e-05
1.56624311086e-06
4.40178332777e-05
1.07472621723e-06
4.37629128551e-05
7.27376813767e-07
4.35890454711e-05
4.84705417272e-07
4.34725022475e-05
3.17212135593e-07
4.33958692705e-05
2.03133181833e-07
4.33465912661e-05
1.26584961083e-07
4.33157571314e-05
7.60952621135e-08
4.32971356663e-05
4.34651799779e-08
4.32864340221e-05
2.28998026287e-08
4.32807407002e-05
1.03516024456e-08
4.32781179459e-05
3.03066213246e-09
4.32772912107e-05
-9.63045132641e-10
4.32774557687e-05
-2.90278513204e-09
4.32781072306e-05
-3.61746041582e-09
4.3278945253e-05
-3.64478901392e-09
4.32798002928e-05
-3.32085796242e-09
4.32805846575e-05
-2.84881911808e-09
4.32812604477e-05
-2.34535111892e-09
4.3281818544e-05
-1.87257814333e-09
4.32822651762e-05
-1.45919155996e-09
4.32826138825e-05
-1.11424897842e-09
4.32828805697e-05
-8.36005139028e-10
4.32830809197e-05
-6.17369863046e-10
4.32832290802e-05
-4.49252757016e-10
4.32833369897e-05
-3.22352626486e-10
4.3283414474e-05
-2.2811027723e-10
4.32834693716e-05
-1.5918250562e-10
4.3283507684e-05
-1.09478914498e-10
4.32835340508e-05
-7.41195693651e-11
4.32835519249e-05
-4.9337857312e-11
4.32835637867e-05
-3.22266622273e-11
4.32835715047e-05
-2.06021075349e-11
4.32835764023e-05
-1.28699694656e-11
4.32835793944e-05
-7.84075443007e-12
4.32835811565e-05
-4.64406335556e-12
4.32835821436e-05
-2.67356920595e-12
4.32835826803e-05
-1.51684036946e-12
4.32835829861e-05
-8.89984686525e-13
4.32835831273e-05
-5.80496704526e-13
4.32835831512e-05
-4.48643541326e-13
4.32835831422e-05
-4.42624995603e-13
4.32835830888e-05
-5.19957649134e-13
4.32835830036e-05
-6.02964086021e-13
4.32835829363e-05
-6.89118070889e-13
4.3283582879e-05
-8.0731232796e-13
4.32835828249e-05
-9.30868138485e-13
4.32835827926e-05
-1.03108659947e-12
4.32835827991e-05
-1.11925912966e-12
4.32835828488e-05
-1.21505804523e-12
4.32835829099e-05
-1.29928581753e-12
4.32835829871e-05
-1.35357092844e-12
4.32835831029e-05
-1.42559534117e-12
4.32835832002e-05
-1.54348639976e-12
4.32835832558e-05
-1.67189832471e-12
4.32835833229e-05
-1.80317252521e-12
4.32835834009e-05
-1.95027016096e-12
4.32835834531e-05
-2.09058275235e-12
4.32835834967e-05
-2.18965189084e-12
4.32835835751e-05
-2.26138772018e-12
4.32835836857e-05
-2.34122495559e-12
4.32835837961e-05
-2.42384041515e-12
4.32835839294e-05
-2.50308847895e-12
4.32835841055e-05
-2.61554689591e-12
4.32835842795e-05
-2.76787886398e-12
4.32835844292e-05
-2.91385687942e-12
4.3283584596e-05
-3.03145539267e-12
4.32835847859e-05
-3.13736262772e-12
4.32835849589e-05
-3.23491452121e-12
4.32835851634e-05
-3.3320882891e-12
4.32835854551e-05
-3.45514548814e-12
4.32835857653e-05
-3.62282168283e-12
4.32835860509e-05
-3.83837178432e-12
4.32835863805e-05
-4.08198875334e-12
4.32835867983e-05
-4.33155989894e-12
4.32835872354e-05
-4.57154933251e-12
4.32835877043e-05
-4.79906485715e-12
4.32835883246e-05
-5.04291278851e-12
4.32835890657e-05
-5.33016071651e-12
4.32835898578e-05
-5.65595646257e-12
4.32835907754e-05
-6.02905119254e-12
4.32835919006e-05
-6.50810400742e-12
4.32835932336e-05
-7.13908081587e-12
4.32835947634e-05
-7.87650729307e-12
4.32835966386e-05
-8.68974999931e-12
4.32835990057e-05
-9.70019160018e-12
4.32836018021e-05
-1.09590866792e-11
4.32836051486e-05
-1.24208523615e-11
4.32836092992e-05
-1.41818148544e-11
4.32836144591e-05
-1.6394196953e-11
4.32836204713e-05
-1.91456428836e-11
4.32836276717e-05
-2.24847468049e-11
4.32836364999e-05
-2.65708206755e-11
4.3283647335e-05
-3.16913156061e-11
4.3283660437e-05
-3.80308601392e-11
4.32836764415e-05
-4.58220782913e-11
4.32836960892e-05
-5.55099335535e-11
4.32837201914e-05
-6.75099734029e-11
4.3283749874e-05
-8.22746362924e-11
4.32837864271e-05
-1.00477443993e-10
4.32838315143e-05
-1.23062116408e-10
4.32838872467e-05
-1.51237765218e-10
4.32839559002e-05
-1.86141980437e-10
4.32840406102e-05
-2.29267835469e-10
4.3284145352e-05
-2.82718401791e-10
4.32842746092e-05
-3.48897272617e-10
4.32844343515e-05
-4.30680054508e-10
4.32846320198e-05
-5.31917258223e-10
4.32848763548e-05
-6.57239824203e-10
4.32851784297e-05
-8.12396975572e-10
4.32855522123e-05
-1.00444666588e-09
4.32860145537e-05
-1.24226027944e-09
4.32865867065e-05
-1.53677292462e-09
4.32872948461e-05
-1.90150893977e-09
4.32881714052e-05
-2.3534901455e-09
4.32892565599e-05
-2.91376922888e-09
4.3290599447e-05
-3.60799184691e-09
4.32922619586e-05
-4.4680636084e-09
4.32943203368e-05
-5.5337227938e-09
4.32968684706e-05
-6.85357782847e-09
4.33000240142e-05
-8.48822319604e-09
4.33039319575e-05
-1.0513384187e-08
4.33087714442e-05
-1.3022513546e-08
4.33147653561e-05
-1.61316182351e-08
4.33221896749e-05
-1.99850854157e-08
4.33313873467e-05
-2.47626118827e-08
4.33427833302e-05
-3.06877019999e-08
4.33569055225e-05
-3.80383986576e-08
4.33744117599e-05
-4.71628707864e-08
4.33961181044e-05
-5.84969065721e-08
4.34230413225e-05
-7.25859473364e-08
4.34564521427e-05
-9.01175926958e-08
4.34979365773e-05
-1.11961274706e-07
4.35494814291e-05
-1.39219806969e-07
4.36135848594e-05
-1.73303096461e-07
4.36933957967e-05
-2.16027717786e-07
4.37929037037e-05
-2.6975574398e-07
4.39171919718e-05
-3.37597111095e-07
4.40727839833e-05
-4.2371055322e-07
4.42681275455e-05
-5.33769577744e-07
4.45142712226e-05
-6.75709709495e-07
4.48258289791e-05
-8.60984255843e-07
4.52223116931e-05
-1.10676318461e-06
4.57297908143e-05
-1.4398915702e-06
4.63823507527e-05
-1.90412331426e-06
4.72210225602e-05
-2.57312374937e-06
4.82832479544e-05
-3.571806017e-06
4.95650289962e-05
-5.10363706717e-06
5.09164106417e-05
-7.46426435877e-06
-1.09463155169e-05
5.18510257807e-05
5.27606078302e-05
6.19125855685e-06
5.57402408614e-05
1.28705027116e-05
5.73124122631e-05
1.46832147083e-05
5.76111978559e-05
1.37486535661e-05
5.71338687225e-05
1.1633559182e-05
5.63199843666e-05
9.2653549746e-06
5.54496451329e-05
7.0947506322e-06
5.4663703203e-05
5.28436632331e-06
5.40144132685e-05
3.85358803597e-06
5.35068426872e-05
2.76147682934e-06
5.31248783257e-05
1.94820760879e-06
5.28455243104e-05
1.35408022422e-06
5.26458881703e-05
9.27012979778e-07
5.25060756409e-05
6.24518053454e-07
5.24099980052e-05
4.13289775937e-07
5.23452165021e-05
2.67914697939e-07
5.2302411568e-05
1.69389905142e-07
5.22747666782e-05
1.03740139412e-07
5.22573944994e-05
6.08373439901e-08
5.22468523846e-05
3.3441832601e-08
5.22407561001e-05
1.644784146e-08
5.22374831116e-05
6.30365420956e-09
5.22359418283e-05
5.7815886481e-10
5.22354265559e-05
-2.38750770389e-09
5.22354785746e-05
-3.66939894952e-09
5.22358134592e-05
-3.97965814771e-09
5.22362608e-05
-3.76814504345e-09
5.22367236998e-05
-3.31165428626e-09
5.22371515467e-05
-2.77318289771e-09
5.22375219689e-05
-2.24300243465e-09
5.22378288942e-05
-1.76615656635e-09
5.22380751745e-05
-1.36056250053e-09
5.22382678566e-05
-1.02871702488e-09
5.22384154577e-05
-7.65026040542e-10
5.22385265446e-05
-5.603510045e-10
5.22386087812e-05
-4.04602639029e-10
5.22386687369e-05
-2.88099420665e-10
5.22387118737e-05
-2.02307369288e-10
5.22387424474e-05
-1.40053588104e-10
5.22387638101e-05
-9.54929570889e-11
5.22387785427e-05
-6.40562971866e-11
5.22387884987e-05
-4.22137958837e-11
5.22387951066e-05
-2.72623269437e-11
5.22387994174e-05
-1.72151575428e-11
5.22388021588e-05
-1.06107157635e-11
5.22388038798e-05
-6.368388315e-12
5.22388049314e-05
-3.71028785741e-12
5.22388055247e-05
-2.08518789612e-12
5.22388058235e-05
-1.13993848509e-12
5.22388059096e-05
-6.46647469607e-13
5.2238805852e-05
-4.20411090034e-13
5.22388057533e-05
-3.62984432868e-13
5.22388056246e-05
-4.20690588378e-13
5.22388054626e-05
-5.19057712638e-13
5.22388053139e-05
-6.22283836305e-13
5.22388051842e-05
-7.40834569427e-13
5.22388050596e-05
-8.67008192239e-13
5.22388049497e-05
-9.75975445662e-13
5.22388048686e-05
-1.06008967191e-12
5.22388048267e-05
-1.13884319767e-12
5.22388047888e-05
-1.21844291029e-12
5.22388047372e-05
-1.2834099532e-12
5.22388047044e-05
-1.35835784525e-12
5.22388046581e-05
-1.47711928468e-12
5.22388045638e-05
-1.61500656592e-12
5.22388044653e-05
-1.7457872636e-12
5.22388043842e-05
-1.88326427129e-12
5.22388042878e-05
-2.0234107607e-12
5.22388041657e-05
-2.12969417632e-12
5.22388040563e-05
-2.20191321312e-12
5.22388039763e-05
-2.28284234282e-12
5.22388038854e-05
-2.38405728484e-12
5.223880379e-05
-2.48534718205e-12
5.22388037377e-05
-2.60053439507e-12
5.22388037061e-05
-2.74521250556e-12
5.22388036382e-05
-2.87895579022e-12
5.22388035515e-05
-2.96904746143e-12
5.22388034897e-05
-3.053788742e-12
5.22388034089e-05
-3.1662174741e-12
5.22388032963e-05
-3.28733248239e-12
5.22388032258e-05
-3.43086560756e-12
5.22388032056e-05
-3.64082770283e-12
5.22388031716e-05
-3.89722349804e-12
5.22388031346e-05
-4.14169283602e-12
5.22388031892e-05
-4.3836854502e-12
5.22388033109e-05
-4.66566576085e-12
5.22388034294e-05
-4.95520502051e-12
5.22388036282e-05
-5.24037502523e-12
5.22388039503e-05
-5.59716746548e-12
5.22388043278e-05
-6.05042566695e-12
5.2238804769e-05
-6.56886905057e-12
5.22388053732e-05
-7.18274507524e-12
5.22388062113e-05
-7.9723684092e-12
5.22388072519e-05
-8.93397232176e-12
5.22388085748e-05
-1.00228314859e-11
5.22388103734e-05
-1.13439368586e-11
5.22388126207e-05
-1.30172493857e-11
5.22388153521e-05
-1.50359747789e-11
5.22388187597e-05
-1.74676365096e-11
5.22388229984e-05
-2.04915619902e-11
5.22388283176e-05
-2.43089413657e-11
5.22388349132e-05
-2.89924149004e-11
5.22388431605e-05
-3.46972445623e-11
5.22388535238e-05
-4.17881935163e-11
5.22388662984e-05
-5.06198181277e-11
5.22388820729e-05
-6.15229872581e-11
5.2238901687e-05
-7.50027828075e-11
5.22389260193e-05
-9.16652588119e-11
5.22389562158e-05
-1.12241445909e-10
5.22389936213e-05
-1.37663593794e-10
5.22390398809e-05
-1.69112206985e-10
5.22390970977e-05
-2.08164771794e-10
5.22391677187e-05
-2.5657262237e-10
5.22392549136e-05
-3.16409488846e-10
5.22393629261e-05
-3.9047204579e-10
5.22394964813e-05
-4.82217930466e-10
5.22396616096e-05
-5.95701950952e-10
5.22398661146e-05
-7.36069835793e-10
5.22401190537e-05
-9.09899547642e-10
5.22404319647e-05
-1.12511251576e-09
5.22408192808e-05
-1.39153307586e-09
5.22412985487e-05
-1.72148032505e-09
5.22418918977e-05
-2.13000808188e-09
5.22426263524e-05
-2.63596593596e-09
5.2243535418e-05
-3.26267691489e-09
5.22446611146e-05
-4.0391354419e-09
5.22460541969e-05
-5.00117982941e-09
5.22477786084e-05
-6.1927184832e-09
5.22499137717e-05
-7.66871063754e-09
5.22525568898e-05
-9.49692438718e-09
5.22558295186e-05
-1.17611122604e-08
5.22598821236e-05
-1.45658106817e-08
5.22649002567e-05
-1.8040528687e-08
5.22711144553e-05
-2.23457857892e-08
5.22788100905e-05
-2.76809756808e-08
5.22883417297e-05
-3.42941815633e-08
5.23001486185e-05
-4.2494283444e-08
5.23147747993e-05
-5.26650780071e-08
5.23328977839e-05
-6.52857721785e-08
5.23553575758e-05
-8.09561163171e-08
5.23831969781e-05
-1.00425909499e-07
5.24177159804e-05
-1.24637058318e-07
5.24605327687e-05
-1.54777894362e-07
5.25136642998e-05
-1.92351688093e-07
5.25796322577e-05
-2.39271380527e-07
5.26615929633e-05
-2.97988436077e-07
5.27635072888e-05
-3.71669728417e-07
5.28903595993e-05
-4.64448932699e-07
5.30484391277e-05
-5.81790613322e-07
5.32457061337e-05
-7.31036445303e-07
5.34922415605e-05
-9.22244651054e-07
5.38007751082e-05
-1.16951840674e-06
5.41871817411e-05
-1.49316953871e-06