/*--------------------------------*- C++ -*----------------------------------*\
| =========                 |                                                 |
| \\      /  F ield         | OpenFOAM: The Open Source CFD Toolbox           |
|  \\    /   O peration     | Version:  2106                                  |
|   \\  /    A nd           | Website:  www.openfoam.com                      |
|    \\/     M anipulation  |                                                 |
\*---------------------------------------------------------------------------*/
FoamFile
{
    version     2.0;
    format      ascii;
    arch        "LSB;label=32;scalar=64";
    class       volVectorField;
    location    "0.41";
    object      U;
}
// * * * * * * * * * * * * * * * * * * * * * * * * * * * * * * * * * * * * * //

dimensions      [0 1 -1 0 0 0 0];

internalField   nonuniform List<vector> 
9600
(
(0.675396185931 0.157677432852 0)
(0.563826161524 0.102430800705 0)
(0.381538925946 0.051064695257 0)
(0.283853188105 0.0244589908675 0)
(0.232281035997 0.0119348212623 0)
(0.201907713744 0.00623035768311 0)
(0.183178410771 0.0035219274118 0)
(0.171271992176 0.00212007560907 0)
(0.163512246059 0.00132523581154 0)
(0.158392664066 0.000841456185413 0)
(0.155010700802 0.000534135257074 0)
(0.152789981417 0.00033503925698 0)
(0.151348694267 0.000205520505206 0)
(0.150429247403 0.000121791702808 0)
(0.149856460323 6.84340377024e-05 0)
(0.149511125152 3.51731695802e-05 0)
(0.149312516394 1.50864903635e-05 0)
(0.149206466112 3.50387031711e-06 0)
(0.149157085238 -2.70667863325e-06 0)
(0.149140975219 -5.61138157525e-06 0)
(0.149143258311 -6.5273299962e-06 0)
(0.149154654549 -6.41802875999e-06 0)
(0.149169594096 -5.78198480091e-06 0)
(0.149184967212 -4.92843557163e-06 0)
(0.14919913867 -4.04279731062e-06 0)
(0.149211387614 -3.22370264965e-06 0)
(0.149221526795 -2.51512469409e-06 0)
(0.149229655152 -1.92836274052e-06 0)
(0.149236009951 -1.45823883805e-06 0)
(0.149240876278 -1.0915250673e-06 0)
(0.149244535857 -8.11581380584e-07 0)
(0.149247243929 -6.01963398001e-07 0)
(0.149249218296 -4.47694684512e-07 0)
(0.149250637328 -3.35986546117e-07 0)
(0.149251642951 -2.56186729597e-07 0)
(0.149252345305 -1.99552306766e-07 0)
(0.149252828906 -1.59604494851e-07 0)
(0.149253156736 -1.31222381934e-07 0)
(0.14925337477 -1.10356868199e-07 0)
(0.149253517026 -9.45422978288e-08 0)
(0.149253607748 -8.2085755638e-08 0)
(0.149253664207 -7.3004768293e-08 0)
(0.149253698066 -6.92256564324e-08 0)
(0.149253715953 -7.00744420778e-08 0)
(0.149253723284 -7.30493813227e-08 0)
(0.149253724806 -7.75823823663e-08 0)
(0.149253723113 -8.37459175918e-08 0)
(0.149253719927 -9.15221308458e-08 0)
(0.149253716297 -1.00158290749e-07 0)
(0.149253712556 -1.09122068561e-07 0)
(0.149253709008 -1.18496238266e-07 0)
(0.149253705446 -1.28313326423e-07 0)
(0.149253701518 -1.38516587676e-07 0)
(0.149253697618 -1.49392093239e-07 0)
(0.14925369383 -1.61079275978e-07 0)
(0.149253689737 -1.73425051167e-07 0)
(0.149253685647 -1.8656972411e-07 0)
(0.149253681936 -2.00771122854e-07 0)
(0.149253678328 -2.160056457e-07 0)
(0.149253674681 -2.32188259007e-07 0)
(0.149253671257 -2.49406495187e-07 0)
(0.149253668242 -2.6781374969e-07 0)
(0.14925366529 -2.87301391132e-07 0)
(0.149253662006 -3.0778600445e-07 0)
(0.149253658526 -3.29634101458e-07 0)
(0.149253654557 -3.53063144115e-07 0)
(0.149253649403 -3.77847805872e-07 0)
(0.149253643381 -4.04025949297e-07 0)
(0.14925363724 -4.31899070184e-07 0)
(0.149253630959 -4.61453835411e-07 0)
(0.149253624429 -4.92481039705e-07 0)
(0.149253618275 -5.25149432077e-07 0)
(0.149253612944 -5.59768670865e-07 0)
(0.149253607761 -5.96259184532e-07 0)
(0.149253602074 -6.34515533818e-07 0)
(0.149253596148 -6.74905131548e-07 0)
(0.149253589863 -7.17708185505e-07 0)
(0.149253582482 -7.62687810583e-07 0)
(0.149253574309 -8.09738152717e-07 0)
(0.149253566542 -8.59167725866e-07 0)
(0.14925355932 -9.10949152733e-07 0)
(0.149253552141 -9.64808072623e-07 0)
(0.149253545258 -1.02111044063e-06 0)
(0.149253538455 -1.0804090984e-06 0)
(0.14925353062 -1.14250418232e-06 0)
(0.14925352187 -1.20707198172e-06 0)
(0.149253513717 -1.27453071859e-06 0)
(0.149253506391 -1.34509604468e-06 0)
(0.149253498874 -1.41822155005e-06 0)
(0.149253491756 -1.49391652166e-06 0)
(0.149253486131 -1.57278390096e-06 0)
(0.149253481214 -1.65472091799e-06 0)
(0.149253476346 -1.73934147911e-06 0)
(0.149253472579 -1.82703140193e-06 0)
(0.1492534708 -1.91826585741e-06 0)
(0.149253470418 -2.0124302007e-06 0)
(0.149253471533 -2.10891150694e-06 0)
(0.149253476019 -2.20831604441e-06 0)
(0.149253483915 -2.31056888834e-06 0)
(0.149253494036 -2.41447442164e-06 0)
(0.14925350809 -2.51978226449e-06 0)
(0.149253528317 -2.62702711617e-06 0)
(0.149253555612 -2.73645915572e-06 0)
(0.149253590842 -2.84755027457e-06 0)
(0.14925363627 -2.96019574291e-06 0)
(0.149253695218 -3.07522787745e-06 0)
(0.1492537691 -3.1926777838e-06 0)
(0.14925386035 -3.31243397192e-06 0)
(0.149253974877 -3.43573004097e-06 0)
(0.149254118614 -3.56525754883e-06 0)
(0.149254297935 -3.70657474009e-06 0)
(0.149254522058 -3.86443532595e-06 0)
(0.149254801499 -4.0336818752e-06 0)
(0.14925514866 -4.213107656e-06 0)
(0.149255577516 -4.402642092e-06 0)
(0.149256106254 -4.60238372498e-06 0)
(0.149256762063 -4.81420999988e-06 0)
(0.149257575485 -5.03934256805e-06 0)
(0.149258581952 -5.27817698055e-06 0)
(0.149259829359 -5.53324236723e-06 0)
(0.149261374226 -5.80672131071e-06 0)
(0.149263284193 -6.10116776632e-06 0)
(0.149265647508 -6.42274671419e-06 0)
(0.14926858331 -6.78597651694e-06 0)
(0.149272258981 -7.24837301642e-06 0)
(0.149276809025 -7.93289551198e-06 0)
(0.149282397629 -8.78574139828e-06 0)
(0.149289301542 -9.76590844024e-06 0)
(0.149297846648 -1.08690524644e-05 0)
(0.149308427617 -1.21037481e-05 0)
(0.14932153649 -1.34931079377e-05 0)
(0.149337770611 -1.50592101223e-05 0)
(0.149357875577 -1.68319182001e-05 0)
(0.149382782184 -1.88535636322e-05 0)
(0.149413634957 -2.11733391336e-05 0)
(0.149451855396 -2.38521642292e-05 0)
(0.149499214739 -2.69679809905e-05 0)
(0.149557917379 -3.06222535239e-05 0)
(0.149630702949 -3.49411286314e-05 0)
(0.149720975873 -4.0078588312e-05 0)
(0.149832997529 -4.62398093241e-05 0)
(0.149972091883 -5.36868092766e-05 0)
(0.150144908117 -6.274285754e-05 0)
(0.150359819258 -7.38306768578e-05 0)
(0.150627389002 -8.7498199084e-05 0)
(0.150960971911 -0.000104443191094 0)
(0.151377579473 -0.000125578073947 0)
(0.151899023105 -0.000152104204829 0)
(0.152553477518 -0.000185604272571 0)
(0.15337772362 -0.000228180744147 0)
(0.154420422373 -0.000282664200995 0)
(0.155747190839 -0.00035303664553 0)
(0.157449198765 -0.000445594017317 0)
(0.159660608712 -0.000573259372509 0)
(0.162600469375 -0.000772258941525 0)
(0.166678484389 -0.0011632669047 0)
(0.172824628339 -0.00217393475023 0)
(0.183824324245 -0.00539291709079 0)
(0.208065814867 -0.0168164053742 0)
(0.26146068346 -0.058478813213 0)
(0.977201174081 0.296997122649 0)
(0.962687467941 0.250387262012 0)
(0.820646033294 0.158581012566 0)
(0.697824892053 0.0957993510798 0)
(0.61049167239 0.0579132745242 0)
(0.549133321466 0.0359038504442 0)
(0.50670599053 0.0229309371692 0)
(0.47766202671 0.0149788789894 0)
(0.457815305876 0.009909731679 0)
(0.444277680866 0.00658330864172 0)
(0.435087231121 0.00436198588515 0)
(0.428895558711 0.0028668262964 0)
(0.42476804081 0.00185971978604 0)
(0.422054232476 0.00118457144864 0)
(0.420301050472 0.000736110611239 0)
(0.419193678306 0.00044215902288 0)
(0.418514610273 0.000252859446244 0)
(0.418114834327 0.000133739032879 0)
(0.417893375479 6.1052697615e-05 0)
(0.417782731799 1.8578101493e-05 0)
(0.417738473299 -4.63417461515e-06 0)
(0.417731935146 -1.6009805397e-05 0)
(0.417745150597 -2.03057683249e-05 0)
(0.417767174627 -2.06090327562e-05 0)
(0.417791624419 -1.88558904358e-05 0)
(0.417815038553 -1.62209800112e-05 0)
(0.41783575874 -1.33837153546e-05 0)
(0.417853191463 -1.07062752094e-05 0)
(0.417867340141 -8.35779573992e-06 0)
(0.417878511727 -6.39429044238e-06 0)
(0.417887137054 -4.80789775843e-06 0)
(0.417893670932 -3.5596827765e-06 0)
(0.417898538158 -2.59851760636e-06 0)
(0.417902108673 -1.87189549585e-06 0)
(0.417904690541 -1.33135711414e-06 0)
(0.417906531211 -9.34514745954e-07 0)
(0.41790782537 -6.46976655217e-07 0)
(0.417908722674 -4.41275008676e-07 0)
(0.417909334984 -2.95537743364e-07 0)
(0.417909745751 -1.93638106532e-07 0)
(0.417910015456 -1.23570693162e-07 0)
(0.417910186521 -7.67356951383e-08 0)
(0.417910290661 -4.84073791177e-08 0)
(0.417910351211 -3.32374564978e-08 0)
(0.41791038325 -2.56086361692e-08 0)
(0.41791039671 -2.23474596163e-08 0)
(0.417910398662 -2.09727292442e-08 0)
(0.417910394741 -1.99424562609e-08 0)
(0.417910388435 -1.9481771415e-08 0)
(0.417910380698 -1.9548305419e-08 0)
(0.417910372195 -2.04688128731e-08 0)
(0.417910363315 -2.20480750813e-08 0)
(0.417910353735 -2.37568251501e-08 0)
(0.417910343784 -2.5713184949e-08 0)
(0.417910333928 -2.81636217014e-08 0)
(0.41791032372 -3.0689273174e-08 0)
(0.417910313091 -3.31890560398e-08 0)
(0.41791030253 -3.60113985813e-08 0)
(0.417910292019 -3.90694720861e-08 0)
(0.417910281313 -4.20499350223e-08 0)
(0.417910270469 -4.49330647138e-08 0)
(0.417910259815 -4.79985493048e-08 0)
(0.417910249177 -5.11761333465e-08 0)
(0.417910237743 -5.41424442396e-08 0)
(0.417910225384 -5.73413114444e-08 0)
(0.417910212265 -6.12446582082e-08 0)
(0.417910197803 -6.54237006808e-08 0)
(0.417910181866 -6.95690840112e-08 0)
(0.417910165256 -7.39912725842e-08 0)
(0.417910148375 -7.87593683975e-08 0)
(0.417910130962 -8.3423417112e-08 0)
(0.417910113203 -8.79335224476e-08 0)
(0.417910095728 -9.28345958174e-08 0)
(0.417910078182 -9.8176211933e-08 0)
(0.417910059562 -1.03554502633e-07 0)
(0.41791003985 -1.09239663524e-07 0)
(0.417910019432 -1.1567567707e-07 0)
(0.417909997878 -1.22424810776e-07 0)
(0.417909975084 -1.29023925986e-07 0)
(0.417909952255 -1.35910486451e-07 0)
(0.417909930028 -1.43175582206e-07 0)
(0.417909907552 -1.50286374442e-07 0)
(0.417909884408 -1.57704098258e-07 0)
(0.417909860896 -1.66345888622e-07 0)
(0.417909836678 -1.75755627854e-07 0)
(0.417909811414 -1.85011481333e-07 0)
(0.417909786256 -1.94633226676e-07 0)
(0.417909762309 -2.05204100284e-07 0)
(0.417909738834 -2.15809356332e-07 0)
(0.417909715661 -2.26265258406e-07 0)
(0.41790969418 -2.37809081015e-07 0)
(0.41790967457 -2.50612790555e-07 0)
(0.417909655951 -2.63876668495e-07 0)
(0.41790963904 -2.77925325784e-07 0)
(0.417909626031 -2.93893285433e-07 0)
(0.417909617682 -3.11344825352e-07 0)
(0.417909613567 -3.29089021745e-07 0)
(0.417909615711 -3.48327760723e-07 0)
(0.417909626386 -3.70440770888e-07 0)
(0.417909645554 -3.95351607099e-07 0)
(0.417909675065 -4.24690172469e-07 0)
(0.417909718629 -4.58464731956e-07 0)
(0.417909780043 -4.96995688185e-07 0)
(0.417909862896 -5.39825958259e-07 0)
(0.417909971349 -5.87052337076e-07 0)
(0.417910112296 -6.40891330524e-07 0)
(0.41791029246 -7.02303724342e-07 0)
(0.417910519018 -7.70956498534e-07 0)
(0.417910802717 -8.47538923755e-07 0)
(0.417911154473 -9.30752639474e-07 0)
(0.417911589519 -1.01477656515e-06 0)
(0.41791214021 -1.09512916728e-06 0)
(0.417912838727 -1.18303402093e-06 0)
(0.417913713557 -1.28707644366e-06 0)
(0.417914802771 -1.41253676197e-06 0)
(0.417916154397 -1.5629803401e-06 0)
(0.417917833758 -1.74676161805e-06 0)
(0.417919920672 -1.97346587511e-06 0)
(0.417922508938 -2.25181261543e-06 0)
(0.417925718841 -2.59645550181e-06 0)
(0.417929698333 -3.02575682165e-06 0)
(0.417934625601 -3.56058071115e-06 0)
(0.417940723 -4.22780631374e-06 0)
(0.417948255362 -5.06863023564e-06 0)
(0.417957539411 -6.1590507938e-06 0)
(0.417969041233 -7.64166017807e-06 0)
(0.417983352034 -9.54378773381e-06 0)
(0.418001124841 -1.19217988997e-05 0)
(0.418023164164 -1.48697038081e-05 0)
(0.418050476213 -1.85131360025e-05 0)
(0.418084322658 -2.30221067965e-05 0)
(0.41812626078 -2.8596062322e-05 0)
(0.418178215737 -3.54808042077e-05 0)
(0.418242585811 -4.39908956801e-05 0)
(0.418322340967 -5.4512142975e-05 0)
(0.418421163715 -6.75202181854e-05 0)
(0.418543629454 -8.3607068465e-05 0)
(0.41869543033 -0.000103516469473 0)
(0.418883651774 -0.000128179314719 0)
(0.419117101028 -0.000158747903314 0)
(0.419406772541 -0.000196684820133 0)
(0.419766421041 -0.000243849466338 0)
(0.420213249285 -0.000302579572517 0)
(0.420768874876 -0.000375867443923 0)
(0.421460577144 -0.000467578143892 0)
(0.422322885105 -0.000582708775847 0)
(0.423399781056 -0.000727812324102 0)
(0.424747724279 -0.00091160982872 0)
(0.426439865693 -0.0011458943829 0)
(0.428572197993 -0.00144698906644 0)
(0.431272867251 -0.00183823688864 0)
(0.434717114396 -0.00235476086169 0)
(0.439152716375 -0.0030535667924 0)
(0.444946982063 -0.00403794648706 0)
(0.452679934354 -0.00552252931949 0)
(0.463322732959 -0.0080125585875 0)
(0.478574516978 -0.0128000024456 0)
(0.501721732062 -0.0233911899672 0)
(0.539139184526 -0.0495358383138 0)
(0.594812218858 -0.114570244532 0)
(1.03387038406 0.239240970464 0)
(1.08314081873 0.293634376834 0)
(1.03294438171 0.23913193086 0)
(0.95440820496 0.174539022393 0)
(0.880112586181 0.12155146402 0)
(0.818677620995 0.0832335921657 0)
(0.771466796249 0.0568258120739 0)
(0.736691576503 0.0388125720708 0)
(0.711672103511 0.0264913167604 0)
(0.693953129722 0.0180235751522 0)
(0.681568202611 0.0121876180931 0)
(0.673018599876 0.00816650222551 0)
(0.667192230315 0.00540556522686 0)
(0.663277748521 0.00352226171833 0)
(0.660690310489 0.00224961158024 0)
(0.659012736125 0.00140002831574 0)
(0.657950529286 0.000841456594026 0)
(0.657298075669 0.000481124178435 0)
(0.656913531093 0.00025419588175 0)
(0.656700339083 0.000115713134084 0)
(0.656593730169 3.47988874845e-05 0)
(0.656551015849 -9.46267098504e-06 0)
(0.656544671772 -3.10066130239e-05 0)
(0.656557369358 -3.90709100563e-05 0)
(0.656578553028 -3.95441924421e-05 0)
(0.65660207623 -3.6116757897e-05 0)
(0.656624606396 -3.10277721073e-05 0)
(0.656644544632 -2.55670819405e-05 0)
(0.656661319162 -2.04227126013e-05 0)
(0.656674934026 -1.59152474855e-05 0)
(0.656685683698 -1.21481269906e-05 0)
(0.656693983097 -9.10517631134e-06 0)
(0.65670026992 -6.71121008711e-06 0)
(0.656704952644 -4.86805708364e-06 0)
(0.656708387572 -3.47529552797e-06 0)
(0.656710870481 -2.43994259872e-06 0)
(0.65671263965 -1.68195675649e-06 0)
(0.656713882592 -1.13578985239e-06 0)
(0.656714742523 -7.48274897497e-07 0)
(0.656715327779 -4.77983978093e-07 0)
(0.656715719123 -2.93403797992e-07 0)
(0.656715974807 -1.69814153127e-07 0)
(0.656716137326 -8.8732420546e-08 0)
(0.656716237125 -3.71295960681e-08 0)
(0.656716294961 -5.56951150069e-09 0)
(0.656716325905 1.292328016e-08 0)
(0.656716340223 2.36041060406e-08 0)
(0.656716343574 3.01949887706e-08 0)
(0.656716339722 3.42295506558e-08 0)
(0.656716331507 3.71453490198e-08 0)
(0.656716321048 3.9877179028e-08 0)
(0.656716309873 4.23400809709e-08 0)
(0.656716297964 4.50737000014e-08 0)
(0.656716285381 4.83689830401e-08 0)
(0.65671627276 5.17709365758e-08 0)
(0.656716259977 5.53777057393e-08 0)
(0.656716246715 5.95690715722e-08 0)
(0.65671623333 6.41855523991e-08 0)
(0.656716220074 6.90240995555e-08 0)
(0.656716206739 7.42828824005e-08 0)
(0.656716193077 8.02721220035e-08 0)
(0.65671617928 8.67643282196e-08 0)
(0.656716165451 9.3314399099e-08 0)
(0.656716150745 1.0022112784e-07 0)
(0.656716134625 1.0760430736e-07 0)
(0.656716117454 1.14924620097e-07 0)
(0.656716099129 1.22459995323e-07 0)
(0.656716079345 1.31038335352e-07 0)
(0.656716058534 1.4062895113e-07 0)
(0.656716037289 1.50792792043e-07 0)
(0.656716015608 1.61695530519e-07 0)
(0.656715993298 1.73702243636e-07 0)
(0.656715970683 1.86316999158e-07 0)
(0.656715947821 1.99000587455e-07 0)
(0.656715923903 2.12219833822e-07 0)
(0.656715898551 2.2637893581e-07 0)
(0.656715872233 2.41129826141e-07 0)
(0.65671584494 2.56581990974e-07 0)
(0.656715816321 2.73457334889e-07 0)
(0.656715787224 2.91573408251e-07 0)
(0.656715758627 3.10250736168e-07 0)
(0.656715729718 3.29728066048e-07 0)
(0.656715699573 3.50163984963e-07 0)
(0.656715668796 3.70957997263e-07 0)
(0.656715637883 3.92223075053e-07 0)
(0.656715606242 4.15134735162e-07 0)
(0.656715574248 4.39873689209e-07 0)
(0.656715543475 4.65438212011e-07 0)
(0.656715513813 4.92102306559e-07 0)
(0.656715484396 5.20668176818e-07 0)
(0.656715456258 5.50279533641e-07 0)
(0.656715430574 5.7997419128e-07 0)
(0.65671540701 6.10327034748e-07 0)
(0.656715385643 6.42070646249e-07 0)
(0.656715368721 6.74410289919e-07 0)
(0.656715358382 7.06663931927e-07 0)
(0.656715354316 7.40098644234e-07 0)
(0.656715357311 7.74826933794e-07 0)
(0.656715369744 8.09505473633e-07 0)
(0.656715392104 8.45022065174e-07 0)
(0.656715428749 8.83721850567e-07 0)
(0.656715486039 9.23040645901e-07 0)
(0.656715568862 9.60538394323e-07 0)
(0.656715682601 9.95046423821e-07 0)
(0.656715832609 1.02617100588e-06 0)
(0.656716027929 1.05080701583e-06 0)
(0.656716279995 1.06534698977e-06 0)
(0.656716601407 1.0681584416e-06 0)
(0.656717011085 1.05690018206e-06 0)
(0.656717535112 1.02939917816e-06 0)
(0.656718201325 9.86655823556e-07 0)
(0.656719030284 9.28521649269e-07 0)
(0.656720051398 8.39669289612e-07 0)
(0.656721317203 7.05574879013e-07 0)
(0.656722889852 5.11226243872e-07 0)
(0.65672483994 2.42773884656e-07 0)
(0.656727257973 -1.19822766642e-07 0)
(0.656730258492 -6.04287530683e-07 0)
(0.65673397687 -1.24070352924e-06 0)
(0.656738582298 -2.06819883941e-06 0)
(0.656744286488 -3.13903530203e-06 0)
(0.656751349771 -4.51315839144e-06 0)
(0.656760095347 -6.26629677875e-06 0)
(0.656770925675 -8.49355260054e-06 0)
(0.656784333093 -1.13026439653e-05 0)
(0.656800930105 -1.48139743532e-05 0)
(0.656821474839 -1.92317480519e-05 0)
(0.656846908668 -2.48038407597e-05 0)
(0.656878403926 -3.18219393533e-05 0)
(0.65691740242 -4.06402166386e-05 0)
(0.656965702557 -5.17058139063e-05 0)
(0.657025529429 -6.55716607648e-05 0)
(0.657099628485 -8.29147248228e-05 0)
(0.657191412169 -0.000104582839965 0)
(0.657305113612 -0.000131630542117 0)
(0.657445983116 -0.000165364981839 0)
(0.657620537279 -0.00020740897308 0)
(0.657836874046 -0.000259787363 0)
(0.658105075633 -0.000325040211057 0)
(0.658437674615 -0.000406333793335 0)
(0.658850284632 -0.000507643582877 0)
(0.659362424319 -0.000634007021136 0)
(0.659998496509 -0.000791792794449 0)
(0.660789098529 -0.000989108580177 0)
(0.661772761889 -0.00123638896472 0)
(0.662998168607 -0.00154715149613 0)
(0.664527145866 -0.00193910102429 0)
(0.666438770131 -0.00243578195057 0)
(0.668835043918 -0.00306908341768 0)
(0.671849042141 -0.00388326544879 0)
(0.675656939615 -0.00494178166661 0)
(0.680496535504 -0.00633975993932 0)
(0.686696716775 -0.00822844735273 0)
(0.694725665111 -0.010866210681 0)
(0.705270856899 -0.0147310235441 0)
(0.719356871258 -0.0207731085433 0)
(0.738462760753 -0.0309607121609 0)
(0.764592412228 -0.0493871178416 0)
(0.79980459704 -0.0843315412238 0)
(0.840356697746 -0.149567761972 0)
(1.03384127686 0.17130695416 0)
(1.10231584614 0.275556748023 0)
(1.11663621479 0.266312369085 0)
(1.09207924698 0.219892604698 0)
(1.05195419905 0.168210317785 0)
(1.01022221884 0.123615335031 0)
(0.973507721884 0.0888850590924 0)
(0.943885950533 0.0630494606762 0)
(0.921162803366 0.0442607964969 0)
(0.904299825835 0.0307744335834 0)
(0.892086139233 0.0211830138102 0)
(0.883411237773 0.0144172977646 0)
(0.877355066375 0.00968544242504 0)
(0.873196221195 0.00640758772704 0)
(0.870388070402 0.00416172439392 0)
(0.868526265615 0.00264232305303 0)
(0.867317309346 0.00162947863622 0)
(0.866551596507 0.000966026210318 0)
(0.866081669452 0.00054057378228 0)
(0.865805311481 0.000274927986581 0)
(0.865652736055 0.000114792598863 0)
(0.865577102901 2.29567720194e-05 0)
(0.865547488858 -2.57246435197e-05 0)
(0.865543950458 -4.80452469609e-05 0)
(0.865553998552 -5.49261868929e-05 0)
(0.865570001923 -5.33278091016e-05 0)
(0.865587539563 -4.75748734749e-05 0)
(0.86560423004 -4.02481230671e-05 0)
(0.86561894305 -3.28011996733e-05 0)
(0.865631288872 -2.59832193734e-05 0)
(0.865641289059 -2.01161724288e-05 0)
(0.865649171923 -1.52753430266e-05 0)
(0.865655249609 -1.14039010639e-05 0)
(0.865659847472 -8.38301479855e-06 0)
(0.865663268227 -6.07410845e-06 0)
(0.86566577418 -4.34070453734e-06 0)
(0.865667582777 -3.05998389234e-06 0)
(0.86566886965 -2.12822756264e-06 0)
(0.865669771875 -1.4599728307e-06 0)
(0.865670394513 -9.87327930575e-07 0)
(0.865670817228 -6.58129134808e-07 0)
(0.865671098253 -4.32393875538e-07 0)
(0.865671280151 -2.80422686824e-07 0)
(0.865671394076 -1.80770294567e-07 0)
(0.865671461799 -1.171988184e-07 0)
(0.865671498817 -7.79591264928e-08 0)
(0.865671516169 -5.50631701615e-08 0)
(0.865671521294 -4.28635600442e-08 0)
(0.865671519273 -3.71217612999e-08 0)
(0.865671512964 -3.5115491222e-08 0)
(0.86567150344 -3.52453967861e-08 0)
(0.865671491853 -3.73295200922e-08 0)
(0.86567147888 -4.0768285084e-08 0)
(0.865671464474 -4.48233819382e-08 0)
(0.865671449197 -4.95089718595e-08 0)
(0.865671433402 -5.47486094212e-08 0)
(0.865671416907 -6.00593499231e-08 0)
(0.865671399804 -6.53138476469e-08 0)
(0.865671382408 -7.07116990746e-08 0)
(0.865671364894 -7.62810275249e-08 0)
(0.865671346957 -8.17536849541e-08 0)
(0.865671328298 -8.72173506545e-08 0)
(0.865671309144 -9.3335164567e-08 0)
(0.865671289121 -1.00185028834e-07 0)
(0.865671267406 -1.07412955132e-07 0)
(0.865671244271 -1.15259721108e-07 0)
(0.865671220201 -1.23714605261e-07 0)
(0.865671194787 -1.32111555463e-07 0)
(0.865671167816 -1.4024259004e-07 0)
(0.865671139863 -1.48542978397e-07 0)
(0.86567111131 -1.57233911028e-07 0)
(0.86567108178 -1.6610090824e-07 0)
(0.865671051161 -1.75415037324e-07 0)
(0.865671019868 -1.85772584578e-07 0)
(0.865670987634 -1.96867226725e-07 0)
(0.865670953782 -2.0800060496e-07 0)
(0.865670918499 -2.19381032735e-07 0)
(0.865670882242 -2.31395231974e-07 0)
(0.865670844664 -2.43537789483e-07 0)
(0.865670805869 -2.55776281027e-07 0)
(0.865670766905 -2.69319979516e-07 0)
(0.86567072763 -2.84610682048e-07 0)
(0.86567068694 -3.0090208804e-07 0)
(0.865670645125 -3.18171309004e-07 0)
(0.865670603353 -3.36994267288e-07 0)
(0.865670561376 -3.56669727029e-07 0)
(0.865670518655 -3.76277944784e-07 0)
(0.865670476589 -3.96791623473e-07 0)
(0.865670436129 -4.19111753778e-07 0)
(0.86567039631 -4.42650052636e-07 0)
(0.865670357198 -4.67647560228e-07 0)
(0.865670320441 -4.95537170549e-07 0)
(0.865670286941 -5.26773759176e-07 0)
(0.865670256647 -5.60597895326e-07 0)
(0.865670231058 -5.97324902401e-07 0)
(0.865670213224 -6.38470969371e-07 0)
(0.865670204052 -6.83952378252e-07 0)
(0.865670204203 -7.33477542424e-07 0)
(0.865670217578 -7.88530769064e-07 0)
(0.865670248559 -8.49541944852e-07 0)
(0.865670298138 -9.14918501099e-07 0)
(0.865670368224 -9.87039213188e-07 0)
(0.865670466376 -1.06873917151e-06 0)
(0.865670601038 -1.16297917783e-06 0)
(0.8656707786 -1.27139543374e-06 0)
(0.86567100808 -1.39736147361e-06 0)
(0.865671303269 -1.54653786125e-06 0)
(0.865671679637 -1.72352289773e-06 0)
(0.865672156356 -1.93420567973e-06 0)
(0.865672757924 -2.18883059822e-06 0)
(0.865673514674 -2.50375937074e-06 0)
(0.865674462824 -2.89792870034e-06 0)
(0.865675645145 -3.38092788057e-06 0)
(0.865677116485 -3.97023591639e-06 0)
(0.865678947446 -4.69259706206e-06 0)
(0.865681221631 -5.57764872567e-06 0)
(0.865684042434 -6.66191802395e-06 0)
(0.865687542723 -7.99536359642e-06 0)
(0.865691882461 -9.63658390452e-06 0)
(0.865697257707 -1.16584694371e-05 0)
(0.865703916056 -1.41531581598e-05 0)
(0.865712162281 -1.72326824588e-05 0)
(0.865722373243 -2.10389444842e-05 0)
(0.865735018202 -2.57476993974e-05 0)
(0.86575067609 -3.15836182627e-05 0)
(0.865770064318 -3.88191461486e-05 0)
(0.86579406618 -4.77841804027e-05 0)
(0.865823778072 -5.88826587538e-05 0)
(0.865860565447 -7.26236559303e-05 0)
(0.865906109955 -8.96314597992e-05 0)
(0.86596250208 -0.000110689891403 0)
(0.866032336933 -0.000136778911865 0)
(0.866118817461 -0.0001691057297 0)
(0.866225916013 -0.000209172815879 0)
(0.866358561363 -0.000258851865143 0)
(0.86652286861 -0.000320471440694 0)
(0.866726423791 -0.000396927197657 0)
(0.866978639421 -0.000491825198231 0)
(0.867291226924 -0.000609685747814 0)
(0.867678741979 -0.000756163615899 0)
(0.868159281865 -0.000938343220985 0)
(0.868755427333 -0.00116517190413 0)
(0.869495370951 -0.00144797153162 0)
(0.870414359099 -0.00180112566543 0)
(0.871556616343 -0.00224307195222 0)
(0.872977795198 -0.00279763187798 0)
(0.874748193446 -0.00349588876022 0)
(0.876957079721 -0.00437895900686 0)
(0.879718527576 -0.0055021614194 0)
(0.883179483897 -0.00694157756113 0)
(0.88753104333 -0.00880480733934 0)
(0.893024452936 -0.0112496030382 0)
(0.89999377878 -0.0145177827362 0)
(0.908886605785 -0.0189991785575 0)
(0.920300860711 -0.0253553517193 0)
(0.935006585358 -0.034757593419 0)
(0.953868988975 -0.0493109210758 0)
(0.977510375159 -0.072677693286 0)
(1.00527818553 -0.110652716724 0)
(1.03138216704 -0.169930768046 0)
(1.02388345418 0.119321987551 0)
(1.08875435884 0.23151442868 0)
(1.13660483677 0.252868938002 0)
(1.15406272976 0.228905047686 0)
(1.15000112533 0.188337387182 0)
(1.13537624091 0.146577290935 0)
(1.11757777983 0.11016481985 0)
(1.10059199947 0.0808376050442 0)
(1.0861224148 0.0582501987927 0)
(1.07458761964 0.0413417848272 0)
(1.06578679762 0.0289362819067 0)
(1.05928156769 0.0199770190324 0)
(1.05459132798 0.0135949300634 0)
(1.05128027061 0.0091074276657 0)
(1.04898736495 0.00599313358328 0)
(1.04742905596 0.00386144230079 0)
(1.04639046359 0.0024241377979 0)
(1.04571299594 0.00147134938245 0)
(1.04528206456 0.000852137110922 0)
(1.04501638199 0.000459264441021 0)
(1.04485925811 0.000217490939735 0)
(1.04477182796 7.47188650998e-05 0)
(1.04472784611 -4.64538041577e-06 0)
(1.04470997943 -4.44450037149e-05 0)
(1.04470705383 -6.05355629582e-05 0)
(1.04471197715 -6.3092974572e-05 0)
(1.04472041776 -5.85435020411e-05 0)
(1.0447298598 -5.08112009358e-05 0)
(1.0447389345 -4.21803419167e-05 0)
(1.0447469812 -3.38931418944e-05 0)
(1.04475375997 -2.65482665327e-05 0)
(1.04475926667 -2.03622306504e-05 0)
(1.04476361736 -1.53375913796e-05 0)
(1.04476697756 -1.13676118762e-05 0)
(1.04476952341 -8.30076906357e-06 0)
(1.04477141974 -5.97655377743e-06 0)
(1.04477280972 -4.24429094127e-06 0)
(1.04477381361 -2.97297052409e-06 0)
(1.04477452807 -2.05324169034e-06 0)
(1.04477502848 -1.39673204731e-06 0)
(1.04477537344 -9.34780563019e-07 0)
(1.04477560659 -6.14406253201e-07 0)
(1.04477576011 -3.95412255421e-07 0)
(1.04477585828 -2.48225258663e-07 0)
(1.04477591847 -1.50827268955e-07 0)
(1.04477595311 -8.7195302857e-08 0)
(1.04477597094 -4.61689734893e-08 0)
(1.04477597737 -2.01777870794e-08 0)
(1.04477597602 -4.54232225933e-09 0)
(1.04477596924 4.03116498343e-09 0)
(1.04477595839 8.2332524617e-09 0)
(1.04477594512 9.91880953741e-09 0)
(1.04477593051 1.02207890211e-08 0)
(1.04477591458 1.02177862229e-08 0)
(1.0447758977 1.01836005206e-08 0)
(1.04477588036 9.93003302129e-09 0)
(1.04477586243 9.69136204936e-09 0)
(1.04477584384 9.79109507597e-09 0)
(1.04477582479 1.02806856172e-08 0)
(1.04477580549 1.09642245265e-08 0)
(1.04477578565 1.18810504711e-08 0)
(1.04477576471 1.32272708342e-08 0)
(1.04477574278 1.45569547133e-08 0)
(1.04477571984 1.54330106992e-08 0)
(1.04477569518 1.62292309081e-08 0)
(1.0447756689 1.72264826791e-08 0)
(1.0447756416 1.82557616412e-08 0)
(1.04477561311 1.95494470346e-08 0)
(1.04477558299 2.16141976499e-08 0)
(1.04477555151 2.4342614109e-08 0)
(1.04477551917 2.72056186271e-08 0)
(1.04477548572 3.01482843958e-08 0)
(1.04477545079 3.32950516415e-08 0)
(1.04477541493 3.62956478063e-08 0)
(1.04477537837 3.91462741742e-08 0)
(1.04477534029 4.26212548834e-08 0)
(1.04477530029 4.69945083324e-08 0)
(1.04477525899 5.16256423129e-08 0)
(1.04477521635 5.64090588645e-08 0)
(1.04477517185 6.17427775229e-08 0)
(1.04477512608 6.69327150978e-08 0)
(1.04477507988 7.11575254656e-08 0)
(1.04477503269 7.51377665377e-08 0)
(1.04477498402 7.96887635601e-08 0)
(1.04477493494 8.42538649329e-08 0)
(1.04477488615 8.85901319361e-08 0)
(1.04477483676 9.370879144e-08 0)
(1.04477478698 9.94456217958e-08 0)
(1.04477473811 1.04429377749e-07 0)
(1.04477468994 1.08641395264e-07 0)
(1.04477464191 1.12545790704e-07 0)
(1.04477459516 1.15280840024e-07 0)
(1.04477455149 1.15725331983e-07 0)
(1.04477451136 1.1422543331e-07 0)
(1.04477447534 1.11190699008e-07 0)
(1.04477444625 1.04896793332e-07 0)
(1.04477442584 9.39608856783e-08 0)
(1.04477441425 7.82965997249e-08 0)
(1.04477441386 5.60682350783e-08 0)
(1.04477442851 2.38339178054e-08 0)
(1.04477446211 -2.23646790428e-08 0)
(1.04477451895 -8.31050494771e-08 0)
(1.04477460516 -1.6070954909e-07 0)
(1.04477472924 -2.60454194839e-07 0)
(1.04477489873 -3.87099756764e-07 0)
(1.04477512254 -5.45471193876e-07 0)
(1.04477541497 -7.43195554966e-07 0)
(1.0447757933 -9.88458875038e-07 0)
(1.04477627766 -1.29075396693e-06 0)
(1.04477689284 -1.66230053841e-06 0)
(1.04477766887 -2.11876085632e-06 0)
(1.0447786428 -2.68173377871e-06 0)
(1.04477985963 -3.37581965568e-06 0)
(1.04478137525 -4.2307941773e-06 0)
(1.04478326321 -5.28638568585e-06 0)
(1.04478561238 -6.58964847166e-06 0)
(1.04478852916 -8.19608437671e-06 0)
(1.04479215057 -1.01775001705e-05 0)
(1.04479664335 -1.262327029e-05 0)
(1.04480221134 -1.56419642408e-05 0)
(1.04480911131 -1.93681690596e-05 0)
(1.04481765966 -2.39715753241e-05 0)
(1.04482824872 -2.96603834169e-05 0)
(1.04484136461 -3.66941737264e-05 0)
(1.04485760574 -4.53971925586e-05 0)
(1.04487771854 -5.61727646221e-05 0)
(1.04490262034 -6.95134487576e-05 0)
(1.04493344416 -8.60262753032e-05 0)
(1.04497160718 -0.000106469781072 0)
(1.0450188554 -0.000131776405611 0)
(1.04507735093 -0.000163102963707 0)
(1.04514978194 -0.000201894290234 0)
(1.04523946932 -0.000249937775281 0)
(1.0453505253 -0.00030945058303 0)
(1.04548804802 -0.000383189524246 0)
(1.04565836151 -0.000474585574143 0)
(1.04586930972 -0.000587909477443 0)
(1.04613060871 -0.000728471624683 0)
(1.04645432797 -0.000902912236965 0)
(1.04685545987 -0.00111954466584 0)
(1.0473526045 -0.00138877114098 0)
(1.04796890236 -0.00172368433246 0)
(1.04873317341 -0.0021408270847 0)
(1.04968131193 -0.00266116521376 0)
(1.05085812332 -0.00331145425887 0)
(1.0523196477 -0.00412609761156 0)
(1.05413610891 -0.00514972276159 0)