/*--------------------------------*- C++ -*----------------------------------*\
| =========                 |                                                 |
| \\      /  F ield         | OpenFOAM: The Open Source CFD Toolbox           |
|  \\    /   O peration     | Version:  2106                                  |
|   \\  /    A nd           | Website:  www.openfoam.com                      |
|    \\/     M anipulation  |                                                 |
\*---------------------------------------------------------------------------*/
FoamFile
{
    version     2.0;
    format      ascii;
    arch        "LSB;label=32;scalar=64";
    class       volScalarField;
    location    "0.105";
    object      p;
}
// * * * * * * * * * * * * * * * * * * * * * * * * * * * * * * * * * * * * * //

dimensions      [0 2 -2 0 0 0 0];

internalField   nonuniform List<scalar> 
11200
(
143.972113724
141.043512006
139.929661395
139.402330556
139.035001363
138.740223577
138.478580399
138.23004258
137.985524888
137.740457739
137.492144078
137.238829286
136.97928137
136.712564678
136.437912179
136.154650199
135.862152565
135.559812841
135.247032042
134.923223344
134.587760748
134.239996047
133.879271176
133.50491715
133.116248613
132.712564431
132.293148432
131.857270246
131.404186067
130.933139277
130.443360993
129.934070575
129.404475948
128.853773676
128.281149267
127.685778017
127.066825879
126.423449404
125.754795954
125.060004283
124.338204859
123.588520056
122.810064297
122.001944093
121.16325795
120.293096145
119.390540273
118.454662533
117.484524642
116.479176276
115.437652931
114.358973062
113.24213434
112.086108834
110.889836865
109.652219189
108.372107114
107.048290001
105.679479544
104.264289885
102.801212565
101.288584899
99.7245496347
98.1070058825
96.4335437969
94.7013584181
92.9071394071
91.0469267879
89.1159166027
87.1081944746
85.0163723937
82.8310941936
80.5401601108
78.1273921451
75.5707206364
72.8385203394
69.8832529114
66.6325034094
62.933316302
58.1721576914
142.179071759
140.820897746
140.029926553
139.529912653
139.138924937
138.815042931
138.530522258
138.265920383
138.010432827
137.757911254
137.504528436
137.247770846
136.985901449
136.717643708
136.441997048
136.158126453
135.865294335
135.562817743
135.250038032
134.926292987
134.590935274
134.243275318
133.882686007
133.508494258
133.120003171
132.716505813
132.297283116
131.861602838
131.408719889
130.937876728
130.448303662
129.939218944
129.409828645
128.859329404
128.28690995
127.691747039
127.073006491
126.42984469
125.761408942
125.066838046
124.345262611
123.595805231
122.817580647
122.009695795
121.171249757
120.301333552
119.399029734
118.463411709
117.49354272
116.488474352
115.447244486
114.368874544
113.25236588
112.096695125
110.900808258
109.663613076
108.383969652
107.060678246
105.69246409
104.277958218
102.815673572
101.303974985
99.741039075
98.1248033505
96.4529004852
94.7225879754
92.9306507288
91.0732516308
89.1457514207
87.1424654835
85.0563247566
82.8783717119
80.5970616095
78.1972592991
75.6585723761
72.9524986594
70.0382425143
66.8579429148
63.3087488023
59.1952181499
141.183881496
140.529681201
139.977325773
139.539708448
139.16808516
138.845983934
138.556884498
138.286650933
138.026188252
137.76970765
137.513324218
137.254356308
136.990891875
136.721503872
136.445071075
136.160664649
135.867474707
135.564762378
135.251829059
134.927997136
134.592602944
134.245013626
133.884480697
133.510350249
133.121929761
132.718509611
132.299368562
131.863773357
131.410978553
130.940226708
130.450748704
129.941764269
129.412482643
128.862100242
128.289799124
127.694752754
127.07612949
126.433086409
125.764771762
125.070325389
124.348878862
123.599555759
122.821471954
122.013735707
121.175447674
120.305700776
119.403579882
118.468161246
117.498511628
116.493686916
115.452730254
114.374669511
113.258513949
112.103249893
110.907835197
109.671192189
108.392198706
107.069676777
105.70237856
104.288968277
102.827999215
101.317884787
99.7568615818
98.1429576479
96.4739367941
94.7472074651
92.9597274237
91.1078977349
89.1874040065
87.1930072851
85.1182572717
82.9550900612
80.6934094424
78.3202952956
75.8190198136
73.1677085629
70.338355049
67.2992761257
64.0144049949
60.4605156794
140.634120329
140.27073912
139.87084136
139.501851222
139.164234752
138.856132357
138.570768841
138.300064509
138.037692011
137.779024438
137.520643826
137.260018679
136.995249154
136.724867903
136.447698702
136.162758834
135.869191754
135.566221065
135.253119521
134.929187071
134.593732857
134.246071045
133.88555313
133.511453874
133.123068905
132.71968957
132.300593599
131.865046297
131.412301069
130.94159952
130.452171569
129.943235575
129.413998712
128.863658141
128.291402495
127.696410289
127.077846545
126.434871812
125.766632233
125.072267641
124.35091036
123.601684911
122.823708528
122.016091289
121.177936188
120.308339067
119.406388406
118.471164851
117.501740438
116.497177468
115.456526943
114.378826332
113.263096612
112.10833844
110.913527238
109.677606963
108.399482353
107.078008989
105.711980198
104.300110921
102.841018711
101.33320592
99.7750132617
98.1645828566
96.4998113978
94.778299376
92.9972714085
91.1534755005
89.2430585045
87.2614101603
85.2029727308
83.0610149645
80.8273022591
78.4917874015
76.0423719144
73.464940587
70.7447180498
67.8719515006
64.8501906771
61.7165313059
140.300072441
140.068277095
139.766864923
139.455888066
139.151048623
138.859025084
138.580049139
138.310922517
138.047961641
137.787876434
137.527906548
137.2658146
136.999808052
136.728437748
136.450506855
136.164998226
135.871019038
135.567759918
135.254465455
134.93041297
134.594897396
134.247222518
133.886688194
133.512592101
133.124231544
132.72089034
132.301841947
131.866349416
131.413664818
130.94302907
130.453672079
129.944812778
129.415659306
128.865408953
128.293248092
127.698352938
127.079889911
126.43701371
125.768876231
125.074618134
124.353373967
123.604270887
122.826428799
122.018960677
121.180972755
120.311564658
119.409829367
118.474852886
117.505714433
116.501484762
115.461225135
114.383985574
113.268802422
112.114695141
110.920662161
109.685675484
108.408673445
107.088550626
105.724150432
104.314249883
102.857549149
101.352637328
99.7979752719
98.1918692432
96.5324258986
94.8175035451
93.0446546592
91.2110572257
89.3134315398
87.3479429851
85.3100941183
83.194618822
80.9954063145
78.7055337071
76.3175732583
73.8245049243
71.2221171482
68.5148374739
65.7240237611
62.9003837388
140.09668002
139.920778112
139.679583598
139.412258068
139.135071228
138.858432861
138.586742854
138.320240672
138.057474798
137.796465216
137.535177073
137.271743342
137.004538531
136.732171725
136.453449894
136.167335172
135.872905344
135.569320866
135.255798902
134.931593566
134.595981307
134.248250303
133.887690764
133.513594025
133.125248419
132.721933183
132.302918837
131.867466304
131.414826176
130.944238349
130.454931803
129.946124692
129.417024442
128.866827982
128.294721903
127.699883106
127.081479675
126.438671493
125.770610034
125.076439993
124.35529775
123.606310598
122.828600055
122.021281335
121.183464298
120.314253262
119.41274701
118.478038849
117.509215685
116.505358347
115.465540408
114.38882678
113.274271891
112.120917232
110.927788107
109.693889533
108.418201514
107.099674635
105.737215394
104.329682412
102.875854872
101.374438439
99.8240500368
98.2231744883
96.5701445568
94.8631103752
93.100001203
91.278483542
89.3959176496
87.4493178123
85.4353279241
83.350235773
81.1900747136
78.9509027642
76.6294340301
74.2243166646
71.7386217112
69.1845185088
66.5889911844
63.9992060879
139.973563299
139.817955844
139.611654335
139.375092615
139.119617852
138.85633878
138.591725913
138.32821759
138.066084613
137.8044992
137.542127362
137.277492604
137.009165109
136.73583624
136.45633369
136.169609722
135.874719253
135.570796327
135.257032843
134.93266084
134.596938451
134.249139342
133.888544512
133.514436475
133.126095751
132.72279701
132.303807709
131.868386555
131.415782626
130.945234877
130.455971867
129.947211693
129.418162023
128.868020291
128.295974257
127.701202285
127.082873405
126.440147951
125.77217844
125.078108622
124.357073376
123.608204423
122.830628328
122.023465013
121.185828692
120.316828807
119.415570413
118.481154403
117.512677538
116.509232019
115.469905465
114.393780114
113.279931572
112.12742718
110.935323787
109.70266467
108.428475129
107.11175698
105.751488585
104.346605341
102.896007485
101.398536295
99.8529626486
98.2579740285
96.6121586337
94.913987373
93.1617961501
91.3537714464
89.4879441023
87.5622002974
85.5743269963
83.5221187022
81.4035987379
79.2174383458
76.9637125974
74.645190406
72.2694416107
69.8521032763
67.4201124705
65.0129193603
139.899483675
139.749473759
139.562718519
139.346613696
139.106908308
138.85408781
138.595451492
138.334714143
138.073348362
137.811427792
137.548211598
137.282576334
137.013281426
136.739105521
136.458904966
136.17162976
135.876318268
135.572083058
135.258094527
134.933565477
134.597737922
134.249872537
133.889240286
133.515115883
133.126774148
132.723485572
132.304514626
131.869117952
131.416543275
130.946028735
130.4568025
129.948082581
129.419076823
128.868983033
128.296989272
127.702274193
127.084007482
126.441350239
125.773455422
125.079469548
124.358534803
123.609784486
122.832345549
122.025341366
121.187891093
120.319110115
119.418110599
118.484001982
117.515891396
116.512884207
115.474083636
114.398590657
113.285503682
112.13391782
110.942923751
109.711606259
108.439042437
107.124298921
105.76642639
104.364460414
102.917407324
101.424247132
99.8839255517
98.2953459209
96.6573639695
94.9687845587
93.2283625795
91.4348126271
89.5868343289
87.6831640713
85.7226723306
83.7045300302
81.6284976257
79.4953959193
77.3078514642
75.0714190634
72.7961696936
70.4987631925
68.2039557716
65.9438560834
139.857207337
139.707759887
139.531344774
139.327607308
139.098075591
138.852368324
138.598009564
138.339372517
138.078667194
137.816574604
137.552778846
137.286422014
137.016412493
136.741601508
136.46087217
136.173176142
135.877541261
135.573064913
135.25890172
134.934250107
134.598339908
134.250421879
133.889759195
133.515620808
133.127276969
132.723995168
132.305037559
131.869659228
131.417106922
130.946618222
130.457421058
129.948733423
129.419763358
128.869709052
128.297759103
127.703092922
127.084881252
126.442286797
125.774465058
125.08056519
124.359727445
123.611089252
122.83378258
122.026935053
121.189670848
120.321111523
119.420376815
118.48658542
117.518855705
116.516306391
115.478057138
114.403229073
113.290945139
112.140330283
110.950511455
109.720617382
108.449778035
107.137123799
105.781786666
104.382897561
102.939584906
101.450975018
99.9161921864
98.334359718
96.704604649
95.0260670218
93.2979167321
91.5193829922
89.6898044507
87.8087094585
85.8759467586
83.89188569
81.8577311992
79.7759859595
77.6511141354
75.4904398843
73.3052573838
71.1120434812
68.932927071
66.7941904334
139.837930896
139.688053272
139.516090797
139.318156111
139.093595788
138.851477909
138.599344123
138.341836715
138.081511266
137.819351916
137.555263371
137.288529828
137.018141582
136.742991014
136.461977311
136.174054144
135.87824435
135.573637494
135.259379868
134.934662218
134.598707823
134.250762102
133.89008408
133.51593964
133.127596439
132.724320487
132.305372723
131.870007473
131.417471064
130.947000918
130.45782503
129.949161553
129.420218876
128.870195706
128.298281355
127.703656181
127.08549213
126.442953334
125.775196659
125.081371952
124.360624456
123.612093761
122.834915125
122.028220512
121.191139459
120.322800014
119.422329771
118.488856955
117.52151153
116.519426326
115.481738151
114.407588927
113.29612683
112.146507436
110.957894924
109.729463369
108.460398191
107.14989762
105.797173171
104.40145473
102.961993894
101.4780622
99.9489632585
98.3740394081
96.7526850081
95.0843664089
93.3686513104
91.6052533324
89.794099531
87.9354260471
86.0299309234
84.0789846117
82.084945965
80.0515788304
77.9846094176
75.8924154214
73.7867693257
71.6834957876
69.6023735663
67.5654332499
139.837933457
139.688069291
139.516117719
139.318192214
139.093640309
138.851530034
138.599402968
138.341901492
138.081581311
137.819426671
137.555342374
137.288612694
137.018228006
136.743080763
136.462070224
136.174150132
135.878343403
135.573739669
135.259485293
134.934771088
134.598820398
134.250878711
133.890205142
133.516065681
133.127728086
132.724458478
132.30551797
131.870161106
131.417634475
130.947175783
130.458013289
129.949365669
129.420441825
128.87044108
128.298553502
127.703960368
127.08583473
126.443342057
125.775640972
125.081883963
124.361218192
123.612786264
122.835727183
122.029177389
121.192271814
120.324145064
119.423932695
118.490772602
117.523806488
116.522181427
115.485051527
114.411579715
113.300939652
112.152317819
110.964915872
109.73795328
108.470670383
107.162331996
105.812230796
104.419695497
102.984097873
101.504853377
99.9814396782
98.4134111297
96.8004167224
95.1422273623
93.4387766917
91.6902174327
89.896996472
88.0599736818
86.1806590825
84.2611885303
82.3047603323
80.3160252445
78.3015161801
76.2701655019
74.2338071259
72.207528123
70.2093192595
68.2583731998
139.857215074
139.707808322
139.531426149
139.327716366
139.098210015
138.852525478
138.598186751
138.33956739
138.078877774
137.816799227
137.553016129
137.28667082
137.016671911
136.741870845
136.461150949
136.173464108
135.877838385
135.573371378
135.259217907
134.934576598
134.598677481
134.250771503
133.890122106
133.51599857
133.127671417
132.724408492
132.305472453
131.87011901
131.417595662
130.947140881
130.457983634
129.949343196
129.420429116
128.870441435
128.298571051
127.704000225
127.085903188
126.44344683
125.775791463
125.082091604
124.361496844
123.613152804
122.836202137
122.02978568
121.193043699
120.325117273
119.425149821
118.492288781
117.525687434
116.524506903
115.487918338
114.415105331
113.305266569
112.157618859
110.971400575
109.745875672
108.480338402
107.17411891
105.826589292
104.437170416
103.00534632
101.530675905
100.012804064
98.4514793102
96.8465905134
95.1982079172
93.5066188282
91.77236693
89.9963630501
88.1799832008
86.3251297773
84.4346593289
82.512476818
80.5638366778
78.595752182
76.6174065916
74.6405170736
72.6795534759
70.7513192354
68.8733595772
139.899496783
139.749555741
139.562856008
139.346797565
139.107134491
138.854351743
138.595748584
138.335040447
138.073700569
137.811803139
137.548607797
137.282991514
137.013714094
136.739554546
136.459369574
136.172109546
135.876813194
135.572593438
135.258621003
134.934109021
134.598299849
134.250454435
133.889844118
133.515744161
133.127429863
132.724172359
132.305236921
131.869881203
131.417354162
130.946895406
130.457734827
129.949092485
129.420178683
128.870194237
128.2983309
127.703771919
127.085692684
126.443261475
125.775640248
125.081985492
124.361449178
123.613179794
122.836323489
122.030025347
121.193430782
120.325687115
119.42594534
118.49336208
117.527101763
116.526339026
115.490261397
114.41807229
113.308994385
112.162273514
110.97718316
109.753029721
108.489158738
107.184962287
105.839887838
104.453448402
103.025234026
101.554931341
100.042340242
98.4874031583
96.8902254909
95.2511085193
93.5706109484
91.8496350175
90.0894815263
88.291960701
86.4595224473
84.5954373392
82.7040117123
80.7908577778
78.8632089241
76.9302580263
75.0034797838
73.0968755901
71.2266576714
69.4098472148
139.973582162
139.818073535
139.611851034
139.375354724
139.119939236
138.856712727
138.592145812
138.328677838
138.066580564
137.805027006
137.542683862
137.278075225
137.009771812
136.736465482
136.456984422
136.170281393
135.875411808
135.571510189
135.257768881
134.933420371
134.597723273
134.249951638
133.889387102
133.515312622
133.127009586
132.723753522
132.304812977
131.869448029
131.416909434
130.946438162
130.457265168
129.948611395
129.419687948
128.869696438
128.297829458
127.703271195
127.085198127
126.442779835
125.775179852
125.081556565
124.361064215
123.612853987
122.836075285
122.02987714
121.193409776
120.325826364
119.426285004
118.493950936
117.527999032
116.527616585
115.492006438
114.420390518
113.312013895
112.16614946
110.982103367
109.759221439
108.496896709
107.194578384
105.851782459
104.468104515
103.043234996
101.576976902
100.069267799
98.5202080908
96.9300970245
95.299474447
93.6291686993
91.9203592584
90.17465818
88.3942112088
86.5818173625
84.7410782342
82.8765738876
80.9940816924
79.1008369512
77.2058338014
75.3201715987
73.4574583126
71.6337705229
69.8666177268
140.096705322
139.920935234
139.679844733
139.412604235
139.135493733
138.858922529
138.5872909
138.320839793
138.058119024
137.797149654
137.53589774
137.272497023
137.005322689
136.73298445
136.454289889
136.168201741
135.873798373
135.570240775
135.256746579
134.932570336
134.596988909
134.249290916
133.888769271
133.514715735
133.126417879
132.723156164
132.304202685
131.868820105
131.416261082
130.94576801
130.45657294
129.947897709
129.418954218
128.868944855
128.297063039
127.702493857
127.084414774
126.44199647
125.774403811
125.080796846
124.360331915
123.612162771
122.835441901
122.029322001
121.192957676
120.325507391
119.426135666
118.494015542
117.52833136
116.528281877
115.493083784
114.421975746
113.314223045
112.169122941
110.98601101
109.764268653
108.503331839
107.202701324
105.861954794
104.480761338
103.058898763
101.596274415
100.09294987
98.5491707665
96.9654024208
95.342373376
93.6811280803
91.9830890539
90.250129722
88.4846623558
86.6897404376
84.8691823802
83.0277092373
81.171109447
79.3064420759
77.4422989994
75.5891963993
73.7602290709
71.9714687504
70.2416637403
140.300104887
140.068478538
139.767197016
139.456325345
139.151579141
138.859636774
138.580730883
138.311665303
138.048758234
137.788720988
137.528794358
137.266741916
137.000771959
136.729436112
136.451538313
136.166062169
135.872115559
135.56888966
135.255629371
134.931612332
134.596134136
134.24849792
133.888008218
133.513965345
133.125662534
132.722385227
132.303408988
131.867998971
131.415409649
130.944884737
130.455657283
129.946949932
129.417975294
128.867936479
128.296027678
127.701434868
127.083336575
126.440904674
125.773305313
125.07969987
124.359246172
123.611099881
122.834415973
122.028350285
121.19206135
120.324712416
119.425473764
118.493525346
117.528059826
116.52828602
115.493432805
114.422753558
113.315531293
112.171084676
110.988775116
109.768014781
108.508275912
107.209103647
105.870128893
104.49108422
103.071822809
101.612340949
100.112804706
98.5735816589
96.9952782715
95.3787835669
93.7253205141
92.0365056372
90.3144171298
88.5616719338
86.7815099494
84.9778875879
83.1555752226
81.3202643725
79.4786981763
77.6388580543
75.8103475518
74.0053047116
72.2392465844
70.5320363913
140.634159956
140.270988582
139.871246968
139.502380057
139.164870921
138.856860406
138.571575205
138.300938508
138.03862523
137.780010181
137.521676783
137.261094686
136.996365065
136.726021564
136.448889004
136.16398581
135.870456684
135.567526423
135.254468442
134.930583796
134.595186782
134.247592995
133.887119509
133.513072321
133.124751381
132.7214464
132.302436035
131.86698773
131.414357619
130.943790484
130.454520141
129.94576987
129.416752835
128.86667258
128.294723709
127.700092703
127.081958853
126.439495087
125.771868753
125.078242856
124.357777532
123.609629987
122.832957378
122.026918182
121.190674015
120.323391858
119.424246588
118.492423843
117.527123304
116.527562078
115.492978849
114.422638963
113.315839905
112.171917778
110.99025496
109.770289343
108.511525309
107.213544727
105.87602226
104.498742649
103.081620846
101.624725839
100.128308607
98.5928350262
97.0190241828
95.4078926878
93.7608052658
92.0795316412
90.3663087348
88.6239077376
86.8557027347
85.0657381786
83.258786241
81.4403919106
79.6169087203
77.7955348237
75.9845391776
74.1942526511
72.4378398268
70.7338372646
141.183933128
140.529992861
139.977814954
139.54033423
139.168827963
138.846825032
138.557808128
138.287644977
138.027243257
137.770816119
137.514480161
137.255554922
136.99212933
136.722777216
136.446378226
136.162004555
135.86884779
135.566171469
135.253279729
134.929497262
134.594156035
134.246583931
133.886103544
133.512034442
133.123680649
132.720335056
132.301278852
131.865781356
131.413100108
130.942481022
130.453158611
129.944356765
129.415289229
128.865160144
128.293164721
127.698489894
127.080314732
126.43781203
125.770150424
125.076493605
124.356001755
123.607834454
122.831150775
122.025111312
121.188880286
120.321627825
119.422532551
118.490784517
117.525588506
116.526168121
115.491770231
114.42166973
113.315175496
112.171637327
110.990453965
109.771082366
108.513049527
107.215965714
105.879539218
104.503594543
103.08809366
101.6331609
100.139112085
98.6064883646
97.03609497
95.4290455167
93.7868114309
92.1112760715
90.4047923458
88.6702451817
86.9111069362
85.13148597
83.3361524556
81.530530942
79.7206307722
77.9128236288
76.1137339753
74.3308481286
72.5711929954
70.8431563593
142.179170778
140.821354902
140.030608304
139.530766075
139.139927004
138.816173127
138.53176398
138.267260998
138.011862507
137.759422164
137.506114198
137.249426113
136.987621535
136.719424267
136.443833774
136.160014788
135.867228995
135.564791875
135.252046232
134.928342835
134.593019539
134.24543478
133.884929574
133.510821802
133.12242001
132.719020492
132.299906394
131.864347335
131.411599835
130.940912108
130.451519573
129.942646466
129.413506776
128.863304889
128.291236322
127.696488615
127.07824263
126.435672796
125.767946988
125.074229523
124.353681946
123.605464221
122.828736384
122.022660406
121.186402209
120.319133986
119.420036886
118.48830408
117.523144211
116.523785319
115.489479394
114.419507626
113.313186555
112.169875267
110.988983874
109.769983641
108.51241793
107.215915715
105.880208123
104.505146869
103.090726049
101.637107598
100.144650912
98.6139470627
97.0458580173
95.4415609147
93.8025970996
92.1309233767
90.4289688493
88.699705952
86.9466820319
85.1740651216
83.3866601767
81.5898856363
79.7896392199
77.991785641
76.2018489241
74.4245715422
72.6547994701
70.8623857984
143.972279332
141.044181599
139.930653792
139.403583459
139.036484618
138.741912808
138.480457403
138.232094226
137.987741647
137.742832774
137.494672668
137.2415085
136.982109992
136.71554333
136.441043546
136.157939206
135.865606408
135.563440382
135.25083835
134.92719326
134.591902907
134.244319508
133.883778459
133.509614552
133.121145165
132.717671011
132.298478107
131.862839744
131.41001745
130.939255686
130.449789348
129.940842872
129.41163038
128.861356345
128.289216346
127.694397842
127.07608104
126.43343997
125.765643526
125.071856517
124.351240861
123.602957136
122.826166099
122.020030517
121.183717241
120.316399589
119.417260067
118.485493433
117.520310213
116.520940761
115.486639856
114.416692028
113.310417808
112.167181007
110.986397305
109.767544348
108.510173587
107.213924074
105.878538558
104.503882451
103.089966052
101.63697045
100.145277693
98.615505297
97.0485459947
95.4456120901
93.808285475
92.1385753004
90.4389742079
88.7124898745
86.9627279925
85.19392654
83.4109767755
81.6194027385
79.8252678237
78.0351131668
76.255430571
74.4912097658
72.7225879304
70.8242791815
50.7652916505
47.215574721
44.8272058012
42.8750451693
41.2097987941
39.7602586217
38.4814541792
37.3428621233
36.3222672527
35.4026988408
34.5708164748
33.8158927278
33.1291192396
32.5031175632
31.9315918582
31.4090852538
30.9308109033
30.492534259
30.0904892062
29.7213156086
29.3820098991
29.069883527
28.7825264862
28.5177749338
28.2736827323
28.0484967354
27.8406353168
27.6486690577
27.4713032329
27.3073622767
27.1557764162
27.0155707133
26.8858555262
26.7658178472
26.6547131777
26.5518584515
26.4566264209
26.3684411311
26.2867738807
26.2111403959
26.1411035085
26.0762850963
26.0162794565
25.9607210905
25.9092639865
25.8615815282
25.8173825595
25.7764011364
25.7383924033
25.7031295307
25.6704006192
25.6400216418
25.6117982536
25.5855611936
25.5611535521
25.538424702
25.5172418109
25.4974918876
25.4790583661
25.4618222973
25.4456808804
25.4305412108
25.4163187729
25.4029358209
25.3903197756
25.3784031437
25.3671244858
25.3564282261
25.3462629122
25.3365801622
25.327335679
25.3184903141
25.3100089046
25.3018581594
25.2940066796
25.2864267439
25.2790945809
25.2719883646
25.2650870368
25.2583714425
25.2518254618
25.2454352625
25.239188052
25.2330721231
25.2270773069
25.2211947278
25.2154171009
25.2097391544
25.2041565894
25.198664701
25.1932595266
25.1879397725
25.1827061419
25.1775587932
25.1724979377
25.1675257108
25.1626461962
25.1578635478
25.1531827274
25.1486104181
25.1441547063
25.1398239161
25.1356278686
25.1315782282
25.1276880389
25.123971087
25.1204430138
25.117121047
25.1140244453
25.1111736865
25.108590108
25.1062979274
25.1043245152
25.1026964422
25.1014421072
25.1005959058
25.100193351
25.1002677207
25.1008561862
25.1019974758
25.1037259628
25.106074629
25.1090755589
25.1127555124
25.1171383799
25.1222452673
25.1280857898
25.1346517562
25.1419110044
25.149799273
25.1582176986
25.1670284736
25.1760381504
25.1849742431
25.1934635126
25.2010274105
25.2071130804
25.2111736576
25.2128569575
25.2124404394
25.2116358679
25.2147850364
25.2301713546
25.2708208773
25.3535306688
25.4942113603
25.6998087005
25.9571656359
26.2225301433
26.4091849598
26.4066647568
26.0604115209
25.2112851992
23.70376671
21.45064983
18.4828148814
14.964542539
10.9862306445
6.31735862556
1.48286641812
53.9487529411
49.8962051135
47.1876565731
45.0409153095
43.2459553503
41.7033874192
40.354019643
39.1598177955
38.0940916478
37.1370125728
36.2733338932
35.4910095848
34.7802920214
34.1331170214
33.542677904
33.0031304641
32.5093899339
32.0569899922
31.6419821212
31.2608612731
30.9105077295
30.5881387059
30.2912667737
30.0176636673
29.7653289597
29.5324632085
29.3174447316
29.1188092245
28.9352310047
28.7655069382
28.6085427713
28.4633416104
28.3289940983
28.2046688803
28.0896037796
27.983098387
27.8845078402
27.7932380858
27.7087406216
27.6305068364
27.5580607747
27.4909566755
27.4287893729
27.371186345
27.3178125081
27.2683626545
27.2225422613
27.1800750553
27.1407045814
27.1041927142
27.0703176873
27.0388600619
27.0096396805
26.9824814916
26.9572214327
26.9337087654
26.9118009371
26.8913630982
26.8722796114
26.8544411412
26.8377441005
26.822092545
26.8073986239
26.7935814395
26.7805653017
26.7682799046
26.7566613357
26.745651902
26.7351979602
26.7252490188
26.715758908
26.7066869209
26.6979962387
26.6896521129
26.6816214246
26.6738755244
26.6663894953
26.6591401045
26.6521050515
26.6452640688
26.6386004907
26.632099302
26.6257465
26.6195298496
26.6134377131
26.6074607106
26.601590234
26.5958207805
26.5901468341
26.5845626949
26.5790631559
26.5736470124
26.5683129698
26.5630615027
26.557889548
26.5528006842
26.5477964307
26.5428808444
26.5380556047
26.5333288383
26.5287045129
26.5241915733
26.519795834
26.5155293144
26.5114009746
26.5074240429
26.5036094364
26.4999740924
26.4965315606
26.4933004075
26.4902968609
26.4875418289
26.4850561109
26.4828626257
26.4809805856
26.479439784
26.4782673094
26.4774832961
26.477118134
26.4771979514
26.4777367596
26.4787586278
26.4802720221
26.4822766918
26.4847786902
26.4877637854
26.4912003719
26.4950401682
26.4991959804
26.5035382213
26.5078844336
26.5120015614
26.5155796883
26.5181863041
26.5192557907
26.5180545938
26.5137175258
26.5052982403
26.4919295649
26.4732970297
26.4504591932
26.427166124
26.4113158151
26.415889705
26.4579977048
26.5542245434
26.7118025783
26.9169428503
27.1240580524
27.245509226
27.1660747518
26.7367469533
25.7950860722
24.1935083377
21.8516459401
18.8038888934
15.2113369791
11.176184633
6.48625075495
1.57456187114
56.1580328432
52.2244525894
49.3608530384
47.0826904695
45.1877535497
43.568587317
42.1591940507
40.9167847611
39.8114538654
38.8211760974
37.9291730048
37.1223072266
36.390038324
35.7237159292
35.1160932366
34.5609911452
34.053067282
33.5876554472
33.1606506153
32.7684243055
32.4077582766
32.0757901685
31.7699674694
31.4880080167
31.2278661627
30.9877039249
30.7658658879
30.5608576174
30.3713259405
30.1960423693
30.0338890264
29.8838465909
29.7449840436
29.6164489385
29.4974587381
29.3872936328
29.2852904088
29.1908377917
29.1033717212
29.0223713127
28.9473558246
28.8778825597
28.8135378071
28.7539388422
28.6987287648
28.6475726649
28.6001622845
28.5562154918
28.5154721412
28.477690876
28.4426467264
28.410127956
28.3799369342
28.3518906964
28.325819175
28.301564795
28.2789814704
28.2579346358
28.2382987771
28.219957055
28.202801284
28.1867318421
28.1716571661
28.1574926705
28.1441595153
28.1315848728
28.1197024442
28.1084519659
28.0977774358
28.0876266083
28.0779518057
28.0687103842
28.0598633284
28.0513744411
28.0432099006
28.0353400084
28.0277382399
28.0203798637
28.0132419014
28.0063035971
27.9995473232
27.9929571117
27.9865181334
27.9802174744
27.9740426828
27.9679837057
27.9620315135
27.9561797175
27.9504216873
27.9447512056
27.9391630323
27.9336551549
27.9282243684
27.9228703161
27.9175901064
27.9123860537
27.9072579396
27.9022090157
27.897240363
27.8923581315
27.8875645299
27.882867344
27.8782710278
27.8737847333
27.8694156413
27.8651750648
27.8610710761
27.8571173772
27.8533246586
27.849707324
27.8462779441
27.8430535161
27.8400487489
27.8372810254
27.8347649293
27.8325209431
27.8305680428
27.8289182442
27.8275894647
27.8265959079
27.8259376686
27.8256203317
27.8256346567
27.8259596918
27.8265733538
27.82743067
27.8284637724
27.8295779337
27.8306316317
27.8314348801
27.831730275
27.8311857309
27.8293675572
27.8256900666
27.8193953692
27.8095094176
27.7948433001
27.774035187
27.7456996601
27.708894635
27.6639909767
27.6140553896
27.5664968731
27.5341688798
27.5343407441
27.5842867955
27.6916390584
27.8422201171
27.9889402257
28.0433464314
27.8868579373
27.3763739294
26.3453354166
24.655810984
22.2329278885
19.1128160809
15.4515829733
11.3613187267
6.64898390765
1.66164028363
57.9634916445
54.2396259837
51.3393855893
48.9900389788
47.0269116053
45.3496912299
43.892280037
42.6100598701
41.4713379491
40.4526575024
39.5361477652
38.7078492899
37.9566032238
37.2732915109
36.6503113219