/*--------------------------------*- C++ -*----------------------------------*\
| =========                 |                                                 |
| \\      /  F ield         | OpenFOAM: The Open Source CFD Toolbox           |
|  \\    /   O peration     | Version:  v1706                                 |
|   \\  /    A nd           | Web:      www.OpenFOAM.com                      |
|    \\/     M anipulation  |                                                 |
\*---------------------------------------------------------------------------*/
FoamFile
{
    version     2.0;
    format      ascii;
    class       volVectorField;
    location    "0";
    object      B;
}
// * * * * * * * * * * * * * * * * * * * * * * * * * * * * * * * * * * * * * //

dimensions      [1 0 -2 0 0 -1 0];


internalField   nonuniform List<vector> 
160000
(
(-0.00785391 0.0157073 0)
(-0.0235598 0.0157073 0)
(-0.0392598 0.0157073 0)
(-0.0549502 0.0157073 0)
(-0.070627 0.0157073 0)
(-0.0862864 0.0157073 0)
(-0.101925 0.0157073 0)
(-0.117537 0.0157073 0)
(-0.133121 0.0157073 0)
(-0.148673 0.0157073 0)
(-0.164187 0.0157073 0)
(-0.179661 0.0157073 0)
(-0.19509 0.0157073 0)
(-0.210472 0.0157073 0)
(-0.225801 0.0157073 0)
(-0.241075 0.0157073 0)
(-0.25629 0.0157073 0)
(-0.271441 0.0157073 0)
(-0.286525 0.0157073 0)
(-0.301538 0.0157073 0)
(-0.316477 0.0157073 0)
(-0.331338 0.0157073 0)
(-0.346117 0.0157073 0)
(-0.360811 0.0157073 0)
(-0.375416 0.0157073 0)
(-0.389928 0.0157073 0)
(-0.404344 0.0157073 0)
(-0.41866 0.0157073 0)
(-0.432873 0.0157073 0)
(-0.446979 0.0157073 0)
(-0.460975 0.0157073 0)
(-0.474857 0.0157073 0)
(-0.488622 0.0157073 0)
(-0.502266 0.0157073 0)
(-0.515786 0.0157073 0)
(-0.529179 0.0157073 0)
(-0.542442 0.0157073 0)
(-0.555571 0.0157073 0)
(-0.568562 0.0157073 0)
(-0.581414 0.0157073 0)
(-0.594121 0.0157073 0)
(-0.606683 0.0157073 0)
(-0.619094 0.0157073 0)
(-0.631353 0.0157073 0)
(-0.643456 0.0157073 0)
(-0.655401 0.0157073 0)
(-0.667183 0.0157073 0)
(-0.678801 0.0157073 0)
(-0.690252 0.0157073 0)
(-0.701532 0.0157073 0)
(-0.712639 0.0157073 0)
(-0.72357 0.0157073 0)
(-0.734323 0.0157073 0)
(-0.744894 0.0157073 0)
(-0.755282 0.0157073 0)
(-0.765484 0.0157073 0)
(-0.775496 0.0157073 0)
(-0.785317 0.0157073 0)
(-0.794945 0.0157073 0)
(-0.804376 0.0157073 0)
(-0.813609 0.0157073 0)
(-0.822641 0.0157073 0)
(-0.83147 0.0157073 0)
(-0.840094 0.0157073 0)
(-0.848511 0.0157073 0)
(-0.856718 0.0157073 0)
(-0.864714 0.0157073 0)
(-0.872496 0.0157073 0)
(-0.880064 0.0157073 0)
(-0.887414 0.0157073 0)
(-0.894545 0.0157073 0)
(-0.901455 0.0157073 0)
(-0.908144 0.0157073 0)
(-0.914608 0.0157073 0)
(-0.920846 0.0157073 0)
(-0.926857 0.0157073 0)
(-0.932639 0.0157073 0)
(-0.938192 0.0157073 0)
(-0.943512 0.0157073 0)
(-0.9486 0.0157073 0)
(-0.953454 0.0157073 0)
(-0.958073 0.0157073 0)
(-0.962455 0.0157073 0)
(-0.9666 0.0157073 0)
(-0.970507 0.0157073 0)
(-0.974174 0.0157073 0)
(-0.9776 0.0157073 0)
(-0.980785 0.0157073 0)
(-0.983729 0.0157073 0)
(-0.986429 0.0157073 0)
(-0.988887 0.0157073 0)
(-0.9911 0.0157073 0)
(-0.993069 0.0157073 0)
(-0.994792 0.0157073 0)
(-0.99627 0.0157073 0)
(-0.997503 0.0157073 0)
(-0.998489 0.0157073 0)
(-0.999229 0.0157073 0)
(-0.999722 0.0157073 0)
(-0.999969 0.0157073 0)
(-0.999969 0.0157073 0)
(-0.999722 0.0157073 0)
(-0.999229 0.0157073 0)
(-0.998489 0.0157073 0)
(-0.997503 0.0157073 0)
(-0.99627 0.0157073 0)
(-0.994792 0.0157073 0)
(-0.993068 0.0157073 0)
(-0.9911 0.0157073 0)
(-0.988886 0.0157073 0)
(-0.986429 0.0157073 0)
(-0.983728 0.0157073 0)
(-0.980785 0.0157073 0)
(-0.9776 0.0157073 0)
(-0.974173 0.0157073 0)
(-0.970506 0.0157073 0)
(-0.9666 0.0157073 0)
(-0.962455 0.0157073 0)
(-0.958073 0.0157073 0)
(-0.953454 0.0157073 0)
(-0.9486 0.0157073 0)
(-0.943512 0.0157073 0)
(-0.938191 0.0157073 0)
(-0.932639 0.0157073 0)
(-0.926856 0.0157073 0)
(-0.920845 0.0157073 0)
(-0.914607 0.0157073 0)
(-0.908143 0.0157073 0)
(-0.901454 0.0157073 0)
(-0.894544 0.0157073 0)
(-0.887413 0.0157073 0)
(-0.880063 0.0157073 0)
(-0.872495 0.0157073 0)
(-0.864713 0.0157073 0)
(-0.856717 0.0157073 0)
(-0.848509 0.0157073 0)
(-0.840093 0.0157073 0)
(-0.831469 0.0157073 0)
(-0.82264 0.0157073 0)
(-0.813607 0.0157073 0)
(-0.804375 0.0157073 0)
(-0.794943 0.0157073 0)
(-0.785316 0.0157073 0)
(-0.775495 0.0157073 0)
(-0.765482 0.0157073 0)
(-0.755281 0.0157073 0)
(-0.744893 0.0157073 0)
(-0.734321 0.0157073 0)
(-0.723569 0.0157073 0)
(-0.712637 0.0157073 0)
(-0.70153 0.0157073 0)
(-0.69025 0.0157073 0)
(-0.678799 0.0157073 0)
(-0.667181 0.0157073 0)
(-0.655399 0.0157073 0)
(-0.643454 0.0157073 0)
(-0.631351 0.0157073 0)
(-0.619092 0.0157073 0)
(-0.606681 0.0157073 0)
(-0.59412 0.0157073 0)
(-0.581412 0.0157073 0)
(-0.56856 0.0157073 0)
(-0.555569 0.0157073 0)
(-0.54244 0.0157073 0)
(-0.529177 0.0157073 0)
(-0.515784 0.0157073 0)
(-0.502264 0.0157073 0)
(-0.48862 0.0157073 0)
(-0.474855 0.0157073 0)
(-0.460973 0.0157073 0)
(-0.446977 0.0157073 0)
(-0.432871 0.0157073 0)
(-0.418658 0.0157073 0)
(-0.404342 0.0157073 0)
(-0.389926 0.0157073 0)
(-0.375414 0.0157073 0)
(-0.360809 0.0157073 0)
(-0.346115 0.0157073 0)
(-0.331336 0.0157073 0)
(-0.316475 0.0157073 0)
(-0.301536 0.0157073 0)
(-0.286523 0.0157073 0)
(-0.271438 0.0157073 0)
(-0.256287 0.0157073 0)
(-0.241073 0.0157073 0)
(-0.225799 0.0157073 0)
(-0.21047 0.0157073 0)
(-0.195088 0.0157073 0)
(-0.179659 0.0157073 0)
(-0.164185 0.0157073 0)
(-0.14867 0.0157073 0)
(-0.133119 0.0157073 0)
(-0.117535 0.0157073 0)
(-0.101922 0.0157073 0)
(-0.0862841 0.0157073 0)
(-0.0706247 0.0157073 0)
(-0.0549479 0.0157073 0)
(-0.0392575 0.0157073 0)
(-0.0235574 0.0157073 0)
(-0.00785156 0.0157073 0)
(0.00785625 0.0157073 0)
(0.0235621 0.0157073 0)
(0.0392622 0.0157073 0)
(0.0549526 0.0157073 0)
(0.0706294 0.0157073 0)
(0.0862888 0.0157073 0)
(0.101927 0.0157073 0)
(0.11754 0.0157073 0)
(0.133124 0.0157073 0)
(0.148675 0.0157073 0)
(0.164189 0.0157073 0)
(0.179663 0.0157073 0)
(0.195093 0.0157073 0)
(0.210474 0.0157073 0)
(0.225804 0.0157073 0)
(0.241078 0.0157073 0)
(0.256292 0.0157073 0)
(0.271443 0.0157073 0)
(0.286527 0.0157073 0)
(0.30154 0.0157073 0)
(0.316479 0.0157073 0)
(0.33134 0.0157073 0)
(0.34612 0.0157073 0)
(0.360813 0.0157073 0)
(0.375418 0.0157073 0)
(0.38993 0.0157073 0)
(0.404346 0.0157073 0)
(0.418662 0.0157073 0)
(0.432875 0.0157073 0)
(0.446981 0.0157073 0)
(0.460977 0.0157073 0)
(0.474859 0.0157073 0)
(0.488624 0.0157073 0)
(0.502268 0.0157073 0)
(0.515788 0.0157073 0)
(0.529181 0.0157073 0)
(0.542444 0.0157073 0)
(0.555573 0.0157073 0)
(0.568564 0.0157073 0)
(0.581415 0.0157073 0)
(0.594123 0.0157073 0)
(0.606685 0.0157073 0)
(0.619096 0.0157073 0)
(0.631355 0.0157073 0)
(0.643458 0.0157073 0)
(0.655402 0.0157073 0)
(0.667185 0.0157073 0)
(0.678803 0.0157073 0)
(0.690253 0.0157073 0)
(0.701534 0.0157073 0)
(0.712641 0.0157073 0)
(0.723572 0.0157073 0)
(0.734325 0.0157073 0)
(0.744896 0.0157073 0)
(0.755284 0.0157073 0)
(0.765485 0.0157073 0)
(0.775498 0.0157073 0)
(0.785319 0.0157073 0)
(0.794946 0.0157073 0)
(0.804377 0.0157073 0)
(0.81361 0.0157073 0)
(0.822642 0.0157073 0)
(0.831471 0.0157073 0)
(0.840095 0.0157073 0)
(0.848512 0.0157073 0)
(0.856719 0.0157073 0)
(0.864715 0.0157073 0)
(0.872498 0.0157073 0)
(0.880065 0.0157073 0)
(0.887415 0.0157073 0)
(0.894546 0.0157073 0)
(0.901456 0.0157073 0)
(0.908145 0.0157073 0)
(0.914608 0.0157073 0)
(0.920847 0.0157073 0)
(0.926858 0.0157073 0)
(0.93264 0.0157073 0)
(0.938192 0.0157073 0)
(0.943513 0.0157073 0)
(0.948601 0.0157073 0)
(0.953455 0.0157073 0)
(0.958074 0.0157073 0)
(0.962456 0.0157073 0)
(0.966601 0.0157073 0)
(0.970507 0.0157073 0)
(0.974174 0.0157073 0)
(0.977601 0.0157073 0)
(0.980786 0.0157073 0)
(0.983729 0.0157073 0)
(0.98643 0.0157073 0)
(0.988887 0.0157073 0)
(0.9911 0.0157073 0)
(0.993069 0.0157073 0)
(0.994792 0.0157073 0)
(0.996271 0.0157073 0)
(0.997503 0.0157073 0)
(0.998489 0.0157073 0)
(0.999229 0.0157073 0)
(0.999723 0.0157073 0)
(0.999969 0.0157073 0)
(0.999969 0.0157073 0)
(0.999722 0.0157073 0)
(0.999229 0.0157073 0)
(0.998489 0.0157073 0)
(0.997503 0.0157073 0)
(0.99627 0.0157073 0)
(0.994792 0.0157073 0)
(0.993068 0.0157073 0)
(0.991099 0.0157073 0)
(0.988886 0.0157073 0)
(0.986429 0.0157073 0)
(0.983728 0.0157073 0)
(0.980785 0.0157073 0)
(0.977599 0.0157073 0)
(0.974173 0.0157073 0)
(0.970506 0.0157073 0)
(0.966599 0.0157073 0)
(0.962454 0.0157073 0)
(0.958072 0.0157073 0)
(0.953453 0.0157073 0)
(0.948599 0.0157073 0)
(0.943511 0.0157073 0)
(0.93819 0.0157073 0)
(0.932638 0.0157073 0)
(0.926855 0.0157073 0)
(0.920844 0.0157073 0)
(0.914606 0.0157073 0)
(0.908142 0.0157073 0)
(0.901453 0.0157073 0)
(0.894543 0.0157073 0)
(0.887412 0.0157073 0)
(0.880061 0.0157073 0)
(0.872494 0.0157073 0)
(0.864711 0.0157073 0)
(0.856715 0.0157073 0)
(0.848508 0.0157073 0)
(0.840091 0.0157073 0)
(0.831467 0.0157073 0)
(0.822638 0.0157073 0)
(0.813606 0.0157073 0)
(0.804373 0.0157073 0)
(0.794942 0.0157073 0)
(0.785314 0.0157073 0)
(0.775493 0.0157073 0)
(0.765481 0.0157073 0)
(0.755279 0.0157073 0)
(0.744891 0.0157073 0)
(0.73432 0.0157073 0)
(0.723567 0.0157073 0)
(0.712636 0.0157073 0)
(0.701528 0.0157073 0)
(0.690248 0.0157073 0)
(0.678798 0.0157073 0)
(0.66718 0.0157073 0)
(0.655397 0.0157073 0)
(0.643453 0.0157073 0)
(0.63135 0.0157073 0)
(0.619091 0.0157073 0)
(0.606679 0.0157073 0)
(0.594118 0.0157073 0)
(0.58141 0.0157073 0)
(0.568558 0.0157073 0)
(0.555567 0.0157073 0)
(0.542438 0.0157073 0)
(0.529175 0.0157073 0)
(0.515782 0.0157073 0)
(0.502262 0.0157073 0)
(0.488617 0.0157073 0)
(0.474853 0.0157073 0)
(0.460971 0.0157073 0)
(0.446975 0.0157073 0)
(0.432869 0.0157073 0)
(0.418656 0.0157073 0)
(0.40434 0.0157073 0)
(0.389924 0.0157073 0)
(0.375411 0.0157073 0)
(0.360807 0.0157073 0)
(0.346113 0.0157073 0)
(0.331334 0.0157073 0)
(0.316473 0.0157073 0)
(0.301534 0.0157073 0)
(0.28652 0.0157073 0)
(0.271436 0.0157073 0)
(0.256285 0.0157073 0)
(0.241071 0.0157073 0)
(0.225797 0.0157073 0)
(0.210467 0.0157073 0)
(0.195086 0.0157073 0)
(0.179656 0.0157073 0)
(0.164182 0.0157073 0)
(0.148668 0.0157073 0)
(0.133117 0.0157073 0)
(0.117533 0.0157073 0)
(0.10192 0.0157073 0)
(0.0862818 0.0157073 0)
(0.0706224 0.0157073 0)
(0.0549455 0.0157073 0)
(0.0392552 0.0157073 0)
(0.0235551 0.0157073 0)
(0.00784921 0.0157073 0)
(-0.00785391 0.0471065 0)
(-0.0235598 0.0471065 0)
(-0.0392598 0.0471065 0)
(-0.0549502 0.0471065 0)
(-0.070627 0.0471065 0)
(-0.0862864 0.0471065 0)
(-0.101925 0.0471065 0)
(-0.117537 0.0471065 0)
(-0.133121 0.0471065 0)
(-0.148673 0.0471065 0)
(-0.164187 0.0471065 0)
(-0.179661 0.0471065 0)
(-0.19509 0.0471065 0)
(-0.210472 0.0471065 0)
(-0.225801 0.0471065 0)
(-0.241075 0.0471065 0)
(-0.25629 0.0471065 0)
(-0.271441 0.0471065 0)
(-0.286525 0.0471065 0)
(-0.301538 0.0471065 0)
(-0.316477 0.0471065 0)
(-0.331338 0.0471065 0)
(-0.346117 0.0471065 0)
(-0.360811 0.0471065 0)
(-0.375416 0.0471065 0)
(-0.389928 0.0471065 0)
(-0.404344 0.0471065 0)
(-0.41866 0.0471065 0)
(-0.432873 0.0471065 0)
(-0.446979 0.0471065 0)
(-0.460975 0.0471065 0)
(-0.474857 0.0471065 0)
(-0.488622 0.0471065 0)
(-0.502266 0.0471065 0)
(-0.515786 0.0471065 0)
(-0.529179 0.0471065 0)
(-0.542442 0.0471065 0)
(-0.555571 0.0471065 0)
(-0.568562 0.0471065 0)
(-0.581414 0.0471065 0)
(-0.594121 0.0471065 0)
(-0.606683 0.0471065 0)
(-0.619094 0.0471065 0)
(-0.631353 0.0471065 0)
(-0.643456 0.0471065 0)
(-0.655401 0.0471065 0)
(-0.667183 0.0471065 0)
(-0.678801 0.0471065 0)
(-0.690252 0.0471065 0)
(-0.701532 0.0471065 0)
(-0.712639 0.0471065 0)
(-0.72357 0.0471065 0)
(-0.734323 0.0471065 0)
(-0.744894 0.0471065 0)
(-0.755282 0.0471065 0)
(-0.765484 0.0471065 0)
(-0.775496 0.0471065 0)
(-0.785317 0.0471065 0)
(-0.794945 0.0471065 0)
(-0.804376 0.0471065 0)
(-0.813609 0.0471065 0)
(-0.822641 0.0471065 0)
(-0.83147 0.0471065 0)
(-0.840094 0.0471065 0)
(-0.848511 0.0471065 0)
(-0.856718 0.0471065 0)
(-0.864714 0.0471065 0)
(-0.872496 0.0471065 0)
(-0.880064 0.0471065 0)
(-0.887414 0.0471065 0)
(-0.894545 0.0471065 0)
(-0.901455 0.0471065 0)
(-0.908144 0.0471065 0)
(-0.914608 0.0471065 0)
(-0.920846 0.0471065 0)
(-0.926857 0.0471065 0)
(-0.932639 0.0471065 0)
(-0.938192 0.0471065 0)
(-0.943512 0.0471065 0)
(-0.9486 0.0471065 0)
(-0.953454 0.0471065 0)
(-0.958073 0.0471065 0)
(-0.962455 0.0471065 0)
(-0.9666 0.0471065 0)
(-0.970507 0.0471065 0)
(-0.974174 0.0471065 0)
(-0.9776 0.0471065 0)
(-0.980785 0.0471065 0)
(-0.983729 0.0471065 0)
(-0.986429 0.0471065 0)
(-0.988887 0.0471065 0)
(-0.9911 0.0471065 0)
(-0.993069 0.0471065 0)
(-0.994792 0.0471065 0)
(-0.99627 0.0471065 0)
(-0.997503 0.0471065 0)
(-0.998489 0.0471065 0)
(-0.999229 0.0471065 0)
(-0.999722 0.0471065 0)
(-0.999969 0.0471065 0)
(-0.999969 0.0471065 0)
(-0.999722 0.0471065 0)
(-0.999229 0.0471065 0)
(-0.998489 0.0471065 0)
(-0.997503 0.0471065 0)
(-0.99627 0.0471065 0)
(-0.994792 0.0471065 0)
(-0.993068 0.0471065 0)
(-0.9911 0.0471065 0)
(-0.988886 0.0471065 0)
(-0.986429 0.0471065 0)
(-0.983728 0.0471065 0)
(-0.980785 0.0471065 0)
(-0.9776 0.0471065 0)
(-0.974173 0.0471065 0)
(-0.970506 0.0471065 0)
(-0.9666 0.0471065 0)
(-0.962455 0.0471065 0)
(-0.958073 0.0471065 0)
(-0.953454 0.0471065 0)
(-0.9486 0.0471065 0)
(-0.943512 0.0471065 0)
(-0.938191 0.0471065 0)
(-0.932639 0.0471065 0)
(-0.926856 0.0471065 0)
(-0.920845 0.0471065 0)
(-0.914607 0.0471065 0)
(-0.908143 0.0471065 0)
(-0.901454 0.0471065 0)
(-0.894544 0.0471065 0)
(-0.887413 0.0471065 0)
(-0.880063 0.0471065 0)
(-0.872495 0.0471065 0)
(-0.864713 0.0471065 0)
(-0.856717 0.0471065 0)
(-0.848509 0.0471065 0)
(-0.840093 0.0471065 0)
(-0.831469 0.0471065 0)
(-0.82264 0.0471065 0)
(-0.813607 0.0471065 0)
(-0.804375 0.0471065 0)
(-0.794943 0.0471065 0)
(-0.785316 0.0471065 0)
(-0.775495 0.0471065 0)
(-0.765482 0.0471065 0)
(-0.755281 0.0471065 0)
(-0.744893 0.0471065 0)
(-0.734321 0.0471065 0)
(-0.723569 0.0471065 0)
(-0.712637 0.0471065 0)
(-0.70153 0.0471065 0)
(-0.69025 0.0471065 0)
(-0.678799 0.0471065 0)
(-0.667181 0.0471065 0)
(-0.655399 0.0471065 0)
(-0.643454 0.0471065 0)
(-0.631351 0.0471065 0)
(-0.619092 0.0471065 0)
(-0.606681 0.0471065 0)
(-0.59412 0.0471065 0)
(-0.581412 0.0471065 0)
(-0.56856 0.0471065 0)
(-0.555569 0.0471065 0)
(-0.54244 0.0471065 0)
(-0.529177 0.0471065 0)
(-0.515784 0.0471065 0)
(-0.502264 0.0471065 0)
(-0.48862 0.0471065 0)
(-0.474855 0.0471065 0)
(-0.460973 0.0471065 0)
(-0.446977 0.0471065 0)
(-0.432871 0.0471065 0)
(-0.418658 0.0471065 0)
(-0.404342 0.0471065 0)
(-0.389926 0.0471065 0)
(-0.375414 0.0471065 0)
(-0.360809 0.0471065 0)
(-0.346115 0.0471065 0)
(-0.331336 0.0471065 0)
(-0.316475 0.0471065 0)
(-0.301536 0.0471065 0)
(-0.286523 0.0471065 0)
(-0.271438 0.0471065 0)
(-0.256287 0.0471065 0)
(-0.241073 0.0471065 0)
(-0.225799 0.0471065 0)
(-0.21047 0.0471065 0)
(-0.195088 0.0471065 0)
(-0.179659 0.0471065 0)
(-0.164185 0.0471065 0)
(-0.14867 0.0471065 0)
(-0.133119 0.0471065 0)
(-0.117535 0.0471065 0)
(-0.101922 0.0471065 0)
(-0.0862841 0.0471065 0)
(-0.0706247 0.0471065 0)
(-0.0549479 0.0471065 0)
(-0.0392575 0.0471065 0)
(-0.0235574 0.0471065 0)
(-0.00785156 0.0471065 0)
(0.00785625 0.0471065 0)
(0.0235621 0.0471065 0)
(0.0392622 0.0471065 0)
(0.0549526 0.0471065 0)
(0.0706294 0.0471065 0)
(0.0862888 0.0471065 0)
(0.101927 0.0471065 0)
(0.11754 0.0471065 0)
(0.133124 0.0471065 0)
(0.148675 0.0471065 0)
(0.164189 0.0471065 0)
(0.179663 0.0471065 0)
(0.195093 0.0471065 0)
(0.210474 0.0471065 0)
(0.225804 0.0471065 0)
(0.241078 0.0471065 0)
(0.256292 0.0471065 0)
(0.271443 0.0471065 0)
(0.286527 0.0471065 0)
(0.30154 0.0471065 0)
(0.316479 0.0471065 0)
(0.33134 0.0471065 0)
(0.34612 0.0471065 0)
(0.360813 0.0471065 0)
(0.375418 0.0471065 0)
(0.38993 0.0471065 0)
(0.404346 0.0471065 0)
(0.418662 0.0471065 0)
(0.432875 0.0471065 0)
(0.446981 0.0471065 0)
(0.460977 0.0471065 0)
(0.474859 0.0471065 0)
(0.488624 0.0471065 0)
(0.502268 0.0471065 0)
(0.515788 0.0471065 0)
(0.529181 0.0471065 0)
(0.542444 0.0471065 0)
(0.555573 0.0471065 0)
(0.568564 0.0471065 0)
(0.581415 0.0471065 0)
(0.594123 0.0471065 0)
(0.606685 0.0471065 0)
(0.619096 0.0471065 0)
(0.631355 0.0471065 0)
(0.643458 0.0471065 0)
(0.655402 0.0471065 0)
(0.667185 0.0471065 0)
(0.678803 0.0471065 0)
(0.690253 0.0471065 0)
(0.701534 0.0471065 0)
(0.712641 0.0471065 0)
(0.723572 0.0471065 0)
(0.734325 0.0471065 0)
(0.744896 0.0471065 0)
(0.755284 0.0471065 0)
(0.765485 0.0471065 0)
(0.775498 0.0471065 0)
(0.785319 0.0471065 0)
(0.794946 0.0471065 0)
(0.804377 0.0471065 0)
(0.81361 0.0471065 0)
(0.822642 0.0471065 0)
(0.831471 0.0471065 0)
(0.840095 0.0471065 0)
(0.848512 0.0471065 0)
(0.856719 0.0471065 0)
(0.864715 0.0471065 0)
(0.872498 0.0471065 0)
(0.880065 0.0471065 0)
(0.887415 0.0471065 0)
(0.894546 0.0471065 0)
(0.901456 0.0471065 0)
(0.908145 0.0471065 0)
(0.914608 0.0471065 0)
(0.920847 0.0471065 0)
(0.926858 0.0471065 0)
(0.93264 0.0471065 0)
(0.938192 0.0471065 0)
(0.943513 0.0471065 0)
(0.948601 0.0471065 0)
(0.953455 0.0471065 0)
(0.958074 0.0471065 0)
(0.962456 0.0471065 0)
(0.966601 0.0471065 0)
(0.970507 0.0471065 0)
(0.974174 0.0471065 0)
(0.977601 0.0471065 0)
(0.980786 0.0471065 0)
(0.983729 0.0471065 0)
(0.98643 0.0471065 0)
(0.988887 0.0471065 0)
(0.9911 0.0471065 0)
(0.993069 0.0471065 0)
(0.994792 0.0471065 0)
(0.996271 0.0471065 0)
(0.997503 0.0471065 0)
(0.998489 0.0471065 0)
(0.999229 0.0471065 0)
(0.999723 0.0471065 0)
(0.999969 0.0471065 0)
(0.999969 0.0471065 0)
(0.999722 0.0471065 0)
(0.999229 0.0471065 0)
(0.998489 0.0471065 0)
(0.997503 0.0471065 0)
(0.99627 0.0471065 0)
(0.994792 0.0471065 0)
(0.993068 0.0471065 0)
(0.991099 0.0471065 0)
(0.988886 0.0471065 0)
(0.986429 0.0471065 0)
(0.983728 0.0471065 0)
(0.980785 0.0471065 0)
(0.977599 0.0471065 0)
(0.974173 0.0471065 0)
(0.970506 0.0471065 0)
(0.966599 0.0471065 0)
(0.962454 0.0471065 0)
(0.958072 0.0471065 0)
(0.953453 0.0471065 0)
(0.948599 0.0471065 0)
(0.943511 0.0471065 0)
(0.93819 0.0471065 0)
(0.932638 0.0471065 0)
(0.926855 0.0471065 0)
(0.920844 0.0471065 0)
(0.914606 0.0471065 0)
(0.908142 0.0471065 0)
(0.901453 0.0471065 0)
(0.894543 0.0471065 0)
(0.887412 0.0471065 0)
(0.880061 0.0471065 0)
(0.872494 0.0471065 0)
(0.864711 0.0471065 0)
(0.856715 0.0471065 0)
(0.848508 0.0471065 0)
(0.840091 0.0471065 0)
(0.831467 0.0471065 0)
(0.822638 0.0471065 0)
(0.813606 0.0471065 0)
(0.804373 0.0471065 0)
(0.794942 0.0471065 0)
(0.785314 0.0471065 0)
(0.775493 0.0471065 0)
(0.765481 0.0471065 0)
(0.755279 0.0471065 0)
(0.744891 0.0471065 0)
(0.73432 0.0471065 0)
(0.723567 0.0471065 0)
(0.712636 0.0471065 0)
(0.701528 0.0471065 0)
(0.690248 0.0471065 0)
(0.678798 0.0471065 0)
(0.66718 0.0471065 0)
(0.655397 0.0471065 0)
(0.643453 0.0471065 0)
(0.63135 0.0471065 0)
(0.619091 0.0471065 0)
(0.606679 0.0471065 0)
(0.594118 0.0471065 0)
(0.58141 0.0471065 0)
(0.568558 0.0471065 0)
(0.555567 0.0471065 0)
(0.542438 0.0471065 0)
(0.529175 0.0471065 0)
(0.515782 0.0471065 0)
(0.502262 0.0471065 0)
(0.488617 0.0471065 0)
(0.474853 0.0471065 0)
(0.460971 0.0471065 0)
(0.446975 0.0471065 0)
(0.432869 0.0471065 0)
(0.418656 0.0471065 0)
(0.40434 0.0471065 0)
(0.389924 0.0471065 0)
(0.375411 0.0471065 0)
(0.360807 0.0471065 0)
(0.346113 0.0471065 0)
(0.331334 0.0471065 0)
(0.316473 0.0471065 0)
(0.301534 0.0471065 0)
(0.28652 0.0471065 0)
(0.271436 0.0471065 0)
(0.256285 0.0471065 0)
(0.241071 0.0471065 0)
(0.225797 0.0471065 0)
(0.210467 0.0471065 0)
(0.195086 0.0471065 0)
(0.179656 0.0471065 0)
(0.164182 0.0471065 0)
(0.148668 0.0471065 0)
(0.133117 0.0471065 0)
(0.117533 0.0471065 0)
(0.10192 0.0471065 0)
(0.0862818 0.0471065 0)
(0.0706224 0.0471065 0)
(0.0549455 0.0471065 0)
(0.0392552 0.0471065 0)
(0.0235551 0.0471065 0)
(0.00784921 0.0471065 0)
(-0.00785391 0.0784592 0)
(-0.0235598 0.0784592 0)
(-0.0392598 0.0784592 0)
(-0.0549502 0.0784592 0)
(-0.070627 0.0784592 0)
(-0.0862864 0.0784592 0)
(-0.101925 0.0784592 0)
(-0.117537 0.0784592 0)
(-0.133121 0.0784592 0)
(-0.148673 0.0784592 0)
(-0.164187 0.0784592 0)
(-0.179661 0.0784592 0)
(-0.19509 0.0784592 0)
(-0.210472 0.0784592 0)
(-0.225801 0.0784592 0)
(-0.241075 0.0784592 0)
(-0.25629 0.0784592 0)
(-0.271441 0.0784592 0)
(-0.286525 0.0784592 0)
(-0.301538 0.0784592 0)
(-0.316477 0.0784592 0)
(-0.331338 0.0784592 0)
(-0.346117 0.0784592 0)
(-0.360811 0.0784592 0)
(-0.375416 0.0784592 0)
(-0.389928 0.0784592 0)
(-0.404344 0.0784592 0)
(-0.41866 0.0784592 0)
(-0.432873 0.0784592 0)
(-0.446979 0.0784592 0)
(-0.460975 0.0784592 0)
(-0.474857 0.0784592 0)
(-0.488622 0.0784592 0)
(-0.502266 0.0784592 0)
(-0.515786 0.0784592 0)
(-0.529179 0.0784592 0)
(-0.542442 0.0784592 0)
(-0.555571 0.0784592 0)
(-0.568562 0.0784592 0)
(-0.581414 0.0784592 0)
(-0.594121 0.0784592 0)
(-0.606683 0.0784592 0)
(-0.619094 0.0784592 0)
(-0.631353 0.0784592 0)
(-0.643456 0.0784592 0)
(-0.655401 0.0784592 0)
(-0.667183 0.0784592 0)
(-0.678801 0.0784592 0)
(-0.690252 0.0784592 0)
(-0.701532 0.0784592 0)
(-0.712639 0.0784592 0)
(-0.72357 0.0784592 0)
(-0.734323 0.0784592 0)
(-0.744894 0.0784592 0)
(-0.755282 0.0784592 0)
(-0.765484 0.0784592 0)
(-0.775496 0.0784592 0)
(-0.785317 0.0784592 0)
(-0.794945 0.0784592 0)
(-0.804376 0.0784592 0)
(-0.813609 0.0784592 0)
(-0.822641 0.0784592 0)
(-0.83147 0.0784592 0)
(-0.840094 0.0784592 0)
(-0.848511 0.0784592 0)
(-0.856718 0.0784592 0)
(-0.864714 0.0784592 0)
(-0.872496 0.0784592 0)
(-0.880064 0.0784592 0)
(-0.887414 0.0784592 0)
(-0.894545 0.0784592 0)
(-0.901455 0.0784592 0)
(-0.908144 0.0784592 0)
(-0.914608 0.0784592 0)
(-0.920846 0.0784592 0)
(-0.926857 0.0784592 0)
(-0.932639 0.0784592 0)
(-0.938192 0.0784592 0)
(-0.943512 0.0784592 0)
(-0.9486 0.0784592 0)
(-0.953454 0.0784592 0)
(-0.958073 0.0784592 0)
(-0.962455 0.0784592 0)
(-0.9666 0.0784592 0)
(-0.970507 0.0784592 0)
(-0.974174 0.0784592 0)
(-0.9776 0.0784592 0)
(-0.980785 0.0784592 0)
(-0.983729 0.0784592 0)
(-0.986429 0.0784592 0)
(-0.988887 0.0784592 0)
(-0.9911 0.0784592 0)
(-0.993069 0.0784592 0)
(-0.994792 0.0784592 0)
(-0.99627 0.0784592 0)
(-0.997503 0.0784592 0)
(-0.998489 0.0784592 0)
(-0.999229 0.0784592 0)
(-0.999722 0.0784592 0)
(-0.999969 0.0784592 0)
(-0.999969 0.0784592 0)
(-0.999722 0.0784592 0)
(-0.999229 0.0784592 0)
(-0.998489 0.0784592 0)
(-0.997503 0.0784592 0)
(-0.99627 0.0784592 0)
(-0.994792 0.0784592 0)
(-0.993068 0.0784592 0)
(-0.9911 0.0784592 0)
(-0.988886 0.0784592 0)
(-0.986429 0.0784592 0)
(-0.983728 0.0784592 0)
(-0.980785 0.0784592 0)
(-0.9776 0.0784592 0)
(-0.974173 0.0784592 0)
(-0.970506 0.0784592 0)
(-0.9666 0.0784592 0)
(-0.962455 0.0784592 0)
(-0.958073 0.0784592 0)
(-0.953454 0.0784592 0)
(-0.9486 0.0784592 0)
(-0.943512 0.0784592 0)
(-0.938191 0.0784592 0)
(-0.932639 0.0784592 0)
(-0.926856 0.0784592 0)
(-0.920845 0.0784592 0)
(-0.914607 0.0784592 0)
(-0.908143 0.0784592 0)
(-0.901454 0.0784592 0)
(-0.894544 0.0784592 0)
(-0.887413 0.0784592 0)
(-0.880063 0.0784592 0)
(-0.872495 0.0784592 0)
(-0.864713 0.0784592 0)
(-0.856717 0.0784592 0)
(-0.848509 0.0784592 0)
(-0.840093 0.0784592 0)
(-0.831469 0.0784592 0)
(-0.82264 0.0784592 0)
(-0.813607 0.0784592 0)
(-0.804375 0.0784592 0)
(-0.794943 0.0784592 0)
(-0.785316 0.0784592 0)
(-0.775495 0.0784592 0)
(-0.765482 0.0784592 0)
(-0.755281 0.0784592 0)
(-0.744893 0.0784592 0)
(-0.734321 0.0784592 0)
(-0.723569 0.0784592 0)
(-0.712637 0.0784592 0)
(-0.70153 0.0784592 0)
(-0.69025 0.0784592 0)
(-0.678799 0.0784592 0)
(-0.667181 0.0784592 0)
(-0.655399 0.0784592 0)
(-0.643454 0.0784592 0)
(-0.631351 0.0784592 0)
(-0.619092 0.0784592 0)
(-0.606681 0.0784592 0)
(-0.59412 0.0784592 0)
(-0.581412 0.0784592 0)
(-0.56856 0.0784592 0)
(-0.555569 0.0784592 0)
(-0.54244 0.0784592 0)
(-0.529177 0.0784592 0)
(-0.515784 0.0784592 0)
(-0.502264 0.0784592 0)
(-0.48862 0.0784592 0)
(-0.474855 0.0784592 0)
(-0.460973 0.0784592 0)
(-0.446977 0.0784592 0)
(-0.432871 0.0784592 0)
(-0.418658 0.0784592 0)
(-0.404342 0.0784592 0)
(-0.389926 0.0784592 0)
(-0.375414 0.0784592 0)
(-0.360809 0.0784592 0)
(-0.346115 0.0784592 0)
(-0.331336 0.0784592 0)
(-0.316475 0.0784592 0)
(-0.301536 0.0784592 0)
(-0.286523 0.0784592 0)
(-0.271438 0.0784592 0)
(-0.256287 0.0784592 0)
(-0.241073 0.0784592 0)
(-0.225799 0.0784592 0)
(-0.21047 0.0784592 0)
(-0.195088 0.0784592 0)
(-0.179659 0.0784592 0)
(-0.164185 0.0784592 0)
(-0.14867 0.0784592 0)
(-0.133119 0.0784592 0)
(-0.117535 0.0784592 0)
(-0.101922 0.0784592 0)
(-0.0862841 0.0784592 0)
(-0.0706247 0.0784592 0)
(-0.0549479 0.0784592 0)
(-0.0392575 0.0784592 0)
(-0.0235574 0.0784592 0)
(-0.00785156 0.0784592 0)
(0.00785625 0.0784592 0)
(0.0235621 0.0784592 0)
(0.0392622 0.0784592 0)
(0.0549526 0.0784592 0)
(0.0706294 0.0784592 0)
(0.0862888 0.0784592 0)
(0.101927 0.0784592 0)
(0.11754 0.0784592 0)
(0.133124 0.0784592 0)
(0.148675 0.0784592 0)
(0.164189 0.0784592 0)
(0.179663 0.0784592 0)
(0.195093 0.0784592 0)
(0.210474 0.0784592 0)
(0.225804 0.0784592 0)
(0.241078 0.0784592 0)
(0.256292 0.0784592 0)
(0.271443 0.0784592 0)
(0.286527 0.0784592 0)
(0.30154 0.0784592 0)
(0.316479 0.0784592 0)
(0.33134 0.0784592 0)
(0.34612 0.0784592 0)
(0.360813 0.0784592 0)
(0.375418 0.0784592 0)
(0.38993 0.0784592 0)
(0.404346 0.0784592 0)
(0.418662 0.0784592 0)
(0.432875 0.0784592 0)
(0.446981 0.0784592 0)
(0.460977 0.0784592 0)
(0.474859 0.0784592 0)
(0.488624 0.0784592 0)
(0.502268 0.0784592 0)
(0.515788 0.0784592 0)
(0.529181 0.0784592 0)
(0.542444 0.0784592 0)
(0.555573 0.0784592 0)
(0.568564 0.0784592 0)
(0.581415 0.0784592 0)
(0.594123 0.0784592 0)
(0.606685 0.0784592 0)
(0.619096 0.0784592 0)
(0.631355 0.0784592 0)
(0.643458 0.0784592 0)
(0.655402 0.0784592 0)
(0.667185 0.0784592 0)
(0.678803 0.0784592 0)
(0.690253 0.0784592 0)
(0.701534 0.0784592 0)
(0.712641 0.0784592 0)
(0.723572 0.0784592 0)
(0.734325 0.0784592 0)
(0.744896 0.0784592 0)
(0.755284 0.0784592 0)
(0.765485 0.0784592 0)
(0.775498 0.0784592 0)
(0.785319 0.0784592 0)
(0.794946 0.0784592 0)
(0.804377 0.0784592 0)
(0.81361 0.0784592 0)
(0.822642 0.0784592 0)
(0.831471 0.0784592 0)
(0.840095 0.0784592 0)
(0.848512 0.0784592 0)
(0.856719 0.0784592 0)
(0.864715 0.0784592 0)
(0.872498 0.0784592 0)
(0.880065 0.0784592 0)
(0.887415 0.0784592 0)
(0.894546 0.0784592 0)
(0.901456 0.0784592 0)
(0.908145 0.0784592 0)
(0.914608 0.0784592 0)
(0.920847 0.0784592 0)
(0.926858 0.0784592 0)
(0.93264 0.0784592 0)
(0.938192 0.0784592 0)
(0.943513 0.0784592 0)
(0.948601 0.0784592 0)
(0.953455 0.0784592 0)
(0.958074 0.0784592 0)
(0.962456 0.0784592 0)
(0.966601 0.0784592 0)
(0.970507 0.0784592 0)
(0.974174 0.0784592 0)
(0.977601 0.0784592 0)
(0.980786 0.0784592 0)
(0.983729 0.0784592 0)
(0.98643 0.0784592 0)
(0.988887 0.0784592 0)
(0.9911 0.0784592 0)
(0.993069 0.0784592 0)
(0.994792 0.0784592 0)
(0.996271 0.0784592 0)
(0.997503 0.0784592 0)
(0.998489 0.0784592 0)
(0.999229 0.0784592 0)
(0.999723 0.0784592 0)
(0.999969 0.0784592 0)
(0.999969 0.0784592 0)
(0.999722 0.0784592 0)
(0.999229 0.0784592 0)
(0.998489 0.0784592 0)
(0.997503 0.0784592 0)
(0.99627 0.0784592 0)
(0.994792 0.0784592 0)
(0.993068 0.0784592 0)
(0.991099 0.0784592 0)
(0.988886 0.0784592 0)
(0.986429 0.0784592 0)
(0.983728 0.0784592 0)
(0.980785 0.0784592 0)
(0.977599 0.0784592 0)
(0.974173 0.0784592 0)
(0.970506 0.0784592 0)
(0.966599 0.0784592 0)
(0.962454 0.0784592 0)
(0.958072 0.0784592 0)
(0.953453 0.0784592 0)
(0.948599 0.0784592 0)
(0.943511 0.0784592 0)
(0.93819 0.0784592 0)
(0.932638 0.0784592 0)
(0.926855 0.0784592 0)
(0.920844 0.0784592 0)
(0.914606 0.0784592 0)
(0.908142 0.0784592 0)
(0.901453 0.0784592 0)
(0.894543 0.0784592 0)
(0.887412 0.0784592 0)
(0.880061 0.0784592 0)
(0.872494 0.0784592 0)
(0.864711 0.0784592 0)
(0.856715 0.0784592 0)
(0.848508 0.0784592 0)
(0.840091 0.0784592 0)
(0.831467 0.0784592 0)
(0.822638 0.0784592 0)
(0.813606 0.0784592 0)
(0.804373 0.0784592 0)
(0.794942 0.0784592 0)
(0.785314 0.0784592 0)
(0.775493 0.0784592 0)
(0.765481 0.0784592 0)
(0.755279 0.0784592 0)
(0.744891 0.0784592 0)
(0.73432 0.0784592 0)
(0.723567 0.0784592 0)
(0.712636 0.0784592 0)
(0.701528 0.0784592 0)
(0.690248 0.0784592 0)
(0.678798 0.0784592 0)
(0.66718 0.0784592 0)
(0.655397 0.0784592 0)
(0.643453 0.0784592 0)
(0.63135 0.0784592 0)
(0.619091 0.0784592 0)
(0.606679 0.0784592 0)
(0.594118 0.0784592 0)
(0.58141 0.0784592 0)
(0.568558 0.0784592 0)
(0.555567 0.0784592 0)
(0.542438 0.0784592 0)
(0.529175 0.0784592 0)
(0.515782 0.0784592 0)
(0.502262 0.0784592 0)
(0.488617 0.0784592 0)
(0.474853 0.0784592 0)
(0.460971 0.0784592 0)
(0.446975 0.0784592 0)
(0.432869 0.0784592 0)
(0.418656 0.0784592 0)
(0.40434 0.0784592 0)
(0.389924 0.0784592 0)
(0.375411 0.0784592 0)
(0.360807 0.0784592 0)
(0.346113 0.0784592 0)
(0.331334 0.0784592 0)
(0.316473 0.0784592 0)
(0.301534 0.0784592 0)
(0.28652 0.0784592 0)
(0.271436 0.0784592 0)
(0.256285 0.0784592 0)
(0.241071 0.0784592 0)
(0.225797 0.0784592 0)
(0.210467 0.0784592 0)
(0.195086 0.0784592 0)
(0.179656 0.0784592 0)
(0.164182 0.0784592 0)
(0.148668 0.0784592 0)
(0.133117 0.0784592 0)
(0.117533 0.0784592 0)
(0.10192 0.0784592 0)
(0.0862818 0.0784592 0)
(0.0706224 0.0784592 0)
(0.0549455 0.0784592 0)
(0.0392552 0.0784592 0)
(0.0235551 0.0784592 0)
(0.00784921 0.0784592 0)
(-0.00785391 0.109734 0)
(-0.0235598 0.109734 0)
(-0.0392598 0.109734 0)
(-0.0549502 0.109734 0)
(-0.070627 0.109734 0)
(-0.0862864 0.109734 0)
(-0.101925 0.109734 0)
(-0.117537 0.109734 0)
(-0.133121 0.109734 0)
(-0.148673 0.109734 0)
(-0.164187 0.109734 0)
(-0.179661 0.109734 0)
(-0.19509 0.109734 0)
(-0.210472 0.109734 0)
(-0.225801 0.109734 0)
(-0.241075 0.109734 0)
(-0.25629 0.109734 0)
(-0.271441 0.109734 0)
(-0.286525 0.109734 0)
(-0.301538 0.109734 0)
(-0.316477 0.109734 0)
(-0.331338 0.109734 0)
(-0.346117 0.109734 0)
(-0.360811 0.109734 0)
(-0.375416 0.109734 0)
(-0.389928 0.109734 0)
(-0.404344 0.109734 0)
(-0.41866 0.109734 0)
(-0.432873 0.109734 0)
(-0.446979 0.109734 0)
(-0.460975 0.109734 0)
(-0.474857 0.109734 0)
(-0.488622 0.109734 0)
(-0.502266 0.109734 0)
(-0.515786 0.109734 0)
(-0.529179 0.109734 0)
(-0.542442 0.109734 0)
(-0.555571 0.109734 0)
(-0.568562 0.109734 0)
(-0.581414 0.109734 0)
(-0.594121 0.109734 0)
(-0.606683 0.109734 0)
(-0.619094 0.109734 0)
(-0.631353 0.109734 0)