/*--------------------------------*- C++ -*----------------------------------*\
| =========                 |                                                 |
| \\      /  F ield         | OpenFOAM: The Open Source CFD Toolbox           |
|  \\    /   O peration     | Version:  2106                                  |
|   \\  /    A nd           | Website:  www.openfoam.com                      |
|    \\/     M anipulation  |                                                 |
\*---------------------------------------------------------------------------*/
FoamFile
{
    version     2.0;
    format      ascii;
    arch        "LSB;label=32;scalar=64";
    class       surfaceScalarField;
    location    "0.19";
    object      phi;
}
// * * * * * * * * * * * * * * * * * * * * * * * * * * * * * * * * * * * * * //

dimensions      [0 3 -1 0 0 0 0];

oriented        oriented;

internalField   nonuniform List<scalar> 
18840
(
3.37543042985e-05
1.62456956987e-05
2.25359627672e-05
1.12183420287e-05
1.6302378457e-05
6.23358438863e-06
1.28098254314e-05
3.49255285351e-06
1.08065802883e-05
2.00324519948e-06
9.60476950126e-06
1.20181086761e-06
8.85167886833e-06
7.53090461304e-07
8.36503101661e-06
4.8664778069e-07
8.04518655256e-06
3.19844508632e-07
7.83374249619e-06
2.11444091e-07
7.69428263691e-06
1.39459943101e-07
7.60308113432e-06
9.12016821421e-08
7.54426630422e-06
5.88149129083e-08
7.50707809669e-06
3.71883049184e-08
7.48419017451e-06
2.28879615556e-08
7.47062464146e-06
1.35655202758e-08
7.46302211607e-06
7.60250420835e-09
7.45913936788e-06
3.88270599333e-09
7.45749967742e-06
1.63967268452e-09
7.4571466418e-06
3.53033347724e-10
7.45748405596e-06
-3.37384890393e-10
7.45813517684e-06
-6.51095892114e-10
7.45888720864e-06
-7.52034570189e-10
7.45962090695e-06
-7.33720843682e-10
7.4602773962e-06
-6.56494734377e-10
7.46083389764e-06
-5.56534902597e-10
7.46128810964e-06
-4.54278612278e-10
7.46164836758e-06
-3.6030954733e-10
7.46192758887e-06
-2.79249861013e-10
7.46213982188e-06
-2.12261862051e-10
7.46229838854e-06
-1.58620223388e-10
7.46241505766e-06
-1.16725748516e-10
7.46249966603e-06
-8.46654572343e-11
7.46256020585e-06
-6.05597145346e-11
7.46260296027e-06
-4.27428286951e-11
7.46263272864e-06
-2.97732643802e-11
7.46265315816e-06
-2.04390991555e-11
7.46266702115e-06
-1.38202253688e-11
7.46267629933e-06
-9.22215786644e-12
7.46268237527e-06
-6.06237690743e-12
7.46268634312e-06
-3.93134063506e-12
7.46268893614e-06
-2.53600648309e-12
7.46269056437e-06
-1.60227917979e-12
7.46269152412e-06
-9.40382138207e-13
7.46269210703e-06
-5.97060888585e-13
7.46269241067e-06
-3.89301626182e-13
7.46269260964e-06
-2.52586834753e-13
7.46269280651e-06
-2.35171042273e-13
7.46269293055e-06
-2.54934424358e-13
7.46269305961e-06
-2.39231706053e-13
7.46269329849e-06
-2.51041665255e-13
7.46269357892e-06
-2.87882720026e-13
7.46269389422e-06
-3.0257777698e-13
7.46269428568e-06
-3.2703948787e-13
7.4626946987e-06
-3.56370498672e-13
7.46269516058e-06
-3.69985840287e-13
7.46269570855e-06
-4.14525089556e-13
7.46269624993e-06
-4.55070413604e-13
7.46269679207e-06
-4.46212021176e-13
7.46269738098e-06
-4.73231842455e-13
7.46269791927e-06
-5.42310868286e-13
7.46269841999e-06
-5.65846077712e-13
7.46269901553e-06
-5.9823880386e-13
7.46269966009e-06
-6.88025135e-13
7.46270027978e-06
-7.12784083574e-13
7.46270099623e-06
-6.75568266341e-13
7.46270181556e-06
-7.27410286869e-13
7.46270257677e-06
-8.21788748137e-13
7.46270330467e-06
-8.33636039259e-13
7.46270410387e-06
-8.37959445646e-13
7.4627049436e-06
-9.22876928543e-13
7.46270583671e-06
-1.04041197284e-12
7.46270681523e-06
-1.11087554151e-12
7.46270784769e-06
-1.09316768543e-12
7.46270899431e-06
-1.0855125338e-12
7.46271020017e-06
-1.18848243978e-12
7.46271130134e-06
-1.27282680667e-12
7.46271243012e-06
-1.26297306562e-12
7.4627137351e-06
-1.30958124495e-12
7.4627150761e-06
-1.42043142733e-12
7.46271645076e-06
-1.46873702092e-12
7.46271797714e-06
-1.4865085044e-12
7.46271956033e-06
-1.52479838853e-12
7.46272113814e-06
-1.56098561676e-12
7.46272278348e-06
-1.62390888833e-12
7.46272453192e-06
-1.73024493488e-12
7.46272635773e-06
-1.80509994091e-12
7.46272822038e-06
-1.80723376685e-12
7.46273010365e-06
-1.810647919e-12
7.46273200138e-06
-1.87761004991e-12
7.46273392049e-06
-1.98165768693e-12
7.46273590695e-06
-2.06925256031e-12
7.4627380036e-06
-2.11110121873e-12
7.46274020446e-06
-2.13750177868e-12
7.46274249308e-06
-2.21965475844e-12
7.46274483813e-06
-2.34030989867e-12
7.4627472836e-06
-2.44084586537e-12
7.46274989274e-06
-2.55187905714e-12
7.46275261687e-06
-2.68808233847e-12
7.46275554356e-06
-2.88336470275e-12
7.46275873668e-06
-3.1671221483e-12
7.46276214339e-06
-3.48434021616e-12
7.4627659454e-06
-3.8614882188e-12
7.46277029857e-06
-4.39659090927e-12
7.46277511914e-06
-4.99257796955e-12
7.46278063736e-06
-5.62209295555e-12
7.46278717911e-06
-6.51171415899e-12
7.4627947357e-06
-7.66846895485e-12
7.4628035523e-06
-8.95868515366e-12
7.46281413897e-06
-1.05553769634e-11
7.46282680125e-06
-1.26397443655e-11
7.46284198215e-06
-1.5222149256e-11
7.4628604327e-06
-1.84216568492e-11
7.46288281904e-06
-2.23993091493e-11
7.46291013248e-06
-2.72832130485e-11
7.46294371824e-06
-3.34560225165e-11
7.462984719e-06
-4.11182859095e-11
7.4630349558e-06
-5.04034760936e-11
7.46309703901e-06
-6.19807345492e-11
7.46317362378e-06
-7.65198344118e-11
7.46326792433e-06
-9.43833689112e-11
7.46338441232e-06
-1.16402484195e-10
7.46352871723e-06
-1.44136006557e-10
7.46370898255e-06
-1.80268768647e-10
7.46393324589e-06
-2.24273382975e-10
7.46420763032e-06
-2.74266702961e-10
7.46454649885e-06
-3.38656538831e-10
7.4649659169e-06
-4.19216415085e-10
7.46548522439e-06
-5.19206461907e-10
7.46612835734e-06
-6.43077618779e-10
7.46692498492e-06
-7.96507759052e-10
7.46791169738e-06
-9.86616201076e-10
7.46913396936e-06
-1.22224363379e-09
7.47064819068e-06
-1.51426694437e-09
7.47252431372e-06
-1.87620275282e-09
7.47484940046e-06
-2.32508324127e-09
7.47773153571e-06
-2.88208054779e-09
7.48130525255e-06
-3.573604122e-09
7.48573778783e-06
-4.43263604344e-09
7.49123770375e-06
-5.500359911e-09
7.49806586196e-06
-6.82860685368e-09
7.50654896032e-06
-8.48320246728e-09
7.51709672648e-06
-1.05477161673e-08
7.53022488406e-06
-1.31282283245e-08
7.54658629857e-06
-1.63612957413e-08
7.56701034994e-06
-2.04238965018e-08
7.59255826594e-06
-2.55476727924e-08
7.62459770795e-06
-3.20394747325e-08
7.66490879351e-06
-4.03115893771e-08
7.71583923358e-06
-5.09306514579e-08
7.78053626184e-06
-6.46972407636e-08
7.86332939267e-06
-8.27936240291e-08
7.97043619182e-06
-1.0710711621e-07
8.11149271297e-06
-1.41056698829e-07
8.30347446856e-06
-1.91981822584e-07
8.58179009013e-06
-2.78315342279e-07
9.03323145022e-06
-4.51441291029e-07
9.90090597665e-06
-8.6767456254e-07
1.19343758191e-05
-2.03346973429e-06
-5.51977405105e-06
1.74541500664e-05
5.01388817854e-05
1.6106813751e-05
4.41591295424e-05
1.7198094503e-05
3.77598742173e-05
1.26328401286e-05
3.26495148933e-05
8.60291206345e-06
2.89465823186e-05
5.70617750149e-06
2.63676034175e-05
3.78078983861e-06
2.45938854537e-05
2.52680836689e-06
2.33783984837e-05
1.70213469388e-06
2.25473240947e-05
1.15091904414e-06
2.19811572558e-05
7.77611128181e-07
2.15978049747e-05
5.22812357676e-07
2.13405422192e-05
3.48464692649e-07
2.11699448695e-05
2.29412385565e-07
2.10585372606e-05
1.48595977946e-07
2.09871862557e-05
9.42389714327e-08
2.09426227396e-05
5.81289874786e-08
2.09157082313e-05
3.45169852944e-08
2.09002084413e-05
1.93824671e-08
2.08919209991e-05
9.9271220689e-09
2.08880558941e-05
4.21814129057e-09
2.0886786277e-05
9.32249224537e-10
2.08869513353e-05
-8.16127832925e-10
2.08878297134e-05
-1.63041262492e-09
2.088898824e-05
-1.89234023416e-09
2.08901816786e-05
-1.85003263156e-09
2.08912822962e-05
-1.65720958075e-09
2.089223384e-05
-1.40588314273e-09
2.08930215984e-05
-1.14814752613e-09
2.08936532828e-05
-9.11020497863e-10
2.08941472723e-05
-7.06322607718e-10
2.08945256257e-05
-5.37051049478e-10
2.0894810294e-05
-4.01450555096e-10
2.08950210681e-05
-2.95501015294e-10
2.08951748577e-05
-2.14392863149e-10
2.0895285559e-05
-1.53414021499e-10
2.08953641886e-05
-1.08335793253e-10
2.08954192594e-05
-7.54960263579e-11
2.08954573328e-05
-5.18757264931e-11
2.08954833477e-05
-3.51374983764e-11
2.08955008119e-05
-2.34482913654e-11
2.0895512299e-05
-1.53761881572e-11
2.08955196828e-05
-9.8788363411e-12
2.08955242827e-05
-6.22077987339e-12
2.08955271271e-05
-3.82979848495e-12
2.08955288551e-05
-2.33994496308e-12
2.08955297696e-05
-1.4377197418e-12
2.08955301236e-05
-8.17745253718e-13
2.08955303764e-05
-5.83246382323e-13
2.08955305228e-05
-4.90289877606e-13
2.08955305887e-05
-4.33631140012e-13
2.0895530711e-05
-3.77942727425e-13
2.08955308666e-05
-3.6738753707e-13
2.08955310242e-05
-3.77505347884e-13
2.0895531265e-05
-4.14532814592e-13
2.08955315392e-05
-4.8357889303e-13
2.0895531835e-05
-5.34037735487e-13
2.08955322474e-05
-5.94740193295e-13
2.08955326813e-05
-6.94031447114e-13
2.0895533059e-05
-7.6171055666e-13
2.08955334854e-05
-8.24905292143e-13
2.08955339076e-05
-9.51312485013e-13
2.08955342446e-05
-1.05040936049e-12
2.08955346613e-05
-1.0809925825e-12
2.0895535217e-05
-1.16126531135e-12
2.08955357305e-05
-1.25895836696e-12
2.08955362421e-05
-1.27485578704e-12
2.08955368886e-05
-1.31568096637e-12
2.08955375222e-05
-1.46518066991e-12
2.08955380529e-05
-1.60252032592e-12
2.0895538621e-05
-1.67131350813e-12
2.08955392586e-05
-1.73489274436e-12
2.089553997e-05
-1.83277840659e-12
2.0895540794e-05
-1.96142919949e-12
2.08955416118e-05
-2.04559794527e-12
2.08955424551e-05
-2.05427331288e-12
2.08955434354e-05
-2.13743448826e-12
2.08955443588e-05
-2.31007640476e-12
2.08955451884e-05
-2.40154561899e-12
2.08955461944e-05
-2.44274013716e-12
2.08955473459e-05
-2.54148303879e-12
2.08955485038e-05
-2.62375363721e-12
2.08955497557e-05
-2.67189812467e-12
2.08955510698e-05
-2.76898764461e-12
2.08955523738e-05
-2.90327105869e-12
2.08955537553e-05
-3.03087804153e-12
2.08955552889e-05
-3.16199545278e-12
2.08955569391e-05
-3.30390944425e-12
2.08955586187e-05
-3.43566002359e-12
2.08955602958e-05
-3.55588336637e-12
2.08955620341e-05
-3.68930277424e-12
2.08955639011e-05
-3.84923144756e-12
2.08955658982e-05
-4.03331522226e-12
2.0895568027e-05
-4.22911554539e-12
2.08955703304e-05
-4.43203659124e-12
2.08955728818e-05
-4.69227471395e-12
2.08955756607e-05
-5.04780593098e-12
2.08955786852e-05
-5.46561383667e-12
2.08955821242e-05
-5.95706795065e-12
2.08955859931e-05
-6.54305646407e-12
2.08955903615e-05
-7.2482929806e-12
2.08955954509e-05
-8.19480537822e-12
2.08956012657e-05
-9.40889235707e-12
2.0895607985e-05
-1.08323423395e-11
2.0895616068e-05
-1.25933760777e-11
2.08956256427e-05
-1.47767393827e-11
2.08956369739e-05
-1.72961482417e-11
2.08956507611e-05
-2.03450454378e-11
2.08956673729e-05
-2.42034777698e-11
2.08956871285e-05
-2.88201771002e-11
2.08957105427e-05
-3.40169887459e-11
2.08957398118e-05
-4.18186524625e-11
2.08957761396e-05
-5.15256513838e-11
2.08958210321e-05
-6.32404096255e-11
2.08958763372e-05
-7.77260112684e-11
2.08959444054e-05
-9.55032293703e-11
2.08960286711e-05
-1.17533515399e-10
2.08961326964e-05
-1.45034427e-10
2.08962608836e-05
-1.78974977812e-10
2.08964195102e-05
-2.20760799384e-10
2.08966159899e-05
-2.72605187267e-10
2.08968588102e-05
-3.36916732429e-10
2.08971588109e-05
-4.16399361877e-10
2.08975294584e-05
-5.14714241763e-10
2.08979860184e-05
-6.36648844139e-10
2.08985503992e-05
-7.88336101539e-10
2.08992535928e-05
-9.77078418208e-10
2.09001263997e-05
-1.21122901075e-09
2.09012085064e-05
-1.50128937641e-09
2.09025496589e-05
-1.86042653326e-09
2.09042115509e-05
-2.30503915613e-09
2.09062707575e-05
-2.85565175727e-09
2.09088220783e-05
-3.53780803871e-09
2.09119831777e-05
-4.3831279981e-09
2.09158999747e-05
-5.43087032099e-09
2.09207533604e-05
-6.72975833035e-09
2.09267682929e-05
-8.34038507587e-09
2.09342241841e-05
-1.03382779645e-08
2.09434685695e-05
-1.28179309529e-08
2.09549339777e-05
-1.58977084334e-08
2.09691595585e-05
-1.97257499098e-08
2.09868187728e-05
-2.44880612283e-08
2.10087548431e-05
-3.04196254695e-08
2.1036025864e-05
-3.78188899486e-08
2.10699633594e-05
-4.70662200319e-08
2.1112251635e-05
-5.86501089767e-08
2.11650309271e-05
-7.32037333706e-08
2.12310401266e-05
-9.15568912764e-08
2.13138136976e-05
-1.14812382346e-07
2.14179629773e-05
-1.44460727387e-07
2.15495975694e-05
-1.82565216731e-07
2.17169775149e-05
-2.32076422979e-07
2.19315929721e-05
-2.97408128694e-07
2.22100779703e-05
-3.85591891036e-07
2.25778255977e-05
-5.08804220217e-07
2.3076179033e-05
-6.90335391657e-07
2.37770750237e-05
-9.79211779247e-07
2.48109802385e-05
-1.48534635964e-06
2.64061168317e-05
-2.46281143511e-06
2.88785675172e-05
-4.50592098677e-06
-8.82937314177e-06
3.21881659969e-05
5.35844268202e-05
1.25223870297e-05
5.29166009609e-05
1.78659202255e-05
4.96393018433e-05
1.59101395369e-05
4.58382174972e-05
1.24039964868e-05
4.24428748386e-05
9.10151987811e-06
3.97331595628e-05
6.49050513204e-06
3.76912456027e-05
4.56872235342e-06
3.62011672252e-05
3.1922130304e-06
3.51355938924e-05
2.21649247519e-06
3.43848449768e-05
1.52836024244e-06
3.38626594948e-05
1.04499793224e-06
3.35040073144e-05
7.0711706482e-07
3.32609634146e-05
4.72456399076e-07
3.30987214704e-05
3.10837977908e-07
3.29922915347e-05
2.00668922657e-07
3.29239203742e-05
1.26500111896e-07
3.28811304847e-05
7.730684886e-08
3.28552518977e-05
4.52610235923e-08
3.2840335442e-05
2.48435892706e-08
3.28323555733e-05
1.21980231397e-08
3.2828629746e-05
4.65808222351e-09
3.2827405876e-05
4.07744784426e-10
3.28275653946e-05
-1.78991473748e-09
3.28284115077e-05
-2.73850103656e-09
3.28295276554e-05
-2.9662701053e-09
3.28306773983e-05
-2.80701723276e-09
3.28317376387e-05
-2.46616985805e-09
3.28326542336e-05
-2.06479299785e-09
3.28334130225e-05
-1.66987890987e-09
3.28340214654e-05
-1.314828279e-09
3.28344972493e-05
-1.0129031869e-09
3.28348616891e-05
-7.65919898182e-10
3.28351358907e-05
-5.69715758119e-10
3.28353389087e-05
-4.17444195126e-10
3.28354870435e-05
-3.01562014842e-10
3.28355936657e-05
-2.14911845486e-10
3.28356693393e-05
-1.51139105673e-10
3.28357222998e-05
-1.04843594222e-10
3.28357589111e-05
-7.16969920618e-11
3.28357838351e-05
-4.83111997986e-11
3.283580052e-05
-3.20289941941e-11
3.28358115578e-05
-2.08718659657e-11
3.28358187053e-05
-1.33709957188e-11
3.28358231914e-05
-8.38896144142e-12
3.28358260062e-05
-5.17063906023e-12
3.28358277131e-05
-3.19291226851e-12
3.28358286841e-05
-1.96703163608e-12
3.28358291923e-05
-1.20479619025e-12
3.28358294407e-05
-7.6385470017e-13
3.28358294768e-05
-5.29820547386e-13
3.2835829503e-05
-4.17565259589e-13
3.28358295469e-05
-3.65633903213e-13
3.28358295637e-05
-3.69961006617e-13
3.28358296476e-05
-4.12013834529e-13
3.28358298003e-05
-5.04229034118e-13
3.28358299556e-05
-5.93384954668e-13
3.28358301948e-05
-6.66517421749e-13
3.28358304855e-05
-7.93703865727e-13
3.28358307033e-05
-9.34577644204e-13
3.28358309354e-05
-1.04610334926e-12
3.28358312303e-05
-1.20438391025e-12
3.28358314696e-05
-1.37784218534e-12
3.28358317086e-05
-1.43352558467e-12
3.28358321011e-05
-1.48745098645e-12
3.28358324993e-05
-1.61202471797e-12
3.28358328058e-05
-1.70579393648e-12
3.28358331927e-05
-1.78029903491e-12
3.2835833655e-05
-1.94547434697e-12
3.28358340348e-05
-2.13145096577e-12
3.2835834394e-05
-2.25516931455e-12
3.28358348061e-05
-2.33458493719e-12
3.28358352765e-05
-2.40478591544e-12
3.28358358729e-05
-2.52327291459e-12
3.28358364682e-05
-2.68303641259e-12
3.28358369908e-05
-2.7719058151e-12
3.28358376325e-05
-2.84788930541e-12
3.28358383318e-05
-3.01895785542e-12
3.28358389191e-05
-3.17453932596e-12
3.28358395923e-05
-3.25453707797e-12
3.28358404441e-05
-3.35311355815e-12
3.2835841307e-05
-3.45594394648e-12
3.28358421968e-05
-3.54186770791e-12
3.2835843155e-05
-3.69354725859e-12
3.28358441352e-05
-3.90402015957e-12
3.28358451687e-05
-4.08480270592e-12
3.28358463294e-05
-4.24242228823e-12
3.28358476279e-05
-4.44398951853e-12
3.28358489841e-05
-4.68358977755e-12
3.28358503443e-05
-4.92216027797e-12
3.28358517765e-05
-5.16384580423e-12
3.28358533704e-05
-5.42321139597e-12
3.28358551329e-05
-5.72559664042e-12
3.28358570565e-05
-6.10451905286e-12
3.28358591719e-05
-6.54492349246e-12
3.2835861594e-05
-7.05458382443e-12
3.28358643599e-05
-7.69957022655e-12
3.28358674366e-05
-8.49061919547e-12
3.2835870967e-05
-9.43399575996e-12
3.28358749364e-05
-1.05120181599e-11
3.28358796066e-05
-1.20398871144e-11
3.2835885343e-05
-1.39992510767e-11
3.28358922604e-05
-1.64292219626e-11
3.28359004981e-05
-1.93235260041e-11
3.28359105997e-05
-2.27870624392e-11
3.28359229409e-05
-2.71301668193e-11
3.28359378292e-05
-3.24224790952e-11
3.2835956169e-05
-3.883438768e-11
3.28359788831e-05
-4.6862567571e-11
3.2836006891e-05
-5.68666403881e-11
3.2836042012e-05
-6.92054324411e-11
3.28360848008e-05
-8.45587084626e-11
3.28361369016e-05
-1.03648037779e-10
3.28362010476e-05
-1.27336402357e-10
3.28362801971e-05
-1.56792553766e-10
3.28363776488e-05
-1.9314924499e-10
3.28364981141e-05
-2.38003060729e-10
3.28366470877e-05
-2.93731026705e-10
3.28368309088e-05
-3.62820091043e-10
3.2837058106e-05
-4.48122390863e-10
3.28373393828e-05
-5.53697403279e-10
3.28376872841e-05
-6.84592961518e-10
3.2838117491e-05
-8.46648755032e-10
3.28386499612e-05
-1.04723995434e-09
3.28393092034e-05
-1.29584043318e-09
3.28401251581e-05
-1.60415050051e-09
3.2841134792e-05
-1.98656595688e-09
3.28423844905e-05
-2.46087456438e-09
3.28439318618e-05
-3.04862450864e-09
3.28458481796e-05
-3.77661578915e-09
3.28482214828e-05
-4.678262103e-09
3.28511609495e-05
-5.7951501303e-09
3.28548018488e-05
-7.17885653369e-09
3.28593119342e-05
-8.89332721796e-09
3.28648992668e-05
-1.10181650583e-08
3.28718217791e-05
-1.36522859486e-08
3.28803999451e-05
-1.69186063004e-08
3.2891031584e-05
-2.09701924871e-08
3.29042113079e-05
-2.59980784728e-08
3.29205546887e-05
-3.2241291921e-08
3.29408284715e-05
-3.9999405033e-08
3.29659890915e-05
-4.96485894892e-08
3.29972323924e-05
-6.16629523923e-08
3.30360572458e-05
-7.66433930126e-08
3.30843465392e-05
-9.53552133188e-08
3.3144476173e-05
-1.18779489914e-07
3.32194569191e-05
-1.4818473256e-07
3.33131279705e-05
-1.85228561826e-07
3.34304228499e-05
-2.32107244835e-07
3.35777420581e-05
-2.91780077696e-07
3.37634998636e-05
-3.68323544904e-07
3.39989447368e-05
-4.6752147741e-07
3.42994412201e-05
-5.97904779995e-07
3.4686537556e-05
-7.72688451245e-07
3.51913298391e-05
-1.01359611215e-06
3.58597176059e-05
-1.35872313709e-06
3.67594390034e-05
-1.87893337033e-06
3.79846935737e-05
-2.71060083565e-06
3.96362027877e-05
-4.1143210051e-06
4.16939083556e-05
-6.56362667824e-06
-1.07484741005e-05
4.36130094743e-05
5.35705202697e-05
8.95186704576e-06
5.55863057873e-05
1.58501344687e-05
5.52410590941e-05
1.62553863132e-05
5.35976162547e-05
1.40474395315e-05
5.15429061661e-05
1.11562297266e-05
4.95819406636e-05
8.45147058699e-06
4.7926251489e-05
6.22441159364e-06
4.66200401048e-05
4.4984243877e-06
4.56322342267e-05
3.20429839928e-06
4.49066882251e-05
2.25390643845e-06
4.43854429571e-05
1.56624329123e-06
4.40178337867e-05
1.07472639235e-06
4.37629134137e-05
7.27376881998e-07
4.35890460003e-05
4.84705444181e-07
4.34725028335e-05
3.17212115156e-07
4.33958698167e-05
2.03133093931e-07
4.33465917979e-05
1.26584836371e-07
4.33157576743e-05
7.60951115788e-08
4.32971362641e-05
4.34650052664e-08
4.32864347325e-05
2.28995784665e-08
4.32807414856e-05
1.03513408719e-08
4.32781187913e-05
3.03041658071e-09
4.32772921854e-05
-9.63311137189e-10
4.32774567608e-05
-2.90310411238e-09
4.32781082163e-05
-3.61779651801e-09
4.32789463004e-05
-3.64516720452e-09
4.32798013723e-05
-3.32128886958e-09
4.32805858247e-05
-2.84927772582e-09
4.32812617507e-05
-2.3458483237e-09
4.32818200048e-05
-1.87312306676e-09
4.32822668188e-05
-1.4597771444e-09
4.32826157266e-05
-1.11486025418e-09
4.32828826605e-05
-8.36646534258e-10
4.32830832629e-05
-6.18063072182e-10
4.3283231628e-05
-4.49969430968e-10
4.32833397996e-05
-3.23077458585e-10
4.3283417574e-05
-2.2887921024e-10
4.32834726943e-05
-1.59973479288e-10
4.32835112789e-05
-1.10263016374e-10
4.32835379277e-05
-7.49179595266e-11
4.32835560355e-05
-5.01279026353e-11
4.32835681867e-05
-3.2988616883e-11
4.32835762011e-05
-2.13490412663e-11
4.3283581302e-05
-1.35532365033e-11
4.32835845007e-05
-8.41755301797e-12
4.32835864615e-05
-5.15999153252e-12
4.32835875158e-05
-3.13165839993e-12
4.32835880594e-05
-1.85674947707e-12
4.32835883884e-05
-1.09784990937e-12
4.32835885357e-05
-6.95709942921e-13
4.32835885598e-05
-4.64876730778e-13
4.32835885519e-05
-3.36942930686e-13
4.32835884866e-05
-3.12635157441e-13
4.32835884429e-05
-3.30285498664e-13
4.32835884766e-05
-4.07443604958e-13
4.32835884967e-05
-5.15020809774e-13
4.32835885445e-05
-5.93544977941e-13
4.32835886593e-05
-7.24316204293e-13
4.32835887068e-05
-9.20162200029e-13
4.32835887072e-05
-1.07886005462e-12
4.32835887839e-05
-1.23248057175e-12
4.3283588838e-05
-1.41734490881e-12
4.32835888312e-05
-1.52894130099e-12
4.32835889167e-05
-1.57603080573e-12
4.32835890643e-05
-1.68937561696e-12
4.32835891247e-05
-1.86063191076e-12
4.32835891784e-05
-2.00067365131e-12
4.32835892814e-05
-2.13481298012e-12
4.32835893363e-05
-2.29293274454e-12
4.32835893742e-05
-2.44505405268e-12
4.32835894428e-05
-2.55756401569e-12
4.32835895211e-05
-2.62820172746e-12
4.32835897096e-05
-2.71562953159e-12
4.32835899517e-05
-2.88809322808e-12
4.32835900695e-05
-3.0455402509e-12
4.32835902102e-05
-3.143468237e-12
4.32835904652e-05
-3.27737404104e-12
4.32835906478e-05
-3.42953523196e-12
4.3283590834e-05
-3.54281162334e-12
4.32835911809e-05
-3.67095150633e-12
4.3283591556e-05
-3.81264539171e-12
4.32835919085e-05
-3.94184841758e-12
4.32835923076e-05
-4.12016643467e-12
4.32835927624e-05
-4.35728981701e-12
4.32835932771e-05
-4.56748924036e-12
4.32835938816e-05
-4.7614860458e-12
4.32835946016e-05
-5.03085882881e-12
4.3283595406e-05
-5.3520945245e-12
4.32835962511e-05
-5.67327975965e-12
4.32835971703e-05
-6.04406531011e-12
4.32835982365e-05
-6.4711858476e-12
4.32835994884e-05
-6.9319279845e-12
4.3283600963e-05
-7.49964292241e-12
4.32836026766e-05
-8.21468014439e-12
4.32836047252e-05
-9.06161537959e-12
4.32836072091e-05
-1.0096622533e-11
4.32836101312e-05
-1.13868734857e-11
4.32836137073e-05
-1.29993876999e-11
4.32836181902e-05
-1.50118726938e-11
4.32836234313e-05
-1.74602438443e-11
4.32836297328e-05
-2.04633015205e-11
4.32836374464e-05
-2.42205418029e-11
4.32836466812e-05
-2.87824748009e-11
4.32836580005e-05
-3.42719155224e-11
4.32836720389e-05
-4.11103593626e-11
4.32836891503e-05
-4.95979544412e-11
4.32837101447e-05
-5.99698182779e-11
4.32837361233e-05
-7.28138554401e-11
4.32837680765e-05
-8.880905154e-11
4.32838074063e-05
-1.08594877799e-10
4.32838561101e-05
-1.33218112033e-10
4.32839161881e-05
-1.63786954044e-10
4.32839904045e-05
-2.01612757149e-10
4.32840823372e-05
-2.48550455343e-10
4.3284195781e-05
-3.06633943925e-10
4.32843359351e-05
-3.78285681777e-10
4.32845094591e-05
-4.67034843962e-10
4.32847239756e-05
-5.77128216776e-10
4.32849891268e-05
-7.13347883862e-10
4.32853173221e-05
-8.81879473168e-10
4.32857235154e-05
-1.09064307113e-09
4.32862260536e-05
-1.34918527434e-09
4.32868480802e-05
-1.6693110271e-09
4.32876181099e-05
-2.06590008759e-09
4.32885713325e-05
-2.55741564058e-09
4.32897513142e-05
-3.16663533966e-09
4.32912119807e-05
-3.92166691754e-09
4.32930203172e-05
-4.85700942946e-09
4.32952593527e-05
-6.01554608347e-09
4.32980317199e-05
-7.45058695537e-09
4.33014647517e-05
-9.22823708598e-09
4.33057162063e-05
-1.14304427142e-08
4.33109815192e-05
-1.41588790528e-08
4.33175031415e-05
-1.75399884508e-08
4.33255816371e-05
-2.17308956337e-08
4.33355901708e-05
-2.69269767678e-08
4.33479916552e-05
-3.33714697362e-08
4.33633610624e-05
-4.13674905919e-08
4.33824133687e-05
-5.12937007239e-08
4.3406038279e-05
-6.36242468637e-08
4.34353438853e-05
-7.89540559319e-08
4.34717125095e-05
-9.80316852222e-08
4.3516872667e-05
-1.21803477308e-07
4.35729892299e-05
-1.51471697357e-07
4.36427830148e-05
-1.88572912637e-07
4.37296847226e-05
-2.35086102816e-07
4.38380402012e-05
-2.93584159601e-07
4.3973387278e-05
-3.67454073077e-07
4.41428300922e-05
-4.61222469833e-07
4.43555622189e-05
-5.81055456784e-07
4.4623602778e-05
-7.35562117157e-07
4.49628349628e-05
-9.37137076789e-07
4.53944428171e-05
-1.20429628591e-06
4.59467250331e-05
-1.56587803986e-06
4.66567143343e-05
-2.06871202325e-06
4.75692159329e-05
-2.791435248e-06
4.8725970642e-05
-3.86735548904e-06
5.0126004912e-05
-5.51435491757e-06
5.16145644545e-05
-8.05218629234e-06
-1.18090104884e-05
5.26751005477e-05
5.27606087129e-05
6.19125863279e-06
5.57402408237e-05
1.28705022253e-05
5.73124120978e-05
1.46832148905e-05
5.76111982834e-05
1.37486536181e-05
5.71338688504e-05
1.16335590343e-05
5.6319984291e-05
9.26535504474e-06
5.54496452573e-05
7.09475071673e-06
5.46637031986e-05
5.28436644575e-06
5.40144133447e-05
3.85358825702e-06
5.35068429538e-05
2.76147700779e-06
5.31248785838e-05
1.94820776313e-06
5.28455247374e-05
1.35408037854e-06
5.26458887018e-05
9.27013041227e-07
5.25060761498e-05
6.24518055845e-07
5.24099985645e-05
4.13289733097e-07
5.23452170442e-05
2.67914583967e-07
5.23024121017e-05
1.69389739961e-07
5.22747672216e-05
1.03739942546e-07
5.22573950791e-05
6.08371351026e-08
5.22468530846e-05
3.34415922914e-08
5.22407569109e-05
1.64475431599e-08
5.22374839598e-05
6.30334599268e-09
5.22359427824e-05
5.77843788333e-10
5.22354275472e-05
-2.38788798665e-09
5.22354795328e-05
-3.66982715582e-09
5.22358144521e-05
-3.98013813112e-09
5.22362618114e-05
-3.76868940143e-09
5.22367247517e-05
-3.31223820353e-09
5.22371526806e-05
-2.77380152438e-09
5.22375232126e-05
-2.24366761954e-09
5.22378302719e-05
-1.76687369462e-09
5.22380766873e-05
-1.36131489121e-09
5.22382695314e-05
-1.02949531436e-09
5.22384173261e-05
-7.65861019021e-10
5.22385285467e-05
-5.61240563945e-10
5.22386109396e-05
-4.05509099958e-10
5.22386711168e-05
-2.89038281311e-10
5.22387144122e-05
-2.03275666123e-10
5.22387451637e-05
-1.41016406016e-10
5.2238766747e-05
-9.64702047735e-11
5.22387816545e-05
-6.50347567169e-11
5.22387918202e-05
-4.31414038592e-11
5.22387986853e-05
-2.81507173452e-11
5.22388031593e-05
-1.80561432464e-11
5.22388060089e-05
-1.13470472108e-11
5.22388078581e-05
-7.01292547173e-12
5.22388089749e-05
-4.2883420103e-12
5.22388095944e-05
-2.55231455451e-12
5.22388099571e-05
-1.45868343656e-12
5.22388100737e-05
-8.15931433544e-13
5.22388100012e-05
-4.38513294032e-13
5.22388098896e-05
-2.33788601799e-13
5.22388097448e-05
-1.92027110657e-13
5.22388096014e-05
-1.87001930045e-13
5.22388095418e-05
-2.21014200224e-13
5.22388094744e-05
-3.22348453131e-13
5.22388093708e-05
-4.18550201139e-13
5.22388093335e-05
-5.63994618963e-13
5.22388092754e-05
-7.98291274125e-13
5.22388091504e-05
-1.01683247595e-12
5.22388091018e-05
-1.18257693889e-12
5.22388091173e-05
-1.36619528426e-12
5.22388090345e-05
-1.5054815796e-12
5.22388089344e-05
-1.55821472338e-12
5.22388089213e-05
-1.66009741786e-12
5.22388088554e-05
-1.86132651869e-12
5.22388087204e-05
-2.05039004447e-12
5.22388086409e-05
-2.1957427736e-12
5.22388085672e-05
-2.32748357627e-12
5.22388084651e-05
-2.44416573196e-12
5.22388083809e-05
-2.55810663343e-12
5.2238808252e-05
-2.64650001419e-12
5.22388081583e-05
-2.71112675134e-12
5.22388081752e-05
-2.86360933636e-12
5.22388081196e-05
-3.0705351736e-12
5.22388079895e-05
-3.19057218804e-12
5.22388079636e-05
-3.2791426805e-12
5.2238807953e-05
-3.41979147481e-12
5.22388079004e-05
-3.55537315786e-12
5.22388079344e-05
-3.69411568863e-12
5.22388080121e-05
-3.8754601679e-12
5.22388080605e-05
-4.05682314641e-12
5.22388081191e-05
-4.2286000827e-12
5.22388082163e-05
-4.42038530342e-12
5.22388083727e-05
-4.63382417372e-12
5.22388086029e-05
-4.88380344328e-12
5.22388088958e-05
-5.19348406501e-12
5.22388092556e-05
-5.55489541243e-12
5.22388097098e-05
-5.97000942733e-12
5.22388102454e-05
-6.46146702337e-12
5.22388108608e-05
-7.01836666367e-12
5.22388116246e-05
-7.63671863407e-12
5.22388126263e-05
-8.38661626928e-12
5.22388138517e-05
-9.33061093078e-12
5.2238815337e-05
-1.04886873397e-11
5.22388172344e-05
-1.1941062382e-11
5.22388195567e-05
-1.37552795563e-11
5.22388224223e-05
-1.59715236264e-11
5.22388260553e-05
-1.87300985412e-11
5.22388305364e-05
-2.21473040204e-11
5.22388361375e-05
-2.62827437235e-11
5.2238843281e-05
-3.13982025522e-11
5.22388521024e-05
-3.77147039172e-11
5.22388630067e-05
-4.53670731415e-11
5.22388767482e-05
-5.48033854857e-11
5.2238893803e-05
-6.65765619889e-11
5.22389148563e-05
-8.11174170515e-11
5.2238941088e-05
-9.90899879084e-11
5.2238973691e-05
-1.21390802405e-10
5.22390140403e-05
-1.48971236158e-10
5.22390640588e-05
-1.83184794419e-10
5.22391258336e-05
-2.25651052269e-10
5.22392021532e-05
-2.78145117761e-10
5.22392969074e-05
-3.43129028125e-10
5.22394141586e-05
-4.23663662909e-10
5.22395590134e-05
-5.23212005342e-10
5.22397384097e-05
-6.46373720136e-10
5.22399605441e-05
-7.99055550937e-10
5.22402353019e-05
-9.88140279166e-10
5.22405754236e-05
-1.22213162245e-09
5.22409965915e-05
-1.51181497989e-09
5.22415179132e-05
-1.87054407271e-09
5.22421633073e-05
-2.31477865029e-09
5.22429623261e-05
-2.86501253946e-09
5.22439514689e-05
-3.54669384201e-09
5.22451760009e-05
-4.39130589588e-09
5.22466919388e-05
-5.43770019028e-09
5.22485686765e-05
-6.73382081777e-09
5.22508922364e-05
-8.33918686411e-09
5.22537690544e-05
-1.0327598527e-08
5.22573311719e-05
-1.27904925636e-08
5.22617420906e-05
-1.58413724261e-08
5.2267204168e-05
-1.96210835571e-08
5.227396843e-05
-2.43044617746e-08
5.22823458995e-05
-3.01086159586e-08
5.22927224392e-05
-3.730348799e-08
5.23055763913e-05
-4.62250920928e-08
5.23215010508e-05
-5.72918494815e-08
5.2341233033e-05
-7.10255976306e-08
5.23656875591e-05
-8.80786205134e-08
5.23960021988e-05
-1.09268260756e-07
5.24335917069e-05
-1.35621015651e-07
5.24802189652e-05
-1.68430700657e-07
5.25380822308e-05
-2.09335242594e-07
5.26099286045e-05
-2.60419334928e-07
5.26991970556e-05
-3.2435407947e-07
5.28102020515e-05
-4.04589140601e-07
5.29483733736e-05
-5.05625610611e-07
5.31205622025e-05
-6.33411086242e-07
5.33354345856e-05
-7.95927417659e-07
5.36039652513e-05
-1.00409250894e-06
5.39400137584e-05
-1.27318502326e-06
5.43608699351e-05
-1.62515231631e-06
5.48873878839e-05