/*--------------------------------*- C++ -*----------------------------------*\
| =========                 |                                                 |
| \\      /  F ield         | OpenFOAM: The Open Source CFD Toolbox           |
|  \\    /   O peration     | Version:  2106                                  |
|   \\  /    A nd           | Website:  www.openfoam.com                      |
|    \\/     M anipulation  |                                                 |
\*---------------------------------------------------------------------------*/
FoamFile
{
    version     2.0;
    format      ascii;
    arch        "LSB;label=32;scalar=64";
    class       surfaceScalarField;
    location    "0.435";
    object      phi;
}
// * * * * * * * * * * * * * * * * * * * * * * * * * * * * * * * * * * * * * //

dimensions      [0 3 -1 0 0 0 0];

oriented        oriented;

internalField   nonuniform List<scalar> 
22100
(
3.38461203511e-05
1.61538796863e-05
2.24572098206e-05
1.13889104819e-05
1.62585528847e-05
6.19865690659e-06
1.27977758801e-05
3.46077700068e-06
1.0804642008e-05
1.9931338774e-06
9.60458903897e-06
1.20005300522e-06
8.85132137662e-06
7.53267719104e-07
8.36435269785e-06
4.86968761635e-07
8.04433498478e-06
3.20017822065e-07
7.83284037713e-06
2.1149473489e-07
7.69339741313e-06
1.39443106526e-07
7.60224073608e-06
9.11568324035e-08
7.54347817745e-06
5.87627251862e-08
7.50634150777e-06
3.71368488648e-08
7.48350227555e-06
2.28394296344e-08
7.46998176418e-06
1.35207287083e-08
7.4624174875e-06
7.56451067045e-09
7.45854983886e-06
3.86791102472e-09
7.45683124126e-06
1.71888839304e-09
7.45642509919e-06
4.06462434649e-10
7.45677543103e-06
-3.49973275276e-10
7.4574621377e-06
-6.86324405399e-10
7.45822101483e-06
-7.58485433709e-10
7.45894685988e-06
-7.25448808646e-10
7.45959171294e-06
-6.44460518697e-10
7.46013618506e-06
-5.44098649739e-10
7.4605788303e-06
-4.42295181733e-10
7.46092810307e-06
-3.48941012783e-10
7.46119691634e-06
-2.68499096165e-10
7.46139935204e-06
-2.0214912887e-10
7.46154878783e-06
-1.49166519203e-10
7.46165692185e-06
-1.07863950943e-10
7.4617334924e-06
-7.63296966321e-11
7.46178661236e-06
-5.29225678902e-11
7.46182026348e-06
-3.34583473219e-11
7.46183943463e-06
-1.89721535695e-11
7.46184885924e-06
-9.27076158629e-12
7.4618520357e-06
-2.97468708848e-12
7.46185087834e-06
1.35492088421e-12
7.46184653166e-06
4.55223394154e-12
7.46183993529e-06
6.82435847531e-12
7.46183167324e-06
8.48855496763e-12
7.46182210973e-06
9.78244574342e-12
7.46181142304e-06
1.08988854714e-11
7.4617996117e-06
1.20089559687e-11
7.46178655402e-06
1.32380543828e-11
7.46177203013e-06
1.46877153927e-11
7.4617557507e-06
1.6441944261e-11
7.46173728957e-06
1.86013308922e-11
7.46171612829e-06
2.12958726379e-11
7.46169166522e-06
2.45895539568e-11
7.46166321194e-06
2.85773583855e-11
7.46162999006e-06
3.33577765342e-11
7.4615911689e-06
3.89956374679e-11
7.46154585897e-06
4.54890038992e-11
7.46149321062e-06
5.28053467898e-11
7.46143258827e-06
6.07506916245e-11
7.46136393867e-06
6.8772922878e-11
7.46128794126e-06
7.61193465375e-11
7.4612071761e-06
8.09177408368e-11
7.46112780456e-06
7.93109861172e-11
7.46106232756e-06
6.57282153907e-11
7.46101791127e-06
4.45071956124e-11
7.46101431242e-06
3.74631070496e-12
7.46108734264e-06
-7.300974122e-11
7.461295439e-06
-2.0800563765e-10
7.46173317665e-06
-4.37553749647e-10
7.46255057267e-06
-8.17229846121e-10
7.46398286844e-06
-1.43215836069e-09
7.46638551366e-06
-2.4024721947e-09
7.47020761726e-06
-3.82187353248e-09
7.47666148715e-06
-6.45361825671e-09
7.48743671075e-06
-1.07749940149e-08
7.50561550884e-06
-1.81786217371e-08
7.53880344715e-06
-3.31877732098e-08
7.60801666312e-06
-6.92130522366e-08
7.7746657856e-06
-1.66648964638e-07
8.22953122925e-06
-4.54865330026e-07
9.69700384322e-06
-1.46747254207e-06
-5.45080174224e-06
1.51478057162e-05
5.02175949043e-05
1.5936284741e-05
4.42441117091e-05
1.73623936391e-05
3.77795016332e-05
1.26632669724e-05
3.26461442221e-05
8.59413444296e-06
2.89380921863e-05
5.70118597308e-06
2.63596219046e-05
3.77852339995e-06
2.4587517647e-05
2.52537213423e-06
2.33734757801e-05
1.70101082536e-06
2.25435269608e-05
1.14996687438e-06
2.19782185366e-05
7.76803419722e-07
2.15955162961e-05
5.22145629237e-07
2.13387400423e-05
3.47933386092e-07
2.11684988557e-05
2.29004234145e-07
2.1057341615e-05
1.48294449988e-07
2.09861541111e-05
9.40273439415e-08
2.09416821874e-05
5.7993113365e-08
2.09148008819e-05
3.44463415301e-08
2.08993023492e-05
1.93670457778e-08
2.08910792148e-05
9.9426711832e-09
2.08872795521e-05
4.20682082414e-09
2.08862112386e-05
7.19062321787e-10
2.08864575838e-05
-9.31945923473e-10
2.08873296459e-05
-1.62982732362e-09
2.08884697611e-05
-1.86485726621e-09
2.08896436837e-05
-1.81770688648e-09
2.08907272451e-05
-1.62701941535e-09
2.08916653894e-05
-1.37983474674e-09
2.0892443434e-05
-1.12643189098e-09
2.08930691445e-05
-8.93705637037e-10
2.08935617593e-05
-6.94286941745e-10
2.08939460411e-05
-5.33005837527e-10
2.08942480321e-05
-4.09473777267e-10
2.0894459417e-05
-2.87358563341e-10
2.08946068837e-05
-2.00025725739e-10
2.0894707625e-05
-1.33833186905e-10
2.08947733594e-05
-8.43676039335e-11
2.08948142742e-05
-4.98048899367e-11
2.08948385328e-05
-2.68601072696e-11
2.08948509556e-05
-1.06903401682e-11
2.08948544804e-05
1.41048567034e-12
2.08948515231e-05
1.01557142505e-11
2.08948437413e-05
1.66196854144e-11
2.08948322683e-05
2.15840077741e-11
2.08948178239e-05
2.56612402384e-11
2.08948007754e-05
2.9354078339e-11
2.08947812588e-05
3.30184156273e-11
2.08947592628e-05
3.69094175549e-11
2.0894734697e-05
4.12507670216e-11
2.08947073601e-05
4.61883765421e-11
2.08946769969e-05
5.19282224449e-11
2.08946434063e-05
5.84663133872e-11
2.08946064625e-05
6.58245903156e-11
2.08945661875e-05
7.39451861836e-11
2.0894522917e-05
8.2589493043e-11
2.08944775295e-05
9.1187620278e-11
2.0894431816e-05
9.87893383382e-11
2.08943891604e-05
1.03644246538e-10
2.08943556077e-05
1.02565187734e-10
2.08943406218e-05
9.12874167954e-11
2.08943597921e-05
6.22031521563e-11
2.08944399686e-05
-8.1038815285e-13
2.08946300212e-05
-1.24146348453e-10
2.08949983087e-05
-3.23719962577e-10
2.08956641364e-05
-6.61804928123e-10
2.08967336588e-05
-1.14231384288e-09
2.08983857204e-05
-1.85992989778e-09
2.09009781739e-05
-3.0297965553e-09
2.09050589339e-05
-4.89765157233e-09
2.09114971632e-05
-7.86999834958e-09
2.09217164992e-05
-1.26214254531e-08
2.09382070901e-05
-2.03120876136e-08
2.09651126913e-05
-3.33588711245e-08
2.1009372647e-05
-5.50346137154e-08
2.10841567555e-05
-9.29624171165e-08
2.12153853879e-05
-1.64416087613e-07
2.14559543533e-05
-3.09781704164e-07
2.19136938008e-05
-6.24388166311e-07
2.28004622631e-05
-1.34163366094e-06
2.44439749153e-05
-3.11098512321e-06
-7.03661689518e-06
2.60297901055e-05
5.35171053705e-05
1.24191793578e-05
5.29349683889e-05
1.79445305902e-05
4.96538402392e-05
1.59443951216e-05
4.58401816316e-05
1.24077930824e-05
4.24400926929e-05
9.10127497131e-06
3.97291728257e-05
6.48944336758e-06
3.76873064706e-05
4.56723862516e-06
3.61976637975e-05
3.19065367002e-06
3.51326133496e-05
2.21501752595e-06
3.43823685096e-05
1.5270484868e-06
3.38606277615e-05
1.04388662349e-06
3.35023477782e-05
7.06213635841e-07
3.32596031626e-05
4.71749139744e-07
3.30975931775e-05
3.10304752173e-07
3.2991337457e-05
2.00283408753e-07
3.29230959702e-05
1.26234979596e-07
3.28804084582e-05
7.71342939898e-08
3.2854623795e-05
4.51521848456e-08
3.28397972149e-05
2.47697931838e-08
3.28318712474e-05
1.213337359e-08
3.28280022923e-05
4.58862510897e-09
3.28270042196e-05
6.67506478427e-11
3.28271855461e-05
-1.81052291368e-09
3.28280344919e-05
-2.71318639499e-09
3.28291507628e-05
-2.93338985104e-09
3.2830298474e-05
-2.77416822691e-09
3.28313548773e-05
-2.43570158741e-09
3.28322656623e-05
-2.03672533094e-09
3.28330159834e-05
-1.64357096134e-09
3.28336119343e-05
-1.2897918211e-09
3.28340684645e-05
-9.89142956794e-10
3.28344036453e-05
-7.44300173628e-10
3.28346702134e-05
-5.53557677916e-10
3.28348866543e-05
-4.16171166303e-10
3.28350340541e-05
-2.80929205368e-10
3.28351334272e-05
-1.83432662503e-10
3.2835199431e-05
-1.1548417482e-10
3.2835241495e-05
-6.85996943365e-11
3.28352665205e-05
-3.53695163044e-11
3.2835278459e-05
-1.01784849863e-11
3.28352808669e-05
8.09375942387e-12
3.28352762416e-05
2.15916033579e-11
3.28352663958e-05
3.17550741274e-11
3.28352525595e-05
3.97834132011e-11
3.28352354923e-05
4.66801038457e-11
3.28352156591e-05
5.31107030359e-11
3.28351933741e-05
5.94630986118e-11
3.28351688567e-05
6.60266499977e-11
3.28351422532e-05
7.30317727695e-11
3.28351135629e-05
8.08451130518e-11
3.28350831216e-05
8.91458198658e-11
3.28350515457e-05
9.76540071122e-11
3.28350198981e-05
1.05862239601e-10
3.2834989985e-05
1.12738253856e-10
3.2834964852e-05
1.16538666951e-10
3.28349491372e-05
1.14750684679e-10
3.28349500181e-05
1.03039170567e-10
3.28349790866e-05
7.37236418094e-11
3.28350536773e-05
1.67027125595e-11
3.28352037735e-05
-8.79336094521e-11
3.28354808902e-05
-2.77805607354e-10
3.2835974708e-05
-6.17766239778e-10
3.2836696087e-05
-1.04510686031e-09
3.28377436128e-05
-1.70928388773e-09
3.28393771736e-05
-2.77569458007e-09
3.284197063e-05
-4.45311211962e-09
3.28460283416e-05
-7.08716922158e-09
3.28523648943e-05
-1.12338826108e-08
3.28622932625e-05
-1.77980816544e-08
3.28779775331e-05
-2.8305417536e-08
3.29030772467e-05
-4.54114872799e-08
3.29429413204e-05
-7.32226095443e-08
3.30073961898e-05
-1.19489159538e-07
3.3113416936e-05
-1.98982862893e-07
3.32900038098e-05
-3.41002681991e-07
3.35853381567e-05
-6.05115805596e-07
3.40704613828e-05
-1.10951119544e-06
3.48114507423e-05
-2.08262280804e-06
3.56720442625e-05
-3.97157845037e-06
-7.10448321296e-06
3.57399107696e-05
5.35105664947e-05
8.90861284545e-06
5.55742222941e-05
1.58808747486e-05
5.52424826361e-05
1.62761347714e-05
5.35977861773e-05
1.40524895659e-05
5.15418480235e-05
1.11572131767e-05
4.95802803881e-05
8.45101109675e-06
4.79243515223e-05
6.22316761831e-06
4.66181398315e-05
4.49686551895e-06
4.56304672433e-05
3.20269030156e-06
4.49051185353e-05
2.25239740575e-06
4.43840916105e-05
1.56491377807e-06
4.40166957502e-05
1.07360974763e-06
4.37619695774e-05
7.26475594863e-07
4.35882713251e-05
4.84003320889e-07
4.3471872353e-05
3.16682730525e-07
4.3395362715e-05
2.02745018366e-07
4.33461929132e-05
1.26304534037e-07
4.33154558288e-05
7.58897655905e-08
4.3296920033e-05
4.33061293665e-08
4.32862945594e-05
2.27594181452e-08
4.32806923244e-05
1.01914578635e-08
4.32778852758e-05
2.87441251174e-09
4.32770581082e-05
-9.8274059657e-10
4.32772766119e-05
-2.93109248338e-09
4.32779647389e-05
-3.62094433631e-09
4.32788283562e-05
-3.63724004951e-09
4.3279701688e-05
-3.30852069366e-09
4.32804996191e-05
-2.83417699852e-09
4.32811857926e-05
-2.32930978226e-09
4.32817520251e-05
-1.85561002752e-09
4.32822051148e-05
-1.44185240917e-09
4.3282557772e-05
-1.09660138655e-09
4.32828197655e-05
-8.15216758492e-10
4.32829954258e-05
-5.91521450349e-10
4.3283128671e-05
-4.13876804106e-10
4.32832143619e-05
-2.68817172107e-10
4.3283268604e-05
-1.69427960744e-10
4.32833087081e-05
-1.08388657165e-10
4.32833334618e-05
-5.97866624262e-11
4.32833458447e-05
-2.22202697567e-11
4.32833492752e-05
4.98805380139e-12
4.3283345711e-05
2.54599214611e-11
4.32833368424e-05
4.0910295861e-11
4.3283323849e-05
5.30518313146e-11
4.32833074063e-05
6.33919590852e-11
4.32832879295e-05
7.27865698504e-11
4.32832658052e-05
8.17827667874e-11
4.32832413336e-05
9.06860560844e-11
4.32832148666e-05
9.96869810742e-11
4.32831870052e-05
1.08894977745e-10
4.3283158438e-05
1.17924260603e-10
4.32831301469e-05
1.26184480607e-10
4.32831035972e-05
1.32629211839e-10
4.32830809069e-05
1.35626452317e-10
4.3283065039e-05
1.3264363542e-10
4.32830605292e-05
1.19505662934e-10
4.32830754814e-05
8.82663113267e-11
4.3283121959e-05
2.73311406068e-11
4.32832195997e-05
-8.04145632808e-11
4.32833836623e-05
-2.51899029968e-10
4.32836317607e-05
-5.25913134321e-10
4.3284080101e-05
-1.06609556005e-09
4.32848596003e-05
-1.82439503016e-09
4.32861217052e-05
-2.97116616304e-09
4.32880748126e-05
-4.72857557134e-09
4.32910694671e-05
-7.44754137969e-09
4.32956656043e-05
-1.16830619849e-08
4.33027420376e-05
-1.83100499829e-08
4.33136809303e-05
-2.87366953725e-08
4.333063993e-05
-4.52641137172e-08
4.33569273597e-05
-7.16985820999e-08
4.33981114375e-05
-1.14406335418e-07
4.34630392082e-05
-1.84416623149e-07
4.35654264324e-05
-3.01369797425e-07
4.37252122626e-05
-5.00788233743e-07
4.39669663407e-05
-8.46869665872e-07
4.43073119131e-05
-1.44985662195e-06
4.4707489249e-05
-2.4828000012e-06
4.49265323592e-05
-4.19062138083e-06
-6.57498762527e-06
4.43970368552e-05
5.27351380262e-05
6.17347480458e-06
5.57309344756e-05
1.28850782575e-05
5.73114743473e-05
1.46955948848e-05
5.76109919288e-05
1.37529720074e-05
5.71335228809e-05
1.16346822711e-05
5.63194685413e-05
9.26506552013e-06
5.54489886099e-05
7.09364766806e-06
5.46629783356e-05
5.28287594387e-06
5.40136831004e-05
3.85198571698e-06
5.35061521281e-05
2.75992857848e-06
5.31242566064e-05
1.94680951772e-06
5.28449875023e-05
1.35287909082e-06
5.26454417466e-05
9.26021619138e-07
5.25057180425e-05
6.23727326958e-07
5.24097238611e-05
4.12677247271e-07
5.23450184887e-05
2.67450772993e-07
5.2302281353e-05
1.69042110592e-07
5.22746949196e-05
1.03476693082e-07
5.22573711264e-05
6.06304584468e-08
5.22468631894e-05
3.32679230872e-08
5.22407642093e-05
1.62910333759e-08
5.22374560052e-05
6.18322276562e-09
5.22359579234e-05
5.15941407153e-10
5.22354504782e-05
-2.42305820771e-09
5.22355158578e-05
-3.68574629921e-09
5.22358616791e-05
-3.98250471548e-09
5.22363162211e-05
-3.76254788437e-09
5.22367828635e-05
-3.30032404294e-09
5.22372104952e-05
-2.75648422015e-09
5.22375763967e-05
-2.22109689864e-09
5.22378738862e-05
-1.73894430567e-09
5.2238105759e-05
-1.32807370817e-09
5.22382822815e-05
-9.91399332426e-10
5.22384153621e-05
-7.24268942343e-10
5.22385159351e-05
-5.14108578285e-10
5.2238600713e-05
-3.53268378554e-10
5.22386665069e-05
-2.34903602257e-10
5.22387090433e-05
-1.50592949868e-10
5.22387421258e-05
-9.25286191027e-11
5.22387578703e-05
-3.76198086065e-11
5.22387634518e-05
-2.5650169641e-13
5.22387614478e-05
2.7774437981e-11
5.22387538095e-05
4.88232534352e-11
5.22387418531e-05
6.52645339454e-11
5.22387264601e-05
7.90115770778e-11
5.22387082096e-05
9.12528498087e-11
5.22386875892e-05
1.02610752907e-10
5.22386652232e-05
1.13238173806e-10
5.22386424657e-05
1.22619859377e-10
5.22386170608e-05
1.34490930742e-10
5.22385908028e-05
1.44377224808e-10
5.22385648313e-05
1.52332120235e-10
5.22385407713e-05
1.56849737971e-10
5.2238521353e-05
1.5525681355e-10
5.22385125497e-05
1.41758761154e-10
5.22385222192e-05
1.10140199367e-10
5.22385549017e-05
5.57513042449e-11
5.22386338665e-05
-5.15891234736e-11
5.22387558719e-05
-2.02465195992e-10
5.22389544481e-05
-4.50284761596e-10
5.22392948378e-05
-8.65907088893e-10
5.22398173084e-05
-1.58849904517e-09
5.22405960482e-05
-2.60289876135e-09
5.22417640667e-05
-4.13890715381e-09
5.22435248631e-05
-6.48914616435e-09
5.22461799512e-05
-1.01024023697e-08
5.22501815134e-05
-1.56843917336e-08
5.22562210269e-05
-2.43493000391e-08
5.22653576355e-05
-3.78730015319e-08
5.22792089159e-05
-5.91150517105e-08
5.23002325686e-05
-9.27218975693e-08
5.2332143804e-05
-1.46317243847e-07
5.23802848244e-05
-2.32557352391e-07
5.24515790516e-05
-3.72663730564e-07
5.25528852603e-05
-6.02094148657e-07
5.2684741399e-05
-9.78725577682e-07
5.28249144426e-05
-1.59002944215e-06
5.28919180801e-05
-2.54980341548e-06
5.2673316122e-05
-3.97201927636e-06
-5.76614258767e-06
5.18644710235e-05
5.19834864891e-05
4.18998830164e-06
5.50586639952e-05
9.80990071106e-06
5.76386132561e-05
1.21156456111e-05
5.93259032607e-05
1.20656820269e-05
6.02280153728e-05
1.07325702053e-05
6.05929266583e-05
8.90015431161e-06
6.0648283703e-05
7.03829073317e-06
6.05531893905e-05
5.37797039799e-06
6.04029549861e-05
4.00222029507e-06
6.02479146699e-05
2.91496908846e-06
6.01107893538e-05
2.08393504593e-06
5.99990300733e-05
1.46463860636e-06
5.99125151739e-05
1.01253678181e-06
5.98479235923e-05
6.88319208471e-07
5.98010203786e-05
4.59580813609e-07
5.97677361173e-05
3.00735428701e-07
5.97445951887e-05
1.92183479322e-07
5.97288171128e-05
1.19255260906e-07
5.97182694639e-05
7.11786371991e-08
5.97113637982e-05
4.01741540256e-08
5.97069449961e-05
2.07104283155e-08
5.97042116543e-05
8.91716591794e-09
5.9702603166e-05
2.12502330741e-09
5.97016991599e-05
-1.51847234656e-09
5.97012413703e-05
-3.22739669981e-09
5.97010523242e-05
-3.79292231156e-09
5.97010164921e-05
-3.72619260727e-09
5.97010612169e-05
-3.34454295159e-09
5.97011427662e-05
-2.8375560612e-09
5.97012354664e-05
-2.31335474333e-09
5.97013254684e-05
-1.82850344044e-09
5.9701406123e-05
-1.40836008577e-09
5.97014760145e-05
-1.06094754201e-09
5.97015357715e-05
-7.83674586551e-10
5.97015861945e-05
-5.64204339649e-10
5.97016261925e-05
-3.92947095699e-10
5.97016542192e-05
-2.62600965382e-10
5.97016698316e-05
-1.65874864918e-10
5.97016685336e-05
-9.08941168328e-11
5.97016608168e-05
-2.95636037699e-11
5.97016545962e-05
6.29068354596e-12
5.97016458128e-05
3.68884311277e-11
5.97016356954e-05
5.92314255829e-11
5.97016244748e-05
7.67399749085e-11
5.97016110542e-05
9.26692278514e-11
5.9701595283e-05
1.07244995486e-10
5.97015772599e-05
1.20834816185e-10
5.97015570586e-05
1.33617786591e-10
5.97015343035e-05
1.45559620878e-10
5.97015125651e-05
1.56426373788e-10
5.97014917361e-05
1.65397584551e-10
5.97014730377e-05
1.71179067062e-10
5.9701458161e-05
1.71895977908e-10
5.97014485455e-05
1.65120994633e-10
5.97014424671e-05
1.47907353283e-10
5.97014345519e-05
1.18306386791e-10
5.97014409823e-05
4.95793590047e-11
5.97014536307e-05
-6.41181209932e-11
5.97015425863e-05
-2.91165616967e-10
5.97017348791e-05
-6.42632981718e-10
5.97020377681e-05
-1.16858959897e-09
5.97024285571e-05
-1.97927371815e-09
5.97030120878e-05
-3.18631584777e-09
5.97038707239e-05
-4.99733880315e-09
5.97051185957e-05
-7.73684909482e-09
5.970692105e-05
-1.19046326096e-08
5.97095163738e-05
-1.82794631625e-08
5.97132488644e-05
-2.80815210376e-08
5.97186085864e-05
-4.32324140025e-08
5.97262765316e-05
-6.67826450357e-08
5.97371541591e-05
-1.03599199542e-07
5.97523039335e-05
-1.61466734728e-07
5.97725632744e-05
-2.52816421774e-07
5.97973399315e-05
-3.97440102588e-07
5.98214765873e-05
-6.26230533702e-07
5.98280988015e-05
-9.85347570098e-07
5.97751714917e-05
-1.53710192526e-06
5.95747913394e-05
-2.34942312351e-06
5.90691792827e-05
-3.46640683163e-06
-4.79517495212e-06
5.80982116805e-05
5.14373053884e-05
2.75268290022e-06
5.42658205938e-05
6.9813854696e-06
5.72496432732e-05
9.1318229244e-06
5.97900276607e-05
9.52529766418e-06
6.17201281995e-05
8.80246971493e-06
6.3088303214e-05
7.53197937289e-06
6.40167168654e-05
6.10987718693e-06
6.46292367807e-05
4.76545061579e-06
6.50258038831e-05
3.60565335433e-06
6.52790786263e-05
2.6616945298e-06
6.54389738703e-05
1.92404001059e-06
6.55386909319e-05
1.36492178376e-06
6.5599929743e-05
9.51298243778e-07
6.56367448751e-05
6.51504382863e-07
6.56581963473e-05
4.38129698143e-07
6.56701049956e-05
2.88827184303e-07
6.56761947061e-05
1.86094211237e-07
6.56788315395e-05
1.1661892007e-07
6.56795025441e-05
7.05081611327e-08
6.56791269374e-05
4.05503202784e-08
6.56782601637e-05
2.15777847096e-08
6.56772298753e-05
9.94804236419e-09
6.56762212467e-05
3.1342347964e-09
6.56753125686e-05
-6.0922135289e-10
6.56745444678e-05
-2.45873976982e-09
6.56739166749e-05
-3.16460967542e-09
6.56734183231e-05
-3.22734560284e-09
6.56730319502e-05
-2.95769145046e-09
6.56727385565e-05
-2.54371195173e-09
6.56725199672e-05
-2.09436249492e-09
6.56723600761e-05
-1.66823575221e-09
6.56722452333e-05
-1.29311743603e-09
6.56721632753e-05
-9.78628581391e-10
6.56721036097e-05
-7.23675924763e-10
6.56720604714e-05
-5.20740803404e-10
6.56720296349e-05
-3.61780804098e-10
6.56720049977e-05
-2.37623746816e-10
6.56719838567e-05
-1.44400047826e-10
6.5671969248e-05
-7.59444121403e-11
6.56719678562e-05
-2.78466487429e-11
6.56719666976e-05
7.75552983759e-12
6.5671959712e-05
4.41826392173e-11
6.5671950109e-05
6.91268261475e-11
6.5671937991e-05
8.91122899176e-11
6.56719243158e-05
1.06583371675e-10
6.56719091229e-05
1.22648139377e-10
6.56718922847e-05
1.37860510297e-10
6.56718737377e-05
1.52329500779e-10
6.56718539746e-05
1.65507999681e-10
6.56718351217e-05
1.75483317812e-10
6.56718161128e-05
1.84596240339e-10
6.56717974525e-05
1.9003380398e-10
6.56717803358e-05
1.89298795899e-10
6.56717667135e-05
1.78976302304e-10
6.56717604696e-05
1.54241702517e-10
6.5671768879e-05
1.09919526198e-10
6.5671774812e-05
4.40157260576e-11
6.56718118121e-05
-1.00991157774e-10
6.56718805319e-05
-3.59735749191e-10
6.5671981378e-05
-7.43252079961e-10
6.56721347418e-05
-1.32182099729e-09
6.56723478166e-05
-2.19220696039e-09
6.56726373675e-05
-3.47577337101e-09
6.5673020177e-05
-5.37999446004e-09
6.56735074275e-05
-8.2239029517e-09
6.56740971291e-05
-1.24940633104e-08
6.56747594792e-05
-1.89415195842e-08
6.56754094488e-05
-2.8731216861e-08
6.56758469482e-05
-4.3669618125e-08
6.56756454077e-05
-6.65807718257e-08
6.56739366523e-05
-1.01890114168e-07
6.56689887898e-05
-1.56518575227e-07
6.56572707764e-05
-2.41098114623e-07
6.56316586983e-05
-3.71827717021e-07
6.5578009438e-05
-5.7258099538e-07
6.54691045288e-05
-8.76442375392e-07
6.52558034143e-05
-1.32380049908e-06
6.48581085045e-05
-1.95172807126e-06
6.41636356317e-05
-2.77193360708e-06
-3.71385847446e-06
6.30823192823e-05
5.10850423775e-05
1.6676405084e-06
5.36118445853e-05
4.4545832351e-06
5.668731653e-05
6.05635097751e-06
5.96894465824e-05
6.5231676342e-06
6.22997272496e-05
6.19218909392e-06
6.44136888948e-05
5.41801780118e-06
6.6047185147e-05
4.47638103599e-06
6.72686168371e-05
3.54401905727e-06
6.81598960528e-05
2.71437429389e-06
6.87977628707e-05
2.02382788978e-06
6.92467475162e-05
1.47505556968e-06
6.95579666769e-05
1.05370285818e-06
6.9770433743e-05
7.38831447098e-07
6.9913177266e-05
5.08761165407e-07
7.00073889189e-05
3.43918396295e-07
7.00682991174e-05
2.27917391933e-07
7.01067018564e-05
1.47691922528e-07
7.01301449357e-05
9.31763411044e-08
7.01438348785e-05
5.68187548546e-08
7.01513118222e-05
3.30739372423e-08
7.01549451519e-05
1.79450296609e-08
7.01562937803e-05
8.59999226938e-09
7.01563665027e-05
3.06208564672e-09
7.01557752606e-05
-1.74158280274e-11
7.01549151786e-05
-1.59809999586e-09
7.01539923291e-05
-2.24122251523e-09
7.0153124429e-05
-2.3589270834e-09
7.01523651353e-05
-2.19790391697e-09
7.01517316447e-05
-1.90975588511e-09
7.0151221112e-05
-1.58337062876e-09
7.01508205808e-05
-1.26730155809e-09
7.01505131292e-05
-9.85274609674e-10
7.01502811032e-05
-7.46240857612e-10
7.01501083549e-05
-5.50579370316e-10
7.01499819016e-05
-3.93937034428e-10
7.01498910921e-05
-2.70621278544e-10
7.01498288305e-05
-1.75006040349e-10
7.01497876661e-05
-1.02879042817e-10
7.01497595729e-05
-4.75016494703e-11
7.01497301112e-05
1.9473945345e-12
7.01497071165e-05
3.1075883406e-11
7.01496944443e-05
5.71485376551e-11
7.01496843207e-05
7.95103414585e-11
7.01496748071e-05
9.88693216373e-11
7.01496651414e-05
1.16463018633e-10
7.01496549481e-05
1.33022704944e-10
7.01496440937e-05
1.48861972839e-10
7.01496326414e-05
1.63940899871e-10
7.01496204677e-05
1.77851919511e-10
7.01496061528e-05
1.89959942927e-10
7.01495916028e-05
1.99315177713e-10
7.01495777218e-05
2.0415498292e-10
7.01495652229e-05
2.02088710962e-10
7.01495546014e-05
1.89777355423e-10
7.01495452949e-05
1.63784434399e-10
7.01495346784e-05
1.20751886297e-10
7.01495297114e-05
4.91058013022e-11
7.01495181333e-05
-8.92915779597e-11
7.01495314868e-05
-3.7296949914e-10
7.01495563703e-05
-7.67927977083e-10
7.01495814608e-05
-1.34685220388e-09
7.01495858058e-05
-2.19629026948e-09
7.01495426144e-05
-3.43237377362e-09
7.01493987671e-05
-5.23600899221e-09
7.01490556162e-05
-7.88050434862e-09
7.01483382741e-05
-1.17764087509e-08
7.01469453564e-05
-1.75482918777e-08
7.01443659092e-05
-2.61514951567e-08
7.01397267697e-05
-3.90301860008e-08
7.01315479972e-05
-5.84016873299e-08
7.01173413447e-05
-8.76831682918e-08
7.00929551715e-05
-1.32132128882e-07
7.0051305217e-05
-1.99447887124e-07
6.99804257849e-05
-3.009480312e-07
6.98603644039e-05
-4.52519395792e-07
6.96586989579e-05
-6.74776649256e-07
6.93255527726e-05
-9.90654058848e-07
6.87914354942e-05
-1.41761058548e-06
6.79738493374e-05
-1.95434715886e-06
-2.55484508926e-06
6.68148361493e-05
5.08804132122e-05
7.8722728399e-07
5.31704662205e-05
2.1645302108e-06
5.62177498084e-05
3.00906739493e-06
5.94382698533e-05
3.30264761422e-06
6.24449697203e-05
3.18548926956e-06
6.50382532064e-05
2.82473438212e-06
6.71548668615e-05
2.35976747109e-06
6.88135654649e-05
1.88532057242e-06
7.00731715954e-05
1.45476830406e-06
7.10056687096e-05
1.09133093805e-06
7.16812651844e-05
7.99459288686e-07
7.2161424765e-05
5.7354351078e-07
7.249660596e-05
4.03650523946e-07
7.27264828289e-05
2.78884611534e-07
7.28812820949e-05
1.8911949244e-07
7.29834722703e-05
1.25727633107e-07
7.30494165219e-05
8.17481357727e-08
7.30908191428e-05
5.17742258943e-08
7.31159136357e-05
3.17248022464e-08
7.31303987248e-05
1.85894120183e-08
7.3138154025e-05
1.01903049219e-08
7.3141775043e-05
4.97955250538e-09
7.31429633203e-05
1.87438420364e-09
7.31428175032e-05
1.28963647798e-10
7.3141994819e-05
-7.74863833725e-10
7.31409124468e-05
-1.15831260208e-09
7.31397981004e-05
-1.24405320819e-09
7.31387711819e-05
-1.17047368972e-09
7.3137884135e-05
-1.0222304605e-09
7.31371508754e-05
-8.49648602362e-10
7.31365640091e-05
-6.80003504105e-10
7.3136106157e-05
-5.2702072819e-10
7.31357564522e-05
-3.9615548706e-10
7.31354942809e-05
-2.88034004993e-10
7.31353013069e-05
-2.00596160425e-10
7.31351618999e-05
-1.30865575667e-10
7.31350628241e-05
-7.55863804235e-11
7.31349915883e-05
-3.1289415819e-11
7.31349387007e-05
5.73512151968e-12
7.3134909282e-05
3.17278119886e-11
7.31348865225e-05
5.41485420468e-11
7.31348700267e-05
7.3924628888e-11
7.31348579555e-05
9.18351156421e-11
7.31348485084e-05
1.08541796302e-10
7.31348404181e-05
1.2474599007e-10
7.31348328135e-05
1.40804358793e-10
7.31348250895e-05
1.56752557324e-10
7.31348168368e-05
1.72360441387e-10
7.31348077927e-05
1.87058365505e-10
7.31347979211e-05
1.99961548748e-10
7.3134787309e-05
2.10056594712e-10
7.31347760817e-05
2.15585698618e-10
7.31347642418e-05
2.13909524026e-10
7.31347522789e-05
2.02013888584e-10
7.31347407306e-05
1.7559744508e-10
7.31347310041e-05
1.30645572842e-10
7.31347143201e-05
6.60509681517e-11
7.31346925164e-05
-6.73464830149e-11
7.31346522681e-05
-3.3259412513e-10
7.31345875907e-05
-7.03200072927e-10
7.31344749342e-05
-1.23412694472e-09
7.31342712039e-05
-1.992392334e-09
7.31339084736e-05
-3.06939796415e-09
7.31332718801e-05
-4.599236915e-09
7.31321687104e-05
-6.77709327109e-09
7.31302774562e-05
-9.88489017738e-09
7.31270706642e-05
-1.43412391525e-08
7.31216938161e-05
-2.07743991242e-08
7.31127353286e-05
-3.00714485685e-08
7.30978915836e-05
-4.35576918526e-08
7.30734557846e-05
-6.32471240093e-08
7.30335331532e-05
-9.22092540088e-08
7.29686147293e-05
-1.3452919144e-07
7.28636889234e-05
-1.96021971671e-07
7.26955985855e-05
-2.84428869314e-07
7.24298578487e-05
-4.09035610013e-07
7.20181270381e-05
-5.7892302544e-07
7.139924169e-05
-7.98724965436e-07
7.05076972339e-05
-1.06280239278e-06
-1.34607740769e-06
6.92989298093e-05
5.07871726238e-05
5.46573525529e-11
5.29516499096e-05
5.29202601475e-11
5.59606885606e-05
2.87578904601e-11
5.92633220559e-05
1.41498608089e-11
6.24488086384e-05
2.73357149537e-12
6.52735491961e-05
-6.10767051071e-12
6.76333287342e-05
-1.1979297546e-11
6.95186643229e-05
-1.489964772e-11
7.09734480852e-05
-1.53160191101e-11
7.20647930182e-05
-1.38281449231e-11
7.28642635717e-05
-1.10674061354e-11
7.34378150055e-05
-7.68435517207e-12
7.3841470145e-05
-4.33371333953e-12
7.41203567393e-05
-1.65404215105e-12
7.43094768452e-05
-2.33761911112e-13
7.44352053552e-05
-4.49422190805e-13
7.45169565404e-05
-2.57749447528e-12
7.45687376418e-05
-6.36735158895e-12
7.46004741678e-05
-1.11869189966e-11
7.46190801976e-05
-1.60617231019e-11
7.46292909336e-05
-1.98673644329e-11
7.46342925567e-05
-2.15112862075e-11
7.46361880187e-05
-2.05266102131e-11
7.46363357158e-05
-1.81940909715e-11
7.463557706e-05
-1.56807699909e-11
7.46344318292e-05
-1.25602387156e-11
7.46331972824e-05
-8.99876899613e-12
7.46320323667e-05
-5.05941541644e-12
7.46310108848e-05
-2.55518088366e-13
7.46301579037e-05
3.78973950358e-12
7.46294699153e-05
8.42097227147e-12
7.46289299258e-05
1.33767707573e-11
7.4628515543e-05
1.86169503349e-11
7.46282036909e-05
2.41972403652e-11
7.46279731613e-05
3.02974010205e-11
7.46278056127e-05
3.70373339972e-11
7.46276858788e-05
4.44981426637e-11
7.46276022702e-05
5.26523537085e-11
7.46275467812e-05
6.15253862085e-11
7.46275080392e-05
7.07542498309e-11
7.46274821779e-05
8.02938969142e-11
7.46274653171e-05
9.10384419976e-11
7.46274544818e-05
1.0289449326e-10
7.46274474421e-05
1.15781387579e-10
7.46274426612e-05
1.29704048178e-10
7.4627439067e-05
1.44548423763e-10
7.46274359278e-05
1.60050191609e-10
7.4627432713e-05
1.75749430606e-10
7.46274289986e-05
1.90946279763e-10
7.46274244511e-05
2.04700172026e-10
7.46274189251e-05
2.15834737423e-10
7.46274121613e-05
2.22627644816e-10
7.46274038425e-05
2.22483463139e-10
7.4627393129e-05
2.12667687811e-10
7.46273791728e-05
1.8987217971e-10
7.46273599651e-05
1.49948940356e-10
7.46273349091e-05
9.13034642503e-11
7.46272897991e-05
-2.18772052324e-11
7.46272024818e-05
-2.45142654293e-10
7.46270676562e-05
-5.68303154064e-10
7.46268458388e-05
-1.01204001648e-09
7.462647623e-05
-1.62262049582e-09
7.46258626949e-05
-2.45571503612e-09
7.46248486686e-05
-3.5850018599e-09
7.46231792671e-05
-5.10743790638e-09
7.46204382124e-05
-7.1436024706e-09
7.46159584933e-05
-9.8612951606e-09
7.46086831215e-05
-1.34987731506e-08
7.45968772465e-05
-1.82652715436e-08
7.45777416472e-05
-2.44217993024e-08
7.45468580318e-05
-3.23632521489e-08
7.44975019093e-05
-4.2852889165e-08
7.44189440031e-05
-5.59710459959e-08
7.42947954445e-05
-7.1873191196e-08
7.41006917712e-05
-9.03250020824e-08
7.38018377638e-05
-1.10181278866e-07
7.33516032916e-05
-1.28688298199e-07
7.26935597618e-05
-1.40681129503e-07
7.17697352451e-05
-1.38977526081e-07
-1.15094790537e-07
7.05387529366e-05
5.07871715932e-05
-7.87116930465e-07
5.29516490641e-05