/*--------------------------------*- C++ -*----------------------------------*\
| =========                 |                                                 |
| \\      /  F ield         | OpenFOAM: The Open Source CFD Toolbox           |
|  \\    /   O peration     | Version:  2106                                  |
|   \\  /    A nd           | Website:  www.openfoam.com                      |
|    \\/     M anipulation  |                                                 |
\*---------------------------------------------------------------------------*/
FoamFile
{
    version     2.0;
    format      ascii;
    arch        "LSB;label=32;scalar=64";
    class       volVectorField;
    location    "0.17";
    object      U;
}
// * * * * * * * * * * * * * * * * * * * * * * * * * * * * * * * * * * * * * //

dimensions      [0 1 -1 0 0 0 0];

internalField   nonuniform List<vector> 
9600
(
(0.675396183815 0.157677434075 0)
(0.563826161005 0.10243080423 0)
(0.381538933395 0.0510646939013 0)
(0.283853196568 0.0244589888028 0)
(0.232281041585 0.0119348217791 0)
(0.201907725549 0.00623035727463 0)
(0.183178427933 0.00352192618893 0)
(0.171272011616 0.0021200753293 0)
(0.163512269743 0.00132523564585 0)
(0.158392690345 0.000841456618529 0)
(0.155010727379 0.000534136216107 0)
(0.152790007494 0.000335040115029 0)
(0.151348717303 0.000205521468991 0)
(0.150429267175 0.000121792155712 0)
(0.149856477829 6.84336085236e-05 0)
(0.14951114084 3.51725139326e-05 0)
(0.149312531849 1.50859557975e-05 0)
(0.149206482953 3.50336304096e-06 0)
(0.149157104163 -2.70730311889e-06 0)
(0.149140995822 -5.61172772694e-06 0)
(0.149143279926 -6.5270909265e-06 0)
(0.149154677541 -6.41792925341e-06 0)
(0.149169617758 -5.78229711084e-06 0)
(0.149184990571 -4.92872884222e-06 0)
(0.149199163699 -4.04359259592e-06 0)
(0.149211415656 -3.22491808634e-06 0)
(0.149221557637 -2.51600460216e-06 0)
(0.149229690702 -1.92947483991e-06 0)
(0.149236051418 -1.45979614236e-06 0)
(0.149240923307 -1.09274606586e-06 0)
(0.149244589954 -8.12697445638e-07 0)
(0.149247306034 -6.03434396558e-07 0)
(0.149249287432 -4.49239420099e-07 0)
(0.149250713841 -3.37714973792e-07 0)
(0.149251727716 -2.58225417531e-07 0)
(0.149252437939 -2.0137729932e-07 0)
(0.149252929558 -1.61186122397e-07 0)
(0.1492532658 -1.33046360457e-07 0)
(0.149253491049 -1.12270498361e-07 0)
(0.149253639748 -9.64872946916e-08 0)
(0.149253737291 -8.4578228656e-08 0)
(0.149253799243 -7.54549523789e-08 0)
(0.149253837335 -7.05449616566e-08 0)
(0.149253859651 -7.11246718169e-08 0)
(0.149253869874 -7.40627384165e-08 0)
(0.149253872374 -7.81517099342e-08 0)
(0.149253871659 -8.40038388582e-08 0)
(0.149253868718 -9.13465533526e-08 0)
(0.149253864469 -9.93970750281e-08 0)
(0.149253860884 -1.08465057021e-07 0)
(0.149253857058 -1.18145069703e-07 0)
(0.149253852322 -1.28077401063e-07 0)
(0.1492538485 -1.39035833306e-07 0)
(0.149253845473 -1.50649226544e-07 0)
(0.149253842568 -1.62211647039e-07 0)
(0.149253841087 -1.7449613225e-07 0)
(0.149253840238 -1.87718827203e-07 0)
(0.149253838255 -2.01465003872e-07 0)
(0.149253836068 -2.16362520277e-07 0)
(0.14925383377 -2.32665694339e-07 0)
(0.149253830308 -2.49869366828e-07 0)
(0.149253826837 -2.68276955069e-07 0)
(0.149253824099 -2.87847554828e-07 0)
(0.149253821345 -3.08089289442e-07 0)
(0.149253818818 -3.29574609412e-07 0)
(0.149253815963 -3.52757285343e-07 0)
(0.149253811439 -3.77306774501e-07 0)
(0.149253806031 -4.03543557874e-07 0)
(0.149253800433 -4.31676858437e-07 0)
(0.149253794081 -4.61185817959e-07 0)
(0.14925378794 -4.92204739369e-07 0)
(0.149253782795 -5.2495397932e-07 0)
(0.149253777458 -5.59094527682e-07 0)
(0.149253771472 -5.95107127579e-07 0)
(0.14925376488 -6.33696228681e-07 0)
(0.149253757059 -6.74578104773e-07 0)
(0.149253748632 -7.1750783748e-07 0)
(0.149253740634 -7.62535063538e-07 0)
(0.149253733065 -8.09596379383e-07 0)
(0.149253726303 -8.58982351367e-07 0)
(0.149253720248 -9.10759899505e-07 0)
(0.149253714006 -9.64703761766e-07 0)
(0.149253708235 -1.0214860067e-06 0)
(0.149253703236 -1.08135809704e-06 0)
(0.149253697724 -1.14332620996e-06 0)
(0.149253692336 -1.2074241828e-06 0)
(0.149253687814 -1.27437740167e-06 0)
(0.149253682582 -1.3442113436e-06 0)
(0.149253676859 -1.41750257617e-06 0)
(0.149253671791 -1.49422192742e-06 0)
(0.149253666643 -1.57294913749e-06 0)
(0.149253662198 -1.65401237879e-06 0)
(0.149253659292 -1.73856785222e-06 0)
(0.149253656532 -1.82608366719e-06 0)
(0.149253655133 -1.91662174115e-06 0)
(0.149253656748 -2.01067966043e-06 0)
(0.149253659114 -2.10715645292e-06 0)
(0.149253662125 -2.20583216088e-06 0)
(0.14925366787 -2.30719353701e-06 0)
(0.149253675608 -2.40987049389e-06 0)
(0.149253687129 -2.51368228139e-06 0)
(0.149253706855 -2.62062013939e-06 0)
(0.149253734327 -2.73019658993e-06 0)
(0.149253769577 -2.84138920728e-06 0)
(0.14925381673 -2.95487547076e-06 0)
(0.149253876945 -3.06976550356e-06 0)
(0.149253952779 -3.18602629059e-06 0)
(0.149254051287 -3.30623399619e-06 0)
(0.149254175253 -3.43099725599e-06 0)
(0.149254328108 -3.56313966608e-06 0)
(0.149254521856 -3.71253659187e-06 0)
(0.149254765589 -3.87620142915e-06 0)
(0.149255066968 -4.04927466768e-06 0)
(0.149255442643 -4.23237577192e-06 0)
(0.14925590936 -4.42572121714e-06 0)
(0.149256485307 -4.62867515856e-06 0)
(0.149257200919 -4.8443145629e-06 0)
(0.149258090815 -5.07460921998e-06 0)
(0.149259192773 -5.31916352531e-06 0)
(0.149260558829 -5.58061192226e-06 0)
(0.149262251088 -5.86228654656e-06 0)
(0.149264344258 -6.16781510159e-06 0)
(0.149266942495 -6.50807104009e-06 0)
(0.149270186784 -6.91516737731e-06 0)
(0.149274226614 -7.47468370805e-06 0)
(0.149279208514 -8.23621187376e-06 0)
(0.149285345926 -9.14579870821e-06 0)
(0.149292932938 -1.01773488746e-05 0)
(0.1493023269 -1.1331847402e-05 0)
(0.149313966399 -1.26266579042e-05 0)
(0.149328382793 -1.40837737285e-05 0)
(0.149346236331 -1.5730951303e-05 0)
(0.149368350693 -1.76045118661e-05 0)
(0.149395742404 -1.97466368434e-05 0)
(0.149429675488 -2.2211473722e-05 0)
(0.149471720986 -2.50679625893e-05 0)
(0.149523825666 -2.84000448665e-05 0)
(0.149588415289 -3.231902643e-05 0)
(0.149668508376 -3.69684074831e-05 0)
(0.149767857659 -4.25234513824e-05 0)
(0.149891149861 -4.92051896143e-05 0)
(0.150044249514 -5.72989242265e-05 0)
(0.150234500983 -6.71688215933e-05 0)
(0.150471132066 -7.92797053057e-05 0)
(0.150765787884 -9.4232566815e-05 0)
(0.151133216176 -0.000112803820093 0)
(0.151592197885 -0.000136004316981 0)
(0.15216682346 -0.000165165210757 0)
(0.152888230922 -0.000202043164217 0)
(0.153797085548 -0.000248973941847 0)
(0.154947210319 -0.000309111709942 0)
(0.156411138776 -0.000386870599826 0)
(0.158289466335 -0.000489141417594 0)
(0.160729521928 -0.000629735566516 0)
(0.163969663526 -0.00084660605334 0)
(0.168450389902 -0.00126561745687 0)
(0.175156362592 -0.00233415576076 0)
(0.187019197267 -0.00572518266358 0)
(0.213017201452 -0.0178362117273 0)
(0.270501262368 -0.0626439544305 0)
(0.977201173884 0.296997121099 0)
(0.962687465835 0.250387267818 0)
(0.820646036277 0.158581012552 0)
(0.697824902965 0.0957993473113 0)
(0.610491679689 0.0579132751672 0)
(0.549133331756 0.0359038508463 0)
(0.506706007377 0.0229309359709 0)
(0.477662045989 0.0149788794538 0)
(0.457815328857 0.00990973238515 0)
(0.444277707089 0.00658331003012 0)
(0.435087257592 0.00436198808735 0)
(0.428895584989 0.0028668276841 0)
(0.424768064345 0.00185972067811 0)
(0.422054252375 0.00118457150966 0)
(0.420301068528 0.000736109066355 0)
(0.419193695445 0.000442156834121 0)
(0.418514627539 0.000252857388245 0)
(0.418114853188 0.000133737103601 0)
(0.417893397482 6.10503945116e-05 0)
(0.417782757632 1.857566803e-05 0)
(0.417738502107 -4.63610629742e-06 0)
(0.417731967508 -1.60124367595e-05 0)
(0.417745187549 -2.03100788072e-05 0)
(0.417767215746 -2.06138963857e-05 0)
(0.417791672184 -1.886185092e-05 0)
(0.417815096403 -1.62286706186e-05 0)
(0.417835827113 -1.33917875219e-05 0)
(0.417853272663 -1.07151933099e-05 0)
(0.417867437707 -8.36831087278e-06 0)
(0.417878626421 -6.40495141473e-06 0)
(0.417887270315 -4.81862206107e-06 0)
(0.417893824932 -3.57154133517e-06 0)
(0.417898712726 -2.61094708135e-06 0)
(0.417902303934 -1.8844151544e-06 0)
(0.417904907786 -1.34414062228e-06 0)
(0.417906769995 -9.46668683244e-07 0)
(0.41790808464 -6.57987403461e-07 0)
(0.417909002377 -4.52032620015e-07 0)
(0.417909633655 -3.05856993293e-07 0)
(0.417910061059 -2.02907956585e-07 0)
(0.417910346963 -1.32563439242e-07 0)
(0.417910532906 -8.50573711308e-08 0)
(0.417910648472 -5.43184024839e-08 0)
(0.417910718726 -3.76519946254e-08 0)
(0.417910759054 -2.91607852093e-08 0)
(0.417910778016 -2.45712714974e-08 0)
(0.417910784189 -2.30166593603e-08 0)
(0.417910783033 -2.20355202769e-08 0)
(0.417910777132 -2.01897221264e-08 0)
(0.417910769624 -1.94127723925e-08 0)
(0.417910761313 -2.01927958907e-08 0)
(0.417910751203 -2.09858221257e-08 0)
(0.41791074138 -2.27318481332e-08 0)
(0.417910733088 -2.53405345104e-08 0)
(0.417910724692 -2.71377442919e-08 0)
(0.41791071668 -2.90990091808e-08 0)
(0.417910709394 -3.19860709397e-08 0)
(0.417910700865 -3.457172602e-08 0)
(0.417910691407 -3.7400824045e-08 0)
(0.417910682003 -4.12681215914e-08 0)
(0.417910671544 -4.49468240443e-08 0)
(0.417910660647 -4.84611454485e-08 0)
(0.417910650586 -5.21435481807e-08 0)
(0.41791064012 -5.51775948998e-08 0)
(0.417910628704 -5.82807580542e-08 0)
(0.417910616567 -6.23477913525e-08 0)
(0.417910602591 -6.63872731718e-08 0)
(0.41791058713 -7.03973947772e-08 0)
(0.417910571466 -7.50732835647e-08 0)
(0.417910554994 -7.96547083155e-08 0)
(0.417910537961 -8.41097602378e-08 0)
(0.417910521464 -8.91376954483e-08 0)
(0.417910504156 -9.40634302369e-08 0)
(0.417910484905 -9.89084705749e-08 0)
(0.417910464563 -1.04814179744e-07 0)
(0.417910443316 -1.11535742627e-07 0)
(0.417910421374 -1.1852236681e-07 0)
(0.417910399492 -1.25678777464e-07 0)
(0.417910377432 -1.32396245046e-07 0)
(0.417910355457 -1.38923788455e-07 0)
(0.417910333983 -1.45912108122e-07 0)
(0.41791031179 -1.52909365242e-07 0)
(0.417910289164 -1.60583039156e-07 0)
(0.417910267643 -1.69811402677e-07 0)
(0.417910246192 -1.78893463737e-07 0)
(0.417910224363 -1.87124358788e-07 0)
(0.417910203222 -1.95917577369e-07 0)
(0.417910181395 -2.05346441872e-07 0)
(0.417910158935 -2.1584173251e-07 0)
(0.417910138401 -2.28018701058e-07 0)
(0.417910118997 -2.40004568604e-07 0)
(0.417910100074 -2.5178540325e-07 0)
(0.417910083749 -2.65483207345e-07 0)
(0.417910069714 -2.80128750363e-07 0)
(0.41791005837 -2.95250157533e-07 0)
(0.41791005264 -3.12738515299e-07 0)
(0.417910051522 -3.31656577396e-07 0)
(0.417910054428 -3.51795712972e-07 0)
(0.417910065478 -3.7617088552e-07 0)
(0.417910085983 -4.04866321504e-07 0)
(0.417910116366 -4.35539162647e-07 0)
(0.417910162762 -4.7097320095e-07 0)
(0.417910229383 -5.11658720672e-07 0)
(0.41791031808 -5.56184641031e-07 0)
(0.417910436187 -6.06702660829e-07 0)
(0.41791058975 -6.63230098414e-07 0)
(0.417910783708 -7.24834258345e-07 0)
(0.417911030694 -7.95338116464e-07 0)
(0.417911340946 -8.74642128973e-07 0)
(0.417911719663 -9.56119041625e-07 0)
(0.417912196193 -1.03436140963e-06 0)
(0.417912806771 -1.11841985664e-06 0)
(0.417913574462 -1.21305989274e-06 0)
(0.417914534073 -1.32546025508e-06 0)
(0.417915731071 -1.46223043937e-06 0)
(0.417917216001 -1.62579199587e-06 0)
(0.417919060102 -1.82548590764e-06 0)
(0.417921354018 -2.07349834415e-06 0)
(0.417924200699 -2.37931387672e-06 0)
(0.417927730086 -2.75932735587e-06 0)
(0.417932104333 -3.2343008625e-06 0)
(0.417937518977 -3.82557163671e-06 0)
(0.417944217727 -4.56713476822e-06 0)
(0.417952490195 -5.51546748688e-06 0)
(0.41796271029 -6.77295671308e-06 0)
(0.417975399482 -8.4358527679e-06 0)
(0.41799117999 -1.05434186146e-05 0)
(0.418010763832 -1.31636271202e-05 0)
(0.418035040879 -1.64026671508e-05 0)
(0.418065129155 -2.04085382489e-05 0)
(0.41810241144 -2.53613444077e-05 0)
(0.418148600182 -3.14823007875e-05 0)
(0.41820582602 -3.90495091322e-05 0)
(0.418276727272 -4.8402336312e-05 0)
(0.418364576325 -5.996282633e-05 0)
(0.418473439766 -7.42583986789e-05 0)
(0.418608360399 -9.19385369042e-05 0)
(0.418775607392 -0.000113819072499 0)
(0.418982989957 -0.000140927915515 0)
(0.4192402318 -0.000174546716991 0)
(0.419559460616 -0.000216284905524 0)
(0.419955839821 -0.000268182468711 0)
(0.420448366785 -0.000332830957057 0)
(0.421060908101 -0.000413535903645 0)
(0.42182357018 -0.000514556601269 0)
(0.422774493161 -0.000641420641272 0)
(0.423962265666 -0.000801372355953 0)
(0.42544926559 -0.00100405112257 0)
(0.427316322501 -0.00126248931476 0)
(0.429669475089 -0.00159469997632 0)
(0.432650204026 -0.00202640043646 0)
(0.436451703093 -0.00259609754763 0)
(0.441346434713 -0.0033658082565 0)
(0.447736723149 -0.00444678331475 0)
(0.45625453258 -0.00606779665602 0)
(0.467952696907 -0.00876392034739 0)
(0.484663992682 -0.013901141998 0)
(0.509915842908 -0.0251936015745 0)
(0.550612372629 -0.0530579389027 0)
(0.611380781871 -0.123004874308 0)
(1.03387038785 0.23924096486 0)
(1.08314081991 0.293634379495 0)
(1.03294438116 0.239131935139 0)
(0.954408214873 0.174539020431 0)
(0.880112595708 0.121551464356 0)
(0.818677631001 0.0832335945026 0)
(0.771466812362 0.0568258129061 0)
(0.7366915955 0.0388125740307 0)
(0.711672125472 0.026491319019 0)
(0.693953155163 0.018023577028 0)
(0.681568228253 0.0121876202324 0)
(0.673018625354 0.00816650287376 0)
(0.667192254088 0.00540556424293 0)
(0.663277769136 0.00352226010845 0)
(0.66069032951 0.00224960898394 0)
(0.659012754962 0.00140002485335 0)
(0.65795054883 0.000841452713643 0)
(0.657298096989 0.000481120242997 0)
(0.656913555831 0.000254191432142 0)
(0.656700368842 0.000115707227373 0)
(0.656593764384 3.47918219118e-05 0)
(0.65655105472 -9.47139569426e-06 0)
(0.656544717568 -3.10185143218e-05 0)
(0.656557422578 -3.90851142102e-05 0)
(0.656578615396 -3.9560300836e-05 0)
(0.65660215206 -3.61363449228e-05 0)
(0.656624697391 -3.10501670098e-05 0)
(0.656644652816 -2.55914908772e-05 0)
(0.656661449003 -2.0450112296e-05 0)
(0.656675087496 -1.594491692e-05 0)
(0.656685861762 -1.21791016003e-05 0)
(0.656694188244 -9.13812471247e-06 0)
(0.656700503131 -6.74552873669e-06 0)
(0.656705213881 -4.90223949634e-06 0)
(0.656708677878 -3.50912115547e-06 0)
(0.656711189727 -2.47283880408e-06 0)
(0.656712986098 -1.71274901941e-06 0)
(0.656714255623 -1.16478379343e-06 0)
(0.656715141073 -7.75676818087e-07 0)
(0.656715748833 -5.02632022973e-07 0)
(0.656716160995 -3.15416994056e-07 0)
(0.656716436213 -1.89759859302e-07 0)
(0.656716614515 -1.05430974056e-07 0)
(0.656716727244 -5.01592495955e-08 0)
(0.656716796247 -1.56159382005e-08 0)
(0.656716834587 6.35097875881e-09 0)
(0.656716854081 1.9856147795e-08 0)
(0.656716862374 2.79209978462e-08 0)
(0.656716861139 3.37032616602e-08 0)
(0.65671685364 3.76414349077e-08 0)
(0.656716843856 4.01214584963e-08 0)
(0.656716832117 4.3063826566e-08 0)
(0.65671681969 4.6496540302e-08 0)
(0.656716808782 4.93304187673e-08 0)
(0.656716797967 5.28043797186e-08 0)
(0.656716786663 5.69767115329e-08 0)
(0.656716776092 6.04596984568e-08 0)
(0.65671676495 6.42853765043e-08 0)
(0.656716752544 6.90127575096e-08 0)
(0.656716740227 7.36552496668e-08 0)
(0.656716727464 7.89556812222e-08 0)
(0.656716713974 8.55409843673e-08 0)
(0.656716700927 9.23477981603e-08 0)
(0.65671668725 9.95235380854e-08 0)
(0.656716671982 1.07162000037e-07 0)
(0.65671665607 1.14403790974e-07 0)
(0.656716638893 1.22250460499e-07 0)
(0.656716619799 1.31613633551e-07 0)
(0.656716600009 1.41374108969e-07 0)
(0.656716579464 1.51454807742e-07 0)
(0.656716557768 1.62375184905e-07 0)
(0.656716536058 1.73391767493e-07 0)
(0.656716513809 1.84747375818e-07 0)
(0.656716489489 1.97328754251e-07 0)
(0.656716463613 2.10580259175e-07 0)
(0.656716436789 2.24252227812e-07 0)
(0.656716409182 2.38747443194e-07 0)
(0.656716381727 2.54048266668e-07 0)
(0.656716354287 2.7081549413e-07 0)
(0.65671632635 2.89210165846e-07 0)
(0.656716298357 3.081072239e-07 0)
(0.656716269458 3.27849630713e-07 0)
(0.656716239383 3.48903241461e-07 0)
(0.656716210339 3.6999284908e-07 0)
(0.656716182342 3.91756210882e-07 0)
(0.656716153974 4.15634185207e-07 0)
(0.656716126033 4.40439718022e-07 0)
(0.656716097945 4.66079702909e-07 0)
(0.65671606902 4.93543176339e-07 0)
(0.656716041772 5.21543738616e-07 0)
(0.656716016394 5.50111708048e-07 0)
(0.656715991727 5.80262845037e-07 0)
(0.656715970442 6.10485166835e-07 0)
(0.656715953474 6.41190174601e-07 0)
(0.656715939651 6.74014133768e-07 0)
(0.65671593155 7.06782125044e-07 0)
(0.65671593008 7.38992274137e-07 0)
(0.656715933644 7.72653552849e-07 0)
(0.656715945649 8.0642443511e-07 0)
(0.656715971925 8.41517541963e-07 0)
(0.656716014631 8.79313286991e-07 0)
(0.656716078675 9.17599424806e-07 0)
(0.656716170786 9.53117274813e-07 0)
(0.656716294816 9.86202536321e-07 0)
(0.65671645969 1.01407577258e-06 0)
(0.65671667608 1.03307321481e-06 0)
(0.656716952409 1.04344777488e-06 0)
(0.656717306127 1.04118669995e-06 0)
(0.656717761701 1.02102567147e-06 0)
(0.656718342998 9.85764074937e-07 0)
(0.656719071451 9.39523962223e-07 0)
(0.656719974591 8.67058948071e-07 0)
(0.656721093665 7.57520448878e-07 0)
(0.656722483392 5.98783421804e-07 0)
(0.656724213034 3.72361432122e-07 0)
(0.656726359015 6.27325387243e-08 0)
(0.656729018742 -3.50677605156e-07 0)
(0.656732319396 -8.99326927569e-07 0)
(0.656736410531 -1.61805498858e-06 0)
(0.65674147758 -2.55067085777e-06 0)
(0.656747755511 -3.75345826258e-06 0)
(0.656755530575 -5.29010552835e-06 0)
(0.6567651615 -7.24321005582e-06 0)
(0.656777093684 -9.71848182408e-06 0)
(0.656791864409 -1.28269448598e-05 0)
(0.6568101441 -1.67211908844e-05 0)
(0.656832777775 -2.16298434444e-05 0)
(0.656860806945 -2.78176439969e-05 0)
(0.656895516113 -3.56005795551e-05 0)
(0.656938503069 -4.53749331707e-05 0)
(0.656991745436 -5.76307381788e-05 0)
(0.657057688099 -7.29708630287e-05 0)
(0.657139368443 -9.21480144082e-05 0)
(0.657240550395 -0.000116095167142 0)
(0.657365899564 -0.000145968644344 0)
(0.657521213504 -0.000183211747086 0)
(0.657713683991 -0.000229616372032 0)
(0.657952241588 -0.000287412517807 0)
(0.658248002638 -0.000359392955356 0)
(0.658614806491 -0.000449056607743 0)
(0.659069898066 -0.000560797537017 0)
(0.659634812691 -0.000700162425082 0)
(0.660336501454 -0.000874184856548 0)
(0.661208768929 -0.00109182890081 0)
(0.662294165721 -0.00136461483845 0)
(0.663646475044 -0.00170747836712 0)
(0.665334014598 -0.00213998277877 0)
(0.667444156576 -0.00268813464457 0)
(0.670089597828 -0.00338713659094 0)
(0.673417294774 -0.00428576180881 0)
(0.677621665446 -0.00545377262205 0)
(0.682964798047 -0.00699532926347 0)
(0.689808438366 -0.00907506299119 0)
(0.698666235274 -0.0119723164188 0)
(0.710290296671 -0.0162004391552 0)
(0.725799584547 -0.0227753726623 0)
(0.74681039684 -0.0337997465829 0)
(0.775519120339 -0.0536586951805 0)
(0.814238138714 -0.0912941157662 0)
(0.859186001248 -0.16195030848 0)
(1.03384128293 0.171306950111 0)
(1.10231585114 0.275556746562 0)
(1.1166362134 0.266312374394 0)
(1.09207925441 0.219892605232 0)
(1.05195420985 0.168210318393 0)
(1.0102222291 0.123615338397 0)
(0.973507737342 0.08888506117 0)
(0.943885969546 0.0630494633937 0)
(0.921162824662 0.0442607995383 0)
(0.904299850596 0.0307744353157 0)
(0.892086164292 0.0211830151933 0)
(0.883411262254 0.0144172977486 0)
(0.877355089922 0.00968544022568 0)
(0.873196242525 0.00640758451308 0)
(0.870388090327 0.00416172049451 0)
(0.86852628551 0.00264231826067 0)
(0.867317330425 0.00162947292142 0)
(0.866551619788 0.000966019850541 0)
(0.866081695831 0.000540566615175 0)
(0.865805342705 0.000274918343713 0)
(0.865652772181 0.000114780091099 0)
(0.865577143486 2.29415771244e-05 0)
(0.86554753628 -2.57440866775e-05 0)
(0.865544006025 -4.80691338002e-05 0)
(0.865554062939 -5.49537583962e-05 0)
(0.865570079014 -5.33606218069e-05 0)
(0.865587632122 -4.76129496754e-05 0)
(0.865604339475 -4.02899213688e-05 0)
(0.865619073155 -3.28473821469e-05 0)
(0.865631442349 -2.60340008928e-05 0)
(0.865641466738 -2.01701819802e-05 0)
(0.865649376065 -1.53321406528e-05 0)
(0.865655481891 -1.14626740097e-05 0)
(0.865660107629 -8.44180867211e-06 0)
(0.86566355665 -6.13206717296e-06 0)
(0.865666091159 -4.39744296329e-06 0)
(0.865667926687 -3.11403736465e-06 0)
(0.865669239381 -2.17905415406e-06 0)
(0.865670166986 -1.50807109803e-06 0)
(0.865670812425 -1.03157766889e-06 0)
(0.865671255585 -6.9775156903e-07 0)
(0.865671556191 -4.68041013029e-07 0)
(0.865671754726 -3.11366619493e-07 0)
(0.865671881984 -2.06164923912e-07 0)
(0.865671961408 -1.37844663209e-07 0)
(0.865672006957 -9.36261121967e-08 0)
(0.865672029565 -6.54204119412e-08 0)
(0.865672038673 -4.95311117169e-08 0)
(0.865672038359 -4.09316710497e-08 0)
(0.865672031998 -3.62910524933e-08 0)
(0.865672023262 -3.49260000059e-08 0)
(0.86567201205 -3.54661475562e-08 0)
(0.865671998764 -3.6887644026e-08 0)
(0.865671985952 -4.01175462047e-08 0)
(0.865671973165 -4.45945029314e-08 0)
(0.86567195907 -4.95275892968e-08 0)
(0.865671944978 -5.59561723183e-08 0)
(0.865671930634 -6.31651775295e-08 0)
(0.865671914806 -6.98257903097e-08 0)
(0.865671898537 -7.6493518782e-08 0)
(0.865671881942 -8.29717942249e-08 0)
(0.865671864177 -8.85257910377e-08 0)
(0.865671845993 -9.45288064907e-08 0)
(0.865671826995 -1.01644412434e-07 0)
(0.865671805999 -1.09224430734e-07 0)
(0.865671784065 -1.17554089088e-07 0)
(0.865671761342 -1.26057062397e-07 0)
(0.865671736375 -1.33648492381e-07 0)
(0.865671709745 -1.41422352295e-07 0)
(0.865671682256 -1.50200079809e-07 0)
(0.865671653533 -1.59280764407e-07 0)
(0.86567162426 -1.69059931321e-07 0)
(0.865671594359 -1.80006895307e-07 0)
(0.865671562334 -1.91277180212e-07 0)
(0.865671528349 -2.02781922204e-07 0)
(0.86567149316 -2.14706854775e-07 0)
(0.865671456827 -2.26625391177e-07 0)
(0.865671420266 -2.38744701072e-07 0)
(0.865671383568 -2.5107091463e-07 0)
(0.865671345725 -2.63440492678e-07 0)
(0.865671307306 -2.76985149614e-07 0)
(0.865671268317 -2.9184145394e-07 0)
(0.86567122782 -3.06891762509e-07 0)
(0.865671187584 -3.22918191636e-07 0)
(0.865671148703 -3.4047764289e-07 0)
(0.865671109519 -3.58603540481e-07 0)
(0.865671070513 -3.78150689229e-07 0)
(0.865671032226 -3.99589307634e-07 0)
(0.865670993239 -4.2156789726e-07 0)
(0.865670955042 -4.45166172628e-07 0)
(0.865670919096 -4.71629931213e-07 0)
(0.865670884323 -4.99932544473e-07 0)
(0.865670853031 -5.31162077521e-07 0)
(0.865670827618 -5.66637145709e-07 0)
(0.865670806376 -6.05193037598e-07 0)
(0.865670790965 -6.48106893501e-07 0)
(0.865670784817 -6.96965032188e-07 0)
(0.865670787901 -7.49833554308e-07 0)
(0.865670804955 -8.07144981974e-07 0)
(0.865670841099 -8.69908561299e-07 0)
(0.8656708957 -9.3843536432e-07 0)
(0.865670973287 -1.01387413288e-06 0)
(0.865671082981 -1.10022627026e-06 0)
(0.865671230712 -1.19842094464e-06 0)
(0.86567142508 -1.31157727521e-06 0)
(0.865671679671 -1.44647365752e-06 0)
(0.865672005305 -1.60557470678e-06 0)
(0.865672418366 -1.79375078178e-06 0)
(0.865672944668 -2.0224889246e-06 0)
(0.865673608716 -2.30296126388e-06 0)
(0.865674439797 -2.65285678726e-06 0)
(0.865675481512 -3.08628611181e-06 0)
(0.865676783161 -3.61571161093e-06 0)
(0.865678402832 -4.25902083512e-06 0)
(0.865680419068 -5.04767113563e-06 0)
(0.865682924163 -6.01671728928e-06 0)
(0.865686030424 -7.20568452823e-06 0)
(0.865689884278 -8.66946101673e-06 0)
(0.865694662315 -1.04736426806e-05 0)
(0.865700580875 -1.26970434727e-05 0)
(0.86570791509 -1.54419659086e-05 0)
(0.865717001379 -1.88314600324e-05 0)
(0.865728254199 -2.30193089894e-05 0)
(0.865742193696 -2.82087212029e-05 0)
(0.865759457696 -3.46455976215e-05 0)
(0.865780829717 -4.26199305521e-05 0)
(0.865807289535 -5.24948509022e-05 0)
(0.865840053139 -6.4721394989e-05 0)
(0.865880618976 -7.98547790991e-05 0)
(0.865930847442 -9.85905382597e-05 0)
(0.865993046609 -0.000121796475317 0)
(0.866070069728 -0.000150544376765 0)
(0.866165456487 -0.000186169849762 0)
(0.866283595695 -0.000230333749445 0)
(0.866429924294 -0.000285094209611 0)
(0.866611193207 -0.000353019157456 0)
(0.866835779192 -0.000437309063034 0)
(0.867114075863 -0.000541947153155 0)
(0.867459004293 -0.000671912226427 0)
(0.867886636664 -0.000833442957104 0)
(0.868416974294 -0.00103437321343 0)
(0.869074949785 -0.0012845754846 0)
(0.869891701272 -0.00159654817057 0)
(0.870906180435 -0.0019861924827 0)
(0.872167244648 -0.00247387858127 0)
(0.873736385506 -0.00308592666709 0)
(0.875691285068 -0.00385668117751 0)
(0.878130575554 -0.00483154974309 0)
(0.881180286739 -0.00607158239945 0)
(0.885002689383 -0.0076606078654 0)
(0.889808680413 -0.00971691819971 0)
(0.895875331979 -0.0124133686768 0)
(0.903570635855 -0.0160137253926 0)
(0.91338716929 -0.0209410471466 0)
(0.925982835157 -0.0279097918246 0)
(0.942206837487 -0.0381806941081 0)
(0.963022544678 -0.0540190002332 0)
(0.989152626638 -0.0793819572273 0)
(1.01998766594 -0.120598913904 0)
(1.04943877848 -0.185239142635 0)
(1.02388345977 0.119321987434 0)
(1.08875436623 0.231514424862 0)
(1.13660483711 0.252868942762 0)
(1.15406273506 0.228905050551 0)
(1.15000113667 0.188337388544 0)
(1.13537625171 0.146577295294 0)
(1.11757779468 0.110164823099 0)
(1.10059201861 0.0808376081362 0)
(1.08612243556 0.0582502021546 0)
(1.07458764352 0.041341786216 0)
(1.06578682227 0.0289362819896 0)
(1.05928159139 0.0199770178023 0)
(1.05459135087 0.0135949266825 0)
(1.05128029206 0.00910742286122 0)
(1.04898738538 0.00599312800398 0)
(1.04742907645 0.00386143602251 0)
(1.04639048531 0.00242413053635 0)
(1.04571301989 0.00147134092399 0)
(1.04528209083 0.000852127361863 0)
(1.04501641181 0.00045925166537 0)
(1.04485929217 0.000217473921823 0)
(1.0447718651 7.46981228507e-05 0)
(1.04472788759 -4.67111592125e-06 0)
(1.04471002685 -4.44768569281e-05 0)
(1.04470710692 -6.05729574209e-05 0)
(1.04471203847 -6.31368621955e-05 0)
(1.04472049045 -5.85945653283e-05 0)
(1.04472994437 -5.08680031172e-05 0)
(1.04473903298 -4.22429119194e-05 0)
(1.04474709633 -3.39620112755e-05 0)
(1.04475389266 -2.66219044814e-05 0)
(1.04475941846 -2.04392387819e-05 0)
(1.04476378992 -1.54170856943e-05 0)
(1.04476717044 -1.14475887263e-05 0)
(1.04476973627 -8.37962705476e-06 0)
(1.04477165321 -6.05380299487e-06 0)
(1.04477306293 -4.31848369616e-06 0)
(1.04477408519 -3.04284452879e-06 0)
(1.04477481823 -2.11909301346e-06 0)
(1.04477533612 -1.4577485614e-06 0)
(1.04477569633 -9.89382389049e-07 0)
(1.04477594426 -6.62879700983e-07 0)
(1.04477611101 -4.37723262611e-07 0)
(1.04477621931 -2.83514704532e-07 0)
(1.04477628823 -1.79788001727e-07 0)
(1.04477632955 -1.10215390947e-07 0)
(1.04477635108 -6.28935782778e-08 0)
(1.04477636062 -3.17463486593e-08 0)
(1.04477636166 -1.16583322359e-08 0)
(1.04477635541 1.44275879641e-09 0)
(1.0447763452 8.20047669076e-09 0)
(1.04477633248 1.0777005166e-08 0)
(1.04477631739 1.25164071491e-08 0)
(1.04477630218 1.34476048412e-08 0)
(1.04477628717 1.32877057534e-08 0)
(1.04477627078 1.32002317015e-08 0)
(1.04477625424 1.25080566173e-08 0)
(1.04477623819 1.1013663347e-08 0)
(1.04477622103 1.0221557556e-08 0)
(1.0447762032 1.00827686105e-08 0)
(1.04477618521 1.03118769102e-08 0)
(1.04477616571 1.156187404e-08 0)
(1.04477614478 1.28391701274e-08 0)
(1.04477612275 1.30566752053e-08 0)
(1.04477609886 1.32164541899e-08 0)
(1.04477607404 1.37806507359e-08 0)
(1.04477604876 1.46776578405e-08 0)
(1.04477602111 1.67506386409e-08 0)
(1.04477599096 1.95318451196e-08 0)
(1.04477595975 2.18876665533e-08 0)
(1.04477592733 2.43499581273e-08 0)
(1.04477589366 2.69606125783e-08 0)
(1.04477585907 2.89933741764e-08 0)
(1.04477582264 3.11240487409e-08 0)
(1.04477578435 3.38968086578e-08 0)
(1.04477574504 3.71541255412e-08 0)
(1.04477570455 4.12936316033e-08 0)
(1.04477566327 4.6043524469e-08 0)
(1.0447756214 5.08770879368e-08 0)
(1.04477557779 5.62638728234e-08 0)
(1.04477553295 6.16075501739e-08 0)
(1.04477548782 6.61623648676e-08 0)
(1.04477544135 7.12769662752e-08 0)
(1.04477539437 7.71537390888e-08 0)
(1.0447753484 8.25360249456e-08 0)
(1.04477530195 8.79183085635e-08 0)
(1.04477525503 9.32021476434e-08 0)
(1.04477520892 9.7507295862e-08 0)
(1.04477516214 1.01999219801e-07 0)
(1.04477511515 1.06401131221e-07 0)
(1.04477507014 1.08948622113e-07 0)
(1.04477502625 1.10704231669e-07 0)
(1.04477498446 1.11541019637e-07 0)
(1.04477494788 1.08837342838e-07 0)
(1.04477491561 1.0280545629e-07 0)
(1.04477488819 9.32316900576e-08 0)
(1.04477486973 7.76273646235e-08 0)
(1.0447748605 5.64838645739e-08 0)
(1.0447748624 2.90859265732e-08 0)
(1.04477488211 -1.06586046168e-08 0)
(1.04477492303 -6.40206302022e-08 0)
(1.04477498891 -1.31781980307e-07 0)
(1.04477508868 -2.1885631396e-07 0)
(1.04477522889 -3.28912667987e-07 0)
(1.04477541648 -4.65927897609e-07 0)
(1.04477566637 -6.39393192016e-07 0)
(1.04477599262 -8.56281257781e-07 0)
(1.04477641037 -1.12252034539e-06 0)
(1.0447769457 -1.45221210918e-06 0)
(1.04477762581 -1.86052668272e-06 0)
(1.04477847917 -2.3626133671e-06 0)
(1.04477954999 -2.98155132065e-06 0)
(1.04478089186 -3.74494649803e-06 0)
(1.04478256387 -4.68355404076e-06 0)
(1.04478464541 -5.84181419632e-06 0)
(1.04478723486 -7.2736373545e-06 0)
(1.04479044893 -9.03967236884e-06 0)
(1.04479443836 -1.12194274263e-05 0)
(1.04479938878 -1.39108938813e-05 0)
(1.04480552457 -1.72311564248e-05 0)
(1.04481313027 -2.13314295998e-05 0)
(1.04482255754 -2.63990439559e-05 0)
(1.04483423473 -3.26612750726e-05 0)
(1.04484869855 -4.04079032267e-05 0)
(1.04486661527 -5.00003027111e-05 0)
(1.04488879999 -6.18758477981e-05 0)
(1.04491626528 -7.6576356934e-05 0)
(1.04495027306 -9.47756655901e-05 0)
(1.04499237938 -0.000117303058818 0)
(1.04504451164 -0.000145188584903 0)
(1.04510906354 -0.000179715425233 0)
(1.04518899348 -0.000222470801873 0)
(1.04528796757 -0.000275426708889 0)
(1.04541053402 -0.000341035017482 0)
(1.04556232242 -0.000422334243887 0)
(1.04575031359 -0.000523106755175 0)
(1.04598316866 -0.000648067425586 0)
(1.04627162521 -0.000803086325674 0)
(1.04662901023 -0.00099549026009 0)
(1.04707187596 -0.00123444887061 0)
(1.04762078377 -0.00153146136347 0)
(1.04830129985 -0.0019009904391 0)
(1.04914525635 -0.0023613019621 0)
(1.05019232314 -0.00293556767421 0)
(1.05149200931 -0.00365335334015 0)
(1.05310623482 -0.00455267377881 0)