/*--------------------------------*- C++ -*----------------------------------*\
| =========                 |                                                 |
| \\      /  F ield         | OpenFOAM: The Open Source CFD Toolbox           |
|  \\    /   O peration     | Version:  2106                                  |
|   \\  /    A nd           | Website:  www.openfoam.com                      |
|    \\/     M anipulation  |                                                 |
\*---------------------------------------------------------------------------*/
FoamFile
{
    version     2.0;
    format      ascii;
    arch        "LSB;label=32;scalar=64";
    class       surfaceScalarField;
    location    "0.21";
    object      phi;
}
// * * * * * * * * * * * * * * * * * * * * * * * * * * * * * * * * * * * * * //

dimensions      [0 3 -1 0 0 0 0];

oriented        oriented;

internalField   nonuniform List<scalar> 
22100
(
3.38461202471e-05
1.61538796957e-05
2.24572094758e-05
1.13889104638e-05
1.62585523842e-05
6.19865688344e-06
1.27977751868e-05
3.46077697493e-06
1.08046411403e-05
1.99313386523e-06
9.60458799192e-06
1.20005301089e-06
8.851320152e-06
7.53267742533e-07
8.36435129222e-06
4.86968798871e-07
8.04433338778e-06
3.20017871858e-07
7.83283857082e-06
2.11494798122e-07
7.69339536168e-06
1.39443183606e-07
7.6022383818e-06
9.11569260726e-08
7.54347544189e-06
5.87628374506e-08
7.50633830006e-06
3.71369797224e-08
7.48349850905e-06
2.28395740191e-08
7.46997737628e-06
1.35208774268e-08
7.46241245328e-06
7.56465824241e-09
7.45854416303e-06
3.86804931167e-09
7.45682494906e-06
1.71902473485e-09
7.45641818505e-06
4.06640297825e-10
7.45676790333e-06
-3.49782149533e-10
7.45745398463e-06
-6.86108168274e-10
7.45821219715e-06
-7.58239179419e-10
7.45893731336e-06
-7.2517991269e-10
7.45958137349e-06
-6.44185390035e-10
7.46012501021e-06
-5.43830021987e-10
7.46056680771e-06
-4.42044403514e-10
7.4609152526e-06
-3.4871731058e-10
7.46118327756e-06
-2.68291357073e-10
7.46138498421e-06
-2.0193938411e-10
7.46153375104e-06
-1.48948093435e-10
7.46164127572e-06
-1.07650445606e-10
7.46171726939e-06
-7.60727495306e-11
7.46176984134e-06
-5.26245144497e-11
7.46180292425e-06
-3.31343012897e-11
7.46182149202e-06
-1.8642733929e-11
7.46183029743e-06
-8.92312499857e-12
7.46183276774e-06
-2.64544692229e-12
7.46183084199e-06
1.68194033897e-12
7.46182566484e-06
4.86199653288e-12
7.4618181918e-06
7.10082214846e-12
7.46180905876e-06
8.7351223592e-12
7.46179866252e-06
1.00091301817e-11
7.4617871911e-06
1.11219631535e-11
7.46177464944e-06
1.22427437358e-11
7.46176090446e-06
1.34961834415e-11
7.46174571061e-06
1.4982156743e-11
7.46172871952e-06
1.6792081314e-11
7.46170947796e-06
1.90248830138e-11
7.46168744628e-06
2.17742853766e-11
7.46166203155e-06
2.51200623483e-11
7.46163255042e-06
2.91645393013e-11
7.46159822195e-06
3.40083478413e-11
7.46155817792e-06
3.97288361239e-11
7.46151152064e-06
4.63565939501e-11
7.46145739837e-06
5.38411860347e-11
7.46139506111e-06
6.20674566042e-11
7.46132428721e-06
7.04903932337e-11
7.46124574729e-06
7.82284168699e-11
7.46116179038e-06
8.3620711729e-11
7.46107842544e-06
8.30052541271e-11
7.46100813044e-06
6.99134423254e-11
7.46095889776e-06
4.88381312512e-11
7.46094952897e-06
8.99001017418e-12
7.46101588664e-06
-6.67243884652e-11
7.46121622445e-06
-2.00663637189e-10
7.46164508812e-06
-4.29155349735e-10
7.46245272892e-06
-8.07876246731e-10
7.46387478809e-06
-1.42226045224e-09
7.46626747269e-06
-2.39289067348e-09
7.47008141632e-06
-3.81418104624e-09
7.47652969311e-06
-6.44859522414e-09
7.48730830296e-06
-1.07790246477e-08
7.50550525108e-06
-1.8197416179e-08
7.53873973177e-06
-3.32349111008e-08
7.60806305361e-06
-6.93236302284e-08
7.77498989767e-06
-1.66927069933e-07
8.23063708381e-06
-4.55647578541e-07
9.70078802762e-06
-1.47015104469e-06
-5.46260493008e-06
1.51633952813e-05
5.02175947552e-05
1.59362846919e-05
4.42441112141e-05
1.73623935241e-05
3.77795008773e-05
1.26632668615e-05
3.2646143182e-05
8.59413435132e-06
2.89380908865e-05
5.70118591251e-06
2.63596203487e-05
3.77852336961e-06
2.45875158412e-05
2.52537212919e-06
2.33734737243e-05
1.70101083623e-06
2.25435246443e-05
1.1499668884e-06
2.19782159363e-05
7.7680342485e-07
2.15955133704e-05
5.22145618091e-07
2.13387367276e-05
3.47933356785e-07
2.1168495072e-05
2.29004188648e-07
2.10573372743e-05
1.48294390613e-07
2.09861491353e-05
9.40272747745e-08
2.0941676526e-05
5.79930442505e-08
2.09147945096e-05
3.44462792526e-08
2.08992952634e-05
1.93669861995e-08
2.08910714395e-05
9.94264231366e-09
2.08872711351e-05
4.2068270833e-09
2.08862021231e-05
7.19160324889e-10
2.08864478174e-05
-9.31881041241e-10
2.08873191705e-05
-1.62973546097e-09
2.08884585111e-05
-1.86476295525e-09
2.08896316045e-05
-1.81762641763e-09
2.08907143025e-05
-1.62695489512e-09
2.08916515781e-05
-1.37977995244e-09
2.08924287909e-05
-1.12637310792e-09
2.08930537326e-05
-8.93616686439e-10
2.0893545635e-05
-6.94141141719e-10
2.08939292739e-05
-5.32798770482e-10
2.08942306517e-05
-4.09169092111e-10
2.08944414782e-05
-2.87003328785e-10
2.0894588385e-05
-1.99641363314e-10
2.08946885769e-05
-1.33483682751e-10
2.08947537347e-05
-8.40359700144e-11
2.0894794014e-05
-4.95373728425e-11
2.08948175748e-05
-2.66544903562e-11
2.08948292263e-05
-1.05297575476e-11
2.08948319114e-05
1.53121327109e-12
2.08948280673e-05
1.02618963502e-11
2.0894819385e-05
1.6750462171e-11
2.08948070257e-05
2.17575923641e-11
2.08947917125e-05
2.59017775751e-11
2.08947738089e-05
2.96883898953e-11
2.08947534332e-05
3.34704490004e-11
2.08947305369e-05
3.7497896305e-11
2.08947049566e-05
4.1965580448e-11
2.08946764459e-05
4.70736205514e-11
2.08946447334e-05
5.29704827306e-11
2.08946096032e-05
5.97045483196e-11
2.08945709069e-05
6.73066586256e-11
2.08945286454e-05
7.57232218619e-11
2.0894483099e-05
8.47483936138e-11
2.08944350644e-05
9.38874676597e-11
2.08943862609e-05
1.02144706038e-10
2.08943398103e-05
1.07988294661e-10
2.08943014878e-05
1.08244672235e-10
2.08942807108e-05
9.84028295121e-11
2.08942924551e-05
7.12283148908e-11
2.08943628636e-05
1.19071754233e-11
2.08945415551e-05
-1.09478592413e-10
2.08948965115e-05
-3.06810476692e-10
2.08955455713e-05
-6.4071885478e-10
2.08966004877e-05
-1.12223213812e-09
2.08982341877e-05
-1.83490545125e-09
2.09008052804e-05
-3.00071620541e-09
2.09048625855e-05
-4.86561499333e-09
2.09112768533e-05
-7.8369772577e-09
2.09214746871e-05
-1.25912454094e-08
2.09379516475e-05
-2.02917911876e-08
2.09648627774e-05
-3.33605079556e-08
2.10091637814e-05
-5.50808783028e-08
2.10840591385e-05
-9.3093584727e-08
2.12155361948e-05
-1.64712667689e-07
2.14566302026e-05
-3.10418256056e-07
2.19154825667e-05
-6.25780061992e-07
2.28046675217e-05
-1.34483309585e-06
2.44533264847e-05
-3.11881017003e-06
-7.05690936341e-06
2.60476312875e-05
5.3517105203e-05
1.24191792517e-05
5.293496788e-05
1.79445304218e-05
4.96538394483e-05
1.59443949654e-05
4.58401805367e-05
1.24077929626e-05
4.24400913163e-05
9.10127489267e-06
3.9729171176e-05
6.48944332785e-06
3.76873045578e-05
4.56723861559e-06
3.61976616235e-05
3.1906536745e-06
3.51326109037e-05
2.2150175276e-06
3.43823657674e-05
1.52704846842e-06
3.38606246777e-05
1.04388657285e-06
3.35023442849e-05
7.06213548478e-07
3.32595991761e-05
4.71749020528e-07
3.30975886121e-05
3.10304610358e-07
3.29913322446e-05
2.00283257744e-07
3.29230900676e-05
1.26234835934e-07
3.28804018404e-05
7.71341618441e-08
3.28546164742e-05
4.51520820856e-08
3.28397892096e-05
2.47697210434e-08
3.28318625793e-05
1.21333424306e-08
3.28279930137e-05
4.58864714315e-09
3.28269942624e-05
6.67804560622e-11
3.28271748783e-05
-1.81049569427e-09
3.28280230593e-05
-2.71316978008e-09
3.28291385223e-05
-2.93339763526e-09
3.28302854001e-05
-2.77420013815e-09
3.28313409712e-05
-2.43574107872e-09
3.28322509584e-05
-2.03673363166e-09
3.28330005347e-05
-1.64351911764e-09
3.28335957983e-05
-1.28966673117e-09
3.28340516974e-05
-9.88896050799e-10
3.28343863141e-05
-7.43937311326e-10
3.28346523249e-05
-5.53148468478e-10
3.28348682882e-05
-4.1575553075e-10
3.28350150981e-05
-2.80486476968e-10
3.28351138843e-05
-1.83076565506e-10
3.28351792656e-05
-1.15251070678e-10
3.28352206482e-05
-6.84583814752e-11
3.2835244904e-05
-3.52920256172e-11
3.2835256005e-05
-1.0138080427e-11
3.28352575291e-05
8.14610429925e-12
3.28352519931e-05
2.17115547397e-11
3.2835241237e-05
3.19848888751e-11
3.28352264888e-05
4.0181164248e-11
3.28352084937e-05
4.72729876233e-11
3.28351876951e-05
5.3895150128e-11
3.28351643555e-05
6.04629687826e-11
3.28351386289e-05
6.72834970156e-11
3.28351105424e-05
7.47047771941e-11
3.28350801334e-05
8.28880905662e-11
3.28350477092e-05
9.16129794972e-11
3.28350138444e-05
1.00641415757e-10
3.28349795293e-05
1.09515265217e-10
3.28349464632e-05
1.17320052978e-10
3.28349175343e-05
1.22341789157e-10
3.28348974195e-05
1.21781836942e-10
3.28348928619e-05
1.12055472325e-10
3.28349149852e-05
8.56083620145e-11
3.28349810167e-05
3.18263277707e-11
3.28351202084e-05
-6.8556792518e-11
3.28353837468e-05
-2.52258694154e-10
3.28358594042e-05
-5.85791020684e-10
3.2836567317e-05
-1.01534686953e-09
3.28375969026e-05
-1.67090482413e-09
3.28392036341e-05
-2.7295088862e-09
3.28417674822e-05
-4.39923679087e-09
3.28457924436e-05
-7.02609851188e-09
3.28520937816e-05
-1.11673245346e-08
3.28619865372e-05
-1.77301272489e-08
3.28776392267e-05
-2.82444053839e-08
3.29027199687e-05
-4.5373117235e-08
3.29425933393e-05
-7.32345752052e-08
3.30071138296e-05
-1.19602096576e-07
3.31133096371e-05
-1.99290047232e-07
3.32902783499e-05
-3.41681942714e-07
3.35863801788e-05
-6.06520718051e-07
3.40729755123e-05
-1.1123764519e-06
3.48166564133e-05
-2.08851537056e-06
3.56816990364e-05
-3.98385331237e-06
-7.13015248469e-06
3.57549411695e-05
5.35105663162e-05
8.9086127058e-06
5.55742217886e-05
1.58808745594e-05
5.52424818443e-05
1.62761346062e-05
5.35977850714e-05
1.40524894515e-05
5.15418466211e-05
1.11572131119e-05
4.95802786956e-05
8.45101107373e-06
4.79243495481e-05
6.22316762646e-06
4.66181375794e-05
4.49686554167e-06
4.56304647029e-05
3.20269031743e-06
4.49051156829e-05
2.25239739371e-06
4.43840884005e-05
1.56491372324e-06
4.40166921142e-05
1.07360964331e-06
4.37619654293e-05
7.26475444166e-07
4.35882665797e-05
4.84003136724e-07
4.34718669448e-05
3.16682532751e-07
4.33953565959e-05
2.02744825314e-07
4.33461860713e-05
1.26304367541e-07
4.33154482686e-05
7.58896351995e-08
4.32969117768e-05
4.33060426627e-08
4.32862856331e-05
2.2759380775e-08
4.32806827409e-05
1.01914637723e-08
4.32778750055e-05
2.87442574691e-09
4.32770470947e-05
-9.82728786468e-10
4.32772648175e-05
-2.93111004077e-09
4.32779521279e-05
-3.62099505998e-09
4.32788149131e-05
-3.63731881002e-09
4.32796874261e-05
-3.30860188933e-09
4.3280484573e-05
-2.83421204161e-09
4.32811700189e-05
-2.32925778418e-09
4.32817355555e-05
-1.85544680161e-09
4.32821880154e-05
-1.44155398746e-09
4.32825400872e-05
-1.09617977975e-09
4.32828015115e-05
-8.1474043156e-10
4.32829765664e-05
-5.90996713834e-10
4.32831092617e-05
-4.13401797436e-10
4.32831943071e-05
-2.68387836012e-10
4.32832479367e-05
-1.69205207182e-10
4.32832873447e-05
-1.08258061214e-10
4.32833113146e-05
-5.97149828808e-11
4.32833228546e-05
-2.21730940586e-11
4.32833253945e-05
5.09857909949e-12
4.32833209075e-05
2.57062391212e-11
4.32833111179e-05
4.13169110544e-11
4.32832971776e-05
5.3706483979e-11
4.32832797234e-05
6.43493775948e-11
4.32832591606e-05
7.40904458088e-11
4.32832357855e-05
8.34537410132e-11
4.3283209852e-05
9.28004064398e-11
4.32831817308e-05
1.0237416319e-10
4.32831519473e-05
1.12188790199e-10
4.32831211211e-05
1.21928651458e-10
4.32830902198e-05
1.31029313304e-10
4.32830607071e-05
1.38536134459e-10
4.32830346812e-05
1.42880052445e-10
4.32830150502e-05
1.4152292247e-10
4.32830060111e-05
1.30378061465e-10
4.32830151479e-05
1.02472040757e-10
4.3283054253e-05
4.60272256495e-11
4.32831424617e-05
-5.68777954082e-11
4.32832990972e-05
-2.25741784593e-10
4.32835240999e-05
-4.77862903908e-10
4.32839565414e-05
-1.01884116004e-09
4.32847104564e-05
-1.76987977408e-09
4.32859459444e-05
-2.90696435537e-09
4.32878691706e-05
-4.65327553651e-09
4.32908291837e-05
-7.35971183293e-09
4.32953857103e-05
-1.15830019509e-08
4.33024181841e-05
-1.82001566935e-08
4.33133107055e-05
-2.86230314566e-08
4.33302252918e-05
-4.51594440651e-08
4.33564789677e-05
-7.16273661934e-08
4.33976559044e-05
-1.14412183342e-07
4.34626320643e-05
-1.84578919567e-07
4.35651748866e-05
-3.01833422692e-07
4.37253123721e-05
-5.0181978306e-07
4.39677588077e-05
-8.48967441374e-07
4.43093481493e-05
-1.45396638018e-06
4.47115520905e-05
-2.49072013588e-06
4.49334000471e-05
-4.20570126985e-06
-6.60316009812e-06
4.44064066072e-05
5.27351378466e-05
6.17347464842e-06
5.57309339849e-05
1.28850780632e-05
5.73114735808e-05
1.46955947297e-05
5.76109908503e-05
1.37529719142e-05
5.71335215019e-05
1.16346822358e-05
5.63194668639e-05
9.26506552893e-06
5.54489866385e-05
7.09364770649e-06
5.46629760721e-05
5.28287599339e-06
5.40136805355e-05
3.85198575492e-06
5.35061492411e-05
2.75992858349e-06
5.31242533541e-05
1.94680947347e-06
5.28449838178e-05
1.35287898967e-06
5.26454375458e-05
9.26021462823e-07
5.25057132426e-05
6.23727131095e-07
5.24097183964e-05
4.12677037951e-07
5.23450123159e-05
2.67450567866e-07
5.23022744552e-05
1.69041929856e-07
5.22746873016e-05
1.03476557045e-07
5.22573628091e-05
6.06303766018e-08
5.22468541912e-05
3.326789715e-08
5.22407545274e-05
1.62910487455e-08
5.22374456068e-05
6.18324837201e-09
5.22359467769e-05
5.15951832363e-10
5.22354385419e-05
-2.42308779985e-09
5.22355031031e-05
-3.68582420109e-09
5.22358480998e-05
-3.98261676979e-09
5.22363018394e-05
-3.7626505683e-09
5.22367677051e-05
-3.30037239032e-09
5.22371946093e-05
-2.75642789872e-09
5.22375598326e-05
-2.22090450613e-09
5.22378566712e-05
-1.73860431893e-09
5.22380879066e-05
-1.32762062885e-09
5.22382638153e-05
-9.90864786068e-10
5.22383963045e-05
-7.23719940645e-10
5.22384962633e-05
-5.13617212046e-10
5.22385804584e-05
-3.52867926074e-10
5.22386455707e-05
-2.34639420932e-10
5.22386874394e-05
-1.50489173451e-10
5.22387197321e-05
-9.24067394783e-11
5.22387346563e-05
-3.75202403458e-11
5.22387393734e-05
-4.78343451759e-14
5.2238736466e-05
2.81926265342e-11
5.2238727885e-05
4.94986705915e-11
5.22387149654e-05
6.62515661203e-11
5.22386985693e-05
8.03791723661e-11
5.22386792596e-05
9.30270537536e-11
5.2238657551e-05
1.04763023098e-10
5.22386343349e-05
1.15587655925e-10
5.2238609415e-05
1.26828179261e-10
5.22385819503e-05
1.39149480519e-10
5.22385533863e-05
1.49971007999e-10
5.2238524794e-05
1.59120582644e-10
5.22384976879e-05
1.65180603361e-10
5.22384744312e-05
1.65710864112e-10
5.22384593709e-05
1.56185882538e-10
5.22384640603e-05
1.2530342092e-10
5.22384907973e-05
7.53315930825e-11
5.22385587856e-05
-2.23843883545e-11
5.22386731309e-05
-1.71691225502e-10
5.22388551611e-05
-4.08275682249e-10
5.22391856959e-05
-8.08968201303e-10
5.22396882807e-05
-1.52202372777e-09
5.22404438623e-05
-2.52605519006e-09
5.2241583779e-05
-4.04747443234e-09
5.22433108169e-05
-6.38084155417e-09
5.22459262015e-05
-9.97553705493e-09
5.22498817147e-05
-1.55389007563e-08
5.22558685833e-05
-2.41873829079e-08
5.22649465417e-05
-3.77013534086e-08
5.22787355985e-05
-5.89489398705e-08
5.22996993276e-05
-9.25916532792e-08
5.23315630732e-05
-1.46276565283e-07
5.23796880568e-05
-2.32704542011e-07
5.24510309507e-05
-3.73176828068e-07
5.2552503057e-05
-6.03292174935e-07
5.26847144565e-05
-9.81179001137e-07
5.28255027758e-05
-1.59475509985e-06
5.28933694362e-05
-2.55858762995e-06
5.26755603939e-05
-3.98789221842e-06
-5.79393034416e-06
5.18663298324e-05
5.19834863155e-05
4.18998813642e-06
5.5058663528e-05
9.80990051597e-06
5.76386125276e-05
1.21156454665e-05
5.93259022291e-05
1.20656819513e-05
6.02280140415e-05
1.07325701946e-05
6.05929250248e-05
8.9001543496e-06
6.06482817665e-05
7.03829080049e-06
6.05531871503e-05
5.37797047178e-06
6.04029524345e-05
4.00222035142e-06
6.02479117895e-05
2.91496910736e-06
6.01107861053e-05
2.08393501119e-06
5.99990263933e-05
1.46463851026e-06
5.99125109845e-05
1.01253662633e-06
5.98479188158e-05
6.88319006533e-07
5.9801014944e-05
4.59580590319e-07
5.9767729985e-05
3.00735213103e-07
5.97445883456e-05
1.92183294569e-07
5.97288095594e-05
1.19255129282e-07
5.97182612169e-05
7.11785689536e-08
5.97113548655e-05
4.01741445528e-08
5.97069353651e-05
2.07104578413e-08
5.97042012967e-05
8.91720350189e-09
5.97025920515e-05
2.12503886142e-09
5.97016872595e-05
-1.51850350066e-09
5.97012286667e-05
-3.22747802102e-09
5.97010388251e-05
-3.79304237853e-09
5.97010022162e-05
-3.72631081686e-09
5.97010461908e-05
-3.34460499312e-09
5.97011270298e-05
-2.83750918678e-09
5.97012190593e-05
-2.31316539456e-09
5.97013083911e-05
-1.82817019314e-09
5.97013884017e-05
-1.40788089506e-09
5.97014576648e-05
-1.06039806083e-09
5.97015167863e-05
-7.83129556739e-10
5.9701566578e-05
-5.63709499471e-10
5.97016059392e-05
-3.92539145581e-10
5.9701633291e-05
-2.6231032301e-10
5.97016481492e-05
-1.65676281569e-10
5.9701646043e-05
-9.06413070694e-11
5.97016375307e-05
-2.93590564045e-11
5.97016304299e-05
6.69267383813e-12
5.9701620615e-05
3.76467238647e-11
5.97016097288e-05
6.00314681528e-11
5.97015975749e-05
7.80576281264e-11
5.97015831003e-05
9.44978103729e-11
5.97015661073e-05
1.09641585245e-10
5.97015465694e-05
1.23893299351e-10
5.97015242277e-05
1.37484702041e-10
5.97015001576e-05
1.50401181615e-10
5.97014763956e-05
1.62374963889e-10
5.97014531319e-05
1.72703646151e-10
5.97014316411e-05
1.80114403309e-10
5.97014136579e-05
1.82709866427e-10
5.97014010342e-05
1.77927311213e-10
5.970139415e-05
1.62689372607e-10
5.97013845038e-05
1.34569700646e-10
5.97013837255e-05
7.56978155205e-11
5.97013935982e-05
-3.26852841452e-11
5.97014599291e-05
-2.38483794158e-10
5.97016370621e-05
-5.8591712753e-10
5.97019266158e-05
-1.099071991e-09
5.9702300157e-05
-1.89615954342e-09
5.97028608717e-05
-3.08736666023e-09
5.97036916744e-05
-4.87884763149e-09
5.97049057538e-05
-7.59543426429e-09
5.97066672589e-05
-1.17375014622e-08
5.97092134296e-05
-1.80854790037e-08
5.97128870377e-05
-2.78613525445e-08
5.971817655e-05
-4.2991235792e-08
5.97257620804e-05
-6.65349103746e-08
5.97365460123e-05
-1.03376107785e-07
5.97515906996e-05
-1.61321833265e-07
5.97717356715e-05
-2.52850133878e-07
5.97963934171e-05
-3.97835079061e-07
5.98204099222e-05
-6.27308949281e-07
5.98268996251e-05
-9.87668760731e-07
5.97737655557e-05
-1.54162129651e-06
5.95729076489e-05
-2.35773050835e-06
5.90660497418e-05
-3.48103449434e-06
-4.81988100728e-06
5.80919998287e-05
5.1437305224e-05
2.75268272737e-06
5.4265820154e-05
6.98138527416e-06
5.72496425853e-05
9.13182278378e-06
5.97900266803e-05
9.52529759592e-06
6.1720126921e-05
8.80246971481e-06
6.30883016284e-05
7.53197942561e-06
6.40167149665e-05
6.10987727057e-06
6.46292345657e-05
4.76545070585e-06
6.50258013468e-05
3.60565342317e-06
6.52790757537e-05
2.6616945548e-06
6.54389706264e-05
1.92403997617e-06
6.55386872573e-05
1.36492168196e-06
6.5599925565e-05
9.51298077776e-07
6.56367401242e-05
6.51504168334e-07
6.56581909568e-05
4.3812945943e-07
6.56700989245e-05
2.88826955871e-07
6.56761879433e-05
1.86094022226e-07
6.56788240807e-05
1.16618791282e-07
6.56794943982e-05
7.05081028242e-08
6.5679118103e-05
4.05503234474e-08
6.56782506223e-05
2.15778253013e-08
6.56772196009e-05
9.94808907865e-09
6.56762102127e-05
3.13425497251e-09
6.5675300759e-05
-6.09256951804e-10
6.56745318745e-05
-2.45882391725e-09
6.56739033204e-05
-3.16472596678e-09
6.56734042303e-05
-3.22745497872e-09
6.56730171406e-05
-2.95774236268e-09
6.56727230563e-05
-2.54365082172e-09
6.56725037994e-05
-2.09414838684e-09
6.56723432439e-05
-1.66788423844e-09
6.56722277123e-05
-1.29265575758e-09
6.56721450751e-05
-9.78097724472e-10
6.56720847269e-05
-7.23132960604e-10
6.56720409068e-05
-5.20239396849e-10
6.56720093904e-05
-3.61358766887e-10
6.56719840457e-05
-2.37280168655e-10
6.56719621879e-05
-1.44113058681e-10
6.56719469363e-05
-7.56743331857e-11
6.56719448834e-05
-2.75986304197e-11
6.56719429831e-05
8.28406973568e-12
6.56719351851e-05
4.51233920075e-11
6.5671924545e-05
7.03437788786e-11
6.56719114727e-05
9.07882074286e-11
6.56718967897e-05
1.0881544259e-10
6.56718804886e-05
1.25543433733e-10
6.56718623968e-05
1.41549627464e-10
6.56718424204e-05
1.56970855501e-10
6.56718212744e-05
1.7100748444e-10
6.56718007469e-05
1.82348599224e-10
6.56717796949e-05
1.93218714142e-10
6.56717587141e-05
2.00590897905e-10
6.5671738902e-05
2.0206856414e-10
6.56717220251e-05
1.94399384702e-10
6.56717114052e-05
1.72928018832e-10
6.56717141535e-05
1.31426735062e-10
6.56717229059e-05
6.65089083232e-11
6.56717400106e-05
-5.02681652927e-11
6.5671806056e-05
-3.04989219914e-10
6.56718953545e-05
-6.75719188213e-10
6.56720350268e-05
-1.2392906577e-09
6.56722311593e-05
-2.09287526603e-09
6.56724994763e-05
-3.35629545796e-09
6.56728559922e-05
-5.23595328704e-09
6.56733106951e-05
-8.05067751682e-09
6.56738599198e-05
-1.22872047987e-08
6.56744723013e-05
-1.86982676373e-08
6.56750596388e-05
-2.84490522316e-08
6.56754174593e-05
-4.33494373563e-08
6.56751143103e-05
-6.6232183838e-08
6.56732778327e-05
-1.01540107054e-07
6.56681629674e-05
-1.56207533874e-07
6.56562211927e-05
-2.40908942263e-07
6.56303022613e-05
-3.71916632712e-07
6.55762163707e-05
-5.7322334134e-07
6.5466656975e-05
-8.78109376756e-07
6.52523128948e-05
-1.3272773584e-06
6.48528594088e-05
-1.95827776893e-06
6.41553136078e-05
-2.7834890927e-06
-3.73316576116e-06
6.30685979156e-05
5.10850422238e-05
1.66764033025e-06
5.36118441728e-05
4.45458303891e-06
5.66873158811e-05
6.05635083818e-06
5.96894456503e-05
6.52316756851e-06
6.22997260207e-05
6.19218909674e-06
6.44136873521e-05
5.41801785853e-06
6.60471832796e-05
4.47638112444e-06
6.72686146382e-05
3.54401915124e-06
6.81598935187e-05
2.71437436552e-06
6.87977599898e-05
2.02382791399e-06
6.92467442574e-05
1.47505553106e-06
6.95579629873e-05
1.05370275083e-06
6.97704295573e-05
7.38831273632e-07
6.99131725205e-05
5.08760942747e-07
7.00073835557e-05
3.43918149681e-07
7.00682930952e-05
2.27917153344e-07
7.01066951615e-05
1.47691725853e-07
7.01301375593e-05
9.31762066976e-08
7.01438268186e-05
5.68186940133e-08
7.01513030688e-05
3.3073941776e-08
7.01549356831e-05
1.79450739628e-08
7.01562835703e-05
8.60004199944e-09
7.0156355531e-05
3.06210610692e-09
7.01557635277e-05
-1.7462112039e-11
7.01549026868e-05
-1.59819773403e-09
7.01539791084e-05
-2.24135601436e-09
7.0153110508e-05
-2.35905262938e-09
7.0152350537e-05
-2.19796553235e-09
7.01517163846e-05
-1.90970828068e-09
7.01512051754e-05
-1.5831875202e-09
7.01508039643e-05
-1.26697611405e-09
7.01504957978e-05
-9.84845993833e-10
7.01502630514e-05
-7.45746103624e-10
7.01500895801e-05
-5.50069721998e-10
7.01499624113e-05
-3.9346386106e-10
7.01498709109e-05
-2.70212585847e-10
7.01498079838e-05
-1.74655766101e-10
7.0149766164e-05
-1.02549938417e-10
7.0149737332e-05
-4.70783150479e-11
7.01497069803e-05
2.51040246937e-12
7.01496832561e-05
3.17490981264e-11
7.01496699092e-05
5.81941263315e-11
7.01496589937e-05
8.09605671689e-11
7.01496486207e-05
1.00825393597e-10
7.01496380322e-05
1.19022543205e-10
7.01496268448e-05
1.36302101775e-10
7.01496149116e-05
1.53001724956e-10
7.01496022473e-05
1.69095426196e-10
7.01495884325e-05
1.84248130189e-10
7.01495723234e-05
1.97888155418e-10
7.0149555871e-05
2.09117972258e-10
7.01495397885e-05
2.1615572071e-10
7.01495248295e-05
2.16554947679e-10
7.01495116634e-05
2.07129990338e-10
7.01495001541e-05
1.84033664077e-10
7.01494882224e-05
1.42932072819e-10
7.01494718198e-05
8.24565219239e-11
7.0149467246e-05
-4.61549118523e-11
7.01494661657e-05
-3.04396074606e-10
7.01494803097e-05
-6.90379959152e-10
7.01494942546e-05
-1.25378354556e-09
7.0149484717e-05
-2.08391403479e-09
7.01494239105e-05
-3.29608407877e-09
7.01492577513e-05
-5.0703812018e-09
7.01488860258e-05
-7.67950669966e-09
7.01481316969e-05
-1.15333685737e-08
7.01466918183e-05
-1.72588048086e-08
7.01440504735e-05
-2.58080827675e-08
7.01393271228e-05
-3.86264503774e-08
7.01310331569e-05
-5.79385986532e-08
7.01166737593e-05
-8.71811566527e-08
7.00920697451e-05
-1.3160404035e-07
7.0050101054e-05
-1.98940779331e-07
6.99787483497e-05
-3.00564401409e-07
6.98579701045e-05
-4.52445386951e-07
6.96551944707e-05
-6.75333823991e-07
6.9320293633e-05
-9.92376632071e-07
6.87833621597e-05
-1.42134699386e-06
6.79612445297e-05
-1.9613720406e-06
-2.56693385023e-06
6.67950122205e-05
5.08804130684e-05
7.87227102904e-07
5.31704658352e-05
2.16453001461e-06
5.62177491978e-05
3.00906725621e-06
5.94382689658e-05
3.30264754834e-06
6.24449685363e-05
3.18548927169e-06
6.50382517011e-05
2.82473444023e-06
6.71548650197e-05
2.3597675615e-06
6.88135632756e-05
1.88532066885e-06
7.00731690542e-05
1.454768378e-06
7.10056658086e-05
1.09133096381e-06
7.16812618963e-05
7.99459247774e-07
7.21614210421e-05
5.73543396036e-07
7.24966017474e-05
4.03650340853e-07
7.27264780697e-05
2.78884377817e-07
7.28812767375e-05
1.89119236397e-07
7.2983466278e-05
1.25727381234e-07
7.3049409875e-05
8.17479243395e-08
7.30908118285e-05
5.17740785222e-08
7.31159056399e-05
3.17247286574e-08
7.31303900268e-05
1.85894039713e-08
7.31381445986e-05
1.01903365064e-08
7.31417648647e-05
4.97958620049e-09
7.31429523776e-05
1.87438339635e-09
7.31428058033e-05
1.28897328318e-10
7.31419823899e-05
-7.74987639363e-10
7.31408993251e-05
-1.15847413332e-09
7.31397843171e-05
-1.24421001761e-09
7.31387567539e-05
-1.17056893765e-09
7.3137869066e-05
-1.02221722425e-09
7.31371351388e-05
-8.49518114234e-10
7.31365475714e-05
-6.79744046571e-10
7.31360889799e-05
-5.26662009619e-10
7.31357385168e-05
-3.95736190657e-10
7.31354755832e-05
-2.87597094436e-10
7.31352818679e-05
-2.00175782216e-10
7.31351417627e-05
-1.3046892762e-10
7.31350420133e-05
-7.51899374179e-11
7.31349700474e-05
-3.08082939571e-11
7.3134916637e-05
6.13186703156e-12
7.31348865429e-05
3.24028927823e-11
7.31348630084e-05
5.50653559791e-11
7.31348457732e-05
7.5185198648e-11
7.31348329386e-05
9.35042695327e-11
7.31348226986e-05
1.10713143018e-10
7.31348137827e-05
1.2752879824e-10
7.31348053026e-05
1.44322866514e-10
7.31347966246e-05
1.61167061859e-10
7.31347873069e-05
1.77861336645e-10
7.31347770973e-05
1.93896719323e-10
7.31347659432e-05
2.08478040448e-10
7.31347538954e-05
2.20613536229e-10
7.3134741009e-05
2.28523249102e-10
7.31347273565e-05
2.2971419895e-10
7.31347130738e-05
2.20959335997e-10
7.31346984501e-05
1.9822704753e-10
7.3134684025e-05
1.56941437512e-10
7.31346707828e-05
9.52698233768e-11
7.31346433919e-05
-1.91860763305e-11
7.31345980656e-05
-2.59543375663e-10
7.31345265029e-05
-6.19325327209e-10
7.3134405547e-05
-1.13336777479e-09
7.31341916292e-05
-1.87054494448e-09
7.31338158438e-05
-2.92086473864e-09
7.31331623121e-05
-4.41742451288e-09
7.31320365212e-05
-6.55426801566e-09
7.31301141158e-05
-9.61146510033e-09
7.31268676298e-05
-1.40127638963e-08
7.3121435508e-05
-2.0376364585e-08
7.31123959661e-05
-2.95872802718e-08
7.30974350327e-05
-4.29780394591e-08
7.30728380291e-05
-6.25845807186e-08
7.30326708311e-05
-9.14373175382e-08
7.29673753288e-05
-1.33645748532e-07
7.28618667516e-05
-1.95056232095e-07
7.26928689943e-05
-2.83447915271e-07
7.24257043484e-05
-4.08169307659e-07
7.20117293092e-05
-5.78401706971e-07
7.13893092319e-05
-7.98927574477e-07
7.04922444042e-05
-1.06430794695e-06
-1.34970172415e-06
6.92750118712e-05
5.07871724876e-05
5.44745718813e-11
5.29516495516e-05
5.27268797284e-11
5.59606879879e-05
2.86216684872e-11
5.9263321211e-05
1.40821118978e-11
6.24488074968e-05
2.72775329944e-12
6.52735477246e-05
-6.05503725226e-12
6.76333269142e-05
-1.18956302217e-11
6.95186621385e-05
-1.48118230372e-11
7.09734455302e-05
-1.52527723425e-11
7.2064790086e-05
-1.38136605698e-11
7.28642602407e-05
-1.11193242398e-11
7.3437811236e-05
-7.81152421881e-12
7.38414658916e-05
-4.53114898578e-12
7.41203519547e-05
-1.90395401943e-12
7.43094714795e-05
-5.0080215236e-13
7.44351993797e-05
-7.16431569781e-13
7.45169499289e-05
-2.80272198697e-12
7.45687303733e-05
-6.52793826577e-12
7.46004662172e-05
-1.12741448629e-11
7.46190715332e-05
-1.60843243489e-11
7.46292815236e-05
-1.98512955092e-11
7.46342823803e-05
-2.14929017541e-11
7.46361770742e-05
-2.05441791051e-11
7.46363240182e-05
-1.82710891895e-11
7.46355646579e-05
-1.58229124273e-11
7.46344187668e-05
-1.27418538799e-11
7.46331836e-05
-9.17642274715e-12
7.46320180765e-05
-5.1833118536e-12
7.46309959646e-05
-2.90097662706e-13
7.46301423276e-05
3.85179648828e-12
7.46294536216e-05
8.59888704016e-12
7.46289128687e-05
1.3645408217e-11
7.46284976967e-05
1.89419697193e-11
7.46281850554e-05
2.45519312262e-11
7.46279537724e-05
3.06665251372e-11
7.46277855259e-05
3.74253622178e-11
7.46276651502e-05
4.49277704942e-11
7.46275809823e-05
5.31665830462e-11
7.46275247822e-05
6.21665426002e-11
7.46274854255e-05
7.15902362032e-11
7.46274589148e-05
8.13829796279e-11
7.46274413982e-05
9.2461352928e-11
7.46274298797e-05
1.04714361391e-10
7.46274221361e-05
1.1808518308e-10
7.46274166359e-05
1.32603550715e-10
7.46274123081e-05
1.48179503601e-10
7.46274083951e-05
1.64570690518e-10
7.46274043541e-05
1.81369597732e-10
7.4627399751e-05
1.97951611664e-10
7.46273942321e-05
2.13431531071e-10
7.46273876246e-05
2.26663508829e-10
7.46273796993e-05
2.3590104612e-10
7.46273700851e-05
2.38810611038e-10
7.46273581468e-05
2.32437084333e-10
7.46273427429e-05
2.13188112678e-10
7.46273221331e-05
1.77140726821e-10
7.46272955189e-05
1.21477737452e-10
7.46272514398e-05
2.44718144563e-11
7.46271597529e-05
-1.68317709586e-10
7.46270217871e-05
-4.8183345913e-10
7.46267957805e-05
-9.0785696399e-10
7.46264209839e-05
-1.4962823155e-09
7.46258004171e-05
-2.30086561967e-09
7.46247764747e-05
-3.39405291174e-09
7.46230924143e-05
-4.8707522146e-09
7.46203285625e-05
-6.84811821308e-09
7.46158212164e-05
-9.50587345088e-09
7.46085035657e-05
-1.30591257749e-08
7.45966269938e-05
-1.77110719807e-08
7.45773807513e-05
-2.37321501245e-08
7.45463564347e-05
-3.15606545262e-08
7.4496764767e-05
-4.18460650509e-08
7.44178238977e-05
-5.47053208095e-08
7.42930640852e-05
-7.02968138844e-08
7.40979877385e-05
-8.8371825706e-08
7.37975874608e-05
-1.07769181699e-07
7.33449038903e-05
-1.25718289677e-07
7.2683012643e-05
-1.37036983945e-07
7.17532311664e-05
-1.34527307775e-07
-1.0966256327e-07
7.05131916011e-05
5.07871714636e-05
-7.87117108615e-07