/*--------------------------------*- C++ -*----------------------------------*\
| =========                 |                                                 |
| \\      /  F ield         | OpenFOAM: The Open Source CFD Toolbox           |
|  \\    /   O peration     | Version:  2106                                  |
|   \\  /    A nd           | Website:  www.openfoam.com                      |
|    \\/     M anipulation  |                                                 |
\*---------------------------------------------------------------------------*/
FoamFile
{
    version     2.0;
    format      ascii;
    arch        "LSB;label=32;scalar=64";
    class       surfaceScalarField;
    location    "0.158";
    object      phi;
}
// * * * * * * * * * * * * * * * * * * * * * * * * * * * * * * * * * * * * * //

dimensions      [0 3 -1 0 0 0 0];

oriented        oriented;

internalField   nonuniform List<scalar> 
799
(
1.57964e-32
4.15852e-32
5.27374e-32
3.98532e-32
1.25693e-32
-5.62853e-32
-1.17872e-31
-1.65949e-31
-1.78193e-31
-1.42615e-31
-8.89955e-32
-2.88914e-32
7.41626e-33
1.49995e-32
-8.74239e-33
-5.01218e-32
-1.03158e-31
-1.57651e-31
-1.99752e-31
-2.2949e-31
-2.23074e-31
-1.88678e-31
-1.29189e-31
-6.0083e-32
-2.11401e-32
-1.36739e-32
-5.69567e-32
-1.29189e-31
-1.9708e-31
-2.51248e-31
-2.55663e-31
-2.29917e-31
-1.85125e-31
-1.31603e-31
-1.08226e-31
-9.86443e-32
-1.17324e-31
-1.56687e-31
-1.88014e-31
-2.26137e-31
-2.36513e-31
-2.25417e-31
-2.03315e-31
-1.57941e-31
-1.3401e-31
-1.24992e-31
-1.42153e-31
-1.92337e-31
-2.33489e-31
-2.70947e-31
-2.74019e-31
-2.41286e-31
-1.99187e-31
-1.45933e-31
-1.22535e-31
-1.29676e-31
-1.63731e-31
-2.23743e-31
-2.70042e-31
-2.96054e-31
-2.83724e-31
-2.31381e-31
-1.70058e-31
-1.15875e-31
-1.03785e-31
-1.45223e-31
-2.19687e-31
-3.03846e-31
-3.49883e-31
-3.32948e-31
-2.6212e-31
-1.60893e-31
-8.49422e-32
-6.88701e-32
-1.16371e-31
-2.10535e-31
-2.974e-31
-3.42355e-31
-3.31131e-31
-2.72134e-31
-2.06114e-31
-1.57304e-31
-1.42109e-31
-1.5726e-31
-1.815e-31
-2.0754e-31
-2.27191e-31
-2.4538e-31
-2.65717e-31
-2.77993e-31
-2.76021e-31
-2.44877e-31
-1.92279e-31
-1.38822e-31
-1.06099e-31
-1.24916e-31
-1.83419e-31
-2.65094e-31
-3.34337e-31
-3.47569e-31
-3.12149e-31
-2.26219e-31
-1.35219e-31
-8.17979e-32
-7.25662e-32
-1.30303e-31
-2.09351e-31
-2.82905e-31
-3.26584e-31
-3.0933e-31
-2.65226e-31
-2.02189e-31
-1.55262e-31
-1.46389e-31
-1.57528e-31
-1.87841e-31
-2.04368e-31
-2.01544e-31
-1.88471e-31
-1.74236e-31
-1.83805e-31
-2.13936e-31
-2.55096e-31
-2.85533e-31
-2.8372e-31
-2.48636e-31
-1.88849e-31
-1.28961e-31
-9.07065e-32
-8.4895e-32
-1.14377e-31
-1.66277e-31
-2.26752e-31
-2.81576e-31
-3.12934e-31
-3.15148e-31
-2.80895e-31
-2.162e-31
-1.41887e-31
-7.65193e-32
-5.06245e-32
-7.2562e-32
-1.35123e-31
-2.18652e-31
-2.82806e-31
-3.08595e-31
-2.84367e-31
-2.23369e-31
-1.59858e-31
-1.15741e-31
-1.14123e-31
-1.47829e-31
-1.93934e-31
-2.30091e-31
-2.29652e-31
-1.95753e-31
-1.43908e-31
-1.01096e-31
-9.71481e-32
-1.36002e-31
-2.05874e-31
-2.7142e-31
-2.97007e-31
-2.6469e-31
-1.83025e-31
-9.21365e-32
-3.24549e-32
-3.87029e-32
-1.03465e-31
-1.91607e-31
-2.60473e-31
-2.65382e-31
-2.1691e-31
-1.37271e-31
-7.23157e-32
-6.35256e-32
-9.70086e-32
-1.63284e-31
-2.1017e-31
-2.09493e-31
-1.70283e-31
-9.62151e-32
-4.35215e-32
-2.66991e-32
-5.22363e-32
-1.15906e-31
-1.68007e-31
-2.0042e-31
-1.88514e-31
-1.37039e-31
-7.70944e-32
-1.63604e-32
1.16699e-32
8.3541e-33
-1.77502e-32
-6.06194e-32
-9.23047e-32
-1.10366e-31
-1.07721e-31
-8.34159e-32
-4.99892e-32
-7.30048e-33
3.39289e-32
6.42237e-32
7.95665e-32
6.94998e-32
3.93181e-32
2.87686e-33
-2.33542e-32
-1.56482e-32
2.96683e-32
9.95698e-32
1.69094e-31
2.02978e-31
1.87897e-31
1.34066e-31
7.33697e-32
5.1329e-32
9.31857e-32
1.92318e-31
3.12486e-31
3.97219e-31
4.06103e-31
3.39154e-31
2.30451e-31
1.46951e-31
1.44108e-31
2.34117e-31
3.94271e-31
5.53139e-31
6.47448e-31
6.49297e-31
5.63779e-31
4.56311e-31
3.86512e-31
3.96362e-31
4.98413e-31
6.44489e-31
7.88771e-31
8.82749e-31
9.02215e-31
8.71807e-31
8.20607e-31
7.93766e-31
8.20019e-31
8.96643e-31
1.00664e-30
1.11575e-30
1.195e-30
1.235e-30
1.25004e-30
1.26433e-30
1.30844e-30
1.39312e-30
1.49961e-30
1.60597e-30
1.67613e-30
1.7027e-30
1.71028e-30
1.7267e-30
1.79556e-30
1.92466e-30
2.08821e-30
2.25367e-30
2.37428e-30
2.43775e-30
2.4666e-30
2.48848e-30
2.5455e-30
2.65207e-30
2.79061e-30
2.94857e-30
3.0953e-30
3.224e-30
3.34875e-30
3.46687e-30
3.59661e-30
3.73108e-30
3.86063e-30
3.99551e-30
4.12795e-30
4.27444e-30
4.43676e-30
4.60362e-30
4.77411e-30
4.935e-30
5.09727e-30
5.27737e-30
5.48718e-30
5.72847e-30
5.97761e-30
6.2035e-30
6.38181e-30
6.52018e-30
6.65053e-30
6.82457e-30
7.07733e-30
7.40241e-30
7.76633e-30
8.10296e-30
8.37408e-30
8.57725e-30
8.74474e-30
8.94408e-30
9.20978e-30
9.55366e-30
9.9451e-30
1.03285e-29
1.06778e-29
1.09792e-29
1.12637e-29
1.15706e-29
1.19178e-29
1.23143e-29
1.27281e-29
1.31342e-29
1.35203e-29
1.38861e-29
1.42654e-29
1.46758e-29
1.51288e-29
1.56181e-29
1.61088e-29
1.65872e-29
1.70385e-29
1.74747e-29
1.79307e-29
1.84211e-29
1.89683e-29
1.95563e-29
2.0153e-29
2.07386e-29
2.12808e-29
2.17975e-29
2.23134e-29
2.28591e-29
2.34768e-29
2.41543e-29
2.48786e-29
2.5606e-29
2.62837e-29
2.68969e-29
2.74483e-29
2.79411e-29
2.85937e-29
2.93555e-29
3.09438e-29
3.35951e-29
3.74386e-29
4.45427e-29
4.74527e-29
5.04662e-29
3.36201e-29
-8.90586e-30
-6.00542e-29
-1.6542e-28
-1.55831e-28
-9.48084e-29
1.93443e-28
8.37906e-28
1.2035e-27
1.84622e-27
1.08486e-27
-7.32778e-28
-3.00784e-27
-7.51399e-27
-7.18415e-27
-5.90159e-27
1.778e-27
1.69062e-26
2.26981e-26
3.30791e-26
1.66788e-26
-1.35804e-26
-4.09765e-26
-9.04646e-26
-7.12913e-26
-4.21635e-26
3.16016e-26
1.54656e-25
1.62767e-25
1.9203e-25
5.43432e-26
-1.45568e-25
-2.4153e-25
-4.15679e-25
-2.36491e-25
-3.16108e-26
2.19187e-25
5.89228e-25
4.55189e-25
3.83067e-25
-3.70512e-26
-5.43969e-25
-5.80016e-25
-7.54219e-25
-2.54545e-25
2.23661e-25
5.06881e-25
9.15326e-25
5.06892e-25
2.23677e-25
-2.54531e-25
-7.54214e-25
-5.80022e-25
-5.43981e-25
-3.70652e-26
3.83058e-25
4.55187e-25
5.89232e-25
2.19194e-25
-3.16051e-26
-2.36489e-25
-4.15681e-25
-2.41535e-25
-1.45573e-25
5.43395e-26
1.92028e-25
1.62767e-25
1.54656e-25
3.16019e-26
-4.21639e-26
-7.12921e-26
-9.04654e-26
-4.09776e-26
-1.35813e-26
1.66778e-26
3.3078e-26
2.26971e-26
1.69052e-26
1.77715e-27
-5.90235e-27
-7.18483e-27
-7.51461e-27
-3.00848e-27
-7.33444e-28
1.08414e-27
1.84547e-27
1.20274e-27
8.37155e-28
1.92763e-28
-9.54078e-29
-1.5633e-28
-1.65852e-28
-6.04862e-29
-9.38242e-30
3.30377e-29
4.98014e-29
4.67555e-29
4.38869e-29
3.6911e-29
3.32044e-29
3.06736e-29
2.91335e-29
2.83317e-29
2.75952e-29
2.69925e-29
2.63658e-29
2.57377e-29
2.50996e-29
2.44709e-29
2.3861e-29
2.3284e-29
2.27323e-29
2.21824e-29
2.16135e-29
2.10113e-29
2.03849e-29
1.97698e-29
1.91932e-29
1.86817e-29
1.82286e-29
1.78045e-29
1.73836e-29
1.693e-29
1.6446e-29
1.59392e-29
1.543e-29
1.49502e-29
1.45055e-29
1.41099e-29
1.37519e-29
1.34117e-29
1.30722e-29
1.27066e-29
1.231e-29
1.18924e-29
1.14764e-29
1.10962e-29
1.07744e-29
1.05046e-29
1.02683e-29
1.00223e-29
9.73155e-30
9.39704e-30
9.02549e-30
8.66811e-30
8.36109e-30
8.11492e-30
7.93424e-30
7.76712e-30
7.58275e-30
7.35373e-30
7.06699e-30
6.76203e-30
6.46438e-30
6.21562e-30
6.03738e-30
5.91145e-30
5.8137e-30
5.69474e-30
5.5177e-30
5.27718e-30
4.99328e-30
4.7162e-30
4.50094e-30
4.37214e-30
4.32164e-30
4.30235e-30
4.24909e-30
4.12256e-30
3.91333e-30
3.65986e-30
3.41976e-30
3.24091e-30
3.14413e-30
3.10662e-30
3.09081e-30
3.04857e-30
2.96004e-30
2.8259e-30
2.66441e-30
2.51168e-30
2.37912e-30
2.28612e-30
2.22241e-30
2.17308e-30
2.12972e-30
2.06313e-30
1.98374e-30
1.88491e-30
1.78325e-30
1.70449e-30
1.63887e-30
1.60406e-30
1.56809e-30
1.51481e-30
1.4456e-30
1.34464e-30
1.25537e-30
1.18679e-30
1.15076e-30
1.15412e-30
1.15283e-30
1.1397e-30
1.09252e-30
1.01241e-30
9.32916e-31
8.58628e-31
8.10553e-31
7.80597e-31
7.48626e-31
7.18993e-31
6.84916e-31
6.67156e-31
6.79034e-31
7.03827e-31
7.26947e-31
7.03914e-31
6.16111e-31
4.8463e-31
3.4158e-31
2.60821e-31
2.75658e-31
3.77392e-31
5.27983e-31
6.30941e-31
6.35881e-31
5.22922e-31
3.22814e-31
1.36798e-31
2.77499e-32
5.01571e-32
1.89248e-31
3.5899e-31
4.9189e-31
5.05011e-31
3.95039e-31
2.18463e-31
3.90121e-32
-4.76352e-32
-2.41554e-32
8.70629e-32
2.33082e-31
3.24829e-31
3.38879e-31
2.67901e-31
1.49124e-31
4.71928e-32
-1.80466e-32
-2.12103e-32
1.66074e-32
6.58894e-32
1.17396e-31
1.44136e-31
1.5619e-31
1.50129e-31
1.24516e-31
9.20828e-32
4.63495e-32
6.23144e-33
-2.37198e-32
-3.67326e-32
-2.67102e-32
-3.95117e-33
3.20607e-32
6.62911e-32
9.56973e-32
1.08181e-31
9.75348e-32
6.73489e-32
1.45403e-32
-3.3782e-32
-7.29894e-32
-8.4783e-32
-6.28967e-32
-2.91508e-32
2.04073e-32
5.41512e-32
7.01445e-32
7.08742e-32
4.37615e-32
1.48703e-32
-2.40215e-32
-5.86149e-32
-7.42311e-32
-7.85072e-32
-5.36714e-32
-1.76014e-32
2.06962e-32
5.14404e-32
5.38914e-32
3.737e-32
1.48357e-33
-3.78897e-32
-6.50306e-32
-7.66821e-32
-6.5276e-32
-3.96832e-32
-7.61645e-33
1.9819e-32
3.28266e-32
2.67702e-32
6.3014e-33
-1.86996e-32
-3.78972e-32
-3.82267e-32
-2.97438e-32
-1.60171e-32
-1.16385e-32
-2.46354e-32
-3.56733e-32
-4.24968e-32
-2.22836e-32
1.72036e-32
5.06715e-32
6.49445e-32
3.05004e-32
-3.07227e-32
-9.27817e-32
-1.22704e-31
-9.03216e-32
-1.92397e-32
6.57825e-32
1.14451e-31
1.00502e-31
3.65325e-32
-5.26712e-32
-1.11008e-31
-1.16099e-31
-6.54365e-32
1.50982e-32
7.50646e-32
9.32496e-32
5.61724e-32
-9.59203e-33
-6.41214e-32
-8.43726e-32
-5.1955e-32
7.65182e-33
6.34534e-32
8.84435e-32
6.15545e-32
3.86898e-33
-5.99899e-32
-9.90814e-32
-8.76938e-32
-3.79261e-32
3.38076e-32
9.67268e-32
1.195e-31
1.02104e-31
4.64044e-32
-2.49205e-32
-8.07371e-32
-1.1147e-31
-1.00064e-31
-5.37929e-32
9.15668e-33
7.87224e-32
1.24278e-31
1.36761e-31
1.09783e-31
4.30295e-32
-3.48187e-32
-1.0493e-31
-1.35664e-31
-1.09934e-31
-3.82839e-32
6.06472e-32
1.41783e-31
1.72091e-31
1.38137e-31
4.98e-32
-4.9844e-32
-1.18129e-31
-1.23828e-31
-6.34002e-32
3.09994e-32
1.15677e-31
1.51733e-31
1.21416e-31
4.57431e-32
-3.87413e-32
-9.12695e-32
-8.22793e-32
-2.49363e-32
5.75981e-32
1.22994e-31
1.35221e-31
1.01113e-31
2.72083e-32
-4.11945e-32
-6.96321e-32
-5.69127e-32
5.44677e-33
7.04976e-32
1.13431e-31
1.22023e-31
7.96462e-32
2.85188e-32
-1.97649e-32
-4.21305e-32
-2.25394e-32
1.05723e-32
5.56609e-32
8.6399e-32
9.19662e-32
8.38141e-32
5.93792e-32
3.73351e-32
2.42095e-32
1.69226e-32
1.8901e-32
2.12756e-32
1.9394e-32
2.04876e-32
2.05149e-32
3.02323e-32
5.29638e-32
7.67837e-32
1.05842e-31
1.143e-31
1.00223e-31
6.49889e-32
6.80865e-33
-3.69628e-32
-6.29e-32
-4.81629e-32
5.21054e-33
6.92391e-32
1.3242e-31
1.55854e-31
1.40536e-31
8.85965e-32
2.48174e-32
-2.43305e-32
-4.4984e-32
-2.38379e-32
6.73398e-33
5.5387e-32
7.56605e-32
7.61796e-32
6.90446e-32
2.41135e-32
1.46025e-32
-1.79894e-32
-2.43147e-32
-4.51228e-33
)
;

boundaryField
{
    left
    {
        type            calculated;
        value           uniform 0;
    }
    right
    {
        type            calculated;
        value           uniform 0;
    }
    empty
    {
        type            empty;
        value           nonuniform List<scalar> 0();
    }
}


// ************************************************************************* //
