/*--------------------------------*- C++ -*----------------------------------*\
| =========                 |                                                 |
| \\      /  F ield         | OpenFOAM: The Open Source CFD Toolbox           |
|  \\    /   O peration     | Version:  2106                                  |
|   \\  /    A nd           | Website:  www.openfoam.com                      |
|    \\/     M anipulation  |                                                 |
\*---------------------------------------------------------------------------*/
FoamFile
{
    version     2.0;
    format      ascii;
    arch        "LSB;label=32;scalar=64";
    class       surfaceScalarField;
    location    "0.275";
    object      phi;
}
// * * * * * * * * * * * * * * * * * * * * * * * * * * * * * * * * * * * * * //

dimensions      [0 3 -1 0 0 0 0];

oriented        oriented;

internalField   nonuniform List<scalar> 
22100
(
3.38461202583e-05
1.61538796842e-05
2.24572095456e-05
1.13889105001e-05
1.62585524634e-05
6.1986569181e-06
1.27977752454e-05
3.46077703221e-06
1.08046411697e-05
1.9931339318e-06
9.60458790472e-06
1.20005308203e-06
8.85131990102e-06
7.53267838498e-07
8.36435084882e-06
4.86968911018e-07
8.04433268897e-06
3.20017987186e-07
7.83283762007e-06
2.11494920111e-07
7.69339419708e-06
1.39443307092e-07
7.60223703342e-06
9.11570563397e-08
7.54347396908e-06
5.87629847938e-08
7.50633674862e-06
3.713714653e-08
7.48349690801e-06
2.28397635218e-08
7.46997573093e-06
1.35210876766e-08
7.46241074236e-06
7.56488172531e-09
7.45854235695e-06
3.86828076347e-09
7.45682296931e-06
1.71928891133e-09
7.45641599272e-06
4.06902756485e-10
7.45676545556e-06
-3.49526372059e-10
7.45745126097e-06
-6.858864099e-10
7.45820923674e-06
-7.58066881738e-10
7.45893418692e-06
-7.2505211146e-10
7.45957816174e-06
-6.44083522127e-10
7.46012178633e-06
-5.43727532138e-10
7.46056360997e-06
-4.41923128085e-10
7.46091207658e-06
-3.48574808386e-10
7.46118008774e-06
-2.68135446853e-10
7.46138173837e-06
-2.01788287072e-10
7.46153041007e-06
-1.48820170893e-10
7.46163781e-06
-1.07549535557e-10
7.46171366347e-06
-7.59958527053e-11
7.46176610551e-06
-5.25698651964e-11
7.46179907998e-06
-3.3102312157e-11
7.46181757531e-06
-1.86375092025e-11
7.46182635795e-06
-8.93618201501e-12
7.46182887933e-06
-2.66468644035e-12
7.46182707945e-06
1.66455435204e-12
7.46182207999e-06
4.85198352819e-12
7.46181481778e-06
7.10686373957e-12
7.46180589569e-06
8.75485649635e-12
7.46179570226e-06
1.00376012821e-11
7.46178441556e-06
1.11377571665e-11
7.46177203008e-06
1.22252978748e-11
7.46175842173e-06
1.34452942773e-11
7.46174334304e-06
1.49022888086e-11
7.46172646333e-06
1.66865958729e-11
7.46170736422e-06
1.889025794e-11
7.46168552156e-06
2.16053079525e-11
7.46166032967e-06
2.49000290464e-11
7.46163110593e-06
2.88889120244e-11
7.46159707118e-06
3.36807488183e-11
7.4615573788e-06
3.93417446543e-11
7.46151116443e-06
4.58723897671e-11
7.46145761989e-06
5.32263112529e-11
7.46139607758e-06
6.12818016068e-11
7.46132640496e-06
6.94614016974e-11
7.46124925525e-06
7.69423152672e-11
7.46116703651e-06
8.20192185713e-11
7.46108599071e-06
8.0880809481e-11
7.46101833504e-06
6.75587148847e-11
7.46097181367e-06
4.65010713019e-11
7.46096554733e-06
6.30862595227e-12
7.46103538879e-06
-6.98168254386e-11
7.4612395458e-06
-2.04181836217e-10
7.46167245447e-06
-4.32948919728e-10
7.46248415796e-06
-8.11689739093e-10
7.46390991003e-06
-1.42568128594e-09
7.46630528798e-06
-2.39528562773e-09
7.47012005269e-06
-3.81473761068e-09
7.47656452645e-06
-6.44456040882e-09
7.48733211126e-06
-1.07677564745e-08
7.50550584388e-06
-1.81738628343e-08
7.53869497889e-06
-3.31891781212e-08
7.60792556875e-06
-6.92305690194e-08
7.77463649693e-06
-1.66710862966e-07
8.22969526642e-06
-4.55058581117e-07
9.69783324035e-06
-1.46813785806e-06
-5.45360601825e-06
1.51514391115e-05
5.02175947791e-05
1.59362847337e-05
4.42441112537e-05
1.7362393587e-05
3.77795009214e-05
1.26632669103e-05
3.2646143178e-05
8.59413439232e-06
2.89380908348e-05
5.70118595151e-06
2.63596201804e-05
3.77852338897e-06
2.45875155008e-05
2.5253721299e-06
2.33734731908e-05
1.70101083261e-06
2.25435238721e-05
1.14996687628e-06
2.19782149339e-05
7.76803412833e-07
2.15955121933e-05
5.22145620754e-07
2.13387354203e-05
3.47933377892e-07
2.11684936989e-05
2.29004234393e-07
2.10573358871e-05
1.48294460049e-07
2.09861477634e-05
9.40273567177e-08
2.09416751686e-05
5.79931295143e-08
2.09147931416e-05
3.44463606038e-08
2.08992938439e-05
1.93670650632e-08
2.08910699145e-05
9.9427117682e-09
2.08872694159e-05
4.2068609051e-09
2.08862001677e-05
7.19159379343e-10
2.08864456159e-05
-9.31902485554e-10
2.08873167666e-05
-1.62978075571e-09
2.08884559747e-05
-1.86480146837e-09
2.0889629012e-05
-1.81763426008e-09
2.08907117172e-05
-1.62691499459e-09
2.08916490305e-05
-1.37969216686e-09
2.08924262771e-05
-1.1262584778e-09
2.08930512123e-05
-8.9351176287e-10
2.08935430545e-05
-6.9407718548e-10
2.08939265982e-05
-5.32806912864e-10
2.0894227844e-05
-4.09236930505e-10
2.08944385207e-05
-2.87126749977e-10
2.08945852906e-05
-1.99789925851e-10
2.08946853624e-05
-1.33606760019e-10
2.08947504391e-05
-8.4130700518e-11
2.0894790694e-05
-4.96067021155e-11
2.08948143037e-05
-2.66869342389e-11
2.08948260774e-05
-1.05171140247e-11
2.08948289347e-05
1.57316871028e-12
2.089482529e-05
1.03143771647e-11
2.08948168185e-05
1.67898612867e-11
2.08948046681e-05
2.17629204971e-11
2.08947895545e-05
2.58544847589e-11
2.08947718426e-05
2.95663419133e-11
2.08947516577e-05
3.32526985532e-11
2.08947289604e-05
3.71740635263e-11
2.08947036089e-05
4.15397792942e-11
2.08946753898e-05
4.65427300215e-11
2.08946440406e-05
5.23540514555e-11
2.08946093648e-05
5.89763961947e-11
2.0894571231e-05
6.64291503223e-11
2.08945296417e-05
7.46569660852e-11
2.08944849056e-05
8.34383318058e-11
2.08944379006e-05
9.22579730739e-11
2.08943904312e-05
1.00139168406e-10
2.08943457414e-05
1.0549001085e-10
2.08943097832e-05
1.05049089212e-10
2.08942919954e-05
9.44666131438e-11
2.08943075607e-05
6.62845636077e-11
2.08943831687e-05
5.16688856809e-12
2.08945677485e-05
-1.17131646833e-10
2.0894929577e-05
-3.1541323459e-10
2.08955869785e-05
-6.51118670828e-10
2.08966489857e-05
-1.13172847807e-09
2.08982912446e-05
-1.84625101123e-09
2.09008716191e-05
-3.01316749633e-09
2.09049380473e-05
-4.87807247392e-09
2.09113598605e-05
-7.84746940342e-09
2.09215610614e-05
-1.2596370924e-08
2.09380323911e-05
-2.02858252521e-08
2.09649217253e-05
-3.33335445071e-08
2.1009170795e-05
-5.50164281072e-08
2.10839583485e-05
-9.29610394711e-08
2.12152217088e-05
-1.64452511118e-07
2.14558925076e-05
-3.09901857197e-07
2.19138802345e-05
-6.24699152095e-07
2.28012207424e-05
-1.34239969417e-06
2.44459760853e-05
-3.11289391174e-06
-7.04151537578e-06
2.60338853058e-05
5.35171052296e-05
1.24191793335e-05
5.29349679099e-05
1.79445305247e-05
4.96538394992e-05
1.59443950685e-05
4.5840180556e-05
1.24077930415e-05
4.24400912883e-05
9.10127494786e-06
3.97291710437e-05
6.48944337138e-06
3.76873042741e-05
4.56723865103e-06
3.61976611554e-05
3.19065371288e-06
3.51326102155e-05
2.21501757548e-06
3.43823648726e-05
1.52704853508e-06
3.38606236267e-05
1.04388667673e-06
3.35023431258e-05
7.06213691422e-07
3.32595979712e-05
4.71749202469e-07
3.30975874077e-05
3.10304819583e-07
3.2991331071e-05
2.0028348027e-07
3.29230889239e-05
1.26235056058e-07
3.28804007062e-05
7.71343706622e-08
3.28546153018e-05
4.51522757266e-08
3.28397879397e-05
2.47698907047e-08
3.28318611404e-05
1.2133469555e-08
3.28279913589e-05
4.58872862164e-09
3.28269923971e-05
6.68319188201e-11
3.28271728398e-05
-1.81045482068e-09
3.28280209194e-05
-2.71310959701e-09
3.28291363551e-05
-2.93329543207e-09
3.28302832575e-05
-2.77404797154e-09
3.28313388702e-05
-2.43554921464e-09
3.28322488827e-05
-2.03652960452e-09
3.28329984496e-05
-1.64334523796e-09
3.28335936651e-05
-1.28955956587e-09
3.2834049477e-05
-9.88879291295e-10
3.28343839932e-05
-7.44005331777e-10
3.28346498854e-05
-5.53268569245e-10
3.28348657472e-05
-4.15902085368e-10
3.28350124401e-05
-2.80559923634e-10
3.28351111506e-05
-1.83103975444e-10
3.28351765066e-05
-1.15221000858e-10
3.28352179335e-05
-6.83706142183e-11
3.28352422952e-05
-3.51540824837e-11
3.2835253557e-05
-9.96279572169e-12
3.28352552672e-05
8.32035177924e-12
3.2835249931e-05
2.18321281182e-11
3.28352393824e-05
3.20173966676e-11
3.28352248469e-05
4.00978167858e-11
3.28352070719e-05
4.70572201379e-11
3.2835186505e-05
5.35361022866e-11
3.2835163422e-05
5.99496869212e-11
3.28351380067e-05
6.65979955562e-11
3.28351103429e-05
7.37737283155e-11
3.28350804514e-05
8.17408976694e-11
3.28350486639e-05
9.02255665607e-11
3.28350155865e-05
9.89701505968e-11
3.28349822298e-05
1.074803618e-10
3.28349503551e-05
1.14789271332e-10
3.28349229824e-05
1.19152371478e-10
3.28349048537e-05
1.17838520925e-10
3.2834902825e-05
1.07102802067e-10
3.28349283422e-05
7.91838871361e-11
3.28349986777e-05
2.38662536132e-11
3.2835143429e-05
-7.86735163431e-11
3.28354139311e-05
-2.6547132644e-10
3.28358988371e-05
-6.02127257368e-10
3.28366135671e-05
-1.03021325145e-09
3.2837652093e-05
-1.68968764049e-09
3.28392718252e-05
-2.75145492788e-09
3.28418494512e-05
-4.42380632052e-09
3.28458887352e-05
-7.0523264254e-09
3.28522039926e-05
-1.11932000942e-08
3.28621082613e-05
-1.77516515507e-08
3.28777661748e-05
-2.82543362691e-08
3.29028389401e-05
-4.53587712164e-08
3.2942679253e-05
-7.31740235517e-08
3.30071194155e-05
-1.19456571418e-07
3.31131477843e-05
-1.98989175645e-07
3.32897888374e-05
-3.41093350092e-07
3.35852692647e-05
-6.0538201048e-07
3.40707113267e-05
-1.11014080731e-06
3.48123222061e-05
-2.08401069338e-06
3.56739807732e-05
-3.97455341129e-06
-7.11073914697e-06
3.57432048818e-05
5.35105663486e-05
8.90861281277e-06
5.55742218191e-05
1.58808746742e-05
5.52424818953e-05
1.62761347065e-05
5.35977851067e-05
1.40524895232e-05
5.15418466317e-05
1.11572131416e-05
4.95802786194e-05
8.45101107259e-06
4.79243493438e-05
6.22316760265e-06
4.66181372112e-05
4.49686550892e-06
4.5630464136e-05
3.20269029778e-06
4.49051149366e-05
2.25239740295e-06
4.43840875145e-05
1.56491377397e-06
4.40166911356e-05
1.07360974198e-06
4.37619644132e-05
7.26475588076e-07
4.35882655722e-05
4.84003309286e-07
4.34718659749e-05
3.16682718387e-07
4.33953556671e-05
2.0274500719e-07
4.33461851646e-05
1.26304534263e-07
4.33154473327e-05
7.58897723799e-08
4.32969107454e-05
4.33061412031e-08
4.32862844449e-05
2.27594287668e-08
4.3280681362e-05
1.01914622885e-08
4.32778734435e-05
2.8743981457e-09
4.32770453908e-05
-9.82752638819e-10
4.3277263038e-05
-2.93109209523e-09
4.32779503394e-05
-3.62090959584e-09
4.32788131589e-05
-3.63716835147e-09
4.32796857143e-05
-3.30841843851e-09
4.32804828791e-05
-2.8340367956e-09
4.32811683086e-05
-2.32912919854e-09
4.32817338043e-05
-1.8553981775e-09
4.32821862057e-05
-1.44160458138e-09
4.32825382081e-05
-1.09631206706e-09
4.32827995616e-05
-8.14909939748e-10
4.32829745223e-05
-5.91163153148e-10
4.3283107147e-05
-4.13512228972e-10
4.32831921144e-05
-2.68417103371e-10
4.32832457399e-05
-1.69174668681e-10
4.32832852003e-05
-1.08142415004e-10
4.32833092856e-05
-5.95364189222e-11
4.32833209815e-05
-2.19709508854e-11
4.32833237012e-05
5.2773960769e-12
4.32833194197e-05
2.58091548034e-11
4.32833098479e-05
4.13015555689e-11
4.32832961447e-05
5.3522453177e-11
4.3283278953e-05
6.39661575327e-11
4.32832586889e-05
7.34938587792e-11
4.32832356726e-05
8.26242863122e-11
4.3283210179e-05
9.17081003316e-11
4.32831825536e-05
1.00951587843e-10
4.32831533861e-05
1.10410043152e-10
4.32831233309e-05
1.19764501669e-10
4.32830933656e-05
1.28422029278e-10
4.32830649538e-05
1.35375524285e-10
4.32830402054e-05
1.39011498649e-10
4.32830220783e-05
1.36762875495e-10
4.32830149647e-05
1.24481528543e-10
4.32830267979e-05
9.48660390841e-11
4.32830695594e-05
3.61214850628e-11
4.32831624164e-05
-6.92338837282e-11
4.32833227412e-05
-2.39231079941e-10
4.32835597247e-05
-5.02671179953e-10
4.32840003005e-05
-1.04279161013e-09
4.32847671759e-05
-1.79706492169e-09
4.32860159084e-05
-2.93832577812e-09
4.32879536626e-05
-4.68912214353e-09
4.32909299692e-05
-7.4000638455e-09
4.32955042712e-05
-1.16265518806e-08
4.33025550977e-05
-1.82438436788e-08
4.33134645268e-05
-2.86608592061e-08
4.33303906464e-05
-4.51802871587e-08
4.33566432348e-05
-7.16112880838e-08
4.33977939389e-05
-1.14324680554e-07
4.34626961417e-05
-1.84358784862e-07
4.35650777303e-05
-3.0137100264e-07
4.3724899641e-05
-5.00915671708e-07
4.39667679349e-05
-8.47250662687e-07
4.4307359193e-05
-1.45073262813e-06
4.47079750821e-05
-2.4846266015e-06
4.49276606028e-05
-4.19423887878e-06
-6.58186762584e-06
4.43987889924e-05
5.27351378754e-05
6.173474771e-06
5.57309339993e-05
1.28850781874e-05
5.73114736156e-05
1.46955948306e-05
5.76109908691e-05
1.37529719843e-05
5.7133521511e-05
1.16346822666e-05
5.63194667999e-05
9.26506552328e-06
5.54489864655e-05
7.09364767118e-06
5.46629757616e-05
5.28287594278e-06
5.40136800481e-05
3.85198571138e-06
5.35061485932e-05
2.75992857624e-06
5.31242525808e-05
1.94680952072e-06
5.28449829608e-05
1.35287909887e-06
5.26454366519e-05
9.26021626322e-07
5.25057123586e-05
6.23727332421e-07
5.24097175513e-05
4.12677251782e-07
5.23450115154e-05
2.67450778656e-07
5.23022736761e-05
1.69042117856e-07
5.22746864943e-05
1.03476696779e-07
5.22573619036e-05
6.06304560752e-08
5.22468531334e-05
3.32679156981e-08
5.22407532967e-05
1.62910150383e-08
5.22374442185e-05
6.18318781706e-09
5.22359452749e-05
5.15901226589e-10
5.22354369834e-05
-2.4230900561e-09
5.22355015373e-05
-3.68575099994e-09
5.22358465528e-05
-3.98246734877e-09
5.22363003151e-05
-3.76246347508e-09
5.2236766183e-05
-3.300207143e-09
5.22371930595e-05
-2.75633143523e-09
5.22375582399e-05
-2.22090108385e-09
5.22378550419e-05
-1.73869617443e-09
5.22380862468e-05
-1.32778259581e-09
5.22382621219e-05
-9.91055727477e-10
5.2238394564e-05
-7.23899668312e-10
5.22384944806e-05
-5.13743756193e-10
5.22385786692e-05
-3.52923681817e-10
5.22386437894e-05
-2.34591745969e-10
5.22386857203e-05
-1.50363254882e-10
5.22387181116e-05
-9.22005005473e-11
5.22387331776e-05
-3.73106525095e-11
5.22387380615e-05
1.03484641161e-13
5.22387353464e-05
2.82220187974e-11
5.22387269977e-05
4.93536456542e-11
5.22387143356e-05
6.58932644201e-11
5.22386982231e-05
7.97945860712e-11
5.22386792161e-05
9.22049742366e-11
5.22386578036e-05
1.03719211468e-10
5.22386347199e-05
1.14410863416e-10
5.22386105902e-05
1.24631073881e-10
5.2238583815e-05
1.36685153486e-10
5.22385560536e-05
1.47006055571e-10
5.22385284044e-05
1.55546885746e-10
5.22385024224e-05
1.60828978215e-10
5.22384806253e-05
1.60275298371e-10
5.22384680063e-05
1.48870419132e-10
5.22384756267e-05
1.1640545786e-10
5.22385049157e-05
6.52098971382e-11
5.22385784078e-05
-3.77035718541e-11
5.22386964729e-05
-1.87597586711e-10
5.22388869288e-05
-4.29959943962e-10
5.22392221971e-05
-8.38137648496e-10
5.22397351153e-05
-1.55576999798e-09
5.22405025608e-05
-2.56447161861e-09
5.22416566876e-05
-4.0923922457e-09
5.22434005228e-05
-6.43290229976e-09
5.22460352434e-05
-1.0034711014e-08
5.22500125575e-05
-1.56037605299e-08
5.22560233386e-05
-2.42545376118e-08
5.22651261965e-05
-3.77636842505e-08
5.22789385739e-05
-5.89926447517e-08
5.22999189429e-05
-9.25915360915e-08
5.23317841976e-05
-1.46189653634e-07
5.23798799867e-05
-2.3245442441e-07
5.24511367318e-05
-3.72627930754e-07
5.25524253445e-05
-6.0220449412e-07
5.26843014156e-05
-9.79126289816e-07
5.2824549455e-05
-1.59098033616e-06
5.2891682414e-05
-2.55176010723e-06
5.26731952076e-05
-3.97575236891e-06
-5.77287750263e-06
5.18642047301e-05
5.19834863372e-05
4.18998826674e-06
5.50586635175e-05
9.80990064188e-06
5.76386125358e-05
1.21156455593e-05
5.93259022169e-05
1.20656819956e-05
6.02280140225e-05
1.07325701899e-05
6.05929249399e-05
8.90015430287e-06
6.06482815864e-05
7.03829072079e-06
6.0553186854e-05
5.3779703768e-06
6.04029519875e-05
4.00222026482e-06
6.02479111997e-05
2.91496905389e-06
6.01107854001e-05
2.08393501474e-06
5.99990256051e-05
1.46463857938e-06
5.99125101562e-05
1.01253676162e-06
5.98479179893e-05
6.88319194794e-07
5.9801014154e-05
4.59580804384e-07
5.97677292331e-05
3.0073542282e-07
5.97445876027e-05
1.92183472853e-07
5.97288087804e-05
1.19255248903e-07
5.97182603365e-05
7.11786084229e-08
5.97113538344e-05
4.01741046005e-08
5.97069341726e-05
2.0710361763e-08
5.97041999649e-05
8.91708860846e-09
5.97025906268e-05
2.12494470563e-09
5.97016857914e-05
-1.51854445447e-09
5.97012271881e-05
-3.22744990307e-09
5.97010373376e-05
-3.79294604779e-09
5.97010007119e-05
-3.72617173314e-09
5.97010446597e-05
-3.34447877865e-09
5.97011254594e-05
-2.83745186325e-09
5.97012174498e-05
-2.31320497825e-09
5.97013067687e-05
-1.82830794818e-09
5.97013867875e-05
-1.40808655225e-09
5.97014560617e-05
-1.06062949503e-09
5.97015151909e-05
-7.83340935315e-10
5.97015649807e-05
-5.63867321305e-10
5.97016043526e-05
-3.92616392708e-10
5.97016317373e-05
-2.62299290126e-10
5.97016466487e-05
-1.65580318018e-10
5.97016446549e-05
-9.04885748632e-11
5.97016362973e-05
-2.92285648212e-11
5.97016293842e-05
6.72856613947e-12
5.97016198196e-05
3.74996020887e-11
5.970160914e-05
5.97581955526e-11
5.97015972566e-05
7.75032541648e-11
5.97015831071e-05
9.36572462938e-11
5.9701566519e-05
1.0848345085e-10
5.97015475154e-05
1.22374553762e-10
5.97015259963e-05
1.35519674052e-10
5.97015022792e-05
1.47909943365e-10
5.97014792357e-05
1.59272541782e-10
5.9701456873e-05
1.68883941591e-10
5.97014364435e-05
1.75441091568e-10
5.97014196462e-05
1.77039128286e-10
5.9701408172e-05
1.71160021463e-10
5.97014016343e-05
1.54867828017e-10
5.97013916465e-05
1.25956274124e-10
5.97013946159e-05
6.190283392e-11
5.97014056535e-05
-4.90488882819e-11
5.97014837343e-05
-2.65973837433e-10
5.97016686259e-05
-6.15065681717e-10
5.97019650036e-05
-1.13463681777e-09
5.97023474728e-05
-1.93826357718e-09
5.97029200172e-05
-3.13699165311e-09
5.97037651353e-05
-4.93751839751e-09
5.97049964868e-05
-7.66424067721e-09
5.97067787458e-05
-1.18168818448e-08
5.97093495598e-05
-1.81744221656e-08
5.97130523165e-05
-2.79571419685e-08
5.97183759418e-05
-4.30871891784e-08
5.97260003769e-05
-6.66170235926e-08
5.97368266026e-05
-1.03417671182e-07
5.97519160133e-05
-1.61278886735e-07
5.97721048847e-05
-2.52643128357e-07
5.97968004338e-05
-3.97323394415e-07
5.98208443662e-05
-6.26248589201e-07
5.98273575121e-05
-9.85639826778e-07
5.97742882411e-05
-1.53791112716e-06
5.95736833741e-05
-2.35115571246e-06
5.90676441992e-05
-3.46971345025e-06
-4.80102773881e-06
5.80957939684e-05
5.14373052362e-05
2.75268286848e-06
5.42658201128e-05
6.98138541576e-06
5.72496425536e-05
9.13182289498e-06
5.97900266257e-05
9.52529764757e-06
6.17201268607e-05
8.80246969931e-06
6.30883015067e-05
7.53197934887e-06
6.40167147623e-05
6.10987715332e-06
6.46292342639e-05
4.76545056934e-06
6.50258009148e-05
3.60565329973e-06
6.52790751987e-05
2.66169447641e-06
6.54389699654e-05
1.92403996109e-06
6.55386865181e-05
1.36492173953e-06
6.55999247827e-05
9.51298205574e-07
6.56367393327e-05
6.51504354818e-07
6.5658190188e-05
4.3812967128e-07
6.567009818e-05
2.88827160132e-07
6.56761871901e-05
1.86094190798e-07
6.56788232737e-05
1.16618894384e-07
6.5679493484e-05
7.05081147676e-08
6.56791170458e-05
4.05502441632e-08
6.56782494203e-05
2.15776811605e-08
6.56772182769e-05
9.94792241777e-09
6.5676208808e-05
3.13411512682e-09
6.56752993131e-05
-6.09330114622e-10
6.56745304094e-05
-2.45882269656e-09
6.56739018221e-05
-3.16466920966e-09
6.56734026734e-05
-3.22736827703e-09
6.56730155169e-05
-2.95766583831e-09
6.56727213746e-05
-2.54363272418e-09
6.56725020807e-05
-2.09421970687e-09
6.5672341537e-05
-1.66803697675e-09
6.56722260502e-05
-1.29286026297e-09
6.56721434657e-05
-9.78327431523e-10
6.5672083164e-05
-7.23355414714e-10
6.56720393802e-05
-5.20423998413e-10
6.56720079068e-05
-3.61467365047e-10
6.56719826227e-05
-2.37303968264e-10
6.56719608456e-05
-1.44072438183e-10
6.56719456791e-05
-7.56039126844e-11
6.56719437107e-05
-2.75476287414e-11
6.56719419252e-05
8.22050864184e-12
6.56719342994e-05
4.4829624123e-11
6.5671923938e-05
6.98443489873e-11
6.56719111646e-05
9.00245950422e-11
6.56718968175e-05
1.07739897455e-10
6.56718808909e-05
1.24095912864e-10
6.56718632171e-05
1.39665088553e-10
6.56718437234e-05
1.54574213586e-10
6.56718230064e-05
1.68167173882e-10
6.56718030476e-05
1.78773431919e-10
6.56717827192e-05
1.8874102641e-10
6.56717625586e-05
1.95095341441e-10
6.56717436973e-05
1.95361264214e-10
6.56717280065e-05
1.86281940298e-10
6.56717191016e-05
1.63209174655e-10
6.56717244445e-05
1.20118769488e-10
6.56717314735e-05
5.448516923e-11
6.56717593613e-05
-7.72347373609e-11
6.56718262121e-05
-3.33036684944e-10
6.56719213544e-05
-7.10341704571e-10
6.56720681291e-05
-1.28150937421e-09
6.56722731615e-05
-2.14337530346e-09
6.56725527266e-05
-3.41657565723e-09
6.5672923172e-05
-5.30795197489e-09
6.56733951279e-05
-8.13618351201e-09
6.56739658383e-05
-1.23875834662e-08
6.56746048009e-05
-1.88133573246e-08
6.56752257622e-05
-2.85779675905e-08
6.56756267061e-05
-4.34879262703e-08
6.56753789487e-05
-6.6369101619e-08
6.56736126483e-05
-1.01651323228e-07
6.56685914767e-05
-1.56257772935e-07
6.56567778743e-05
-2.40829647938e-07
6.56310391863e-05
-3.71584805511e-07
6.55772181986e-05
-5.72427568129e-07
6.546807064e-05
-8.76492847315e-07
6.52544107494e-05
-1.32425113633e-06
6.48561543652e-05
-1.9528999042e-06
6.41607653303e-05
-2.77432462629e-06
-3.7181870307e-06
6.30779240711e-05
5.10850422314e-05
1.66764048623e-06
5.36118441045e-05
4.45458318803e-06
5.66873158024e-05
6.05635095697e-06
5.96894455416e-05
6.52316762998e-06
6.22997259061e-05
6.19218908348e-06
6.44136871866e-05
5.41801776412e-06
6.60471830448e-05
4.47638097278e-06
6.72686143275e-05
3.54401897026e-06
6.81598931008e-05
2.71437419074e-06
6.8797759464e-05
2.02382778826e-06
6.92467436362e-05
1.47505548493e-06
6.95579622914e-05
1.05370279186e-06
6.97704288172e-05
7.38831399351e-07
6.99131717569e-05
5.08761128009e-07
7.00073827987e-05
3.43918368518e-07
7.00682923465e-05
2.27917361328e-07
7.01066943833e-05
1.47691879472e-07
7.01301367052e-05
9.31762773273e-08
7.01438258498e-05
5.68186665966e-08
7.0151301966e-05
3.30738226666e-08
7.01549344549e-05
1.79448868002e-08
7.01562822442e-05
8.59982767074e-09
7.01563541394e-05
3.06191678667e-09
7.01557620925e-05
-1.75842739115e-11
7.01549012097e-05
-1.5982351778e-09
7.01539775732e-05
-2.24132561091e-09
7.01531088808e-05
-2.35899295494e-09
7.01523488065e-05
-2.19792320963e-09
7.01517145727e-05
-1.90972110584e-09
7.0151203332e-05
-1.58326872807e-09
7.01508021559e-05
-1.26712671192e-09
7.01504940597e-05
-9.85056945284e-10
7.01502614006e-05
-7.45985704367e-10
7.01500880135e-05
-5.50317572036e-10
7.01499609272e-05
-3.93683547875e-10
7.01498695006e-05
-2.70376975398e-10
7.01498066461e-05
-1.74754880784e-10
7.01497648972e-05
-1.02599358052e-10
7.01497361608e-05
-4.71406346585e-11
7.0149705952e-05
2.36881859046e-12
7.01496823646e-05
3.15102269132e-11
7.0149669152e-05
5.77422301292e-11
7.01496584411e-05
8.02765935561e-11
7.0149648329e-05
9.9869748031e-11
7.01496380424e-05
1.17748209498e-10
7.01496271866e-05
1.34645687512e-10
7.01496156029e-05
1.5088351783e-10
7.01496033321e-05
1.66435844759e-10
7.01495901229e-05
1.80928502738e-10
7.01495746436e-05
1.93749139499e-10
7.01495588479e-05
2.03988201255e-10
7.0149543511e-05
2.09859137498e-10
7.01495294159e-05
2.08907844571e-10
7.01495172022e-05
1.97985509393e-10
7.01495065656e-05
1.73372265605e-10
7.01494950416e-05
1.31205738706e-10
7.01494842689e-05
6.48895226589e-11
7.01494752541e-05
-6.8512030842e-11
7.0149481907e-05
-3.39917894264e-10
7.01495016077e-05
-7.30204167422e-10
7.01495214791e-05
-1.30151451788e-09
7.01495193805e-05
-2.14138379319e-09
7.01494681589e-05
-3.36540729435e-09
7.01493142636e-05
-5.15405342369e-09
7.0148958348e-05
-7.78024812149e-09
7.01482246964e-05
-1.1653912498e-08
7.01468113836e-05
-1.73999606617e-08
7.01442058604e-05
-2.59722635254e-08
7.01395321404e-05
-3.88139905118e-08
7.01313071851e-05
-5.81439724828e-08
7.01170409409e-05
-8.7384944173e-08
7.00925737757e-05
-1.31790525554e-07
7.00508096175e-05
-1.99065583294e-07
6.99797668797e-05
-3.00542275587e-07
6.9859467835e-05
-4.52128583387e-07
6.9657447721e-05
-6.74473443817e-07
6.93237626472e-05
-9.90565933847e-07
6.87888096925e-05
-1.41794754775e-06
6.79699175561e-05
-1.95543290822e-06
-2.55714314534e-06
6.68088732182e-05
5.08804130693e-05
7.87227293559e-07
5.31704657426e-05
2.16453018835e-06
5.6217749076e-05
3.00906738167e-06
5.94382688e-05
3.30264760832e-06
6.24449683573e-05
3.18548925628e-06
6.50382514835e-05
2.82473433906e-06
6.71548647499e-05
2.35976738882e-06
6.88135629536e-05
1.88532046438e-06
7.00731686541e-05
1.4547681807e-06
7.10056653234e-05
1.09133081525e-06
7.16812613251e-05
7.99459186985e-07
7.21614204e-05
5.73543436463e-07
7.24966010508e-05
4.03650466912e-07
7.27264773387e-05
2.78884565554e-07
7.28812759887e-05
1.89119456085e-07
7.29834655108e-05
1.25727593232e-07
7.30494090581e-05
8.17480746308e-08
7.3090810922e-05
5.17741303338e-08
7.31159046175e-05
3.17246708344e-08
7.31303888795e-05
1.85892469727e-08
7.31381433456e-05
1.01901132748e-08
7.31417635397e-05
4.97934511751e-09
7.31429510071e-05
1.87417302425e-09
7.3142804389e-05
1.28751323076e-10
7.31419809137e-05
-7.75057803148e-10
7.31408977561e-05
-1.15847255238e-09
7.31397826194e-05
-1.24417836074e-09
7.31387549246e-05
-1.17054721361e-09
7.31378671439e-05
-1.02223224058e-09
7.31371331836e-05
-8.49590309775e-10
7.31365456602e-05
-6.798796579e-10
7.31360871666e-05
-5.26861339354e-10
7.31357368157e-05
-3.95983604246e-10
7.31354740042e-05
-2.87860332165e-10
7.31352804042e-05
-2.00422521708e-10
7.31351403951e-05
-1.30678154991e-10
7.31350407261e-05
-7.53551627893e-11
7.31349688387e-05
-3.09731763882e-11
7.31349154507e-05
5.97200137341e-12
7.31348854219e-05
3.21084963222e-11
7.31348620286e-05
5.46205924908e-11
7.31348449644e-05
7.45370738964e-11
7.31348323342e-05
9.26272571263e-11
7.31348223344e-05
1.09579946088e-10
7.31348136817e-05
1.26091743432e-10
7.31348054779e-05
1.42510148734e-10
7.31347970971e-05
1.58895022686e-10
7.31347881162e-05
1.75027581714e-10
7.31347782702e-05
1.90358407428e-10
7.31347675087e-05
2.04043651349e-10
7.31347558888e-05
2.15080073692e-10
7.31347434741e-05
2.21685352031e-10
7.31347303841e-05
2.21392587121e-10
7.3134716852e-05
2.10947994506e-10
7.3134703414e-05
1.86357112516e-10
7.31346910453e-05
1.4323095628e-10
7.31346762965e-05
7.938541204e-11
7.31346514999e-05
-4.3955369953e-11
7.31346083944e-05
-2.97078834471e-10
7.31345403204e-05
-6.62397688816e-10
7.31344238996e-05
-1.18528372458e-09
7.31342156711e-05
-1.93324985326e-09
7.31338473019e-05
-2.99705346823e-09
7.31332035396e-05
-4.51028444059e-09
7.31320909829e-05
-6.66771925133e-09
7.31301871229e-05
-9.75003497002e-09
7.31269645998e-05
-1.41772727608e-08
7.31215669518e-05
-2.05743451415e-08
7.31125787923e-05
-2.9825552393e-08
7.30976930931e-05
-4.32580962265e-08
7.30732015614e-05
-6.28931789087e-08
7.30331984439e-05
-9.17872458028e-08
7.29681590366e-05
-1.34026340694e-07
7.28630509612e-05
-1.9543441438e-07
7.26946839319e-05
-2.83761535663e-07
7.24285179554e-05
-4.08308035106e-07
7.2016131092e-05
-5.78179031996e-07
7.13962296013e-05
-7.98046592799e-07
7.05031198725e-05
-1.06232388727e-06
-1.34599985737e-06
6.92919762654e-05
5.07871724773e-05
5.46873772307e-11
5.2951649424e-05
5.2923270601e-11
5.59606878192e-05
2.87655714894e-11
5.92633209899e-05
1.4141386278e-11
6.24488072537e-05
2.69400423424e-12
6.52735474496e-05
-6.17893023864e-12
6.76333266106e-05
-1.20919009341e-11
6.95186618079e-05
-1.50403144902e-11
7.09734451497e-05
-1.54718511105e-11
7.20647896487e-05
-1.39656715114e-11
7.2864259731e-05
-1.11786730315e-11
7.34378106515e-05
-7.76918204411e-12
7.38414652428e-05
-4.40309017268e-12
7.41203512567e-05
-1.71777734955e-12
7.43094707401e-05
-2.93910558788e-13
7.44351985867e-05
-5.2472645878e-13
7.45169490606e-05
-2.67385471858e-12
7.45687294054e-05
-6.4955145024e-12
7.46004651365e-05
-1.13565748825e-11
7.46190703452e-05
-1.62755683092e-11
7.46292802566e-05
-2.01126823742e-11
7.46342810672e-05
-2.17679510013e-11
7.46361757285e-05
-2.07739991526e-11
7.46363226332e-05
-1.84185811319e-11
7.46355631976e-05
-1.58889322704e-11
7.46344171792e-05
-1.27485269964e-11
7.46331818507e-05
-9.15664180404e-12
7.46320161734e-05
-5.18797118466e-12
7.46309939533e-05
-3.31954605183e-13
7.46301402778e-05
3.78549450231e-12
7.46294516168e-05
8.47700632118e-12
7.46289109767e-05
1.34718139011e-11
7.46284959444e-05
1.87069698388e-11
7.46281834535e-05
2.42819427362e-11
7.46279523069e-05
3.039591944e-11
7.46277841714e-05
3.71736212984e-11
7.46276638656e-05
4.46819528309e-11
7.46275797159e-05
5.2895197951e-11
7.46275235639e-05
6.18252016816e-11
7.4627484255e-05
7.11313009029e-11
7.46274578366e-05
8.07666660606e-11
7.46274404601e-05
9.1647526347e-11
7.46274291209e-05
1.03677487184e-10
7.46274215825e-05
1.16806330927e-10
7.4627416295e-05
1.31048208727e-10
7.46274121797e-05
1.4627620645e-10
7.46274084733e-05
1.62209818649e-10
7.46274046422e-05
1.78429088456e-10
7.46274002588e-05
1.9428105018e-10
7.46273949709e-05
2.08862202166e-10
7.4627388599e-05
2.20978284839e-10
7.46273809369e-05
2.28860814221e-10
7.46273716038e-05
2.30175626144e-10
7.46273599819e-05
2.22008991784e-10
7.46273449735e-05
2.0087568595e-10
7.46273248593e-05
1.6295728195e-10
7.46272986646e-05
1.05273966032e-10
7.46272537356e-05
7.04437448411e-13
7.46271646463e-05
-2.08262831074e-10
7.46270279246e-05
-5.25926678905e-10
7.46268042636e-05
-9.61792585759e-10
7.46264326745e-05
-1.56173315392e-09
7.46258165441e-05
-2.38092051102e-09
7.46247988524e-05
-3.49257560915e-09
7.46231242592e-05
-4.99311347915e-09
7.46203752598e-05
-7.00094456549e-09
7.46158861515e-05
-9.68802340562e-09
7.46085975271e-05
-1.32856020916e-08
7.45967692231e-05
-1.79971626646e-08
7.4577598201e-05
-2.40869468948e-08
7.45466712606e-05
-3.19659257722e-08
7.44972468819e-05
-4.23626907222e-08
7.4418577026e-05
-5.53567392566e-08
7.42942509469e-05
-7.11085557495e-08
7.40998674731e-05
-8.93781012843e-08
7.38005720904e-05
-1.09013134037e-07
7.33496447978e-05
-1.27251949231e-07
7.26905203613e-05
-1.38922402817e-07
7.17650308009e-05
-1.36834977191e-07
-1.12486751907e-07
7.05315172991e-05
5.07871714458e-05
-7.87116896754e-07