/*--------------------------------*- C++ -*----------------------------------*\
| =========                 |                                                 |
| \\      /  F ield         | OpenFOAM: The Open Source CFD Toolbox           |
|  \\    /   O peration     | Version:  2106                                  |
|   \\  /    A nd           | Website:  www.openfoam.com                      |
|    \\/     M anipulation  |                                                 |
\*---------------------------------------------------------------------------*/
FoamFile
{
    version     2.0;
    format      ascii;
    arch        "LSB;label=32;scalar=64";
    class       volVectorField;
    location    "0.275";
    object      U;
}
// * * * * * * * * * * * * * * * * * * * * * * * * * * * * * * * * * * * * * //

dimensions      [0 1 -1 0 0 0 0];

internalField   nonuniform List<vector> 
11200
(
(0.662462403364 0.15056944328 0)
(0.558948671586 0.103243389709 0)
(0.383850734147 0.0513512255077 0)
(0.283747590967 0.0248708565301 0)
(0.232075265266 0.012417046379 0)
(0.201908581669 0.00662281786306 0)
(0.183197927236 0.0038029155218 0)
(0.17127648199 0.0023158712447 0)
(0.163510298046 0.00146450780191 0)
(0.158388758851 0.000944893805803 0)
(0.155006617398 0.000615178395085 0)
(0.152786659175 0.000402235454569 0)
(0.151346505277 0.00026423404736 0)
(0.150428264008 0.000175252112201 0)
(0.149856654938 0.000118362716421 0)
(0.149512448307 8.21620324052e-05 0)
(0.149314882082 5.88678480243e-05 0)
(0.149209514297 4.33174242418e-05 0)
(0.149159648312 3.2935875806e-05 0)
(0.14914240102 2.81879807161e-05 0)
(0.1491445485 2.76861040364e-05 0)
(0.149156814286 2.9891669118e-05 0)
(0.14917242485 3.30519669451e-05 0)
(0.149187960618 3.59674859664e-05 0)
(0.149202157255 3.86029180525e-05 0)
(0.149214414931 4.10419339831e-05 0)
(0.149224565945 4.33191547394e-05 0)
(0.149232716955 4.54657184914e-05 0)
(0.149239104427 4.75209459807e-05 0)
(0.149244010333 4.95318697279e-05 0)
(0.14924771982 5.1560428026e-05 0)
(0.149250500376 5.36976854879e-05 0)
(0.149252549047 5.6026335801e-05 0)
(0.149254036047 5.84078028403e-05 0)
(0.149255093928 6.07689252863e-05 0)
(0.1492558091 6.309001968e-05 0)
(0.149256278422 6.53814011304e-05 0)
(0.149256585683 6.76560684224e-05 0)
(0.149256784661 6.99256246403e-05 0)
(0.14925690438 7.21961733834e-05 0)
(0.149256965679 7.4468796722e-05 0)
(0.149256985844 7.67443965086e-05 0)
(0.149256977238 7.90227654078e-05 0)
(0.149256948889 8.13027228295e-05 0)
(0.149256906985 8.35824896784e-05 0)
(0.149256856002 8.58597980889e-05 0)
(0.149256799649 8.81318849594e-05 0)
(0.149256741604 9.03957601862e-05 0)
(0.149256686252 9.26482746089e-05 0)
(0.149256638848 9.48862177542e-05 0)
(0.149256606366 9.71063045643e-05 0)
(0.149256598654 9.93057974756e-05 0)
(0.149256629191 0.000101481915255 0)
(0.149256716456 0.000103631290011 0)
(0.149256886337 0.000105749551108 0)
(0.149257175471 0.000107831161274 0)
(0.149257635072 0.000109869256483 0)
(0.149258339976 0.000111853650549 0)
(0.149259399139 0.000113771651449 0)
(0.149260969909 0.00011559892646 0)
(0.149263297239 0.000117280342128 0)
(0.149266789171 0.000118731032512 0)
(0.14927191665 0.000119989885443 0)
(0.149279325213 0.000121248219369 0)
(0.149290045729 0.000122966547967 0)
(0.149305597913 0.000125336315215 0)
(0.149328366416 0.000128117452233 0)
(0.149362046348 0.000131081870755 0)
(0.149412230679 0.00013401294805 0)
(0.149487150979 0.000136796135326 0)
(0.149598748106 0.000140705778354 0)
(0.149769853507 0.000151562402593 0)
(0.150038244859 0.000172299222126 0)
(0.150467102632 0.000202570071981 0)
(0.151192256106 0.000232518045163 0)
(0.152491429146 0.000191711446095 0)
(0.155020941253 -0.000216884279062 0)
(0.162375597535 -0.00211099893697 0)
(0.187709887552 -0.010792996514 0)
(0.204390103844 -0.0496831275887 0)
(0.965408254137 0.289214707696 0)
(0.961962857063 0.252656041722 0)
(0.823574385524 0.159021443316 0)
(0.69813935841 0.0959957329676 0)
(0.610225449067 0.0582481159392 0)
(0.548971472519 0.0362148548698 0)
(0.50658886429 0.0231612868702 0)
(0.477567238373 0.0151375171971 0)
(0.457745454558 0.0100177570869 0)
(0.444228416455 0.00665814325148 0)
(0.435053247465 0.00441555849713 0)
(0.428873060345 0.00290686818216 0)
(0.424754137203 0.00189106086357 0)
(0.422046580256 0.00121004779144 0)
(0.420297735944 0.000757165733919 0)
(0.419193119509 0.000459257930532 0)
(0.418515506982 0.000265856503828 0)
(0.418116352891 0.000142401009229 0)
(0.417895742836 6.61104978431e-05 0)
(0.417786685287 2.30934249852e-05 0)
(0.417745263546 1.40864135446e-06 0)
(0.417741979224 -1.01621692458e-05 0)
(0.417756570387 -1.37137570541e-05 0)
(0.417778522703 -1.32673442824e-05 0)
(0.41780281097 -1.08351849884e-05 0)
(0.417826175941 -7.492059446e-06 0)
(0.417846924274 -3.87559023195e-06 0)
(0.41786445721 -3.55965335099e-07 0)
(0.417878778467 2.86529797056e-06 0)
(0.417890203318 5.68435187393e-06 0)
(0.417899203707 8.03692877309e-06 0)
(0.417906273144 9.83863739767e-06 0)
(0.417911613445 1.10074821568e-05 0)
(0.417915458598 1.18601127559e-05 0)
(0.417918186323 1.26823115902e-05 0)
(0.417920071491 1.34392157675e-05 0)
(0.417921356528 1.41130459944e-05 0)
(0.417922232867 1.47282312134e-05 0)
(0.41792282677 1.53137578451e-05 0)
(0.417923209667 1.5883095317e-05 0)
(0.417923434133 1.64367158613e-05 0)
(0.417923543663 1.69796153231e-05 0)
(0.417923569164 1.75155377185e-05 0)
(0.417923533247 1.80478088104e-05 0)
(0.417923452062 1.85795100291e-05 0)
(0.417923337512 1.91130595758e-05 0)
(0.417923199655 1.96503803045e-05 0)
(0.417923048566 2.01934701419e-05 0)
(0.41792289566 2.07444656735e-05 0)
(0.417922754422 2.13050579938e-05 0)
(0.417922643031 2.18751212209e-05 0)
(0.417922586758 2.24549500006e-05 0)
(0.417922619407 2.30447759231e-05 0)
(0.41792278721 2.3644200491e-05 0)
(0.417923155377 2.42522634733e-05 0)
(0.417923817032 2.48681573921e-05 0)
(0.41792490297 2.54905010812e-05 0)
(0.417926605482 2.61067196252e-05 0)
(0.41792920199 2.66990801537e-05 0)
(0.41793308105 2.7237396352e-05 0)
(0.417938840237 2.76741308517e-05 0)
(0.417947575785 2.79552908319e-05 0)
(0.417960778894 2.82408420374e-05 0)
(0.417980583761 2.77987447002e-05 0)
(0.418009760714 2.52148267516e-05 0)
(0.418051915144 1.94034643579e-05 0)
(0.418113223927 9.55989169238e-06 0)
(0.418203803979 -5.8462000895e-06 0)
(0.418339257975 -2.93385879718e-05 0)
(0.418544483287 -6.45997842202e-05 0)
(0.418861383321 -0.000115827507537 0)
(0.419359581296 -0.000188000386777 0)
(0.420152587112 -0.000307812106328 0)
(0.421444132318 -0.000532864658157 0)
(0.423626025972 -0.00100004370469 0)
(0.427417303115 -0.00209121412401 0)
(0.434240857869 -0.00485842152674 0)
(0.448273335991 -0.0122596348544 0)
(0.474666289077 -0.034257942877 0)
(0.478216683286 -0.0988209786695 0)
(1.02222096511 0.238416187444 0)
(1.08213752743 0.295926653175 0)
(1.0344772211 0.239503067073 0)
(0.954615400911 0.174290165173 0)
(0.879992044012 0.121345469288 0)
(0.818614420557 0.0830993851176 0)
(0.77141083175 0.0567316682097 0)
(0.736634367986 0.0387409697891 0)
(0.711624405957 0.0264327882894 0)
(0.693916590273 0.0179731059607 0)
(0.681541377044 0.0121424492748 0)
(0.673000081226 0.00812490947758 0)
(0.66718061258 0.00536632224438 0)
(0.663271638658 0.00348444579286 0)
(0.66068846299 0.00221256229063 0)
(0.659014133725 0.00136338229617 0)
(0.65795444748 0.000805244038184 0)
(0.657304148997 0.000445916814904 0)
(0.656921724744 0.000221068717282 0)
(0.656710153123 8.55809329053e-05 0)
(0.656603282164 8.3573203039e-06 0)
(0.656561726092 -3.37203477275e-05 0)
(0.656557818067 -5.68548493004e-05 0)
(0.656571285898 -6.68740288361e-05 0)
(0.656592807621 -6.8481459408e-05 0)
(0.65661661967 -6.55599022054e-05 0)
(0.656639414661 -6.05487063037e-05 0)
(0.656659585662 -5.48586578892e-05 0)
(0.656676547427 -4.9274431202e-05 0)
(0.65669027789 -4.42029969827e-05 0)
(0.656701023556 -3.98390240196e-05 0)
(0.656709168738 -3.6300946364e-05 0)
(0.656715409311 -3.36946357831e-05 0)
(0.656720435551 -3.18555937531e-05 0)
(0.65672429055 -3.08090233107e-05 0)
(0.656726989364 -3.03019630632e-05 0)
(0.656728844262 -3.02466907971e-05 0)
(0.656730134787 -3.05577646618e-05 0)
(0.656731028174 -3.10853883465e-05 0)
(0.656731614239 -3.17471722185e-05 0)
(0.656731967228 -3.25135830734e-05 0)
(0.656732152448 -3.33495855456e-05 0)
(0.656732215297 -3.42306482212e-05 0)
(0.656732189893 -3.51374885292e-05 0)
(0.65673210078 -3.60547350899e-05 0)
(0.656731966171 -3.69716696236e-05 0)
(0.656731801724 -3.78808290492e-05 0)
(0.656731623039 -3.87766683806e-05 0)
(0.656731446839 -3.96543884278e-05 0)
(0.656731291122 -4.05086626547e-05 0)
(0.656731180634 -4.13358618831e-05 0)
(0.656731151383 -4.21318916282e-05 0)
(0.656731252195 -4.28949531056e-05 0)
(0.656731550801 -4.36279610863e-05 0)
(0.65673214392 -4.43438257239e-05 0)
(0.656733169543 -4.50733541684e-05 0)
(0.656734814686 -4.58699053191e-05 0)
(0.656737354113 -4.68287785918e-05 0)
(0.65674119617 -4.80759138381e-05 0)
(0.656746938139 -4.98270282918e-05 0)
(0.656755504175 -5.25853163417e-05 0)
(0.656768540991 -5.73797035839e-05 0)
(0.656787384439 -6.49919734069e-05 0)
(0.656813470634 -7.62993929263e-05 0)
(0.656850615863 -9.29872798009e-05 0)
(0.656905527501 -0.000117461684673 0)
(0.656987594754 -0.000152923359591 0)
(0.657110607932 -0.000204658701205 0)
(0.65729638303 -0.000281190136967 0)
(0.657580319557 -0.000396400118009 0)
(0.658020563928 -0.000574652668239 0)
(0.658706351239 -0.0008632372647 0)
(0.659784806316 -0.00135227803521 0)
(0.66151360315 -0.00221498542504 0)
(0.664335169239 -0.00381409467953 0)
(0.668945755441 -0.00694882771939 0)
(0.676372157756 -0.0133588247885 0)
(0.688623810348 -0.0268575702617 0)
(0.705262297979 -0.0563516086025 0)
(0.700536204733 -0.113158093456 0)
(1.02251475419 0.170807152307 0)
(1.10138975484 0.276496478543 0)
(1.11752425567 0.266664799442 0)
(1.09214659709 0.219901699316 0)
(1.05187814418 0.168168848054 0)
(1.01020820858 0.123567397304 0)
(0.973494670077 0.0888375223274 0)
(0.943864529892 0.0630063724802 0)
(0.921142767633 0.044223205169 0)
(0.904284034898 0.0307423939103 0)
(0.892074825544 0.0211562953939 0)
(0.883404462298 0.0143954698163 0)
(0.877352617376 0.00966794943704 0)
(0.873197649595 0.00639383821667 0)
(0.870392867864 0.00415116557038 0)
(0.868533973922 0.00263449133777 0)
(0.867327571716 0.00162401755727 0)
(0.866564163061 0.000962676007808 0)
(0.866096399847 0.000539122309683 0)
(0.865822151455 0.000275153225097 0)
(0.865671301266 0.000117067787018 0)
(0.865595044125 2.87917330316e-05 0)
(0.865563979382 -1.93254447993e-05 0)
(0.865561164598 -4.1261742359e-05 0)
(0.865572502071 -4.76657221814e-05 0)
(0.865589502267 -4.55249298283e-05 0)
(0.865607806067 -3.91552499378e-05 0)
(0.865625139342 -3.11441719501e-05 0)
(0.865640418233 -2.2962856282e-05 0)
(0.86565327589 -1.53790047696e-05 0)
(0.865663744072 -8.72128243412e-06 0)
(0.86567202624 -3.0421864854e-06 0)
(0.865678374629 1.73670362337e-06 0)
(0.865682996582 5.46825652374e-06 0)
(0.865686310035 8.03525482403e-06 0)
(0.865688702189 9.79217790683e-06 0)
(0.865690327947 1.11457324422e-05 0)
(0.865691483936 1.22904464913e-05 0)
(0.865692345655 1.32591650073e-05 0)
(0.86569293144 1.41455599738e-05 0)
(0.865693289317 1.49408173061e-05 0)
(0.865693483843 1.56675549294e-05 0)
(0.865693554107 1.63413192763e-05 0)
(0.865693531614 1.69786329251e-05 0)
(0.865693438451 1.75940883941e-05 0)
(0.865693290498 1.81979080468e-05 0)
(0.865693102471 1.87977205971e-05 0)
(0.865692890648 1.94002662133e-05 0)
(0.865692675186 2.00141361606e-05 0)
(0.865692478907 2.06463448688e-05 0)
(0.865692332478 2.12831598019e-05 0)
(0.865692277822 2.19123450324e-05 0)
(0.865692368412 2.25173531818e-05 0)
(0.865692674212 2.30720887079e-05 0)
(0.865693288516 2.35389804415e-05 0)
(0.865694344568 2.38786569642e-05 0)
(0.865696024982 2.40616811279e-05 0)
(0.865698616738 2.39673414254e-05 0)
(0.865702526737 2.34434727494e-05 0)
(0.865708176657 2.20847100149e-05 0)
(0.865716002105 1.93135142235e-05 0)
(0.865727634176 1.44598667854e-05 0)
(0.865745676325 5.68457785179e-06 0)
(0.865773080581 -8.62907760695e-06 0)
(0.865813724483 -3.04768610503e-05 0)
(0.865873519944 -6.38034656997e-05 0)
(0.865961798691 -0.000115485206749 0)
(0.866093068183 -0.000196286859273 0)
(0.866289874822 -0.000323474209221 0)
(0.86658703841 -0.000525534872638 0)
(0.867038173523 -0.000851439289231 0)
(0.867728374401 -0.00138816444531 0)
(0.86879404676 -0.00228456271927 0)
(0.870448553053 -0.0038153789979 0)
(0.873010986139 -0.00650517684246 0)
(0.876880606343 -0.0113640026379 0)
(0.882380499555 -0.0202622463099 0)
(0.889694674368 -0.036473294914 0)
(0.896378823609 -0.0655343964509 0)
(0.886561225004 -0.11012803144 0)
(1.0128787503 0.118961023006 0)
(1.08820670435 0.231806936723 0)
(1.1374136639 0.253106764746 0)
(1.15409085635 0.228992754096 0)
(1.14994209382 0.188368359748 0)
(1.13538463525 0.146579845179 0)
(1.11758892361 0.110150966975 0)
(1.10059497256 0.080816223357 0)
(1.08612453651 0.0582265776042 0)
(1.0745908846 0.0413189861928 0)
(1.06579142198 0.028916021387 0)
(1.05928793959 0.019960101059 0)
(1.05459970977 0.0135815610119 0)
(1.05129070685 0.0090974437852 0)
(1.04899978418 0.00598615428008 0)
(1.04744333605 0.00385696658547 0)
(1.04640645758 0.00242159810894 0)
(1.04573053709 0.00147015032103 0)
(1.04530097609 0.000851702191417 0)
(1.04503647282 0.000459016585369 0)
(1.04488010386 0.000216757001116 0)
(1.0447924811 7.3017776149e-05 0)
(1.04474860956 -5.50412495598e-06 0)
(1.04473170398 -4.40082355696e-05 0)
(1.04472944724 -5.93850822877e-05 0)
(1.04473492532 -6.17183701279e-05 0)
(1.04474386741 -5.72445763348e-05 0)
(1.0447537455 -4.98026673816e-05 0)
(1.04476317989 -4.16435554537e-05 0)
(1.04477150054 -3.39881261033e-05 0)
(1.04477845733 -2.74227241093e-05 0)
(1.04478403767 -2.21507030215e-05 0)
(1.04478838733 -1.81270711282e-05 0)
(1.04479171704 -1.51381666507e-05 0)
(1.04479428153 -1.2806615092e-05 0)
(1.0447963746 -1.10103109319e-05 0)
(1.0447981076 -9.52121806749e-06 0)
(1.04479942602 -8.23151627535e-06 0)
(1.0448004 -7.21267140632e-06 0)
(1.04480108036 -6.54406067963e-06 0)
(1.04480148871 -6.16458656275e-06 0)
(1.04480171192 -5.95585408191e-06 0)
(1.04480179584 -5.86742760105e-06 0)
(1.04480177895 -5.84936732967e-06 0)
(1.04480168587 -5.86161644174e-06 0)
(1.04480153414 -5.88452871578e-06 0)
(1.04480134134 -5.90858696945e-06 0)
(1.04480112865 -5.93023666929e-06 0)
(1.04480091855 -5.95457637937e-06 0)
(1.04480071738 -5.99005889511e-06 0)
(1.04480054322 -6.02059110305e-06 0)
(1.04480044111 -6.04468078335e-06 0)
(1.04480046481 -6.06901723961e-06 0)
(1.04480068777 -6.10836650826e-06 0)
(1.04480122818 -6.19854500732e-06 0)
(1.04480227769 -6.44454947742e-06 0)
(1.04480402309 -7.11360309299e-06 0)
(1.04480673954 -8.48275994054e-06 0)
(1.0448107459 -1.10388931263e-05 0)
(1.04481650734 -1.48576101908e-05 0)
(1.04482504844 -1.98056998962e-05 0)
(1.0448375186 -2.60058932917e-05 0)
(1.04485517929 -3.57633564226e-05 0)
(1.04488033976 -5.20550155273e-05 0)
(1.04491646753 -7.91045339701e-05 0)
(1.04496870793 -0.000123160950062 0)
(1.04504465953 -0.000193997353589 0)
(1.04515566379 -0.000307196035674 0)
(1.04531885862 -0.000487930444766 0)
(1.04556010067 -0.000777242490599 0)
(1.04591807192 -0.00124248673461 0)
(1.04645063973 -0.00199536191127 0)
(1.04724194395 -0.00322652370258 0)
(1.04840498826 -0.00526696880685 0)
(1.05006720227 -0.00869393975414 0)
(1.05228545054 -0.0145019211843 0)
(1.05481601941 -0.0242993381594 0)
(1.05686957566 -0.0403986712187 0)
(1.05574014938 -0.0656437187449 0)
(1.042128243 -0.0995445154245 0)
(1.00447483374 0.081403996916 0)
(1.0691723691 0.181288538588 0)
(1.1308056788 0.216950418625 0)
(1.1737499923 0.210789155755 0)
(1.19865263675 0.183690077414 0)
(1.21019986135 0.149751684125 0)
(1.21350253469 0.116779144932 0)
(1.21251721341 0.0882206785693 0)
(1.20973095138 0.0650481513976 0)
(1.20651115992 0.0470209091977 0)
(1.20351909234 0.0334068086959 0)
(1.20101140682 0.0233557325507 0)
(1.19903440177 0.0160720136801 0)
(1.19753872548 0.010879513404 0)
(1.19644125597 0.00723418759745 0)
(1.19565552218 0.00471351803886 0)
(1.19510482118 0.00299762883594 0)
(1.19472640285 0.00184916080837 0)
(1.19447141621 0.00109496053676 0)
(1.19430309978 0.00061061160416 0)
(1.19419445403 0.00030798688282 0)
(1.19412616272 0.000125768877791 0)
(1.19408510619 2.22235887308e-05 0)
(1.19406184059 -3.2451395987e-05 0)
(1.19404953338 -5.72698449967e-05 0)
(1.1940440275 -6.4595221835e-05 0)
(1.19404252218 -6.23730391772e-05 0)
(1.19404319911 -5.55184002166e-05 0)
(1.19404494275 -4.69415490194e-05 0)
(1.1940470949 -3.82556993783e-05 0)
(1.19404928338 -3.02618677072e-05 0)
(1.19405131614 -2.32649858056e-05 0)
(1.19405312377 -1.72887278247e-05 0)
(1.19405470038 -1.22596950437e-05 0)
(1.19405606215 -8.07145997205e-06 0)
(1.19405722852 -4.67005979237e-06 0)
(1.19405817214 -2.05926031664e-06 0)
(1.19405883956 -1.69995861338e-07 0)
(1.19405919036 1.14734589592e-06 0)
(1.19405930042 2.00357498424e-06 0)
(1.19405935061 2.68225676229e-06 0)
(1.19405937708 3.28543562973e-06 0)
(1.1940593544 3.8130484292e-06 0)
(1.19405929923 4.27387728312e-06 0)
(1.19405920643 4.68007908142e-06 0)
(1.19405906671 5.04833038533e-06 0)
(1.19405888228 5.39036024734e-06 0)
(1.19405865895 5.70853406498e-06 0)
(1.19405840926 5.99300737347e-06 0)
(1.19405817565 6.232541575e-06 0)
(1.19405800158 6.45025314898e-06 0)
(1.19405791697 6.63852912343e-06 0)
(1.19405797112 6.7706520222e-06 0)
(1.19405822373 6.80603779486e-06 0)
(1.19405871495 6.68629339843e-06 0)
(1.19405941897 6.32365261279e-06 0)
(1.1940604153 5.55740904938e-06 0)
(1.19406186377 4.02745303142e-06 0)
(1.19406440626 1.29254814695e-06 0)
(1.19406908098 -2.92124922961e-06 0)
(1.19407646235 -9.38688056845e-06 0)
(1.19408646967 -1.95015345077e-05 0)
(1.19409984399 -3.52696177126e-05 0)
(1.1941185734 -5.96052247336e-05 0)
(1.19414478449 -9.70903884341e-05 0)
(1.19418129308 -0.00015504071498 0)
(1.19423208365 -0.000245105426596 0)
(1.19430278141 -0.000385768740253 0)
(1.19440125907 -0.000606499648697 0)
(1.19453827999 -0.000954657257651 0)
(1.19472788268 -0.00150680430982 0)
(1.19498683319 -0.00238729353181 0)
(1.19532993053 -0.00379949906298 0)
(1.19575442352 -0.00607661980205 0)
(1.19619997818 -0.0097579650866 0)
(1.19644683956 -0.0156881626234 0)
(1.1959080765 -0.0250795321655 0)
(1.19342876113 -0.0393900750708 0)
(1.18667263466 -0.0598664579999 0)
(1.1701182405 -0.0852036609185 0)
(0.998962324642 0.0544316245534 0)
(1.053109564 0.133401607219 0)
(1.11628267374 0.170777558059 0)
(1.17301270754 0.175143872072 0)
(1.21791244689 0.159583606603 0)
(1.25049855964 0.134951020564 0)
(1.27288488781 0.1084116574 0)
(1.28776719328 0.0838849723574 0)
(1.29745264739 0.0630565728254 0)
(1.3036607133 0.0462999217894 0)
(1.30759230212 0.0333205151408 0)
(1.31005365587 0.0235495242106 0)
(1.31157357581 0.016359907824 0)
(1.31249487455 0.0111713151074 0)
(1.31303856369 0.00749150650523 0)
(1.31334665158 0.00492448556836 0)
(1.31351006171 0.00316295482818 0)
(1.31358668769 0.00197475134901 0)
(1.31361305988 0.00118819608936 0)
(1.313611906 0.000678628155032 0)
(1.31359706394 0.000357007085057 0)
(1.31357673838 0.00016075266529 0)
(1.31355573973 4.64679404672e-05 0)
(1.31353644017 -1.58703580662e-05 0)
(1.31351977832 -4.60586533939e-05 0)
(1.31350608568 -5.70684448089e-05 0)
(1.31349517711 -5.73228342227e-05 0)
(1.31348671566 -5.20840866474e-05 0)
(1.31348031343 -4.45216190537e-05 0)
(1.31347558529 -3.64596976316e-05 0)
(1.3134721803 -2.88712401986e-05 0)
(1.31346979533 -2.22097288257e-05 0)
(1.31346817042 -1.66268582785e-05 0)
(1.3134670771 -1.21301884693e-05 0)
(1.31346634994 -8.65400460741e-06 0)
(1.31346589186 -6.09655480361e-06 0)
(1.31346560195 -4.32066635958e-06 0)
(1.31346539081 -3.11865544503e-06 0)
(1.31346525582 -2.26082499259e-06 0)
(1.3134652825 -1.5431686735e-06 0)
(1.31346543278 -9.67068237229e-07 0)
(1.31346552862 -5.53594086796e-07 0)
(1.31346551926 -1.9309120004e-07 0)
(1.313465437 1.43481820414e-07 0)
(1.31346530324 4.54481951896e-07 0)
(1.31346512973 7.48549791155e-07 0)
(1.3134649194 1.03760434242e-06 0)
(1.3134646745 1.33243599169e-06 0)
(1.31346440633 1.6446865579e-06 0)
(1.31346414876 1.97375383378e-06 0)
(1.31346392329 2.27038584691e-06 0)
(1.31346373736 2.49710369939e-06 0)
(1.31346362163 2.60976794539e-06 0)
(1.31346362892 2.54477309056e-06 0)
(1.31346384628 2.2154758376e-06 0)
(1.3134643934 1.53054162632e-06 0)
(1.31346525493 4.41821393622e-07 0)
(1.31346649542 -1.24371713963e-06 0)
(1.31346854027 -3.72391300245e-06 0)
(1.31347162622 -7.72591669923e-06 0)
(1.31347594048 -1.45434871532e-05 0)
(1.3134817162 -2.57598512329e-05 0)
(1.31348922348 -4.29620119702e-05 0)
(1.3134989458 -6.93177888169e-05 0)
(1.31351119809 -0.000109854465852 0)
(1.31352605655 -0.000172316991186 0)
(1.31354313441 -0.000268790778313 0)
(1.31356111388 -0.000418230852544 0)
(1.31357678965 -0.000650457966222 0)
(1.31358323298 -0.00101271438175 0)
(1.31356637791 -0.00158004918354 0)
(1.31349876585 -0.00247154762917 0)
(1.31332611485 -0.00387457175711 0)
(1.3129407877 -0.00608170041817 0)
(1.3121326953 -0.00953778520514 0)
(1.31049631059 -0.0148849790681 0)
(1.30727796609 -0.0229525850636 0)
(1.30126740605 -0.0345826283229 0)
(1.29059557712 -0.0502149713942 0)
(1.27178790534 -0.0686262802605 0)
(0.99573607322 0.0346338589633 0)
(1.04179514024 0.090568920561 0)
(1.10222838085 0.121549564735 0)
(1.16491410795 0.129605834123 0)
(1.22202565239 0.122009268668 0)
(1.2695189067 0.106019938656 0)
(1.30680222093 0.0870975563449 0)
(1.33499533349 0.0686366814188 0)
(1.35574475146 0.0523698393524 0)
(1.37069614144 0.0389256182694 0)
(1.38128272615 0.0282980736382 0)
(1.3886626448 0.0201712772385 0)
(1.39373029771 0.0141175102792 0)
(1.39715656813 0.0097053357006 0)
(1.39943430598 0.00655059481159 0)
(1.40091962423 0.00433445407887 0)
(1.40186616677 0.0028041442818 0)
(1.40245218323 0.00176574246071 0)
(1.40280127656 0.00107419437769 0)
(1.40299796899 0.000623234130032 0)
(1.40309918583 0.000336408161284 0)
(1.40314263488 0.000159621979614 0)
(1.40315289132 5.51631251183e-05 0)
(1.40314539844 -2.99893744984e-06 0)
(1.40312963524 -3.21229937608e-05 0)
(1.40311122958 -4.38902758798e-05 0)
(1.40309318822 -4.57602864474e-05 0)
(1.40307703578 -4.24180993168e-05 0)
(1.40306337409 -3.67271984896e-05 0)
(1.40305227709 -3.03642652305e-05 0)
(1.4030435431 -2.42438882533e-05 0)
(1.4030368464 -1.88133437749e-05 0)
(1.40303182536 -1.42411978475e-05 0)
(1.40302812993 -1.05297388227e-05 0)
(1.40302546241 -7.5781373058e-06 0)
(1.40302359086 -5.26132433452e-06 0)
(1.40302233893 -3.45641881422e-06 0)
(1.40302155596 -2.01973226686e-06 0)
(1.40302107616 -8.4680606718e-07 0)
(1.40302070413 8.55681780288e-08 0)
(1.40302037251 7.95114806762e-07 0)
(1.40302016392 1.28505741164e-06 0)
(1.40302006519 1.65761600531e-06 0)
(1.40301998407 1.97831362833e-06 0)
(1.40301988592 2.28424232845e-06 0)
(1.40301976345 2.59343763564e-06 0)
(1.4030196148 2.91530780723e-06 0)
(1.40301944192 3.25470208039e-06 0)
(1.40301924589 3.61281838723e-06 0)
(1.40301901958 3.97904839834e-06 0)
(1.40301877521 4.31210658467e-06 0)
(1.40301854649 4.5807672956e-06 0)
(1.40301836168 4.74689963162e-06 0)
(1.40301824678 4.75314438328e-06 0)
(1.40301822088 4.51174234014e-06 0)
(1.40301828893 3.88080865587e-06 0)
(1.40301844544 2.65605754346e-06 0)
(1.40301871994 7.16873931553e-07 0)
(1.40301931953 -2.31647254791e-06 0)
(1.40302039255 -7.25479086866e-06 0)
(1.40302183365 -1.48861617147e-05 0)
(1.40302330938 -2.65274015465e-05 0)
(1.40302433357 -4.40246462431e-05 0)
(1.40302415751 -7.03571804122e-05 0)
(1.40302128668 -0.000110111041295 0)
(1.40301297267 -0.000170311702807 0)
(1.40299440327 -0.000261836644533 0)
(1.4029573858 -0.000401548829853 0)
(1.40288795502 -0.000615504043564 0)
(1.40276235157 -0.000944331071749 0)
(1.40254052673 -0.00145141127399 0)
(1.40215607965 -0.00223517138601 0)
(1.40149732504 -0.00344476285357 0)
(1.40037574638 -0.00530411481924 0)
(1.39847780333 -0.00813636049688 0)
(1.39528990231 -0.0123768394301 0)
(1.38999824002 -0.0185373845744 0)
(1.38145346955 -0.0270570667561 0)
(1.36815754599 -0.0380195425587 0)
(1.34771513908 -0.0505349375299 0)
(0.994011530455 0.0192358052915 0)
(1.03484763239 0.052333839393 0)
(1.09199262032 0.0723631267046 0)
(1.15662419042 0.0791292315508 0)
(1.22032115116 0.0761045461148 0)
(1.27701943782 0.0673339712083 0)
(1.32424417119 0.056150903222 0)
(1.36181571531 0.0447990107479 0)
(1.39068528436 0.0345303773881 0)
(1.4122607233 0.0258814323836 0)
(1.4280181914 0.0189465241059 0)
(1.43929880672 0.0135849822595 0)
(1.44722803602 0.00955653433244 0)
(1.45270408781 0.00660011524422 0)
(1.45641890915 0.00447418997183 0)
(1.45889139159 0.00297351314572 0)
(1.4605022533 0.0019327682797 0)
(1.46152564696 0.00122369335206 0)
(1.46215565932 0.000749550114414 0)
(1.46252748047 0.000439017321194 0)
(1.46273375382 0.000240520696958 0)
(1.46283689285 0.000117411497125 0)
(1.46287819171 4.40490843832e-05 0)
(1.46288442707 2.69069570871e-06 0)
(1.46287229879 -1.84442862917e-05 0)
(1.46285194342 -2.74379598327e-05 0)
(1.46282938792 -2.94377863951e-05 0)
(1.46280784524 -2.76877300912e-05 0)
(1.46278884348 -2.41855479963e-05 0)
(1.46277292713 -2.01124250807e-05 0)
(1.46276008739 -1.61171173297e-05 0)
(1.46275002967 -1.25226846958e-05 0)
(1.46274234292 -9.45568785817e-06 0)
(1.46273659496 -6.92702063466e-06 0)
(1.46273238747 -4.88270597313e-06 0)
(1.46272937833 -3.25328252112e-06 0)
(1.46272727932 -1.97553113133e-06 0)
(1.46272583324 -1.00850309707e-06 0)
(1.46272482835 -3.07369322196e-07 0)
(1.46272419976 2.15285089271e-07 0)
(1.46272383409 6.97865531183e-07 0)
(1.46272358243 1.17527456193e-06 0)
(1.46272341228 1.60149032664e-06 0)
(1.46272328404 1.98342956375e-06 0)
(1.4627231681 2.34209032744e-06 0)
(1.46272304515 2.69082352339e-06 0)
(1.46272290149 3.03509842803e-06 0)
(1.46272272858 3.37315419259e-06 0)
(1.46272252212 3.6957123409e-06 0)
(1.46272227957 3.9907490028e-06 0)
(1.46272200414 4.25059583568e-06 0)
(1.4627217036 4.44378337981e-06 0)
(1.4627213851 4.51981145419e-06 0)
(1.46272105839 4.40866406798e-06 0)
(1.46272073888 4.01946886541e-06 0)
(1.46272044806 3.24147073237e-06 0)
(1.46272017556 1.95397389856e-06 0)
(1.46271982044 5.66140073748e-08 0)
(1.4627192185 -2.72851690078e-06 0)
(1.46271824288 -7.22928088833e-06 0)
(1.46271663584 -1.4237882038e-05 0)
(1.462713718 -2.48493782574e-05 0)
(1.46270836316 -4.0603271495e-05 0)
(1.46269875783 -6.38759063587e-05 0)
(1.46268183495 -9.82635928245e-05 0)
(1.46265244124 -0.00014914889074 0)
(1.46260206357 -0.000224722141555 0)
(1.46251693901 -0.000337429689387 0)
(1.46237456226 -0.000505862149657 0)
(1.4621380171 -0.000758454893284 0)
(1.4617473348 -0.00113904860441 0)
(1.4611078459 -0.00171517501761 0)
(1.46006821109 -0.0025826454698 0)
(1.45838719204 -0.00388116074812 0)
(1.45569048339 -0.00580330963726 0)
(1.45141204637 -0.00859254431055 0)
(1.44473049713 -0.012509548261 0)
(1.43457520734 -0.0177355670511 0)
(1.41968429743 -0.0242199418662 0)
(1.398208213 -0.0314180272721 0)
(0.993269666428 0.00617014946203 0)
(1.03158099641 0.0171020450037 0)
(1.08672181146 0.0239906477451 0)
(1.15174553502 0.0265606651259 0)
(1.21823535025 0.0258180583786 0)
(1.27925772574 0.0230488857534 0)
(1.33140134075 0.0193656310438 0)
(1.37377596539 0.0155468576083 0)
(1.40691050907 0.012044929931 0)
(1.43203310633 0.00906639968592 0)
(1.45060211761 0.00666059496702 0)
(1.46402982256 0.00479009186686 0)
(1.47355012111 0.00337842871806 0)
(1.48017559063 0.00233873852677 0)
(1.48470224137 0.00158891447062 0)
(1.48773615538 0.00105828961601 0)
(1.48972729084 0.000689463549054 0)
(1.49100271863 0.000437639205488 0)
(1.49179579633 0.000268886525397 0)
(1.49227016445 0.000158111827938 0)
(1.49253865389 8.71253785855e-05 0)
(1.49267772796 4.29757274338e-05 0)
(1.49273825908 1.65859982517e-05 0)
(1.49275343056 1.6656482271e-06 0)
(1.49274419096 -6.06698628933e-06 0)
(1.49272339979 -9.41211336869e-06 0)
(1.49269875216 -1.02182115278e-05 0)
(1.49267447626 -9.65483590802e-06 0)
(1.49265266976 -8.4405666341e-06 0)
(1.49263417412 -6.99338206704e-06 0)
(1.49261911192 -5.55373479378e-06 0)
(1.4926072208 -4.24189042527e-06 0)
(1.49259807099 -3.1054272389e-06 0)
(1.49259118703 -2.15015676559e-06 0)
(1.49258611523 -1.35970484282e-06 0)
(1.49258245561 -7.12203271595e-07 0)
(1.49257987246 -1.86219840662e-07 0)
(1.49257809556 2.4003094092e-07 0)
(1.49257691849 6.12665122873e-07 0)
(1.49257616383 9.82652033729e-07 0)
(1.49257567847 1.28881943704e-06 0)
(1.49257537038 1.57475523044e-06 0)
(1.49257518186 1.85774114623e-06 0)
(1.49257506008 2.14820548134e-06 0)
(1.49257496568 2.45333714717e-06 0)
(1.49257487218 2.77582275982e-06 0)
(1.49257476085 3.11497804325e-06 0)
(1.49257461835 3.46697895204e-06 0)
(1.49257443479 3.82344125033e-06 0)
(1.49257420175 4.1704509e-06 0)
(1.49257391362 4.48823877108e-06 0)
(1.49257356672 4.74476374804e-06 0)
(1.49257315476 4.89557563448e-06 0)
(1.49257266662 4.88009496565e-06 0)
(1.49257208243 4.61544121858e-06 0)
(1.49257137468 3.9864816602e-06 0)
(1.49257053082 2.84212480498e-06 0)
(1.49256942 1.06768246495e-06 0)
(1.4925676151 -1.55015802951e-06 0)
(1.49256480664 -5.59374923923e-06 0)
(1.49256061352 -1.16356575724e-05 0)
(1.4925540179 -2.04390956093e-05 0)
(1.49254339815 -3.3084221823e-05 0)
(1.49252620433 -5.1119091732e-05 0)
(1.49249832133 -7.67352145421e-05 0)
(1.49245302897 -0.000112935954384 0)
(1.49237945594 -0.000164116984492 0)
(1.49226054598 -0.000236718163352 0)
(1.49206887089 -0.000339202377985 0)
(1.49175968088 -0.000484182912271 0)
(1.4912607786 -0.000692103158621 0)
(1.49046338701 -0.000996173456283 0)
(1.48919772262 -0.00142881935638 0)
(1.48719761703 -0.00203770619439 0)
(1.48406419914 -0.00288424736531 0)
(1.47921688673 -0.00403599047018 0)
(1.47184764063 -0.00554732756021 0)
(1.46094111864 -0.00741998380745 0)
(1.4453473314 -0.00956023971053 0)
(1.42345260364 -0.011719972101 0)
(0.99327046427 -0.00616840285057 0)
(1.03158097902 -0.0171003772693 0)
(1.08672174502 -0.0239897629567 0)
(1.15174557247 -0.0265602482268 0)
(1.2182354279 -0.025817994451 0)
(1.27925782751 -0.023049111475 0)
(1.33140146654 -0.0193660484617 0)