/*--------------------------------*- C++ -*----------------------------------*\
| =========                 |                                                 |
| \\      /  F ield         | OpenFOAM: The Open Source CFD Toolbox           |
|  \\    /   O peration     | Version:  2106                                  |
|   \\  /    A nd           | Website:  www.openfoam.com                      |
|    \\/     M anipulation  |                                                 |
\*---------------------------------------------------------------------------*/
FoamFile
{
    version     2.0;
    format      ascii;
    arch        "LSB;label=32;scalar=64";
    class       surfaceScalarField;
    location    "0.375";
    object      phi;
}
// * * * * * * * * * * * * * * * * * * * * * * * * * * * * * * * * * * * * * //

dimensions      [0 3 -1 0 0 0 0];

oriented        oriented;

internalField   nonuniform List<scalar> 
22100
(
3.38461205914e-05
1.61538794242e-05
2.24572107561e-05
1.13889102361e-05
1.62585544555e-05
6.19865665146e-06
1.27977781181e-05
3.46077675122e-06
1.08046449526e-05
1.99313365778e-06
9.60459266073e-06
1.20005284041e-06
8.8513256004e-06
7.532676376e-07
8.3643573808e-06
4.86968767639e-07
8.04433993295e-06
3.20017897292e-07
7.83284539545e-06
2.11494835149e-07
7.69340233849e-06
1.39443176401e-07
7.60224546458e-06
9.11568459979e-08
7.54348271482e-06
5.87626754325e-08
7.50634593304e-06
3.71367411081e-08
7.48350673128e-06
2.28392907119e-08
7.46998640492e-06
1.35205931155e-08
7.46242244281e-06
7.56442625654e-09
7.45855517622e-06
3.86787982542e-09
7.45683685698e-06
1.71893091117e-09
7.45643086388e-06
4.06661971644e-10
7.45678118086e-06
-3.49702613389e-10
7.4574677087e-06
-6.8607369883e-10
7.45822627366e-06
-7.58262673915e-10
7.45895173552e-06
-7.25265859295e-10
7.45959620584e-06
-6.44302905071e-10
7.46014034124e-06
-5.43932444967e-10
7.46058269428e-06
-4.42083641612e-10
7.46093168432e-06
-3.48661903702e-10
7.46120015873e-06
-2.6814358814e-10
7.46140215101e-06
-2.01744231086e-10
7.46155100605e-06
-1.48768332578e-10
7.46165836988e-06
-1.07466979541e-10
7.46173404114e-06
-7.59339479363e-11
7.4617861389e-06
-5.25307945777e-11
7.4618186696e-06
-3.30869615253e-11
7.4618366251e-06
-1.86008874763e-11
7.46184480259e-06
-8.88056511285e-12
7.46184668818e-06
-2.62843760952e-12
7.46184427651e-06
1.6335455657e-12
7.46183877747e-06
4.7269978039e-12
7.46183124979e-06
6.86998931164e-12
7.46182238986e-06
8.39226497258e-12
7.46181261136e-06
9.54448606547e-12
7.46180207137e-06
1.05681969505e-11
7.46179075772e-06
1.16622137252e-11
7.46177849119e-06
1.28946458825e-11
7.46176492097e-06
1.43184912765e-11
7.46174963297e-06
1.6065032168e-11
7.46173217059e-06
1.82633330643e-11
7.46171196935e-06
2.10128688401e-11
7.4616883388e-06
2.43811014e-11
7.46166056427e-06
2.84743422851e-11
7.46162781973e-06
3.33726425606e-11
7.46158922127e-06
3.91092598892e-11
7.46154384171e-06
4.56961775839e-11
7.46149091654e-06
5.30702058794e-11
7.46142980634e-06
6.10335025878e-11
7.46136035653e-06
6.91471211706e-11
7.46128357239e-06
7.65143700073e-11
7.46120175305e-06
8.13128489393e-11
7.4611212854e-06
7.98210070711e-11
7.46105443577e-06
6.6323078167e-11
7.46100878657e-06
4.51250974408e-11
7.46100366825e-06
4.48064765458e-12
7.46107518283e-06
-7.21064282856e-11
7.46128161154e-06
-2.07061745153e-10
7.46171742722e-06
-4.36375158445e-10
7.46253274258e-06
-8.15698171928e-10
7.46396273803e-06
-1.43030002546e-09
7.46636278882e-06
-2.40035626591e-09
7.47018209385e-06
-3.81963487431e-09
7.4766322018e-06
-6.45040621796e-09
7.48740363619e-06
-1.07717373064e-08
7.50557841792e-06
-1.8175111532e-08
7.53876237688e-06
-3.31843113676e-08
7.6079725887e-06
-6.92105656879e-08
7.77462221329e-06
-1.66649952643e-07
8.22949877581e-06
-4.54876888347e-07
9.69701729642e-06
-1.46751894089e-06
-5.45098607175e-06
1.5148002767e-05
5.02175952259e-05
1.59362845892e-05
4.42441127396e-05
1.73623934106e-05
3.77795033859e-05
1.26632667286e-05
3.26461467786e-05
8.59413421614e-06
2.8938095637e-05
5.70118578899e-06
2.63596262553e-05
3.77852326e-06
2.45875228156e-05
2.52537203092e-06
2.33734815901e-05
1.70101074514e-06
2.25435331646e-05
1.1499667977e-06
2.19782248821e-05
7.7680332658e-07
2.15955225851e-05
5.22145493952e-07
2.1338746149e-05
3.47933195493e-07
2.11685047834e-05
2.29004010848e-07
2.10573474752e-05
1.48294223943e-07
2.0986160098e-05
9.40271568252e-08
2.09416885129e-05
5.79930084816e-08
2.0914807706e-05
3.44463495106e-08
2.08993097376e-05
1.9367161914e-08
2.08910870942e-05
9.94286535248e-09
2.08872877163e-05
4.207041627e-09
2.08862193855e-05
7.19400094943e-10
2.08864655907e-05
-9.31745973364e-10
2.08873373226e-05
-1.62963578625e-09
2.088847704e-05
-1.86468527216e-09
2.08896506016e-05
-1.81752407861e-09
2.08907338908e-05
-1.62678809894e-09
2.08916718333e-05
-1.37952903069e-09
2.0892449703e-05
-1.12605453802e-09
2.08930751881e-05
-8.93278976418e-10
2.08935674312e-05
-6.93852657716e-10
2.0893951191e-05
-5.32660158324e-10
2.08942523029e-05
-4.09086879663e-10
2.08944626622e-05
-2.87090850752e-10
2.08946089175e-05
-1.99810783686e-10
2.08947083736e-05
-1.33711767928e-10
2.08947727252e-05
-8.42590150025e-11
2.08948121561e-05
-4.9701305385e-11
2.08948349115e-05
-2.67696690182e-11
2.08948458764e-05
-1.06152955215e-11
2.08948480599e-05
1.44713037223e-12
2.08948440194e-05
1.0149243923e-11
2.08948355351e-05
1.65822500349e-11
2.08948238155e-05
2.15224001753e-11
2.08948095514e-05
2.55604572854e-11
2.08947930505e-05
2.92338784099e-11
2.08947743761e-05
3.29261335372e-11
2.08947534114e-05
3.68369468234e-11
2.08947298823e-05
4.11584644437e-11
2.08947035417e-05
4.60872057871e-11
2.08946741153e-05
5.18501219628e-11
2.08946413278e-05
5.84440735789e-11
2.08946049994e-05
6.58875441402e-11
2.08945651194e-05
7.40928472048e-11
2.08945219789e-05
8.28074421375e-11
2.08944763608e-05
9.14897186729e-11
2.08944301218e-05
9.91875737839e-11
2.08943867062e-05
1.04083405689e-10
2.08943519337e-05
1.03069756614e-10
2.08943356506e-05
9.19580343311e-11
2.08943531692e-05
6.29291604799e-11
2.08944314525e-05
3.83349819058e-13
2.08946192721e-05
-1.22721476737e-10
2.08949851976e-05
-3.21962003087e-10
2.0895648045e-05
-6.59525973408e-10
2.08967147812e-05
-1.13984913119e-09
2.08983636202e-05
-1.85675604235e-09
2.09009522247e-05
-3.02586086454e-09
2.09050284828e-05
-4.89277891246e-09
2.09114615022e-05
-7.86403868238e-09
2.09216747759e-05
-1.26142703352e-08
2.09381582103e-05
-2.03037077982e-08
2.09650562446e-05
-3.33491015202e-08
2.10093078869e-05
-5.50240043193e-08
2.10840836191e-05
-9.29514522672e-08
2.12153050934e-05
-1.64406399777e-07
2.14558709973e-05
-3.09777096524e-07
2.19136178563e-05
-6.24397443266e-07
2.28004178854e-05
-1.34167748248e-06
2.44440121851e-05
-3.11111369504e-06
-7.03695380706e-06
2.60299791911e-05
5.3517105704e-05
1.24191792445e-05
5.2934969392e-05
1.79445303458e-05
4.96538419369e-05
1.59443948439e-05
4.58401841236e-05
1.240779281e-05
4.24400960735e-05
9.10127471607e-06
3.97291771099e-05
6.48944314065e-06
3.7687311581e-05
4.56723842212e-06
3.61976695548e-05
3.19065347433e-06
3.51326194998e-05
2.21501731516e-06
3.43823747856e-05
1.52704824912e-06
3.38606339596e-05
1.04388635866e-06
3.35023537843e-05
7.06213344918e-07
3.32596089814e-05
4.71748840499e-07
3.3097598935e-05
3.10304478104e-07
3.29913433626e-05
2.00283201768e-07
3.29231022471e-05
1.26234877552e-07
3.28804152609e-05
7.7134303416e-08
3.28546311736e-05
4.51523109732e-08
3.28398051017e-05
2.47700057275e-08
3.28318794306e-05
1.2133622305e-08
3.28280106073e-05
4.58891148426e-09
3.28270123535e-05
6.70059783944e-11
3.28271933841e-05
-1.81029531703e-09
3.28280419832e-05
-2.71295202671e-09
3.28291579534e-05
-2.93312435269e-09
3.28303054573e-05
-2.77385058596e-09
3.2831361721e-05
-2.43531747096e-09
3.28322723793e-05
-2.03627596108e-09
3.28330224985e-05
-1.64309715708e-09
3.28336180816e-05
-1.28935710164e-09
3.28340739943e-05
-9.88763785616e-10
3.28344084683e-05
-7.43933030898e-10
3.28346740931e-05
-5.53317436588e-10
3.28348894266e-05
-4.16006686338e-10
3.28350355345e-05
-2.80824915215e-10
3.28351335195e-05
-1.83361977201e-10
3.28351980481e-05
-1.15434954826e-10
3.28352386139e-05
-6.85434874222e-11
3.28352621788e-05
-3.532824406e-11
3.28352727858e-05
-1.01496412932e-11
3.28352741321e-05
8.10812946928e-12
3.28352688301e-05
2.15843274011e-11
3.28352587474e-05
3.17453491406e-11
3.28352451118e-05
3.98061643411e-11
3.28352286173e-05
4.67093644407e-11
3.2835209606e-05
5.31175991711e-11
3.28351883033e-05
5.94591443043e-11
3.28351648003e-05
6.60110534421e-11
3.28351391619e-05
7.30352123613e-11
3.28351113517e-05
8.0907231933e-11
3.28350816357e-05
8.92982116169e-11
3.28350505816e-05
9.79203927592e-11
3.28350191936e-05
1.06240518138e-10
3.2834989258e-05
1.13241222141e-10
3.28349637287e-05
1.17163353554e-10
3.28349472752e-05
1.15462648966e-10
3.28349471299e-05
1.03929138198e-10
3.28349747385e-05
7.4812195055e-11
3.28350476077e-05
1.82709459616e-11
3.2835195719e-05
-8.59785029694e-11
3.28354703522e-05
-2.7522019202e-10
3.2835961057e-05
-6.14421476086e-10
3.28366798972e-05
-1.04179616703e-09
3.28377242401e-05
-1.7049042804e-09
3.28393535691e-05
-2.77011101989e-09
3.28419422712e-05
-4.44620677441e-09
3.2845994479e-05
-7.07871044153e-09
3.28523246435e-05
-1.12235612006e-08
3.2862245608e-05
-1.77855759236e-08
3.28779213e-05
-2.82904909614e-08
3.29030111849e-05
-4.53940889347e-08
3.29428643614e-05
-7.32027862599e-08
3.30073073454e-05
-1.19467491815e-07
3.3113316185e-05
-1.98960784179e-07
3.32898929191e-05
-3.40983593853e-07
3.35852224436e-05
-6.05107057315e-07
3.40703526539e-05
-1.10952807718e-06
3.48113714092e-05
-2.08269668085e-06
3.56720298726e-05
-3.97177253721e-06
-7.10492057973e-06
3.57399963835e-05
5.35105668262e-05
8.90861274709e-06
5.55742232731e-05
1.58808744953e-05
5.52424842851e-05
1.62761344684e-05
5.35977885996e-05
1.40524892603e-05
5.15418513165e-05
1.11572128702e-05
4.95802845613e-05
8.45101079426e-06
4.79243564948e-05
6.22316732145e-06
4.66181454232e-05
4.49686522192e-06
4.5630473207e-05
3.20268999296e-06
4.49051246074e-05
2.25239706949e-06
4.438409758e-05
1.5649134128e-06
4.40167015059e-05
1.07360937023e-06
4.37619751281e-05
7.26475226624e-07
4.35882768006e-05
4.84002989554e-07
4.34718779628e-05
3.166824693e-07
4.33953686678e-05
2.02744859681e-07
4.33461993702e-05
1.26304490252e-07
4.33154628254e-05
7.58898227316e-08
4.32969274924e-05
4.33062698982e-08
4.32863023082e-05
2.27596125195e-08
4.32807001468e-05
1.01916784661e-08
4.32778929464e-05
2.8746286577e-09
4.32770654808e-05
-9.82519125825e-10
4.32772836488e-05
-2.93083958141e-09
4.32779714806e-05
-3.62063178907e-09
4.32788348937e-05
-3.63685646701e-09
4.32797080886e-05
-3.30807038575e-09
4.32805058881e-05
-2.83366949969e-09
4.32811918645e-05
-2.32878704843e-09
4.32817577315e-05
-1.85512731059e-09
4.32822102479e-05
-1.44145198971e-09
4.32825621631e-05
-1.09626821413e-09
4.328282321e-05
-8.14991704054e-10
4.32829977751e-05
-5.91340298995e-10
4.32831297922e-05
-4.13799019007e-10
4.32832141053e-05
-2.68745372611e-10
4.328326689e-05
-1.69394386579e-10
4.32833054985e-05
-1.08329919988e-10
4.32833287895e-05
-5.97242417949e-11
4.32833398451e-05
-2.21673472725e-11
4.32833422208e-05
5.05823549346e-12
4.32833380108e-05
2.55585588356e-11
4.32833289239e-05
4.10261923287e-11
4.32833161356e-05
5.31811266073e-11
4.32833002535e-05
6.35644754127e-11
4.32832816006e-05
7.29862394714e-11
4.32832604346e-05
8.19814764579e-11
4.32832369514e-05
9.08861081318e-11
4.32832114402e-05
9.99076678028e-11
4.32831844566e-05
1.09163507055e-10
4.32831565946e-05
1.18289994323e-10
4.32831287685e-05
1.26680848049e-10
4.32831024165e-05
1.3330660626e-10
4.32830796472e-05
1.36501970513e-10
4.32830633694e-05
1.33644289045e-10
4.3283058085e-05
1.20590471237e-10
4.32830719872e-05
8.96523352121e-11
4.32831170713e-05
2.91671485546e-11
4.32832127159e-05
-7.81020406918e-11
4.32833751257e-05
-2.49144246384e-10
4.32836198493e-05
-5.20950029562e-10
4.32840653548e-05
-1.06101102533e-09
4.32848408777e-05
-1.81829146232e-09
4.32860988085e-05
-2.96376616571e-09
4.32880472263e-05
-4.7194875658e-09
4.32910365154e-05
-7.43631304157e-09
4.32956263766e-05
-1.16692632373e-08
4.33026954043e-05
-1.82932083499e-08
4.33136256177e-05
-2.87163322621e-08
4.33305744555e-05
-4.52398364152e-08
4.33568500893e-05
-7.1670209883e-08
4.33980207681e-05
-1.14373934315e-07
4.34629337531e-05
-1.84380939544e-07
4.35653055022e-05
-3.01332967115e-07
4.37250766495e-05
-5.00755137079e-07
4.39668195789e-05
-8.46850353797e-07
4.43071618543e-05
-1.44987071147e-06
4.47073492377e-05
-2.48288447744e-06
4.49264193834e-05
-4.19084315867e-06
-6.57546154597e-06
4.43969600498e-05
5.27351383567e-05
6.17347470185e-06
5.57309354424e-05
1.28850779972e-05
5.73114759841e-05
1.46955945783e-05
5.76109943317e-05
1.37529716903e-05
5.71335261488e-05
1.16346819438e-05
5.63194726799e-05
9.26506518408e-06
5.54489935351e-05
7.09364732695e-06
5.46629838655e-05
5.28287559043e-06
5.40136889854e-05
3.85198535035e-06
5.35061581125e-05
2.75992819491e-06
5.31242624858e-05
1.94680911525e-06
5.28449931613e-05
1.35287867679e-06
5.26454471937e-05
9.26021222909e-07
5.25057234074e-05
6.23726981287e-07
5.24097293531e-05
4.12676981884e-07
5.23450243059e-05
2.67450599253e-07
5.23022876436e-05
1.69042037617e-07
5.22747017202e-05
1.03476710141e-07
5.22573783551e-05
6.06305473608e-08
5.22468706771e-05
3.32680689301e-08
5.22407717444e-05
1.62912146773e-08
5.22374633775e-05
6.18342573814e-09
5.22359650047e-05
5.16180467519e-10
5.22354572298e-05
-2.42276144441e-09
5.22355223076e-05
-3.68536934255e-09
5.22358679059e-05
-3.98203745007e-09
5.2236322288e-05
-3.76199815641e-09
5.22367887561e-05
-3.29973112813e-09
5.22372161505e-05
-2.75589983753e-09
5.22375816791e-05
-2.22057603751e-09
5.22378786115e-05
-1.73852980717e-09
5.2238109749e-05
-1.32779078998e-09
5.22382853741e-05
-9.91228508301e-10
5.22384174335e-05
-7.24177017373e-10
5.22385167964e-05
-5.14091558463e-10
5.22386002433e-05
-3.53265628803e-10
5.22386645714e-05
-2.34901823084e-10
5.22387055985e-05
-1.50604458902e-10
5.22387372063e-05
-9.24566789394e-11
5.22387516387e-05
-3.75322884016e-11
5.22387561753e-05
-1.34678645041e-13
5.22387535137e-05
2.79759289846e-11
5.2238745655e-05
4.91276338039e-11
5.22387339246e-05
6.55426168179e-11
5.22387191033e-05
7.9308077149e-11
5.2238701676e-05
9.1564880056e-11
5.22386820493e-05
1.02915956985e-10
5.22386607545e-05
1.13541343757e-10
5.2238638953e-05
1.23078275882e-10
5.22386143939e-05
1.35036035213e-10
5.2238588834e-05
1.45025641272e-10
5.22385633447e-05
1.53097753733e-10
5.22385394826e-05
1.57785318412e-10
5.22385199049e-05
1.56412031854e-10
5.22385103044e-05
1.43378683785e-10
5.22385194465e-05
1.11371568168e-10
5.22385509412e-05
5.77700215781e-11
5.22386281395e-05
-4.86467513113e-11
5.22387484678e-05
-1.99232263643e-10
5.22389444483e-05
-4.45880066354e-10
5.22392825877e-05
-8.59910205424e-10
5.22398019124e-05
-1.58138988139e-09
5.22405769539e-05
-2.59442423176e-09
5.2241740735e-05
-4.12847126269e-09
5.22434965805e-05
-6.47627484306e-09
5.22461459171e-05
-1.00864717752e-08
5.22501407615e-05
-1.56648191471e-08
5.22561723495e-05
-2.43254181414e-08
5.22652995689e-05
-3.78440749835e-08
5.22791397356e-05
-5.90804635952e-08
5.23001503674e-05
-9.26812599706e-08
5.2332046472e-05
-1.46270451098e-07
5.23801701685e-05
-2.32505025532e-07
5.24514450623e-05
-3.72608182688e-07
5.25527304917e-05
-6.02040842248e-07
5.26845654797e-05
-9.78685568486e-07
5.28247182208e-05
-1.59002364358e-06
5.28917027948e-05
-2.54986923958e-06
5.26730795295e-05
-3.97222018893e-06
-5.76658000542e-06
5.18641977226e-05
5.19834868226e-05
4.18998818999e-06
5.50586649589e-05
9.80990043621e-06
5.76386148896e-05
1.21156452949e-05
5.93259056611e-05
1.20656817007e-05
6.0228018639e-05
1.07325698701e-05
6.05929307944e-05
8.90015396248e-06
6.06482886183e-05
7.0382903741e-06
6.05531949093e-05
5.37797002448e-06
6.04029608569e-05
4.00221990332e-06
6.02479206367e-05
2.91496867809e-06
6.01107952154e-05
2.08393462562e-06
5.99990357243e-05
1.46463817943e-06
5.99125206206e-05
1.01253636444e-06
5.98479289597e-05
6.88318831061e-07
5.98010258626e-05
4.59580509491e-07
5.97677419151e-05
3.00735214661e-07
5.97446014378e-05
1.92183356333e-07
5.9728823847e-05
1.1925522144e-07
5.97182766056e-05
7.1178661817e-08
5.97113711754e-05
4.01742322514e-08
5.97069524036e-05
2.07105568957e-08
5.97042188998e-05
8.91734654599e-09
5.97026101274e-05
2.12527382181e-09
5.97017057978e-05
-1.51812955585e-09
5.97012477031e-05
-3.22694731066e-09
5.97010584163e-05
-3.7923700517e-09
5.9701022386e-05
-3.72556519909e-09
5.97010668947e-05
-3.34388977793e-09
5.97011481727e-05
-2.8369438953e-09
5.9701240484e-05
-2.31284596419e-09
5.97013299313e-05
-1.82813323904e-09
5.97014098919e-05
-1.40811051388e-09
5.97014789289e-05
-1.06083127208e-09
5.97015376649e-05
-7.83661687863e-10
5.9701586916e-05
-5.64241072871e-10
5.97016256024e-05
-3.92991347843e-10
5.97016521681e-05
-2.62623891869e-10
5.97016662765e-05
-1.65857178394e-10
5.97016634906e-05
-9.07859713851e-11
5.9701654483e-05
-2.94531772852e-11
5.97016472324e-05
6.4906546182e-12
5.9701637748e-05
3.72039935312e-11
5.97016274284e-05
5.95305120476e-11
5.97016164375e-05
7.70816809457e-11
5.97016035769e-05
9.30793528154e-11
5.97015886132e-05
1.07706388667e-10
5.97015715494e-05
1.21336495532e-10
5.97015523337e-05
1.34171222676e-10
5.97015305773e-05
1.46201305362e-10
5.9701509709e-05
1.57190297427e-10
5.97014895656e-05
1.66361810183e-10
5.97014713591e-05
1.72342805412e-10
5.97014567204e-05
1.73184553425e-10
5.97014470454e-05
1.66486545166e-10
5.97014409943e-05
1.49502655567e-10
5.97014323125e-05
1.19948126004e-10
5.97014378101e-05
5.1961856119e-11
5.97014494593e-05
-6.08854111417e-11
5.97015352888e-05
-2.85839628689e-10
5.97017250965e-05
-6.36666277855e-10
5.97020254852e-05
-1.16123091196e-09
5.97024134222e-05
-1.97027563651e-09
5.9702993365e-05
-3.17541781472e-09
5.97038479151e-05
-4.98389824192e-09
5.9705091044e-05
-7.72020714768e-09
5.97068879143e-05
-1.18840652529e-08
5.97094766875e-05
-1.82541971364e-08
5.97132013759e-05
-2.80506537554e-08
5.97185517041e-05
-4.31949022275e-08
5.97262083273e-05
-6.67375083235e-08
5.97370724497e-05
-1.03545738813e-07
5.97522061091e-05
-1.61404458052e-07
5.97724461468e-05
-2.5274540127e-07
5.97971997757e-05
-3.97362088425e-07
5.98213090596e-05
-6.26150334499e-07
5.98278985898e-05
-9.85275263173e-07
5.97749313609e-05
-1.53705655524e-06
5.95744999069e-05
-2.34943797942e-06
5.90688160701e-05
-3.46653652978e-06
-4.79550309444e-06
5.80977390328e-05
5.14373057215e-05
2.75268278298e-06
5.42658215589e-05
6.98138519046e-06
5.7249644906e-05
9.13182260248e-06
5.9790030063e-05
9.52529733644e-06
6.17201314671e-05
8.80246938597e-06
6.30883073538e-05
7.53197903932e-06
6.40167217807e-05
6.1098768444e-06
6.46292422976e-05
4.7654502562e-06
6.50258097534e-05
3.60565297117e-06
6.52790845981e-05
2.66169412017e-06
6.54389797369e-05
1.92403957916e-06
6.55386965938e-05
1.36492134348e-06
6.5599935212e-05
9.51297805488e-07
6.56367502764e-05
6.51503971979e-07
6.56582018651e-05
4.38129340904e-07
6.56701108168e-05
2.88826904096e-07
6.56762009625e-05
1.86094016243e-07
6.56788382582e-05
1.16618806142e-07
6.56795096542e-05
7.05081178322e-08
6.56791342725e-05
4.05503368251e-08
6.56782675233e-05
2.15778670137e-08
6.56772370792e-05
9.9482084441e-09
6.56762281762e-05
3.13450475178e-09
6.56753191779e-05
-6.08828551542e-10
6.56745507621e-05
-2.45821315177e-09
6.56739227016e-05
-3.16397078381e-09
6.56734241097e-05
-3.22663772736e-09
6.56730374708e-05
-2.95697688606e-09
6.56727437632e-05
-2.54305832239e-09
6.56725247685e-05
-2.09383342078e-09
6.56723643438e-05
-1.66788074379e-09
6.56722488113e-05
-1.2929379929e-09
6.56721660229e-05
-9.78585394734e-10
6.56721053677e-05
-7.23713867258e-10
6.56720610891e-05
-5.20807763167e-10
6.56720289737e-05
-3.61849749253e-10
6.56720028929e-05
-2.37686863654e-10
6.56719802395e-05
-1.44411396252e-10
6.56719641731e-05
-7.58484834723e-11
6.56719614807e-05
-2.77323449468e-11
6.56719593109e-05
8.02041492544e-12
6.56719516618e-05
4.45972395841e-11
6.56719418331e-05
6.96348513784e-11
6.5671929899e-05
8.96698604707e-11
6.56719167628e-05
1.07181268419e-10
6.56719023818e-05
1.23297750625e-10
6.567188653e-05
1.38582479058e-10
6.56718690634e-05
1.53139583491e-10
6.56718503485e-05
1.66349686818e-10
6.56718324013e-05
1.76392095858e-10
6.56718141104e-05
1.85697155255e-10
6.56717959689e-05
1.91350750131e-10
6.56717790765e-05
1.90766303105e-10
6.56717653304e-05
1.80639082246e-10
6.5671758508e-05
1.56412134488e-10
6.56717662926e-05
1.12081835237e-10
6.56717721411e-05
4.58855241073e-11
6.56718066112e-05
-9.60013866344e-11
6.56718741389e-05
-3.53963756351e-10
6.56719728366e-05
-7.36214652296e-10
6.56721237304e-05
-1.31313772477e-09
6.56723340355e-05
-2.18153494631e-09
6.5672620316e-05
-3.46272872937e-09
6.5672999391e-05
-5.36391456067e-09
6.5673482318e-05
-8.20396657709e-09
6.56740668923e-05
-1.24693744845e-08
6.56747232216e-05
-1.89111258545e-08
6.56753660045e-05
-2.86939520656e-08
6.56757946969e-05
-4.362406459e-08
6.56755822928e-05
-6.65255249291e-08
6.56738603322e-05
-1.01824128332e-07
6.56688962742e-05
-1.56440664952e-07
6.56571579205e-05
-2.41007265323e-07
6.56315200569e-05
-3.71724352288e-07
6.55778377383e-05
-5.7246805096e-07
6.54688895346e-05
-8.76327058335e-07
6.5255530178e-05
-1.32369719921e-06
6.48577541749e-05
-1.95166214045e-06
6.41631640394e-05
-2.77194657669e-06
-3.71401305131e-06
6.30816739203e-05
5.10850427085e-05
1.66764038458e-06
5.36118455512e-05
4.45458295481e-06
5.66873181642e-05
6.05635065757e-06
5.96894489901e-05
6.52316731621e-06
6.2299730522e-05
6.19218878126e-06
6.44136930375e-05
5.41801749551e-06
6.60471900614e-05
4.47638073265e-06
6.72686223503e-05
3.54401874221e-06
6.81599019187e-05
2.7143739463e-06
6.87977688415e-05
2.02382750174e-06
6.92467533886e-05
1.47505514146e-06
6.95579723486e-05
1.05370240639e-06
6.97704392335e-05
7.38830988663e-07
6.9913182699e-05
5.08760722906e-07
7.00073944762e-05
3.43917991513e-07
7.00683049753e-05
2.27917041814e-07
7.01067081381e-05
1.47691640413e-07
7.01301516642e-05
9.31761297934e-08
7.01438419836e-05
5.68186207822e-08
7.01513191497e-05
3.30738853619e-08
7.0154952511e-05
1.79450725098e-08
7.01563009936e-05
8.60015108746e-09
7.01563734507e-05
3.06238151295e-09
7.01557818894e-05
-1.69871826422e-11
7.0154921472e-05
-1.59750280793e-09
7.0153998319e-05
-2.24050607619e-09
7.01531301302e-05
-2.35815646973e-09
7.01523705237e-05
-2.19715715068e-09
7.01517366759e-05
-1.90910742766e-09
7.01512257079e-05
-1.58288538338e-09
7.01508246483e-05
-1.26700428824e-09
7.01505165377e-05
-9.85174313083e-10
7.01502837211e-05
-7.46285589593e-10
7.01501100229e-05
-5.50708124975e-10
7.01499824521e-05
-3.94093415551e-10
7.0149890373e-05
-2.70756286691e-10
7.01498267006e-05
-1.75100432782e-10
7.0149784022e-05
-1.02897672179e-10
7.01497544885e-05
-4.7420006471e-11
7.01497237022e-05
2.17373238979e-12
7.01496996797e-05
3.13855264494e-11
7.01496863564e-05
5.76022115375e-11
7.01496759869e-05
8.00694191374e-11
7.01496666381e-05
9.9524127831e-11
7.01496575167e-05
1.17187564897e-10
7.01496481489e-05
1.33805325407e-10
7.01496382913e-05
1.4972572349e-10
7.01496279059e-05
1.649201812e-10
7.01496167595e-05
1.78947341805e-10
7.01496033659e-05
1.91163920251e-10
7.01495895554e-05
2.00648898458e-10
7.01495761304e-05
2.05660357852e-10
7.01495638719e-05
2.03727094554e-10
7.01495533385e-05
1.91667591547e-10
7.01495438553e-05
1.65977135942e-10
7.01495327202e-05
1.23052029059e-10
7.0149526691e-05
5.17934370942e-11
7.01495147781e-05
-8.50255744909e-11
7.01495259127e-05
-3.6586918086e-10
7.0149548825e-05
-7.5989805823e-10
7.01495718254e-05
-1.33715400802e-09
7.01495737224e-05
-2.18440251266e-09
7.01495277839e-05
-3.41769674774e-09
7.01493808432e-05
-5.2177959693e-09
7.0149034066e-05
-7.85790356251e-09
7.01483124085e-05
-1.1748360017e-08
7.01469144303e-05
-1.75136879202e-08
7.0144328913e-05
-2.61088653002e-08
7.01396821356e-05
-3.89776824259e-08
7.01314936225e-05
-5.83374358e-08
7.01172749615e-05
-8.76058660309e-08
7.0092873664e-05
-1.32039648561e-07
7.00512037348e-05
-1.99337514839e-07
6.9980297516e-05
-3.00818231682e-07
6.98601996643e-05
-4.52370236598e-07
6.96584834496e-05
-6.74610831305e-07
6.93252653462e-05
-9.90478985747e-07
6.87910440448e-05
-1.41744087692e-06
6.79733052681e-05
-1.95420797179e-06
-2.55477576447e-06
6.68140679566e-05
5.08804135412e-05
7.87227152387e-07
5.31704671899e-05
2.16452992909e-06
5.62177514491e-05
3.00906708116e-06
5.94382722681e-05
3.30264731923e-06
6.24449730025e-05
3.18548899559e-06
6.50382573562e-05
2.82473412942e-06
6.7154871776e-05
2.35976721625e-06
6.88135709674e-05
1.8853203096e-06
7.00731774477e-05
1.4547680066e-06
7.10056746676e-05
1.09133058524e-06
7.16812710525e-05
7.99458872656e-07
7.21614304397e-05
5.73543041564e-07
7.24966114643e-05
4.03650024696e-07
7.27264882855e-05
2.78884110197e-07
7.28812876816e-05
1.89119017909e-07
7.298347816e-05
1.25727200611e-07
7.30494228306e-05
8.17477579753e-08
7.30908258956e-05
5.17739153899e-08
7.31159207618e-05
3.17245737001e-08
7.31304060764e-05
1.85892847049e-08
7.31381614189e-05
1.01903007468e-08
7.31417823033e-05
4.97969402688e-09
7.31429703238e-05
1.87469227489e-09
7.31428241816e-05
1.29445088269e-10
7.31420011382e-05
-7.74219286874e-10
7.3140918415e-05
-1.15754374759e-09
7.31398037255e-05
-1.24324223216e-09
7.31387764439e-05
-1.1697056019e-09
7.31378889988e-05
-1.0215876089e-09
7.31371552898e-05
-8.49194959509e-10
7.31365678956e-05
-6.79753140268e-10
7.31361094223e-05
-5.26965927523e-10
7.3135758966e-05
-3.96263568419e-10
7.31354958805e-05
-2.88243845965e-10
7.31353018195e-05
-2.00839700341e-10
7.31351611569e-05
-1.31079388163e-10
7.3135060685e-05
-7.57254894006e-11
7.31349879742e-05
-3.13327830006e-11
7.31349336306e-05
5.74855021835e-12
7.31349028956e-05
3.1921623732e-11
7.31348790864e-05
5.45018579619e-11
7.31348619404e-05
7.44322818893e-11
7.31348496162e-05
9.24631682041e-11
7.31348403045e-05
1.09308060773e-10
7.31348327495e-05
1.25647986311e-10
7.31348259825e-05
1.41798410925e-10
7.31348192799e-05
1.57805404616e-10
7.31348120937e-05
1.73480516325e-10
7.31348040789e-05
1.882923214e-10
7.31347951833e-05
2.01338774571e-10
7.31347853625e-05
2.1159867727e-10
7.31347746528e-05
2.17273070476e-10
7.31347631725e-05
2.15873429416e-10
7.31347512723e-05
2.04126354366e-10
7.31347394594e-05
1.77978666862e-10
7.31347286243e-05
1.33559185186e-10
7.31347127615e-05
6.81257536576e-11
7.31346895736e-05
-6.23044061622e-11
7.31346477238e-05
-3.24901667002e-10
7.31345815197e-05
-6.94440773329e-10
7.3134467146e-05
-1.22367516419e-09
7.31342614629e-05
-1.97969476621e-09
7.31338965872e-05
-3.05369676806e-09
7.31332576219e-05
-4.57963739406e-09
7.31321517185e-05
-6.75266390535e-09
7.31302571813e-05
-9.85439139905e-09
7.312704662e-05
-1.43036414253e-08
7.31216652544e-05
-2.07279088493e-08
7.31127008302e-05
-3.00135898898e-08
7.30978492161e-05
-4.34861501977e-08
7.30734036132e-05
-6.31606207794e-08
7.30334682016e-05
-9.21045442429e-08
7.2968531895e-05
-1.34401375717e-07
7.28635807226e-05
-1.95867092328e-07
7.26954539473e-05
-2.84243414988e-07
7.24296598864e-05
-4.0881673419e-07
7.20178505282e-05
-5.7866953501e-07
7.13988483546e-05
-7.98438631822e-07
7.05071297049e-05
-1.06248942488e-06
-1.34575080916e-06
6.92981046937e-05
5.07871729504e-05
5.45181077875e-11
5.29516508887e-05
5.2645777801e-11
5.59606902192e-05
2.8457712474e-11
5.92633244855e-05
1.38826092106e-11
6.24488119357e-05
2.4958125655e-12
6.52735533479e-05
-6.28181799331e-12
6.76333336494e-05
-1.21545097791e-11
6.95186698105e-05
-1.50959708139e-11
7.09734539104e-05
-1.55553064047e-11
7.20647989435e-05
-1.41396209075e-11
7.28642694122e-05
-1.14634157947e-11
7.34378206651e-05
-8.16009308219e-12
7.38414756491e-05
-4.86581307408e-12
7.41203622112e-05
-2.21505627612e-12
7.43094824542e-05
-7.9464995785e-13
7.44352112722e-05
-9.72185813661e-13
7.45169628809e-05
-3.04481097918e-12
7.45687444318e-05
-6.76024204527e-12
7.46004813402e-05
-1.14837644582e-11
7.4619087607e-05
-1.6235880707e-11
7.46292983981e-05
-1.98861313843e-11
7.46342998999e-05
-2.13448116842e-11
7.46361951088e-05
-2.0164998298e-11
7.46363424737e-05
-1.76460284217e-11
7.46355834306e-05
-1.49838739851e-11
7.4634437793e-05
-1.17625681507e-11
7.46332028486e-05
-8.17730534183e-12
7.46320375188e-05
-4.30565863194e-12
7.46310156023e-05
3.22958708073e-13
7.46301621633e-05
4.18069412396e-12
7.46294736517e-05
8.59150935714e-12
7.46289330631e-05
1.33611585196e-11
7.46285179673e-05
1.84580093612e-11
7.46282052417e-05
2.39536396839e-11
7.46279736626e-05
3.00350899037e-11
7.46278048849e-05
3.67991719886e-11
7.46276837727e-05
4.43166397871e-11
7.46275986943e-05
5.25820763536e-11
7.46275417817e-05
6.15766984522e-11
7.4627501758e-05
7.09358679894e-11
7.4627474834e-05
8.06277045199e-11
7.46274572931e-05
9.15681686662e-11
7.46274462116e-05
1.03594154766e-10
7.46274393045e-05
1.16624560481e-10
7.46274350212e-05
1.30710838156e-10
7.46274322376e-05
1.45711298952e-10
7.46274301234e-05
1.61308225652e-10
7.46274280048e-05
1.77054501267e-10
7.46274253597e-05
1.92313219101e-10
7.46274218063e-05
2.06165232371e-10
7.46274170746e-05
2.17432287156e-10
7.46274109225e-05
2.24339455632e-10
7.46274029344e-05
2.24529603815e-10
7.46273925447e-05
2.15071921585e-10
7.46273785139e-05
1.92366319991e-10
7.46273587367e-05
1.52881252615e-10
7.46273331813e-05
9.34892010021e-11
7.46272877109e-05
-1.68531014768e-11
7.46271992735e-05
-2.3720775685e-10
7.4627063209e-05
-5.59195033476e-10
7.46268400783e-05
-1.00131813542e-09
7.46264691211e-05
-1.60957974799e-09
7.46258542089e-05
-2.43955236091e-09
7.46248386642e-05
-3.56479467199e-09
7.46231675526e-05
-5.08215054162e-09
7.46204244073e-05
-7.11175788754e-09
7.46159425259e-05
-9.82225533951e-09
7.46086645837e-05
-1.34504244832e-08
7.45968548065e-05
-1.82041984959e-08
7.45777134083e-05
-2.43450875406e-08
7.45468232458e-05
-3.22707967233e-08
7.44974584701e-05
-4.27400784428e-08
7.44188867843e-05
-5.58298361776e-08
7.42947171027e-05
-7.16973845061e-08
7.41005811301e-05
-9.01073695224e-08
7.38016773296e-05
-1.09912902662e-07
7.33513665037e-05
-1.28358599842e-07
7.2693206122e-05
-1.40278021801e-07
7.17692039942e-05
-1.38487246168e-07
-1.1449891355e-07
7.05379519804e-05
5.07871719212e-05
-7.87117078244e-07
5.29516500578e-05