/*--------------------------------*- C++ -*----------------------------------*\
| =========                 |                                                 |
| \\      /  F ield         | OpenFOAM: The Open Source CFD Toolbox           |
|  \\    /   O peration     | Version:  2106                                  |
|   \\  /    A nd           | Website:  www.openfoam.com                      |
|    \\/     M anipulation  |                                                 |
\*---------------------------------------------------------------------------*/
FoamFile
{
    version     2.0;
    format      ascii;
    arch        "LSB;label=32;scalar=64";
    class       volVectorField;
    location    "0.375";
    object      U;
}
// * * * * * * * * * * * * * * * * * * * * * * * * * * * * * * * * * * * * * //

dimensions      [0 1 -1 0 0 0 0];

internalField   nonuniform List<vector> 
11200
(
(0.66246240611 0.150569440954 0)
(0.558948686392 0.103243387328 0)
(0.383850766139 0.0513512230115 0)
(0.283747639545 0.0248708538507 0)
(0.232075331739 0.0124170437654 0)
(0.201908667083 0.00662281555169 0)
(0.183198031935 0.00380291362749 0)
(0.171276604552 0.00231586991512 0)
(0.163510436125 0.00146450697217 0)
(0.158388909382 0.000944893093359 0)
(0.155006776861 0.000615177380271 0)
(0.152786825092 0.000402233789599 0)
(0.151346677085 0.00026423154031 0)
(0.150428443194 0.00017524873108 0)
(0.149856844784 0.00011835865086 0)
(0.149512653011 8.21576294578e-05 0)
(0.14931510561 5.88635560764e-05 0)
(0.149209759399 4.33136072592e-05 0)
(0.149159915451 3.29327942445e-05 0)
(0.149142688814 2.8185996783e-05 0)
(0.149144854742 2.76849073495e-05 0)
(0.149157136267 2.98905685431e-05 0)
(0.149172759816 3.30506616653e-05 0)
(0.149188306423 3.59657066126e-05 0)
(0.149202512997 3.86007173565e-05 0)
(0.149214780685 4.10396186042e-05 0)
(0.149224942156 4.33171912121e-05 0)
(0.149233103835 4.5464472522e-05 0)
(0.149239501338 4.75205077054e-05 0)
(0.149244415438 4.95321461998e-05 0)
(0.149248130293 5.15613433908e-05 0)
(0.149250912321 5.36993022888e-05 0)
(0.149252958699 5.60281194168e-05 0)
(0.149254440316 5.84094320949e-05 0)
(0.149255490205 6.07702871182e-05 0)
(0.149256195463 6.30914101235e-05 0)
(0.149256653337 6.53829893903e-05 0)
(0.149256948221 6.76575169647e-05 0)
(0.149257134724 6.9926472337e-05 0)
(0.149257243266 7.21960702689e-05 0)
(0.14925729681 7.44674358576e-05 0)
(0.149257314824 7.67416429142e-05 0)
(0.149257310901 7.90186255818e-05 0)
(0.149257294161 8.12976784362e-05 0)
(0.149257270513 8.35772796987e-05 0)
(0.149257243812 8.58547641066e-05 0)
(0.14925721612 8.81269572065e-05 0)
(0.149257189165 9.03910451875e-05 0)
(0.149257166102 9.26437572136e-05 0)
(0.14925715138 9.48819843652e-05 0)
(0.149257150781 9.71026908945e-05 0)
(0.149257173073 9.9303258081e-05 0)
(0.149257230998 0.000101480571433 0)
(0.149257342152 0.000103631068896 0)
(0.149257531421 0.000105750290388 0)
(0.149257835089 0.000107832305345 0)
(0.149258305039 0.000109869557693 0)
(0.149259016312 0.0001118530749 0)
(0.149260081057 0.000113769626587 0)
(0.149261658876 0.000115593903299 0)
(0.149263995881 0.00011727125393 0)
(0.149267501918 0.00011871871988 0)
(0.149272645849 0.000119975922456 0)
(0.149280075081 0.000121236737446 0)
(0.149290823451 0.000122965839651 0)
(0.149306413888 0.000125339515152 0)
(0.149329233987 0.000128119156191 0)
(0.149362979275 0.000131079412127 0)
(0.149413242673 0.000134004911435 0)
(0.149488252913 0.000136782629696 0)
(0.149599945038 0.000140691050863 0)
(0.149771156745 0.000151555759142 0)
(0.150039650475 0.000172277995634 0)
(0.150468574342 0.000202523503974 0)
(0.1511937206 0.00023244421302 0)
(0.152492714718 0.000191643699262 0)
(0.155021667839 -0.000216760769037 0)
(0.162374795086 -0.00210995478782 0)
(0.187702212469 -0.0107878605916 0)
(0.204356212418 -0.0496562180586 0)
(0.965408257742 0.28921470414 0)
(0.961962875561 0.252656037866 0)
(0.823574424729 0.159021439333 0)
(0.698139418785 0.0959957288569 0)
(0.610225532904 0.0582481119988 0)
(0.5489715813 0.0362148514846 0)
(0.506588998434 0.0231612841154 0)
(0.477567395956 0.0151375150737 0)
(0.457745632042 0.0100177554998 0)
(0.444228609464 0.00665814168035 0)
(0.435053451377 0.00441555627702 0)
(0.428873271862 0.00290686486911 0)
(0.424754355375 0.00189105638619 0)
(0.422046806736 0.00121004238011 0)
(0.420297974731 0.000757159978185 0)
(0.419193375801 0.000459252525646 0)
(0.418515785681 0.000265852137624 0)
(0.418116657319 0.000142398032952 0)
(0.41789607371 6.61087503615e-05 0)
(0.417787040489 2.30929914413e-05 0)
(0.417745639242 1.40899317625e-06 0)
(0.417742371594 -1.01613837235e-05 0)
(0.417756975903 -1.37135353084e-05 0)
(0.417778938807 -1.32677835835e-05 0)
(0.417803237163 -1.08359896028e-05 0)
(0.417826613137 -7.49268915986e-06 0)
(0.417847373712 -3.87535664247e-06 0)
(0.417864919423 -3.54403908564e-07 0)
(0.417879252706 2.86823649813e-06 0)
(0.41789068735 5.68822272142e-06 0)
(0.417899694033 8.04080878622e-06 0)
(0.41790676429 9.84106261407e-06 0)
(0.417912099974 1.10088526053e-05 0)
(0.417915936549 1.18607813855e-05 0)
(0.417918652753 1.26821682593e-05 0)
(0.417920524368 1.34390775275e-05 0)
(0.417921793917 1.41132910279e-05 0)
(0.417922653528 1.47284802806e-05 0)
(0.417923230806 1.53132855767e-05 0)
(0.417923598795 1.58814617108e-05 0)
(0.417923812391 1.64335352415e-05 0)
(0.417923917669 1.69747962882e-05 0)
(0.417923947218 1.75092351338e-05 0)
(0.417923924071 1.80403851168e-05 0)
(0.417923863616 1.85717220861e-05 0)
(0.417923776511 1.91053720552e-05 0)
(0.417923671306 1.96423975028e-05 0)
(0.417923555873 2.01848849315e-05 0)
(0.417923439958 2.07350702557e-05 0)
(0.417923336575 2.12952367913e-05 0)
(0.417923263031 2.18653578048e-05 0)
(0.417923243483 2.24458242722e-05 0)
(0.417923311181 2.30364066472e-05 0)
(0.417923512058 2.36363737818e-05 0)
(0.417923910231 2.42447781484e-05 0)
(0.417924597919 2.4860847277e-05 0)
(0.417925708342 2.54808567601e-05 0)
(0.417927435049 2.60941566142e-05 0)
(0.417930057892 2.6684565234e-05 0)
(0.417933969939 2.72194276823e-05 0)
(0.417939775048 2.76500211542e-05 0)
(0.417948571999 2.79293169947e-05 0)
(0.417961848337 2.82159660444e-05 0)
(0.417981744815 2.77548290331e-05 0)
(0.418011022632 2.51348149654e-05 0)
(0.418053291204 1.92975188942e-05 0)
(0.418114746911 9.43540920089e-06 0)
(0.418205507694 -5.98563469645e-06 0)
(0.418341173564 -2.9490165128e-05 0)
(0.418546635881 -6.47582066234e-05 0)
(0.418863784387 -0.00011597955834 0)
(0.419362205124 -0.000188121720758 0)
(0.420155351096 -0.000307893254757 0)
(0.421446856459 -0.000532851197977 0)
(0.423628319742 -0.00099980184738 0)
(0.427418344558 -0.00209040516899 0)
(0.434238912163 -0.004856117214 0)
(0.448264648314 -0.0122532341477 0)
(0.474642039139 -0.0342396991732 0)
(0.478160802621 -0.0987640209151 0)
(1.02222096917 0.238416185526 0)
(1.08213754632 0.295926650228 0)
(1.03447725993 0.239503063717 0)
(0.954615460633 0.174290161836 0)
(0.879992127323 0.121345466086 0)
(0.818614529077 0.0830993822123 0)
(0.771410965738 0.0567316655641 0)
(0.736634525523 0.0387409671596 0)
(0.711624583409 0.0264327855608 0)
(0.69391678289 0.0179731029598 0)
(0.681541580048 0.0121424456825 0)
(0.67300029146 0.00812490521282 0)
(0.66718082927 0.00536631751284 0)
(0.663271863739 0.00348444111994 0)
(0.660688700678 0.00221255841383 0)
(0.659014389324 0.00136337987217 0)
(0.657954725834 0.000805243418024 0)
(0.657304453101 0.000445917919856 0)
(0.656922055253 0.000221070958271 0)
(0.656710508096 8.55837247535e-05 0)
(0.656603658122 8.3603241016e-06 0)
(0.656562118587 -3.37172813119e-05 0)
(0.656558223245 -5.68522304378e-05 0)
(0.656571701837 -6.68716637616e-05 0)
(0.656593233848 -6.8478926146e-05 0)
(0.656617057185 -6.55568629667e-05 0)
(0.656639864829 -6.05448987271e-05 0)
(0.656660049073 -5.4854029058e-05 0)
(0.65667702314 -4.92691560626e-05 0)
(0.656690763063 -4.41976411188e-05 0)
(0.656701513624 -3.98345788234e-05 0)
(0.656709659342 -3.62991650988e-05 0)
(0.656715896598 -3.36952777423e-05 0)
(0.656720914694 -3.18585719503e-05 0)
(0.656724758288 -3.08127349316e-05 0)
(0.656727443906 -3.03059671931e-05 0)
(0.656729283273 -3.02500197227e-05 0)
(0.656730556933 -3.05605809455e-05 0)
(0.656731433759 -3.10881381145e-05 0)
(0.656732005222 -3.17501271409e-05 0)
(0.656732347833 -3.25169607579e-05 0)
(0.656732529569 -3.33534653652e-05 0)
(0.656732597305 -3.42347042561e-05 0)
(0.656732585531 -3.51418695986e-05 0)
(0.656732518354 -3.60594784928e-05 0)
(0.656732412332 -3.69766918077e-05 0)
(0.656732281462 -3.78862578707e-05 0)
(0.656732139752 -3.87828622959e-05 0)
(0.656732002875 -3.96615205049e-05 0)
(0.656731888057 -4.05161218966e-05 0)
(0.656731818799 -4.13434514673e-05 0)
(0.656731830267 -4.21395983116e-05 0)
(0.656731970912 -4.29032955676e-05 0)
(0.656732308573 -4.36385828779e-05 0)
(0.656732939689 -4.43594398299e-05 0)
(0.656734000134 -4.50959487204e-05 0)
(0.656735679977 -4.59049095586e-05 0)
(0.656738258868 -4.68806658465e-05 0)
(0.656742146922 -4.81463986348e-05 0)
(0.656747943451 -4.99251588896e-05 0)
(0.656756586002 -5.2730009982e-05 0)
(0.656769723728 -5.75511397518e-05 0)
(0.656788663634 -6.52038671261e-05 0)
(0.656814850672 -7.65461374101e-05 0)
(0.656852146484 -9.3276765476e-05 0)
(0.656907262659 -0.000117787670199 0)
(0.656989570339 -0.000153282196112 0)
(0.657112862126 -0.000205048102125 0)
(0.657298955151 -0.000281605507785 0)
(0.657583241734 -0.000396827860445 0)
(0.658023846567 -0.000575062239576 0)
(0.658709954771 -0.000863569003966 0)
(0.659788605435 -0.00135240985946 0)
(0.661517309987 -0.00221468114053 0)
(0.664338176588 -0.00381288069156 0)
(0.668946861501 -0.00694571619927 0)
(0.676369080058 -0.0133516447021 0)
(0.688612392825 -0.0268413507812 0)
(0.705235370223 -0.0563147285225 0)
(0.700485039944 -0.113073365855 0)
(1.02251475838 0.170807151108 0)
(1.10138977357 0.276496475669 0)
(1.11752429374 0.266664795738 0)
(1.0921466556 0.219901695378 0)
(1.05187822575 0.16816884405 0)
(1.01020831486 0.123567393247 0)
(0.97349480127 0.0888375182431 0)
(0.943864683992 0.0630063682447 0)
(0.921142941087 0.0442232005942 0)
(0.904284222975 0.0307423888909 0)
(0.892075023449 0.02115628989 0)
(0.883404666968 0.0143954639945 0)
(0.877352828212 0.00966794358972 0)
(0.873197868714 0.00639383287775 0)
(0.87039309951 0.0041511613193 0)
(0.868534223254 0.00263448871096 0)
(0.867327843346 0.00162401666221 0)
(0.866564459878 0.000962676694847 0)
(0.866096722418 0.000539124260276 0)
(0.865822498013 0.000275155904446 0)
(0.865671668291 0.000117070906794 0)
(0.865595427416 2.87947134141e-05 0)
(0.865564375442 -1.93224069427e-05 0)
(0.86556157142 -4.12586310371e-05 0)
(0.865572919202 -4.76622761682e-05 0)
(0.865589930587 -4.55209723087e-05 0)
(0.86560824684 -3.91507422225e-05 0)
(0.865625593138 -3.11393521636e-05 0)
(0.865640884156 -2.29583238878e-05 0)
(0.865653751283 -1.5375375131e-05 0)
(0.865664224439 -8.71909294449e-06 0)
(0.865672506827 -3.04148571181e-06 0)
(0.865678851159 1.73542807963e-06 0)
(0.865683465794 5.46508699727e-06 0)
(0.865686769043 8.03196320644e-06 0)
(0.865689148446 9.78922321835e-06 0)
(0.865690759275 1.11430347891e-05 0)
(0.86569189835 1.22881970932e-05 0)
(0.865692743573 1.32567658693e-05 0)
(0.86569331497 1.41427806354e-05 0)
(0.865693662807 1.49374656007e-05 0)
(0.865693854406 1.56634237335e-05 0)
(0.865693930128 1.63364181652e-05 0)
(0.865693921611 1.69727523515e-05 0)
(0.865693850864 1.75872383687e-05 0)
(0.865693732366 1.81896451257e-05 0)
(0.865693579188 1.87874907846e-05 0)
(0.865693405713 1.93869120214e-05 0)
(0.865693231399 1.99953901597e-05 0)
(0.865693078177 2.06236405218e-05 0)
(0.865692975237 2.12564990346e-05 0)
(0.865692963623 2.18809387254e-05 0)
(0.865693095893 2.24797579724e-05 0)
(0.865693441715 2.30264280653e-05 0)
(0.865694095452 2.34849490283e-05 0)
(0.865695187838 2.38222176285e-05 0)
(0.86569690508 2.3994567497e-05 0)
(0.865699540995 2.38841141484e-05 0)
(0.865703500116 2.33469913945e-05 0)
(0.865709199228 2.19670158443e-05 0)
(0.865717121172 1.91808204971e-05 0)
(0.865728879266 1.42728177656e-05 0)
(0.865747058605 5.41986950349e-06 0)
(0.86577463612 -8.9598592695e-06 0)
(0.865815478194 -3.08642998224e-05 0)
(0.865875509902 -6.42595882534e-05 0)
(0.86596407275 -0.000116018887737 0)
(0.866095679233 -0.000196900145297 0)
(0.866292877036 -0.000324159451116 0)
(0.866590480597 -0.000526265440005 0)
(0.867042083982 -0.000852154099091 0)
(0.867732735031 -0.00138874380383 0)
(0.868798752962 -0.00228477259133 0)
(0.870453339009 -0.00381477595187 0)
(0.873015287241 -0.0065029091653 0)
(0.876883340074 -0.0113584198253 0)
(0.88237976472 -0.0202500958603 0)
(0.889687426982 -0.0364481108388 0)
(0.896360901526 -0.0654834974227 0)
(0.886529754621 -0.110027741431 0)
(1.01287875456 0.118961021947 0)
(1.08820672305 0.231806933767 0)
(1.13741370168 0.253106760819 0)
(1.15409091437 0.228992749633 0)
(1.14994217464 0.188368354974 0)
(1.13538474044 0.146579840203 0)
(1.11758905339 0.110150961928 0)
(1.10059512477 0.0808162181948 0)
(1.08612470755 0.0582265722239 0)
(1.07459106983 0.0413189804194 0)
(1.06579161676 0.0289160151992 0)
(1.05928814094 0.0199600946516 0)
(1.05459991717 0.0135815548369 0)
(1.05129092244 0.0090974383686 0)
(1.04900001217 0.00598615008081 0)
(1.04744358142 0.00385696392509 0)
(1.04640672474 0.00242159706923 0)
(1.04573082887 0.00147015079107 0)
(1.04530129305 0.000851703919367 0)
(1.04503681321 0.000459019250283 0)
(1.04488046429 0.00021676029865 0)
(1.04479285753 7.30215134245e-05 0)
(1.04474899853 -5.49992987027e-06 0)
(1.04473210354 -4.4003557014e-05 0)
(1.04472985702 -5.93798021245e-05 0)
(1.04473534615 -6.17124398797e-05 0)
(1.0447443004 -5.72380776246e-05 0)
(1.04475419096 -4.9795953265e-05 0)
(1.0447636368 -4.16374760951e-05 0)
(1.04477196639 -3.39835730711e-05 0)
(1.04477892808 -2.74204960689e-05 0)
(1.04478450902 -2.21507930004e-05 0)
(1.04478885527 -1.81293043371e-05 0)
(1.04479217847 -1.51416871101e-05 0)
(1.04479473335 -1.28112515878e-05 0)
(1.04479681348 -1.10150922739e-05 0)
(1.04479853104 -9.52632001269e-06 0)
(1.04479983255 -8.23659750841e-06 0)
(1.04480078966 -7.21705901542e-06 0)
(1.04480145573 -6.54789893853e-06 0)
(1.04480185406 -6.16814615825e-06 0)
(1.04480207427 -5.95909535006e-06 0)
(1.0448021635 -5.87041710258e-06 0)
(1.04480216072 -5.85336877024e-06 0)
(1.04480209003 -5.86713407083e-06 0)
(1.04480196721 -5.89194532964e-06 0)
(1.04480180806 -5.91805866989e-06 0)
(1.04480163144 -5.94087003535e-06 0)
(1.04480146237 -5.96327424985e-06 0)
(1.0448013061 -5.9991827676e-06 0)
(1.04480117614 -6.03156096425e-06 0)
(1.04480111746 -6.058264939e-06 0)
(1.04480118393 -6.08573996484e-06 0)
(1.04480145117 -6.12906353322e-06 0)
(1.04480204322 -6.22903073602e-06 0)
(1.04480313658 -6.50492298572e-06 0)
(1.04480491965 -7.21308565707e-06 0)
(1.04480769008 -8.62977588628e-06 0)
(1.0448117584 -1.12501056086e-05 0)
(1.04481759876 -1.50847279541e-05 0)
(1.04482622371 -2.00197339381e-05 0)
(1.04483878443 -2.62617052206e-05 0)
(1.04485658075 -3.60810051558e-05 0)
(1.04488191493 -5.2463607359e-05 0)
(1.04491825724 -7.96229112279e-05 0)
(1.04497076175 -0.000123802422493 0)
(1.04504703287 -0.000194770970276 0)
(1.04515841886 -0.000308105164375 0)
(1.04532206487 -0.000488965838769 0)
(1.04556383051 -0.000778368735162 0)
(1.04592238797 -0.00124361878817 0)
(1.0464555783 -0.00199633454919 0)
(1.04724749322 -0.00322701616916 0)
(1.04841104032 -0.00526637547218 0)
(1.05007347095 -0.00869113750853 0)
(1.05229136518 -0.0144948395453 0)
(1.0548206463 -0.0242841718686 0)
(1.05687168882 -0.0403685333582 0)
(1.05573884979 -0.0655865230821 0)
(1.04212533076 -0.099440400519 0)
(1.00447483804 0.0814039957597 0)
(1.06917238785 0.181288535426 0)
(1.13080571644 0.216950414491 0)
(1.17375005002 0.210789151035 0)
(1.1986527172 0.183690072255 0)
(1.21019996609 0.149751678658 0)
(1.21350266384 0.116779139366 0)
(1.21251736477 0.0882206728961 0)
(1.20973112126 0.0650481455931 0)
(1.20651134364 0.0470209031178 0)
(1.2035192854 0.0334068023127 0)
(1.20101160646 0.0233557259481 0)
(1.19903460759 0.0160720072461 0)
(1.19753893952 0.0108795076605 0)
(1.19644148226 0.0072341830571 0)
(1.19565576554 0.00471351492247 0)
(1.19510508594 0.00299762724533 0)
(1.19472669173 0.00184916067819 0)
(1.19447172975 0.00109496167426 0)
(1.1943034363 0.000610613829327 0)
(1.19419481021 0.000307990003693 0)
(1.19412653469 0.000125772792435 0)
(1.1940854906 2.22284020699e-05 0)
(1.19406223545 -3.24455091929e-05 0)
(1.19404993824 -5.72628224854e-05 0)
(1.19404444308 -6.45872105198e-05 0)
(1.19404294948 -6.23644871645e-05 0)
(1.19404363823 -5.55098880732e-05 0)
(1.19404539252 -4.69340225288e-05 0)
(1.1940475529 -3.82502036624e-05 0)
(1.19404974597 -3.0259099212e-05 0)
(1.1940517794 -2.3265178903e-05 0)
(1.19405358388 -1.72916355135e-05 0)
(1.19405515396 -1.22646655183e-05 0)
(1.19405650626 -8.07790306802e-06 0)
(1.1940576603 -4.67696384383e-06 0)
(1.19405858892 -2.06524398562e-06 0)
(1.19405924005 -1.74783245917e-07 0)
(1.19405957493 1.14399718035e-06 0)
(1.19405967048 2.00026209027e-06 0)
(1.19405971059 2.678042716e-06 0)
(1.19405973421 3.27991238344e-06 0)
(1.19405971599 3.80547635447e-06 0)
(1.19405967342 4.26497675505e-06 0)
(1.1940596024 4.66896684229e-06 0)
(1.19405949198 5.03402948903e-06 0)
(1.19405934342 5.37247710281e-06 0)
(1.19405916233 5.68775228236e-06 0)
(1.19405895534 5.9721975211e-06 0)
(1.19405876303 6.20817777631e-06 0)
(1.19405863251 6.41934579074e-06 0)
(1.1940585923 6.5987429982e-06 0)
(1.19405869031 6.71984535403e-06 0)
(1.1940589819 6.74163293742e-06 0)
(1.19405949734 6.6035572628e-06 0)
(1.19406022039 6.21066785617e-06 0)
(1.19406124677 5.41818093502e-06 0)
(1.19406272858 3.83068294956e-06 0)
(1.19406535628 1.0555118801e-06 0)
(1.19407015618 -3.21136191166e-06 0)
(1.19407763041 -9.75253361032e-06 0)
(1.19408772693 -1.99407352012e-05 0)
(1.19410122737 -3.57965836971e-05 0)
(1.19412012406 -6.02409628477e-05 0)
(1.19414654532 -9.78558962745e-05 0)
(1.19418331549 -0.00015595830292 0)
(1.19423442909 -0.000246194574483 0)
(1.19430552223 -0.000387043261177 0)
(1.19440448248 -0.000607960125167 0)
(1.19454209026 -0.000956273746435 0)
(1.19473239165 -0.00150848808128 0)
(1.19499216024 -0.00238886868572 0)
(1.19533621058 -0.00380061412732 0)
(1.19576179737 -0.00607660625397 0)
(1.19620858332 -0.00975560505236 0)
(1.1964568343 -0.0156812856995 0)
(1.19591974926 -0.0250643287286 0)
(1.19344286762 -0.0393600653362 0)
(1.18669127907 -0.0598110696111 0)
(1.17014695907 -0.0851068237649 0)
(0.998962328929 0.0544316232559 0)
(1.05310958279 0.13340160377 0)
(1.11628271144 0.170777553596 0)
(1.17301276519 0.175143867207 0)
(1.21791252719 0.159583601514 0)
(1.25049866423 0.134951015345 0)
(1.27288501676 0.108411652138 0)
(1.28776734429 0.083884967015 0)
(1.29745281677 0.0630565672881 0)
(1.30366089633 0.0462999159188 0)
(1.30759249435 0.0333205089597 0)
(1.31005385463 0.0235495178313 0)
(1.31157378084 0.0163599014374 0)
(1.31249508797 0.0111713091307 0)
(1.3130387894 0.00749150150738 0)
(1.31334689418 0.00492448186037 0)
(1.31351032541 0.00316295251073 0)
(1.31358697514 0.00197475043331 0)
(1.31361337161 0.00118819654417 0)
(1.31361224035 0.000678629902324 0)
(1.31359741764 0.000357010097054 0)
(1.31357710769 0.000160756962879 0)
(1.31355612146 4.64736171657e-05 0)
(1.31353683231 -1.58630964329e-05 0)
(1.31352018019 -4.60498170084e-05 0)
(1.31350649769 -5.70582909758e-05 0)
(1.31349560008 -5.73121668072e-05 0)
(1.3134871496 -5.20738812936e-05 0)
(1.31348075715 -4.45129636066e-05 0)
(1.31347603657 -3.64537252634e-05 0)
(1.31347263585 -2.88685827752e-05 0)
(1.31347025153 -2.22105466375e-05 0)
(1.31346862399 -1.66305570523e-05 0)
(1.31346752487 -1.21356388721e-05 0)
(1.31346678909 -8.66000625915e-06 0)
(1.31346631958 -6.10222326128e-06 0)
(1.31346601524 -4.32533911858e-06 0)
(1.31346578737 -3.12226870135e-06 0)
(1.31346563464 -2.26455985561e-06 0)
(1.31346564506 -1.54711510678e-06 0)
(1.31346578401 -9.70227513038e-07 0)
(1.31346587564 -5.56838721201e-07 0)
(1.31346587115 -1.98606174496e-07 0)
(1.3134658027 1.35567371018e-07 0)
(1.31346568963 4.4309539009e-07 0)
(1.31346554371 7.32433697644e-07 0)
(1.31346536708 1.01543409378e-06 0)
(1.31346516091 1.30182219472e-06 0)
(1.31346493298 1.60150933016e-06 0)
(1.31346471525 1.9190137471e-06 0)
(1.31346453014 2.20380970188e-06 0)
(1.31346438473 2.41628682707e-06 0)
(1.31346430914 2.51107727058e-06 0)
(1.31346435625 2.42435000846e-06 0)
(1.31346461402 2.07249690509e-06 0)
(1.31346520125 1.37052922614e-06 0)
(1.31346608123 2.60867537735e-07 0)
(1.31346736752 -1.42410451793e-06 0)
(1.31346948208 -3.94193262825e-06 0)
(1.31347262284 -8.02107610178e-06 0)
(1.31347700883 -1.49380282295e-05 0)
(1.31348287392 -2.62595740021e-05 0)
(1.31349049934 -4.35827693334e-05 0)
(1.31350037377 -7.00843235489e-05 0)
(1.31351281956 -0.000110794780552 0)
(1.31352792363 -0.000173460466314 0)
(1.31354531041 -0.000270163998949 0)
(1.31356367601 -0.000419860062823 0)
(1.31357983973 -0.000652360291235 0)
(1.31358690777 -0.00101487677567 0)
(1.31357083901 -0.00158239691411 0)
(1.3135042206 -0.00247393946455 0)
(1.31333286437 -0.00387670265694 0)
(1.31294925574 -0.00608296165733 0)
(1.31214348542 -0.00953706224594 0)
(1.31051034746 -0.0148803174791 0)
(1.30729674791 -0.022940651927 0)
(1.30129350613 -0.0345579645531 0)
(1.29063361054 -0.050169065498 0)
(1.27184631039 -0.0685467969415 0)
(0.995736077402 0.0346338574584 0)
(1.04179515893 0.0905689168784 0)
(1.10222841868 0.121549559979 0)
(1.16491416582 0.129605829095 0)
(1.2220257329 0.122009263709 0)
(1.26951901144 0.106019934004 0)
(1.30680234992 0.0870975519401 0)
(1.33499548439 0.0686366770865 0)
(1.35574492051 0.0523698347587 0)
(1.37069632403 0.0389256131187 0)
(1.38128291796 0.0282980678311 0)
(1.38866284317 0.0201712709926 0)
(1.39373050243 0.0141175038091 0)
(1.39715678142 0.00970532941561 0)
(1.39943453169 0.00655058917433 0)
(1.40091986679 0.00433444950199 0)
(1.40186643023 0.00280414100141 0)
(1.40245247027 0.00176574060126 0)
(1.40280158767 0.00107419404691 0)
(1.40299830251 0.000623235361192 0)
(1.40309953858 0.000336411099808 0)
(1.40314300315 0.000159626803098 0)
(1.40315327195 5.51699082503e-05 0)
(1.40314578936 -2.99016352798e-06 0)
(1.40313003557 -3.21122845367e-05 0)
(1.40311163939 -4.3878150447e-05 0)
(1.40309360803 -4.57477645551e-05 0)
(1.40307746549 -4.2406472202e-05 0)
(1.4030638126 -3.6717730214e-05 0)
(1.40305272237 -3.03581342089e-05 0)
(1.40304399237 -2.424166912e-05 0)
(1.40303729657 -1.88149125389e-05 0)
(1.40303227367 -1.42456951199e-05 0)
(1.4030285734 -1.05357671401e-05 0)
(1.40302589778 -7.58450647455e-06 0)
(1.40302401482 -5.26741541978e-06 0)
(1.40302274812 -3.46225969079e-06 0)
(1.40302194783 -2.02521940886e-06 0)
(1.40302145074 -8.51415340299e-07 0)
(1.40302106452 8.16038471939e-08 0)
(1.40302072285 7.92165952469e-07 0)
(1.40302050876 1.28302264773e-06 0)
(1.40302041218 1.65577991038e-06 0)
(1.40302034216 1.97438982487e-06 0)
(1.40302026338 2.27661353687e-06 0)
(1.40302016751 2.58120802967e-06 0)
(1.40302005103 2.89771521117e-06 0)
(1.40301991433 3.23055587751e-06 0)
(1.40301975773 3.57954715804e-06 0)
(1.40301957273 3.93552405158e-06 0)
(1.40301936912 4.2574989198e-06 0)
(1.40301917944 4.51293600168e-06 0)
(1.40301903182 4.66282973311e-06 0)
(1.40301895191 4.64902401174e-06 0)
(1.40301895343 4.38411851592e-06 0)
(1.40301904235 3.72636468722e-06 0)
(1.40301924187 2.46593004607e-06 0)
(1.40301953462 4.92385776924e-07 0)
(1.40302015394 -2.6245753994e-06 0)
(1.40302129897 -7.64702758209e-06 0)
(1.40302280692 -1.53727215988e-05 0)
(1.40302435161 -2.71250317729e-05 0)
(1.40302546608 -4.47596072944e-05 0)
(1.40302541052 -7.12609932009e-05 0)
(1.40302269763 -0.000111219811412 0)
(1.40301459217 -0.000171665888631 0)
(1.40299629269 -0.000263473003816 0)
(1.40295962068 -0.000403513252061 0)
(1.40289064704 -0.000617843752583 0)
(1.40276566842 -0.000947069355603 0)
(1.40254466643 -0.00145450813402 0)
(1.40216131538 -0.00223857051572 0)
(1.40150410753 -0.00344828007444 0)
(1.40038475635 -0.00530731746481 0)
(1.39849005884 -0.00813842416877 0)
(1.39530699083 -0.0123763007148 0)
(1.39002267428 -0.0185317634868 0)
(1.381489283 -0.0270423586186 0)
(1.36821127604 -0.03798964377 0)
(1.34779738775 -0.0504811981703 0)
(0.994011534558 0.0192358033393 0)
(1.03484765101 0.0523338354322 0)
(1.09199265828 0.0723631218768 0)
(1.15662424863 0.0791292267006 0)
(1.22032123218 0.0761045415948 0)
(1.27701954309 0.0673339673592 0)
(1.3242443005 0.0561508999058 0)
(1.3618158662 0.0447990076756 0)
(1.39068545306 0.0345303740354 0)
(1.41226090532 0.0258814282427 0)
(1.42801838263 0.0189465188445 0)
(1.43929900466 0.0135849760296 0)
(1.44722824054 0.0095565275385 0)
(1.45270430112 0.00660010840144 0)
(1.45641913508 0.00447418349185 0)
(1.45889163453 0.00297350748565 0)
(1.46050251717 0.00193276386932 0)
(1.46152593433 0.00122369047876 0)
(1.46215597065 0.000749548981996 0)
(1.46252781417 0.000439018117111 0)
(1.46273410682 0.000240523654508 0)
(1.46283726141 0.000117416838382 0)
(1.46287857253 4.40569200784e-05 0)
(1.46288481802 2.70098867966e-06 0)
(1.46287269876 -1.84317359041e-05 0)
(1.46285235201 -2.74239841396e-05 0)
(1.46282980547 -2.94236097341e-05 0)
(1.46280827158 -2.76748788576e-05 0)
(1.46278927751 -2.41754681094e-05 0)
(1.46277336719 -2.01062106568e-05 0)
(1.46276053134 -1.61151449584e-05 0)
(1.46275047501 -1.25244812708e-05 0)
(1.46274278727 -9.46035729576e-06 0)
(1.4627370354 -6.93326378396e-06 0)
(1.46273282043 -4.88937861426e-06 0)
(1.4627298001 -3.2595779564e-06 0)
(1.46272768656 -1.98125205625e-06 0)
(1.46272622407 -1.01350537108e-06 0)
(1.46272520146 -3.1155363518e-07 0)
(1.46272455623 2.12330318941e-07 0)
(1.46272417913 6.94840412383e-07 0)
(1.46272392237 1.17132992947e-06 0)
(1.46272375444 1.59637859454e-06 0)
(1.46272363617 1.97638241779e-06 0)
(1.46272353815 2.33181501949e-06 0)
(1.46272344061 2.67579607814e-06 0)
(1.46272332811 3.01396940786e-06 0)
(1.46272318989 3.34495820415e-06 0)
(1.4627230197 3.65886502203e-06 0)
(1.4627228142 3.9423014244e-06 0)
(1.46272257549 4.18714734435e-06 0)
(1.46272230995 4.3619601743e-06 0)
(1.46272202433 4.41588121886e-06 0)
(1.46272173031 4.27779936137e-06 0)
(1.46272144352 3.8577008222e-06 0)
(1.46272118189 3.04886328879e-06 0)
(1.46272091882 1.72787880381e-06 0)
(1.46272056446 -2.36770168283e-07 0)
(1.46271998476 -3.0668469435e-06 0)
(1.46271904667 -7.64804990269e-06 0)
(1.46271747952 -1.4761721515e-05 0)
(1.46271460498 -2.54999738796e-05 0)
(1.46270930831 -4.14105698474e-05 0)
(1.46269978419 -6.48762964375e-05 0)
(1.46268297247 -9.94987134835e-05 0)
(1.46265373634 -0.000150670609866 0)
(1.46260356932 -0.000226575327372 0)
(1.46251871667 -0.000339683584471 0)
(1.46237672089 -0.000508605323928 0)
(1.4621407497 -0.000761756668881 0)
(1.46175084928 -0.00114288235903 0)
(1.46111243772 -0.00171963504411 0)
(1.46007443718 -0.00258774869312 0)
(1.45839591375 -0.0038867441078 0)
(1.45570300501 -0.00580898070902 0)
(1.45143041378 -0.00859753699383 0)
(1.44475792421 -0.0125125032325 0)
(1.43461672124 -0.0177342335527 0)
(1.41974773021 -0.0242108679556 0)
(1.39830567092 -0.0313962982787 0)
(0.993269670512 0.0061701469677 0)
(1.03158101522 0.0171020406934 0)
(1.08672184987 0.0239906428727 0)
(1.15174559381 0.0265606607685 0)
(1.21823543193 0.0258180548929 0)
(1.27925783165 0.0230488832034 0)
(1.33140147045 0.0193656291485 0)
(1.3737761163 0.0155468559159 0)
(1.40691067733 0.0120449278649 0)
(1.43203328752 0.00906639646488 0)
(1.45060230788 0.00666059019874 0)
(1.46403001977 0.00479008562486 0)
(1.47355032529 0.00337842153343 0)
(1.48017580395 0.00233873099949 0)
(1.48470246759 0.00158890713171 0)
(1.48773639892 0.00105828294541 0)
(1.48972755558 0.000689458072129 0)
(1.49100300702 0.000437635375724 0)
(1.49179610877 0.000268884724947 0)
(1.49227049936 0.000158112429812 0)
(1.49253900818 8.71286686221e-05 0)
(1.49267809787 4.29818812676e-05 0)
(1.49273864123 1.65950025031e-05 0)
(1.49275382264 1.67732095792e-06 0)
(1.49274459152 -6.05306459392e-06 0)
(1.49272380806 -9.39683120023e-06 0)
(1.4926991682 -1.02029804021e-05 0)
(1.49267489983 -9.64130295878e-06 0)
(1.49265309999 -8.43009222871e-06 0)
(1.49263460987 -6.98702017918e-06 0)
(1.4926195516 -5.55179531981e-06 0)
(1.49260766241 -4.24367579284e-06 0)
(1.49259851236 -3.10977743119e-06 0)
(1.49259162532 -2.15601864119e-06 0)
(1.49258654675 -1.36607253339e-06 0)
(1.49258287632 -7.18561267453e-07 0)
(1.49258027863 -1.92209522195e-07 0)
(1.49257848453 2.34608234467e-07 0)
(1.49257729033 6.07377916145e-07 0)
(1.49257652083 9.78743388446e-07 0)
(1.49257602331 1.28645854123e-06 0)
(1.49257570839 1.57308407556e-06 0)
(1.49257552077 1.85540891094e-06 0)
(1.49257540789 2.14401163118e-06 0)
(1.4925753299 2.446267423e-06 0)
(1.49257525977 2.76434600678e-06 0)
(1.4925751777 3.09712710449e-06 0)
(1.49257506828 3.44071897456e-06 0)
(1.49257491928 3.78708402435e-06 0)
(1.4925747211 4.12188328098e-06 0)
(1.4925744667 4.42476990214e-06 0)
(1.49257415135 4.66365972693e-06 0)
(1.4925737677 4.79289320186e-06 0)
(1.49257330499 4.75124047754e-06 0)
(1.49257274276 4.45278066332e-06 0)
(1.49257205012 3.78088221321e-06 0)
(1.49257121536 2.58715009165e-06 0)
(1.49257010498 7.74371530683e-07 0)
(1.49256829889 -1.88430633246e-06 0)
(1.49256550234 -6.0226511043e-06 0)
(1.49256132444 -1.21745775613e-05 0)
(1.49255473905 -2.11118186008e-05 0)
(1.49254413592 -3.39229357419e-05 0)
(1.4925269749 -5.21619968803e-05 0)
(1.492499144 -7.80295728878e-05 0)
(1.49245394419 -0.00011455577135 0)
(1.49238050278 -0.000166117826894 0)
(1.49226175455 -0.000239209453291 0)
(1.49207033865 -0.000342330786478 0)
(1.49176165097 -0.000488028417706 0)
(1.49126341055 -0.000696496679656 0)
(1.49046689041 -0.00100144894301 0)
(1.48920271261 -0.0014353144829 0)
(1.48720504341 -0.00204560604858 0)
(1.48407547786 -0.00289367853744 0)
(1.47923425269 -0.00404701018284 0)
(1.47187461749 -0.00555986788797 0)
(1.46098318512 -0.00743374996545 0)
(1.44541292124 -0.00957461969934 0)
(1.42355459487 -0.0117339948967 0)
(0.993270468337 -0.00616840566536 0)
(1.03158099807 -0.0171003815894 0)
(1.08672178421 -0.0239897676078 0)
(1.15174563234 -0.0265602519233 0)
(1.21823551057 -0.0258179967976 0)
(1.27925793407 -0.0230491124903 0)