/*--------------------------------*- C++ -*----------------------------------*\
| =========                 |                                                 |
| \\      /  F ield         | OpenFOAM: The Open Source CFD Toolbox           |
|  \\    /   O peration     | Version:  2106                                  |
|   \\  /    A nd           | Website:  www.openfoam.com                      |
|    \\/     M anipulation  |                                                 |
\*---------------------------------------------------------------------------*/
FoamFile
{
    version     2.0;
    format      ascii;
    arch        "LSB;label=32;scalar=64";
    class       surfaceScalarField;
    location    "0.33";
    object      phi;
}
// * * * * * * * * * * * * * * * * * * * * * * * * * * * * * * * * * * * * * //

dimensions      [0 3 -1 0 0 0 0];

oriented        oriented;

internalField   nonuniform List<scalar> 
18840
(
3.37543038762e-05
1.62456961014e-05
2.25359630427e-05
1.12183422371e-05
1.63023782845e-05
6.23358403788e-06
1.28098249022e-05
3.49255295524e-06
1.0806580239e-05
2.00324530495e-06
9.60476922203e-06
1.20181090479e-06
8.85167858726e-06
7.53090495507e-07
8.36503064545e-06
4.86647806961e-07
8.0451860699e-06
3.19844549593e-07
7.83374189655e-06
2.11444119365e-07
7.69428186717e-06
1.39459932803e-07
7.6030801813e-06
9.1201661191e-08
7.54426527037e-06
5.88148733165e-08
7.50707703503e-06
3.7188268588e-08
7.4841891099e-06
2.28879591728e-08
7.47062357599e-06
1.35655651003e-08
7.46302105544e-06
7.60255908049e-09
7.4591382687e-06
3.88274547316e-09
7.45749846157e-06
1.63974201383e-09
7.45714537641e-06
3.5308708388e-10
7.45748274495e-06
-3.37395667739e-10
7.45813381928e-06
-6.51105822452e-10
7.45888586398e-06
-7.51985243516e-10
7.45961959626e-06
-7.33667967754e-10
7.46027603498e-06
-6.56472883898e-10
7.46083245189e-06
-5.56516764629e-10
7.46128660497e-06
-4.54248740622e-10
7.46164680446e-06
-3.60266432372e-10
7.46192595939e-06
-2.79193571026e-10
7.46213812402e-06
-2.12177186763e-10
7.46229669508e-06
-1.5851678738e-10
7.46241338374e-06
-1.16621519287e-10
7.46249795598e-06
-8.45468391156e-11
7.46255842079e-06
-6.04436645187e-11
7.46260105917e-06
-4.26619116596e-11
7.46263067572e-06
-2.97074299487e-11
7.46265100017e-06
-2.03778839395e-11
7.46266477078e-06
-1.37832199394e-11
7.46267389136e-06
-9.20102954219e-12
7.46267984248e-06
-6.02797233767e-12
7.46268368149e-06
-3.86326771508e-12
7.46268616795e-06
-2.46495243452e-12
7.46268771419e-06
-1.56186008012e-12
7.46268861389e-06
-9.08186007962e-13
7.46268917311e-06
-5.41967258512e-13
7.46268953344e-06
-3.35816023217e-13
7.46268977352e-06
-2.3619841975e-13
7.46268997293e-06
-1.93554574267e-13
7.4626901663e-06
-1.93388809353e-13
7.4626903991e-06
-1.99997710485e-13
7.46269067418e-06
-2.13308908204e-13
7.46269096383e-06
-2.51135336487e-13
7.46269126379e-06
-3.21013110146e-13
7.46269155436e-06
-3.97932326703e-13
7.4626918943e-06
-4.39754461873e-13
7.46269233309e-06
-4.53297337357e-13
7.46269286625e-06
-4.80292202252e-13
7.46269346406e-06
-5.47374058972e-13
7.46269408076e-06
-6.17769453077e-13
7.46269472957e-06
-6.40099790497e-13
7.4626954806e-06
-6.40236049846e-13
7.4626963174e-06
-6.62182484301e-13
7.46269718271e-06
-6.90225630074e-13
7.46269808293e-06
-7.08881007783e-13
7.46269899698e-06
-7.33496539215e-13
7.46269990414e-06
-7.69699331898e-13
7.46270081955e-06
-8.22711510676e-13
7.46270174458e-06
-8.90483310523e-13
7.46270269356e-06
-9.47645254196e-13
7.4627037185e-06
-9.75136704941e-13
7.46270484777e-06
-1.0010614782e-12
7.46270603153e-06
-1.05446758631e-12
7.46270722654e-06
-1.11650822892e-12
7.46270844461e-06
-1.16272575153e-12
7.46270970555e-06
-1.1872278949e-12
7.46271103885e-06
-1.19064127366e-12
7.46271245822e-06
-1.20887246502e-12
7.46271390022e-06
-1.26756485526e-12
7.46271533015e-06
-1.31430372574e-12
7.46271679287e-06
-1.31966230596e-12
7.46271829021e-06
-1.32558620171e-12
7.46271980407e-06
-1.35937944701e-12
7.46272133912e-06
-1.42540634341e-12
7.46272288353e-06
-1.52133361015e-12
7.46272444208e-06
-1.61500413134e-12
7.46272603901e-06
-1.67559820303e-12
7.46272769051e-06
-1.7141231127e-12
7.46272940477e-06
-1.73981815482e-12
7.46273118808e-06
-1.75632673521e-12
7.46273301172e-06
-1.79122419043e-12
7.46273486769e-06
-1.85642236177e-12
7.46273679249e-06
-1.94595652229e-12
7.46273878768e-06
-2.03875188844e-12
7.46274087442e-06
-2.09423942723e-12
7.46274309261e-06
-2.12849770421e-12
7.46274539134e-06
-2.19450561538e-12
7.46274775427e-06
-2.31142035718e-12
7.46275027352e-06
-2.51076728246e-12
7.46275292988e-06
-2.76530001726e-12
7.46275572789e-06
-2.96398061318e-12
7.46275884582e-06
-3.13964944374e-12
7.46276226061e-06
-3.38317716786e-12
7.4627659825e-06
-3.70042525005e-12
7.46277019713e-06
-4.15464455729e-12
7.46277495008e-06
-4.78712308816e-12
7.46278036335e-06
-5.50924852084e-12
7.46278665091e-06
-6.30260206208e-12
7.46279394856e-06
-7.24969800772e-12
7.46280251693e-06
-8.44987614618e-12
7.46281271365e-06
-1.0074648655e-11
7.46282478191e-06
-1.21338870928e-11
7.46283918145e-06
-1.45235892393e-11
7.46285667997e-06
-1.74464234525e-11
7.46287792604e-06
-2.12258416945e-11
7.46290371436e-06
-2.59055927467e-11
7.46293526036e-06
-3.1572621046e-11
7.46297403736e-06
-3.85994324293e-11
7.46302168303e-06
-4.74979485699e-11
7.46308019301e-06
-5.85793199955e-11
7.46315216009e-06
-7.21087666768e-11
7.46324102981e-06
-8.87945249586e-11
7.46335072441e-06
-1.0955256752e-10
7.46348615495e-06
-1.35413012774e-10
7.46365461434e-06
-1.68282220996e-10
7.46386691573e-06
-2.12235289637e-10
7.46412508682e-06
-2.58320655917e-10
7.4644435816e-06
-3.18596288932e-10
7.46483784708e-06
-3.94234178801e-10
7.46532608408e-06
-4.88154014254e-10
7.46593068491e-06
-6.04539367162e-10
7.46667936712e-06
-7.48749273674e-10
7.46760668112e-06
-9.27393039058e-10
7.46875532503e-06
-1.14880090928e-09
7.47017834129e-06
-1.42308274226e-09
7.47194169877e-06
-1.76312486649e-09
7.47412688306e-06
-2.18500228093e-09
7.47683532837e-06
-2.70830502539e-09
7.48019360333e-06
-3.35781799237e-09
7.48435870273e-06
-4.16469247893e-09
7.48952656181e-06
-5.16768864805e-09
7.49594200966e-06
-6.41547588387e-09
7.50391124336e-06
-7.96941823377e-09
7.51381935151e-06
-9.90787155923e-09
7.52615037365e-06
-1.23306852845e-08
7.5415162966e-06
-1.53657296701e-08
7.56069509689e-06
-1.91788813531e-08
7.58468149188e-06
-2.398672994e-08
7.6147581524e-06
-3.00766007126e-08
7.65259345014e-06
-3.78353624327e-08
7.70038660486e-06
-4.77934883372e-08
7.76108748033e-06
-6.07011709711e-08
7.8387580075e-06
-7.76708328955e-08
7.9392443209e-06
-1.00486832503e-07
8.07165105628e-06
-1.32406906058e-07
8.25213472491e-06
-1.80483838769e-07
8.51464699163e-06
-2.62512460355e-07
8.94279589257e-06
-4.28148811753e-07
9.77103751591e-06
-8.28241787323e-07
1.1719661684e-05
-1.94862354038e-06
-5.27529570523e-06
1.69949585909e-05
5.01388810352e-05
1.61068138157e-05
4.41591296007e-05
1.71980949765e-05
3.7759874309e-05
1.2632840016e-05
3.2649514342e-05
8.60291212552e-06
2.89465822388e-05
5.70617762898e-06
2.63676031739e-05
3.78078987391e-06
2.45938851946e-05
2.52680835841e-06
2.33783981424e-05
1.70213462081e-06
2.25473236248e-05
1.15091895242e-06
2.19811566333e-05
7.77611012539e-07
2.15978041883e-05
5.22812217069e-07
2.13405412507e-05
3.48464582552e-07
2.11699438336e-05
2.2941235665e-07
2.10585362106e-05
1.48596016158e-07
2.09871852059e-05
9.42390446279e-08
2.09426216617e-05
5.81290914469e-08
2.09157071433e-05
3.45170937334e-08
2.09002073439e-05
1.93825205395e-08
2.08919197442e-05
9.92715105764e-09
2.08880545381e-05
4.2182042637e-09
2.08867849119e-05
9.32314311092e-10
2.08869499395e-05
-8.16068224454e-10
2.08878282627e-05
-1.63032595613e-09
2.0888986763e-05
-1.89225041423e-09
2.08901801337e-05
-1.84996891438e-09
2.08912806385e-05
-1.65712668055e-09
2.08922320833e-05
-1.40573081533e-09
2.08930197413e-05
-1.14793213849e-09
2.08936513118e-05
-9.10783393494e-10
2.08941451414e-05
-7.06055901055e-10
2.08945233873e-05
-5.36721832534e-10
2.08948079825e-05
-4.01093384479e-10
2.0895018601e-05
-2.9516794882e-10
2.08951721828e-05
-2.14103890119e-10
2.08952826655e-05
-1.5319725069e-10
2.08953610217e-05
-1.08168098247e-10
2.08954158433e-05
-7.53123731601e-11
2.08954537253e-05
-5.1702040185e-11
2.08954794918e-05
-3.49796423788e-11
2.0895496697e-05
-2.32752397431e-11
2.08955079553e-05
-1.51799216361e-11
2.08955150622e-05
-9.67968335526e-12
2.08955194688e-05
-6.01434725772e-12
2.08955221599e-05
-3.62245778762e-12
2.08955237513e-05
-2.07952099225e-12
2.08955245892e-05
-1.09986580839e-12
2.08955249777e-05
-5.68070880292e-13
2.08955252109e-05
-3.70346628275e-13
2.0895525375e-05
-2.86944704333e-13
2.08955255156e-05
-2.83893733126e-13
2.08955256405e-05
-3.35941861431e-13
2.08955257545e-05
-4.24462008762e-13
2.08955259044e-05
-5.44207500898e-13
2.08955260724e-05
-6.7494472623e-13
2.08955262782e-05
-7.74668070012e-13
2.08955265529e-05
-8.14935711831e-13
2.08955269125e-05
-8.16135896228e-13
2.08955273737e-05
-8.33720939222e-13
2.08955278883e-05
-9.06735070228e-13
2.08955283952e-05
-9.80221011834e-13
2.08955289635e-05
-1.00598735637e-12
2.08955296445e-05
-1.0229708909e-12
2.08955303795e-05
-1.0649074207e-12
2.08955311363e-05
-1.1385381221e-12
2.08955318856e-05
-1.2422588156e-12
2.08955326006e-05
-1.35246206742e-12
2.08955333165e-05
-1.45656738349e-12
2.0895534064e-05
-1.55930545261e-12
2.08955348474e-05
-1.64079341134e-12
2.08955356752e-05
-1.67702385263e-12
2.0895536578e-05
-1.6995530883e-12
2.08955375512e-05
-1.76250783471e-12
2.08955385491e-05
-1.86537691917e-12
2.08955395577e-05
-1.97226351347e-12
2.08955405867e-05
-2.04769726827e-12
2.08955416493e-05
-2.06916169785e-12
2.08955427958e-05
-2.07632577997e-12
2.08955440246e-05
-2.13153005809e-12
2.08955452519e-05
-2.2297214542e-12
2.08955464627e-05
-2.34031506335e-12
2.08955476903e-05
-2.45338693455e-12
2.08955489382e-05
-2.55679687651e-12
2.08955502049e-05
-2.65883236696e-12
2.08955514941e-05
-2.77905014346e-12
2.08955528199e-05
-2.90771622161e-12
2.08955542024e-05
-3.03753301595e-12
2.08955556612e-05
-3.16648313216e-12
2.08955571858e-05
-3.27047565996e-12
2.08955587832e-05
-3.35693427436e-12
2.08955604542e-05
-3.47373606321e-12
2.0895562195e-05
-3.6288607503e-12
2.08955640825e-05
-3.81887050909e-12
2.08955661547e-05
-4.05060286014e-12
2.08955683813e-05
-4.28618146792e-12
2.08955708077e-05
-4.53672435662e-12
2.08955734487e-05
-4.87219569736e-12
2.08955762868e-05
-5.27185443503e-12
2.08955795229e-05
-5.73967645457e-12
2.08955832914e-05
-6.37299582123e-12
2.08955875082e-05
-7.15561511991e-12
2.08955923561e-05
-8.02784654039e-12
2.08955979597e-05
-9.11417556688e-12
2.0895604394e-05
-1.04174679141e-11
2.08956120723e-05
-1.19640880911e-11
2.08956213128e-05
-1.39101372561e-11
2.08956323038e-05
-1.63432523809e-11
2.0895645442e-05
-1.93539684123e-11
2.0895661156e-05
-2.30286843952e-11
2.08956799986e-05
-2.73603917426e-11
2.08957025825e-05
-3.24104673376e-11
2.08957299841e-05
-3.92090688955e-11
2.08957641521e-05
-4.87439433418e-11
2.0895806304e-05
-5.97927712316e-11
2.08958584152e-05
-7.33858832288e-11
2.08959226201e-05
-9.02085427669e-11
2.08960017168e-05
-1.1090730782e-10
2.08960993656e-05
-1.36441130134e-10
2.08962201802e-05
-1.68098704445e-10
2.08963696197e-05
-2.07488698664e-10
2.08965541373e-05
-2.56352368244e-10
2.089678225e-05
-3.16788661095e-10
2.08970643809e-05
-3.91684538704e-10
2.08974128524e-05
-4.84197652397e-10
2.08978430648e-05
-5.98509041804e-10
2.08983719173e-05
-7.40710075491e-10
2.08990315423e-05
-9.18024902413e-10
2.08998506221e-05
-1.13795586006e-09
2.0900866512e-05
-1.41024375422e-09
2.09021258264e-05
-1.74734845212e-09
2.09036863418e-05
-2.16487562547e-09
2.09056197331e-05
-2.68201944503e-09
2.0908015225e-05
-3.32270947597e-09
2.0910983275e-05
-4.11667753741e-09
2.09146606083e-05
-5.10055562992e-09
2.09192174157e-05
-6.32005936325e-09
2.0924864877e-05
-7.83228411787e-09
2.09318648434e-05
-9.70811668688e-09
2.09405435251e-05
-1.20361559394e-08
2.09513067456e-05
-1.49273563491e-08
2.09646604735e-05
-1.85205874192e-08
2.09812366258e-05
-2.29907032598e-08
2.10018251882e-05
-2.85580051624e-08
2.10274188258e-05
-3.55016450497e-08
2.1059266509e-05
-4.41783074479e-08
2.10989465706e-05
-5.50459782119e-08
2.11484654646e-05
-6.86979971459e-08
2.12103894423e-05
-8.59113794806e-08
2.12880311102e-05
-1.07718696505e-07
2.13857131814e-05
-1.35517338872e-07
2.15091629144e-05
-1.71242904622e-07
2.16661289649e-05
-2.17667149144e-07
2.1867406062e-05
-2.78947866982e-07
2.21286550377e-05
-3.61735841401e-07
2.24738567506e-05
-4.7760846979e-07
2.29421986848e-05
-6.48825697889e-07
2.36020930495e-05
-9.22407791592e-07
2.45777977541e-05
-1.40385348653e-06
2.60861917821e-05
-2.33663682886e-06
2.84247784738e-05
-4.287210874e-06
-8.39624367724e-06
3.15457278478e-05
5.35844262768e-05
1.25223868188e-05
5.29166006413e-05
1.78659206567e-05
4.96393020349e-05
1.59101395556e-05
4.58382169954e-05
1.24039965344e-05
4.24428746979e-05
9.10151997353e-06
3.97331592911e-05
6.49050515171e-06
3.769124531e-05
4.56872232963e-06
3.62011668839e-05
3.19221290995e-06
3.51355934245e-05
2.21649231024e-06
3.43848443643e-05
1.52836007294e-06
3.3862658757e-05
1.04499776449e-06
3.35040064239e-05
7.07116951878e-07
3.32609624416e-05
4.7245637451e-07
3.30987204494e-05
3.10838025005e-07
3.29922904921e-05
2.00669003314e-07
3.2923919271e-05
1.26500203952e-07
3.28811293263e-05
7.7306964999e-08
3.2855250749e-05
4.52611169314e-08
3.28403341757e-05
2.48436516332e-08
3.28323541829e-05
1.21981333624e-08
3.2828628329e-05
4.6582393843e-09
3.28274044353e-05
4.07888367873e-10
3.28275638604e-05
-1.78978647612e-09
3.28284098993e-05
-2.73836332116e-09
3.28295259798e-05
-2.96611455923e-09
3.28306756162e-05
-2.80681284137e-09
3.28317357292e-05
-2.46587473399e-09
3.28326521772e-05
-2.06439689796e-09
3.2833410834e-05
-1.66942188963e-09
3.28340191007e-05
-1.31433881814e-09
3.28344947058e-05
-1.01236187551e-09
3.28348589824e-05
-7.65358621114e-10
3.28351329547e-05
-5.69183938578e-10
3.28353356887e-05
-4.16943884685e-10
3.28354835618e-05
-3.01119734342e-10
3.28355898873e-05
-2.14534356708e-10
3.283566523e-05
-1.50768556283e-10
3.28357179345e-05
-1.04446856818e-10
3.28357542554e-05
-7.12839693684e-11
3.28357788668e-05
-4.78639761232e-11
3.28357952506e-05
-3.15747469459e-11
3.28358059632e-05
-2.04232550864e-11
3.28358128387e-05
-1.29111030387e-11
3.28358171486e-05
-7.93387001143e-12
3.28358197837e-05
-4.72060279616e-12
3.28358213824e-05
-2.71090892506e-12
3.28358222911e-05
-1.51099747781e-12
3.28358227312e-05
-8.06654171624e-13
3.28358228963e-05
-4.17840173871e-13
3.28358229708e-05
-3.58283577315e-13
3.28358229925e-05
-4.09061787495e-13
3.28358229711e-05
-5.08031118127e-13
3.2835822981e-05
-6.25053052047e-13
3.28358230428e-05
-7.45731902445e-13
3.28358231675e-05
-8.72667598756e-13
3.28358233445e-05
-9.63298167432e-13
3.28358235498e-05
-1.00796873539e-12
3.28358238226e-05
-1.02561087114e-12
3.28358241932e-05
-1.08358448209e-12
3.2835824599e-05
-1.17737609959e-12
3.28358250365e-05
-1.24505864349e-12
3.28358255461e-05
-1.29656606314e-12
3.28358260884e-05
-1.36373704118e-12
3.28358266448e-05
-1.47374090407e-12
3.28358272104e-05
-1.61192103494e-12
3.28358277477e-05
-1.74687049443e-12
3.28358282654e-05
-1.85988235685e-12
3.28358288114e-05
-1.95920305511e-12
3.28358294116e-05
-2.05719456998e-12
3.28358300327e-05
-2.14838694761e-12
3.28358306772e-05
-2.23107080587e-12
3.2835831371e-05
-2.32100462704e-12
3.28358321058e-05
-2.42699597995e-12
3.28358328817e-05
-2.53434493289e-12
3.28358336933e-05
-2.62751397797e-12
3.28358344905e-05
-2.70058953708e-12
3.28358352963e-05
-2.75112941519e-12
3.28358361795e-05
-2.80250041146e-12
3.28358371034e-05
-2.89188154794e-12
3.2835838023e-05
-3.02638599165e-12
3.28358389469e-05
-3.19293946242e-12
3.28358398698e-05
-3.38646532804e-12
3.28358407905e-05
-3.58129676053e-12
3.28358417354e-05
-3.74611064705e-12
3.28358427287e-05
-3.89987828021e-12
3.28358437792e-05
-4.06467251287e-12
3.28358449164e-05
-4.23240992676e-12
3.28358461312e-05
-4.40878653161e-12
3.28358473974e-05
-4.60761002832e-12
3.28358487353e-05
-4.84311466226e-12
3.28358501767e-05
-5.12545847336e-12
3.28358517893e-05
-5.43766654396e-12
3.28358536384e-05
-5.79012658636e-12
3.28358557007e-05
-6.22273636669e-12
3.28358579918e-05
-6.77457083799e-12
3.28358605745e-05
-7.48452904422e-12
3.28358634391e-05
-8.31092325446e-12
3.28358667197e-05
-9.1932512457e-12
3.28358705719e-05
-1.01994777749e-11
3.28358750546e-05
-1.15890767777e-11
3.28358804922e-05
-1.34357341352e-11
3.28358870766e-05
-1.56631217793e-11
3.28358949102e-05
-1.83754969642e-11
3.28359043973e-05
-2.15936581432e-11
3.28359160506e-05
-2.55563525353e-11
3.28359302922e-05
-3.05091762769e-11
3.28359477273e-05
-3.66680730965e-11
3.28359691282e-05
-4.43492450475e-11
3.28359954469e-05
-5.37971228951e-11
3.28360283407e-05
-6.53848495197e-11
3.28360691369e-05
-7.98524423942e-11
3.28361183442e-05
-9.79319431762e-11
3.28361786457e-05
-1.20206320485e-10
3.28362530474e-05
-1.47724832878e-10
3.28363448836e-05
-1.81834970618e-10
3.28364581616e-05
-2.2410842423e-10
3.28365979695e-05
-2.76396523581e-10
3.28367707635e-05
-3.41026185594e-10
3.28369845093e-05
-4.21124744396e-10
3.28372486316e-05
-5.20409704059e-10
3.2837575165e-05
-6.43354174779e-10
3.28379793347e-05
-7.95670831293e-10
3.28384792651e-05
-9.84237581693e-10
3.28390980624e-05
-1.21750399664e-09
3.28398643228e-05
-1.50682590621e-09
3.28408122523e-05
-1.86578279355e-09
3.28419852913e-05
-2.31099978122e-09
3.28434376387e-05
-2.86259283381e-09
3.28452361437e-05
-3.5458133332e-09
3.28474635166e-05
-4.39216490023e-09
3.28502219967e-05
-5.44063766713e-09
3.28536386449e-05
-6.73947831431e-09
3.28578710348e-05
-8.34881869748e-09
3.28631139961e-05
-1.03433144228e-08
3.28696096945e-05
-1.28155635445e-08
3.28776589e-05
-1.58810282729e-08
3.28876344652e-05
-1.96834820883e-08
3.29000003897e-05
-2.44020912965e-08
3.29153338895e-05
-3.02608744507e-08
3.29343537716e-05
-3.75404369232e-08
3.29579573024e-05
-4.65937458e-08
3.29872650704e-05
-5.78655326127e-08
3.30236819558e-05
-7.19183974681e-08
3.30689732237e-05
-8.94694064132e-08
3.31253649481e-05
-1.11437730604e-07
3.31956792063e-05
-1.39011957841e-07
3.32835131049e-05
-1.73745471581e-07
3.339348944e-05
-2.17695610278e-07
3.35316082129e-05
-2.73636411151e-07
3.37057587032e-05
-3.45393635572e-07
3.39264942784e-05
-4.38403272405e-07
3.42082472851e-05
-5.60701171014e-07
3.45712879497e-05
-7.24776730708e-07
3.50449182694e-05
-9.51238746188e-07
3.56724552993e-05
-1.2763624647e-06
3.65178483911e-05
-1.76780102434e-06
3.76698109516e-05
-2.55581561916e-06
3.92219738831e-05
-3.88879956921e-06
4.1150166118e-05
-6.21540391325e-06
-1.01779413861e-05
4.29318642032e-05
5.35705201064e-05
8.95186674566e-06
5.55863051788e-05
1.58501348068e-05
5.52410592943e-05
1.62553863824e-05
5.35976157901e-05
1.40474395852e-05
5.15429059846e-05
1.11562298103e-05
4.95819403688e-05
8.45147056654e-06
4.79262511467e-05
6.22441153566e-06
4.6620039755e-05
4.49842424339e-06
4.5632233778e-05
3.20429820002e-06
4.49066876407e-05
2.25390626152e-06
4.43854422849e-05
1.56624314087e-06
4.40178329785e-05
1.07472629017e-06
4.37629125035e-05
7.2737686043e-07
4.35890450055e-05
4.84705484133e-07
4.34725017874e-05
3.17212171259e-07
4.3395868706e-05
2.0313315256e-07
4.3346590596e-05
1.26584948933e-07
4.33157564751e-05
7.60952583505e-08
4.32971349987e-05
4.34651369764e-08
4.32864333419e-05
2.28997460849e-08
4.32807400254e-05
1.0351568008e-08
4.32781172979e-05
3.03064452684e-09
4.32772906051e-05
-9.63098245759e-10
4.32774550981e-05
-2.90286302929e-09
4.32781064962e-05
-3.61751116609e-09
4.32789444979e-05
-3.64483735603e-09
4.32797994526e-05
-3.32089041911e-09
4.32805837441e-05
-2.84876885585e-09
4.32812595345e-05
-2.34523224239e-09
4.32818176347e-05
-1.872442313e-09
4.32822642564e-05
-1.45905132364e-09
4.3282612976e-05
-1.1141196759e-09
4.32828796847e-05
-8.35932943138e-10
4.32830799945e-05
-6.17366464076e-10
4.32832281042e-05
-4.49284456492e-10
4.32833360228e-05
-3.22443267157e-10
4.32834134951e-05
-2.28251424164e-10
4.32834683659e-05
-1.5930477538e-10
4.32835066836e-05
-1.09579812069e-10
4.3283533011e-05
-7.42281053448e-11
4.32835508191e-05
-4.9441079451e-11
4.32835626545e-05
-3.23111187834e-11
4.3283570381e-05
-2.06371948559e-11
4.3283575299e-05
-1.28331579581e-11
4.32835783299e-05
-7.74554545758e-12
4.32835801134e-05
-4.52652737992e-12
4.32835810836e-05
-2.54421909343e-12
4.32835815993e-05
-1.36732884553e-12
4.32835819045e-05
-7.45742655918e-13
4.32835820433e-05
-5.10433167064e-13
4.32835820879e-05
-4.8014922593e-13
4.32835820389e-05
-5.27817859335e-13
4.32835819692e-05
-6.08127674136e-13
4.32835819268e-05
-6.9633705672e-13
4.32835819198e-05
-7.81726630826e-13
4.32835819594e-05
-8.73094430475e-13
4.32835820075e-05
-9.68471018588e-13
4.32835820698e-05
-1.04203879994e-12
4.32835822049e-05
-1.10540161602e-12
4.32835823833e-05
-1.18343069395e-12
4.3283582584e-05
-1.2613804242e-12
4.32835828342e-05
-1.3463628536e-12
4.32835831051e-05
-1.46159784921e-12
4.32835833849e-05
-1.59732718069e-12
4.3283583677e-05
-1.73215549215e-12
4.32835839397e-05
-1.85755843367e-12
4.32835841635e-05
-1.95670331239e-12
4.32835843991e-05
-2.02662941524e-12
4.32835846711e-05
-2.1050620526e-12
4.32835849576e-05
-2.22884889897e-12
4.3283585247e-05
-2.37297420498e-12
4.32835855581e-05
-2.5064885353e-12
4.32835858962e-05
-2.62872465465e-12
4.32835862665e-05
-2.73084873052e-12
4.32835866681e-05
-2.81106104513e-12
4.3283587054e-05
-2.89555932947e-12
4.32835874207e-05
-2.97376708827e-12
4.32835878202e-05
-3.03508222494e-12
4.32835882426e-05
-3.13362843843e-12
4.32835886636e-05
-3.28428939303e-12
4.32835890794e-05
-3.45104976458e-12
4.32835894887e-05
-3.66195045387e-12
4.32835899011e-05
-3.90537841526e-12
4.32835903244e-05
-4.12137937774e-12
4.32835907768e-05
-4.33303597101e-12
4.32835912849e-05
-4.5487850273e-12
4.32835918771e-05
-4.74469134175e-12
4.32835925413e-05
-4.99209132455e-12
4.32835932575e-05
-5.32088558889e-12
4.32835940538e-05
-5.69396569738e-12
4.32835949774e-05
-6.12693146467e-12
4.32835960954e-05
-6.59956805777e-12
4.32835974695e-05
-7.11778222377e-12
4.32835990778e-05
-7.78017546713e-12
4.32836009463e-05
-8.63255885561e-12
4.3283603215e-05
-9.70545294187e-12
4.32836059276e-05
-1.10179447523e-11
4.3283609194e-05
-1.25379202982e-11
4.32836133614e-05
-1.43555451764e-11
4.32836184182e-05
-1.66413059064e-11
4.32836243811e-05
-1.94541215065e-11
4.32836316534e-05
-2.29292729214e-11
4.3283640475e-05
-2.72202637755e-11
4.32836512371e-05
-3.24360949959e-11
4.32836644634e-05
-3.88400327156e-11
4.32836806723e-05
-4.67625900219e-11
4.32837005787e-05
-5.6553736591e-11
4.32837251239e-05
-6.87529487311e-11
4.32837552612e-05
-8.39057643546e-11
4.32837923059e-05
-1.02545356767e-10
4.32838381477e-05
-1.25656170267e-10
4.32838947576e-05
-1.54459683613e-10
4.32839645531e-05
-1.90051962216e-10
4.32840508218e-05
-2.33998284192e-10
4.32841574858e-05
-2.88394708197e-10
4.32842893204e-05
-3.55772497519e-10
4.32844522376e-05
-4.39192097988e-10
4.32846536054e-05
-5.42420971491e-10
4.3284902766e-05
-6.70267244248e-10
4.32852108493e-05
-8.28662983728e-10
4.32855918297e-05
-1.02464749159e-09
4.32860636096e-05
-1.26731567636e-09
4.32866475605e-05
-1.56797801247e-09
4.32873700634e-05
-1.94022509349e-09
4.32882644752e-05
-2.4013233238e-09
4.3289371795e-05
-2.97287154341e-09
4.32907424213e-05
-3.68136101643e-09
4.32924390771e-05
-4.55910019499e-09
4.32945395634e-05
-5.64623155849e-09
4.32971403703e-05
-6.99286489411e-09
4.33003607957e-05
-8.66108939318e-09
4.33043487391e-05
-1.07275964608e-08
4.33092877604e-05
-1.32878496448e-08
4.33154049844e-05
-1.64605100253e-08
4.33229822229e-05
-2.03928062616e-08
4.33323694677e-05
-2.52680397512e-08
4.3344000577e-05
-3.13144038902e-08
4.33584148111e-05
-3.8816093936e-08
4.33762824379e-05
-4.81281903891e-08
4.33984368762e-05
-5.96949985885e-08
4.34259172678e-05
-7.40740745271e-08
4.34600192358e-05
-9.19672806074e-08
4.35023622032e-05
-1.14261161416e-07
4.3554975302e-05
-1.42082205447e-07
4.36204073342e-05
-1.76869843446e-07
4.37018734329e-05
-2.20477961702e-07
4.38034459629e-05
-2.75317905545e-07
4.39303137154e-05
-3.44563419571e-07
4.40891355957e-05
-4.32458244249e-07
4.42885310942e-05
-5.44789182239e-07
4.45397741006e-05
-6.89646374183e-07
4.48577721889e-05
-8.7869924633e-07
4.52624203279e-05
-1.12942471284e-06
4.57803020493e-05
-1.46912072899e-06
4.6446177505e-05
-1.94223778793e-06
4.73019374451e-05
-2.62356102278e-06
4.83860033537e-05
-3.63988167897e-06
4.96950762526e-05
-5.19787173691e-06
5.10781727425e-05
-7.59850070465e-06
-1.11421491337e-05
5.20423807782e-05
5.27606089421e-05
6.1912583176e-06
5.57402400343e-05
1.28705024408e-05
5.73124122832e-05
1.46832149839e-05
5.76111978474e-05
1.37486536846e-05
5.71338686231e-05
1.16335591165e-05
5.63199839884e-05
9.26535496813e-06
5.54496448777e-05
7.09475062366e-06
5.46637028389e-05
5.28436629746e-06
5.40144129363e-05
3.8535880519e-06
5.35068424121e-05
2.76147682888e-06
5.31248779697e-05
1.94820762665e-06
5.2845524002e-05
1.35408027131e-06
5.26458878415e-05
9.27012982824e-07
5.25060751654e-05
6.24518063802e-07
5.24099975092e-05
4.13289791969e-07
5.23452159489e-05
2.67914663756e-07
5.23024109002e-05
1.69389879153e-07
5.22747659913e-05
1.03740156238e-07
5.22573938179e-05
6.0837359136e-08
5.22468517168e-05
3.34418193162e-08
5.22407554386e-05
1.64478082481e-08
5.22374824457e-05
6.30363850082e-09
5.2235941212e-05
5.78144131586e-10
5.22354259056e-05
-2.38755046423e-09
5.22354778418e-05
-3.66944257727e-09
5.22358127143e-05
-3.97971362148e-09
5.22362600144e-05
-3.76821758286e-09
5.22367228342e-05
-3.31168011093e-09
5.22371506508e-05
-2.77312531848e-09
5.22375210684e-05
-2.24290476171e-09
5.22378279726e-05
-1.76605291885e-09
5.22380742389e-05
-1.36044965127e-09
5.22382669345e-05
-1.02863799901e-09
5.22384145137e-05
-7.65019128701e-10
5.22385255327e-05
-5.6038555767e-10
5.22386077804e-05
-4.04650119781e-10
5.22386677663e-05
-2.88159983075e-10
5.22387108812e-05
-2.02360110658e-10
5.22387414452e-05
-1.40109156723e-10
5.22387627772e-05
-9.55949290763e-11
5.22387774534e-05
-6.41792000069e-11
5.22387874037e-05
-4.23018250265e-11
5.22387940334e-05
-2.72999496559e-11
5.22387983553e-05
-1.71994230719e-11
5.22388011128e-05
-1.05568271837e-11
5.22388028512e-05
-6.29961555023e-12
5.22388039043e-05
-3.6325733246e-12
5.22388044779e-05
-2.00817222577e-12
5.22388047187e-05
-1.06376941684e-12
5.22388047573e-05
-5.84118178956e-13
5.22388047019e-05
-4.14764643263e-13
5.22388045997e-05
-4.20372686584e-13
5.22388044909e-05
-4.85589595541e-13
5.22388043933e-05
-5.55462787596e-13
5.22388043023e-05
-6.1741248049e-13
5.22388042601e-05
-6.96892490717e-13
5.22388042535e-05
-8.21020100698e-13
5.22388042392e-05
-9.50749223814e-13
5.22388042654e-05
-1.05306176257e-12
5.22388043434e-05
-1.1399127821e-12
5.22388044375e-05
-1.21537568801e-12
5.22388045656e-05
-1.30035943595e-12
5.22388047059e-05
-1.41600244333e-12
5.22388048288e-05
-1.54235214225e-12
5.22388049577e-05
-1.66834011017e-12
5.22388050891e-05
-1.80113764843e-12
5.22388051884e-05
-1.91638712343e-12
5.22388052506e-05
-1.99529352424e-12
5.22388053161e-05
-2.06518250994e-12
5.22388054089e-05
-2.16730854673e-12
5.22388055246e-05
-2.30633104997e-12
5.2238805659e-05
-2.45453458146e-12
5.22388057997e-05
-2.57725891214e-12
5.22388059325e-05
-2.65837289077e-12
5.22388060725e-05
-2.72003864183e-12
5.22388062296e-05
-2.78922319401e-12
5.2238806385e-05
-2.86337704546e-12
5.2238806524e-05
-2.94827908401e-12
5.22388066391e-05
-3.07259868111e-12
5.22388067292e-05
-3.25018861945e-12
5.22388067988e-05
-3.46049720518e-12
5.22388068796e-05
-3.68209782386e-12
5.2238806992e-05
-3.91854510832e-12
5.22388071027e-05
-4.17452816604e-12
5.22388072209e-05
-4.43709604495e-12
5.22388073883e-05
-4.69603352826e-12
5.22388076028e-05
-4.95722364444e-12
5.22388078532e-05
-5.25251913467e-12
5.2238808155e-05
-5.62599953122e-12
5.22388085266e-05
-6.08660913894e-12
5.22388090064e-05
-6.61044027965e-12
5.22388096471e-05
-7.19629510111e-12
5.22388104856e-05
-7.92107313701e-12
5.22388115291e-05
-8.85619010625e-12
5.22388128212e-05
-9.9940701517e-12
5.22388145171e-05
-1.13732836178e-11
5.22388166923e-05
-1.30938477845e-11
5.22388193639e-05
-1.5194555165e-11
5.22388227297e-05
-1.77470200141e-11
5.22388269532e-05
-2.09280764369e-11
5.22388322131e-05
-2.48535951811e-11
5.22388388579e-05
-2.96432776045e-11
5.22388471864e-05
-3.55412846302e-11
5.22388575279e-05
-4.27945869025e-11
5.22388704215e-05
-5.17329157177e-11
5.22388864477e-05
-6.28057483801e-11
5.22389062958e-05
-7.64879203741e-11
5.22389310095e-05
-9.3442284557e-11
5.22389617164e-05
-1.14498385536e-10
5.22389996686e-05
-1.40494791331e-10
5.22390466942e-05
-1.72609723367e-10
5.2239104873e-05
-2.12473152214e-10
5.22391767233e-05
-2.61826734732e-10
5.22392656055e-05
-3.22869837602e-10
5.22393756254e-05
-3.98400246027e-10
5.2239511798e-05
-4.91868314123e-10
5.22396802826e-05
-6.07581323992e-10
5.2239888629e-05
-7.50803804572e-10
5.224014654e-05
-9.28172314314e-10
5.2240465769e-05
-1.14792223159e-09
5.2240860618e-05
-1.41989026706e-09
5.22413496415e-05
-1.75640921857e-09
5.22419553456e-05
-2.17330567778e-09
5.22427049085e-05
-2.6897392736e-09
5.22436326422e-05
-3.32923227056e-09
5.22447812989e-05
-4.12140450195e-09
5.22462032799e-05
-5.10300464538e-09
5.22479635418e-05
-6.31908532601e-09
5.22501425568e-05
-7.82529533129e-09
5.22528403524e-05
-9.69077545798e-09
5.22561807722e-05
-1.20014246956e-08
5.22603168961e-05
-1.48636712129e-08
5.22654387073e-05
-1.84096053084e-08
5.22717814156e-05
-2.28032230119e-08
5.22796364389e-05
-2.8248052957e-08
5.2289365548e-05
-3.49972605406e-08
5.23014170045e-05
-4.33658688563e-08
5.2316347056e-05
-5.3745987485e-08
5.23348462537e-05
-6.66270259809e-08
5.2357771664e-05
-8.26204785781e-08
5.2386189596e-05
-1.02491941771e-07
5.24214262341e-05
-1.27203498574e-07
5.24651328456e-05
-1.57967522347e-07
5.25193697743e-05
-1.96318814067e-07
5.2586710322e-05
-2.44210505889e-07
5.26703767665e-05
-3.04144656661e-07
5.27744127861e-05
-3.79353863484e-07
5.29039059878e-05
-4.74056572423e-07
5.30652771782e-05
-5.93829412029e-07
5.32666494619e-05
-7.46161600692e-07
5.35183116712e-05
-9.41308762305e-07
5.38332566162e-05
-1.19364414573e-06
5.42276858079e-05
-1.5238538533e-06