/*--------------------------------*- C++ -*----------------------------------*\
| =========                 |                                                 |
| \\      /  F ield         | OpenFOAM: The Open Source CFD Toolbox           |
|  \\    /   O peration     | Version:  2106                                  |
|   \\  /    A nd           | Website:  www.openfoam.com                      |
|    \\/     M anipulation  |                                                 |
\*---------------------------------------------------------------------------*/
FoamFile
{
    version     2.0;
    format      ascii;
    arch        "LSB;label=32;scalar=64";
    class       surfaceScalarField;
    location    "0.152";
    object      phi;
}
// * * * * * * * * * * * * * * * * * * * * * * * * * * * * * * * * * * * * * //

dimensions      [0 3 -1 0 0 0 0];

oriented        oriented;

internalField   nonuniform List<scalar> 
799
(
1.5913e-32
4.18213e-32
5.30925e-32
4.03272e-32
1.3164e-32
-5.55796e-32
-1.17057e-31
-1.65025e-31
-1.7716e-31
-1.41478e-31
-8.77515e-32
-2.75393e-32
8.87501e-33
1.65606e-32
-7.07685e-33
-4.83502e-32
-1.0128e-31
-1.55665e-31
-1.97661e-31
-2.27296e-31
-2.20775e-31
-1.86268e-31
-1.26672e-31
-5.74574e-32
-1.84077e-32
-1.08366e-32
-5.40137e-32
-1.26136e-31
-1.93921e-31
-2.47998e-31
-2.52321e-31
-2.2648e-31
-1.81589e-31
-1.27971e-31
-1.045e-31
-9.48238e-32
-1.13411e-31
-1.52682e-31
-1.8392e-31
-2.21957e-31
-2.32248e-31
-2.21068e-31
-1.98879e-31
-1.53418e-31
-1.29403e-31
-1.203e-31
-1.37379e-31
-1.87482e-31
-2.28555e-31
-2.65936e-31
-2.6893e-31
-2.36124e-31
-1.93952e-31
-1.40627e-31
-1.17159e-31
-1.24231e-31
-1.58218e-31
-2.18164e-31
-2.64396e-31
-2.90346e-31
-2.77949e-31
-2.25541e-31
-1.64155e-31
-1.09912e-31
-9.7762e-32
-1.39144e-31
-2.13554e-31
-2.97658e-31
-3.43643e-31
-3.26656e-31
-2.55774e-31
-1.54498e-31
-7.84982e-32
-6.23791e-32
-1.09837e-31
-2.03961e-31
-2.90782e-31
-3.35693e-31
-3.24435e-31
-2.65399e-31
-1.99345e-31
-1.50501e-31
-1.35271e-31
-1.5039e-31
-1.74597e-31
-2.00607e-31
-2.20227e-31
-2.3839e-31
-2.58699e-31
-2.70951e-31
-2.68955e-31
-2.37789e-31
-1.85174e-31
-1.31701e-31
-9.89597e-32
-1.17757e-31
-1.76247e-31
-2.57908e-31
-3.27142e-31
-3.40363e-31
-3.0493e-31
-2.18993e-31
-1.2799e-31
-7.45696e-32
-6.53387e-32
-1.23074e-31
-2.02117e-31
-2.75668e-31
-3.1935e-31
-3.021e-31
-2.58002e-31
-1.94977e-31
-1.48059e-31
-1.39194e-31
-1.50351e-31
-1.80678e-31
-1.97221e-31
-1.9442e-31
-1.8137e-31
-1.67159e-31
-1.76753e-31
-2.06912e-31
-2.48102e-31
-2.78568e-31
-2.76788e-31
-2.41748e-31
-1.82003e-31
-1.2216e-31
-8.39531e-32
-7.81899e-32
-1.07724e-31
-1.59681e-31
-2.20213e-31
-2.75099e-31
-3.06521e-31
-3.08801e-31
-2.74619e-31
-2.10001e-31
-1.35769e-31
-7.0486e-32
-4.46804e-32
-6.67122e-32
-1.29372e-31
-2.13005e-31
-2.77269e-31
-3.03171e-31
-2.79067e-31
-2.1819e-31
-1.54813e-31
-1.10834e-31
-1.09359e-31
-1.43217e-31
-1.89484e-31
-2.25815e-31
-2.25549e-31
-1.91826e-31
-1.40168e-31
-9.75559e-32
-9.38169e-32
-1.32892e-31
-2.02996e-31
-2.68786e-31
-2.9463e-31
-2.62581e-31
-1.81196e-31
-9.05909e-32
-3.12031e-32
-3.7761e-32
-1.02848e-31
-1.91328e-31
-2.60552e-31
-2.65834e-31
-2.17757e-31
-1.38523e-31
-7.39828e-32
-6.56291e-32
-9.95627e-32
-1.66312e-31
-2.13685e-31
-2.13518e-31
-1.7484e-31
-1.01328e-31
-4.92105e-32
-3.29932e-32
-5.91592e-32
-1.23488e-31
-1.76271e-31
-2.0939e-31
-1.98223e-31
-1.47517e-31
-8.83701e-32
-2.84673e-32
-1.29097e-33
-5.50432e-33
-3.25392e-32
-7.63729e-32
-1.0906e-31
-1.28159e-31
-1.26591e-31
-1.03402e-31
-7.1133e-32
-2.96383e-32
1.03483e-32
3.93454e-32
5.33453e-32
4.18902e-32
1.02694e-32
-2.76612e-32
-5.54322e-32
-4.93158e-32
-5.64237e-33
6.25516e-32
1.30312e-31
1.62375e-31
1.45411e-31
8.96355e-32
2.69292e-32
2.81065e-33
4.25239e-32
1.3944e-31
2.57323e-31
3.39696e-31
3.46147e-31
2.76686e-31
1.65393e-31
7.92219e-32
7.36277e-32
1.60802e-31
3.1803e-31
4.73887e-31
5.65095e-31
5.63748e-31
4.74943e-31
3.64091e-31
2.90811e-31
2.97082e-31
3.9545e-31
5.37744e-31
6.78135e-31
7.68117e-31
7.83476e-31
7.4885e-31
6.93319e-31
6.62033e-31
6.83728e-31
7.55673e-31
8.60877e-31
9.65068e-31
1.03926e-30
1.07409e-30
1.08384e-30
1.0927e-30
1.13125e-30
1.21024e-30
1.31091e-30
1.4113e-30
1.47536e-30
1.49568e-30
1.49689e-30
1.50678e-30
1.56898e-30
1.69127e-30
1.84786e-30
2.00622e-30
2.11957e-30
2.17563e-30
2.19692e-30
2.21108e-30
2.26024e-30
2.3588e-30
2.48916e-30
2.6388e-30
2.77704e-30
2.8971e-30
3.01304e-30
3.12221e-30
3.24284e-30
3.36803e-30
3.48815e-30
3.61344e-30
3.73613e-30
3.87272e-30
4.02497e-30
4.1816e-30
4.34171e-30
4.49206e-30
4.64363e-30
4.81289e-30
5.01169e-30
5.24182e-30
5.47965e-30
5.69408e-30
5.86077e-30
5.98738e-30
6.10582e-30
6.26782e-30
6.50839e-30
6.82112e-30
7.17257e-30
7.49659e-30
7.75497e-30
7.94526e-30
8.09976e-30
8.28597e-30
8.53842e-30
8.86893e-30
9.2469e-30
9.6167e-30
9.9523e-30
1.02399e-29
1.05105e-29
1.08034e-29
1.11364e-29
1.15187e-29
1.19183e-29
1.231e-29
1.26817e-29
1.3033e-29
1.33977e-29
1.37935e-29
1.42317e-29
1.47063e-29
1.51823e-29
1.56457e-29
1.60823e-29
1.65035e-29
1.69446e-29
1.74201e-29
1.79523e-29
1.85253e-29
1.91071e-29
1.96777e-29
2.0205e-29
2.07068e-29
2.12079e-29
2.17387e-29
2.23415e-29
2.30043e-29
2.37138e-29
2.44265e-29
2.50896e-29
2.56883e-29
2.62253e-29
2.67037e-29
2.73421e-29
2.80897e-29
2.96639e-29
3.23013e-29
3.6131e-29
4.32214e-29
4.61178e-29
4.91179e-29
3.22585e-29
-1.02806e-29
-6.14419e-29
-1.6682e-28
-1.57244e-28
-9.62338e-29
1.92005e-28
8.36456e-28
1.20204e-27
1.84475e-27
1.08337e-27
-7.34274e-28
-3.00934e-27
-7.51551e-27
-7.18568e-27
-5.90313e-27
1.77645e-27
1.69047e-26
2.26965e-26
3.30775e-26
1.66772e-26
-1.3582e-26
-4.09781e-26
-9.04662e-26
-7.12929e-26
-4.21651e-26
3.16e-26
1.54655e-25
1.62765e-25
1.92028e-25
5.43416e-26
-1.4557e-25
-2.41532e-25
-4.1568e-25
-2.36493e-25
-3.16125e-26
2.19185e-25
5.89226e-25
4.55187e-25
3.83066e-25
-3.70529e-26
-5.43971e-25
-5.80018e-25
-7.54221e-25
-2.54547e-25
2.23659e-25
5.06879e-25
9.15324e-25
5.0689e-25
2.23675e-25
-2.54533e-25
-7.54216e-25
-5.80024e-25
-5.43983e-25
-3.70669e-26
3.83056e-25
4.55186e-25
5.89231e-25
2.19192e-25
-3.16068e-26
-2.36491e-25
-4.15682e-25
-2.41537e-25
-1.45574e-25
5.43378e-26
1.92026e-25
1.62765e-25
1.54655e-25
3.16002e-26
-4.21655e-26
-7.12937e-26
-9.0467e-26
-4.09792e-26
-1.35829e-26
1.66762e-26
3.30764e-26
2.26955e-26
1.69037e-26
1.77561e-27
-5.90388e-27
-7.18635e-27
-7.51613e-27
-3.00998e-27
-7.34933e-28
1.08266e-27
1.844e-27
1.20129e-27
8.35712e-28
1.91333e-28
-9.68259e-29
-1.57736e-28
-1.67245e-28
-6.18663e-29
-1.07495e-29
3.16838e-29
4.84608e-29
4.54284e-29
4.25733e-29
3.56112e-29
3.19185e-29
2.94016e-29
2.78756e-29
2.7088e-29
2.63657e-29
2.57774e-29
2.51652e-29
2.45516e-29
2.3928e-29
2.3314e-29
2.27188e-29
2.21566e-29
2.16196e-29
2.10846e-29
2.05306e-29
1.99432e-29
1.93317e-29
1.87315e-29
1.81698e-29
1.76732e-29
1.7235e-29
1.68257e-29
1.64197e-29
1.59809e-29
1.55117e-29
1.50196e-29
1.45252e-29
1.406e-29
1.363e-29
1.32488e-29
1.29053e-29
1.25795e-29
1.22544e-29
1.1903e-29
1.15205e-29
1.1117e-29
1.0715e-29
1.03487e-29
1.00407e-29
9.7846e-30
9.56188e-30
9.32932e-30
9.05189e-30
8.73062e-30
8.37218e-30
8.02779e-30
7.73364e-30
7.50019e-30
7.33211e-30
7.17746e-30
7.00541e-30
6.78858e-30
6.51388e-30
6.22082e-30
5.93494e-30
5.69778e-30
5.531e-30
5.4164e-30
5.3298e-30
5.22186e-30
5.05567e-30
4.82586e-30
4.55251e-30
4.28582e-30
4.08078e-30
3.96207e-30
3.92148e-30
3.91196e-30
3.86831e-30
3.75122e-30
3.55128e-30
3.30694e-30
3.07581e-30
2.90578e-30
2.81766e-30
2.78864e-30
2.78118e-30
2.74714e-30
2.66663e-30
2.54038e-30
2.38662e-30
2.24148e-30
2.11635e-30
2.03063e-30
1.97405e-30
1.93171e-30
1.89518e-30
1.83528e-30
1.76243e-30
1.67001e-30
1.57462e-30
1.50198e-30
1.44236e-30
1.41339e-30
1.38315e-30
1.33546e-30
1.27171e-30
1.17608e-30
1.092e-30
1.0285e-30
9.97413e-31
1.0056e-30
1.00902e-30
1.00047e-30
9.57763e-31
8.82008e-31
8.06762e-31
7.36607e-31
6.92555e-31
6.66515e-31
6.38356e-31
6.12426e-31
5.81954e-31
5.677e-31
5.82985e-31
6.11089e-31
6.37425e-31
6.17515e-31
5.32747e-31
4.04214e-31
2.64025e-31
1.86042e-31
2.03571e-31
3.07918e-31
4.61039e-31
5.66455e-31
5.73771e-31
4.63113e-31
2.6524e-31
8.13901e-32
-2.55592e-32
-1.12556e-33
1.39929e-31
3.11565e-31
4.463e-31
4.61197e-31
3.52942e-31
1.78033e-31
1.88831e-34
-8.49064e-32
-5.99265e-32
5.27332e-32
2.00149e-31
2.93241e-31
3.08591e-31
2.3887e-31
1.21303e-31
2.05397e-32
-4.35749e-32
-4.56552e-32
-6.79266e-33
4.34929e-32
9.59677e-32
1.2364e-31
1.36588e-31
1.31394e-31
1.0661e-31
7.49728e-32
3.00076e-32
-9.37226e-33
-3.86119e-32
-5.09439e-32
-4.0267e-32
-1.6876e-32
1.97445e-32
5.4552e-32
8.45148e-32
9.7528e-32
8.73921e-32
5.76966e-32
5.35964e-33
-4.25089e-32
-8.12821e-32
-9.26598e-32
-7.03807e-32
-3.62556e-32
1.36643e-32
4.7757e-32
6.40838e-32
6.51265e-32
3.83147e-32
9.70789e-33
-2.89055e-32
-6.32377e-32
-7.86035e-32
-8.26405e-32
-5.7577e-32
-2.12915e-32
1.72115e-32
4.81498e-32
5.07881e-32
3.44474e-32
-1.27141e-33
-4.04806e-32
-6.7473e-32
-7.89827e-32
-6.74451e-32
-4.1725e-32
-9.53759e-33
1.80105e-32
3.11278e-32
2.51704e-32
4.79376e-33
-2.01139e-32
-3.92152e-32
-3.94605e-32
-3.08982e-32
-1.70981e-32
-1.26534e-32
-2.55848e-32
-3.65596e-32
-4.33259e-32
-2.306e-32
1.64712e-32
4.99794e-32
6.42899e-32
2.98865e-32
-3.1298e-32
-9.33264e-32
-1.23216e-31
-9.07993e-32
-1.96836e-32
6.53703e-32
1.14065e-31
1.00139e-31
3.61909e-32
-5.29932e-32
-1.11308e-31
-1.1638e-31
-6.57013e-32
1.48477e-32
7.48276e-32
9.30239e-32
5.59557e-32
-9.80268e-33
-6.43261e-32
-8.45724e-32
-5.21521e-32
7.45201e-33
6.32518e-32
8.82389e-32
6.13476e-32
3.65344e-33
-6.02102e-32
-9.93029e-32
-8.79164e-32
-3.81507e-32
3.35804e-32
9.64966e-32
1.19261e-31
1.01859e-31
4.61516e-32
-2.51793e-32
-8.10109e-32
-1.11758e-31
-1.00363e-31
-5.41013e-32
8.83525e-33
7.83876e-32
1.23929e-31
1.36398e-31
1.09411e-31
4.26556e-32
-3.51979e-32
-1.05311e-31
-1.36052e-31
-1.10337e-31
-3.86961e-32
6.0232e-32
1.41375e-31
1.71682e-31
1.37724e-31
4.93848e-32
-5.02608e-32
-1.1855e-31
-1.2425e-31
-6.38209e-32
3.05791e-32
1.15256e-31
1.5131e-31
1.20991e-31
4.53158e-32
-3.91731e-32
-9.17044e-32
-8.27262e-32
-2.53899e-32
5.71377e-32
1.22522e-31
1.3474e-31
1.00625e-31
2.6717e-32
-4.16832e-32
-7.01242e-32
-5.74078e-32
4.95626e-33
7.00137e-32
1.1295e-31
1.21543e-31
7.91678e-32
2.80418e-32
-2.0244e-32
-4.26074e-32
-2.30073e-32
1.01149e-32
5.52102e-32
8.59506e-32
9.1517e-32
8.33672e-32
5.89417e-32
3.69031e-32
2.37852e-32
1.65043e-32
1.84848e-32
2.08651e-32
1.89907e-32
2.00904e-32
2.01237e-32
2.98471e-32
5.25907e-32
7.64248e-32
1.05494e-31
1.1397e-31
9.99051e-32
6.46834e-32
6.51732e-33
-3.72351e-32
-6.31528e-32
-4.83988e-32
4.99388e-33
6.90416e-32
1.32239e-31
1.55686e-31
1.40385e-31
8.84581e-32
2.46948e-32
-2.444e-32
-4.50818e-32
-2.39237e-32
6.6595e-33
5.53208e-32
7.56033e-32
7.61299e-32
6.90025e-32
2.40751e-32
1.45701e-32
-1.80142e-32
-2.43327e-32
-4.52072e-33
)
;

boundaryField
{
    left
    {
        type            calculated;
        value           uniform 0;
    }
    right
    {
        type            calculated;
        value           uniform 0;
    }
    empty
    {
        type            empty;
        value           nonuniform List<scalar> 0();
    }
}


// ************************************************************************* //
