/*--------------------------------*- C++ -*----------------------------------*\
| =========                 |                                                 |
| \\      /  F ield         | OpenFOAM: The Open Source CFD Toolbox           |
|  \\    /   O peration     | Version:  2106                                  |
|   \\  /    A nd           | Website:  www.openfoam.com                      |
|    \\/     M anipulation  |                                                 |
\*---------------------------------------------------------------------------*/
FoamFile
{
    version     2.0;
    format      ascii;
    arch        "LSB;label=32;scalar=64";
    class       surfaceScalarField;
    location    "0.475";
    object      phi;
}
// * * * * * * * * * * * * * * * * * * * * * * * * * * * * * * * * * * * * * //

dimensions      [0 3 -1 0 0 0 0];

oriented        oriented;

internalField   nonuniform List<scalar> 
22100
(
3.38461206326e-05
1.61538793521e-05
2.24572109556e-05
1.13889102938e-05
1.62585546835e-05
6.1986567863e-06
1.27977782277e-05
3.46077691986e-06
1.08046448378e-05
1.99313382956e-06
9.60459227292e-06
1.20005297498e-06
8.85132496776e-06
7.53267690577e-07
8.36435663055e-06
4.8696871883e-07
8.04433927802e-06
3.20017753578e-07
7.83284508243e-06
2.11494635117e-07
7.69340260105e-06
1.39442976863e-07
7.60224647901e-06
9.1156683436e-08
7.5434845299e-06
5.87625751099e-08
7.50634848902e-06
3.71367189999e-08
7.48350986227e-06
2.28393367578e-08
7.46998989715e-06
1.35206832616e-08
7.46242608154e-06
7.56452133548e-09
7.45855878805e-06
3.86797657131e-09
7.45684044417e-06
1.71899306838e-09
7.456434436e-06
4.06604574729e-10
7.4567848377e-06
-3.49830042524e-10
7.45747155619e-06
-6.86190545502e-10
7.45823045461e-06
-7.5836256492e-10
7.45895631882e-06
-7.25345565158e-10
7.4596012183e-06
-6.44373008095e-10
7.46014577734e-06
-5.44017661843e-10
7.46058854872e-06
-4.42217841832e-10
7.46093798123e-06
-3.48869279979e-10
7.46120697529e-06
-2.68422496297e-10
7.46140961007e-06
-2.02059520482e-10
7.46155924955e-06
-1.49073098488e-10
7.46166755717e-06
-1.07767252355e-10
7.46174424444e-06
-7.61962550034e-11
7.46179741153e-06
-5.27343502853e-11
7.46183116075e-06
-3.326040236e-11
7.46185025727e-06
-1.88266307948e-11
7.4618596869e-06
-9.11644093397e-12
7.46186280798e-06
-2.87383713607e-12
7.46186161834e-06
1.429979329e-12
7.46185726972e-06
4.6067463495e-12
7.46185071965e-06
6.83978831013e-12
7.46184255617e-06
8.45795085744e-12
7.46183316404e-06
9.71265861151e-12
7.46182270343e-06
1.07999120248e-11
7.46181116857e-06
1.18952881752e-11
7.46179843142e-06
1.31202318756e-11
7.4617842875e-06
1.45788956536e-11
7.46176838195e-06
1.6322995577e-11
7.46175030967e-06
1.84725491168e-11
7.46172954383e-06
2.11630094724e-11
7.46170549967e-06
2.44703154897e-11
7.46167750682e-06
2.84751399844e-11
7.46164477906e-06
3.32621453953e-11
7.4616064676e-06
3.88965395486e-11
7.46156169563e-06
4.53966133895e-11
7.46150962172e-06
5.27217931241e-11
7.46144960667e-06
6.06517792788e-11
7.4613815308e-06
6.86469159192e-11
7.46130614393e-06
7.59305284071e-11
7.46122583689e-06
8.06902723595e-11
7.46114718828e-06
7.90096897948e-11
7.46108216067e-06
6.53265172102e-11
7.46103829212e-06
4.4111305192e-11
7.46103517583e-06
3.39346379778e-12
7.46110875846e-06
-7.33776410813e-11
7.46131742762e-06
-2.08414088639e-10
7.46175565021e-06
-4.38074893007e-10
7.46257364658e-06
-8.17844878352e-10
7.46400670089e-06
-1.4329227592e-09
7.46641020707e-06
-2.40343725573e-09
7.47023319928e-06
-3.82297045683e-09
7.47668860606e-06
-6.45531808472e-09
7.48746546278e-06
-1.0776804099e-08
7.50564625931e-06
-1.81807039446e-08
7.53883649151e-06
-3.31901396999e-08
7.60805216906e-06
-6.92156190412e-08
7.7747036543e-06
-1.66651452284e-07
8.22957068994e-06
-4.5486699034e-07
9.69704273849e-06
-1.46747211851e-06
-5.45079900745e-06
1.51478415562e-05
5.02175953609e-05
1.59362846239e-05
4.4244113103e-05
1.73623935511e-05
3.77795038268e-05
1.26632669277e-05
3.26461471101e-05
8.59413442942e-06
2.89380956999e-05
5.70118598248e-06
2.63596259679e-05
3.77852341982e-06
2.45875222125e-05
2.52537215703e-06
2.33734808318e-05
1.70101084497e-06
2.25435325161e-05
1.14996688576e-06
2.19782246453e-05
7.76803420656e-07
2.15955230273e-05
5.22145621921e-07
2.13387474682e-05
3.47933378876e-07
2.11685070305e-05
2.29004237922e-07
2.10573505554e-05
1.48294473765e-07
2.0986163791e-05
9.40273952905e-08
2.09416925448e-05
5.79932010808e-08
2.09148118213e-05
3.44464669312e-08
2.08993137612e-05
1.93671922633e-08
2.08910909811e-05
9.94283217904e-09
2.08872915921e-05
4.20698375953e-09
2.08862234334e-05
7.1926807289e-10
2.0886469973e-05
-9.31833404946e-10
2.08873422021e-05
-1.62970986413e-09
2.08884825038e-05
-1.86475135705e-09
2.08896566499e-05
-1.81760721067e-09
2.08907404775e-05
-1.62691218636e-09
2.08916789261e-05
-1.37971516767e-09
2.08924573142e-05
-1.12630037478e-09
2.08930833983e-05
-8.93558916752e-10
2.08935763872e-05
-6.941293867e-10
2.08939610642e-05
-5.32892546488e-10
2.08942633625e-05
-4.09164930604e-10
2.08944750813e-05
-2.87083687878e-10
2.08946226898e-05
-1.99778060299e-10
2.08947236583e-05
-1.3360592913e-10
2.08947895915e-05
-8.41753972045e-11
2.08948306704e-05
-4.96535678517e-11
2.08948550773e-05
-2.67440182647e-11
2.08948676628e-05
-1.0601125463e-11
2.08948713519e-05
1.46439177565e-12
2.08948685996e-05
1.01873347432e-11
2.08948610563e-05
1.66363625859e-11
2.08948498745e-05
2.15922607164e-11
2.08948357599e-05
2.56539561157e-11
2.08948190671e-05
2.93571018314e-11
2.08947999428e-05
3.30122653072e-11
2.08947783655e-05
3.69101458099e-11
2.08947542321e-05
4.12184257842e-11
2.08947273586e-05
4.61247083528e-11
2.08946974867e-05
5.18439583341e-11
2.08946644207e-05
5.83921926457e-11
2.0894628055e-05
6.57752304096e-11
2.08945884138e-05
7.3905697513e-11
2.08945458267e-05
8.25321527646e-11
2.08945011607e-05
9.11039084121e-11
2.0894456195e-05
9.86711452918e-11
2.08944143386e-05
1.03426736724e-10
2.08943815903e-05
1.02135100687e-10
2.08943674815e-05
9.06944634753e-11
2.0894387395e-05
6.1327103679e-11
2.0894468637e-05
-1.76281266237e-12
2.08946596145e-05
-1.25269397595e-10
2.08950290385e-05
-3.25037591754e-10
2.08956960623e-05
-6.63301725393e-10
2.08967667122e-05
-1.1442619325e-09
2.08984200739e-05
-1.86180082385e-09
2.0901014059e-05
-3.03198293734e-09
2.09050966504e-05
-4.90031902407e-09
2.09115371187e-05
-7.87324143693e-09
2.09217591539e-05
-1.26253167764e-08
2.09382530979e-05
-2.03166943433e-08
2.09651623922e-05
-3.33644460228e-08
2.1009426855e-05
-5.504108051e-08
2.10842162379e-05
-9.29699293049e-08
2.12154507908e-05
-1.64424621508e-07
2.14560260434e-05
-3.09790919473e-07
2.19137715422e-05
-6.24397043025e-07
2.28005445446e-05
-1.34164008408e-06
2.44440575875e-05
-3.11098546166e-06
-7.0366054809e-06
2.6029863028e-05
5.35171058712e-05
1.24191792723e-05
5.29349698145e-05
1.79445304877e-05
4.9653842449e-05
1.59443950463e-05
4.5840184531e-05
1.24077930414e-05
4.24400962142e-05
9.10127495235e-06
3.97291768974e-05
6.48944336028e-06
3.76873110489e-05
4.56723862471e-06
3.61976688693e-05
3.19065367359e-06
3.51326189347e-05
2.21501753251e-06
3.43823746585e-05
1.52704849579e-06
3.38606345435e-05
1.04388663582e-06
3.35023552627e-05
7.06213656468e-07
3.32596113998e-05
4.71749177521e-07
3.30976021839e-05
3.10304815097e-07
3.29913472129e-05
2.00283503346e-07
3.29231064186e-05
1.26235110765e-07
3.28804195037e-05
7.71344502653e-08
3.28546353357e-05
4.51523635521e-08
3.28398091422e-05
2.47699721045e-08
3.28318834654e-05
1.21335381957e-08
3.28280147852e-05
4.58878939954e-09
3.2827016903e-05
6.68761821636e-11
3.28271984446e-05
-1.81044710492e-09
3.28280476249e-05
-2.71311791647e-09
3.28291641807e-05
-2.93331561616e-09
3.28303122221e-05
-2.77407509302e-09
3.28313689977e-05
-2.4355825316e-09
3.28322801899e-05
-2.03656922816e-09
3.28330309368e-05
-1.64338454078e-09
3.2833627305e-05
-1.28959111607e-09
3.2834084214e-05
-9.88907369258e-10
3.28344198196e-05
-7.44053529837e-10
3.28346867222e-05
-5.53293474133e-10
3.28349035342e-05
-4.15863335503e-10
3.28350511254e-05
-2.80682803616e-10
3.28351507167e-05
-1.83229762054e-10
3.2835216923e-05
-1.15359637175e-10
3.28352591623e-05
-6.85394458254e-11
3.28352843669e-05
-3.53590231715e-11
3.28352965017e-05
-1.02190709632e-11
3.2835299141e-05
8.03639165855e-12
3.28352947865e-05
2.15355170733e-11
3.28352852566e-05
3.17373499814e-11
3.28352717994e-05
3.97792164884e-11
3.28352550819e-05
4.6682905169e-11
3.28352356614e-05
5.31082477402e-11
3.28352137719e-05
5.94547621028e-11
3.28351896732e-05
6.6000495277e-11
3.28351635151e-05
7.29866976547e-11
3.28351353166e-05
8.07735271067e-11
3.28351053904e-05
8.90745693788e-11
3.28350743804e-05
9.75999228309e-11
3.28350433545e-05
1.05800637819e-10
3.28350141381e-05
1.12642183268e-10
3.28349897554e-05
1.16345293646e-10
3.28349748072e-05
1.14382942032e-10
3.28349764534e-05
1.02490763342e-10
3.28350064612e-05
7.29326614883e-11
3.28350820119e-05
1.57998673679e-11
3.28352331887e-05
-8.92378646226e-11
3.28355114596e-05
-2.7954883075e-10
3.2836006455e-05
-6.20005387786e-10
3.28367289923e-05
-1.04767563062e-09
3.28377777811e-05
-1.71205616198e-09
3.28394129494e-05
-2.77899165991e-09
3.28420083254e-05
-4.45698463135e-09
3.28460682643e-05
-7.09177747578e-09
3.28524074919e-05
-1.12393961126e-08
3.28623391087e-05
-1.7804692642e-08
3.28780272809e-05
-2.83133460487e-08
3.29031316352e-05
-4.54209389392e-08
3.29430011543e-05
-7.32338413477e-08
3.30074625466e-05
-1.1950235533e-07
3.31134908426e-05
-1.98998135387e-07
3.32900861624e-05
-3.41019909313e-07
3.35854295206e-05
-6.05134312727e-07
3.40705615245e-05
-1.10952911956e-06
3.48115578031e-05
-2.08263631724e-06
3.56721542443e-05
-3.971581012e-06
-7.10446440489e-06
3.57400155085e-05
5.35105670034e-05
8.90861276032e-06
5.5574223712e-05
1.5880874635e-05
5.52424848127e-05
1.62761346798e-05
5.35977890171e-05
1.4052489512e-05
5.15418514587e-05
1.11572131452e-05
4.95802843475e-05
8.45101107646e-06
4.79243559628e-05
6.2231676095e-06
4.66181447426e-05
4.49686552362e-06
4.56304726467e-05
3.20269032054e-06
4.49051244822e-05
2.25239743753e-06
4.43840981699e-05
1.56491382252e-06
4.40167029896e-05
1.07360980603e-06
4.37619775423e-05
7.26475670647e-07
4.35882800298e-05
4.84003419768e-07
4.34718817787e-05
3.16682857563e-07
4.33953728003e-05
2.02745171938e-07
4.3346203576e-05
1.26304711853e-07
4.33154669621e-05
7.58899505919e-08
4.32969315335e-05
4.3306305444e-08
4.32863063556e-05
2.27595750733e-08
4.32807043531e-05
1.01915812465e-08
4.32778975182e-05
2.87449041958e-09
4.32770705381e-05
-9.826797992e-10
4.32772892806e-05
-2.93105470632e-09
4.32779776934e-05
-3.62089566389e-09
4.32788416446e-05
-3.63716477444e-09
4.3279715361e-05
-3.30840634206e-09
4.32805137136e-05
-2.83401333903e-09
4.32812003394e-05
-2.32910660427e-09
4.32817669948e-05
-1.85538150546e-09
4.32822205165e-05
-1.44157920709e-09
4.32825735508e-05
-1.09631149617e-09
4.328283593e-05
-8.14914873299e-10
4.32830118719e-05
-5.91244201747e-10
4.32831454144e-05
-4.13673121888e-10
4.32832312835e-05
-2.68613283655e-10
4.32832857573e-05
-1.69430479716e-10
4.32833260604e-05
-1.08438674552e-10
4.32833509861e-05
-5.98927274444e-11
4.32833636053e-05
-2.23452131477e-11
4.32833672956e-05
4.86141387976e-12
4.32833640474e-05
2.53439376056e-11
4.32833554896e-05
4.08590934258e-11
4.32833429072e-05
5.30208651207e-11
4.32833268353e-05
6.33120110503e-11
4.328330779e-05
7.27310081352e-11
4.32832860732e-05
8.17223125352e-11
4.32832620376e-05
9.06185867935e-11
4.32832360236e-05
9.9614842796e-11
4.3283208644e-05
1.08807933821e-10
4.32831806059e-05
1.17821377828e-10
4.32831528744e-05
1.2605248325e-10
4.32831269426e-05
1.32478098563e-10
4.32831049153e-05
1.35429721884e-10
4.32830897592e-05
1.32286924251e-10
4.32830861011e-05
1.1883381488e-10
4.32831018531e-05
8.73957346376e-11
4.3283149401e-05
2.62672325356e-11
4.32832478874e-05
-8.19053258905e-11
4.32834129003e-05
-2.53521332782e-10
4.32836625139e-05
-5.2814874476e-10
4.32841122086e-05
-1.06880409324e-09
4.32848933313e-05
-1.82774932423e-09
4.32861570707e-05
-2.97528367157e-09
4.32881120157e-05
-4.73360489556e-09
4.32911088287e-05
-7.45361481981e-09
4.329570755e-05
-1.16903600615e-08
4.33027871183e-05
-1.83188087173e-08
4.33137298293e-05
-2.87472163599e-08
4.33306934361e-05
-4.52767521351e-08
4.33569863985e-05
-7.17137228357e-08
4.33981770783e-05
-1.1442436323e-07
4.34631127065e-05
-1.84437851241e-07
4.35655090765e-05
-3.01394412574e-07
4.37253053012e-05
-5.00816079028e-07
4.39670708968e-05
-8.46899845779e-07
4.43074285113e-05
-1.44988678673e-06
4.47076169015e-05
-2.48282528515e-06
4.49266687793e-05
-4.19063304115e-06
-6.57497220614e-06
4.43971793203e-05
5.27351385385e-05
6.17347470669e-06
5.57309358915e-05
1.28850781347e-05
5.73114765148e-05
1.46955947895e-05
5.76109947477e-05
1.3752971952e-05
5.71335262834e-05
1.1634682242e-05
5.63194724575e-05
9.26506550513e-06
5.54489929953e-05
7.09364766851e-06
5.46629831798e-05
5.28287596423e-06
5.4013688425e-05
3.85198576055e-06
5.35061579852e-05
2.75992864501e-06
5.31242630638e-05
1.94680960628e-06
5.28449946247e-05
1.35287919997e-06
5.26454495769e-05
9.26021747208e-07
5.25057265925e-05
6.23727475829e-07
5.2409733109e-05
4.12677420719e-07
5.23450283765e-05
2.6745096033e-07
5.23022917947e-05
1.69042300451e-07
5.22747058131e-05
1.03476873838e-07
5.22573823743e-05
6.06306140262e-08
5.22468747171e-05
3.32680473092e-08
5.22407759593e-05
1.62911158576e-08
5.22374679406e-05
6.18325834182e-09
5.22359700679e-05
5.15955659999e-10
5.22354628578e-05
-2.42305209814e-09
5.22355285183e-05
-3.68573083546e-09
5.22358746682e-05
-3.98246367444e-09
5.22363295903e-05
-3.76245211486e-09
5.22367966396e-05
-3.30017267542e-09
5.22372247134e-05
-2.75628371965e-09
5.22375910683e-05
-2.2208666142e-09
5.22378889727e-05
-1.73868440298e-09
5.22381212202e-05
-1.327841016e-09
5.22382980854e-05
-9.91123991235e-10
5.22384315734e-05
-7.24004322643e-10
5.22385324475e-05
-5.13939620917e-10
5.2238617522e-05
-3.53201974075e-10
5.22386834881e-05
-2.34927053694e-10
5.22387262229e-05
-1.50593654049e-10
5.2238759506e-05
-9.26600971643e-11
5.22387754895e-05
-3.77795853373e-11
5.22387813294e-05
-4.36079593222e-13
5.22387796881e-05
2.75896762522e-11
5.2238772366e-05
4.87050357354e-11
5.22387607732e-05
6.51195965119e-11
5.22387458601e-05
7.88646512494e-11
5.22387280584e-05
9.11273962414e-11
5.22387078669e-05
1.02484682549e-10
5.223868594e-05
1.13127550812e-10
5.22386636062e-05
1.22558196782e-10
5.22386387406e-05
1.34221620813e-10
5.22386130172e-05
1.44185450911e-10
5.2238587632e-05
1.52168735543e-10
5.22385642018e-05
1.5669521528e-10
5.2238545429e-05
1.5502144774e-10
5.22385373122e-05
1.41437598889e-10
5.22385480847e-05
1.09367799041e-10
5.22385816724e-05
5.48221705882e-11
5.22386616884e-05
-5.31019104566e-11
5.22387847313e-05
-2.04451146462e-10
5.22389845305e-05
-4.52890189854e-10
5.2239325891e-05
-8.69437534953e-10
5.22398498707e-05
-1.59258782349e-09
5.22406300995e-05
-2.60768255391e-09
5.22417997933e-05
-4.14467259173e-09
5.22435626291e-05
-6.49609889722e-09
5.22462200806e-05
-1.01107858284e-08
5.22502244324e-05
-1.56944916522e-08
5.22562673047e-05
-2.43614717973e-08
5.22654079906e-05
-3.78876747913e-08
5.22792642014e-05
-5.9132728239e-08
5.23002938117e-05
-9.27431189105e-08
5.23322122206e-05
-1.46342594205e-07
5.23803618529e-05
-2.32587365105e-07
5.24516662504e-05
-3.72698777663e-07
5.25529843278e-05
-6.02134192183e-07
5.26848542502e-05
-9.78769745132e-07
5.28250429048e-05
-1.59007538945e-06
5.28920631965e-05
-2.54984622691e-06
5.26734781731e-05
-3.97204965524e-06
-5.76614554092e-06
5.18646531341e-05
5.19834870052e-05
4.18998818355e-06
5.50586654176e-05
9.80990057679e-06
5.76386154315e-05
1.21156455089e-05
5.93259060891e-05
1.20656819665e-05
6.02280187853e-05
1.07325701766e-05
6.05929305869e-05
8.90015430384e-06
6.06482881019e-05
7.03829074653e-06
6.05531942489e-05
5.37797043664e-06
6.04029603246e-05
4.00222036216e-06
6.02479205404e-05
2.91496918679e-06
6.01107958218e-05
2.08393517535e-06
5.99990372005e-05
1.46463876358e-06
5.99125230026e-05
1.012536961e-06
5.98479321336e-05
6.88319402645e-07
5.98010296012e-05
4.59581017961e-07
5.97677459649e-05
3.00735635931e-07
5.97446055797e-05
1.92183673975e-07
5.97288279456e-05
1.19255431484e-07
5.97182806486e-05
7.11787715205e-08
5.97113752568e-05
4.01742446942e-08
5.97069566735e-05
2.07104752547e-08
5.97042235304e-05
8.91717818946e-09
5.97026152554e-05
2.12502005829e-09
5.97017114924e-05
-1.51847168905e-09
5.9701253988e-05
-3.22737397899e-09
5.97010652834e-05
-3.79287468574e-09
5.97010298278e-05
-3.7260969175e-09
5.97010749549e-05
-3.34438889215e-09
5.97011569405e-05
-2.837347556e-09
5.97012501068e-05
-2.31311477085e-09
5.97013405035e-05
-1.82825734305e-09
5.97014216191e-05
-1.4080974433e-09
5.97014918665e-05
-1.06073978518e-09
5.97015519986e-05
-7.83519521561e-10
5.97016027267e-05
-5.64133159602e-10
5.97016429904e-05
-3.92964169356e-10
5.97016712132e-05
-2.62723612159e-10
5.97016870511e-05
-1.66049412898e-10
5.97016859874e-05
-9.11266631224e-11
5.97016785217e-05
-2.98481239648e-11
5.97016725738e-05
5.9839567651e-12
5.97016641697e-05
3.65822468919e-11
5.97016543775e-05
5.96590591906e-11
5.97016435623e-05
7.68844393504e-11
5.97016306513e-05
9.27081577084e-11
5.97016153449e-05
1.0727132615e-10
5.97015977909e-05
1.2082553663e-10
5.97015780903e-05
1.33580977379e-10
5.97015558655e-05
1.45498121441e-10
5.9701534569e-05
1.56298080288e-10
5.97015142626e-05
1.65219328668e-10
5.97014961647e-05
1.70943451409e-10
5.97014819005e-05
1.71563290803e-10
5.97014728374e-05
1.64632020643e-10
5.97014675073e-05
1.46959003575e-10
5.97014602318e-05
1.16289909891e-10
5.97014677051e-05
4.83287803206e-11
5.97014812936e-05
-6.55373670537e-11
5.97015715053e-05
-2.93632650798e-10
5.9701765257e-05
-6.45525500573e-10
5.97020693044e-05
-1.17236009816e-09
5.97024614729e-05
-1.98389763208e-09
5.9703046456e-05
-3.19199372292e-09
5.9703906729e-05
-5.00432096767e-09
5.97051565725e-05
-7.74536692382e-09
5.97069613139e-05
-1.19150413028e-08
5.97095593405e-05
-1.8292141961e-08
5.97132950964e-05
-2.80969278238e-08
5.9718658792e-05
-4.32511036006e-08
5.97263315739e-05
-6.68052647733e-08
5.97372151036e-05
-1.03626430793e-07
5.9752372082e-05
-1.61499394883e-07
5.97726402003e-05
-2.52855377857e-07
5.97974274577e-05
-3.97486040087e-07
5.98215769072e-05
-6.26283731623e-07
5.98282146697e-05
-9.85407519816e-07
5.97753062017e-05
-1.53716675829e-06
5.95749485332e-05
-2.34948862963e-06
5.90693627478e-05
-3.46646495659e-06
-4.79521168989e-06
5.80984294061e-05
5.14373059083e-05
2.75268275767e-06
5.42658220239e-05
6.98138532041e-06
5.72496454603e-05
9.13182280928e-06
5.97900305088e-05
9.52529759247e-06
6.17201316377e-05
8.80246967934e-06
6.30883071748e-05
7.53197936653e-06
6.40167213026e-05
6.10987720991e-06
6.46292416824e-05
4.7654506725e-06
6.50258092701e-05
3.6056534458e-06
6.52790845482e-05
2.66169465826e-06
6.54389803889e-05
1.92404017576e-06
6.55386981046e-05
1.36492198052e-06
6.55999376093e-05
9.51298463295e-07
6.56367534479e-05
6.5150461452e-07
6.56582055948e-05
4.38129928875e-07
6.56701148578e-05
2.88827405463e-07
6.56762051058e-05
1.86094408428e-07
6.5678842377e-05
1.16619078991e-07
6.56795137338e-05
7.05082747749e-08
6.56791384057e-05
4.055038488e-08
6.56782718608e-05
2.15778060501e-08
6.56772417868e-05
9.94803792284e-09
6.56762333848e-05
3.13422589662e-09
6.56753249605e-05
-6.09217280976e-10
6.56745571477e-05
-2.45871673432e-09
6.56739297109e-05
-3.16452280068e-09
6.56734317431e-05
-3.22719841016e-09
6.56730457718e-05
-2.95748598497e-09
6.56727528025e-05
-2.54345130358e-09
6.56725346717e-05
-2.09405838008e-09
6.56723751964e-05
-1.6679525377e-09
6.56722607855e-05
-1.29284977901e-09
6.56721791976e-05
-9.78431623061e-10
6.5672119889e-05
-7.23544376733e-10
6.56720770549e-05
-5.206953125e-10
6.56720464894e-05
-3.61826040557e-10
6.56720221141e-05
-2.37743477918e-10
6.56720012338e-05
-1.44601276433e-10
6.56719868519e-05
-7.62355684425e-11
6.56719856852e-05
-2.80268697202e-11
6.56719848414e-05
7.40536231849e-12
6.56719781562e-05
4.37135550652e-11
6.56719689767e-05
6.8711806555e-11
6.56719573066e-05
8.87494875421e-11
6.56719440908e-05
1.06275146787e-10
6.56719293804e-05
1.22371364626e-10
6.56719130329e-05
1.37604396707e-10
6.56718949927e-05
1.52102377976e-10
6.56718757054e-05
1.65298175841e-10
6.56718573283e-05
1.75265478689e-10
6.56718388611e-05
1.84382914035e-10
6.56718207664e-05
1.89828762595e-10
6.5671804209e-05
1.89001607573e-10
6.56717914103e-05
1.78605694254e-10
6.5671785754e-05
1.53711902064e-10
6.56717951093e-05
1.0878613423e-10
6.56718016762e-05
4.17248909559e-11
6.56718398864e-05
-1.02913930879e-10
6.56719095859e-05
-3.62313488496e-10
6.56720115038e-05
-7.46597157681e-10
6.56721660676e-05
-1.32599229613e-09
6.56723804472e-05
-2.19735279073e-09
6.56726713327e-05
-3.48216081452e-09
6.56730556743e-05
-5.3879259746e-09
6.5673544709e-05
-8.23369079406e-09
6.56741364805e-05
-1.25061672402e-08
6.56748012666e-05
-1.89563987938e-08
6.5675454178e-05
-2.87494317007e-08
6.56758952675e-05
-4.36918763565e-08
6.56756981374e-05
-6.66078828026e-08
6.56739947902e-05
-1.01922878783e-07
6.56690536221e-05
-1.56558060891e-07
6.56573439612e-05
-2.41145620003e-07
6.56317422747e-05
-3.71884371976e-07
6.55781060427e-05
-5.72647591632e-07
6.54692176895e-05
-8.76519138553e-07
6.52559378037e-05
-1.32388663711e-06
6.48582701309e-05
-1.951820788e-06
6.41638321357e-05
-2.77202716353e-06
-3.71394218978e-06
6.30825628144e-05
5.10850429009e-05
1.66764034222e-06
5.36118460213e-05
4.45458306774e-06
5.66873187277e-05
6.05635084711e-06
5.96894494508e-05
6.52316754991e-06
6.22997307166e-05
6.19218904899e-06
6.44136928922e-05
5.41801779178e-06
6.60471896283e-05
4.47638106322e-06
6.72686217872e-05
3.54401912511e-06
6.8159901492e-05
2.71437440468e-06
6.87977688455e-05
2.0238280442e-06
6.92467540839e-05
1.47505576677e-06
6.95579738914e-05
1.05370309297e-06
6.97704416424e-05
7.38831707326e-07
6.9913185862e-05
5.08761435858e-07
7.00073981842e-05
3.43918657624e-07
7.00683089905e-05
2.2791762681e-07
7.01067122616e-05
1.4769211702e-07
7.0130155779e-05
9.3176480644e-08
7.01438460771e-05
5.68188381998e-08
7.01513233086e-05
3.30739693741e-08
7.01549568833e-05
1.79450240202e-08
7.01563057428e-05
8.59997111411e-09
7.01563787089e-05
3.06206967057e-09
7.01557877191e-05
-1.73448005537e-11
7.01549279568e-05
-1.59803755675e-09
7.01540054613e-05
-2.24109432318e-09
7.01531379458e-05
-2.35873498353e-09
7.01523790567e-05
-2.19765061095e-09
7.01517459872e-05
-1.90945540647e-09
7.01512358756e-05
-1.58304551857e-09
7.01508357721e-05
-1.26699511183e-09
7.01505287281e-05
-9.85011525118e-10
7.01502970871e-05
-7.46054542471e-10
7.01501246975e-05
-5.5048554841e-10
7.01499985605e-05
-3.93957244644e-10
7.01499080444e-05
-2.70766857243e-10
7.01498460564e-05
-1.75265771323e-10
7.01498051184e-05
-1.03229749763e-10
7.01497772762e-05
-4.7928493988e-11
7.01497480805e-05
1.52943517989e-12
7.01497253509e-05
3.07487491305e-11
7.01497130411e-05
5.68505426922e-11
7.01497034029e-05
7.92655387016e-11
7.01496942993e-05
9.85931417004e-11
7.01496850744e-05
1.16172879191e-10
7.01496753539e-05
1.32738040924e-10
7.01496649952e-05
1.48588457224e-10
7.01496540322e-05
1.63667984156e-10
7.01496423764e-05
1.77561154309e-10
7.01496286032e-05
1.89641490524e-10
7.0149614594e-05
1.98986992901e-10
7.01496012165e-05
2.03795174787e-10
7.01495892773e-05
2.01577415392e-10
7.01495794025e-05
1.89253699138e-10
7.01495707533e-05
1.62982484173e-10
7.01495606509e-05
1.19374094512e-10
7.01495567955e-05
4.7299404975e-11
7.01495456427e-05
-9.10280690299e-11
7.01495602815e-05
-3.75808071923e-10
7.01495862477e-05
-7.7156243499e-10
7.01496123715e-05
-1.3513314123e-09
7.01496178125e-05
-2.20186059413e-09
7.01495757268e-05
-3.43934657787e-09
7.01494331688e-05
-5.24466312759e-09
7.01490914548e-05
-7.89126673411e-09
7.01483758048e-05
-1.17898195147e-08
7.0146984875e-05
-1.75648510036e-08
7.01444078202e-05
-2.61718826377e-08
7.01397716326e-05
-3.9055318889e-08
7.01315965592e-05
-5.84325437567e-08
7.01173944304e-05
-8.77205546034e-08
7.00930139191e-05
-1.32177392767e-07
7.005137129e-05
-1.99502898052e-07
6.99805013423e-05
-3.01014473211e-07
6.98604523506e-05
-4.52598771519e-07
6.96588033607e-05
-6.74870215707e-07
6.93256794802e-05
-9.90762577198e-07
6.87915923438e-05
-1.41773353574e-06
6.79740472379e-05
-1.95448197653e-06
-2.55498577863e-06
6.68150909505e-05
5.08804137369e-05
7.87227095422e-07
5.3170467662e-05
2.16453002379e-06
5.62177520174e-05
3.00906724789e-06
5.94382727417e-05
3.30264751602e-06
6.24449732165e-05
3.18548921603e-06
6.50382572417e-05
2.82473437004e-06
6.71548713886e-05
2.3597675021e-06
6.88135704653e-05
1.88532065201e-06
7.0073177086e-05
1.45476843558e-06
7.10056747331e-05
1.09133112083e-06
7.16812717932e-05
7.99459518105e-07
7.21614320085e-05
5.73543778911e-07
7.2496613876e-05
4.03650816938e-07
7.27264914281e-05
2.78884909662e-07
7.28812913531e-05
1.89119772706e-07
7.29834821304e-05
1.25727871922e-07
7.30494269095e-05
8.17483175638e-08
7.30908299731e-05
5.17743404223e-08
7.31159248296e-05
3.17248510292e-08
7.31304102193e-05
1.85894068184e-08
7.31381657819e-05
1.01902661634e-08
7.31417870483e-05
4.97950421577e-09
7.31429755649e-05
1.87434499547e-09
7.31428300508e-05
1.28983532525e-10
7.31420076803e-05
-7.74774476516e-10
7.31409256632e-05
-1.15814573866e-09
7.31398116977e-05
-1.24381710146e-09
7.31387851762e-05
-1.17017780598e-09
7.31378985402e-05
-1.02189369319e-09
7.31371656795e-05
-8.49309241002e-10
7.31365792331e-05
-6.79693620805e-10
7.31361217768e-05
-5.26780971689e-10
7.31357724546e-05
-3.96015173253e-10
7.31355106361e-05
-2.88015061301e-10
7.31353179782e-05
-2.00711138221e-10
7.31351788721e-05
-1.31100741593e-10
7.31350800716e-05
-7.59196023269e-11
7.31350090776e-05
-3.16999888789e-11
7.31349564548e-05
5.42796734263e-12
7.31349273111e-05
3.12912785017e-11
7.31349048924e-05
5.37372382463e-11
7.31348887203e-05
7.35485226504e-11
7.31348770882e-05
9.15230214676e-11
7.31348680801e-05
1.08234636912e-10
7.31348604437e-05
1.24427099143e-10
7.31348533118e-05
1.40471230128e-10
7.31348460745e-05
1.56411846428e-10
7.31348383078e-05
1.72005863338e-10
7.31348297709e-05
1.86683357272e-10
7.31348204413e-05
1.99569200537e-10
7.31348103712e-05
2.09643240966e-10
7.3134799613e-05
2.1511105127e-10
7.31347884369e-05
2.13441696089e-10
7.31347769628e-05
2.01359841876e-10
7.31347662346e-05
1.74808992197e-10
7.31347570492e-05
1.29419093302e-10
7.31347409221e-05
6.40213249736e-11
7.31347200061e-05
-6.90900603638e-11
7.31346805448e-05
-3.35557711383e-10
7.31346168721e-05
-7.06757016057e-10
7.3134505059e-05
-1.23871148927e-09
7.313430218e-05
-1.99814778268e-09
7.31339403245e-05
-3.07670092291e-09
7.31333046659e-05
-4.60834049817e-09
7.31322024979e-05
-6.78846159593e-09
7.31303124682e-05
-9.89913776544e-09
7.31271070727e-05
-1.4358836494e-08
7.31217318651e-05
-2.07961474267e-08
7.31127754751e-05
-3.00985195836e-08
7.30979344467e-05
-4.35912259976e-08
7.30735019186e-05
-6.3287822228e-08
7.30335834512e-05
-9.22587615835e-08
7.2968670736e-05
-1.34590061599e-07
7.28637527484e-05
-1.96096507776e-07
7.26956731668e-05
-2.84519402126e-07
7.24299474255e-05
-4.09144674163e-07
7.20182381448e-05
-5.79053251788e-07
7.13993834136e-05
-7.98878751748e-07
7.05078827894e-05
-1.06298127865e-06
-1.34628134593e-06
6.92991784656e-05
5.07871731465e-05
5.44464579973e-11
5.29516513574e-05
5.2714947889e-11
5.59606907833e-05
2.85961766645e-11
5.92633249676e-05
1.40373323856e-11
6.24488121664e-05
2.66889458658e-12
6.5273553271e-05
-6.12899867816e-12
6.76333333086e-05
-1.19506210428e-11
6.9518669374e-05
-1.48176073276e-11
7.09734536239e-05
-1.51769413069e-11
7.20647990816e-05
-1.36319069296e-11
7.2864270209e-05
-1.08192992801e-11
7.3437822263e-05
-7.39615677167e-12
7.38414780591e-05
-4.02275341732e-12
7.41203653212e-05
-1.34323650316e-12
7.4309486073e-05
5.42844084974e-14
7.44352151784e-05
-2.16298493807e-13
7.45169668891e-05
-2.4121443953e-12
7.45687484389e-05
-6.27714071187e-12
7.46004853401e-05
-1.11660618782e-11
7.46190916866e-05
-1.60923607489e-11
7.46293027031e-05
-1.99231335718e-11
7.46343045872e-05
-2.15596073653e-11
7.46362003328e-05
-2.05325867614e-11
7.46363483241e-05
-1.81401650776e-11
7.46355899947e-05
-1.55517243103e-11
7.46344451129e-05
-1.23403460786e-11
7.46332109426e-05
-8.69938952303e-12
7.46320464149e-05
-4.70287312276e-12
7.46310253224e-05
1.2057990048e-13
7.46301727229e-05
4.14248714802e-12
7.46294851318e-05
8.73178436774e-12
7.46289455258e-05
1.35983150326e-11
7.4628531515e-05
1.87165039272e-11
7.46282200084e-05
2.41592604617e-11
7.46279898024e-05
3.01202629925e-11
7.46278225649e-05
3.67407534973e-11
7.4627703125e-05
4.41027823915e-11
7.462761975e-05
5.21622699142e-11
7.46275645647e-05
6.10601125017e-11
7.46275261228e-05
7.03157493618e-11
7.46275006071e-05
7.98827231741e-11
7.46274840831e-05
9.06294246012e-11
7.46274736448e-05
1.02520887374e-10
7.46274670345e-05
1.15428533103e-10
7.46274627051e-05
1.29353454327e-10
7.46274595862e-05
1.44188383769e-10
7.46274569283e-05
1.59666604958e-10
7.46274541957e-05
1.75336375513e-10
7.46274509925e-05
1.90516839605e-10
7.46274469882e-05
2.04258019827e-10
7.46274419824e-05
2.1535546933e-10
7.46274357195e-05
2.22043682763e-10
7.46274279649e-05
2.2198977796e-10
7.46274178334e-05
2.1215137945e-10
7.46274044235e-05
1.89140241787e-10
7.462738575e-05
1.49056042297e-10
7.46273613548e-05
8.92546824966e-11
7.46273169111e-05
-2.35003667452e-11
7.46272301982e-05
-2.48148318456e-10
7.46270960877e-05
-5.71653507782e-10
7.46268750017e-05
-1.01638611984e-09
7.46265059232e-05
-1.62820908132e-09
7.46258930224e-05
-2.46288537939e-09
7.46248795246e-05
-3.59412151729e-09
7.46232106243e-05
-5.11895107834e-09
7.46204702513e-05
-7.1581718391e-09
7.46159912088e-05
-9.8792171119e-09
7.46087165764e-05
-1.35209972056e-08
7.4596911824e-05
-1.82933461584e-08
7.45777779276e-05
-2.44570148739e-08
7.45468959894e-05
-3.24056468224e-08
7.44975419255e-05
-4.29045311193e-08
7.44189875171e-05
-5.60355327961e-08
7.42948443499e-05
-7.195330868e-08
7.41007487291e-05
-9.04239378376e-08
7.38019067622e-05
-1.10302933317e-07
7.33516907942e-05
-1.28837339131e-07
7.26936751916e-05
-1.40863108438e-07
7.17698924967e-05
-1.39198542697e-07
-1.15362949225e-07
7.0538974191e-05
5.07871721125e-05
-7.87117156123e-07
5.29516505201e-05