/*--------------------------------*- C++ -*----------------------------------*\
| =========                 |                                                 |
| \\      /  F ield         | OpenFOAM: The Open Source CFD Toolbox           |
|  \\    /   O peration     | Version:  2106                                  |
|   \\  /    A nd           | Website:  www.openfoam.com                      |
|    \\/     M anipulation  |                                                 |
\*---------------------------------------------------------------------------*/
FoamFile
{
    version     2.0;
    format      ascii;
    arch        "LSB;label=32;scalar=64";
    class       volScalarField;
    location    "0.15";
    object      p;
}
// * * * * * * * * * * * * * * * * * * * * * * * * * * * * * * * * * * * * * //

dimensions      [0 2 -2 0 0 0 0];

internalField   nonuniform List<scalar> 
11200
(
151.7828252
148.8542234
147.740372417
147.213041042
146.845711257
146.550932933
146.289289352
146.04075128
145.796233434
145.551166124
145.30285217
145.049536847
144.789988122
144.52327039
144.24861677
143.965353838
143.672855778
143.37051661
143.05773752
142.733930362
142.39847141
142.050711648
141.689992732
141.315646814
140.92698832
140.523315942
140.10391347
139.668050468
139.214983017
138.743954337
138.254195369
137.7449253
137.215351695
136.664670688
136.092067647
135.496718309
134.877788717
134.234435412
133.565805795
132.87103858
132.149264105
131.399604545
130.621174101
129.813079081
128.974417848
128.104280588
127.201748859
126.265894843
125.295780246
124.29045473
123.248953784
122.170295879
121.053478748
119.897474575
118.701223831
117.463627438
116.183536841
114.859741493
113.490953087
112.075785671
110.612730636
109.100125166
107.536111895
105.918590053
104.245149736
102.512985889
100.718788146
98.8585965072
96.9276068991
94.9199046974
92.8281011126
90.642837604
88.351915555
85.9391511317
83.3824637388
80.6502046755
77.6947943429
74.4437104685
70.7434805321
65.9808744217
149.989783287
148.631609134
147.840637523
147.340623053
146.949634736
146.625752221
146.341231218
146.076629209
145.821141668
145.568620156
145.315237326
145.058479554
144.796609765
144.528351468
144.252704209
143.968833155
143.676000907
143.373524643
143.060745928
142.737002923
142.401645429
142.053997879
141.693416708
141.319233719
140.930752904
140.527267236
140.108057672
139.672391956
139.219524885
138.748698716
138.259143448
137.75007678
137.220704122
136.670225272
136.097827579
135.502686899
134.883969015
134.240830415
133.572418513
132.877872089
132.156321629
131.406889521
130.628690283
129.820830652
128.982409558
128.11251793
127.210238277
126.274643995
125.304798311
124.299752796
123.25854532
122.180197316
121.063710202
119.908060736
118.712195069
117.475021177
116.195399265
114.872129665
113.503937575
112.08945394
110.627191605
109.115515347
107.552601556
105.936387552
104.264505929
102.534214958
100.742299414
98.8849220796
96.9574436315
94.9541793832
92.8680604056
90.690130002
88.4088412988
86.0090586589
83.4703875607
80.7643212004
77.8500613898
74.669763564
71.1206119376
67.0075373964
148.994593021
148.340392563
147.788036711
147.350418828
146.978794973
146.656693296
146.367593608
146.09736001
145.836897465
145.580417073
145.324033815
145.065065956
144.801601423
144.53221322
144.25578025
143.97137388
143.678184474
143.375473443
143.0625425
142.738714794
142.403328256
142.055743361
141.695215975
141.321092566
140.932681003
140.529271681
140.110143252
139.674562371
139.221783519
138.751049151
138.261590055
137.752626044
137.22336647
136.673003943
136.100720875
135.505694911
134.887093173
134.244072623
133.575781519
132.881359513
132.159937945
131.410640135
130.632581699
129.824870682
128.986607592
128.116885268
127.214788551
126.279393683
125.309767383
124.304965523
123.264031254
122.185992471
121.069858502
119.914615792
118.719222343
117.482600621
116.203628554
114.881128259
113.513851888
112.100463603
110.639516458
109.129423648
107.56842157
105.954539736
104.285541383
102.558834095
100.771375909
98.9195681073
96.9990964847
95.0047223499
92.9299958594
90.7668538298
88.505200922
86.1321198252
83.6308870033
80.9796369857
78.1503843816
75.1114901783
71.8269440375
68.2736501123
148.444831837
148.081450456
147.681552289
147.312561627
146.974944644
146.666841866
146.381478175
146.110773888
145.848401613
145.58973435
145.331354039
145.070729107
144.805959697
144.535578514
144.258409463
143.973470014
143.679903844
143.376934763
143.063835651
142.739906596
142.404456671
142.056795741
141.696282666
141.322194097
140.933819454
140.53045102
140.111367198
139.675833413
139.223103038
138.752417549
138.263006634
137.754088382
137.224870077
136.674549917
136.102317546
135.507347909
134.888808269
134.245857151
133.577641579
132.883301554
132.161969283
131.412769105
130.634818055
129.827226034
128.989095873
128.119523308
127.217596756
126.282396852
125.312995673
124.308455534
123.267827409
122.190148772
121.074440666
119.919703863
118.724913949
117.489015115
116.210912292
114.889461024
113.523454481
112.111607253
110.652537174
109.144747455
107.586577014
105.976167687
104.311417124
102.589926225
100.80891969
98.9651455565
97.0547507901
95.0731254194
93.0147122412
90.872781284
88.6390999819
86.3036246447
83.8542629967
81.2769107583
78.5568118685
75.6842430697
72.6627849555
69.5295868754
148.11078393
147.87898841
147.577575859
147.266598528
146.961758634
146.669734778
146.390758718
146.121632196
145.858671591
145.598586748
145.338617233
145.076525607
144.810519327
144.539149299
144.261218816
143.9757109
143.681732918
143.378475664
143.065183834
142.741134835
142.4056238
142.057954417
141.6974303
141.323340975
140.93498921
140.531658677
140.112622557
139.677143859
139.224474598
138.753855668
138.264516804
137.755676746
137.226543347
136.6763133
136.104172716
135.509297948
134.890854879
134.248000655
133.579886304
132.885652408
132.164433242
131.415355564
130.637538926
129.830096013
128.992132944
128.122749331
127.221038209
126.286085751
125.316970665
124.312763829
123.272526655
122.195309214
121.080147914
119.926062311
118.732050917
117.497085663
116.220104362
114.900002377
113.535622765
112.125744213
110.669065667
109.164174964
107.609534794
106.003450788
104.344029436
102.629128998
100.856302019
99.0227265708
97.125123104
95.159657316
93.1218323069
91.0063830649
88.807200477
86.5173645216
84.1294521111
81.636450272
79.0341572486
76.3270095103
73.5363657699
70.7129270343
147.907391495
147.731489416
147.490294561
147.222968613
146.945781388
146.669142762
146.397452685
146.130950627
145.868185033
145.607175815
145.345888055
145.082454687
144.815250232
144.542883848
144.264162632
143.97804888
143.683620551
143.380038253
143.066519264
142.7423178
142.406710474
142.058985422
141.698433237
141.324344216
140.936007767
140.53270314
140.113700857
139.678261882
139.22563674
138.755065087
138.265775694
137.756986491
137.227904772
136.677727354
136.105640955
135.51082285
134.892441484
134.249656628
133.581619433
132.887474007
132.166356599
131.417394364
130.639708801
129.8324153
128.994623263
128.125436805
127.223954612
126.289269832
125.320469895
124.316635499
123.276840087
122.200148589
121.085615476
119.932282307
118.739174515
117.505297472
116.229632182
114.911127962
113.548692262
112.141180503
110.687373577
109.185978165
107.635611154
106.034756891
104.381748243
102.674735398
100.911647601
99.0901513071
97.2076067237
95.2610281664
93.2470596543
91.1619894833
89.0018514637
86.7627043363
84.4412630752
82.0361761551
79.5505127263
76.9964323244
74.4008954012
71.8110254366
147.784274774
147.628667157
147.422365347
147.18580327
146.930328185
146.667048905
146.402435997
146.138927798
145.876795071
145.615209977
145.35283848
145.088204066
144.819876955
144.546548595
144.267046813
143.98032403
143.685435322
143.381514864
143.067754647
142.743386773
142.407669427
142.059876192
141.699288239
141.325188035
140.936856685
140.533568502
140.114591149
139.679183401
139.226594267
138.756062543
138.266816605
137.758074351
137.229043315
136.678920987
136.10689528
135.512144435
134.893837404
134.251134678
133.583188596
132.889143093
132.168133203
131.419289954
130.641739337
129.834600954
128.996989206
128.128013552
127.226779046
126.292386581
125.323932933
124.320510438
123.281206584
122.205103643
121.091277269
119.938794853
118.746713262
117.514075623
116.239906821
114.923209796
113.562962294
112.158100225
110.707524211
109.210074756
107.664522708
106.069555553
104.423761533
102.725611519
100.973441338
99.1654373262
97.2996300452
95.3739053809
93.3860496883
91.3338572055
89.2153498717
87.0291967658
84.7754691912
82.456929262
80.0811338178
77.6636957835
75.2315128335
72.8239773606
147.710195167
147.5601851
147.373429604
147.157324484
146.917618833
146.664798174
146.40616183
146.145424583
145.884058995
145.622138665
145.358922729
145.093287749
144.823993206
144.549817854
144.269618176
143.982344327
143.687034818
143.382802321
143.068817297
142.744292578
142.408470201
142.060610825
141.699985517
141.325868769
140.937536633
140.53425863
140.115299616
139.679916315
139.227356377
138.7568578
138.26764856
137.758946486
137.22995929
136.679884742
136.10791094
135.513216596
134.894971514
134.252336798
133.584465555
132.890504031
132.169593738
131.420868436
130.643454828
129.836475819
128.999050398
128.130293868
127.229318396
126.295233467
125.327146246
124.324161993
123.285384097
122.209913529
121.096848684
119.94528467
118.754312221
117.523016264
116.250474078
114.935752549
113.577902127
112.175957217
110.728925191
109.235786152
107.695485771
106.106927345
104.468966568
102.780408165
101.040006874
99.2464769615
97.3985174683
95.4948640499
93.5343856217
91.5162524563
89.4402215372
87.3071086321
85.1195321697
82.88303389
80.6076633025
78.3100462224
76.0148909455
73.7542445049
147.667918863
147.518471277
147.342055953
147.138318248
146.908786324
146.663078931
146.408720148
146.150083164
145.88937796
145.627285509
145.363489903
145.097133269
144.827124071
144.552313653
144.271585275
143.983890744
143.688258028
143.383784595
143.069625106
142.744977999
142.409073114
142.061161226
141.700505668
141.326375795
140.938040683
140.53476936
140.11582371
139.680458745
139.227921143
138.757448342
138.268268054
137.759598104
137.230646419
136.68061116
136.108680988
135.514035432
134.895845362
134.25327354
133.585475428
132.891599974
132.170787334
131.422174339
130.644892796
129.838070183
129.000830579
128.132295492
127.231584668
126.297816842
125.330110444
124.327584227
123.289357857
122.214552442
121.102290908
119.951698191
118.761901259
117.532028874
116.261211055
114.94857822
113.593262373
112.194394153
110.75110245
109.26251374
107.727752157
106.145940969
104.516207127
102.837690443
101.10956064
99.3310464776
97.5014856776
95.620405872
93.6876537781
91.7035970872
89.6694351761
87.5876637578
85.4627359698
83.3019581869
81.1165975399
78.9230908235
76.7435147655
74.604089403
147.648642474
147.498764729
147.326802087
147.128867215
146.904306732
146.662188754
146.410054936
146.15254754
145.89222212
145.630062797
145.365974292
145.099240853
144.828852878
144.553702883
144.272690204
143.984768647
143.688961164
143.384357378
143.070103603
142.745390577
142.409441579
142.061502047
141.700831083
141.326694797
140.938360685
140.535095297
140.116159517
139.680807634
139.228285899
138.757831633
138.268672535
137.760026631
137.23110222
136.681098008
136.109203396
135.514598862
134.896456453
134.253940314
133.58620721
132.892406871
132.171684243
131.423178664
130.64602515
129.839355456
129.002298993
128.133983771
127.23353741
126.300088193
125.332766136
124.330704096
123.293038882
122.218912385
121.107472727
119.957875444
118.769284701
117.540874587
116.271830514
114.961350341
113.608646555
112.212951613
110.773512246
109.289601892
107.76052426
106.18562165
104.564288278
102.895990181
101.180295072
99.4169160762
97.6057792024
95.7471212094
93.8416369203
91.8906954934
89.8966457828
87.863244716
85.7962068292
83.7038895194
81.598035285
79.494425729
77.412785522
75.3750820073
147.648645098
147.498780829
147.326829133
147.128903488
146.904351463
146.662241104
146.410113984
146.152612457
145.892292208
145.63013748
145.366053107
145.099323442
144.828938975
144.553792304
144.272782835
143.984864449
143.689060138
143.384459582
143.070209145
142.745499619
142.409554345
142.061618839
141.700952296
141.32682095
140.938492437
140.535233406
140.116304906
139.680961433
139.228449501
138.758006586
138.268860851
137.760230767
137.23132515
136.681343341
136.109475503
135.514903032
134.89679907
134.2543291
133.586651655
132.892919041
132.172278151
131.423871316
130.646837301
129.840312353
129.003431301
128.135328724
127.235140214
126.302003731
125.335061036
124.333459233
123.296352417
122.22290346
121.112285952
119.963686338
118.776306276
117.549365299
116.282103884
114.973786828
113.623707195
112.231192768
110.79561555
109.31639111
107.792998069
106.224990897
104.612019054
102.953853981
101.250428373
99.5018933277
97.708695922
95.8716909433
93.9923469061
92.0728788557
90.1164451423
88.1276808813
86.113107572
84.0816380008
82.0450765241
80.0184674772
78.01974763
76.0680496137
147.667926788
147.518519954
147.342137693
147.138427813
146.908921372
146.663236753
146.408897934
146.150278449
145.889588664
145.627509913
145.363726629
145.09738125
144.827382517
144.552582021
144.271863235
143.984178157
143.68855492
143.384091145
143.06994164
142.745305001
142.409411258
142.061511403
141.700869056
141.326754098
140.938435493
140.53518304
140.116259
139.680918957
139.22841031
138.757971344
138.268830852
137.760207942
137.231312099
136.681343391
136.109492812
135.514942739
134.896867477
134.254433914
133.586802253
132.893126815
132.172556932
131.424237955
130.647312302
129.840920632
129.004203121
128.136300834
127.236357237
126.303519835
125.336941967
124.335784777
123.299219384
122.226429296
121.116613116
119.968987594
118.782791104
117.557287651
116.291771561
114.985572923
113.638063381
112.248666596
110.816866891
109.342222046
107.824373002
106.26307108
104.658202915
103.009830095
101.318250081
99.5840166957
97.8080291837
95.9916650257
94.1368639319
92.2463989513
90.3242066049
88.3755414313
86.4074042019
84.4289597689
82.4518982583
80.490649292
78.5619631755
76.6833216464
147.710208578
147.560267473
147.373567686
147.157509181
146.917846035
146.665063193
146.406459897
146.145751555
145.884411402
145.622513653
145.359318019
145.093701584
144.82442429
144.550265298
144.270081447
143.982823206
143.687529361
143.383312839
143.069344339
142.744836961
142.409033062
142.06119365
141.700590103
141.326497599
140.938192961
140.534946046
140.116022595
139.680680306
139.228168004
138.757725106
138.268581315
137.759956546
137.231061046
136.681095666
136.109252256
135.514714164
134.896656844
134.25424855
133.586651113
132.893020813
132.172509373
131.424265026
130.647433694
129.841160292
129.004590155
128.136870604
127.237152689
126.304593105
125.338356332
124.33761701
123.301562613
122.22939646
121.12034114
119.973642435
118.788573848
117.564441864
116.300592133
114.996416844
113.651363132
112.264942018
110.836745552
109.366459944
107.853887651
106.298970837
104.701817142
103.062734885
101.382271028
99.6613169192
97.9011829114
96.1036791003
94.2712575371
92.4071837874
90.5157647776
88.6026067409
86.6749342341
84.7419270052
82.8150386271
80.9082362163
79.0376824122
77.2203328849
147.784294038
147.628785367
147.422562842
147.186066495
146.930650941
146.667424318
146.402857212
146.139388948
145.877291291
145.615737298
145.353393753
145.088784872
144.820481519
144.547175701
144.267695736
143.980994471
143.686127362
143.382228922
143.068491466
142.744147446
142.40845549
142.060689728
141.700131894
141.326065204
140.937771438
140.534525905
140.115597376
139.680245915
139.227722128
138.757266785
138.268110656
137.75947455
137.230569525
136.680597224
136.108750329
135.514213117
134.896162118
134.253766876
133.586190782
132.892592001
132.172124515
131.42393927
130.647185467
129.841012
129.00456903
128.137009737
127.237492275
126.305181951
125.339253672
124.338894711
123.303307833
122.231714866
121.12336079
119.977518464
118.793494095
117.570633627
116.308330242
115.006033341
113.663259288
112.279604076
110.854757683
109.388522829
107.880837982
106.331801004
104.741710477
103.111107435
101.440822428
99.7320358127
97.9863589045
96.2059355891
94.3935645436
92.5528464299
90.6883616652
88.8058855531
86.9126496441
85.0176414216
83.1319477037
81.2691521601
79.4452897994
77.6778074998
147.907417274
147.73164716
147.490556658
147.223316138
146.946205569
146.669634222
146.39800234
146.131550854
145.86882959
145.607859662
145.346607222
145.083206147
144.816031772
144.543693957
144.26500041
143.978913946
143.684512962
143.380958435
143.067467961
142.743296067
142.407719644
142.060027422
141.699512556
141.325466681
140.937177977
140.533926846
140.114985477
139.679616482
139.227072372
138.756595341
138.267417258
137.758759836
137.229834939
136.679844989
136.107983478
135.51343555
134.895378678
134.252983521
133.585414832
132.891832465
132.171392488
131.423248385
130.646552418
129.840457145
129.004117139
128.136690905
127.237343038
126.305246648
125.339586098
124.339560097
123.304385246
122.2333001
121.125569851
119.980491753
118.797401449
117.575680448
116.314764853
115.014155512
113.673430095
112.292257668
110.870416236
109.407813228
107.904510495
106.360754114
104.777009584
103.154005128
101.492784408
99.7947698859
98.061835631
96.2963941827
94.5014998218
92.680970495
90.8395285141
88.9829635155
87.1183357433
85.2542379314
83.4011849324
81.572262311
79.7835154329
78.0536453278
148.110816907
147.879190547
147.577909039
147.26703735
146.962291067
146.67034852
146.391442309
146.122376253
145.859468566
145.599430624
145.339503322
145.077450372
144.811480225
144.540144659
144.26224773
143.976773123
143.682828741
143.379605748
143.066349013
142.742336158
142.406862815
142.059232269
141.698749074
141.324713982
140.9364204
140.533153806
140.114189828
139.678793552
139.22621929
138.755710555
138.266500222
137.757810825
137.228854969
136.678835804
136.10694759
135.512376336
134.894300513
134.25189188
133.584316411
132.890735318
132.17030626
131.422184736
130.64552558
129.839484536
129.003220067
128.135895404
127.236680846
126.304756376
125.33931465
124.339564436
123.30473451
122.234078136
121.126878256
119.982453562
118.800165559
117.579426672
116.319709278
115.020558548
113.681605441
112.302582534
110.883343006
109.423883141
107.924369107
106.385168528
104.806888059
103.190417061
101.536978439
99.8481887025
98.1261263618
96.3734087598
94.5932768099
92.7896877879
90.9674141983
89.1321507679
87.2906456486
85.4508879996
83.6224923835
81.8176067768
80.0517463463
78.3447689826
148.444872032
148.081700658
147.681959064
147.313092133
146.975582897
146.667572156
146.38228656
146.11164928
145.849335252
145.590719351
145.332385107
145.071802315
144.80707231
144.536728886
144.259596986
143.974695112
143.681167993
143.378240421
143.065185778
142.741305043
142.405912542
142.058324686
141.69785745
141.323818124
140.93550653
140.532212436
140.113214569
139.677780301
139.225165492
138.754614708
138.265361629
137.756629448
137.227631278
136.677570698
136.105642408
135.511033026
134.89292191
134.250481843
133.582879943
132.889278958
132.168838549
131.420715991
130.644068196
129.838053522
129.001833593
128.134575459
127.235454072
126.303655104
125.338378201
124.338840378
123.304280244
122.233963046
121.12718622
119.983285906
118.801644597
117.581700244
116.322957399
115.024998099
113.687497029
112.310238931
110.893138831
109.436265806
107.939870998
106.404420377
104.8306331
103.219525789
101.57246311
99.8912148863
98.1780184531
96.4356455226
94.6674711458
92.8775410346
91.0706296514
89.2522857752
87.4288694291
85.6075902951
83.7967381398
82.0066752604
80.2505971972
78.5471151101
148.994645247
148.340704986
147.7885271
147.351046347
146.979539954
146.657536746
146.368519367
146.098355524
145.837952916
145.581524758
145.325187762
145.066261612
144.8028354
144.533483106
144.257084502
143.972711861
143.679556808
143.376882878
143.063994163
142.740215223
142.404877961
142.057312104
141.696838703
141.322777568
140.934433256
140.531098776
140.112055396
139.67657233
139.223906927
138.753304738
138.264000164
137.755217011
137.226168959
136.676060129
136.104085719
135.509432555
134.891279329
134.24879973
133.581161921
132.887529365
132.167062294
131.418919783
130.642260812
129.836245908
129.000039263
128.132811014
127.233739814
126.302015727
125.336843507
124.337446686
123.303071977
122.232994175
121.126522151
119.983005791
118.801844029
117.582494103
116.324482879
115.027420752
113.691016017
112.315093145
110.899614106
109.444703295
107.950676666
106.418075494
104.847705184
103.240679375
101.598469492
99.9229590701
98.2165012039
96.4819812723
94.7228722617
92.9432834059
91.1479863448
89.3424080097
87.5325622372
85.7248302305
83.92585876
82.1431798177
80.3838733638
78.6565247177
149.98988293
148.632067067
147.841320488
147.341478222
146.950638998
146.626884794
146.342475098
146.07797132
145.822571804
145.570130268
145.316821052
145.060131804
144.79832631
144.530128523
144.254538034
143.970719662
143.677935136
143.37549994
143.062756843
142.739057203
142.403741533
142.056160374
141.69566177
141.32156236
140.933170473
140.529782495
140.110681349
139.675135267
139.222403205
138.751732263
138.262357471
137.753502973
137.224382732
136.674201162
136.102153836
135.507428412
134.889206057
134.246660093
133.57895857
132.885265708
132.164742882
131.416549926
130.639846768
129.833795299
128.997561422
128.130317357
127.231244286
126.299535373
125.334399209
124.335063734
123.300780821
122.23083159
121.124532592
119.981242988
118.80037301
117.581393963
116.323849565
115.027368749
113.69168262
112.316642914
110.902243785
109.448647268
107.956212882
106.425531804
104.857466041
103.253192731
101.614253246
99.9426048749
98.240675425
96.5114382651
94.7584409793
92.9858515878
91.1984747298
89.4017277752
87.6015073034
85.8036779611
84.0137663419
82.236525964
80.4667672377
78.6747500275
151.782991511
148.854893807
147.741366022
147.214295646
146.847196633
146.552624456
146.291168436
146.042804364
145.798450618
145.553540358
145.305378745
145.052213083
144.792813246
144.526245569
144.251745219
143.968640874
143.676308725
143.374144141
143.061544577
142.737902571
142.402612789
142.055035425
141.694501554
141.320345961
140.931886512
140.528424011
140.109244632
139.673623311
139.220817799
138.750073647
138.260625898
137.751698852
137.222506539
136.672253411
136.100135044
135.505338869
134.887045082
134.244427659
133.576655383
132.882892884
132.162301923
131.414042909
130.637276491
129.831165376
128.994876409
128.127582928
127.228467445
126.296724701
125.331565169
124.3322191
123.297941171
122.228015858
121.121763703
119.97854863
118.79778648
117.578955027
116.321605786
115.025377805
113.690013833
112.3153793
110.901484562
109.448510796
107.956840078
106.427090045
104.860153434
103.25724254
101.619938913
99.9502507345
98.2506727529
96.5242115368
94.7744723902
93.005692539
91.222761613
89.4311997887
87.6370587943
85.8468509255
84.0670202717
82.3024193454
80.5327801274
78.6333286678
58.5825210695
55.0311111482
52.6405847662
50.6849189027
49.0154214103
47.5616664742
46.2793587709
45.1384566192
44.1169720958
43.1979064183
42.3676903592
41.6152540441
40.9314223649
40.3084950092
39.7399371491
39.2201441613
38.7442610415
38.3080431628
37.9077503297
37.5400652226
37.2020309844
36.8910024895
36.6046065713
36.3407096122
36.0973899386
35.8729136317
35.6657135733
35.4743710114
35.2975991555
35.1342286478
34.9831947661
34.8435261367
34.7143347621
34.5948073028
34.4841976945
34.381820551
34.2870454417
34.1992928119
34.1180374494
34.0428395994
33.9733504229
33.9091029878
33.8496338959
33.7945726827
33.7435917742
33.6963850384
33.6526658517
33.612167718
33.5746433963
33.5398634868
33.5076150718
33.4777006259
33.4499368397
33.4241537138
33.4001934892
33.3779099043
33.3571673344
33.3378401569
33.3198119077
33.30297476
33.2872289146
33.2724822503
33.2586495223
33.2456518842
33.2334165668
33.2218769093
33.210971646
33.2006438987
33.1908409066
33.1815148342
33.1726219305
33.1641223811
33.1559879159
33.1481791418
33.1406643291
33.1334321188
33.1263958577
33.1195949643
33.1129839238
33.1065476758
33.100293047
33.0941780547
33.0881841727
33.082297289
33.076504068
33.0707929941
33.0651538193
33.0595767516
33.0540526778
33.0485734496
33.0431316815
33.0377204402
33.0323332213
33.0269640644
33.0216075221
33.0162585185
33.0109122695
33.0055642846
33.0002104024
32.9948467831
32.9894698329
32.9840761862
32.9786626023
32.9732259988
32.9677634439
32.9622721488
32.9567495565
32.951193376
32.9456016561
32.9399728966
32.9343060873
32.928600722
32.9228569444
32.9170755365
32.9112579656
32.9054064416
32.8995242336
32.8936161017
32.8876887582
32.8817514467
32.8758161429
32.8698980184
32.8640168739
32.8581971815
32.8524696843
32.8468746988
32.8414614549
32.8362909987
32.8314369011
32.8269935334
32.8230728427
32.8198157558
32.8173904031
32.8160018227
32.815896859
32.8173702978
32.8207713253
32.826505093
32.8350293662
32.8468220646
32.8622888772
32.8815218591
32.9037808063
32.9264828724
32.9435518733
32.9434764089
32.9063328534
32.8018545815
32.5838586374
32.1817993448
31.4932546405
30.3919686636
28.758740099
26.5179632686
23.6553015036
20.228745457
16.3465039198
11.9528740777
6.77040960001
1.62298729721
61.764500245
57.7116669797
55.0007428176
52.8503195972
51.0510467225
49.5042717172
48.1514636532
46.955052237
45.8885538028
44.9320927058
44.0701784975
43.2904139291
42.5826815748
41.9385974296
41.3511211467
40.8142674298
40.322890219
39.8725187985
39.4592344694
39.0795778226
38.7304766864
38.4091915765
38.1132714418
37.8405172368
37.5889519099
37.3567942579
37.1424361848
36.9444230642
36.7614366005
36.5922796993
36.4358632899
36.2911948697
36.1573683782
36.0335552292
35.9189964436
35.8129955708
35.7149125468
35.6241575446
35.540181621
35.4624601803
35.3904706962
35.3237815528
35.2620727388
35.204965394
35.1520940914
35.1031372986
35.0578001553
35.0158086999
34.9769081541
34.9408616901
34.9074492649
34.8764664537
34.847723294
34.8210433944
34.7962629043
34.7732301428
34.7518037323
34.7318537483
34.7132580776
34.6959055197
34.6796911744
34.6645198333
34.6503023467
34.6369568406
34.6244075027
34.6125851733
34.6014254326
34.5908690353
34.5808614385
34.5713538961
34.5623006839
34.5536564924
34.5453725789
34.537423136
34.5297746741
34.5224139715
34.5152678359
34.5083556007
34.5016414261
34.4951000427
34.4887113929
34.4824625234
34.4763403931
34.4703305767
34.464419526
34.4585955904
34.4528481428
34.4471670541
34.441543061
34.435967969
34.4304342226
34.4249348354
34.4194631533
34.4140132313
34.4085795783
34.4031570292
34.3977407509
34.3923261888
34.3869090735
34.3814855409
34.376051806
34.3706044871
34.3651400904
34.3596554592
34.3541474686
34.3486131507
34.3430498427
34.3374551009
34.3318268718
34.326163606
34.3204643486
34.314728542
34.3089563935
34.3031489266
34.2973082401
34.2914369911
34.2855389452
34.2796197885
34.2736873645
34.2677525504
34.261830096
34.2559372834
34.2500962948
34.244337824
34.2386957712
34.2332179707
34.2279591859
34.2229960958
34.2184069143
34.2143070864
34.210824538
34.2081244684
34.2064052319
34.2059038499
34.2069139045
34.2097828436
34.214927812
34.2228393114
34.2340720224
34.2492245844
34.268826793
34.2930747064
34.3212882645
34.3507864675
34.3750333706
34.3815957485
34.3484888709
34.2418959124
34.0097452552
33.5734820001
32.8228627766
31.6280939716
29.8739535085
27.4958171532
24.491333574
20.9221736734
16.8949576003
12.3713587067
7.08689712802
1.76601765694
63.97255727
60.0389678534
57.1729626152
54.8910905383
52.9918914916
51.3686322813
49.9559572451
48.71151835
47.6055928808
46.6160898059
45.7259746933
44.9217540788
44.1925188159
43.5293041255
42.9246374696
42.3722070701
41.8666170801
41.4032026917
40.9778929637
40.5871071195
40.227675144
39.896778023
39.591898974
39.310783993
39.0514097136
38.8119552185
38.5907778077
38.3863924001
38.1974535069
38.0227392752
37.8611376039
37.7116340917
37.573301382
37.445289744
37.3268188554
37.2171706429
37.1156832141
37.0217458935
36.934796604
36.8543235284
36.7798507315
36.7108836526
36.6470039937
36.587851591
36.533094365
36.4824051936
36.4354764328
36.392022364
36.3517779012
36.3144969618
36.2799510403
36.2479278753
36.2182303352
36.19067543
36.1650930414
36.1413258471
36.1192270419
36.0986618095
36.0795035195
36.0616366936
36.0449527528
36.0293528297
36.0147442848
36.0010418646
35.9881665072
35.9760458696
35.9646139631
35.953809347
35.9435743994
35.933855468
35.9246018854
35.9157763562
35.9073387864
35.8992538573
35.8914854154
35.8840091821
35.8767740834
35.8697749703
35.8629849738
35.8563803707
35.8499425116
35.8436524829
35.8374935811
35.8314505623
35.8255095366
35.8196581891
35.8138852602
35.8081802625
35.8025336242
35.7969367854
35.7913818148
35.785861457
35.7803688988
35.7748979899
35.7694430785
35.7639988664
35.7585604251
35.7531231786
35.7476828126
35.7422354763
35.7367773706
35.7313051448
35.7258153882
35.72030496
35.7147708555
35.709210193
35.7036204085
35.6979992162
35.6923447197
35.6866555477
35.680930967
35.6751706277
35.6693749264
35.6635451304
35.6576837415
35.6517940913
35.6458807686
35.6399504781
35.6340121307
35.6280778164
35.6221641986
35.6162910487
35.610483531
35.6047762611
35.5992080854
35.5938323194
35.588710532
35.5839278974
35.5795749484
35.5757796569
35.5726879161
35.5704855532
35.5693981039
35.5696948342
35.5717096766
35.5758402817
35.5825633515
35.5924447942
35.6061314291
35.6243215178
35.6476514761
35.6764035622
35.7099108474
35.7453505417
35.7756781948
35.7875372806
35.7567889245
35.6462233361
35.3981753185
34.9267812287
34.1150005286
32.830461271
30.962137599
28.4553006823
25.3176634729
21.6127955567
17.4445017113
12.7912050632
7.40246215955
1.90671623115
65.7771982332
62.0527233261
59.1500188614
56.7970074664
54.8297487175
53.148634013
51.6881774379
50.4041728403
49.2650837811
48.2473691549
47.3328921522
46.507335562
45.7591763333
45.0789904357
44.4589594392
43.8925084353
43.3740397679