/*--------------------------------*- C++ -*----------------------------------*\
| =========                 |                                                 |
| \\      /  F ield         | OpenFOAM: The Open Source CFD Toolbox           |
|  \\    /   O peration     | Version:  2106                                  |
|   \\  /    A nd           | Website:  www.openfoam.com                      |
|    \\/     M anipulation  |                                                 |
\*---------------------------------------------------------------------------*/
FoamFile
{
    version     2.0;
    format      ascii;
    arch        "LSB;label=32;scalar=64";
    class       surfaceScalarField;
    location    "0.15";
    object      phi;
}
// * * * * * * * * * * * * * * * * * * * * * * * * * * * * * * * * * * * * * //

dimensions      [0 3 -1 0 0 0 0];

oriented        oriented;

internalField   nonuniform List<scalar> 
22100
(
3.38461204456e-05
1.61538795555e-05
2.24572102594e-05
1.13889103763e-05
1.62585535881e-05
6.19865682739e-06
1.27977767922e-05
3.46077694933e-06
1.08046430863e-05
1.99313385829e-06
9.60459022281e-06
1.20005301549e-06
8.85132262125e-06
7.53267753513e-07
8.36435396232e-06
4.86968810582e-07
8.04433623551e-06
3.20017878101e-07
7.83284159379e-06
2.11494792551e-07
7.69339858282e-06
1.39443161286e-07
7.60224185e-06
9.11568826237e-08
7.5434792281e-06
5.87627710857e-08
7.50634248743e-06
3.71368891492e-08
7.48350317959e-06
2.28394556008e-08
7.46998260229e-06
1.35207243065e-08
7.46241829168e-06
7.56445677459e-09
7.45855065786e-06
3.86777907337e-09
7.45683213729e-06
1.71866479906e-09
7.45642620723e-06
4.06073173757e-10
7.45677688307e-06
-3.50533901505e-10
7.45746407919e-06
-6.8705539717e-10
7.45822362593e-06
-7.59407467342e-10
7.45895035618e-06
-7.26592457998e-10
7.45959631651e-06
-6.45824149654e-10
7.46014210959e-06
-5.45658540214e-10
7.46058626839e-06
-4.44025949863e-10
7.46093721682e-06
-3.50817391806e-10
7.46120782216e-06
-2.70476138996e-10
7.46141212828e-06
-2.0417876256e-10
7.46156346799e-06
-1.51214147966e-10
7.46167348898e-06
-1.09897081783e-10
7.46175181476e-06
-7.82033113088e-11
7.46180656876e-06
-5.46328366307e-11
7.4618419609e-06
-3.52721416378e-11
7.46186268763e-06
-2.06078058107e-11
7.46187331537e-06
-1.05098979405e-11
7.46187742752e-06
-3.99555683321e-12
7.46187702274e-06
5.19793904677e-13
7.46187324252e-06
3.89326413186e-12
7.46186701815e-06
6.33500728197e-12
7.46185896597e-06
8.16019266216e-12
7.46184946533e-06
9.60595507846e-12
7.46183871488e-06
1.08531790782e-11
7.46182674051e-06
1.20748315646e-11
7.46181343603e-06
1.34031114325e-11
7.4617985894e-06
1.49437853046e-11
7.46178188509e-06
1.68001446421e-11
7.46176288414e-06
1.90955013597e-11
7.46174106777e-06
2.19096217758e-11
7.46171582995e-06
2.53298283934e-11
7.46168646136e-06
2.94593788463e-11
7.46165215089e-06
3.4399907625e-11
7.46161200265e-06
4.02356692903e-11
7.46156508174e-06
4.70051385383e-11
7.46151049904e-06
5.46624135276e-11
7.46144751204e-06
6.30615842423e-11
7.461375798e-06
7.17843234024e-11
7.46129596715e-06
7.98992035693e-11
7.46121034276e-06
8.56934860324e-11
7.46112483072e-06
8.55830390936e-11
7.46105177835e-06
7.31242139996e-11
7.46099982946e-06
5.20196812272e-11
7.46098731421e-06
1.25842606565e-11
7.4610501656e-06
-6.27829497077e-11
7.46124687592e-06
-1.96642055333e-10
7.46167252864e-06
-4.25587113383e-10
7.46247829523e-06
-8.05705966205e-10
7.46390137168e-06
-1.42301777917e-09
7.46630016176e-06
-2.39872480224e-09
7.47012715372e-06
-3.82691696323e-09
7.47660906625e-06
-6.48183961183e-09
7.48744297467e-06
-1.08338536319e-08
7.50573186552e-06
-1.82888523228e-08
7.53912071396e-06
-3.33888072594e-08
7.6087322581e-06
-6.96114900979e-08
7.7763152552e-06
-1.67582937798e-07
8.23379158705e-06
-4.57476295704e-07
9.71047872699e-06
-1.47668724741e-06
-5.49334198147e-06
1.52038207236e-05
5.02175950428e-05
1.59362847009e-05
4.42441121666e-05
1.73623935689e-05
3.77795023434e-05
1.26632669297e-05
3.26461451265e-05
8.59413444252e-06
2.89380932436e-05
5.70118601665e-06
2.63596230576e-05
3.77852347641e-06
2.45875188519e-05
2.52537223369e-06
2.33734769992e-05
1.70101093699e-06
2.25435281645e-05
1.14996698567e-06
2.19782197112e-05
7.76803517877e-07
2.15955174425e-05
5.22145700911e-07
2.13387411782e-05
3.47933416789e-07
2.11685000161e-05
2.29004201743e-07
2.1057342854e-05
1.48294318592e-07
2.09861555108e-05
9.40270645451e-08
2.09416838706e-05
5.79926287877e-08
2.09148030096e-05
3.44455802483e-08
2.08993051332e-05
1.93659160445e-08
2.08910829573e-05
9.94109919034e-09
2.08872845621e-05
4.20472460889e-09
2.08862185553e-05
7.15726787619e-10
2.08864667289e-05
-9.34977619258e-10
2.08873414762e-05
-1.63390605315e-09
2.08884848365e-05
-1.86970691671e-09
2.08896625285e-05
-1.82327331371e-09
2.08907503524e-05
-1.63324266299e-09
2.08916931818e-05
-1.38661885488e-09
2.08924762395e-05
-1.13364192827e-09
2.08931071414e-05
-9.01148257633e-10
2.0893604877e-05
-7.01687887077e-10
2.08939938288e-05
-5.39942493431e-10
2.08943019353e-05
-4.17782885546e-10
2.08945188481e-05
-2.94897816691e-10
2.08946715041e-05
-2.07072734232e-10
2.08947770354e-05
-1.40589417424e-10
2.08948471713e-05
-9.05317375853e-11
2.08948915737e-05
-5.4702743321e-11
2.08949187126e-05
-3.09279122841e-11
2.08949335386e-05
-1.41031152184e-11
2.08949389853e-05
-1.35449830569e-12
2.08949374619e-05
8.05282877934e-12
2.08949306635e-05
1.51484068233e-11
2.0894919757e-05
2.06978923791e-11
2.08949055127e-05
2.52789628685e-11
2.08948883477e-05
2.9418221286e-11
2.08948684332e-05
3.3493374061e-11
2.08948457769e-05
3.77733031674e-11
2.08948202688e-05
4.24792127259e-11
2.08947916771e-05
4.78558546423e-11
2.08947597578e-05
5.39951849972e-11
2.08947242797e-05
6.09717339349e-11
2.0894685064e-05
6.88358544575e-11
2.08946420693e-05
7.7551412605e-11
2.08945955198e-05
8.69359280153e-11
2.08945461295e-05
9.65385971969e-11
2.08944954966e-05
1.05430150306e-10
2.08944466746e-05
1.12011661121e-10
2.08944051552e-05
1.1342851472e-10
2.08943802187e-05
1.04961196622e-10
2.08943868578e-05
7.91823681114e-11
2.08944510188e-05
2.15512440633e-11
2.08946217632e-05
-9.74923693453e-11
2.08949674842e-05
-2.93576029545e-10
2.08956058478e-05
-6.25655687509e-10
2.08966526853e-05
-1.10949792067e-09
2.08982776402e-05
-1.82147789581e-09
2.09008414572e-05
-2.98929111923e-09
2.09048961758e-05
-4.86031380959e-09
2.09113179131e-05
-7.84463689295e-09
2.09215424763e-05
-1.26231600552e-08
2.09380822119e-05
-2.03665313246e-08
2.09651110122e-05
-3.35105439171e-08
2.10096324167e-05
-5.53551795674e-08
2.10849302636e-05
-9.35866122199e-08
2.12171491585e-05
-1.65607610021e-07
2.14596573849e-05
-3.12119639759e-07
2.19213602306e-05
-6.29285683966e-07
2.28166469073e-05
-1.35276267982e-06
2.44783605103e-05
-3.13840033864e-06
-7.10901554763e-06
2.60940313236e-05
5.35171055086e-05
1.24191793498e-05
5.29349688102e-05
1.79445305444e-05
4.96538408661e-05
1.59443951187e-05
4.58401824055e-05
1.24077931458e-05
4.24400935718e-05
9.10127509242e-06
3.97291737599e-05
6.48944352982e-06
3.76873074229e-05
4.56723881186e-06
3.6197664736e-05
3.19065386442e-06
3.51326142505e-05
2.21501771093e-06
3.43823693656e-05
1.52704864188e-06
3.3860628583e-05
1.04388672174e-06
3.35023485957e-05
7.0621364135e-07
3.32596040316e-05
4.71749002019e-07
3.30975941875e-05
3.10304397907e-07
3.29913387454e-05
2.00282740529e-07
3.29230977292e-05
1.26233877642e-07
3.28804109346e-05
7.71326059727e-08
3.28546273222e-05
4.51497578367e-08
3.2839802199e-05
2.47664499325e-08
3.28318782169e-05
1.21289323925e-08
3.28280113891e-05
4.58277815308e-09
3.28270169531e-05
5.96797403874e-11
3.28272017937e-05
-1.81852776468e-09
3.28280552008e-05
-2.7228975147e-09
3.28291766404e-05
-2.94449913099e-09
3.28303301663e-05
-2.78655754595e-09
3.28313929763e-05
-2.44922065984e-09
3.28323106953e-05
-2.05115564878e-09
3.28330684056e-05
-1.65865617541e-09
3.28336721587e-05
-1.30524144859e-09
3.28341369863e-05
-1.00457312659e-09
3.28344786485e-05
-7.59250348384e-10
3.2834751326e-05
-5.67382657849e-10
3.28349724796e-05
-4.28035675495e-10
3.28351275402e-05
-2.95461104336e-10
3.28352327731e-05
-1.95577681317e-10
3.28353037772e-05
-1.25522038555e-10
3.28353499547e-05
-7.69232427556e-11
3.2835378336e-05
-4.23051638718e-11
3.28353930267e-05
-1.58696861147e-11
3.28353975407e-05
3.7103754905e-12
3.28353943847e-05
1.84718030334e-11
3.28353854082e-05
2.98380708152e-11
3.28353719259e-05
3.89214594712e-11
3.28353547599e-05
4.67416671169e-11
3.28353344324e-05
5.397581314e-11
3.28353112872e-05
6.10711117988e-11
3.28352855226e-05
6.83942026172e-11
3.28352571152e-05
7.64115345958e-11
3.28352261763e-05
8.50801630613e-11
3.28351930125e-05
9.42793494414e-11
3.28351581547e-05
1.03834789325e-10
3.28351225184e-05
1.13325294997e-10
3.28350876856e-05
1.2190104045e-10
3.28350563779e-05
1.27971962245e-10
3.28350331251e-05
1.28801660844e-10
3.28350248367e-05
1.20413566702e-10
3.28350421207e-05
9.62560748181e-11
3.2835101951e-05
4.52435013049e-11
3.28352331265e-05
-5.18787861931e-11
3.28354863274e-05
-2.31535658083e-10
3.28359486529e-05
-5.59706357978e-10
3.28366474724e-05
-9.92286447001e-10
3.28376650049e-05
-1.64307954235e-09
3.28392549144e-05
-2.69929978961e-09
3.28418029255e-05
-4.36938603052e-09
3.28458150325e-05
-7.00130089845e-09
3.28521107553e-05
-1.11559380143e-08
3.2862012961e-05
-1.77467330674e-08
3.28777038133e-05
-2.83138960958e-08
3.29028745535e-05
-4.5537169619e-08
3.29429284638e-05
-7.35643804191e-08
3.30077936504e-05
-1.20220308244e-07
3.31146260998e-05
-2.00419004322e-07
3.3292760752e-05
-3.43742215151e-07
3.35909974357e-05
-6.1035633081e-07
3.40814890383e-05
-1.11977741365e-06
3.48321165119e-05
-2.10339002905e-06
3.57084711854e-05
-4.01475297163e-06
-7.19535122792e-06
3.57948132313e-05
5.35105666303e-05
8.9086128681e-06
5.55742226996e-05
1.58808747439e-05
5.52424832281e-05
1.62761348286e-05
5.35977868991e-05
1.40524897112e-05
5.15418488358e-05
1.11572133914e-05
4.95802812462e-05
8.45101135462e-06
4.79243523942e-05
6.22316789869e-06
4.66181406908e-05
4.49686580194e-06
4.56304680702e-05
3.20269056501e-06
4.49051193242e-05
2.25239762056e-06
4.43840923724e-05
1.56491390531e-06
4.40166965142e-05
1.07360973039e-06
4.37619703948e-05
7.26475351082e-07
4.35882722829e-05
4.84002738415e-07
4.34718735876e-05
3.16681663176e-07
4.33953644092e-05
2.02743282054e-07
4.33461953199e-05
1.26301919807e-07
4.33154592637e-05
7.58860370491e-08
4.32969248879e-05
4.33010471465e-08
4.32863012956e-05
2.27527440977e-08
4.32807013174e-05
1.01829738557e-08
4.32778967805e-05
2.86443199329e-09
4.32770741188e-05
-9.95652891183e-10
4.32772969236e-05
-2.9454916202e-09
4.32779900126e-05
-3.63737992828e-09
4.32788592109e-05
-3.65555034702e-09
4.32797386706e-05
-3.32847756801e-09
4.32805431734e-05
-2.85545862871e-09
4.32812362371e-05
-2.35152292172e-09
4.32818094888e-05
-1.87829900033e-09
4.32822696457e-05
-1.46453838528e-09
4.32826295344e-05
-1.11894971831e-09
4.32828991076e-05
-8.36768623721e-10
4.3283083336e-05
-6.12078567306e-10
4.32832217449e-05
-4.33686310328e-10
4.32833157219e-05
-2.89372647335e-10
4.32833727128e-05
-1.82333099354e-10
4.32834164562e-05
-1.20489251236e-10
4.32834445768e-05
-7.02514341375e-11
4.32834594695e-05
-3.05916278426e-11
4.32834647936e-05
-1.44679063276e-12
4.32834625662e-05
2.0862016374e-11
4.32834544194e-05
3.8143972837e-11
4.32834416407e-05
5.18561511084e-11
4.32834249383e-05
6.35973883796e-11
4.32834047652e-05
7.42998030307e-11
4.32833814595e-05
8.45252962395e-11
4.32833553129e-05
9.46869940314e-11
4.32833267737e-05
1.05094496551e-10
4.32832963246e-05
1.15670702289e-10
4.32832645518e-05
1.26191391603e-10
4.32832323868e-05
1.36136526541e-10
4.32832012439e-05
1.44601828429e-10
4.32831731841e-05
1.5008973187e-10
4.32831511234e-05
1.50155514288e-10
4.32831391995e-05
1.40842217039e-10
4.32831441592e-05
1.15566246594e-10
4.32831775613e-05
6.29649148712e-11
4.32832574387e-05
-3.45222329194e-11
4.32834052598e-05
-1.99587822632e-10
4.32836219784e-05
-4.48144129437e-10
4.3284038031e-05
-9.75651731844e-10
4.32847717696e-05
-1.72591899727e-09
4.32859880475e-05
-2.85925072737e-09
4.32878914764e-05
-4.60262319753e-09
4.32908311813e-05
-7.30899085794e-09
4.32953689672e-05
-1.15389916187e-08
4.33023886217e-05
-1.8175492967e-08
4.33132822584e-05
-2.86402586879e-08
4.33302261973e-05
-4.52577208076e-08
4.33565629902e-05
-7.18738619355e-08
4.33979195795e-05
-1.14920884606e-07
4.34632472358e-05
-1.85547884619e-07
4.35664436826e-05
-3.03615365912e-07
4.37277589131e-05
-5.05057316212e-07
4.39722679492e-05
-8.54865211369e-07
4.43173276923e-05
-1.46483729901e-06
4.47249647469e-05
-2.51102787694e-06
4.49540874791e-05
-4.24387662067e-06
-6.67431447364e-06
4.44330540665e-05
5.27351381645e-05
6.17347485022e-06
5.57309348865e-05
1.28850782895e-05
5.73114749562e-05
1.46955949964e-05
5.76109926836e-05
1.37529722195e-05
5.71335237489e-05
1.16346825608e-05
5.63194694851e-05
9.26506585285e-06
5.54489896007e-05
7.09364801709e-06
5.46629793498e-05
5.28287628622e-06
5.40136841185e-05
3.85198602903e-06
5.35061531426e-05
2.75992882838e-06
5.31242576197e-05
1.94680965933e-06
5.28449885267e-05
1.35287905358e-06
5.26454428082e-05
9.26021298776e-07
5.25057191917e-05
6.23726582914e-07
5.24097251822e-05
4.12675899515e-07
5.23450201008e-05
2.67448588884e-07
5.23022834178e-05
1.69038826725e-07
5.22746976483e-05
1.03472029015e-07
5.22573747895e-05
6.06241265111e-08
5.22468681042e-05
3.32596483199e-08
5.22407707161e-05
1.62805787169e-08
5.22374649078e-05
6.1704549842e-09
5.22359690361e-05
5.00431236684e-10
5.22354648223e-05
-2.44106782482e-09
5.22355338148e-05
-3.70616497021e-09
5.22358836867e-05
-4.00521733814e-09
5.22363427127e-05
-3.78730158625e-09
5.22368142249e-05
-3.32677164118e-09
5.22372470903e-05
-2.78419212659e-09
5.22376185232e-05
-2.24953847828e-09
5.22379217579e-05
-1.7675821802e-09
5.22381593379e-05
-1.3563410668e-09
5.22383413037e-05
-1.01854781248e-09
5.22384792805e-05
-7.49870459499e-10
5.22385838636e-05
-5.38086203211e-10
5.22386694309e-05
-3.74758576077e-10
5.22387404246e-05
-2.53147524122e-10
5.22387855439e-05
-1.65431753303e-10
5.22388203114e-05
-1.04845130247e-10
5.22388390931e-05
-4.92031356788e-11
5.22388464803e-05
-8.66777159302e-12
5.22388456132e-05
2.18915222139e-11
5.22388385432e-05
4.53728858335e-11
5.2238826647e-05
6.39082672295e-11
5.22388108787e-05
7.95187830104e-11
5.22387919123e-05
9.34169581235e-11
5.22387704042e-05
1.06181458682e-10
5.22387475724e-05
1.17664172315e-10
5.22387217659e-05
1.31043697545e-10
5.22386935371e-05
1.44039630554e-10
5.22386640005e-05
1.55865923439e-10
5.22386341412e-05
1.66131375559e-10
5.22386053916e-05
1.73484008048e-10
5.22385799494e-05
1.75660196666e-10
5.22385616261e-05
1.68601653432e-10
5.22385593206e-05
1.43265111043e-10
5.22385831253e-05
9.18752965661e-11
5.22386433928e-05
2.81034040751e-12
5.22387535883e-05
-1.44604661174e-10
5.22389250696e-05
-3.70957176915e-10
5.22392392744e-05
-7.62240100874e-10
5.22397296667e-05
-1.46593830158e-09
5.22404676158e-05
-2.46376279716e-09
5.22415861811e-05
-3.97770934964e-09
5.22432884408e-05
-6.30477796012e-09
5.224587649e-05
-9.8969412223e-09
5.22498035287e-05
-1.54659346049e-08
5.22557634991e-05
-2.41353616322e-08
5.22648216909e-05
-3.7698341662e-08
5.22786086876e-05
-5.90446157181e-08
5.22996072955e-05
-9.2872385879e-08
5.23315743008e-05
-1.46887817439e-07
5.23799251843e-05
-2.33898706549e-07
5.245170595e-05
-3.75396079205e-07
5.25539655624e-05
-6.07316841131e-07
5.26875004405e-05
-9.88399937283e-07
5.2830325628e-05
-1.60766212392e-06
5.29008855767e-05
-2.58158795307e-06
5.26855209076e-05
-4.02851315581e-06
-5.86418989877e-06
5.18753980081e-05
5.19834866325e-05
4.18998836421e-06
5.50586644197e-05
9.8099007697e-06
5.76386138985e-05
1.2115645755e-05
5.93259040806e-05
1.2065682273e-05
6.02280163459e-05
1.07325705303e-05
6.05929277559e-05
8.90015467716e-06
6.06482848999e-05
7.03829110712e-06
6.05531906647e-05
5.37797075471e-06
6.04029563161e-05
4.00222061039e-06
6.0247916042e-05
2.91496933448e-06
6.01107907546e-05
2.08393517792e-06
5.99990314871e-05
1.46463855129e-06
5.99125165862e-05
1.01253642889e-06
5.98479249936e-05
6.88318403501e-07
5.980102176e-05
4.59579359938e-07
5.97677374877e-05
3.00733086646e-07
5.9744596571e-05
1.92179967483e-07
5.97288185415e-05
1.19250280865e-07
5.97182710052e-05
7.11718835781e-08
5.97113655414e-05
4.01653308953e-08
5.97069470667e-05
2.06992702084e-08
5.97042142664e-05
8.90346989853e-09
5.97026063429e-05
2.10856703161e-09
5.97017032479e-05
-1.53776281943e-09
5.97012465215e-05
-3.24923114542e-09
5.97010587107e-05
-3.8172019304e-09
5.97010242985e-05
-3.75268756353e-09
5.97010705979e-05
-3.37287214046e-09
5.97011538416e-05
-2.86723983676e-09
5.97012483265e-05
-2.34383009227e-09
5.97013400992e-05
-1.85916411519e-09
5.97014224704e-05
-1.43852382998e-09
5.97014938259e-05
-1.08971675319e-09
5.97015548827e-05
-8.10742491577e-10
5.97016064517e-05
-5.89472086614e-10
5.97016479456e-05
-4.16071183536e-10
5.97016776979e-05
-2.82720510442e-10
5.97016956953e-05
-1.83252394529e-10
5.97016979565e-05
-1.06932648977e-10
5.97016888536e-05
-3.99300703847e-11
5.9701682345e-05
-1.99272376579e-12
5.97016734791e-05
3.09199462205e-11
5.9701662443e-05
5.65682134058e-11
5.97016505825e-05
7.59249527811e-11
5.97016363664e-05
9.38883845746e-11
5.97016194448e-05
1.10489421812e-10
5.97015996752e-05
1.26099143781e-10
5.97015764967e-05
1.4098748381e-10
5.97015524557e-05
1.55226471618e-10
5.97015281239e-05
1.6851025942e-10
5.97015039155e-05
1.802108683e-10
5.97014810747e-05
1.89106653301e-10
5.97014613398e-05
1.93350707878e-10
5.97014467553e-05
1.90372782126e-10
5.97014385494e-05
1.76930704883e-10
5.9701432128e-05
1.49805058273e-10
5.97014257215e-05
9.8397703976e-11
5.97014346062e-05
-5.95916738407e-12
5.9701479324e-05
-1.89207887014e-10
5.9701644532e-05
-5.36053276646e-10
5.97019223558e-05
-1.03995642504e-09
5.97022820408e-05
-1.82551853258e-09
5.97028240836e-05
-3.00569999686e-09
5.9703632047e-05
-4.78556551952e-09
5.97048184513e-05
-7.49107782864e-09
5.97065469566e-05
-1.16253480905e-08
5.97090544849e-05
-1.79733645724e-08
5.97126835304e-05
-2.77642999991e-08
5.97179234269e-05
-4.29381265304e-08
5.97254573438e-05
-6.65784337696e-08
5.97361950143e-05
-1.03609978365e-07
5.97512076008e-05
-1.61900344013e-07
5.97713506677e-05
-2.54041737049e-07
5.97960598366e-05
-4.00105214086e-07
5.9820202504e-05
-6.31459447256e-07
5.98268798526e-05
-9.95077260123e-07
5.97738518964e-05
-1.55463397596e-06
5.95725181804e-05
-2.38025397988e-06
5.90632940768e-05
-3.51928993173e-06
-4.88304768341e-06
5.80821526288e-05
5.14373055361e-05
2.75268297458e-06
5.42658210281e-05
6.98138554494e-06
5.72496439425e-05
9.131823078e-06
5.97900285402e-05
9.52529791079e-06
6.17201292736e-05
8.80247003178e-06
6.30883044624e-05
7.53197972261e-06
6.40167182675e-05
6.10987753599e-06
6.46292383155e-05
4.76545093999e-06
6.50258055276e-05
3.60565363098e-06
6.5279080357e-05
2.661694737e-06
6.54389756534e-05
1.92404011265e-06
6.55386927172e-05
1.36492171765e-06
6.55999314646e-05
9.51297910648e-07
6.5636746453e-05
6.51503643216e-07
6.56581976718e-05
4.38128368038e-07
6.56701059379e-05
2.8882504604e-07
6.56761951219e-05
1.8609100753e-07
6.56788312537e-05
1.16614371392e-07
6.56795013725e-05
7.05019854557e-08
6.56791246784e-05
4.05422438424e-08
6.56782565996e-05
2.15675657456e-08
6.56772247872e-05
9.9354969596e-09
6.56762144229e-05
3.11914375613e-09
6.56753041615e-05
-6.27291370524e-10
6.567453396e-05
-2.47882217002e-09
6.5673903929e-05
-3.18696615971e-09
6.56734032292e-05
-3.25178573633e-09
6.56730144105e-05
-2.98385411189e-09
6.56727185102e-05
-2.57114305637e-09
6.56724973999e-05
-2.12252611681e-09
6.56723350028e-05
-1.696576018e-09
6.56722176936e-05
-1.32102591574e-09
6.56721336291e-05
-1.00546563236e-09
6.56720721114e-05
-7.49039937498e-10
6.56720271788e-05
-5.44356159944e-10
6.56719946755e-05
-3.83386457846e-10
6.56719691516e-05
-2.57017203914e-10
6.56719466505e-05
-1.60574503119e-10
6.56719285387e-05
-8.86469974713e-11
6.56719255154e-05
-3.67366025369e-11
6.56719236805e-05
8.58888793467e-15
6.56719163201e-05
3.84430585278e-11
6.56719062955e-05
6.67522587664e-11
6.56718931826e-05
8.91944284503e-11
6.56718783086e-05
1.08916214774e-10
6.56718617698e-05
1.27179250277e-10
6.5671843396e-05
1.44620758545e-10
6.5671823093e-05
1.61434756699e-10
6.5671801946e-05
1.76514285077e-10
6.56717810768e-05
1.89517317076e-10
6.56717594035e-05
2.02019677082e-10
6.56717375256e-05
2.11118401351e-10
6.56717164446e-05
2.14563462517e-10
6.56716977155e-05
2.092302415e-10
6.56716841147e-05
1.90655702244e-10
6.56716814516e-05
1.52588340515e-10
6.56716907821e-05
8.91851757854e-11
6.56716999599e-05
-1.50199675753e-11
6.56717626199e-05
-2.51752921305e-10
6.56718412323e-05
-6.14554739532e-10
6.56719680467e-05
-1.16666495661e-09
6.56721492423e-05
-2.00661014453e-09
6.56723987389e-05
-3.25508998242e-09
6.5672731484e-05
-5.11820189041e-09
6.56731560265e-05
-7.91551618638e-09
6.56736670326e-05
-1.21362568926e-08
6.56742308264e-05
-1.85370599965e-08
6.56747550017e-05
-2.82883667051e-08
6.56750298495e-05
-4.32128593018e-08
6.56746173628e-05
-6.61658360968e-08
6.5672638792e-05
-1.0163130247e-07
6.56673289929e-05
-1.56590451199e-07
6.56551103613e-05
-2.41823025065e-07
6.56287826659e-05
-3.73777436595e-07
6.557405915e-05
-5.76735940486e-07
6.54634376516e-05
-8.84455738376e-07
6.52472075329e-05
-1.33840382615e-06
6.4844246989e-05
-1.97729310694e-06
6.41400720961e-05
-2.81511554601e-06
-3.78402183726e-06
6.30410465741e-05
5.1085042528e-05
1.66764059294e-06
5.36118450215e-05
4.45458331859e-06
5.66873172119e-05
6.056351125e-06
5.96894475007e-05
6.52316785754e-06
6.22997283976e-05
6.19218936976e-06
6.44136902599e-05
5.41801809465e-06
6.60471867138e-05
4.476381316e-06
6.72686185837e-05
3.54401930351e-06
6.81598979549e-05
2.71437449263e-06
6.87977648945e-05
2.02382802948e-06
6.9246749607e-05
1.47505563138e-06
6.95579687519e-05
1.05370280295e-06
6.97704356874e-05
7.38831204365e-07
6.99131789277e-05
5.08760630999e-07
7.00073900944e-05
3.43917428189e-07
7.00682995456e-05
2.2791582028e-07
7.01067012278e-05
1.47689549353e-07
7.01301428745e-05
9.31729469878e-08
7.01438309573e-05
5.68141231921e-08
7.01513055602e-05
3.3067859725e-08
7.01549360195e-05
1.79373231594e-08
7.01562811968e-05
8.59053438529e-09
7.01563495326e-05
3.0510203799e-09
7.01557547931e-05
-3.23418523922e-11
7.01548892306e-05
-1.61305229989e-09
7.01539607752e-05
-2.25830605829e-09
7.01530868518e-05
-2.37766050463e-09
7.01523211959e-05
-2.2179995382e-09
7.01516811132e-05
-1.93086438751e-09
7.01511638629e-05
-1.6050825986e-09
7.01507566453e-05
-1.2891676322e-09
7.01504426524e-05
-1.00684448801e-09
7.01502044215e-05
-7.67048101936e-10
7.01500258187e-05
-5.70252362573e-10
7.0149893838e-05
-4.12192391951e-10
7.01497978106e-05
-2.8717755446e-10
7.01497304247e-05
-1.89451866214e-10
7.01496848295e-05
-1.14802569416e-10
7.01496539447e-05
-5.75884296449e-11
7.01496228766e-05
-5.49839164409e-12
7.01495965339e-05
2.65177546093e-11
7.01495808678e-05
5.42719341017e-11
7.01495689513e-05
7.88283995876e-11
7.01495579673e-05
1.00335275756e-10
7.01495469993e-05
1.20038257688e-10
7.01495355874e-05
1.38742180316e-10
7.01495235396e-05
1.5681597541e-10
7.01495108417e-05
1.74276216741e-10
7.01494966369e-05
1.90858832601e-10
7.01494802452e-05
2.06045609082e-10
7.01494634138e-05
2.18985652412e-10
7.01494467035e-05
2.27962103872e-10
7.01494308047e-05
2.30594054152e-10
7.01494164213e-05
2.23742776683e-10
7.01494036927e-05
2.03509724654e-10
7.01493909318e-05
1.65471212686e-10
7.01493741217e-05
1.06115296318e-10
7.01493662122e-05
-6.99199826745e-12
7.01493548891e-05
-2.40314608886e-10
7.01493608136e-05
-6.2036976645e-10
7.01493647565e-05
-1.17050386203e-09
7.01493425022e-05
-1.9842521367e-09
7.01492648527e-05
-3.17733270222e-09
7.01490763425e-05
-4.92958181944e-09
7.01486744983e-05
-7.51356739818e-09
7.01478796246e-05
-1.13412868483e-08
7.0146384853e-05
-1.70421934966e-08
7.01436657827e-05
-2.55691969731e-08
7.0138830275e-05
-3.8377250273e-08
7.01303736521e-05
-5.77091112285e-08
7.01157845602e-05
-8.70421102406e-08
7.00908329298e-05
-1.31638744223e-07
7.00483274436e-05
-1.99317473152e-07
6.99761336274e-05
-3.01583493104e-07
6.98540126267e-05
-4.54614892791e-07
6.96490527179e-05
-6.79495787672e-07
6.93105415955e-05
-9.99892727129e-07
6.87675886794e-05
-1.43433993859e-06
6.79354499378e-05
-1.98297704582e-06
-2.60141952595e-06
6.67528477653e-05
5.08804133627e-05
7.8722737646e-07
5.31704666528e-05
2.16453029575e-06
5.62177504912e-05
3.00906752397e-06
5.94382707887e-05
3.30264779562e-06
6.24449709102e-05
3.185489483e-06
6.50382546465e-05
2.82473459265e-06
6.71548685411e-05
2.3597676554e-06
6.88135673616e-05
1.88532071639e-06
7.00731736818e-05
1.45476840526e-06
7.10056709434e-05
1.09133099984e-06
7.16812674937e-05
7.99459312307e-07
7.21614270392e-05
5.7354348768e-07
7.24966080462e-05
4.03650426536e-07
7.27264845177e-05
2.78884387459e-07
7.28812831105e-05
1.89119062277e-07
7.29834722494e-05
1.25726906836e-07
7.30494150248e-05
8.17469978762e-08
7.30908156415e-05
5.1772552683e-08
7.3115907515e-05
3.17224703298e-08
7.31303892912e-05
1.8586302306e-08
7.31381405235e-05
1.01863077025e-08
7.31417567047e-05
4.97456797189e-09
7.31429397171e-05
1.86822058427e-09
7.31427861857e-05
1.21399645023e-10
7.31419565365e-05
-7.83195605922e-10
7.31408659835e-05
-1.16754819788e-09
7.31397427508e-05
-1.25422567845e-09
7.31387063866e-05
-1.18143603575e-09
7.31378095e-05
-1.03378129692e-09
7.31370661788e-05
-8.6156773576e-10
7.31364692418e-05
-6.92039394375e-10
7.31360014942e-05
-5.38908071801e-10
7.31356422531e-05
-4.07620126378e-10
7.31353710258e-05
-2.98840113828e-10
7.31351695651e-05
-2.10548267688e-10
7.3135022348e-05
-1.39778940367e-10
7.31349163984e-05
-8.33228093613e-11
7.31348397427e-05
-3.7970052551e-11
7.31347804588e-05
1.86918488235e-12
7.31347465147e-05
2.86157705524e-11
7.31347205145e-05
5.26843007239e-11
7.31347009977e-05
7.39517718925e-11
7.31346864749e-05
9.35110977052e-11
7.31346750635e-05
1.1190375986e-10
7.31346653995e-05
1.29856685218e-10
7.31346565049e-05
1.4778801854e-10
7.31346476645e-05
1.65803898789e-10
7.31346383531e-05
1.83730918201e-10
7.31346282571e-05
2.01094088086e-10
7.31346172443e-05
2.17194584263e-10
7.31346052853e-05
2.31079061764e-10
7.31345923601e-05
2.41020740226e-10
7.3134578464e-05
2.44622297303e-10
7.31345636111e-05
2.3872544825e-10
7.31345479479e-05
2.19299187283e-10
7.31345319706e-05
1.81571673525e-10
7.31345168943e-05
1.21312744143e-10
7.31344882857e-05
2.17351422209e-11
7.31344405386e-05
-1.92453331193e-10
7.31343631932e-05
-5.42916678998e-10
7.3134234084e-05
-1.04129183631e-09
7.31340098168e-05
-1.75988079444e-09
7.31336200889e-05
-2.78749455142e-09
7.31329472932e-05
-4.25667357117e-09
7.31317937047e-05
-6.35987177675e-09
7.31298319843e-05
-9.37946620857e-09
7.31265304997e-05
-1.37406107242e-08
7.31210144606e-05
-2.00530620054e-08
7.31118453619e-05
-2.92080605237e-08
7.3096687262e-05
-4.25509149353e-08
7.30718013786e-05
-6.21561214682e-08
7.30311777851e-05
-9.10150579114e-08
7.29651557912e-05
-1.33295391958e-07
7.28584879056e-05
-1.94915514525e-07
7.26876298339e-05
-2.83756717498e-07
7.2417466285e-05
-4.09332196171e-07
7.19986511553e-05
-5.81077621214e-07
7.13684536468e-05
-8.04142253308e-07
7.04590423665e-05
-1.07356583884e-06
-1.36503598533e-06
6.92226589058e-05
5.07871727711e-05
5.47515991556e-11
5.29516503338e-05
5.30004120062e-11
5.59606892356e-05
2.88596578959e-11
5.92633229924e-05
1.4274383201e-11
6.24488098418e-05
2.86836146997e-12
6.52735506722e-05
-6.00346175988e-12
6.76333304742e-05
-1.19127325864e-11
6.95186663045e-05
-1.48804707611e-11
7.09734502771e-05
-1.53346456838e-11
7.20647953715e-05
-1.38624891293e-11
7.28642660051e-05
-1.10901051466e-11
7.34378173929e-05
-7.6698743594e-12
7.38414723108e-05
-4.26208196716e-12
7.41203584409e-05
-1.51451282847e-12
7.43094777728e-05
-4.27951762297e-14
7.4435205086e-05
-1.80846648768e-13
7.45169545684e-05
-2.26043894545e-12
7.45687333566e-05
-6.01315977304e-12
7.46004668535e-05
-1.0805857426e-11
7.46190690401e-05
-1.56653493144e-11
7.4629275039e-05
-1.94742152538e-11
7.46342709787e-05
-2.11567895579e-11
7.46361597252e-05
-2.03132483614e-11
7.46362995816e-05
-1.82463251287e-11
7.46355322064e-05
-1.56126389442e-11
7.4634377317e-05
-1.24536019918e-11
7.46331322795e-05
-8.98593541252e-12
7.46319562076e-05
-5.16485962298e-12
7.46309230814e-05
-4.58676088628e-13
7.46300581797e-05
3.5274651563e-12
7.46293582367e-05
8.09457022857e-12
7.46288064803e-05
1.30370501445e-11
7.46283807328e-05
1.83141064623e-11
7.46280580951e-05
2.39826292731e-11
7.46278175075e-05
3.02228573363e-11
7.462764074e-05
3.71704201693e-11
7.46275126634e-05
4.49334233479e-11
7.46274213294e-05
5.35409612296e-11
7.462736027e-05
6.31022272185e-11
7.46273162033e-05
7.28526186728e-11
7.46272860193e-05
8.30347940763e-11
7.46272656552e-05
9.44789277246e-11
7.46272520958e-05
1.07230636498e-10
7.4627242985e-05
1.21171811718e-10
7.46272366622e-05
1.36333866044e-10
7.46272319489e-05
1.52652549588e-10
7.46272279897e-05
1.69910243007e-10
7.46272241428e-05
1.87720669337e-10
7.46272198874e-05
2.0548812884e-10
7.46272148185e-05
2.22398989306e-10
7.46272086877e-05
2.37343941408e-10
7.46272012004e-05
2.48641561146e-10
7.46271919273e-05
2.540280799e-10
7.46271801998e-05
2.50583386194e-10
7.46271649452e-05
2.34680914038e-10
7.46271445465e-05
2.02094036758e-10
7.46271175591e-05
1.48421456733e-10
7.46270746717e-05
6.47408361114e-11
7.4626979145e-05
-9.68135790696e-11
7.46268400868e-05
-4.0375223885e-10
7.46266096774e-05
-8.10779565313e-10
7.46262285519e-05
-1.37864928824e-09
7.46255987191e-05
-2.15754968276e-09
7.46245609062e-05
-3.2187476319e-09
7.46228542535e-05
-4.65311159495e-09
7.46200571936e-05
-6.58230254641e-09
7.46155031345e-05
-9.18644607447e-09
7.4608106709e-05
-1.26565316783e-08
7.45960981921e-05
-1.71994406765e-08
7.45766407407e-05
-2.30933535889e-08
7.45453207628e-05
-3.08360362969e-08
7.44952344313e-05
-4.09286327739e-08
7.44154876277e-05
-5.35484749042e-08
7.42894248618e-05
-6.88527085174e-08
7.40922451388e-05
-8.65768853236e-08
7.37884555629e-05
-1.05542559088e-07
7.33303376858e-05
-1.22959731198e-07
7.26598207682e-05
-1.33625193887e-07
7.1716576673e-05
-1.30321725355e-07
-1.04471255284e-07
7.04560120011e-05
5.07871717357e-05
-7.87116837729e-07