/*--------------------------------*- C++ -*----------------------------------*\
| =========                 |                                                 |
| \\      /  F ield         | OpenFOAM: The Open Source CFD Toolbox           |
|  \\    /   O peration     | Version:  2106                                  |
|   \\  /    A nd           | Website:  www.openfoam.com                      |
|    \\/     M anipulation  |                                                 |
\*---------------------------------------------------------------------------*/
FoamFile
{
    version     2.0;
    format      ascii;
    arch        "LSB;label=32;scalar=64";
    class       volScalarField;
    location    "0.05";
    object      p;
}
// * * * * * * * * * * * * * * * * * * * * * * * * * * * * * * * * * * * * * //

dimensions      [0 2 -2 0 0 0 0];

internalField   nonuniform List<scalar> 
11200
(
182.05102079
179.122427952
178.00861626
177.481361721
177.114157468
176.819559937
176.558150785
176.309888176
176.065663027
175.820872941
175.572783331
175.319602545
175.060066974
174.793218204
174.518276027
174.234561369
173.941461743
173.638457608
173.324936062
173.000267403
172.663861531
172.31510745
171.953369295
171.577991812
171.188313384
170.783625568
170.363212658
169.926345816
169.47228168
169.0002633
168.509520755
167.999271448
167.468721149
166.917065579
166.343490003
165.747169564
165.12726975
164.482946792
163.813348052
163.117612359
162.394870255
161.644244134
160.864848296
160.055788934
159.216164085
158.345063535
157.441568522
156.504751088
155.533672948
154.527383795
153.484918995
152.405296677
151.287514148
150.130543312
148.933324668
147.694759463
146.413699603
145.088934962
143.719177506
142.303041429
140.839018208
139.325445031
137.760464749
136.141976329
134.467570334
132.734442343
130.93928284
129.07813302
127.146190564
125.137543749
123.044812428
120.858663778
118.566882631
116.153336009
113.59602068
110.863436465
107.908255926
104.658659346
100.96402166
96.2079612712
180.257973287
178.899804921
178.108856374
177.608887583
177.217977452
176.89421268
176.609849885
176.345438899
176.090158511
175.837835926
175.584614613
175.327950784
175.066080237
174.797705851
174.521815792
174.2375757
173.94425632
173.6411507
173.327556934
173.00295663
172.666701468
172.318143055
171.956627922
171.581486286
171.192022185
170.787545365
170.367343049
169.930685621
169.476829027
169.005015249
168.514472601
168.004421041
167.474070939
166.922618793
166.349249608
165.753138353
165.133450486
164.489342257
163.819961122
163.124446074
162.401927877
161.651529198
160.872364639
160.063540753
159.224156079
158.353301134
157.450058163
156.513500492
155.542691401
154.536682452
153.494511308
152.415198999
151.297746501
150.141130321
148.944296692
147.706153954
146.42556276
145.101323809
143.732162558
142.316710118
140.85347936
139.340834855
137.776953482
136.159772732
134.486924653
132.755666485
130.962783797
129.104440141
127.175996984
125.17177045
123.084690435
120.905791978
118.623551172
116.222833898
113.683257777
110.976339772
108.061275269
104.880024156
101.329376785
97.2112565162
179.262765651
178.608571119
178.056227535
177.618633472
177.247054157
176.925025805
176.636031787
176.365932646
176.1056217
175.849290988
175.593031057
175.334133408
175.070660272
174.801163068
174.524505414
174.239750863
173.946088277
173.642781189
173.329201723
173.004612967
172.66838742
172.319874737
171.958412755
171.583329188
171.193939109
170.789542244
170.369422703
169.932851045
169.479084518
169.007367628
168.516932875
168.006995725
167.476756305
166.925413513
166.352153983
165.75615373
165.136579052
164.492586877
163.823325294
163.127933953
162.405544325
161.655279876
160.876256165
160.06758094
159.228354259
158.357668546
157.454608411
156.518250089
155.547660382
154.541895091
153.499997063
152.420993754
151.303894093
150.14768436
148.951322733
147.713732143
146.433791103
145.110322157
143.742077547
142.327721373
140.865807008
139.354747838
137.792780212
136.1779293
134.50796137
132.780285747
130.991859722
129.139083767
127.217642411
125.222294932
123.146588361
120.98245498
118.719795072
116.345667817
113.843315339
111.190800492
108.359974971
105.3188771
102.031147094
98.4728508636
178.712984719
178.349610109
177.949718539
177.580738354
177.243143502
176.93508269
176.649786278
176.379174327
176.116911831
175.858356842
175.60007047
175.339496955
175.074711974
174.804226477
174.526847755
174.241583569
173.947575199
173.644049186
173.330303715
173.005651098
172.669402534
172.32089428
171.959456526
171.584409936
171.195063598
170.790713495
170.370641945
169.934117808
169.48039653
169.008720421
168.518319783
168.008415479
167.478219885
166.926929655
166.353729306
165.757793046
165.138286701
164.494367287
163.825183385
163.129875424
162.407575882
161.657409466
160.878493277
160.069937016
159.230843183
158.360307218
157.457417404
156.521254363
155.5508901
154.545386771
153.503795045
152.425151999
151.308478363
150.15277483
148.957017133
147.720149661
146.441077388
145.118655889
143.751678921
142.338862128
140.878823221
139.370061946
137.810924067
136.199550427
134.533835116
132.811378014
131.029403578
129.184659262
127.273290685
125.290685618
123.231282993
121.088343639
118.853620723
116.517045115
114.066480862
111.487747306
108.765957123
105.891198724
102.866915817
99.7299730842
178.37891811
178.147128969
177.84571984
177.534745629
177.229914424
176.937911878
176.658975617
176.389909061
176.127023962
175.867018676
175.60711526
175.345054756
175.07902187
174.807546451
174.529415013
174.243600065
173.949205425
173.645423715
173.331509216
173.006746662
172.670446259
172.321925195
171.960501088
171.585486146
171.19618374
170.791886478
170.371874798
169.935416526
169.481766946
169.010169427
168.519855343
168.010043556
167.479940042
166.928737251
166.355621433
165.759768959
165.140348706
164.496519603
163.82743179
163.132227112
162.410039473
161.659995214
160.881213454
160.072806425
159.233879769
158.36353272
157.460858022
156.524941811
155.554863164
154.549692635
153.508491157
152.430308403
151.314180524
150.15912704
148.964146661
147.728211869
146.450262008
145.129194236
143.763850929
142.353006851
140.895359566
139.389503011
137.833893712
136.226840002
134.566448993
132.850578981
131.076782044
129.242235274
127.343657481
125.377211716
123.338396837
121.221940836
119.021723116
116.730803938
114.341729611
111.847442419
109.243682385
106.534841401
103.742320322
100.916893383
178.17550877
177.999610318
177.758415181
177.491087013
177.213900021
176.937269741
176.665601324
176.399136387
176.136420335
175.875463933
175.614217375
175.350794546
175.083549149
174.81107048
174.532149219
174.245736581
173.950905627
173.646817668
173.332696451
173.007802792
172.671428013
172.322873134
171.961443524
171.586442606
171.197167462
170.792906171
170.372936055
169.936522881
169.482920493
169.011370386
168.521102162
168.011333892
167.48127276
166.930116447
166.35705334
165.761263349
165.141913735
164.498162655
163.829160247
163.134049399
162.411965692
161.662037556
160.883386664
160.075128389
159.236372236
158.36622218
157.46377687
156.528129328
155.558366437
154.553568832
153.512809773
152.43515388
151.319655454
150.165356091
148.971281382
147.736436616
146.459801404
145.140323482
143.776912605
142.368427107
140.913656951
139.4112975
137.859964115
136.258143537
134.604168309
132.896188497
131.132133373
129.309669189
127.426155666
125.478606256
123.463663359
121.377612776
119.216484976
116.976333456
114.653867996
112.247736781
109.761026254
107.205965443
104.609680985
102.019563487
178.052377271
177.896768402
177.690460696
177.453889852
177.198407
176.935125989
176.670521951
176.40703513
176.144933658
175.883381613
175.621031631
175.356389942
175.088007686
174.81455784
174.53485265
174.247833585
173.952550238
173.648136634
173.333789811
173.008749482
172.672285589
172.323683145
171.962235664
171.587237619
171.197979523
170.793744753
170.373807436
169.937431281
169.483868975
169.012361836
168.522139898
168.012422269
167.482417732
166.931324063
166.358328803
165.762608239
165.143328944
164.499653016
163.830733936
163.135716391
162.413737703
161.663928548
160.885413477
160.077311457
159.23873639
158.36879754
157.466599856
156.531244152
155.561827026
154.557440422
153.51717179
152.440103137
151.325309915
150.171859462
148.978808818
147.745201771
146.470064899
145.152402012
143.791187115
142.38536141
140.933816643
139.435398419
137.888878357
136.292944021
134.646183542
132.947067996
131.193933525
129.384966923
127.518199688
125.591519203
123.602714074
121.549582687
119.43015479
117.243112217
114.988549724
112.669272586
110.292918279
107.875247178
105.443389607
103.037060662
177.978285536
177.828268555
177.641500306
177.425378247
177.185655519
176.932823063
176.674184829
176.413457345
176.152110432
175.890209759
175.627001678
175.361346424
175.091985582
174.817680654
174.537273533
174.249703967
173.954004985
173.649288672
173.33472951
173.009547248
172.672994299
172.324341674
171.962871918
171.587871154
171.198623778
170.794408817
170.374497477
169.938151639
169.484622955
169.013152361
168.522969819
168.013294301
167.483334002
166.93228641
166.359338764
165.763670157
165.144453303
164.500848383
163.832008686
163.137080691
162.415204045
161.665512164
160.887132906
160.079189217
159.240799784
158.37107965
157.469140754
156.534092362
155.565041515
154.561093438
153.521351083
152.444915252
151.330884258
150.178353214
148.986412964
147.754148519
146.480636944
145.164944732
143.80612433
142.403208215
140.955210612
139.461106124
137.919839624
136.330315239
134.691389241
133.001867121
131.260504605
129.466017594
127.61710809
125.712515823
123.751115419
121.732087949
119.655209706
117.521326195
115.333104507
113.09616517
110.820683441
108.523479701
106.229522328
103.971170954
177.936000584
177.786541236
177.610106912
177.406344418
177.176786362
176.931057781
176.676687993
176.418052122
176.157357282
175.895276291
175.631480391
175.365095637
175.095013187
174.820067912
174.53912927
174.251139229
173.955120471
173.650169709
173.335445009
173.010151133
172.673526874
172.324833426
171.963344714
171.588340352
171.199099989
170.794899291
170.375007216
169.93868428
169.485181379
169.013739059
168.523587161
168.013944709
167.484020149
166.933011843
166.360108882
165.764491472
165.145329693
164.50178719
163.833019453
163.138174741
162.416394909
161.666816177
160.888569875
160.080783189
159.242579952
158.373081463
157.471407281
156.53667597
155.568005766
154.564515223
153.525323828
152.449552534
151.336324143
150.184763558
148.993997883
147.763156294
146.491369569
145.177769259
143.821486351
142.421649723
140.977388694
139.487832487
137.952103749
136.369326424
134.738627913
133.059148984
131.330060737
129.550594233
127.720091013
125.838084167
123.904429993
121.919513858
119.884563239
117.802115839
115.676691302
113.515699482
111.330561626
109.13793453
106.96016332
104.823758986
177.9167199
177.766827611
177.594842223
177.396877664
177.172285278
176.930140136
176.677989682
176.420478406
176.160158988
175.898007208
175.633914752
175.367149762
175.0966855
174.82139835
174.540174243
174.251957467
173.95576583
173.650688148
173.335873896
173.01052005
172.673857477
172.325142721
171.9636449
171.588640069
171.199405305
170.795214482
170.375335427
169.939027995
169.485542841
169.014120401
168.523990587
168.014372692
167.48447568
166.933498658
166.360631329
165.765054339
165.145940161
164.502453266
163.833750612
163.138982443
162.417293076
161.667821719
160.889703319
160.082069453
159.244049279
158.374770551
157.473360671
156.538947745
155.570661649
154.567635093
153.529004708
152.453912223
151.341505668
150.190940606
149.001381393
147.772002443
146.501989488
145.190540947
143.83686951
142.440204408
140.999794297
139.514919264
137.984877232
136.409009756
134.786712802
133.117454242
131.400802685
129.636471551
127.824388859
125.964799531
124.058414414
122.106626743
120.111818933
118.077792653
116.010337331
113.917926853
111.812472373
109.709987288
107.63046757
105.596165149
177.916723136
177.76684427
177.59486971
177.396914182
177.172329989
176.930192115
176.678048017
176.420542313
176.160227879
175.89808065
175.633992427
175.367231441
175.096770999
174.821487523
174.540266982
174.252053686
173.955865463
173.650791156
173.335980269
173.010629909
172.673971069
172.325260382
171.963767053
171.588767199
171.19953798
170.795353395
170.375481495
169.939182395
169.485706895
169.014295786
168.524179278
168.014577037
167.484698538
166.933743548
166.360902636
165.76535764
165.146282094
164.50284174
163.834195194
163.139494747
162.417887202
161.668514778
160.890516063
160.083027058
159.245182318
158.376116169
157.474964001
156.540863618
155.572956647
154.570390039
153.532317715
152.457902387
151.34631756
150.196749727
149.008400789
147.780490672
146.512260237
145.202974702
143.851927926
142.458447684
141.021898125
139.541697182
138.017329872
136.448353427
134.834409009
133.175268828
131.470869211
129.721372531
127.927267173
126.089422076
124.20923906
122.288912022
120.331698621
118.342290683
116.327282244
114.295700699
112.259518466
110.234011898
108.237391174
106.289053364
177.936010307
177.786591542
177.610189926
177.406454665
177.176921292
176.931214519
176.676863692
176.418244446
176.157564463
175.895497039
175.631713763
175.365340929
175.09526985
174.820335526
174.53940752
174.25142788
173.955419347
173.650478699
173.335764069
173.010480604
172.673867455
172.325186128
171.963710795
171.588721255
171.199497397
170.795315281
170.375444468
169.939146187
169.485672083
169.014263494
168.524151121
168.014555166
167.484685743
166.933743375
166.360919483
165.765396842
165.146350059
164.502946215
163.834345587
163.139702491
162.418166193
161.668881882
160.890991731
160.083636104
159.245954892
158.377088934
157.476181531
156.542380058
155.574837706
154.572715444
153.535184214
152.461427399
151.350643582
150.202049641
149.014884244
147.788411781
146.521926907
145.214759973
143.866283739
142.475921942
141.043158816
139.567548563
138.048735612
136.486471288
134.880654407
133.231346897
131.538825779
129.80363851
128.026664989
126.209285059
124.353526436
122.462213854
120.539241237
118.589898594
116.621257165
114.642586762
112.665733049
110.705348453
108.778461003
106.902848155
177.978301828
177.828353519
177.641640383
177.425563968
177.185882449
176.933086271
176.674479487
176.41377952
176.152457147
175.890578825
175.62739151
175.36175585
175.092413708
174.818126803
174.537737226
174.250184862
173.954502828
173.649803332
173.335260848
173.010095773
172.673561101
172.324928433
171.963480695
171.588504337
171.199284171
170.795099881
170.375223632
169.938918458
169.485437229
169.014022112
168.523904481
168.014305193
167.484435061
166.933495363
166.360678334
165.765167624
165.146138872
164.502760437
163.834194208
163.139596476
162.418118874
161.66890943
160.891113769
160.083876482
159.246342621
158.377659312
157.476977473
156.543453672
155.576252214
154.574547535
153.53752693
152.464393643
151.354370323
150.206702952
149.020665341
147.795564286
146.530745652
145.22560158
143.879579188
142.49219116
141.063028698
139.591777783
138.078238342
136.522347106
134.924208085
133.284133427
131.602694638
129.880787205
128.11970965
126.321268523
124.48791861
122.622938842
120.730653485
118.816702238
116.888359265
114.954883021
113.027853616
111.121436678
109.252069216
107.437034586
178.052400352
177.896890011
177.690660755
177.454154311
177.198729241
176.93549885
176.670938526
176.407489826
176.145422243
175.883900974
175.621579526
175.35696473
175.08860814
174.815183063
174.53550202
174.248506647
173.953246638
173.648856238
173.334532276
173.009515706
172.673077098
172.324502121
171.963084874
171.588120317
171.198899608
170.79470703
170.374817989
169.938497725
169.48500058
169.013569726
168.523437317
168.013824916
167.48394402
166.932996584
166.36017558
165.764665526
165.145643144
164.502278026
163.833733478
163.139167612
162.417734316
161.66858429
160.890866314
160.083728965
159.246322183
158.377799017
157.47731751
156.544042811
155.577149613
154.575824962
153.539271483
152.466710994
151.357388611
150.210577447
149.02558399
147.801754407
146.538482027
145.235216195
143.891472882
142.506847377
141.081029534
139.613822274
138.105164359
136.555157735
134.964101639
133.332533238
131.661279277
129.951520626
128.204871668
126.423480097
124.610146647
122.76847376
120.903047004
119.019654844
117.125551988
115.229768872
113.343473328
111.480400823
109.65683699
107.890570078
178.175539142
177.99977212
177.758680262
177.491435839
177.214323349
176.937757896
176.666145198
176.3997287
176.137055576
175.876138061
175.614927484
175.351538535
175.084325499
174.811878106
174.532987359
174.246604579
173.951802781
173.647743636
173.333650398
173.008787605
172.672445289
172.32392511
171.962533359
171.587574231
171.198345685
170.794136901
170.374226677
169.93788253
169.484360319
169.012904273
168.522747388
168.013111988
167.483210243
166.93224457
166.359408383
165.763886951
165.144858008
164.501492507
163.832955373
163.138406329
162.417001066
161.66789263
160.890232924
160.083174125
159.245870559
158.377480622
157.477168806
156.544108033
155.577482416
154.576490455
153.540348672
152.468295699
151.35959694
150.213549932
149.029490641
147.80680083
146.544916644
145.243338813
143.901644861
142.519503669
141.096692836
139.633119517
138.128845336
136.584116073
134.999397688
133.375419263
131.713224811
130.014235108
128.280321766
126.513895838
124.718010877
122.896482461
121.05402751
119.196429495
117.330742394
115.465557349
113.611405755
111.781444629
109.991905551
108.261773928
178.378956309
178.147335686
177.846056297
177.535185714
177.230445599
176.938521574
176.6596524
176.390643956
176.127810229
175.867851388
175.607990891
175.345970826
175.079976686
174.808538944
174.530444593
174.244666242
173.950307584
173.646562168
173.332681521
173.007956502
172.671695412
172.323216348
171.961837784
171.58687286
171.197626058
170.793391168
170.373450138
169.937072549
169.483515573
169.012024354
168.521832664
168.012163629
167.482230254
166.931235849
166.358374546
165.762831862
165.143785444
164.500407071
163.831863039
163.137314675
162.415919575
161.666832905
160.889208925
160.082203336
159.244974538
158.376685631
157.476506704
156.54361743
155.577210195
154.576493572
153.540696323
152.469071861
151.360903374
150.215509857
149.03225305
147.810544922
146.549858363
145.24973855
143.909816226
142.529823702
141.109613928
139.649183117
138.148697571
136.608525113
135.029272176
133.411827432
131.757413253
130.067644615
128.344597816
126.590887001
124.809748809
123.005133271
121.181800199
119.345423889
117.502720901
115.661633988
113.831716076
112.025071506
110.257269087
108.548223447
178.713030613
178.349865285
177.950128778
177.581270013
177.243780071
176.935808232
176.650586952
176.380039534
176.117833669
175.859329556
175.601089988
175.340560508
175.075817839
174.805373914
174.528037051
174.242816045
173.948854206
173.64538279
173.331677175
173.007057858
172.670852162
172.322392977
171.961009943
171.5860243
171.19674628
170.792473632
170.372491021
169.936069843
169.482468245
169.010931906
168.520694925
168.010980491
167.481001724
166.929962466
166.357057871
165.76147522
165.142393462
164.498985024
163.830416666
163.135850714
162.414446093
161.665359819
160.887748773
160.080770897
159.243587642
158.375365981
157.475280726
156.542517373
155.576275271
154.5757711
153.540243604
152.46895827
151.361212806
150.21634362
149.033733469
147.812821032
146.553110278
145.25418295
143.915713514
142.537486411
141.119416337
139.661572216
138.164205297
136.62778182
135.053021031
133.440939375
131.792900759
130.110673397
128.396492252
126.653125613
124.883943793
123.092984033
121.285006072
119.465533108
117.64088172
115.818185314
114.0055996
112.213294828
110.454307043
108.746798127
179.262823889
178.608888789
178.056721505
177.619262018
177.247797073
176.925863918
176.636949123
176.36691721
176.10666456
175.850385557
175.594172559
175.335318408
175.071886291
174.802428374
174.525809056
174.241093327
173.947475718
173.644233463
173.330651283
173.006098464
172.66991704
172.321452765
171.960045248
171.585022714
171.195700094
170.791378213
170.371343784
169.9348696
169.481215104
169.009626877
168.519339698
168.009577306
167.479552468
166.928467375
166.355517618
165.759889546
165.140763574
164.497313267
163.828706551
163.134106809
162.412674152
161.663566969
160.885943703
160.078964712
159.241794105
158.373601855
157.473566307
156.540877101
155.574738782
154.574375013
153.539032539
152.46798635
151.360545559
150.216060197
149.03392905
147.813609573
146.554629277
145.256598123
143.919224117
142.542331525
141.125882206
139.670000631
138.175002996
136.641430848
135.070089412
133.462092108
131.818909641
130.14242379
128.434986695
126.699481355
124.939378217
123.158781324
121.36245308
119.555803457
117.744812671
115.935791089
114.135223567
112.350325682
110.587821977
108.854967676
180.258079056
178.900268212
178.109542943
177.609743663
177.218979374
176.895339517
176.61108489
176.346769604
176.091575594
175.839332394
175.586185188
175.329591258
175.067786741
174.799474003
174.523639432
174.239444087
173.946149971
173.643057042
173.329582306
173.005063186
172.668872677
172.320374697
171.958919189
171.583840912
171.194458693
170.790075434
170.369978178
169.933436565
169.47971093
169.008049584
168.517687639
168.007849092
167.477748221
166.926590504
166.353569988
165.757873633
165.138681431
164.495167031
163.82649869
163.131840335
162.410352873
161.661195771
160.883528766
160.076513621
159.239316119
158.37110829
157.471071044
156.538397278
155.572295338
154.571993131
153.536742654
152.465825264
151.358557794
150.214299738
149.032461792
147.812515182
146.554002957
145.256554219
143.919899905
142.543891475
141.12852288
139.673956176
138.180551099
136.648899077
135.079862415
133.474618147
131.834706876
130.162082893
128.459181303
126.728971804
124.97500284
123.201444449
121.413105643
119.615411663
117.81426014
116.015507988
114.224636528
112.446273227
110.675308395
108.878909742
182.051193117
179.123103704
178.00961345
177.482617183
177.115640405
176.821245597
176.560020883
176.311929795
176.067867172
175.823233653
175.575297098
175.322267918
175.062884484
174.796190781
174.521410452
174.237870704
173.944958577
173.642113742
173.32873302
173.004223303
172.667991163
172.319421569
171.957878215
171.582704604
171.193224776
170.788744359
170.368552476
169.931926699
169.478124424
169.006389536
168.515956131
168.006047576
167.475876891
166.924647725
166.351555173
165.755786548
165.136522167
164.49293601
163.824196636
163.129468327
162.407912468
161.65868913
160.880958737
160.073883857
159.236631191
158.368373848
157.468294037
156.535586211
155.569460693
154.569147768
153.533902246
152.4630088
151.355788194
150.211604557
149.029873866
147.81007402
146.551756527
145.254560291
143.918227869
142.542624556
141.127760622
139.673817416
138.181177543
136.650458858
135.08255462
133.478677369
131.840410081
130.169766384
128.469231453
126.741819921
124.991143005
123.221446519
121.437635077
119.645258532
117.850459255
116.059939496
114.280448261
112.517692988
110.753621349
108.857818069
88.7470039738
85.2131569767
82.8376669439
80.9009539059
79.2484712003
77.8060895136
76.5282865279
75.3855871625
74.3575964655
73.4291713916
72.5883656522
71.825292036
71.1315072068
70.4996759198
69.9233713568
69.396939076
68.9153923719
68.4743256407
68.0698391966
67.6984742514
67.3571564657
67.0431468107
66.7539993395
66.4875254727
66.2417621471
66.0149449209
65.8054840513
65.6119436689
65.4330234672
65.2675431924
65.1144296357
64.972705533
64.841480192
64.7199398288
64.6073395693
64.5029958563
64.4062805146
64.3166154779
64.2334681685
64.1563483061
64.0848068725
64.0184437423
63.9569110575
63.8998357556
63.8468667668
63.7976665008
63.7519451639
63.7094360076
63.6698984544
63.6331046606
63.5988391584
63.5669047321
63.5371257365
63.5093377343
63.4833763928
63.4590898083
63.436337818
63.4149949621
63.3949433008
63.3761184433
63.358380666
63.3416321252
63.3257868358
63.310765521
63.2964942976
63.2829046704
63.2699335684
63.2575229619
63.2456194276
63.2341732036
63.2231376492
63.212469473
63.2021285388
63.1920773089
63.1822806399
63.1727061236
63.1633238156
63.1541059805
63.1450265283
63.1360603574
63.12718347
63.1183732542
63.1096082235
63.1008673577
63.0921295948
63.0833738119
63.0745793064
63.0657255982
63.0567916125
63.047755609
63.0385953959
63.029287778
63.0198083361
63.0101309444
63.0002271292
62.9900673735
62.9796197695
62.9688496783
62.9577203717
62.9461911975
62.9342175334
62.9217520115
62.9087433057
62.8951347691
62.8808641939
62.8658635923
62.8500586597
62.8333694483
62.8157068737
62.7969732384
62.777061864
62.7558558532
62.733227943
62.7090371727
62.6831299506
62.6553401305
62.6254837436
62.5933609964
62.5587536729
62.5214207586
62.4811012974
62.4375122367
62.3903388458
62.3392409926
62.2838463247
62.2237475684
62.1584970854
62.0876053193
62.0105283318
61.9266586508
61.8353193072
61.735725848
61.6269666411
61.507965046
61.3773362029
61.2332740277
61.0732974292
60.8938414454
60.6895679954
60.4522436405
60.1689903489
59.8197819376
59.3745991973
58.7913548419
58.0176950791
56.9986931701
55.6874907979
54.0512177292
52.068341722
49.7220118539
46.9952099264
43.8685633048
40.3172200797
36.3091879326
31.8279617686
26.9052864562
21.5219934501
15.3858246942
8.37443090406
2.1016697736
91.9424389029
87.89682923
85.2015725504
83.0701513225
81.2873606474
79.7512202498
78.402113844
77.2031650718
76.1295644992
75.1633233135
74.2905665905
73.5000498061
72.782349452
72.1294103701
71.53426999
70.9908713826
70.4939219272
70.0387816036
69.6213685571
69.2380813968
68.8857315895
68.5614886097
68.2628310912
67.9875079205
67.7335027908
67.4990059277
67.2823879772
67.0821783722
66.8970461609
66.7257833463
66.567291711
66.4205710179
66.2847091454
66.1588723334
66.0422967245
65.9342805395
65.8341784039
65.7413956188
65.6553833154
65.5756340142
65.5016756082
65.4330654204
65.369392342
65.3102719085
65.2553706414
65.2043938383
65.1570546163
65.1130729773
65.0721900865
65.0341605381
64.9987691731
64.9658023115
64.9350612097
64.9063664806
64.8795636475
64.8545007392
64.8310374457
64.8090401864
64.7883812367
64.7689547928
64.75065906
64.733397829
64.7170815684
64.7016281806
64.6869610082
64.673008627
64.6597060253
64.646993056
64.634814795
64.6231198889
64.6118596248
64.6009900847
64.5904694237
64.5802586506
64.5703224656
64.5606271108
64.5511421264
64.5418388274
64.5326913655
64.5236727441
64.5147593604
64.5059292227
64.4971591127
64.4884294659
64.4797173329
64.4710045043
64.4622680023
64.4534901438
64.4446489301
64.4357243409
64.426695137
64.417538138
64.4082324016
64.3987525672
64.3890717144
64.3791632313
64.3689982083
64.3585430804
64.3477676241
64.3366305134
64.3250961866
64.3131171811
64.3006502233
64.2876447113
64.2740410212
64.2597843566
64.2448025185
64.2290284689
64.2123824034
64.1947758368
64.1761185287
64.1563045503
64.1352253249
64.1127557907
64.0887661469
64.0631104678
64.0356323896
64.0061646722
63.9745163743
63.9404951521
63.9038772741
63.8644304299
63.8219050907
63.776021121
63.726487045
63.6729863484
63.6151695456
63.5526718444
63.4850837632
63.4119626107
63.3328157472
63.2470831312
63.15410875
63.0531048394
62.9430331929
62.8224990583
62.6895029327
62.5410401085
62.3724470617
62.1763004526
61.9406832942
61.6466667849
61.2651276784
60.7539797753
60.0584066082
59.1167721941
57.8710227765
56.275365703
54.2979794868
51.9169019795
49.1147627356
45.8750561455
42.1779420037
37.9966399839
33.3162810194
28.1679066429
22.5446693652
16.1846460408
8.95173316638
2.33284892509
94.1611208788
90.2309897199
87.3800268288
85.1162586508
83.2323931671
81.6185712813
80.2084935138
78.960606359
77.8469055665
76.8471820618
75.9459818839
75.1309160566
74.3917209422
73.7197192898
73.1074847236
72.5486120292
72.0375451968
71.5694432742
71.1400692528
70.7457007462
70.3830534912
70.0492200701
69.7416163422
69.4579388607
69.1961271838
68.9543331475
68.7308937027
68.5243080989
68.3332179158
68.1563899733
67.9927026133
67.8411331633
67.7007480657
67.5706931728
67.4501851107
67.3385039107
67.2349869658
67.1390232619
67.0500487956
66.9675429094
66.8910250923
66.8200528136
66.7542172715
66.6931236304
66.6364054705
66.58373818
66.5348112981
66.4893438206
66.4470774444
66.4077764447
66.3712022547
66.3371424229
66.3054176867
66.2758359651
66.2482253741
66.2224263433
66.1982920282
66.1756862396
66.1544837783
66.1345676805
66.1158281626
66.0981646689
66.0814840514
66.0657007724
66.0507352231
66.0365134775
66.0229685169
66.0100379555
65.997664595
65.9857956059
65.9743804404
65.9633734024
65.9527320708
65.9424165533
65.9323902165
65.9226189084
65.9130720409
65.9037197835
65.8945357628
65.8854935365
65.8765692528
65.8677409604
65.8589855247
65.8502839078
65.8416132986
65.8329558678
65.8242899438
65.8155986556
65.8068609013
65.7980569016
65.789167587
65.780171171
65.7710475941
65.7617741861
65.7523260096
65.7426784071
65.7328059254
65.7226770933
65.7122655193
65.7015338238
65.6904504459
65.6789733633
65.6670627248
65.6546751449
65.6417570442
65.6282614408
65.6141245676
65.5992870881
65.5836795792
65.567226241
65.5498500722
65.5314573166
65.5119569488
65.4912432275
65.4692047657
65.4457203439
65.4206602105
65.3938859966
65.3652405516
65.3345703986
65.3016969143
65.2664353182
65.2285934348
65.1879595989
65.1443130342
65.0974256677
65.0470467227
64.9929233772
64.9347807405
64.8723257715
64.8052427109
64.7331723847
64.6556948511
64.5722800673
64.4822097267
64.384440688
64.2773875644
64.1585233027
64.0237430301
63.8662845769
63.6750092889
63.4318635425
63.1084654754
62.6626960706
62.0375706068
61.1655053009
59.9784582901
58.4191004498
56.4465077597
54.034327141
51.1648264067
47.8234949354
43.994013348
39.6532860775
34.7866095534
29.4228135481
23.5667668625
16.9876841086
9.53444437718
2.56475004711
95.9724329246
92.2535002207
89.3649854042
87.0286254634
85.075103122
83.4018824217
81.942693262
80.6542061427
79.5066170924
78.4782331514
77.5524407245
76.7159644886
75.95787067
75.2689781186
74.6414822416