/*--------------------------------*- C++ -*----------------------------------*\
| =========                 |                                                 |
| \\      /  F ield         | OpenFOAM: The Open Source CFD Toolbox           |
|  \\    /   O peration     | Version:  2106                                  |
|   \\  /    A nd           | Website:  www.openfoam.com                      |
|    \\/     M anipulation  |                                                 |
\*---------------------------------------------------------------------------*/
FoamFile
{
    version     2.0;
    format      ascii;
    arch        "LSB;label=32;scalar=64";
    class       volVectorField;
    location    "0.05";
    object      U;
}
// * * * * * * * * * * * * * * * * * * * * * * * * * * * * * * * * * * * * * //

dimensions      [0 1 -1 0 0 0 0];

internalField   nonuniform List<vector> 
11200
(
(0.662461275565 0.150570512272 0)
(0.558944126267 0.103245063222 0)
(0.383843502349 0.0513526890168 0)
(0.283742195967 0.0248713143319 0)
(0.23208014699 0.0124153910471 0)
(0.201937185299 0.00661762494361 0)
(0.183269088715 0.00379269072188 0)
(0.171413798504 0.00229938669733 0)
(0.163740387408 0.00144110835066 0)
(0.158738651921 0.00091468842839 0)
(0.155500769176 0.000579068604394 0)
(0.153444161844 0.000361766192483 0)
(0.152179036788 0.000221283866465 0)
(0.151439134519 0.000131594477791 0)
(0.151040944817 7.51471734445e-05 0)
(0.150857331594 3.96989176228e-05 0)
(0.150799279662 1.88059329128e-05 0)
(0.150812283775 1.4902420885e-05 0)
(0.150862838799 2.12506659593e-05 0)
(0.150925837255 2.71399638276e-05 0)
(0.150987069615 3.13994345947e-05 0)
(0.151040413134 3.4206875354e-05 0)
(0.151083628425 3.57123948712e-05 0)
(0.151116256719 3.66647716444e-05 0)
(0.151140112066 3.89845383063e-05 0)
(0.151157451814 4.15142270713e-05 0)
(0.151169488998 4.37995279144e-05 0)
(0.151177511398 4.58583326709e-05 0)
(0.151182682329 4.78121689461e-05 0)
(0.151185927489 4.98112389e-05 0)
(0.151187907891 5.20032050228e-05 0)
(0.151189059614 5.43303143696e-05 0)
(0.151189657461 5.66471651912e-05 0)
(0.151189908315 5.88998821663e-05 0)
(0.151189979259 6.11149371771e-05 0)
(0.151189961889 6.33204927233e-05 0)
(0.151189902856 6.55294458186e-05 0)
(0.15118982824 6.77490040452e-05 0)
(0.151189749665 6.99826751837e-05 0)
(0.151189669708 7.22307124199e-05 0)
(0.151189587004 7.44912592865e-05 0)
(0.151189499525 7.67612818658e-05 0)
(0.151189406377 7.90371854283e-05 0)
(0.151189308549 8.13154299124e-05 0)
(0.15118920851 8.3592905629e-05 0)
(0.151189109125 8.58667759083e-05 0)
(0.151189012805 8.81341914906e-05 0)
(0.151188921501 9.03923109092e-05 0)
(0.151188837939 9.26382962758e-05 0)
(0.151188766289 9.48696754564e-05 0)
(0.151188712222 9.70838065839e-05 0)
(0.151188683311 9.92779151155e-05 0)
(0.151188689163 0.000101449379266 0)
(0.151188742152 0.000103595636595 0)
(0.151188859993 0.000105714096259 0)
(0.151189069837 0.000107801913599 0)
(0.151189413282 0.000109854594846 0)
(0.151189954306 0.000111863619847 0)
(0.15119079103 0.000113814708801 0)
(0.151192070563 0.000115683262092 0)
(0.151194029898 0.000117416023098 0)
(0.151197068221 0.000118928724948 0)
(0.151201726528 0.000120210868542 0)
(0.151208700264 0.000121463366104 0)
(0.151219049287 0.000123161074996 0)
(0.151234402144 0.000125583129823 0)
(0.151257342842 0.00012845847398 0)
(0.151291923479 0.000131512237831 0)
(0.151344293278 0.000134498832744 0)
(0.151423393306 0.000137411910968 0)
(0.151542091126 0.000142281442114 0)
(0.151727116537 0.000156437145929 0)
(0.152019560713 0.000178994713365 0)
(0.152486565424 0.000210688904852 0)
(0.15327438288 0.000241175283722 0)
(0.154682865595 0.000192258818693 0)
(0.157410508882 -0.000267956491917 0)
(0.16518004242 -0.00238741150024 0)
(0.192174555765 -0.012101510288 0)
(0.215396303807 -0.0565706644896 0)
(0.965407114817 0.289217845638 0)
(0.961959618721 0.252659196395 0)
(0.82357504235 0.159019714649 0)
(0.698158808564 0.0959835397082 0)
(0.610288563126 0.0582185528786 0)
(0.54911466039 0.0361600743167 0)
(0.506860191652 0.0230737355411 0)
(0.478024480446 0.0150115195639 0)
(0.458451932073 0.00985095937189 0)
(0.445247106862 0.00645240955384 0)
(0.436440180064 0.00417707419304 0)
(0.430671200646 0.00264541016765 0)
(0.426988851468 0.00161859292002 0)
(0.424723390896 0.000938942331554 0)
(0.423402588311 0.000498447220577 0)
(0.422695399214 0.000221598363953 0)
(0.422374498224 5.72432306953e-05 0)
(0.422285417772 -2.5812271073e-05 0)
(0.422317515448 -6.23571075264e-05 0)
(0.42240347817 -7.2285344146e-05 0)
(0.422508358293 -6.85939430639e-05 0)
(0.422610526978 -5.87986981991e-05 0)
(0.422699420364 -4.71996864581e-05 0)
(0.42277195035 -3.57033479411e-05 0)
(0.422827929634 -2.41655311171e-05 0)
(0.422868761209 -1.40676302114e-05 0)
(0.422897617758 -5.92336557918e-06 0)
(0.422917480267 3.57091239474e-07 0)
(0.422930868596 5.01579131116e-06 0)
(0.422939821582 8.25926491561e-06 0)
(0.42294566904 1.02220612775e-05 0)
(0.422949213711 1.13696425389e-05 0)
(0.422951146569 1.22855564604e-05 0)
(0.422952118966 1.30053823418e-05 0)
(0.422952592911 1.36001030836e-05 0)
(0.422952795796 1.41352666779e-05 0)
(0.422952845809 1.46376622995e-05 0)
(0.422952816574 1.51252673191e-05 0)
(0.422952748477 1.56105289767e-05 0)
(0.422952659751 1.60998007289e-05 0)
(0.422952556418 1.65954373148e-05 0)
(0.422952438462 1.70976568095e-05 0)
(0.422952303571 1.76057384666e-05 0)
(0.422952149318 1.81191054984e-05 0)
(0.422951974259 1.86379170691e-05 0)
(0.422951778502 1.91630929357e-05 0)
(0.422951563587 1.96963303515e-05 0)
(0.422951332281 2.02392956045e-05 0)
(0.422951090532 2.07925239819e-05 0)
(0.422950848151 2.13577763264e-05 0)
(0.422950618593 2.19370092302e-05 0)
(0.422950420611 2.25318342781e-05 0)
(0.422950280472 2.31432309605e-05 0)
(0.422950235455 2.37712182352e-05 0)
(0.422950339682 2.44147820882e-05 0)
(0.422950672389 2.50714945909e-05 0)
(0.422951349283 2.57363418159e-05 0)
(0.422952541625 2.64001312111e-05 0)
(0.422954504337 2.70482659591e-05 0)
(0.422957607687 2.76523964457e-05 0)
(0.42296243818 2.81419628189e-05 0)
(0.422970052647 2.84375543387e-05 0)
(0.42298210662 2.85818205368e-05 0)
(0.423000934883 2.81206658399e-05 0)
(0.423029545749 2.54232846441e-05 0)
(0.42307189092 1.90900566904e-05 0)
(0.423134736409 8.1787604239e-06 0)
(0.423229391549 -9.07494806207e-06 0)
(0.423373475884 -3.55891983862e-05 0)
(0.423595333305 -7.5571922654e-05 0)
(0.423942614539 -0.000133638928955 0)
(0.424492842472 -0.000215560025838 0)
(0.42537390217 -0.000355310223494 0)
(0.426816602321 -0.000615992907582 0)
(0.429260527158 -0.00114976273483 0)
(0.433520441127 -0.00238267478881 0)
(0.441218026595 -0.00549784293836 0)
(0.456963775773 -0.0138337140672 0)
(0.487050338061 -0.0385741514285 0)
(0.497904766546 -0.1122614828 0)
(1.0222205483 0.238420120439 0)
(1.08213883339 0.295926537357 0)
(1.03449110017 0.23948665888 0)
(0.954663771573 0.174242760656 0)
(0.880109749103 0.121249553307 0)
(0.818850558954 0.0829359715524 0)
(0.771828330992 0.05648315407 0)
(0.737307277283 0.0383946861399 0)
(0.712632761754 0.0259842392522 0)
(0.69533934949 0.0174279764163 0)
(0.683448527693 0.0115168073641 0)
(0.675445304256 0.00744351673995 0)
(0.670195779596 0.0046594420105 0)
(0.666864037007 0.00278389742667 0)
(0.664841080256 0.00154794075939 0)
(0.663688926051 0.000759299852466 0)
(0.663097804724 0.000279523392441 0)
(0.662850154666 6.1749484877e-06 0)
(0.662800812622 -0.000137905469431 0)
(0.662856319071 -0.000198589273751 0)
(0.662955541663 -0.000209614619474 0)
(0.663064650296 -0.000194481665187 0)
(0.663165676027 -0.000167893102859 0)
(0.663250753868 -0.000138533010854 0)
(0.66331785062 -0.000111473382348 0)
(0.663368135203 -8.84380416507e-05 0)
(0.663404383193 -6.98750951338e-05 0)
(0.663429583094 -5.55276225653e-05 0)
(0.663446456033 -4.47998776759e-05 0)
(0.663457290859 -3.70659954383e-05 0)
(0.663464157745 -3.18634870534e-05 0)
(0.66346877765 -2.86920165563e-05 0)
(0.663471753384 -2.71326149078e-05 0)
(0.663473403513 -2.66871380746e-05 0)
(0.663474300714 -2.69129074982e-05 0)
(0.663474759708 -2.74937775771e-05 0)
(0.663474952467 -2.82792117546e-05 0)
(0.663474997319 -2.9177788469e-05 0)
(0.663474962197 -3.01318006004e-05 0)
(0.663474881165 -3.11085877203e-05 0)
(0.663474769844 -3.2090714572e-05 0)
(0.663474633751 -3.30690696918e-05 0)
(0.663474473269 -3.40390245773e-05 0)
(0.663474286996 -3.49982690603e-05 0)
(0.663474073822 -3.59454756116e-05 0)
(0.663473834183 -3.68794919932e-05 0)
(0.663473569574 -3.77978699056e-05 0)
(0.663473281895 -3.86965108524e-05 0)
(0.663472978487 -3.9571291374e-05 0)
(0.663472673382 -4.04150483492e-05 0)
(0.663472385282 -4.1221558651e-05 0)
(0.663472140006 -4.19863618049e-05 0)
(0.663471974166 -4.27072041873e-05 0)
(0.663471940679 -4.33847762332e-05 0)
(0.663472117488 -4.40238877473e-05 0)
(0.663472620273 -4.46376449273e-05 0)
(0.663473620488 -4.52592612563e-05 0)
(0.663475374541 -4.5966178119e-05 0)
(0.663478263984 -4.69055025621e-05 0)
(0.663482840814 -4.83239896975e-05 0)
(0.663490000474 -5.07229194629e-05 0)
(0.663501331758 -5.5084380541e-05 0)
(0.663518651553 -6.26319089005e-05 0)
(0.663543552425 -7.44919010849e-05 0)
(0.663579721784 -9.23296298567e-05 0)
(0.663634582034 -0.000118916237283 0)
(0.663718758104 -0.000157982230782 0)
(0.663847826733 -0.000215738282014 0)
(0.66404658548 -0.00030224709952 0)
(0.664355443834 -0.000433935009615 0)
(0.66484082624 -0.000639519670527 0)
(0.665605189464 -0.000973929737519 0)
(0.666819304136 -0.00153980141134 0)
(0.668782177099 -0.002534735655 0)
(0.672007698247 -0.00437091552894 0)
(0.677321370429 -0.0079565039935 0)
(0.685976738619 -0.0152869249004 0)
(0.700359072976 -0.0307887945552 0)
(0.720631589121 -0.0648382726878 0)
(0.721134097553 -0.132194500519 0)
(1.02251495694 0.170809811937 0)
(1.10139447113 0.276488293556 0)
(1.11754616236 0.266625751278 0)
(1.09220871506 0.219807121489 0)
(1.05201588573 0.167989883452 0)
(1.01047024148 0.123273480656 0)
(0.973942096362 0.0884008335684 0)
(0.944568178451 0.0624072851519 0)
(0.922178514138 0.0434552757297 0)
(0.905726496631 0.0298154863966 0)
(0.893990305065 0.0200969216804 0)
(0.885844287912 0.0132441618362 0)
(0.880348010538 0.00847422781194 0)
(0.87675695909 0.00520989364986 0)
(0.874501530863 0.003025589886 0)
(0.873157108515 0.00160723245842 0)
(0.872414453572 0.000723038534512 0)
(0.872052157294 0.000202172634694 0)
(0.871918305762 -7.76946450734e-05 0)
(0.871913988721 -0.000207036046591 0)
(0.871973607693 -0.000245942554061 0)
(0.872056581061 -0.000235216610667 0)
(0.872140766269 -0.000201196004547 0)
(0.872215347743 -0.000159701462561 0)
(0.872276261166 -0.000119476852009 0)
(0.872323254041 -8.45604783072e-05 0)
(0.872357984294 -5.63488473378e-05 0)
(0.872382752945 -3.47072990266e-05 0)
(0.87239986885 -1.87416035236e-05 0)
(0.872411317517 -7.31444818493e-06 0)
(0.872418630266 6.70719600762e-07 0)
(0.872422912367 5.88740367484e-06 0)
(0.872425164396 8.83574740643e-06 0)
(0.87242637753 1.0656504462e-05 0)
(0.872427116102 1.18995423654e-05 0)
(0.872427563937 1.28378428072e-05 0)
(0.87242779197 1.35667354597e-05 0)
(0.872427887674 1.41670395642e-05 0)
(0.872427903668 1.46996646291e-05 0)
(0.872427864926 1.52032344054e-05 0)
(0.872427783522 1.57014808207e-05 0)
(0.87242766448 1.62082351449e-05 0)
(0.872427508525 1.67304197271e-05 0)
(0.87242731419 1.72706164905e-05 0)
(0.8724270796 1.78295692555e-05 0)
(0.872426804798 1.84096262646e-05 0)
(0.87242649252 1.90195396669e-05 0)
(0.872426146546 1.96658541627e-05 0)
(0.87242577734 2.03389118901e-05 0)
(0.87242540144 2.10380007617e-05 0)
(0.872425039001 2.17615239323e-05 0)
(0.872424719023 2.25028843319e-05 0)
(0.8724244833 2.32487899082e-05 0)
(0.872424392071 2.39772719117e-05 0)
(0.872424531582 2.46541339447e-05 0)
(0.872425021116 2.52251739531e-05 0)
(0.872426019324 2.56041524518e-05 0)
(0.872427749452 2.56701888691e-05 0)
(0.872430549899 2.53014973519e-05 0)
(0.872434838748 2.42719355545e-05 0)
(0.872441119319 2.18522906537e-05 0)
(0.87245065609 1.71168878362e-05 0)
(0.8724661272 8.62696305182e-06 0)
(0.872491197252 -6.1081404049e-06 0)
(0.872530204575 -2.94265937916e-05 0)
(0.872589483025 -6.57565389751e-05 0)
(0.872679359715 -0.000123088226727 0)
(0.872816163657 -0.000214036711293 0)
(0.87302555321 -0.000358886170156 0)
(0.873347589548 -0.000591073120242 0)
(0.873844753575 -0.000967839239758 0)
(0.874616624794 -0.00159022004004 0)
(0.875823995631 -0.00263114010879 0)
(0.877721227743 -0.00441019107076 0)
(0.880695047294 -0.00753584712219 0)
(0.885254330916 -0.0131829267024 0)
(0.891884791555 -0.023554482782 0)
(0.900971011311 -0.0425892620577 0)
(0.91021497435 -0.0770911904344 0)
(0.903181561572 -0.131902493235 0)
(1.01287923438 0.118961416407 0)
(1.08821221319 0.231789097258 0)
(1.13743480928 0.253044410297 0)
(1.15414536593 0.228852954821 0)
(1.15005641951 0.188113077617 0)
(1.13559430943 0.14616945015 0)
(1.11793766171 0.109549864818 0)
(1.1011326782 0.0799996115976 0)
(1.0869042167 0.0571866590033 0)
(1.07566461952 0.0400689304274 0)
(1.06720582967 0.0274904850674 0)
(1.0610797795 0.0184119967928 0)
(1.05679232546 0.011975712598 0)
(1.05389189109 0.0075024840426 0)
(1.05200138976 0.00446633470719 0)
(1.05082267611 0.00246539698222 0)
(1.05012913491 0.00119582360856 0)
(1.04975355836 0.00043044840602 0)
(1.0495774363 3.56330506792e-06 0)
(1.04952024922 -0.000205790324532 0)
(1.04952772765 -0.000283711590419 0)
(1.04956530493 -0.000287642931542 0)
(1.04961264871 -0.000254778202806 0)
(1.0496588087 -0.000207953356889 0)
(1.04969867495 -0.000160132656297 0)
(1.04973060268 -0.000117792521807 0)
(1.04975483369 -8.34647203226e-05 0)
(1.04977243924 -5.74151914692e-05 0)
(1.04978471295 -3.87560778398e-05 0)
(1.04979289412 -2.61150938916e-05 0)
(1.04979811368 -1.80097927085e-05 0)
(1.04980140516 -1.30084226513e-05 0)
(1.0498037361 -9.80364971753e-06 0)
(1.04980554386 -7.5699329187e-06 0)
(1.0498068126 -6.05913776738e-06 0)
(1.04980760059 -5.26390118683e-06 0)
(1.0498080211 -4.94376279619e-06 0)
(1.04980823524 -4.89083275188e-06 0)
(1.04980832958 -4.96299913726e-06 0)
(1.04980834588 -5.08380144196e-06 0)
(1.04980830588 -5.21643442309e-06 0)
(1.04980821912 -5.34248742926e-06 0)
(1.04980808799 -5.4528052974e-06 0)
(1.04980791222 -5.54361907922e-06 0)
(1.049807693 -5.61452450087e-06 0)
(1.04980743746 -5.66854443556e-06 0)
(1.04980714975 -5.71573081802e-06 0)
(1.04980681615 -5.7616854675e-06 0)
(1.04980643914 -5.78873095499e-06 0)
(1.04980604176 -5.7893444176e-06 0)
(1.04980564366 -5.76351957971e-06 0)
(1.04980527019 -5.71441991146e-06 0)
(1.04980495843 -5.6498566174e-06 0)
(1.04980476273 -5.58420792215e-06 0)
(1.0498047615 -5.54141908182e-06 0)
(1.04980506795 -5.56222857988e-06 0)
(1.04980585952 -5.72303997024e-06 0)
(1.04980745647 -6.20140374739e-06 0)
(1.04981029913 -7.48576872872e-06 0)
(1.04981465895 -1.03724663584e-05 0)
(1.04982119416 -1.53362752146e-05 0)
(1.04983145813 -2.19482380683e-05 0)
(1.04984680678 -3.18496884788e-05 0)
(1.04986926101 -4.8528636673e-05 0)
(1.04990269393 -7.70888132971e-05 0)
(1.04995274272 -0.00012483235564 0)
(1.05002780057 -0.000203140867767 0)
(1.05014056886 -0.000330209952183 0)
(1.05031052917 -0.000535507180626 0)
(1.05056751378 -0.000867092734235 0)
(1.05095684624 -0.00140396448655 0)
(1.0515471795 -0.00227761740598 0)
(1.05244027965 -0.0037125010358 0)
(1.05377731448 -0.00609883476541 0)
(1.05572844774 -0.0101188862278 0)
(1.05841006749 -0.0169567023699 0)
(1.0616436085 -0.0285632314953 0)
(1.06466289027 -0.0478496655196 0)
(1.06460957191 -0.0786238357025 0)
(1.05140943339 -0.121709389194 0)
(1.00447535179 0.0814022928178 0)
(1.06917641756 0.181263189685 0)
(1.13081843055 0.216871787855 0)
(1.17377876533 0.210619705032 0)
(1.19870753894 0.183386818847 0)
(1.21029363629 0.149270380138 0)
(1.21364991564 0.116080478535 0)
(1.21273417796 0.0872774927808 0)
(1.21003396707 0.0638521135346 0)
(1.20691636093 0.0455868327933 0)
(1.20404133347 0.031773327245 0)
(1.20166320813 0.0215819120019 0)
(1.19982488905 0.014230507804 0)
(1.19847273876 0.00904767785151 0)
(1.19751881011 0.00548496005295 0)
(1.19687177862 0.00310775318104 0)
(1.19645058673 0.00157899607473 0)
(1.19618885717 0.00064206848517 0)
(1.1960357719 0.000105953762171 0)
(1.19595380043 -0.000169348309696 0)
(1.19591576676 -0.00028376134747 0)
(1.1959033951 -0.000305444271619 0)
(1.1959046763 -0.000279109055289 0)
(1.19591218509 -0.000232610973298 0)
(1.19592163462 -0.000182082043656 0)
(1.19593077552 -0.000135864841183 0)
(1.19593861405 -9.74555983739e-05 0)
(1.19594486623 -6.7538033961e-05 0)
(1.1959496353 -4.53228392312e-05 0)
(1.19595319064 -2.93604932967e-05 0)
(1.19595583293 -1.80719245208e-05 0)
(1.19595783692 -1.01114007278e-05 0)
(1.19595939062 -4.56849350156e-06 0)
(1.19596048472 -1.01780574052e-06 0)
(1.19596102116 1.04705974559e-06 0)
(1.19596121402 2.15312873818e-06 0)
(1.19596134617 2.85478507733e-06 0)
(1.19596147433 3.33854674414e-06 0)
(1.19596158605 3.67147974198e-06 0)
(1.19596165402 3.922033058e-06 0)
(1.19596166777 4.1433020372e-06 0)
(1.1959616274 4.36682855589e-06 0)
(1.1959615336 4.60875104215e-06 0)
(1.19596138505 4.87542832881e-06 0)
(1.19596117802 5.16685709396e-06 0)
(1.19596090522 5.4772562121e-06 0)
(1.19596056659 5.79111083995e-06 0)
(1.19596018691 6.09530629924e-06 0)
(1.19595978754 6.40628802025e-06 0)
(1.19595937213 6.74306095535e-06 0)
(1.19595895549 7.10290307953e-06 0)
(1.19595856563 7.47190615909e-06 0)
(1.19595824284 7.82715711331e-06 0)
(1.1959580447 8.13300684717e-06 0)
(1.19595805108 8.33390376529e-06 0)
(1.1959583617 8.34387570108e-06 0)
(1.19595906122 8.03472010744e-06 0)
(1.19596009767 7.22098359143e-06 0)
(1.19596139279 5.5450948794e-06 0)
(1.19596348125 2.11091696393e-06 0)
(1.19596804219 -3.56046695131e-06 0)
(1.19597568029 -1.28733192061e-05 0)
(1.19598638325 -2.83683454752e-05 0)
(1.19600175422 -5.31723626112e-05 0)
(1.1960240993 -9.24643323892e-05 0)
(1.19605634194 -0.000154654445447 0)
(1.19610264893 -0.000253255651133 0)
(1.19616904258 -0.000409851889951 0)
(1.19626420831 -0.000659037171241 0)
(1.19640040206 -0.00105649879619 0)
(1.19659413473 -0.00169244350817 0)
(1.19686588583 -0.00271395972837 0)
(1.19723607459 -0.0043628432818 0)
(1.19770970828 -0.00703719854313 0)
(1.19823430165 -0.0113861321579 0)
(1.19859034578 -0.0184398135862 0)
(1.198160293 -0.0297184736007 0)
(1.19567261732 -0.0471652651302 0)
(1.18846908863 -0.0727133703834 0)
(1.170235552 -0.105840061766 0)
(0.998962791627 0.0544286848917 0)
(1.05311098405 0.133373444846 0)
(1.11628283426 0.170695016674 0)
(1.17300580963 0.174969775517 0)
(1.21788847115 0.159275602584 0)
(1.25044260669 0.134465897948 0)
(1.27277699817 0.10771131454 0)
(1.28758312508 0.0829432556069 0)
(1.29716573589 0.061865553075 0)
(1.30324456488 0.0448740143709 0)
(1.30702381094 0.0316972077851 0)
(1.30931572994 0.0217862628462 0)
(1.31065703933 0.0145276366354 0)
(1.3113992295 0.00934596253081 0)
(1.31177156822 0.00574512298505 0)
(1.31192293196 0.00331767100855 0)
(1.31194910843 0.00173971822356 0)
(1.3119105523 0.000760306582683 0)
(1.31184449607 0.000189760079149 0)
(1.31177249507 -0.000112301385952 0)
(1.31170577467 -0.000246272992605 0)
(1.31164946063 -0.000281652457178 0)
(1.31160480243 -0.000264573698325 0)
(1.31157105419 -0.000224097025627 0)
(1.31154657391 -0.000177313749172 0)
(1.31152946624 -0.000133301235511 0)
(1.31151793918 -9.60831857175e-05 0)
(1.31151046569 -6.67143208775e-05 0)
(1.31150584297 -4.46868586031e-05 0)
(1.31150316411 -2.8836399574e-05 0)
(1.31150173886 -1.78505141072e-05 0)
(1.31150103838 -1.05507838363e-05 0)
(1.31150073089 -5.98984602583e-06 0)
(1.3115006317 -3.379592457e-06 0)
(1.31150069738 -1.92848720854e-06 0)
(1.31150099882 -1.00616660963e-06 0)
(1.3115013796 -4.83269697649e-07 0)
(1.31150163419 -1.70864271024e-07 0)
(1.31150178041 2.98621023384e-08 0)
(1.31150187363 1.71341158014e-07 0)
(1.31150192684 2.93574596595e-07 0)
(1.31150193579 4.24208115913e-07 0)
(1.31150189402 5.7986041913e-07 0)
(1.31150179567 7.70041073215e-07 0)
(1.3115016362 1.00124698621e-06 0)
(1.31150141181 1.28164528815e-06 0)
(1.31150112099 1.62655351979e-06 0)
(1.31150077512 2.04828189427e-06 0)
(1.31150040123 2.53176568708e-06 0)
(1.31150000723 3.0477893246e-06 0)
(1.31149958834 3.57946227592e-06 0)
(1.31149915653 4.10431494937e-06 0)
(1.31149873525 4.58540814345e-06 0)
(1.3114983575 4.96566325301e-06 0)
(1.31149806783 5.15853369159e-06 0)
(1.3114979304 5.03464851884e-06 0)
(1.31149805674 4.40806544444e-06 0)
(1.31149860547 3.05277737484e-06 0)
(1.31149948337 8.41882111994e-07 0)
(1.31150092584 -2.39583677746e-06 0)
(1.31150326387 -7.81569145549e-06 0)
(1.31150647331 -1.76478410368e-05 0)
(1.31151075502 -3.39260271178e-05 0)
(1.31151635961 -6.0003960008e-05 0)
(1.31152339934 -0.000101518524406 0)
(1.311531591 -0.000167321398991 0)
(1.31153999533 -0.000271345163583 0)
(1.31154646336 -0.000435644152307 0)
(1.31154665568 -0.000695241463048 0)
(1.31153204435 -0.0011057336862 0)
(1.31148594035 -0.0017556708052 0)
(1.31137600574 -0.00278632732947 0)
(1.31113955904 -0.00442241220019 0)
(1.31065430738 -0.00701777606977 0)
(1.30968239266 -0.0111170498509 0)
(1.30776371887 -0.0175227201529 0)
(1.30403582003 -0.0273134390729 0)
(1.29707576741 -0.0416937751866 0)
(1.28460891679 -0.0615669340502 0)
(1.26241975816 -0.0861626198358 0)
(0.995736502038 0.0346307655355 0)
(1.04179381247 0.0905435504342 0)
(1.10221553535 0.121477337904 0)
(1.1648709344 0.129455287646 0)
(1.221922351 0.121744658725 0)
(1.26931355753 0.105604993132 0)
(1.30644112446 0.0865004648885 0)
(1.33441527646 0.0678356981498 0)
(1.3548773132 0.0513583976536 0)
(1.36947363225 0.0377157142432 0)
(1.37964487068 0.0269209155896 0)
(1.38656286659 0.0186748004971 0)
(1.39114050129 0.0125611130446 0)
(1.39406963017 0.00815285691653 0)
(1.39586397358 0.00506291998315 0)
(1.3968980404 0.00296311430028 0)
(1.39743963642 0.00158689824524 0)
(1.39767597474 0.00072460249951 0)
(1.39773448452 0.000215887271831 0)
(1.39769874882 -5.87950152802e-05 0)
(1.39762106249 -0.000185564321485 0)
(1.39753227242 -0.000224581360166 0)
(1.3974488054 -0.000216039815512 0)
(1.39737804035 -0.000185469855941 0)
(1.39732201038 -0.0001480617077 0)
(1.39727988224 -0.00011203422521 0)
(1.39724953494 -8.11684855325e-05 0)
(1.39722849214 -5.66126676543e-05 0)
(1.39721442415 -3.81066133106e-05 0)
(1.39720536393 -2.4763307002e-05 0)
(1.3971997532 -1.55150053668e-05 0)
(1.39719642311 -9.32456932305e-06 0)
(1.39719458215 -5.26949507876e-06 0)
(1.39719372802 -2.63127912567e-06 0)
(1.39719345972 -8.74118956798e-07 0)
(1.39719338554 2.56205022099e-07 0)
(1.39719340792 8.88419222032e-07 0)
(1.39719356625 1.22305531815e-06 0)
(1.39719375545 1.43329159705e-06 0)
(1.39719391766 1.60092387133e-06 0)
(1.39719403753 1.76389883492e-06 0)
(1.3971941089 1.94310328594e-06 0)
(1.39719412763 2.15084208095e-06 0)
(1.39719409107 2.3948650241e-06 0)
(1.39719399846 2.68112487289e-06 0)
(1.39719385126 3.01545941621e-06 0)
(1.39719365299 3.40534454748e-06 0)
(1.3971934039 3.85865401349e-06 0)
(1.39719309092 4.37044917405e-06 0)
(1.39719271589 4.91303665721e-06 0)
(1.39719229969 5.47084245681e-06 0)
(1.39719185534 6.02524846415e-06 0)
(1.39719139663 6.54520072418e-06 0)
(1.39719094256 6.98172518652e-06 0)
(1.39719051629 7.26018964807e-06 0)
(1.39719014002 7.2688845591e-06 0)
(1.39718982533 6.83702705537e-06 0)
(1.3971895731 5.68320455341e-06 0)
(1.39718934757 3.40925873952e-06 0)
(1.39718886731 -1.13059539578e-07 0)
(1.39718815263 -6.04419892773e-06 0)
(1.39718710898 -1.60253901622e-05 0)
(1.39718488511 -3.20106183945e-05 0)
(1.39718027556 -5.71918086113e-05 0)
(1.39717129026 -9.66367378028e-05 0)
(1.39715439332 -0.000158269699954 0)
(1.39712350145 -0.000254478850115 0)
(1.39706834895 -0.00040470246739 0)
(1.39697192933 -0.000639496800611 0)
(1.39680595989 -0.0010065645994 0)
(1.39652296751 -0.00158050462794 0)
(1.39604338385 -0.00247785429932 0)
(1.39523398858 -0.00387882023298 0)
(1.39387167507 -0.00605688353962 0)
(1.39158497561 -0.00941355268447 0)
(1.38776238668 -0.0145056411867 0)
(1.38142497381 -0.0220251829145 0)
(1.37115069037 -0.0326581637747 0)
(1.355000315 -0.046780564336 0)
(1.3298995114 -0.0637547416598 0)
(0.994011954513 0.0192335131659 0)
(1.03484415845 0.0523163137734 0)
(1.09196943056 0.072313963781 0)
(1.15655216413 0.0790273966794 0)
(1.22015487483 0.075926174815 0)
(1.27669569877 0.067054919679 0)
(1.32368272713 0.0557500668058 0)
(1.36092272858 0.0442619954413 0)
(1.38935951022 0.0338528362358 0)
(1.41040192058 0.0250712810622 0)
(1.42553660347 0.0180243877445 0)
(1.43612419155 0.0125825992679 0)
(1.44331671964 0.00851332757221 0)
(1.44804288443 0.00555858015969 0)
(1.45102538453 0.00347500014116 0)
(1.45281066282 0.00205124583353 0)
(1.45380111124 0.00111291892546 0)
(1.45428513555 0.000521302355471 0)
(1.45446342698 0.00016943132014 0)
(1.45447073321 -2.28988276144e-05 0)
(1.45439362528 -0.000113751036202 0)
(1.45428481651 -0.000143985806817 0)
(1.45417395865 -0.00014098518859 0)
(1.45407571195 -0.000122236521796 0)
(1.45399560523 -9.82234102894e-05 0)
(1.45393403588 -7.46836491593e-05 0)
(1.4538888695 -5.43162032403e-05 0)
(1.45385702714 -3.80045760771e-05 0)
(1.45383537962 -2.56499535417e-05 0)
(1.45382117615 -1.66954521596e-05 0)
(1.45381219239 -1.04407967868e-05 0)
(1.45380673943 -6.20103966524e-06 0)
(1.45380360683 -3.38542459454e-06 0)
(1.45380194438 -1.56851405804e-06 0)
(1.45380115065 -4.69513523693e-07 0)
(1.45380088201 1.66038776016e-07 0)
(1.45380090764 6.36251726159e-07 0)
(1.45380104936 9.78967215526e-07 0)
(1.45380123527 1.23334992635e-06 0)
(1.45380142236 1.44982384348e-06 0)
(1.45380158531 1.66370217591e-06 0)
(1.4538017087 1.89612431234e-06 0)
(1.45380178309 2.15914238333e-06 0)
(1.4538018031 2.45920400816e-06 0)
(1.4538017661 2.79960633851e-06 0)
(1.45380167116 3.18141634936e-06 0)
(1.45380151861 3.60325955113e-06 0)
(1.45380130929 4.06065832044e-06 0)
(1.4538010408 4.5506635927e-06 0)
(1.45380071268 5.08062199548e-06 0)
(1.45380032738 5.63917793561e-06 0)
(1.45379988434 6.20219135745e-06 0)
(1.45379938228 6.73297791897e-06 0)
(1.45379881825 7.17666737391e-06 0)
(1.45379818462 7.45228918188e-06 0)
(1.45379746559 7.44318730193e-06 0)
(1.45379663319 6.98682180229e-06 0)
(1.4537956602 5.86319921014e-06 0)
(1.4537945627 3.78235323928e-06 0)
(1.45379293514 4.75010802669e-07 0)
(1.45378984732 -4.41111245352e-06 0)
(1.45378459902 -1.27364343234e-05 0)
(1.45377610208 -2.61270407333e-05 0)
(1.45376205387 -4.70263855748e-05 0)
(1.45373868422 -7.92425218747e-05 0)
(1.45369972077 -0.000128672782042 0)
(1.45363484127 -0.000204340229602 0)
(1.45352716998 -0.000320239633056 0)
(1.45334962452 -0.000498314506694 0)
(1.45305859117 -0.000771914902707 0)
(1.45258319896 -0.00119183836699 0)
(1.4518090858 -0.00183585282488 0)
(1.45055330168 -0.00282098213728 0)
(1.44852565039 -0.00431895443702 0)
(1.44527262749 -0.00657164269441 0)
(1.44010104949 -0.00989725152531 0)
(1.43198887498 -0.0146641050901 0)
(1.41955883116 -0.0211953692863 0)
(1.40109477699 -0.0296002856969 0)
(1.37411506444 -0.0394609128139 0)
(0.99327009881 0.00616928945596 0)
(1.03157636973 0.0170958050264 0)
(1.08669296162 0.0239732513362 0)
(1.1516576727 0.0265247158772 0)
(1.21803448967 0.0257551731918 0)
(1.2788689686 0.0229505973318 0)
(1.33072988281 0.0192245474002 0)
(1.37271117006 0.0153579433412 0)
(1.40533311596 0.0118066634977 0)
(1.4298249747 0.00878154203232 0)
(1.44765721762 0.00633634811639 0)
(1.46026475623 0.00443754903471 0)
(1.46891242484 0.00301138632804 0)
(1.47464846254 0.00197209178139 0)
(1.47830504247 0.00123694984062 0)
(1.48052085275 0.000733187132238 0)
(1.48177171424 0.000400242182671 0)
(1.48240193875 0.000189662918298 0)
(1.48265310655 6.39274780072e-05 0)
(1.482688803 -5.20516797957e-06 0)
(1.48261504482 -3.8219848535e-05 0)
(1.48249706411 -4.95935036968e-05 0)
(1.48237220337 -4.90339804328e-05 0)
(1.48225941179 -4.2753538166e-05 0)
(1.48216633575 -3.44879758388e-05 0)
(1.482094178 -2.62933372092e-05 0)
(1.48204087745 -1.91498303539e-05 0)
(1.48200307115 -1.33919976938e-05 0)
(1.48197721785 -8.99621598161e-06 0)
(1.48196015046 -5.78242786078e-06 0)
(1.48194928013 -3.51351934603e-06 0)
(1.48194262459 -1.95361996747e-06 0)
(1.48193874305 -8.9999555882e-07 0)
(1.4819366289 -2.0322654943e-07 0)
(1.48193560578 2.59008081183e-07 0)
(1.48193522702 5.98340947358e-07 0)
(1.48193519306 8.3673006113e-07 0)
(1.48193532634 1.02870710924e-06 0)
(1.48193553281 1.20765053026e-06 0)
(1.48193575634 1.39475191244e-06 0)
(1.48193596404 1.60333327784e-06 0)
(1.48193613701 1.84214720513e-06 0)
(1.48193626438 2.11732164389e-06 0)
(1.48193634035 2.4331867559e-06 0)
(1.48193636232 2.79312049954e-06 0)
(1.48193632919 3.19975636217e-06 0)
(1.48193624028 3.65487810139e-06 0)
(1.48193609407 4.15833196878e-06 0)
(1.48193588624 4.70720133809e-06 0)
(1.48193561183 5.2974508702e-06 0)
(1.48193526602 5.91697364515e-06 0)
(1.4819348409 6.54621265514e-06 0)
(1.48193432445 7.15561621669e-06 0)
(1.48193369806 7.70107669368e-06 0)
(1.48193293202 8.11853159788e-06 0)
(1.48193197811 8.31644990069e-06 0)
(1.48193075805 8.1642387021e-06 0)
(1.48192916075 7.47354167599e-06 0)
(1.48192709456 5.94982232698e-06 0)
(1.48192418064 3.15372791537e-06 0)
(1.48191909892 -9.211679585e-07 0)
(1.48191067455 -6.66694021833e-06 0)
(1.48189750428 -1.57039167658e-05 0)
(1.48187651983 -2.98532356491e-05 0)
(1.48184279896 -5.0908904513e-05 0)
(1.48178839407 -8.17977517429e-05 0)
(1.48170040812 -0.000126963216316 0)
(1.48155777619 -0.000193524537117 0)
(1.48132741059 -0.000293175219807 0)
(1.48095727977 -0.000440902817028 0)
(1.48036378376 -0.000656775267773 0)
(1.47941411769 -0.000970987760369 0)
(1.47790034797 -0.00142687647024 0)
(1.47550068484 -0.00208401180872 0)
(1.47172646961 -0.00301981498128 0)
(1.46585541807 -0.0043257770149 0)
(1.4568617995 -0.00609055168953 0)
(1.44340830645 -0.00836055170777 0)
(1.42388649665 -0.0110917891183 0)
(1.39607342892 -0.0140725354185 0)
(0.993270896145 -0.00616761138098 0)
(1.03157635097 -0.017094117027 0)
(1.08669289232 -0.0239723149411 0)
(1.15165770693 -0.0265242346848 0)
(1.21803456572 -0.0257550391389 0)
(1.27886906946 -0.0229507481831 0)
(1.33073000664 -0.0192248873038 0)