/*--------------------------------*- C++ -*----------------------------------*\
| =========                 |                                                 |
| \\      /  F ield         | OpenFOAM: The Open Source CFD Toolbox           |
|  \\    /   O peration     | Version:  2106                                  |
|   \\  /    A nd           | Website:  www.openfoam.com                      |
|    \\/     M anipulation  |                                                 |
\*---------------------------------------------------------------------------*/
FoamFile
{
    version     2.0;
    format      ascii;
    arch        "LSB;label=32;scalar=64";
    class       volScalarField;
    location    "0.425";
    object      p;
}
// * * * * * * * * * * * * * * * * * * * * * * * * * * * * * * * * * * * * * //

dimensions      [0 2 -2 0 0 0 0];

internalField   nonuniform List<scalar> 
11200
(
150.096228064
147.167625948
146.053773972
145.52644104
145.159109293
144.86432875
144.602682799
144.35414224
144.109621751
143.864551541
143.61623431
143.362915239
143.103362262
142.836639833
142.561981211
142.27871316
141.986210052
141.683866041
141.371082354
141.047270781
140.711807439
140.364043089
140.003319166
139.628967673
139.240303023
138.836624004
138.417214592
137.981344573
137.528270222
137.057234889
136.567469544
136.058193275
135.528613471
134.977926067
134.405316253
133.809959732
133.191022611
132.547661543
131.879024161
131.18424942
130.462467845
129.712801722
128.934365204
128.126264431
127.287597495
126.417454304
125.514916182
124.579055177
123.608933015
122.60359949
121.562090301
120.483424157
119.366599015
118.210587234
117.014329401
115.776726435
114.496629677
113.172828402
111.804034082
110.388860634
108.925799344
107.413187345
105.849167203
104.231638566
102.558191473
100.826020857
99.0318163323
97.1716178641
95.2406212906
93.2329117454
91.1410999362
88.9558261531
86.6648915529
84.2521097667
81.695394851
78.9630865665
76.0075847303
72.7563118668
69.055536504
64.2922401463
148.303186287
146.945011791
146.154039138
145.654023068
145.263032765
144.939148027
144.654624666
144.390020194
144.134530037
143.882005646
143.628619545
143.371858014
143.109983953
142.841720936
142.566068667
142.282192514
141.989355266
141.686874212
141.374090939
141.050343561
140.714981696
140.36732963
140.006743428
139.632554834
139.244067838
138.840575521
138.421359033
137.985686335
137.53281241
137.061979615
136.572417914
136.063344822
135.533965873
134.983480621
134.411076202
133.815928353
133.197202925
132.554056538
131.885636849
131.191082911
130.469525386
129.720086758
128.94188149
128.134016137
127.295589343
126.425691746
125.523405638
124.587804292
123.617950968
122.612897377
121.571681603
120.49332532
119.376830171
118.221173098
117.025300362
115.788119936
114.508491905
113.185216424
111.817018459
110.40252882
108.940260293
107.428577677
105.865657208
104.249436014
102.577546415
100.847248279
99.0553260649
97.1979423229
95.2704575984
93.267187059
91.1810616864
89.0031249737
86.7218293854
84.3220390353
81.7833588071
79.0772804971
76.1630061307
72.9827022829
69.4335807984
65.3207944929
147.30799606
146.653795224
146.10143829
145.663818772
145.292192905
144.970088985
144.680986934
144.410750883
144.150285741
143.893802497
143.637416002
143.378444422
143.114975656
142.845582774
142.569144837
142.284733414
141.99153905
141.688823254
141.375887795
141.052055741
140.716664842
140.369075274
140.00854284
139.634413768
139.245995969
138.842579973
138.423444627
137.987856809
137.535071189
137.064330336
136.574865086
136.065895223
135.536629638
134.986260704
134.413970477
133.818937124
133.200327624
132.557299127
131.889000143
131.194570555
130.473141901
129.723837558
128.945773083
128.138056326
127.299787499
126.430059163
125.527955949
124.592554008
123.622920102
122.618110223
121.577167721
120.499120733
119.382978809
118.227728568
117.03232807
115.795699708
114.51672128
113.194214762
111.826932116
110.413537318
108.952583331
107.442483328
105.881473257
104.267584887
102.59858097
100.871867528
99.0844029989
97.2325888681
95.312111014
93.3177308239
91.2429986084
89.0798515249
86.8181947955
84.4451127829
81.9438849731
79.2926518826
76.4634409775
73.424638442
70.140268601
66.5873146103
146.758234842
146.394853063
145.994953777
145.625961438
145.288342401
144.980237349
144.694871278
144.42416454
144.161789692
143.90311962
143.644736131
143.38410755
143.119333986
142.848948207
142.571774264
142.286829821
141.993258723
141.690284905
141.377181271
141.053247823
140.717793458
140.370127804
140.009609481
139.635515229
139.247134349
138.843759246
138.424668519
137.989127801
137.536390626
137.065698546
136.576281217
136.067356606
135.53813186
134.987805104
134.415566053
133.820589113
133.202042262
132.559083392
131.890860063
131.196512613
130.47517337
129.725966705
128.948009604
128.140411778
127.302275788
126.432697112
125.530763954
124.595556855
123.626147928
122.621599661
121.580963229
120.503276318
119.38756019
118.232815793
117.038018841
115.80211358
114.524004862
113.20254792
111.836535714
110.424682592
108.965607446
107.457811611
105.899634951
104.289217957
102.624459475
100.90296108
99.1219475257
97.2781667328
95.3677655983
93.386134181
91.3277154252
89.1857799017
86.9520961265
84.6166225365
82.1672707184
79.5899432419
76.8698958473
73.997422647
70.9761229529
67.8431775409
146.424186865
146.19239093
145.89097722
145.57999816
145.275156158
144.983129985
144.704151521
144.435022549
144.172059403
143.91197181
143.651999199
143.389904021
143.123893691
142.852519169
142.574583882
142.289071041
141.995088174
141.69182619
141.378529804
141.054476342
140.718960772
140.37128659
140.010757292
139.636662205
139.248304195
138.844967047
138.425924121
137.990438624
137.537762733
137.067137442
136.577792471
136.068946456
135.539807046
134.989570723
134.417423433
133.822541458
133.204090318
132.561228155
131.893105801
131.198864079
130.477637726
129.728553442
128.950730671
128.143281881
127.305312924
126.435923164
125.534205468
124.599245995
123.630123629
122.625908985
121.5856638
120.508438414
119.39326947
118.239176652
117.045158416
115.810186131
114.533197272
113.213088024
111.848700533
110.438815588
108.98213022
107.477232933
105.922586405
104.316496139
102.657068611
100.942161998
99.1693288401
97.3357472129
95.4381375392
93.4726655543
91.4348344849
89.3193797843
87.1201931667
84.8303562313
82.4424486592
79.9494617929
77.3471998336
74.6401052811
71.8495381985
69.0261941091
146.220794345
146.044891834
145.803695774
145.536368037
145.259178641
144.982537648
144.71084514
144.444340636
144.181572537
143.920560641
143.659269883
143.395833078
143.128624697
142.856253937
142.57752802
142.291409408
141.99697622
141.69338918
141.379865582
141.055659569
140.720047611
140.372317666
140.011760195
139.637665396
139.249322719
138.846011519
138.427002496
137.991556797
137.538925092
137.0683471
136.579051545
136.070256225
135.541168226
134.990984164
134.418890642
133.824064951
133.205675717
132.562882867
131.894837981
131.200685591
130.479561289
129.730592529
128.952900846
128.145601248
127.307803089
126.438610273
125.537121316
124.602429242
123.633621351
122.62977883
121.589975145
120.513275397
119.398734223
118.245393274
117.05227815
115.818394763
114.542724758
113.224215267
111.861776102
110.454256849
109.000442095
107.499039527
105.948665683
104.347804503
102.694789027
100.98776951
99.2246751192
97.4031721872
95.5206207358
93.574034921
91.5600585673
89.4749800936
87.3148333282
85.0756772732
82.7542273588
80.3491322233
77.8634596881
75.3093639023
72.7137925827
70.1238410783
146.097677532
145.942069462
145.735766399
145.499202469
145.24372515
144.980443452
144.715828086
144.452317447
144.190182257
143.928594558
143.666220167
143.40158244
143.133251531
142.859918915
142.580412532
142.293684952
141.998791403
141.694866175
141.381101282
141.056728765
140.72100668
140.373208457
140.01261514
139.638509129
139.250171583
138.846876882
138.427892861
137.992478464
137.53988284
137.069344832
136.58009276
136.071344398
135.542307101
134.992178223
134.420145604
133.825387453
133.207072823
132.56436248
131.896408841
131.202355632
130.481338355
129.732488319
128.954931368
128.147786973
127.310169177
126.44118723
125.539946055
124.605546494
123.637085346
122.633655143
121.5943435
120.518232858
119.404399032
118.251909494
117.059820969
115.827176161
114.552999366
113.236296259
111.876040122
110.471171909
109.020590033
107.523134505
105.977576226
104.382602761
102.736802423
101.038646047
99.2864693116
97.4784583832
95.6126435135
93.6869102283
91.6990442193
89.6468395168
87.5283168529
85.3421437771
83.0883893137
80.7698111658
78.3939581081
75.9764281658
73.5440964297
71.1363171385
146.02359783
145.87358729
145.686830493
145.47072346
145.231015517
144.978192393
144.71955357
144.458813891
144.197445878
143.935523015
143.672304282
143.406666105
143.137367888
142.863188394
142.582984206
142.29570562
142.000391282
141.69615398
141.382164205
141.057634743
140.72180752
140.373943065
140.013312324
139.639189687
139.250851436
138.847566977
138.42860137
137.993211496
137.540645133
137.070140314
136.580924961
136.072216776
135.54322332
134.993142203
134.421161439
133.826459753
133.208207008
132.565564421
131.897685333
131.203716347
130.482799249
129.734067331
128.956647252
128.149661953
127.312230232
126.443467223
125.542484973
124.608392904
123.640298215
122.637306171
121.59852036
120.523041924
119.409969344
118.258397809
117.067418103
115.836115333
114.563566953
113.248838345
111.890983092
110.489031488
109.041992553
107.548846897
106.008540095
104.419975366
102.78200836
101.093443675
99.3530357714
97.5594986987
95.7115309535
93.807867537
91.8473760422
89.8292266582
87.7531736876
85.6200295305
83.4324078047
81.195841928
78.9203679127
76.6225898857
74.3271870611
72.0661651397
145.981321438
145.83187336
145.655456695
145.451717025
145.222182758
144.976472864
144.722111585
144.463472178
144.202764584
143.940669661
143.676871343
143.410511615
143.140498852
142.865684396
142.584951587
142.297252364
142.001614827
141.697136551
141.382972236
141.058320288
140.722410459
140.37449341
140.013832389
139.639696756
139.251355381
138.848077623
138.42912544
137.993753964
137.541209981
137.070730956
136.58154455
136.072868464
135.543910488
134.993868647
134.421931522
133.827278659
133.209081018
132.566501556
131.898695989
131.204813048
130.483993233
129.735373476
128.958085437
128.151256465
127.314010471
126.445468824
125.544751168
124.610976197
123.64326238
122.640728587
121.602494607
120.527681641
119.415412674
118.264812692
117.075008592
115.845128996
114.574303642
113.261664395
111.906341888
110.507467312
109.064169413
107.575574561
106.040806937
104.458989801
102.829250054
101.15072731
99.4225908632
97.6440694194
95.8144999039
93.9334094203
92.0006431087
90.0165678431
87.9823787424
85.9005672933
83.7755800235
81.6147122226
79.429213672
77.2354951468
75.0556000775
72.9157055254
145.962044975
145.812166724
145.640202709
145.442265835
145.217702974
144.975582464
144.723446137
144.465936325
144.205608546
143.9434468
143.679355651
143.4126192
143.142227749
142.8670738
142.586056753
142.298130538
142.002318233
141.697709567
141.383450898
141.058732947
140.722778916
140.374834148
140.014157657
139.64001551
139.251675217
138.84840343
138.429461147
137.994102784
137.541574684
137.071114191
136.581948956
136.073296892
135.544366173
134.994355398
134.422453897
133.827842157
133.209692309
132.567168612
131.899427892
131.205620274
130.484890608
129.736378233
128.959218102
128.152541884
127.315478871
126.447156966
125.546703708
124.61324736
123.645917973
122.643848473
121.606175749
120.532041753
119.420594651
118.270990023
117.082392037
115.853974987
114.584924354
113.274437878
111.921728325
110.526026377
109.0865804
107.602663853
106.073580386
104.498672133
102.877333116
101.20902901
99.4933269399
97.7299402941
95.9187942661
94.0601264501
92.1546289911
90.2036711993
88.2095930191
86.1761479799
84.1090439416
82.0166257644
79.9106164184
77.8067692372
75.7247733744
73.6865512216
145.962047547
145.812182764
145.640229675
145.442302005
145.217747577
144.975634673
144.723505034
144.466001095
144.205678507
143.94352139
143.679434422
143.412701803
143.142313925
142.867163359
142.58614957
142.298226546
142.002417407
141.697811936
141.383556549
141.058842026
140.722891646
140.374950839
140.014278719
139.640141474
139.251806794
138.848541365
138.429606363
137.994256413
137.541738104
137.071288944
136.582137038
136.073500771
135.544588851
134.994600517
134.422725871
133.828146303
133.210035023
132.56755763
131.899872793
131.206132936
130.485484985
129.737071277
128.960030518
128.153498887
127.316611133
126.448501757
125.548306298
124.61516271
123.648212784
122.646603667
121.609489505
120.536033199
119.425408382
118.27680149
117.089414191
115.862466033
114.595197435
113.286872549
111.936785545
110.544267138
109.108683486
107.629452742
106.106053813
104.538040753
102.925063464
101.266894676
99.5634671906
97.8149303713
96.0217296559
94.1847149932
92.3053142099
90.3858299772
88.4293766262
86.4405752935
84.4259415313
82.3943767958
80.3576666413
78.3308277988
76.331761889
74.3795606109
145.981329208
145.831921858
145.655538196
145.451826284
145.222317434
144.976630262
144.722288922
144.463667027
144.20297491
143.940893788
143.677107934
143.410759634
143.140757526
142.865953171
142.585230091
142.297540387
142.001912315
141.697443597
141.383289097
141.058647407
140.722748499
140.374843287
140.014195302
139.640074321
139.25174963
138.848490776
138.429560217
137.994213675
137.541698618
137.07125336
136.582106659
136.073477546
135.544575415
134.994600242
134.422742959
133.828185927
133.210103512
132.567662687
131.900023765
131.206341148
130.485764202
129.737438278
128.960505754
128.154107237
127.317382866
126.449473658
125.549523055
124.616678566
123.650093551
122.648929163
121.612356543
120.539559205
119.429735792
118.282103023
117.095899418
115.870388989
114.604866146
113.298660634
111.951144905
110.561742126
109.129938682
107.655288331
106.137434962
104.576130399
102.971259885
101.322879009
99.6312730012
97.8970276366
96.1210319972
94.3046608885
92.44989199
90.5594076955
88.6371844445
86.6884814889
84.7202902308
82.7417635646
80.7645741633
78.8031255655
76.8741335856
74.9950369709
146.023610989
145.873669372
145.686968189
145.470907657
145.231242109
144.978456722
144.719850908
144.459140156
144.19779767
143.935897549
143.672699347
143.407079997
143.137799338
142.863636498
142.583448362
142.296185499
142.000886812
141.696665328
141.382691802
141.058179331
140.722370222
140.374525407
140.013916213
139.639817866
139.25150688
138.848253512
138.429323515
137.993974682
137.541455914
137.071006665
136.581856622
136.073225631
135.544323867
134.994352099
134.422502107
133.827957221
133.209892926
132.567477542
131.899872977
131.206235569
130.485717056
129.737465679
128.960627342
128.154346933
127.317769779
126.450043182
125.550318193
124.617751522
123.651507659
122.650761236
121.614699715
120.542526417
119.433463953
118.286758055
117.101682368
115.877543318
114.613686591
113.309504105
111.964442071
110.578014035
109.149810782
107.679519485
106.166939909
104.612011791
103.014849069
101.375766455
99.6953188263
97.974363993
96.2142220398
94.416707996
92.5842768997
90.720190246
88.8287566591
86.9155781425
84.9878731257
83.0548132835
81.1278388312
79.2208949238
77.3501125628
75.5324043399
146.097696454
145.942187278
145.735963369
145.499465015
145.244047082
144.98081793
144.716248316
144.452777642
144.190677641
143.929121259
143.666775125
143.402163311
143.133856578
142.860546905
142.581062652
142.294356766
141.999484812
141.695581401
141.381838899
141.057489757
140.721792554
140.374021348
140.013457811
139.63938513
139.251085077
138.847833068
138.428897948
137.993539882
137.541009563
137.070547806
136.581385377
136.072743041
135.543831786
134.993853184
134.421999846
133.827456013
133.209398219
132.56699605
131.899412949
131.205807119
130.485332554
129.737140205
128.960379273
128.154198656
127.317748523
126.450182062
125.550657453
124.618340026
123.652404694
122.652038711
121.616444804
120.544844803
119.436483675
118.290634289
117.106602931
115.883735596
114.621425568
113.31912238
111.976342332
110.592680032
109.167826824
107.701586816
106.193898819
104.644862731
103.054770483
101.424160379
99.7538674541
98.0450750973
96.2993946369
94.5189679099
92.7065929982
90.8658697666
89.0013797757
87.1188971517
85.2256509311
83.3306244615
81.444896581
79.5820355803
77.7580507285
75.9903496279
146.220819696
146.045049088
145.803957222
145.536714724
145.259601807
144.983027959
144.711393586
144.444939687
144.18221606
143.92124371
143.659988644
143.396584598
143.129406812
142.857065123
142.57836728
142.292276194
141.997870369
141.69431087
141.380815339
141.0566383
140.721056598
140.373358894
140.012838276
139.63878636
139.250491338
138.84723368
138.428285661
137.992909994
137.540359284
137.069875779
136.580691358
136.072027705
135.543096627
134.993100477
134.421232677
133.826678314
133.208614826
132.566212875
131.898637243
131.205047815
130.484600688
129.736449368
128.959746126
128.15364356
127.317296264
126.449862765
125.550507694
124.618404187
123.652736606
122.652703638
121.617521824
120.546429733
119.438692475
118.293607396
117.110510098
115.888782166
114.627859714
113.32724369
111.986512019
110.605334134
109.183487841
107.720879973
106.217571875
104.673809935
103.090060831
101.467053144
99.8058299738
98.1078126249
96.3748757885
94.6094325804
92.8145380955
90.994009609
89.1525707908
87.2960123417
85.4313952887
83.5673128764
81.7142789781
79.8853734215
78.0966261381
76.3667096757
146.424219324
146.192592479
145.891309632
145.580436004
145.275687413
144.9837424
144.704833717
144.435765244
144.172855168
143.912814762
143.652884783
143.390828813
143.124855219
142.853515755
142.575614522
142.290135294
141.996186078
141.692958117
141.379696319
141.0556783
140.720199649
140.372563587
140.012074606
139.638033418
139.249733465
138.846460282
138.427489592
137.992086579
137.539505651
137.06899039
136.579773695
136.071078074
135.54211609
134.992090826
134.420196469
133.825618975
133.207536767
132.565121573
131.897539359
131.203951322
130.483515115
129.735386279
128.95871972
128.152671229
127.316399316
126.449067264
125.54984543
124.617913838
123.652465139
122.652708021
121.617871194
120.547207949
119.440001133
118.295569535
117.113274582
115.89252892
114.632805069
113.333648082
111.99468895
110.615660221
109.196415162
107.73695019
106.237431492
104.698226648
103.119942047
101.503467165
99.8500254218
98.1612331597
96.4391691154
94.6864511255
92.9063210135
91.1027365774
89.2804720864
87.4452245842
85.6037454899
83.7640288109
81.9356958267
80.1309006545
78.3651585155
76.6583240444
146.758274423
146.395102568
145.995359661
145.626490834
145.288979336
144.980966169
144.695678121
144.42503842
144.162721972
143.904103559
143.645766585
143.385180723
143.120447233
142.85009989
142.572963681
142.288057191
141.994525246
141.691592711
141.378533001
141.054647085
140.719249246
140.371655847
140.011182769
139.6371373
139.248819279
138.845518536
138.426513898
137.991072838
137.538451313
137.067893966
136.578634512
136.069896122
135.540891856
134.99082521
134.418890794
133.824275172
133.206157679
132.563711028
131.89610234
131.20249442
130.482046933
129.733917023
128.957261753
128.151239564
127.315012138
126.447746581
125.548617893
124.616811764
123.65152778
122.651982963
121.617415915
120.547091846
119.440308114
118.296400937
117.114752742
115.894801493
114.636051775
113.338085866
112.000578548
110.623314612
109.206209111
107.749331109
106.252931705
104.717476911
103.143685847
101.532575139
99.8855096024
98.2042591283
96.4910613756
94.7486886501
92.9805168823
91.1905927365
89.3836925374
87.5653678249
85.7419829839
83.9207551379
82.1099869292
80.3200597825
78.5641892904
76.861028705
147.308047583
146.654106834
146.101927657
145.66444505
145.292936444
144.970930851
144.68191104
144.411744772
144.151339716
143.894909002
143.638569225
143.37963996
143.11621023
142.846854001
142.570451086
142.286073837
141.992913966
141.690235077
141.377341293
141.053557161
140.718214536
140.370643094
140.010163813
139.636096481
139.24774569
138.844404512
138.425354318
137.989864434
137.537192312
137.066583587
136.577272692
136.068483428
135.539429434
134.989314758
134.417334505
133.822675362
133.204515787
132.562029762
131.894385284
131.200745695
130.480271236
129.732121244
128.955454692
128.149432159
127.313217913
126.445982167
125.54690364
124.615172449
123.649993322
122.650589652
121.616208132
120.546123533
119.439644729
118.296121575
117.11495313
115.895596797
114.637579321
113.340511099
112.004100508
110.628172022
109.212687579
107.757771556
106.263739929
104.731134022
103.16075928
101.553729427
99.9115160667
98.236002984
96.5295434064
94.7950232518
93.0359161569
91.2563321824
89.4610443383
87.6554815981
85.8456612757
84.0379713757
82.2390728058
80.456525307
78.6974435224
76.9705241803
148.303285183
146.945468793
146.154720937
145.654876858
145.264035471
144.940278925
144.655866822
144.391360619
144.135958632
143.883514501
143.630202461
143.37351006
143.111701021
142.843499289
142.567904493
142.284081525
141.991292193
141.688852042
141.376103871
141.052399032
140.717078012
140.369491207
140.008986666
139.634881021
139.246482626
138.843087928
138.423979941
137.988426966
137.535688152
137.06501064
136.575629482
136.066768813
135.537642547
134.987455019
134.415401713
133.820670236
133.202441873
132.559889548
131.892181344
131.198481521
130.477951487
129.729751104
128.95304037
128.14698127
127.310739793
126.443488227
125.544407802
124.612691688
123.647548461
122.648206038
121.613916262
120.543960168
119.437654342
118.294357862
117.113481
115.894494958
114.636943767
113.340456492
112.004764173
110.629718568
109.21531386
107.761712107
106.269272857
104.738587309
103.170517439
101.566240383
99.9272977166
98.2556473528
96.5537156959
94.8244773394
93.0714803066
91.2988929122
89.511520056
87.7147791596
85.9145673019
84.116751191
82.326860403
80.5496579319
78.7799471556
76.9882256236
150.096393669
147.168295334
146.054766289
145.527694142
145.160593016
144.866018542
144.604560145
144.356193657
144.111837429
143.866924549
143.618760077
143.36559123
143.106187827
142.839616197
142.565111547
142.282002618
141.989665669
141.687496125
141.374891471
141.051244277
140.715949079
140.368366033
140.00782619
139.633664324
139.245198329
138.841729072
138.422542836
137.986914737
137.53410252
137.063351835
136.573897772
136.064964619
135.535766361
134.985507374
134.413383137
133.818580983
133.200281028
132.557657184
131.889878202
131.196108699
130.475510478
129.727244011
128.950470014
128.14435128
127.308054735
126.440753773
125.541630945
124.609880994
123.644714428
122.64536144
121.61107667
120.541144483
119.434885499
118.291663612
117.110894715
115.892056629
114.634700887
113.338466603
112.003096545
110.628456142
109.214555731
107.761576498
106.269900547
104.740145533
103.173204159
101.570288701
99.9329805712
98.2632870428
96.5637053629
94.8372410004
93.0874992385
91.3187171762
89.53578394
87.7442182484
85.9500660716
84.1598241891
82.3799131383
80.6151158313
78.8449726705
76.9450335165
56.8981997729
53.3460782843
50.9546467207
48.9972337572
47.3251956233
45.8683602735
44.5827429582
43.4386374793
42.4143711932
41.49319777
40.661710838
39.9089050384
39.225578704
38.6039333276
38.0372898322
37.5198797085
37.0466865767
36.6133226826
36.2159310987
35.851106913
35.5158327651
35.2074256878
34.9234925927
34.6618926713
34.4207055853
34.1982042732
33.9928317768
33.8031813229
33.6279790786
33.4660691977
33.3164006699
33.1780157701
33.0500397556
32.931671993
32.8221784388
32.7208849619
32.6271714821
32.5404662907
32.4602411823
32.3860069532
32.3173090641
32.2537238803
32.1948539847
32.140321873
32.0897716824
32.0429474843
31.9998623761
31.9601313058
31.9234110567
31.8894234732
31.8579232442
31.8287229593
31.8016492526
31.776539917
31.753249838
31.7316599346
31.711617863
31.6929936054
31.6756747129
31.6595572449
31.6445424473
31.6305289903
31.6174292141
31.6051642571
31.5936620692
31.5828572728
31.5726875329
31.5630949322
31.5540287729
31.5454388635
31.5372797758
31.5295120963
31.5221004539
31.5150096479
31.5082112702
31.5016752856
31.4953782245
31.4892934319
31.4833975905
31.4776717759
31.4720967215
31.4666563565
31.4613393944
31.4561402593
31.4510419696
31.446033734
31.4411057653
31.4362459382
31.4314441671
31.426695623
31.4220072927
31.4173683246
31.4127603466
31.4081756509
31.4036084009
31.3990533433
31.3945055787
31.3899605644
31.3854141728
31.3808626017
31.3763024306
31.3717304309
31.3671433539
31.3625379087
31.357910732
31.3532584803
31.3485779079
31.3438659979
31.339120069
31.3343378305
31.3295173581
31.3246569552
31.3197550842
31.3148103588
31.309821492
31.3047872295
31.2997061124
31.2945765053
31.2893967382
31.2841653245
31.2788808685
31.27354211
31.2681466443
31.2626833262
31.2571299147
31.251408452
31.2460707655
31.2410066999
31.235832479
31.2306478166
31.2255430171
31.2205781179
31.2158012441
31.211271746
31.207047927
31.2031890168
31.199746301
31.1967633686
31.194250938
31.192190392
31.1907922147
31.1896066419
31.1886886281
31.1873860178
31.1840531174
31.1744786441
31.1485945982
31.084714073
30.9415581871
30.6485582818
30.1004752817
29.164495748
27.7079807132
25.6381947632
22.929124442
19.636899335
15.8801179576
11.6270697779
6.60255055426
1.57020034698
60.0795583557
56.0267423685
53.3147644228
51.1624098474
49.3604616608
47.8105102158
46.4543418283
45.2547224617
44.1854776672
43.2269745384
42.3638737851
41.5838315083
40.8766934355
40.2339699431
39.6484711767
39.1140454954
38.6253852321
38.1778778979
37.7674909746
37.3906803246
37.0443167743
36.7256260294
36.4321394591
36.1616526803
35.9121910803
35.6819806313
35.4694231153
35.2730752404
35.0916301763
34.9239024984
34.7688140731
34.6253823015
34.4927096453
34.3699741223
34.2564221459
34.1513616286
34.0541560836
33.9642187688
33.8810089844
33.8040275953
33.7328136893
33.6669421537
33.6060236286
33.5497027565
33.497653288
33.4495477835
33.4049508208
33.3636837046
33.3254842576
33.2901437202
33.257450859
33.2272007549
33.1991983766
33.1732648793
33.149231149
33.1269392293
33.1062497709
33.0870345458
33.0691717515
33.0525412003
33.0370399443
33.0225833284
33.0090799658
32.9964487987
32.9846171207
32.9735146229
32.9630767242
32.9532414843
32.943961509
32.9351760421
32.926847072
32.9189235632
32.9113766199
32.9041628989
32.8972560754
32.8906250255
32.8842414226
32.8780826119
32.8721211889
32.8663394226
32.8607175446
32.8552394753
32.8498843518
32.8446339566
32.8394800929
32.8344144233
32.8294258729
32.8245057665
32.8196449328
32.814832371
32.8100575693
32.8053135458
32.8005982171
32.7959073181
32.7912358396
32.7865783829
32.7819301811
32.7772868714
32.7726441963
32.7679984721
32.7633465398
32.7586848891
32.7540105282
32.7493199292
32.7446095925
32.7398761599
32.7351161335
32.7303265719
32.7255047392
32.7206484036
32.7157553553
32.7108240422
32.7058525474
32.7008396165
32.6957838473
32.6906839778
32.6855389487
32.6803473302
32.6751081544
32.6698210942
32.6644868802
32.6591081801
32.6536891996
32.6482388951
32.6427835616
32.6373307958
32.6319293953
32.6264211404
32.6210137414
32.6158183699
32.6107214202
32.6058105976
32.6011416223
32.5967787348
32.5927927828
32.5892580095
32.5862419913
32.5838031167
32.5819539063
32.5807773667
32.5802367251
32.5802083492
32.580419807
32.580050541
32.5769350741
32.565878489
32.5348330206
32.4588525152
32.2916968272
31.9564776039
31.3418468259
30.3119996737
28.7373908005
26.535097424
23.6909960363
20.2657143061
16.3758471873
12.0049481087
6.89158684703
1.70372194381
62.2869830576
58.3535459823
55.4864002358
53.2024714978
51.3005030847
49.6740176946
48.2579829241
47.0103842001
45.9017989556
44.9103665289
44.0191903782
43.2148181473
42.4862938114
41.8245398163
41.2219299545
40.6719846657
40.1691472604
39.7086137478
39.2862025449
38.8982520237
38.5415389705
38.2132126639
37.9107413352
37.6318675483
37.3745714058
37.1370395904
36.9176392155
36.7148960767
36.5274754235
36.3541663568
36.1938673055
36.0455738942
35.9083684152
35.781410139
35.6639279024
35.555212933
35.4546130248
35.3615265523
35.2753983849
35.1957155267
35.1220032701
35.0538217862
34.9907639384
34.9324518524
34.8785358824
34.8286985522
34.7826050131
34.7398332253
34.7002582752
34.6636777277
34.6298478722
34.598549499
34.5695810539
34.5427586621
34.517912601
34.4948861759
34.4735326932
34.4537152016
34.4353078764
34.4181885324
34.4022453116
34.387386005
34.3735164113
34.3605511972
34.3484148624
34.3370352965
34.3263453459
34.316278618
34.3067872552
34.2978040045
34.2892961958
34.2812111456
34.2735117126
34.2661620068
34.259131853
34.2523843423
34.2458948968
34.2396386501
34.2335862422
34.2277191076
34.2220106455
34.2164451709
34.211010748
34.2056988391
34.2004933909
34.1953826798
34.1903540573
34.1853978463
34.1805048205
34.1756654324
34.1708721895
34.166116405
34.1613910575
34.1566895982
34.152006516
34.1473363861
34.1426742432
34.1380154901
34.1333557913
34.128691245
34.1240185923
34.119334304
34.1146351996
34.1099176401
34.1051779143
34.1004126053
34.0956182596
34.090792014
34.0859312543
34.0810338849
34.0760977409
34.07112127
34.0661026093
34.0610405543
34.0559338439
34.0507812651
34.0455818688
34.0403346661
34.0350392003
34.0296957787
34.0243059739
34.0188738747
34.0134055087
34.0079113917
34.002413376
33.996915396
33.9914370115
33.9860153781
33.9806978488
33.9754896207
33.970283494
33.9653589912
33.9607532702
33.9565298658
33.9527466392
33.9494979908
33.9468691747
33.9449348326
33.9436997416
33.9432130898
33.9435122405
33.9444060428
33.9455184679
33.9457780336
33.9424426485
33.9292718581
33.8922132696
33.8030539307
33.6107990912
33.2327276148
32.5522216026
31.4314375075
29.744378313
27.4172204996
24.4459593918
20.8939130316
16.8743591454
12.3853520341
7.18022532723
1.83502860654
64.0911547815
60.3664466987
57.4624639967
55.107285139
53.137189218
51.452836803
49.989064892
48.7019932635
47.5603736045
46.540880741
45.6255012383
44.7999462597
44.0526361148
43.3740275353
42.7561452552