/*--------------------------------*- C++ -*----------------------------------*\
| =========                 |                                                 |
| \\      /  F ield         | OpenFOAM: The Open Source CFD Toolbox           |
|  \\    /   O peration     | Version:  2106                                  |
|   \\  /    A nd           | Website:  www.openfoam.com                      |
|    \\/     M anipulation  |                                                 |
\*---------------------------------------------------------------------------*/
FoamFile
{
    version     2.0;
    format      ascii;
    arch        "LSB;label=32;scalar=64";
    class       surfaceScalarField;
    location    "0.425";
    object      phi;
}
// * * * * * * * * * * * * * * * * * * * * * * * * * * * * * * * * * * * * * //

dimensions      [0 3 -1 0 0 0 0];

oriented        oriented;

internalField   nonuniform List<scalar> 
22100
(
3.38461202875e-05
1.61538796847e-05
2.24572095858e-05
1.13889104134e-05
1.62585525002e-05
6.19865683112e-06
1.27977753043e-05
3.46077694096e-06
1.08046411878e-05
1.9931338459e-06
9.60458790767e-06
1.20005299992e-06
8.85131988902e-06
7.53267729801e-07
8.3643508229e-06
4.86968776812e-07
8.04433271319e-06
3.20017834939e-07
7.83283771136e-06
2.11494744152e-07
7.69339435607e-06
1.3944311704e-07
7.60223727812e-06
9.11568554409e-08
7.5434742886e-06
5.87627747711e-08
7.50633713476e-06
3.71369359419e-08
7.48349734802e-06
2.28395544378e-08
7.46997621067e-06
1.35208810348e-08
7.46241124566e-06
7.56468016405e-09
7.45854284961e-06
3.86808564977e-09
7.45682351604e-06
1.71898440988e-09
7.45641655304e-06
4.06669989203e-10
7.45676609134e-06
-3.49798533707e-10
7.45745201631e-06
-6.86161999601e-10
7.45821013812e-06
-7.58308987534e-10
7.45893523234e-06
-7.25255111989e-10
7.45957932301e-06
-6.44245164141e-10
7.46012301651e-06
-5.43856627598e-10
7.46056486512e-06
-4.42031435786e-10
7.46091333331e-06
-3.48673736409e-10
7.46118134457e-06
-2.68236559271e-10
7.46138300988e-06
-2.01897327655e-10
7.46153172375e-06
-1.48936386298e-10
7.46163919905e-06
-1.07669898689e-10
7.46171516873e-06
-7.61395724657e-11
7.46176774928e-06
-5.2731803161e-11
7.46180086458e-06
-3.32545752247e-11
7.46181947629e-06
-1.87579494643e-11
7.4618283384e-06
-9.01994484895e-12
7.46183087738e-06
-2.72813273752e-12
7.46182903647e-06
1.61371381929e-12
7.46182395885e-06
4.79640704866e-12
7.46181660189e-06
7.0267741442e-12
7.46180760132e-06
8.64172785851e-12
7.46179735449e-06
9.8834480965e-12
7.46178606498e-06
1.09437550165e-11
7.46177371816e-06
1.20102035199e-11
7.46176019926e-06
1.32274860806e-11
7.4617452801e-06
1.46778571851e-11
7.46172859397e-06
1.6450269983e-11
7.46170970111e-06
1.86434550976e-11
7.46168803916e-06
2.13763793328e-11
7.46166299551e-06
2.47095793201e-11
7.46163387762e-06
2.87218117097e-11
7.46159990856e-06
3.35013428128e-11
7.46156025796e-06
3.91202467623e-11
7.46151409252e-06
4.56007917158e-11
7.46146060264e-06
5.29083483253e-11
7.46139917603e-06
6.08396969565e-11
7.46132974003e-06
6.88466158672e-11
7.46125298247e-06
7.61566471048e-11
7.46117140407e-06
8.09844137152e-11
7.46109140173e-06
7.94021697005e-11
7.46102508718e-06
6.57893514464e-11
7.46097990637e-06
4.46035203953e-11
7.46097537317e-06
3.91037593355e-12
7.46104752929e-06
-7.27546225306e-11
7.46125468072e-06
-2.07774311841e-10
7.46169134098e-06
-4.37313001295e-10
7.46250761115e-06
-8.16928072154e-10
7.46393878223e-06
-1.43178418158e-09
7.466340253e-06
-2.40204573513e-09
7.47016112928e-06
-3.82141507777e-09
7.47661353666e-06
-6.4529256277e-09
7.48738723175e-06
-1.07742008844e-08
7.50556434629e-06
-1.81776103855e-08
7.53875034491e-06
-3.31864934566e-08
7.60796131372e-06
-6.9211462086e-08
7.77460785869e-06
-1.66647010409e-07
8.22947039042e-06
-4.54862931265e-07
9.6969397e-06
-1.46746963493e-06
-5.45079889843e-06
1.51477381908e-05
5.02175946739e-05
1.59362847276e-05
4.4244111019e-05
1.73623935734e-05
3.77795004895e-05
1.2663266891e-05
3.26461425925e-05
8.59413436214e-06
2.89380900339e-05
5.70118590399e-06
2.63596191789e-05
3.77852334525e-06
2.4587514316e-05
2.52537209108e-06
2.33734718206e-05
1.70101078585e-06
2.25435223671e-05
1.14996683049e-06
2.19782133138e-05
7.76803366089e-07
2.15955104523e-05
5.22145565307e-07
2.13387335785e-05
3.47933316442e-07
2.11684917572e-05
2.29004163612e-07
2.10573338458e-05
1.48294379864e-07
2.09861456214e-05
9.40272744607e-08
2.09416729307e-05
5.79930465288e-08
2.09147908126e-05
3.44462738153e-08
2.08992914276e-05
1.93669561096e-08
2.08910673751e-05
9.94256889453e-09
2.08872668418e-05
4.20672518792e-09
2.08861976117e-05
7.19042488332e-10
2.08864431089e-05
-9.32024992635e-10
2.08873143346e-05
-1.6298608904e-09
2.08884536288e-05
-1.86484271644e-09
2.08896267422e-05
-1.81764497779e-09
2.08907094955e-05
-1.62691193352e-09
2.08916468248e-05
-1.3796944964e-09
2.08924240673e-05
-1.12628096813e-09
2.08930490043e-05
-8.93558999985e-10
2.08935408689e-05
-6.94156744551e-10
2.08939244753e-05
-5.32957673245e-10
2.08942257707e-05
-4.09335659238e-10
2.08944365419e-05
-2.87249781381e-10
2.08945834314e-05
-1.9992763854e-10
2.08946836226e-05
-1.33761326711e-10
2.08947487808e-05
-8.43055170222e-11
2.08947890633e-05
-4.97642728412e-11
2.089481264e-05
-2.68432243782e-11
2.08948243243e-05
-1.06827451044e-11
2.0894827053e-05
1.40589642691e-12
2.08948232738e-05
1.01207988236e-11
2.08948146736e-05
1.65646372532e-11
2.08948024104e-05
2.15067678195e-11
2.08947872532e-05
2.55546717987e-11
2.08947695485e-05
2.92229432702e-11
2.08947494242e-05
3.28886757275e-11
2.08947268791e-05
3.67977273885e-11
2.08947017484e-05
4.11316207114e-11
2.08946738149e-05
4.60586755591e-11
2.08946427757e-05
5.1783799287e-11
2.08946084028e-05
5.83184961358e-11
2.0894570573e-05
6.56677434886e-11
2.08945293178e-05
7.37690599734e-11
2.08944849776e-05
8.23829513921e-11
2.08944384694e-05
9.09820858758e-11
2.08943916209e-05
9.86216532388e-11
2.08943478626e-05
1.03501553825e-10
2.08943132255e-05
1.02445332538e-10
2.08942972047e-05
9.11850357327e-11
2.08943152022e-05
6.20307601619e-11
2.08943943743e-05
-8.19927136859e-13
2.0894583282e-05
-1.24118874044e-10
2.08949504769e-05
-3.23614955654e-10
2.08956149404e-05
-6.61644136508e-10
2.08966830966e-05
-1.14203359105e-09
2.0898333773e-05
-1.85954137678e-09
2.09009247003e-05
-3.02932976562e-09
2.09050037757e-05
-4.89709884812e-09
2.091144022e-05
-7.86929154435e-09
2.09216576458e-05
-1.26204907117e-08
2.0938146111e-05
-2.03108527916e-08
2.09650494726e-05
-3.33572277543e-08
2.10093069155e-05
-5.50325653365e-08
2.10840882686e-05
-9.29598640853e-08
2.12153139022e-05
-1.64412996764e-07
2.14558797224e-05
-3.09778118467e-07
2.19136161832e-05
-6.24384267721e-07
2.28003823992e-05
-1.34162991518e-06
2.44438946535e-05
-3.1109825445e-06
-7.03661798543e-06
2.60297150849e-05
5.35171051126e-05
1.24191793543e-05
5.29349676721e-05
1.79445305666e-05
4.96538390514e-05
1.59443950851e-05
4.58401799351e-05
1.24077930443e-05
4.24400904511e-05
9.10127493675e-06
3.97291699949e-05
6.48944334105e-06
3.76873030249e-05
4.56723860474e-06
3.61976597192e-05
3.19065364779e-06
3.51326086355e-05
2.21501749461e-06
3.43823631668e-05
1.52704844021e-06
3.38606217997e-05
1.0438865586e-06
3.35023411981e-05
7.06213553281e-07
3.32595959483e-05
4.71749040835e-07
3.30975852937e-05
3.10304634629e-07
3.29913288569e-05
2.0028327217e-07
3.29230866069e-05
1.26234828955e-07
3.28803982769e-05
7.71341224582e-08
3.28546127655e-05
4.51519999352e-08
3.2839785308e-05
2.47695881489e-08
3.28318584642e-05
1.21331666905e-08
3.2827988705e-05
4.5884471723e-09
3.28269898199e-05
6.65802073382e-11
3.28271703464e-05
-1.81066029216e-09
3.28280185206e-05
-2.7132772409e-09
3.28291340372e-05
-2.93342363844e-09
3.28302809977e-05
-2.77415094814e-09
3.28313366442e-05
-2.43564651268e-09
3.28322466781e-05
-2.03664085126e-09
3.28329962618e-05
-1.643477938e-09
3.28335915033e-05
-1.28971922515e-09
3.28340473365e-05
-9.89081061306e-10
3.28343819428e-05
-7.44239571192e-10
3.28346479453e-05
-5.53559119356e-10
3.28348639294e-05
-4.16230708369e-10
3.2835010742e-05
-2.80851860592e-10
3.28351095582e-05
-1.83412594851e-10
3.28351749567e-05
-1.15529225672e-10
3.28352163623e-05
-6.86493163271e-11
3.28352406494e-05
-3.54335894548e-11
3.28352517893e-05
-1.02545503564e-11
3.28352533785e-05
7.98913162548e-12
3.28352479362e-05
2.14547662883e-11
3.28352372908e-05
3.16005293434e-11
3.28352227292e-05
3.96312751475e-11
3.28352050025e-05
4.65223275274e-11
3.28351845452e-05
5.29252431287e-11
3.28351616637e-05
5.92754874683e-11
3.28351365302e-05
6.58375310175e-11
3.28351092664e-05
7.28417849698e-11
3.28350798453e-05
8.06424765957e-11
3.28350485567e-05
8.89400905602e-11
3.28350160139e-05
9.74384088865e-11
3.28349832937e-05
1.0562455131e-10
3.28349522349e-05
1.12505641277e-10
3.28349259055e-05
1.16334797785e-10
3.28349089461e-05
1.14566115926e-10
3.28349085866e-05
1.02866051567e-10
3.28349364396e-05
7.36278728977e-11
3.28350098428e-05
1.68664042928e-11
3.2835158789e-05
-8.7769603415e-11
3.28354346947e-05
-2.77669354517e-10
3.28359271703e-05
-6.1750787056e-10
3.28366472553e-05
-1.0447143797e-09
3.28376933576e-05
-1.70875053211e-09
3.28393253042e-05
-2.7750483051e-09
3.28419170637e-05
-4.45230725093e-09
3.28459729375e-05
-7.08616032201e-09
3.28523075042e-05
-1.12325979319e-08
3.28622337319e-05
-1.77964266875e-08
3.28779156719e-05
-2.83032981049e-08
3.29030128188e-05
-4.5408826699e-08
3.29428740919e-05
-7.32193003952e-08
3.30073258601e-05
-1.19485124842e-07
3.31133432272e-05
-1.98978019655e-07
3.32899265144e-05
-3.40997053286e-07
3.3585257302e-05
-6.05109629778e-07
3.40703775049e-05
-1.10950512374e-06
3.48113653168e-05
-2.08261839324e-06
3.56719599114e-05
-3.97157873108e-06
-7.10449334637e-06
3.57398312839e-05
5.35105662366e-05
8.90861287361e-06
5.55742215936e-05
1.58808747676e-05
5.5242481475e-05
1.62761347826e-05
5.35977845112e-05
1.40524895736e-05
5.1541845814e-05
1.11572131796e-05
4.95802775919e-05
8.4510110974e-06
4.79243481151e-05
6.22316761938e-06
4.66181357993e-05
4.49686551588e-06
4.56304625843e-05
3.20269028651e-06
4.49051132565e-05
2.25239736999e-06
4.43840857205e-05
1.56491371803e-06
4.40166892473e-05
1.07360966287e-06
4.37619624412e-05
7.26475484717e-07
4.35882635194e-05
4.84003182436e-07
4.34718638314e-05
3.16682562079e-07
4.33953534195e-05
2.02744822484e-07
4.33461827974e-05
1.26304310323e-07
4.33154448514e-05
7.58895100671e-08
4.32969081765e-05
4.33058499517e-08
4.32862818337e-05
2.27591352414e-08
4.32806787533e-05
1.01911928344e-08
4.32778708829e-05
2.87417392383e-09
4.32770429311e-05
-9.82947778736e-10
4.32772606619e-05
-2.9312416531e-09
4.32779480311e-05
-3.62103509289e-09
4.32788108967e-05
-3.6372799278e-09
4.3279683478e-05
-3.3085226269e-09
4.32804806666e-05
-2.83414534377e-09
4.3281166121e-05
-2.32926086315e-09
4.32817316359e-05
-1.85555618448e-09
4.32821840711e-05
-1.4417904527e-09
4.32825361359e-05
-1.09653094305e-09
4.32827975636e-05
-8.15168560291e-10
4.32829726298e-05
-5.91455924109e-10
4.32831053723e-05
-4.13808610833e-10
4.32831904992e-05
-2.68704216366e-10
4.32832441587e-05
-1.69479418938e-10
4.32832835956e-05
-1.0846764902e-10
4.3283307604e-05
-5.98695575062e-11
4.32833191714e-05
-2.23495095156e-11
4.32833217812e-05
4.83670532007e-12
4.32833174096e-05
2.52898748784e-11
4.32833077519e-05
4.07241602576e-11
4.32832940341e-05
5.28731176745e-11
4.32832769206e-05
6.3232106666e-11
4.32832568146e-05
7.2651346661e-11
4.32832340631e-05
8.16493091663e-11
4.32832089442e-05
9.05468577447e-11
4.32831817852e-05
9.95352172748e-11
4.32831531513e-05
1.08720597852e-10
4.32831236883e-05
1.17737334022e-10
4.32830943908e-05
1.25982204794e-10
4.32830667484e-05
1.32431624435e-10
4.32830428872e-05
1.35468881107e-10
4.32830257907e-05
1.32521743917e-10
4.32830200351e-05
1.19392961678e-10
4.32830337752e-05
8.82285029089e-11
4.32830791078e-05
2.73752453891e-11
4.32831753299e-05
-8.02928213617e-11
4.32833382013e-05
-2.51488797694e-10
4.32835850403e-05
-5.25423513201e-10
4.3284032068e-05
-1.06547015596e-09
4.32848100852e-05
-1.82358764442e-09
4.32860706044e-05
-2.97021181702e-09
4.32880219865e-05
-4.72744702757e-09
4.32910148119e-05
-7.44612877085e-09
4.329560899e-05
-1.16812880175e-08
4.33026833025e-05
-1.83078174452e-08
4.33136198913e-05
-2.87338856657e-08
4.33305763548e-05
-4.52605974837e-08
4.3356860974e-05
-7.16942448756e-08
4.33980419387e-05
-1.14401039202e-07
4.3462966279e-05
-1.8441023589e-07
4.35653497303e-05
-3.0136225068e-07
4.37251315193e-05
-5.00779614905e-07
4.3966881523e-05
-8.46860358658e-07
4.43072233744e-05
-1.449847578e-06
4.47073981665e-05
-2.48279335819e-06
4.49264410378e-05
-4.19062137639e-06
-6.57500118294e-06
4.43969467886e-05
5.27351377684e-05
6.17347485672e-06
5.57309337838e-05
1.28850783017e-05
5.73114732059e-05
1.46955949278e-05
5.76109902869e-05
1.37529720439e-05
5.71335206977e-05
1.16346822986e-05
5.63194657739e-05
9.26506553829e-06
5.54489852315e-05
7.09364768003e-06
5.46629743328e-05
5.28287594776e-06
5.40136784718e-05
3.85198570709e-06
5.35061468831e-05
2.75992854603e-06
5.31242507534e-05
1.94680945712e-06
5.28449810372e-05
1.35287900009e-06
5.26454346465e-05
9.26021497498e-07
5.25057102716e-05
6.23727173685e-07
5.24097153758e-05
4.12677060728e-07
5.23450092286e-05
2.67450546219e-07
5.23022712677e-05
1.690418465e-07
5.22746839716e-05
1.03476396197e-07
5.22573592975e-05
6.06301364795e-08
5.22468504859e-05
3.32675947735e-08
5.22407506434e-05
1.62907172526e-08
5.22374416058e-05
6.18293548867e-09
5.2235942716e-05
5.15696627953e-10
5.22354344917e-05
-2.42324814048e-09
5.22354990985e-05
-3.68588025917e-09
5.2235844153e-05
-3.98258930131e-09
5.22362979366e-05
-3.76258635243e-09
5.22367638199e-05
-3.30032671025e-09
5.22371907251e-05
-2.75646606739e-09
5.22375559283e-05
-2.22107050294e-09
5.22378527536e-05
-1.7389066306e-09
5.22380840138e-05
-1.32804172395e-09
5.22382599638e-05
-9.91368846197e-10
5.22383925235e-05
-7.24254184954e-10
5.22384925587e-05
-5.14135072097e-10
5.22385768056e-05
-3.53302136164e-10
5.22386420009e-05
-2.3500058981e-10
5.22386838749e-05
-1.50835929847e-10
5.22387161978e-05
-9.26743482681e-11
5.22387311453e-05
-3.78258702842e-11
5.22387359106e-05
-4.65061950336e-13
5.22387331015e-05
2.75718586116e-11
5.22387246922e-05
4.86176587814e-11
5.22387120137e-05
6.50962970103e-11
5.22386959538e-05
7.88817472122e-11
5.22386770772e-05
9.11487853941e-11
5.22386558305e-05
1.02517649779e-10
5.22386328111e-05
1.13155220899e-10
5.22386093106e-05
1.22572347628e-10
5.22385831616e-05
1.34326366222e-10
5.223855601e-05
1.44253547223e-10
5.22385290449e-05
1.52235092171e-10
5.22385039151e-05
1.56798164619e-10
5.22384833349e-05
1.55227993859e-10
5.22384732318e-05
1.41776735748e-10
5.22384817353e-05
1.09975918209e-10
5.22385131367e-05
5.59415381119e-11
5.22385909106e-05
-5.12743005592e-11
5.22387116944e-05
-2.0200305208e-10
5.22389090503e-05
-4.49717479979e-10
5.22392479981e-05
-8.65223559961e-10
5.22397691357e-05
-1.58757056085e-09
5.22405464135e-05
-2.60177412106e-09
5.22417128339e-05
-4.13754356469e-09
5.22434718994e-05
-6.48748245478e-09
5.22461251194e-05
-1.0100318404e-08
5.22501246862e-05
-1.56817860654e-08
5.22561620451e-05
-2.43460547811e-08
5.22652962993e-05
-3.78689642916e-08
5.22791449619e-05
-5.91100580924e-08
5.23001657161e-05
-9.27157799484e-08
5.23320737267e-05
-1.46309815506e-07
5.23802111505e-05
-2.3254842637e-07
5.24515013462e-05
-3.72653230912e-07
5.25528031234e-05
-6.02082189701e-07
5.26846545777e-05
-9.78712606076e-07
5.28248227806e-05
-1.59001658174e-06
5.28918217841e-05
-2.54979295965e-06
5.26732163424e-05
-3.97201560093e-06
-5.76615318427e-06
5.18643669826e-05
5.1983486232e-05
4.18998836744e-06
5.50586633085e-05
9.80990076475e-06
5.76386121246e-05
1.21156456649e-05
5.93259016327e-05
1.20656820717e-05
6.02280132036e-05
1.07325702391e-05
6.05929239047e-05
8.90015433359e-06
6.06482803355e-05
7.03829074438e-06
6.05531853955e-05
5.37797039706e-06
6.04029503623e-05
4.00222027753e-06
6.02479094298e-05
2.91496904957e-06
6.01107835076e-05
2.08393497993e-06
5.9999023617e-05
1.46463850829e-06
5.99125080852e-05
1.01253664884e-06
5.98479158363e-05
6.88319038387e-07
5.98010119073e-05
4.5958060407e-07
5.97677268742e-05
3.00735176352e-07
5.9744585123e-05
1.92183187345e-07
5.97288061878e-05
1.1925493949e-07
5.97182576628e-05
7.11782954131e-08
5.97113511218e-05
4.01738052845e-08
5.97069314541e-05
2.0710090145e-08
5.97041972708e-05
8.9168575972e-09
5.97025879689e-05
2.12476135924e-09
5.97016831757e-05
-1.51868188154e-09
5.97012246051e-05
-3.22754687505e-09
5.97010347883e-05
-3.7930254678e-09
5.97009981891e-05
-3.7262606047e-09
5.97010421446e-05
-3.34457969011e-09
5.97011229645e-05
-2.83756723807e-09
5.97012149752e-05
-2.31335432375e-09
5.97013043032e-05
-1.8284968797e-09
5.9701384362e-05
-1.40831893165e-09
5.97014537131e-05
-1.06090602084e-09
5.97015129424e-05
-7.83649536551e-10
5.97015628511e-05
-5.6419694854e-10
5.97016022979e-05
-3.92961761259e-10
5.97016297279e-05
-2.62643827116e-10
5.97016446332e-05
-1.65995262296e-10
5.97016425963e-05
-9.10010242243e-11
5.97016341251e-05
-2.98062484164e-11
5.97016271122e-05
6.05709965359e-12
5.97016175406e-05
3.66445135191e-11
5.97016067245e-05
5.88475215566e-11
5.97015947952e-05
7.64609190872e-11
5.97015807117e-05
9.24672205822e-11
5.97015643066e-05
1.07104217266e-10
5.97015456563e-05
1.20745366796e-10
5.97015248108e-05
1.33577938227e-10
5.97015013716e-05
1.45558378587e-10
5.97014787852e-05
1.56400212595e-10
5.97014570583e-05
1.65361370863e-10
5.97014373901e-05
1.71151452307e-10
5.97014214455e-05
1.71887024102e-10
5.97014106828e-05
1.65074263872e-10
5.97014036146e-05
1.47909980225e-10
5.97013943474e-05
1.1830108896e-10
5.97013996431e-05
4.97124480514e-11
5.97014111606e-05
-6.36682132985e-11
5.97014987478e-05
-2.90468253526e-10
5.97016897949e-05
-6.41781673748e-10
5.97019913155e-05
-1.16765623337e-09
5.97023807522e-05
-1.97804907738e-09
5.97029628104e-05
-3.1848371455e-09
5.97038198615e-05
-4.99553920461e-09
5.97050660543e-05
-7.7346159846e-09
5.9706866679e-05
-1.19018731538e-08
5.97094600508e-05
-1.82760599429e-08
5.97131904502e-05
-2.80773153573e-08
5.97185478817e-05
-4.32271996836e-08
5.97262132632e-05
-6.67762104926e-08
5.97370880414e-05
-1.03591321135e-07
5.9752234628e-05
-1.61457163004e-07
5.97724903368e-05
-2.52804905393e-07
5.97972628172e-05
-3.97426495291e-07
5.98213947215e-05
-6.26214875188e-07
5.98280115917e-05
-9.85330233822e-07
5.977507819e-05
-1.53708398209e-06
5.95746910182e-05
-2.34940668133e-06
5.90690713346e-05
-3.46639581743e-06
-4.79517605476e-06
5.80980933137e-05
5.14373051324e-05
2.75268296966e-06
5.42658199083e-05
6.98138551957e-06
5.72496421432e-05
9.13182297095e-06
5.97900260366e-05
9.52529769919e-06
6.17201260324e-05
8.80246973737e-06
6.3088300459e-05
7.53197938399e-06
6.40167134916e-05
6.10987718573e-06
6.46292327741e-05
4.76545060125e-06
6.50257992446e-05
3.60565332116e-06
6.52790733699e-05
2.66169447488e-06
6.54389680074e-05
1.92403992968e-06
6.55386844595e-05
1.36492167023e-06
6.5599922638e-05
9.51298092898e-07
6.56367371043e-05
6.51504195186e-07
6.56581878648e-05
4.38129471436e-07
6.56700957472e-05
2.88826916848e-07
6.56761846413e-05
1.86093906021e-07
6.56788206189e-05
1.16618586928e-07
6.56794907511e-05
7.05078135015e-08
6.56791142718e-05
4.05499705328e-08
6.56782466357e-05
2.1577448018e-08
6.56772155076e-05
9.94773766204e-09
6.56762060626e-05
3.1339764834e-09
6.56752965977e-05
-6.09438238338e-10
6.5674527709e-05
-2.45888828562e-09
6.56738991411e-05
-3.1647065665e-09
6.56734000211e-05
-3.22740239419e-09
6.56730128739e-05
-2.95771721892e-09
6.56727187385e-05
-2.54370553576e-09
6.56724994594e-05
-2.09432558294e-09
6.56723389187e-05
-1.66819136177e-09
6.56722234614e-05
-1.29306925209e-09
6.56721409592e-05
-9.78580873526e-10
6.56720807714e-05
-7.23640593003e-10
6.56720371144e-05
-5.20730919808e-10
6.56720057307e-05
-3.61824901105e-10
6.5671980483e-05
-2.37732518905e-10
6.56719586798e-05
-1.44584142584e-10
6.5671943379e-05
-7.61822993864e-11
6.56719412728e-05
-2.82324033955e-11
6.56719393229e-05
7.47429588399e-12
6.56719315917e-05
4.39545170247e-11
6.5671921237e-05
6.8871346285e-11
6.56719084319e-05
8.8887906882e-11
6.56718941081e-05
1.06403065784e-10
6.56718782998e-05
1.22515139926e-10
6.56718608559e-05
1.37766052657e-10
6.56718416788e-05
1.52266649629e-10
6.56718212031e-05
1.65464681182e-10
6.5671801553e-05
1.7544149927e-10
6.56717816829e-05
1.84573165753e-10
6.56717620772e-05
1.90040676376e-10
6.56717438913e-05
1.89293242713e-10
6.56717291252e-05
1.79016036145e-10
6.567172169e-05
1.54487247618e-10
6.56717291506e-05
1.09978438268e-10
6.5671733861e-05
4.39666064706e-11
6.56717696137e-05
-1.00377011663e-10
6.56718372075e-05
-3.5896980329e-10
6.56719367477e-05
-7.42274950445e-10
6.56720888426e-05
-1.32063016966e-09
6.56723005288e-05
-2.19071347246e-09
6.56725886404e-05
-3.47395975167e-09
6.56729699337e-05
-5.37781207454e-09
6.56734555664e-05
-8.22120245926e-09
6.56740435168e-05
-1.24907417475e-08
6.56747040196e-05
-1.89374365441e-08
6.56753520348e-05
-2.87261680885e-08
6.56757873938e-05
-4.36633496415e-08
6.56755834544e-05
-6.65730286555e-08
6.56738720211e-05
-1.01880641355e-07
6.56689211352e-05
-1.56507040002e-07
6.56571995962e-05
-2.41084151488e-07
6.56315833524e-05
-3.71811055127e-07
6.5577929171e-05
-5.72561496163e-07
6.54690183575e-05
-8.76420170021e-07
6.52557100116e-05
-1.32377634297e-06
6.48580058881e-05
-1.95170346877e-06
6.41635214996e-05
-2.7719115665e-06
-3.71384417068e-06
6.30821890146e-05
5.1085042123e-05
1.66764057404e-06
5.36118438971e-05
4.45458326877e-06
5.6687315395e-05
6.05635100433e-06
5.96894449541e-05
6.52316764782e-06
6.22997250764e-05
6.19218909302e-06
6.44136861289e-05
5.4180177904e-06
6.60471817575e-05
4.47638101224e-06
6.72686128086e-05
3.54401901785e-06
6.81598913889e-05
2.71437423585e-06
6.8797757586e-05
2.02382781093e-06
6.92467416219e-05
1.47505546884e-06
6.95579601727e-05
1.05370273153e-06
6.97704266095e-05
7.38831286813e-07
6.9913169467e-05
5.08760970208e-07
7.00073804093e-05
3.43918165785e-07
7.0068289846e-05
2.27917122154e-07
7.01066917738e-05
1.47691616632e-07
7.0130134002e-05
9.31760059721e-08
7.01438230752e-05
5.68184077617e-08
7.01512991499e-05
3.30735952363e-08
7.01549316235e-05
1.79447079802e-08
7.01562794173e-05
8.59970607979e-09
7.01563513197e-05
3.06185101612e-09
7.01557593047e-05
-1.76440212116e-11
7.01548984264e-05
-1.59823777295e-09
7.01539747948e-05
-2.24131664973e-09
7.01531061207e-05
-2.35897901285e-09
7.01523460536e-05
-2.19791853991e-09
7.01517118168e-05
-1.90973517849e-09
7.01512005768e-05
-1.58332608191e-09
7.01507993982e-05
-1.26723405466e-09
7.01504913346e-05
-9.85204216079e-10
7.01502587605e-05
-7.46175035757e-10
7.01500854928e-05
-5.50535459458e-10
7.01499585177e-05
-3.93937412663e-10
7.01498671661e-05
-2.70684982432e-10
7.01498043194e-05
-1.75146240089e-10
7.01497625223e-05
-1.03087987157e-10
7.01497337295e-05
-4.77426179792e-11
7.01497035276e-05
1.6345272215e-12
7.01496797983e-05
3.06665736153e-11
7.01496663793e-05
5.67581818166e-11
7.01496555501e-05
7.9160346586e-11
7.0149645366e-05
9.85857460145e-11
7.01496350571e-05
1.16257584229e-10
7.01496242411e-05
1.32905389054e-10
7.01496127762e-05
1.48831380608e-10
7.01496006871e-05
1.63961934621e-10
7.01495878067e-05
1.77891417841e-10
7.01495727175e-05
1.90004031354e-10
7.01495573184e-05
1.99365729355e-10
7.01495424684e-05
2.04192951799e-10
7.01495289274e-05
2.02053092601e-10
7.01495172586e-05
1.89859691757e-10
7.01495069028e-05
1.63992651696e-10
7.01494951822e-05
1.20842267757e-10
7.01494890549e-05
4.92707674159e-11
7.01494764109e-05
-8.86323329522e-11
7.01494884965e-05
-3.72022461211e-10
7.01495121036e-05
-7.66872474188e-10
7.01495360116e-05
-1.34548652771e-09
7.01495389902e-05
-2.19466064737e-09
7.01494943934e-05
-3.43036112477e-09
7.01493491447e-05
-5.23354458436e-09
7.01490044708e-05
-7.87748731212e-09
7.0148285505e-05
-1.17726922248e-08
7.01468909127e-05
-1.75436955907e-08
7.0144309715e-05
-2.61457786397e-08
7.01396686531e-05
-3.90230625096e-08
7.01314877271e-05
-5.83928522977e-08
7.01172786868e-05
-8.76723508266e-08
7.00928897947e-05
-1.32118915717e-07
7.00512365818e-05
-1.99431739026e-07
6.99803531959e-05
-3.00928487625e-07
6.98602869657e-05
-4.52496075242e-07
6.96586153391e-05
-6.7474930189e-07
6.93254612272e-05
-9.90622865835e-07
6.87913331306e-05
-1.41757620548e-06
6.79737324592e-05
-1.95431120953e-06
-2.55481077545e-06
6.68146986214e-05
5.08804129576e-05
7.8722733824e-07
5.31704655277e-05
2.16453021813e-06
5.62177486657e-05
3.00906739182e-06
5.94382682152e-05
3.30264759663e-06
6.24449675379e-05
3.18548923558e-06
6.50382504267e-05
2.82473434542e-06
6.71548634553e-05
2.35976742117e-06
6.8813561417e-05
1.88532050768e-06
7.00731669101e-05
1.45476822269e-06
7.10056634019e-05
1.09133083813e-06
7.16812592641e-05
7.99459168698e-07
7.216141823e-05
5.73543368845e-07
7.24965987965e-05
4.03650354475e-07
7.27264750006e-05
2.78884410103e-07
7.28812735525e-05
1.89119260641e-07
7.29834629674e-05
1.25727362706e-07
7.30494064099e-05
8.17478322706e-08
7.30908081867e-05
5.17738973485e-08
7.31159018165e-05
3.17244628267e-08
7.31303860415e-05
1.85890797642e-08
7.31381404913e-05
1.01899963637e-08
7.31417606834e-05
4.97927892335e-09
7.31429481597e-05
1.87415350907e-09
7.31428015325e-05
1.28766295839e-10
7.31419780715e-05
-7.75003695398e-10
7.31408949172e-05
-1.15840608266e-09
7.31397797926e-05
-1.24410350633e-09
7.31387521e-05
-1.17048253126e-09
7.31378642974e-05
-1.02219403545e-09
7.31371303249e-05
-8.49590706076e-10
7.31365428008e-05
-6.79928550034e-10
7.31360843368e-05
-5.26938665467e-10
7.31357340746e-05
-3.96083741775e-10
7.31354713747e-05
-2.87994311688e-10
7.31352778746e-05
-2.00610226551e-10
7.31351379232e-05
-1.30945774427e-10
7.31350382644e-05
-7.57439674563e-11
7.31349663958e-05
-3.15277724945e-11
7.31349128535e-05
5.32052158137e-12
7.31348827141e-05
3.13369545684e-11
7.31348592398e-05
5.37404169568e-11
7.31348420222e-05
7.35156875752e-11
7.31348292457e-05
9.14658619887e-11
7.31348191292e-05
1.08244261867e-10
7.3134810401e-05
1.24533984326e-10
7.31348021749e-05
1.4067675964e-10
7.31347938277e-05
1.56708780754e-10
7.31347849311e-05
1.72378838262e-10
7.31347751865e-05
1.87114487522e-10
7.3134764556e-05
2.00059443004e-10
7.31347531115e-05
2.10183796557e-10
7.31347409274e-05
2.1568880312e-10
7.31347281499e-05
2.1407381878e-10
7.31347151102e-05
2.02099434303e-10
7.31347024517e-05
1.7578547876e-10
7.31346916037e-05
1.30822577919e-10
7.31346739507e-05
6.60670379483e-11
7.31346509791e-05
-6.65402345811e-11
7.31346095632e-05
-3.31532238614e-10
7.31345436883e-05
-7.02000031772e-10
7.31344298263e-05
-1.23263385319e-09
7.31342248257e-05
-1.99064226426e-09
7.31338607531e-05
-3.06728194251e-09
7.31332228471e-05
-4.59659910511e-09
7.31321182847e-05
-6.77385848858e-09
7.31302255782e-05
-9.88088814376e-09
7.31270173306e-05
-1.43362868711e-08
7.31216389819e-05
-2.07682186445e-08
7.31126788468e-05
-3.00636891033e-08
7.30978332737e-05
-4.35480210417e-08
7.30733954808e-05
-6.32353055442e-08
7.30334705707e-05
-9.21947751377e-08
7.29685493415e-05
-1.34511311758e-07
7.28636200323e-05
-1.96000010673e-07
7.26955252523e-05
-2.84402122307e-07
7.24297785127e-05
-4.0900336696e-07
7.20180396997e-05
-5.78884679783e-07
7.13991428798e-05
-7.9868012329e-07
7.05075822081e-05
-1.0627509499e-06
-1.34602011213e-06
6.92987911845e-05
5.07871723663e-05
5.46908806993e-11
5.29516492114e-05
5.28935898801e-11
5.59606874093e-05
2.87182094438e-11
5.92633204052e-05
1.40952089118e-11
6.24488064491e-05
2.64745754609e-12
6.52735464023e-05
-6.17590685686e-12
6.76333253146e-05
-1.20664989077e-11
6.95186602617e-05
-1.50012887899e-11
7.09734433856e-05
-1.54328412635e-11
7.20647876939e-05
-1.39601569203e-11
7.28642576326e-05
-1.1214566934e-11
7.34378084475e-05
-7.84882106205e-12
7.38414629552e-05
-4.51970108692e-12
7.41203488854e-05
-1.86717587769e-12
7.43094682699e-05
-4.69022413701e-13
7.44351960197e-05
-7.23548864383e-13
7.45169463977e-05
-2.8747734652e-12
7.45687266606e-05
-6.68245253799e-12
7.46004623321e-05
-1.15093568092e-11
7.46190675063e-05
-1.63755721573e-11
7.46292773982e-05
-2.01554722076e-11
7.46342782027e-05
-2.17610867087e-11
7.46361728657e-05
-2.07364790842e-11
7.46363197671e-05
-1.83617815355e-11
7.46355603342e-05
-1.58030554122e-11
7.46344143194e-05
-1.26393229031e-11
7.46331789909e-05
-9.0332260434e-12
7.46320133037e-05
-5.05673891174e-12
7.46309910525e-05
-2.05325191657e-13
7.46301373531e-05
3.88423008453e-12
7.46294486983e-05
8.52689378915e-12
7.46289080879e-05
1.34846699946e-11
7.46284931339e-05
1.87035375592e-11
7.46281807405e-05
2.42428428291e-11
7.46279496807e-05
3.0282751184e-11
7.46277815826e-05
3.69457311447e-11
7.46276612695e-05
4.43198988501e-11
7.46275770685e-05
5.23955583791e-11
7.46275208986e-05
6.11810869141e-11
7.46274814674e-05
7.03451360523e-11
7.46274549133e-05
7.98567527152e-11
7.46274373621e-05
9.06091967538e-11
7.462742584e-05
1.02517195365e-10
7.46274181345e-05
1.15489491624e-10
7.46274127132e-05
1.29507163231e-10
7.46274084972e-05
1.44439429764e-10
7.46274047217e-05
1.60005652579e-10
7.46274008486e-05
1.7575070274e-10
7.46273964398e-05
1.90986331359e-10
7.46273911316e-05
2.04779807645e-10
7.46273847508e-05
2.15930979157e-10
7.4627377092e-05
2.22668160761e-10
7.46273677889e-05
2.22645870647e-10
7.4627356155e-05
2.12940145899e-10
7.46273410719e-05
1.90038394898e-10
7.46273207543e-05
1.50215109278e-10
7.46272946339e-05
9.12370793769e-11
7.46272483823e-05
-2.12000844766e-11
7.46271600117e-05
-2.44039006659e-10
7.46270240717e-05
-5.67033422411e-10
7.46268010056e-05
-1.01060370616e-09
7.46264302111e-05
-1.62085697279e-09
7.46258154743e-05
-2.45354797061e-09
7.46248002227e-05
-3.58230220078e-09
7.46231295703e-05
-5.10411246979e-09
7.46203872544e-05
-7.13944868725e-09
7.46159063304e-05
-9.85618981341e-09
7.46086297515e-05
-1.34924195321e-08
7.4596822528e-05
-1.825722742e-08
7.45776854219e-05
-2.44116600944e-08
7.45468003075e-05
-3.23509454809e-08
7.44974425193e-05
-4.2837786742e-08
7.44188824606e-05
-5.59520844901e-08
7.42947311273e-05
-7.18495211876e-08
7.41006237887e-05
-9.02956066356e-08
7.38017645447e-05
-1.10144942031e-07
7.33515227677e-05
-1.28643547165e-07
7.26934683504e-05
-1.40626357337e-07
7.17696277582e-05
-1.38910800428e-07
-1.15013685414e-07
7.05386210136e-05
5.07871713313e-05
-7.87116920525e-07