/*--------------------------------*- C++ -*----------------------------------*\
| =========                 |                                                 |
| \\      /  F ield         | OpenFOAM: The Open Source CFD Toolbox           |
|  \\    /   O peration     | Version:  2106                                  |
|   \\  /    A nd           | Website:  www.openfoam.com                      |
|    \\/     M anipulation  |                                                 |
\*---------------------------------------------------------------------------*/
FoamFile
{
    version     2.0;
    format      ascii;
    arch        "LSB;label=32;scalar=64";
    class       volScalarField;
    location    "0.035";
    object      p;
}
// * * * * * * * * * * * * * * * * * * * * * * * * * * * * * * * * * * * * * //

dimensions      [0 2 -2 0 0 0 0];

internalField   nonuniform List<scalar> 
11200
(
172.162963427
169.23448386
168.1209668
167.594202631
167.227691116
166.933943243
166.673439387
166.425993757
166.182340551
165.937740923
165.689369915
165.435403747
165.174601805
164.906068239
164.629111669
164.343194702
164.047843719
163.742435825
163.426458873
163.099369397
162.76058609
162.409496598
162.045466453
161.66784219
161.275927172
160.869016212
160.44639057
160.00731728
159.55105007
159.076829716
158.583884534
158.071431594
157.538677111
156.984816311
156.409034012
155.810505153
155.188395215
154.5418606
153.870048874
153.17209897
152.447141386
151.69429837
150.912684072
150.101404655
149.259558325
148.386235182
147.480516802
146.54147553
145.568173387
144.559660499
143.51497288
142.43312945
141.313128164
140.153941153
138.954508632
137.713731208
136.430460075
135.103484532
133.731516194
132.31316909
130.846934738
129.331150564
127.76395983
126.143262376
124.46664942
122.731316969
120.933956145
119.070609286
117.136475633
115.125648845
113.030768225
110.842483201
108.548584358
106.1329623
103.573642233
100.839169028
97.8823127234
94.6318158913
90.937509638
86.1795665427
170.369839634
169.011745995
168.220947406
167.721245746
167.330752866
167.007541538
166.723805666
166.459990552
166.205150103
165.952992235
165.69956925
165.442288455
165.179382732
164.90959303
164.631972934
164.345740122
164.050183347
163.744775517
163.428920438
163.102015694
162.763451464
162.412599329
162.048805984
161.67139421
161.279686024
160.872979801
160.450556812
160.011683865
159.555613835
159.081586499
158.588835792
158.076580525
157.544026847
156.990369693
156.414793765
155.816473982
155.194575873
154.548255926
153.876661812
153.178932593
152.454198933
151.701583303
150.920200166
150.109156114
149.267549916
148.394472389
147.489006047
146.55022445
145.577191178
144.568958309
143.524564276
142.443030974
141.323360011
140.164528025
138.965480844
137.72512609
136.442323701
135.115873847
133.744501669
132.326838093
130.861396033
129.346540397
127.780448257
126.161056339
124.485994682
122.752524966
120.957432334
119.096880109
117.166229691
115.159794799
113.07049503
110.889377058
108.604908427
106.201947542
103.66009834
100.950855517
98.0333242477
94.8490687887
91.2945728202
87.1686180861
169.374516324
168.720390719
168.168122123
167.730661226
167.359323992
167.037658902
166.749115867
166.47947758
166.219530996
165.963356367
165.70694927
165.447539272
165.183166882
164.91240037
164.634150244
164.347544803
164.05186005
163.746383425
163.430516751
163.103635395
162.76511151
162.414306857
162.050568689
161.673227517
161.281596003
160.874970091
160.452631497
160.013848433
159.557876434
159.083958179
158.591315723
158.079166533
157.546718488
156.993167702
156.417699701
155.819489998
155.197704603
154.551500466
153.880025753
153.18242009
152.45781481
151.705333196
150.924090712
150.113195196
149.271746943
148.398838635
147.493555089
146.554972747
145.582158742
144.574169482
143.530048658
142.448824576
141.329506707
140.171081368
138.972506278
137.732703666
136.450551388
135.124871542
133.754416067
132.337848643
130.873722344
129.360450377
127.796268623
126.179205528
124.507029356
122.777144787
120.986509248
119.131522629
117.207868002
115.210301879
113.132364551
110.965983044
108.701046543
106.324581481
103.819782118
101.164623781
98.3307859763
95.285990411
91.9936259874
88.4291771566
168.824631595
168.461327653
168.061481141
167.692564601
167.35510553
167.047280255
166.76230785
166.492052498
166.230088647
165.971669721
165.713260551
165.452235574
165.186637106
164.914980193
164.636107436
164.349079656
164.053096314
163.747484574
163.43154067
163.104625257
162.766099369
162.415314356
162.051609099
161.674307624
161.282718753
160.876136531
160.453840969
160.015098512
159.559162697
159.085275794
158.592671259
158.08056755
157.548172821
156.994679807
156.419273221
155.821128475
155.199411727
154.55328035
153.881883145
153.184360599
152.459845117
151.707461291
150.926326183
150.115549589
149.274234215
148.401475722
147.496362564
146.557975568
145.585387135
144.577660116
143.533846049
142.452982785
141.334091462
140.176172708
138.978201807
137.739122511
136.457839095
135.133206411
133.764017731
132.348989027
130.886738546
129.375766629
127.814420027
126.200836394
124.532909846
122.80824094
121.024053879
119.177094974
117.263508096
115.278678479
113.217039827
111.071841019
108.834819893
106.495880619
104.042843465
101.461456552
98.7367187089
95.8585679897
92.8303958609
89.6889264561
168.490482196
168.258750882
167.957370616
167.646426558
167.341671172
167.049820186
166.771112047
166.502311124
166.239654231
165.979745438
165.719714194
165.457229411
165.190435885
164.917858883
164.638311105
164.350811409
164.054519043
163.748689051
163.432620814
163.105644258
162.767099695
162.416324622
162.052648289
161.675388583
161.283850796
160.877326984
160.455096102
160.016424675
159.560566931
159.086764482
158.594245926
158.082227294
157.549911738
156.996497237
156.421169572
155.823106067
155.201474229
154.555432548
153.884130965
153.186711234
152.462307187
151.710045125
150.929044182
150.118416677
149.277268384
148.404698646
147.499800266
146.561659834
145.589356872
144.581962661
143.538538976
142.458136153
141.339790608
140.182521707
138.98532774
137.74718066
136.467019298
135.143740668
133.776188149
132.363133757
130.903273823
129.395204062
127.83738118
126.228114826
124.565512154
122.847430685
121.071421804
119.234661571
117.333867042
115.365198465
113.324150278
111.205443565
109.002946713
106.709702922
104.318233329
101.8214455
99.2150358137
96.5033643283
93.7078892575
90.8794163972
168.287006332
168.111131131
167.86993928
167.602614885
167.325465059
167.04893136
166.777422789
166.5111511
166.248598639
165.987692402
165.726296644
165.462455098
165.194479266
164.920948391
164.640672106
164.352641183
164.055979006
163.7498994
163.433675466
163.106610055
162.768023133
162.417237369
162.053571407
161.676335883
161.284831133
160.878345989
160.456157325
160.017529612
159.561715101
159.087954251
158.595475803
158.083497914
157.551228644
156.997865702
156.422597005
155.824598846
155.203038246
154.557074239
153.885857559
153.188531235
152.464230798
151.712084663
150.931214526
150.120735823
149.279758148
148.407385615
147.502717144
146.564845914
145.592859437
144.585839089
143.542858854
142.462983877
141.345268657
140.188754666
138.992467161
137.755410956
136.476564994
135.154875675
133.789249918
132.378550931
130.921568916
129.416998622
127.863454392
126.25942297
124.603237097
122.893046949
121.126781796
119.30210756
117.416383182
115.466620881
113.449461377
111.361188238
109.197828993
106.955433557
104.63070849
102.22230223
99.7333117763
97.1760054725
94.5776130279
91.9856387558
168.163819186
168.008183366
167.801836939
167.565231119
167.309743566
167.046511932
166.782015115
166.518666801
166.25667841
165.995137568
165.73261718
165.467556837
165.198465672
164.92400368
164.642996839
164.354420123
164.057367943
163.751022678
163.434626066
163.107456842
162.7688143
162.418006045
162.054339883
161.677118881
161.285638262
160.879183548
160.457029551
160.018439797
159.562666355
159.088949941
158.596520468
158.084596537
157.552385706
156.999084766
156.42387934
155.82594584
155.204453823
154.558564632
153.887430826
153.190197125
152.466001034
151.713973307
150.933238545
150.122915755
149.282118882
148.409957288
147.505536146
146.567956674
145.596315968
144.589706721
143.547217009
142.467929216
141.350918909
140.195253321
138.999989195
137.764169859
136.486821417
135.166947674
133.803522852
132.395483661
130.94172857
129.44109895
127.892367638
126.294222946
124.645253315
122.943930031
121.188589552
119.377418988
117.508450103
115.579571086
113.588572339
111.533255433
109.411655668
107.222464376
104.965792377
102.644472474
100.266187679
97.8467740009
95.4134746248
93.0061241081
168.08968092
167.939583935
167.752726053
167.536517769
167.296738069
167.043904556
166.785326523
166.524695159
166.263425784
166.001510909
165.738120654
165.472051237
165.202002951
164.926722706
164.645062485
164.35599072
164.058580362
163.751987724
163.435427028
163.108157073
162.769458335
162.418624461
162.054953371
161.67774121
161.286278541
160.879847886
160.457722201
160.019163988
159.563424826
159.089745173
158.597354393
158.085470767
157.553301464
157.000043532
156.424885114
155.827006637
155.205577411
154.559758205
153.888702975
153.191558331
152.467463994
151.715553403
150.934954402
150.12478993
149.284178718
148.412235934
147.508073769
146.570801927
145.599528156
144.593358247
143.551395595
142.47274127
141.3564937
140.201747992
139.00759481
137.773118739
136.497396179
135.17949286
133.818460863
132.413333827
130.963121238
129.466805066
127.923328064
126.331594195
124.69046041
122.998732865
121.255168191
119.458483269
117.607381159
115.700604219
113.737032183
111.715854085
109.63685892
107.500911993
105.310710682
103.071920983
100.794783964
98.4962108523
96.2012770436
93.942436652
168.047360642
167.897778117
167.721208763
167.517310653
167.287644266
167.041867025
166.787517186
166.528945793
166.268305852
166.00619753
165.742216817
165.475426741
165.204677424
164.928788099
164.646635874
164.357188013
164.059503325
163.752719171
163.436032082
163.10868326
162.769939726
162.419084677
162.05540844
161.678201858
161.286751939
160.880338919
160.458234341
160.019699879
159.563986663
159.090334978
158.597974185
158.086122848
157.553989091
157.000771314
156.425658221
155.827828342
155.206453146
154.560695827
153.889711954
153.19265
152.468651979
151.716854145
150.936387793
150.126380092
149.285954935
148.414233789
147.510336528
146.573382175
145.602489505
144.596777573
143.555366235
142.477376665
141.361931771
140.208156454
139.015177635
137.782124046
136.50812584
135.192313993
133.833819426
132.431771247
130.985296499
129.493530679
127.955592363
126.37060551
124.737699886
123.056017389
121.324729933
119.543069539
117.710379509
115.826197432
113.890387224
111.903345506
109.866317456
107.781867351
105.654554249
103.491843993
101.305234088
99.1114771726
96.9330159942
94.7964261218
168.028059528
167.878020099
167.705873201
167.507742902
167.283010215
167.040786879
166.788632303
166.531167977
166.270892421
166.008708416
165.744432281
165.477269216
165.206151364
164.929938846
164.647523974
164.357874584
164.060042656
163.753155861
163.436401073
163.109010195
162.770243194
162.419377642
162.055699773
161.678497619
161.287056331
160.880654969
160.458564384
160.020045911
159.564350519
159.090718544
158.598379568
158.086552555
157.55444614
157.001259019
156.426180401
155.828390825
155.207062593
154.561360173
153.890440763
153.193454856
152.469546904
151.717856128
150.937517431
150.127662378
149.287420209
148.415918887
147.512286168
146.575650622
145.605142591
144.599895172
143.559045291
142.481734896
141.367112157
140.214332652
139.022560542
137.790969805
136.518745612
135.205085941
133.849203575
132.450328132
131.007705863
129.52060957
127.988356938
126.410284073
124.785782926
123.114319936
121.395465406
119.628936466
117.814666267
115.952905653
114.044373108
112.090473198
110.093608226
108.05761023
105.988312642
103.894250647
101.78741664
99.6839217437
97.603853495
95.5695019864
168.028059941
167.878033954
167.705897989
167.50777693
167.283052734
167.040837078
166.788689297
166.531230993
166.270960858
166.008781831
165.74451037
165.477351771
165.206238213
164.930029834
164.647618946
164.357973396
164.060145184
163.753261982
163.436510724
163.109123352
162.770359904
162.419498072
162.055824248
161.678626635
161.287190565
160.880795284
160.458711811
160.020201595
159.564515866
159.090895184
158.598569404
158.086757855
157.554669662
157.001504205
156.426451649
155.828693519
155.207403265
154.561746777
153.890882956
153.193964327
152.470137805
151.718545611
150.938326313
150.128615945
149.288549175
148.417260559
147.513885837
146.577563236
145.607434785
144.602647753
143.56235631
142.485723382
141.371922628
140.220140543
139.029578762
137.799456727
136.529014781
135.217517788
133.864259481
132.468568034
131.02981236
129.54740611
128.020821764
126.449622031
124.833464238
123.172124513
121.465548358
119.713895257
117.917623366
116.077600819
114.195260319
112.272812259
110.31353335
108.322145222
106.305285782
104.272044115
102.234474897
100.207953764
98.2107853477
96.2624256674
168.047362001
167.897820133
167.721283806
167.517413558
167.287772761
167.042018478
166.787688897
166.52913547
166.268511694
166.006418215
165.742451429
165.475674642
165.204938107
164.929061108
164.64692077
164.357484402
164.059810841
163.753037429
163.436360851
163.109022472
162.770289537
162.41944559
162.055781414
161.678588365
161.287153975
160.880759002
160.458675499
160.020165653
159.564481175
159.090863018
158.59854144
158.086736235
157.554657091
157.001504067
156.426468143
155.828731829
155.207469772
154.561849287
153.891030943
153.194169269
152.470413612
151.718909171
150.938798152
150.129221012
149.289317786
148.418229532
147.515099865
146.579076529
145.609313086
144.604970803
143.565220853
142.489246812
141.376247393
140.225439439
139.03606132
137.807376935
136.538680446
135.229301847
133.878613593
132.486038766
131.051061532
129.573240656
128.05222422
126.48776574
124.879750416
123.228236691
121.533494045
119.796076345
118.016899113
116.197350771
114.339442605
112.446007528
110.520958212
108.569612261
106.599081017
104.618691449
102.640367743
100.678861837
98.7513053918
96.8755424527
168.089683621
167.939655452
167.752853207
167.536691573
167.296954527
167.044159128
166.785614635
166.525012966
166.26377027
166.001879848
165.738512501
165.472464916
165.202437641
164.927177692
164.645537098
164.356484369
164.059092471
163.75251758
163.435974125
163.108721364
162.770040122
162.419224601
162.05557345
161.67838365
161.286946631
160.880545776
160.458454877
160.019937271
159.564245411
159.090620803
158.598294188
158.086485866
157.554406108
157.001255655
156.426226293
155.828501491
155.207257016
154.561661533
153.890877222
153.194060543
152.470363203
151.718933288
150.938916528
150.12945764
149.289701818
148.418796384
147.515892528
146.58014716
145.610724939
144.606800605
143.567561683
142.492211572
141.379972989
140.230091827
139.041841589
137.814528613
136.54749831
135.240142494
133.891908113
132.502307806
131.070932764
129.597468514
128.081714755
126.523609932
124.923261153
123.280983411
121.597346956
119.873244101
118.109972062
116.309340847
114.473811475
112.606672583
110.712262022
108.796239543
106.865909901
104.930577807
103.001891815
101.094113388
99.2237967557
97.4083185858
168.163823928
168.008286867
167.802019602
167.565479517
167.310051664
167.046873069
166.782422737
166.519115471
166.257163876
165.995656694
165.733167767
165.468137368
165.199075024
164.92464091
164.643661059
164.355110536
164.05808378
163.75176284
163.43539001
163.108244493
162.769626067
162.418843119
162.055204438
161.678014227
161.286568904
160.880155193
160.458049078
160.0195153
159.563807232
159.090167022
158.597825934
158.086004755
157.553914306
157.000756005
156.425722448
155.82799807
155.206759697
154.561177185
153.890414198
153.193629046
152.469975693
151.718604884
150.938665634
150.129306656
149.289677994
148.418932846
147.516229513
146.580733493
145.611619839
144.608075898
143.569304499
142.494527574
141.382990249
140.233965493
139.046759489
137.820717992
136.555233901
135.24975618
133.903800489
132.516961992
131.088930828
129.619510688
128.108641113
126.556424532
124.963159688
123.329383594
121.655922888
119.943958595
118.195105583
116.411511476
114.595978413
112.75211248
110.884505653
108.99895615
107.102734854
105.204900046
103.316667601
101.451854559
99.6268743082
97.8596415353
168.28701421
168.111270758
167.870183086
167.602944082
167.325871069
167.04940509
166.777955561
166.511735849
166.249229897
165.988366123
165.727009994
165.46320613
165.195266587
164.921770842
164.641528448
164.353530173
164.056899601
163.750850392
163.434657136
163.107621845
162.769065311
162.418311294
162.054679672
161.677482473
161.286021469
160.87958695
160.457457208
160.018898479
159.563165112
159.089499968
158.597134881
158.085291088
157.553179784
157.000002905
156.424953829
155.827217861
155.205972913
154.560390086
153.889634384
153.192865708
152.469240009
151.717910627
150.938029561
150.1287491
149.289223664
148.418611792
147.51607825
146.580796346
145.611950564
144.608739672
143.570380346
142.496111294
141.38519789
140.236937518
139.050665862
137.825764305
136.561668551
135.257878882
133.913972477
132.529618096
131.104593602
129.638806774
128.132319981
126.585379618
124.998451584
123.372264311
121.707860598
120.006659998
118.270533278
116.501890236
114.70378292
112.880025082
111.035331409
109.175481944
107.307527002
105.440057699
103.583616335
101.751404425
99.9597717081
98.227829935
168.490494396
168.258932004
167.957682568
167.646844068
167.342182434
167.050413234
166.771775916
166.503037115
166.240435715
165.980577545
165.720593531
165.458153735
165.191403753
164.91886921
164.63936264
164.351903235
164.055651163
163.749856905
163.433825088
163.106885194
162.768377684
162.41764114
162.054006175
161.676792281
161.285306284
160.878841812
160.45667927
160.018086212
159.562317855
159.088617773
158.596218473
158.084341881
157.55219989
156.99899492
156.423920614
155.826162588
155.204899211
154.559302804
153.888539696
153.191771339
152.468155482
151.716847494
150.937002214
150.12777519
149.288324728
148.417814047
147.515413552
146.580303357
145.611676217
144.608740967
143.570726475
142.496886195
141.386503306
140.238896667
139.053427633
137.829507664
136.566609359
135.264277464
133.922142358
132.539936308
131.117512649
129.654868327
128.15217032
126.609786795
125.02832395
123.408669647
121.752044759
120.060062505
118.334796964
116.578859356
114.795482366
112.988609774
111.162991263
109.324284654
107.479181168
105.635588057
103.803012717
101.993531187
100.222768842
98.5106595888
168.824648695
168.461554512
168.061864339
167.693071419
167.355720222
167.047987483
166.76309424
166.492907748
166.231005028
165.972641626
165.714284147
165.453308491
165.187758185
164.91614915
164.637324595
164.350348341
164.054423933
163.748840799
163.432935208
163.106062679
162.767582034
162.416845234
162.053192333
161.675949255
161.284427149
160.877922523
160.455717541
160.017080648
159.561267534
159.087521952
158.595076507
158.083153508
157.550965537
156.997716003
156.422599829
155.824803218
155.203505609
154.557879541
153.88709217
153.190306162
152.46668087
151.715373683
150.93554123
150.126341647
149.286936496
148.41649294
147.514186166
146.579202147
145.610740434
144.608017976
143.570273577
142.496772735
141.38681313
140.239731042
139.054909028
137.83178542
136.569863487
135.268724463
133.928042485
132.547601992
131.127318135
129.667260572
128.167681207
126.629046609
125.052075836
123.437784447
121.787535085
120.10309401
118.386693453
116.641098176
114.869673377
113.076447759
111.266166104
109.444326695
107.617204419
105.791863149
103.976343126
102.180664259
100.417770033
98.7055179491
169.37454376
168.720678097
168.168587223
167.731263346
167.360043704
167.0384776
166.750017985
166.480451401
166.220567795
165.964449757
165.708094733
165.448733716
165.184408219
164.913686985
164.635480807
164.34891801
164.053255205
163.747825808
163.432000964
163.105160183
162.766679069
162.415921092
162.05223397
161.674948599
161.283379335
160.876824827
160.454568689
160.015880649
159.560017027
159.086222091
158.593728608
158.081757865
157.549522105
156.996224974
156.421060984
155.823217664
155.201875014
154.556206616
153.885380578
153.188560563
152.464907032
151.713578686
150.93373409
150.124533541
149.285141152
148.414727122
147.512470187
146.577560363
145.609202617
144.606620689
143.569061401
142.495799765
141.386144847
140.239446469
139.055102946
137.832571667
136.571379516
135.271135959
133.931548757
132.552442338
131.133779153
129.67568447
128.178475166
126.642693076
125.06914337
123.458938623
121.813548252
120.1348519
118.425200177
116.687473218
114.925137396
113.142289533
111.343678713
109.534691844
107.721262026
105.909616947
104.106071076
102.317548732
100.550470908
98.8110790606
170.369913417
169.012177806
168.221604035
167.722074504
167.331730873
167.008648382
166.725024916
166.461309957
166.206560514
165.954486804
165.701142746
165.443936432
165.181100328
164.911372727
164.633801747
164.347611109
164.052143965
163.746813419
163.431019464
163.104167959
162.765652447
162.414847239
162.051106254
161.6737637
161.282135311
160.875518867
160.453195096
160.014436711
159.558500819
159.08463189
158.592063317
158.080018816
157.547711293
156.994343687
156.419110941
155.821200261
155.199791804
154.554059481
153.883171881
153.186293339
152.462585153
151.711207016
150.931318674
150.122081873
149.282662502
148.412232896
147.509974393
146.575080256
145.606759101
144.604238937
143.566771851
142.493639256
141.384157966
140.237687375
139.053638051
137.831480411
136.570757061
135.271096647
133.932229871
132.554008401
131.136426807
129.679647888
128.18403203
126.650171046
125.078927082
123.471476771
121.829359362
120.154525649
118.449416964
116.716999427
114.960820313
113.185048431
111.394490458
109.594565845
107.791131675
105.990006942
104.196552258
102.415170945
100.640544415
98.837042635
172.163103422
169.235127669
168.121933602
167.5954304
167.229149873
166.93560873
166.675293594
166.428024
166.184538138
165.940100339
165.691888322
165.438080839
165.177440616
164.909077966
164.632308077
164.346572563
164.05134649
163.746088375
163.430277435
163.103362286
162.764759731
162.413857654
162.050017511
161.672577176
161.28085395
160.87414861
160.451748148
160.012917006
159.556910203
159.082971614
158.590333908
158.078219301
157.545840419
156.99240086
156.417095792
155.819112689
155.19763198
154.551827854
153.88086922
153.183920782
152.460144281
151.708699952
150.928748226
150.119451678
149.279977158
148.409498108
147.507197144
146.572269066
145.603924432
144.601393635
143.563931577
142.490822987
141.381388583
140.234992273
139.051049715
137.829038373
136.568509306
135.269101051
133.930556042
132.552739849
131.135663454
129.679509004
128.184659755
126.651734315
125.081626037
123.475547472
121.835082763
120.162251127
118.45952821
116.729936063
114.977090196
113.205241065
111.419297593
109.624818448
107.828018255
106.03567129
104.254671502
102.491184866
100.728041048
98.8279011515
78.6673495821
75.151073001
72.7852737293
70.8564990882
69.206536853
67.7617043949
66.4785988278
65.3297881153
64.2961771837
63.3631407877
62.5187492747
61.7529191276
61.0569737103
60.4233827069
59.8455793565
59.3178168393
58.8350496792
58.3928346544
57.9872478492
57.6148144269
57.2724493031
56.9574068594
56.6672381015
56.3997530335
56.1529870733
55.92517283
55.7147172447
55.5201825188
55.3402688526
55.1737980259
55.0196985316
54.8769932513
54.7447892769
54.6222697789
54.5086877644
54.4033599663
54.3056595634
54.2150083526
54.1308710509
54.0527543429
53.9802159731
53.9128956241
53.8504228244
53.7923904075
53.7384335956
53.6882459817
53.6415593833
53.5981117677
53.5576467046
53.519931624
53.484762861
53.4519492721
53.4212858864
53.3926008626
53.3657376509
53.3405503993
53.3169030702
53.2946696535
53.2737350037
53.2539937678
53.2353475473
53.2177032494
53.2009740233
53.1850807308
53.1699518275
53.1555214518
53.1417279779
53.1285142839
53.1158285842
53.1036241441
53.0918579487
53.0804893483
53.0694807358
53.0587995246
53.0484179024
53.0383098504
53.0284493934
53.018812771
53.0093805965
53.0001370559
52.9910671984
52.9821553892
52.9733878835
52.964755535
52.9562516535
52.9478689432
52.9395993007
52.9314383121
52.9233853739
52.9154411089
52.907603729
52.8998730674
52.8922533427
52.8847512085
52.8773728273
52.8701239271
52.863015317
52.8560617602
52.8492778293
52.8426780121
52.8362820047
52.8301157089
52.8242067011
52.8185824035
52.8132763143
52.8083302053
52.8037886471
52.7996988416
52.7961166579
52.7931068135
52.7907396239
52.7890919183
52.7882532245
52.7883235745
52.7894120518
52.7916400137
52.7951456009
52.8000827352
52.8066191614
52.8149427508
52.8252629614
52.8378084935
52.8528327672
52.8706174427
52.891469072
52.9157232092
52.9437472278
52.9759420964
53.0127408866
53.0546088337
53.1020448939
53.1555755242
53.2157459394
53.2831145332
53.3582191495
53.4415496299
53.5334778131
53.6341586206
53.7433519358
53.8601427723
53.9824646011
54.1063278467
54.2245739283
54.3248246828
54.386172347
54.3740466139
54.2326148531
53.8749955174
53.1746657809
51.9684587288
50.0867823284
47.4121027306
43.9267823653
39.6972395439
34.813592589
29.3758698882
23.4767767647
16.9870016474
9.67228810072
2.625016059
81.8771041493
77.8401522293
75.1537691042
73.0290452203
71.2475246188
69.7079668262
68.3528981277
67.1474500208
66.0680399688
65.0971208558
64.2207766309
63.4275294151
62.7077020626
62.0530348238
61.4564219981
60.9117136852
60.4135592468
59.9572818216
59.5387765367
59.1544264353
58.8010331687
58.4757598168
58.1760826004
57.8997490895
57.6447418748
57.4092481168
57.1916353062
56.990431209
56.8043053994
56.632051715
56.4725734292
56.3248702463
56.1880279568
56.0612100664
55.9436511659
55.8346509249
55.7335665296
55.6398049654
55.5528170036
55.4720939519
55.3971596055
55.3275654352
55.2628784437
55.2027767088
55.146948069
55.0950408053
55.0467375726
55.0017640285
54.959880163
54.9208519264
54.8844553137
54.8504826655
54.8187490352
54.7890807144
54.7613144947
54.7352974111
54.7108878237
54.6879544192
54.6663769879
54.6460460025
54.6268586521
54.6087179565
54.5915336011
54.5752234627
54.5597124589
54.5449324929
54.5308185694
54.5173122347
54.5043596946
54.4919109877
54.4799222242
54.4683492958
54.4571542071
54.4463026192
54.4357646531
54.4255138878
54.415520266
54.4057626265
54.3962176155
54.3868687448
54.3777015106
54.3686947586
54.3598405064
54.3511221757
54.3425369607
54.3340726381
54.3257226459
54.3174808085
54.3093474632
54.3013182526
54.2933939565
54.2855701738
54.2778524602
54.2702460857
54.2627526724
54.2553819772
54.2481383944
54.2410384448
54.2340925008
54.2273154441
54.2207224038
54.2143387796
54.2081876307
54.2022953627
54.1966906857
54.1914148634
54.1865060709
54.1820063122
54.1779702748
54.1744564044
54.1715272579
54.1692584881
54.1677291581
54.1670352112
54.1672748342
54.1685651818
54.1710336879
54.1748252864
54.1800967631
54.1870280448
54.1958136529
54.2066740744
54.2198479282
54.2356039246
54.2542382005
54.2760667509
54.301447709
54.3307638407
54.3644339797
54.4029016033
54.4466515423
54.496182848
54.5520136525
54.6146656242
54.6846231878
54.7623060213
54.8479799391
54.9416514664
55.0428599709
55.1503752194
55.2616883545
55.3721762234
55.4738660314
55.5533567569
55.5886081671
55.5440492691
55.3635037786
54.9611654153
54.2135210735
52.9613744297
51.0367438177
48.3182736633
44.7813493746
40.4892376745
35.5319365888
30.0011874548
23.9937865714
17.4346241295
10.0862256151
2.81849865042
84.106935375
80.1807549988
77.3371644113
75.0783761177
73.1943590271
71.5761200306
70.1594697482
68.9047724324
67.7851436018
66.7807282244
65.8759731788
65.0582234754
64.3169463977
63.6432544125
63.0295769261
62.4694166684
61.9571610745
61.487933691
61.0574755575
60.6620494525
60.2983620988
59.9635005361
59.6548787107
59.3701919516
59.1073783689
58.8645870239
58.6401520907
58.4325713388
58.2404868806
58.0626670811
57.8979913979
57.7454370787
57.6040686825
57.4730299788
57.3515371574
57.2388718331
57.1343733027
57.0374317293
56.947482867
56.8640071736
56.7865273199
56.7145996377
56.6477724776
56.5856627822
56.5279063148
56.4741932903
56.4242460768
56.3777883899
56.3345500241
56.2942804404
56.2567494177
56.2217423549
56.1890617773
56.1585249361
56.1299623304
56.1032153906
56.0781373099
56.0545922687
56.0324556867
56.011613713
55.9919594158
55.9733919793
55.9558178297
55.9391518429
55.923315771
55.9082389212
55.8938541206
55.8801002516
55.8669215861
55.854265978
55.8420876788
55.8303411834
55.8189868372
55.8079890594
55.7973159385
55.7869402512
55.7768307188
55.7669653871
55.757320659
55.7478770213
55.73861991
55.7295276195
55.7205913085
55.7117939086
55.7031303771
55.6945882291
55.6861604793
55.6778408553
55.6696279717
55.6615157473
55.6535037914
55.6455877299
55.6377712161
55.6300586241
55.6224501691
55.6149539727
55.6075736917
55.6003235276
55.5932117697
55.5862520752
55.5794574077
55.5728486536
55.5664465828
55.5602767403
55.5543642287
55.5487450448
55.5434543823
55.5385292738
55.5340192715
55.5299791725
55.5264647865
55.5235450958
55.5212928432
55.5197958554
55.519144046
55.519446399
55.5208208894
55.5234007752
55.5273307567
55.5327795679
55.5399287694
55.5489832834
55.5601666675
55.5737317073
55.5899551012
55.6091353888
55.6316090306
55.6577332302
55.6879027264
55.7225329633
55.762069987
55.8069746279
55.857711745
55.9147370617
55.9784496869
56.0491553329
56.1269620736
56.2116635043
56.3025068363
56.3978598758
56.494679912
56.5876056834
56.6677596047
56.7206698374
56.7231531937
56.6387645862
56.4112813155
55.9565636509
55.1551987417
53.8536742067
51.8874867247
49.1320221549
45.5538356942
41.2099041722
36.1896164052
30.5782328086
24.4717942321
17.8436218957
10.4653736163
2.99829911816
85.9254527417
82.2099109934
79.3269447648
76.9936181714
75.0384671553
73.3598679707
71.8935801427
70.5980607135
69.444496921
68.4114570374
67.4821734139
66.6430775476
65.8829560647
65.1924153756