/*--------------------------------*- C++ -*----------------------------------*\
| =========                 |                                                 |
| \\      /  F ield         | OpenFOAM: The Open Source CFD Toolbox           |
|  \\    /   O peration     | Version:  2106                                  |
|   \\  /    A nd           | Website:  www.openfoam.com                      |
|    \\/     M anipulation  |                                                 |
\*---------------------------------------------------------------------------*/
FoamFile
{
    version     2.0;
    format      ascii;
    arch        "LSB;label=32;scalar=64";
    class       surfaceScalarField;
    location    "0.035";
    object      phi;
}
// * * * * * * * * * * * * * * * * * * * * * * * * * * * * * * * * * * * * * //

dimensions      [0 3 -1 0 0 0 0];

oriented        oriented;

internalField   nonuniform List<scalar> 
22100
(
3.38452752745e-05
1.61547247259e-05
2.24562110167e-05
1.13890641021e-05
1.62593673947e-05
6.19684353401e-06
1.28035821809e-05
3.45578526024e-06
1.08198204123e-05
1.98376194269e-06
9.63447492073e-06
1.18534583316e-06
8.90162078338e-06
7.32854670383e-07
8.44034737896e-06
4.61274065604e-07
8.15009724339e-06
2.902508501e-07
7.97066684531e-06
1.79431039853e-07
7.86358493615e-06
1.07082344073e-07
7.80321727772e-06
6.0367778358e-08
7.77220720058e-06
3.10098073667e-08
7.75884556253e-06
1.3360977348e-08
7.75521965198e-06
3.62489824072e-09
7.75651489829e-06
-1.29651745075e-09
7.76030685735e-06
-3.79336282612e-09
7.76448311794e-06
-4.17765643306e-09
7.76827188839e-06
-3.78999625206e-09
7.77138160098e-06
-3.110654696e-09
7.77377018683e-06
-2.38914483513e-09
7.77549265329e-06
-1.72261878501e-09
7.77666445614e-06
-1.1715812948e-09
7.77749605209e-06
-8.31085310495e-10
7.7780547241e-06
-5.58016933158e-10
7.77841767189e-06
-3.62280954169e-10
7.77864682568e-06
-2.28619520004e-10
7.77878743011e-06
-1.40342304359e-10
7.77887133928e-06
-8.39628949715e-11
7.77891897094e-06
-4.79383258338e-11
7.7789420563e-06
-2.34957659225e-11
7.7789496092e-06
-7.86655656426e-12
7.77894927472e-06
2.81532991964e-13
7.77894505966e-06
4.49197276121e-12
7.77893891871e-06
6.72677822941e-12
7.77893183688e-06
7.87379628068e-12
7.77892414635e-06
8.52021486649e-12
7.77891588296e-06
8.94966817798e-12
7.77890699658e-06
9.30429309997e-12
7.77889745298e-06
9.66747810757e-12
7.77888729574e-06
1.00776261494e-11
7.77887665581e-06
1.05408555578e-11
7.77886565711e-06
1.10677282345e-11
7.77885426821e-06
1.17201470692e-11
7.7788422288e-06
1.26198900792e-11
7.77882906635e-06
1.39178494113e-11
7.77881410598e-06
1.57867803419e-11
7.77879653333e-06
1.83413367343e-11
7.7787754674e-06
2.16315973882e-11
7.77875006389e-06
2.56408126895e-11
7.77871962327e-06
3.03039873081e-11
7.77868358585e-06
3.56019434476e-11
7.77864143503e-06
4.15989016716e-11
7.77859257004e-06
4.84172991067e-11
7.77853620283e-06
5.61889036924e-11
7.77847136835e-06
6.49614303921e-11
7.77839709773e-06
7.45948014657e-11
7.77831277615e-06
8.46720128231e-11
7.77821873927e-06
9.43114623029e-11
7.77811698268e-06
1.01958928156e-10
7.7780142303e-06
1.02911205279e-10
7.77792478471e-06
8.95383675536e-11
7.77786378202e-06
6.09592326655e-11
7.77785465248e-06
8.9239813421e-12
7.7779453683e-06
-9.10183028019e-11
7.77821622958e-06
-2.71181615319e-10
7.77879791383e-06
-5.81974013358e-10
7.77989787276e-06
-1.10022701782e-09
7.78183337575e-06
-1.93582216418e-09
7.78503788709e-06
-3.20489287926e-09
7.7903326083e-06
-5.29505741727e-09
7.799422557e-06
-9.0901214224e-09
7.81432599692e-06
-1.4903436741e-08
7.83921941962e-06
-2.4893363062e-08
7.88359602871e-06
-4.43766905022e-08
7.9726685487e-06
-8.90728326315e-08
8.17766307374e-06
-2.04995057773e-07
8.72636937168e-06
-5.48706944816e-07
1.04761215316e-05
-1.7497526373e-06
-6.59849925192e-06
1.70746204621e-05
5.02175999077e-05
1.59371247465e-05
4.42469137236e-05
1.7359750238e-05
3.77907472171e-05
1.26530101818e-05
3.26742835979e-05
8.57224929265e-06
2.89941419813e-05
5.66390428669e-06
2.64563630481e-05
3.72312577466e-06
2.47381218479e-05
2.45109707466e-06
2.3589802621e-05
1.60959452468e-06
2.28344971564e-05
1.04555737653e-06
2.23486580062e-05
6.65270868204e-07
2.20457127976e-05
4.10027669428e-07
2.18647397778e-05
2.41340246207e-07
2.17629815115e-05
1.3276685008e-07
2.17108179741e-05
6.55227108527e-08
2.16883742234e-05
2.60664249838e-08
2.16826301957e-05
4.44506419891e-09
2.16847429003e-05
-5.90846884957e-09
2.16902761484e-05
-9.71299893081e-09
2.16965736741e-05
-1.0089107926e-08
2.17023428811e-05
-8.88078729576e-09
2.17070928024e-05
-7.13930317527e-09
2.17107789312e-05
-5.40835883292e-09
2.17135311646e-05
-3.92296049068e-09
2.17154532123e-05
-2.75205507635e-09
2.17167706055e-05
-1.87433407215e-09
2.17176551393e-05
-1.24597239045e-09
2.17182401971e-05
-8.13272145729e-10
2.17186270694e-05
-5.2730290088e-10
2.17188852869e-05
-3.42654600814e-10
2.1719030645e-05
-1.93914140199e-10
2.17191105274e-05
-1.03819585956e-10
2.17191509032e-05
-4.82435485021e-11
2.1719169649e-05
-1.79176524605e-11
2.17191761354e-05
-9.58311370738e-13
2.17191752947e-05
8.89413850224e-12
2.17191700309e-05
1.44735722679e-11
2.17191619205e-05
1.77207506918e-11
2.17191518312e-05
1.97482823942e-11
2.17191402188e-05
2.12467075518e-11
2.17191273119e-05
2.2643585809e-11
2.17191132395e-05
2.41736752661e-11
2.17190980502e-05
2.59510273265e-11
2.17190816569e-05
2.80461680554e-11
2.17190638027e-05
3.05559449551e-11
2.1719044079e-05
3.36214862773e-11
2.1719021951e-05
3.74274438962e-11
2.17189967394e-05
4.22580966688e-11
2.17189677261e-05
4.82743916831e-11
2.17189342062e-05
5.55475346654e-11
2.17188955158e-05
6.41213522053e-11
2.17188511398e-05
7.39833981491e-11
2.17188007817e-05
8.51110469483e-11
2.17187443423e-05
9.74207382354e-11
2.17186818767e-05
1.10695496584e-10
2.17186137146e-05
1.24529957034e-10
2.17185408589e-05
1.38170725193e-10
2.17184656662e-05
1.50183122125e-10
2.17183929767e-05
1.57786033492e-10
2.17183320182e-05
1.55724435039e-10
2.17182986667e-05
1.35708696014e-10
2.17183227969e-05
7.89790958932e-11
2.17184606487e-05
-4.84350029789e-11
2.17188034968e-05
-2.82323817258e-10
2.17195035789e-05
-6.91754001469e-10
2.17206781833e-05
-1.26621593711e-09
2.17225863043e-05
-2.17980643032e-09
2.17256989254e-05
-3.69504146739e-09
2.17307500353e-05
-6.15185404342e-09
2.17389173337e-05
-1.01037388592e-08
2.17521666135e-05
-1.64547408632e-08
2.17736666178e-05
-2.67953687487e-08
2.18087826161e-05
-4.42061490254e-08
2.1866683723e-05
-7.28045163619e-08
2.19642270885e-05
-1.22436883066e-07
2.21340968766e-05
-2.14246994796e-07
2.24425051166e-05
-3.97481945648e-07
2.30268072646e-05
-7.89298257852e-07
2.41586387072e-05
-1.68053949173e-06
2.62859321844e-05
-3.87704706899e-06
-8.90769275116e-06
2.85951258258e-05
5.35182330641e-05
1.24188915914e-05
5.29416987009e-05
1.79362844902e-05
4.96739877958e-05
1.59207211839e-05
4.58850790984e-05
1.2361158323e-05
4.25241009385e-05
9.02488302048e-06
3.98685593964e-05
6.37866814418e-06
3.78985429654e-05
4.42111449062e-06
3.64954145418e-05
3.01272396718e-06
3.55278422295e-05
2.01313056866e-06
3.48809897147e-05
1.31212394156e-06
3.44629754341e-05
8.28042044391e-07
3.42035100617e-05
5.00805164147e-07
3.40504547994e-05
2.85821094288e-07
3.39662399144e-05
1.49736062505e-07
3.39246435304e-05
6.76608639709e-08
3.39078297771e-05
2.12566709109e-08
3.39046884399e-05
-2.76925995364e-09
3.39078187517e-05
-1.28451587323e-08
3.39133940851e-05
-1.56657969652e-08
3.39192726893e-05
-1.47601323638e-08
3.39244717467e-05
-1.23384585483e-08
3.3928656514e-05
-9.59267855496e-09
3.39318228951e-05
-7.08851539165e-09
3.39341125313e-05
-5.04067257514e-09
3.39357121403e-05
-3.47294623959e-09
3.39367960539e-05
-2.32914034939e-09
3.39375084014e-05
-1.52528813358e-09
3.39379592005e-05
-9.78215725418e-10
3.39382348304e-05
-6.1872704112e-10
3.39384364539e-05
-3.96069973811e-10
3.39385598749e-05
-2.27588530162e-10
3.39386281931e-05
-1.16520899662e-10
3.39386648402e-05
-5.40509794902e-11
3.3938682589e-05
-1.77697942218e-11
3.39386885076e-05
4.15360300986e-12
3.39386870924e-05
1.70502512764e-11
3.39386809615e-05
2.47701038108e-11
3.39386716883e-05
2.95765335198e-11
3.39386601603e-05
3.2979264737e-11
3.39386468767e-05
3.59243487966e-11
3.39386321176e-05
3.89397130704e-11
3.39386159733e-05
4.23075705587e-11
3.3938598346e-05
4.62001562676e-11
3.39385789931e-05
5.07620523983e-11
3.39385575773e-05
5.61393612205e-11
3.39385336377e-05
6.25615421111e-11
3.39385064431e-05
7.0532600387e-11
3.39384753427e-05
8.01298305464e-11
3.39384398912e-05
9.12738246866e-11
3.39383997537e-05
1.04015117139e-10
3.39383548032e-05
1.18300654367e-10
3.39383052231e-05
1.33951769543e-10
3.39382515592e-05
1.50554666511e-10
3.39381948201e-05
1.67294060018e-10
3.39381367968e-05
1.82754432882e-10
3.39380807596e-05
1.94551982353e-10
3.3938032724e-05
1.98548226497e-10
3.39380035381e-05
1.87265729391e-10
3.39380115412e-05
1.48011781215e-10
3.39380846702e-05
6.28428602856e-11
3.39382773865e-05
-1.13612371282e-10
3.39386914038e-05
-4.62561902872e-10
3.39393823102e-05
-9.73543533722e-10
3.39404322997e-05
-1.74215441766e-09
3.39421988747e-05
-3.03320055069e-09
3.39451448864e-05
-5.12620328324e-09
3.3949937883e-05
-8.4884827771e-09
3.39576586655e-05
-1.38731961067e-08
3.39700538351e-05
-2.24995014434e-08
3.39899917887e-05
-3.63931556444e-08
3.4022206482e-05
-5.90102969748e-08
3.4073859977e-05
-9.58597158707e-08
3.41579999052e-05
-1.56944570303e-07
3.42967502832e-05
-2.61187650131e-07
3.45280955525e-05
-4.45592984867e-07
3.49157677475e-05
-7.85155079058e-07
3.55569875293e-05
-1.43051886929e-06
3.65555791626e-05
-2.67913188756e-06
3.78000342451e-05
-5.12150306881e-06
-9.36083318371e-06
3.8253173555e-05
5.35121887543e-05
8.90670280676e-06
5.55823369894e-05
1.58661361756e-05
5.52649827815e-05
1.62380754842e-05
5.36458543818e-05
1.3980287039e-05
5.16294185791e-05
1.10413193631e-05
4.97229069241e-05
8.28518057508e-06
4.81376224487e-05
6.00639987796e-06
4.69158767604e-05
4.23447059861e-06
4.60230453645e-05
2.90596277419e-06
4.53982535195e-05
1.93691630641e-06
4.49783297171e-05
1.24796592951e-06
4.47076647009e-05
7.7146975063e-07
4.45412676241e-05
4.52217182361e-07
4.44447493671e-05
2.46252809418e-07
4.43930262098e-05
1.19382111441e-07
4.43685799391e-05
4.57008130186e-08
4.43595242134e-05
6.28440373281e-09
4.4358817607e-05
-1.21402970241e-08
4.43617879765e-05
-1.86373825381e-08
4.43659550194e-05
-1.89277412116e-08
4.43700574151e-05
-1.6440804795e-08
4.43735570666e-05
-1.30917713592e-08
4.43763107824e-05
-9.8413206989e-09
4.43783637789e-05
-7.09260316281e-09
4.43798358644e-05
-4.94403365954e-09
4.43808595397e-05
-3.35211060716e-09
4.4381553013e-05
-2.21849247463e-09
4.43820111954e-05
-1.43656425442e-09
4.43823020859e-05
-9.10069912836e-10
4.43824632851e-05
-5.57756229985e-10
4.43825550041e-05
-3.19576645919e-10
4.43825950975e-05
-1.56497592445e-10
4.43826243631e-05
-8.27622662243e-11
4.43826405168e-05
-3.30049862744e-11
4.43826472837e-05
-1.50628479353e-12
4.43826478198e-05
1.75975319083e-11
4.43826438614e-05
2.95994454162e-11
4.43826366775e-05
3.72948320695e-11
4.43826269807e-05
4.28655425164e-11
4.43826151679e-05
4.7716428633e-11
4.43826014806e-05
5.26165735243e-11
4.43825859967e-05
5.79876144396e-11
4.43825686031e-05
6.4095551673e-11
4.43825490262e-05
7.11463708737e-11
4.43825268624e-05
7.93401068702e-11
4.43825016033e-05
8.89405525624e-11
4.43824728177e-05
1.00312828341e-10
4.43824400924e-05
1.13503317845e-10
4.43824030419e-05
1.28481508757e-10
4.43823614779e-05
1.45259853139e-10
4.43823155445e-05
1.6361775513e-10
4.43822657609e-05
1.8308101155e-10
4.4382213081e-05
2.02769373622e-10
4.43821590476e-05
2.2116323742e-10
4.438210612e-05
2.35785837688e-10
4.43820582009e-05
2.42727036449e-10
4.4382021234e-05
2.35821526235e-10
4.43820035084e-05
2.05300596332e-10
4.43820167497e-05
1.35062766124e-10
4.43820837118e-05
-3.90588019028e-12
4.43822272308e-05
-2.5709527742e-10
4.43825297155e-05
-7.65212202233e-10
4.43832016424e-05
-1.64576441339e-09
4.43844364963e-05
-2.97732504852e-09
4.43864819594e-05
-5.07895231964e-09
4.43897821495e-05
-8.42672937432e-09
4.43950576063e-05
-1.37644346584e-08
4.44034506089e-05
-2.22668414547e-08
4.44167714943e-05
-3.58209959784e-08
4.44378747911e-05
-5.74968483353e-08
4.44712192617e-05
-9.23549485264e-08
4.4524178747e-05
-1.48819316934e-07
4.46085883306e-05
-2.41354433439e-07
4.4742940192e-05
-3.95540092501e-07
4.49547273882e-05
-6.57381030171e-07
4.52797904193e-05
-1.11021911034e-06
4.57491879179e-05
-1.89991725637e-06
4.63346396963e-05
-3.26458420523e-06
4.6773327129e-05
-5.56019078559e-06
-8.95421281675e-06
4.63667061937e-05
5.27365504584e-05
6.1701522979e-06
5.57375548174e-05
1.28651317246e-05
5.73291301601e-05
1.46465002181e-05
5.76477903362e-05
1.36616271447e-05
5.71994309573e-05
1.14896792461e-05
5.64254794716e-05
9.05913277657e-06
5.56060364499e-05
6.82584375981e-06
5.48807600825e-05
4.95974785035e-06
5.4299572832e-05
3.48715078686e-06
5.38643971093e-05
2.3720925065e-06
5.35555981674e-05
1.55676495877e-06
5.3346761197e-05
9.80306290064e-07
5.32121048048e-05
5.86872581518e-07
5.31296685544e-05
3.28687532821e-07
5.3082234998e-05
1.66813715664e-07
5.30571038085e-05
7.08298780945e-08
5.30454078846e-05
1.79783081329e-08
5.30413233746e-05
-8.0574200509e-09
5.30411595667e-05
-1.84746121709e-08
5.30427113056e-05
-2.04798782037e-08
5.30447790354e-05
-1.85083370096e-08
5.30467721639e-05
-1.50842202611e-08
5.30484499019e-05
-1.15180668321e-08
5.30497551321e-05
-8.39672335229e-09
5.30507181755e-05
-5.90607914365e-09
5.30514003981e-05
-4.03365851597e-09
5.30518644802e-05
-2.68233481713e-09
5.30521665515e-05
-1.73880695344e-09
5.30523550613e-05
-1.09899571551e-09
5.30524732604e-05
-6.76363004625e-10
5.30525550788e-05
-4.01558837678e-10
5.30526266027e-05
-2.27795249595e-10
5.30526691603e-05
-1.24683223662e-10
5.3052698086e-05
-6.09901462501e-11
5.30527112138e-05
-1.35657459332e-11
5.30527158274e-05
1.39999054934e-11
5.30527148137e-05
3.1421023829e-11
5.30527099265e-05
4.26755433913e-11
5.30527021569e-05
5.08102024181e-11
5.30526920793e-05
5.77770605935e-11
5.3052679999e-05
6.46918364341e-11
5.30526660159e-05
7.21580944947e-11
5.30526500614e-05
8.05231819444e-11
5.30526319851e-05
8.99808955889e-11
5.30526117281e-05
1.00561480388e-10
5.30525898548e-05
1.11840325661e-10
5.30525639437e-05
1.27112613687e-10
5.30525330972e-05
1.44884271907e-10
5.3052497862e-05
1.63762831204e-10
5.30524580864e-05
1.84640521913e-10
5.30524139196e-05
2.07167332396e-10
5.30523658664e-05
2.30560167357e-10
5.30523147733e-05
2.53503492904e-10
5.30522619648e-05
2.738478258e-10
5.30522095865e-05
2.88202472898e-10
5.30521611614e-05
2.91282885617e-10
5.30521225934e-05
2.74582429415e-10
5.30521055469e-05
2.22599897928e-10
5.30521531412e-05
8.77424858863e-11
5.30522558883e-05
-1.0646762415e-10
5.30524438026e-05
-4.44995208225e-10
5.30528413897e-05
-1.16294158294e-09
5.30534717425e-05
-2.27634715111e-09
5.30545111094e-05
-4.01695049258e-09
5.30562088961e-05
-6.77703450911e-09
5.30589352088e-05
-1.11534415467e-08
5.30632560125e-05
-1.80857788077e-08
5.30700504445e-05
-2.90618844674e-08
5.30806850478e-05
-4.64561491185e-08
5.3097275415e-05
-7.40875853258e-08
5.31230730624e-05
-1.18152822538e-07
5.3163046339e-05
-1.88792872638e-07
5.32244912196e-05
-3.0279982003e-07
5.33172364369e-05
-4.88286169906e-07
5.34521487405e-05
-7.9229435025e-07
5.36343111043e-05
-1.2923824721e-06
5.384366594e-05
-2.10927293545e-06
5.39896785028e-05
-3.41059735538e-06
5.3818512747e-05
-5.38902512561e-06
-8.04789848717e-06
5.29121981696e-05
5.19842323863e-05
4.18591983736e-06
5.50617303596e-05
9.7876335852e-06
5.76461265054e-05
1.2062104087e-05
5.93406847559e-05
1.1967069089e-05
6.02534067766e-05
1.05769576671e-05
6.06324835304e-05
8.68005668057e-06
6.07054616382e-05
6.75286644967e-06
6.06310674307e-05
5.03414287535e-06
6.05039970549e-05
3.61422185643e-06
6.03737676953e-05
2.50232231236e-06
6.02621371896e-05
1.66839550398e-06
6.01755352486e-05
1.06690777301e-06
6.01128717535e-05
6.49535049993e-07
6.00700206203e-05
3.71537088303e-07
6.00421859891e-05
1.94646379194e-07
6.00250095556e-05
8.80042003647e-08
6.00149976105e-05
2.79883165927e-08
6.00095435187e-05
-2.60479739862e-09
6.00068641855e-05
-1.57961363855e-08
6.00057502438e-05
-1.93661559283e-08
6.00054582801e-05
-1.82160166034e-08
6.00055516275e-05
-1.51767743802e-08
6.00057902456e-05
-1.17556198359e-08
6.00060528495e-05
-8.65819335581e-09
6.00062862077e-05
-6.13846486694e-09
6.00064729142e-05
-4.21973380078e-09
6.00066147838e-05
-2.8239964203e-09
6.00067198135e-05
-1.84400310281e-09
6.00067970346e-05
-1.17657976053e-09
6.0006856507e-05
-7.36159883922e-10
6.00069020209e-05
-4.47145799553e-10
6.00069324461e-05
-2.57912391009e-10
6.00069465288e-05
-1.38072607219e-10
6.00069444247e-05
-5.79198078257e-11
6.00069412353e-05
-9.31046210864e-12
6.00069392105e-05
1.70119816486e-11
6.00069354665e-05
3.59224024002e-11
6.00069308848e-05
4.76983765363e-11
6.00069248391e-05
5.70040549233e-11
6.00069168902e-05
6.57089554828e-11
6.00069069944e-05
7.45772386625e-11
6.00068951341e-05
8.41679427947e-11
6.00068811739e-05
9.48884069958e-11
6.00068647879e-05
1.07038429209e-10
6.00068453325e-05
1.20875469044e-10
6.00068214111e-05
1.36653784559e-10
6.00067946337e-05
1.54615406876e-10
6.00067651876e-05
1.7469821315e-10
6.00067320121e-05
1.9685815771e-10
6.00066951439e-05
2.21059637524e-10
6.00066549429e-05
2.46772362642e-10
6.00066120841e-05
2.72916767674e-10
6.00065676386e-05
2.97665282018e-10
6.00065232694e-05
3.18130963289e-10
6.00064815293e-05
3.29964816067e-10
6.00064459699e-05
3.26903853533e-10
6.00064202267e-05
3.00432593016e-10
6.00064024106e-05
2.40595906098e-10
6.00063529115e-05
1.37432387159e-10
6.0006333981e-05
-8.74446826909e-11
6.00064699081e-05
-5.80960776131e-10
6.00066867199e-05
-1.37986725289e-09
6.00070554437e-05
-2.64520268133e-09
6.00076707925e-05
-4.63248106825e-09
6.00086541069e-05
-7.76067200542e-09
6.00101868238e-05
-1.26866591324e-08
6.00125387018e-05
-2.0438261759e-08
6.00161089758e-05
-3.26327379419e-08
6.00214817835e-05
-5.18293954376e-08
6.0029491569e-05
-8.20976330306e-08
6.00412726101e-05
-1.2993414756e-07
6.00582142041e-05
-2.05735032421e-07
6.00815822791e-05
-3.26168726411e-07
6.01111698732e-05
-5.17874737038e-07
6.01416698461e-05
-8.22795408438e-07
6.01540999916e-05
-1.304813652e-06
6.00988049253e-05
-2.05397853972e-06
5.98671679689e-05
-3.17896082747e-06
5.92543163523e-05
-4.77617348463e-06
-6.80271845235e-06
5.8009136306e-05
5.14372212354e-05
2.74869851697e-06
5.42644538978e-05
6.9604006715e-06
5.72446224394e-05
9.08193546596e-06
5.97778062122e-05
9.43388546979e-06
6.16961090268e-05
8.65865524302e-06
6.30471723028e-05
7.32899402825e-06
6.39530274919e-05
5.84701200552e-06
6.45381521424e-05
4.44901898223e-06
6.49038084579e-05
3.24856617362e-06
6.51244688103e-05
2.28166233226e-06
6.52520138976e-05
1.54085041285e-06
6.53214291796e-05
9.97491967585e-07
6.53557631127e-05
6.15200023418e-07
6.53698647092e-05
3.57433877333e-07
6.53730446746e-05
1.91464440871e-07
6.53709304953e-05
9.01163317904e-08
6.53667613202e-05
3.21556975941e-08
6.53622358669e-05
1.91935936757e-09
6.53582022673e-05
-1.17632187869e-08
6.53549228165e-05
-1.60867602197e-08
6.53524215347e-05
-1.57142559963e-08
6.53505980253e-05
-1.3352387976e-08
6.53493145928e-05
-1.04710733557e-08
6.53484371072e-05
-7.77956891115e-09
6.5347852086e-05
-5.55249487933e-09
6.53474710477e-05
-3.83809622053e-09
6.53472290958e-05
-2.5818534152e-09
6.53470797802e-05
-1.69482648061e-09
6.53469899302e-05
-1.08701343584e-09
6.53469342708e-05
-6.80711308903e-10
6.53468995459e-05
-4.12377330726e-10
6.53468768433e-05
-2.3481302721e-10
6.53468617931e-05
-1.2228179264e-10
6.53468584081e-05
-5.35544087921e-11
6.53468644819e-05
-1.43206662767e-11
6.5346868307e-05
1.41589424171e-11
6.53468676987e-05
3.72554366291e-11
6.53468648888e-05
5.09137712383e-11
6.53468602762e-05
6.17477790044e-11
6.53468542076e-05
7.17571818975e-11
6.53468466817e-05
8.20747306031e-11
6.53468375536e-05
9.33943053561e-11
6.53468265971e-05
1.06168365785e-10
6.53468134841e-05
1.20723593282e-10
6.53467977743e-05
1.37329130458e-10
6.53467789449e-05
1.5623124803e-10
6.53467565026e-05
1.77602845295e-10
6.53467313299e-05
2.00054107777e-10
6.53467038473e-05
2.24135675772e-10
6.53466725657e-05
2.51874423076e-10
6.53466375403e-05
2.81277743381e-10
6.53465989929e-05
3.11060828592e-10
6.53465572123e-05
3.39218909701e-10
6.53465125929e-05
3.62660802498e-10
6.53464657247e-05
3.76798347118e-10
6.53464176077e-05
3.75004756323e-10
6.53463703837e-05
3.47694819551e-10
6.53463301636e-05
2.80917956315e-10
6.53463083627e-05
1.59337896643e-10
6.53462747329e-05
-5.37760734255e-11
6.53462504639e-05
-5.56740719719e-10
6.53462343032e-05
-1.3638022829e-09
6.53462289366e-05
-2.63994974532e-09
6.5346230349e-05
-4.63408892198e-09
6.5346218886e-05
-7.74958346925e-09
6.53461469767e-05
-1.26152970622e-08
6.53459167948e-05
-2.02086683091e-08
6.53453386517e-05
-3.20550616509e-08
6.53440532364e-05
-5.05442936088e-08
6.53413843127e-05
-7.94289770775e-08
6.53360533924e-05
-1.2460359563e-07
6.53256207977e-05
-1.95303094605e-07
6.53053629877e-05
-3.05911855017e-07
6.52660271651e-05
-4.78540026302e-07
6.5189519405e-05
-7.46288704408e-07
6.50411082189e-05
-1.15640336371e-06
6.47572949009e-05
-1.77016574191e-06
6.42313951411e-05
-2.65306136631e-06
6.33047665027e-05
-3.84954472789e-06
-5.31409659561e-06
6.18161447513e-05
5.10841896318e-05
1.66450872225e-06
5.36062470232e-05
4.43834292024e-06
5.66702357242e-05
6.01794659669e-06
5.96511534369e-05
6.45296783385e-06
6.22279062934e-05
6.08190274813e-06
6.42943947624e-05
5.2625061284e-06
6.58662897688e-05
4.27511770259e-06
6.7013515671e-05
3.30179376401e-06
6.7821116485e-05
2.44096590901e-06
6.83701201168e-05
1.73265899142e-06
6.87298146505e-05
1.18115577642e-06
6.89558132359e-05
7.71492779086e-07
6.9090766871e-05
4.80245234744e-07
6.91661325454e-05
2.82066556267e-07
6.92042430424e-05
1.53352005042e-07
6.92203273133e-05
7.40301351837e-08
6.92243156973e-05
2.81657029782e-08
6.92223931429e-05
3.84082393241e-09
6.92180940283e-05
-7.46457548427e-09
6.92133662088e-05
-1.13588197868e-08
6.92091072081e-05
-1.1454644258e-08
6.92056434845e-05
-9.8876869483e-09
6.92030029016e-05
-7.8293163673e-09
6.92010804026e-05
-5.85590520067e-09
6.91997294639e-05
-4.20059962896e-09
6.91988072518e-05
-2.91528830336e-09
6.91981932272e-05
-1.9676352155e-09
6.91977934311e-05
-1.29513734177e-09
6.91975381447e-05
-8.31938842818e-10
6.91973776614e-05
-5.20333216671e-10
6.91972793426e-05
-3.13894690573e-10
6.91972238272e-05
-1.7879773446e-10
6.91971957917e-05
-9.34474872159e-11
6.91971814763e-05
-3.82447137293e-11
6.91971654717e-05
2.73424746802e-12
6.91971572416e-05
2.33281288187e-11
6.91971553271e-05
3.98485384543e-11
6.9197153743e-05
5.28569552364e-11
6.91971515019e-05
6.40762324465e-11
6.91971482232e-05
7.49659478831e-11
6.91971437536e-05
8.64560766564e-11
6.91971380128e-05
9.91626408231e-11
6.91971309023e-05
1.13514675095e-10
6.91971222601e-05
1.29822223538e-10
6.91971118693e-05
1.48310822126e-10
6.91970995295e-05
1.69128944782e-10
6.919708508e-05
1.92391889213e-10
6.91970671158e-05
2.18027515549e-10
6.91970448115e-05
2.46145959423e-10
6.91970194325e-05
2.76806999088e-10
6.91969910047e-05
3.0928236768e-10
6.91969594671e-05
3.42301358073e-10
6.91969246759e-05
3.7383978017e-10
6.91968864097e-05
4.00812750489e-10
6.91968443456e-05
4.18748888067e-10
6.91967978842e-05
4.21369939654e-10
6.91967454578e-05
4.00064155359e-10
6.91966828601e-05
3.43481284501e-10
6.91966042965e-05
2.37878275386e-10
6.91964970868e-05
5.34233028809e-11
6.91963246696e-05
-3.84325684284e-10
6.91960799276e-05
-1.1190813358e-09
6.9195692496e-05
-2.25261353893e-09
6.91950643637e-05
-4.00621505916e-09
6.91940281739e-05
-6.71386815052e-09
6.91923052068e-05
-1.08929454666e-08
6.91894331102e-05
-1.73371499591e-08
6.91846451989e-05
-2.72674968693e-08
6.91766718603e-05
-4.25711147743e-08
6.91634108736e-05
-6.61682015977e-08
6.91413747253e-05
-1.02567888286e-07
6.91047608582e-05
-1.58689966226e-07
6.90438828335e-05
-2.45034770917e-07
6.89425585846e-05
-3.77216914093e-07
6.87739240443e-05
-5.77655285915e-07
6.84942010828e-05
-8.76681269641e-07
6.803500972e-05
-1.31097480449e-06
6.72976144344e-05
-1.91566621364e-06
6.61562714258e-05
-2.70820152925e-06
-3.65419168027e-06
6.44963666784e-05
5.08789921471e-05
7.85516360539e-07
5.31616392042e-05
2.15569538007e-06
5.61913665793e-05
2.98821899161e-06
5.93797576224e-05
3.26457684099e-06
6.23359475239e-05
3.12571317783e-06
6.4857975516e-05
2.74047868528e-06
6.68823454164e-05
2.25074843617e-06
6.84300234492e-05
1.75411633758e-06
6.95643485055e-05
1.30664130625e-06
7.03634988714e-05
9.33508804872e-07
7.0904607859e-05
6.4004657873e-07
7.1255765923e-05
4.20334018564e-07
7.14728942745e-05
2.63115672141e-07
7.15994277843e-05
1.55531407959e-07
7.16674934371e-05
8.52845058266e-08
7.16997676412e-05
4.17541701738e-08
7.17115120949e-05
1.64198404604e-08
7.17124946879e-05
2.85735465764e-09
7.17085712681e-05
-3.54143693492e-09
7.17030558703e-05
-5.84315324156e-09
7.1697622831e-05
-6.02087607477e-09
7.16929876565e-05
-5.25145156372e-09
7.16893441014e-05
-4.18454209872e-09
7.16866327419e-05
-3.14336094937e-09
7.16846949295e-05
-2.26182631388e-09
7.16833533221e-05
-1.57308110861e-09
7.16824487286e-05
-1.06281805695e-09
7.16818528577e-05
-6.99303371546e-10
7.16814685914e-05
-4.47776833513e-10
7.16812259609e-05
-2.77669178296e-10
7.16810766747e-05
-1.64289715862e-10
7.16809878459e-05
-8.93301587892e-11
7.16809352728e-05
-3.99781275055e-11
7.1680904338e-05
-6.26375239952e-12
7.16808917697e-05
1.63596300975e-11
7.16808843147e-05
3.16915261903e-11
7.16808808496e-05
4.39460575405e-11
7.16808792436e-05
5.47747389554e-11
7.16808781808e-05
6.5173820845e-11
7.16808769549e-05
7.60609543902e-11
7.16808751983e-05
8.80647526053e-11
7.16808726985e-05
1.01635648053e-10
7.16808692789e-05
1.1710235794e-10
7.16808647295e-05
1.34716113575e-10
7.1680858785e-05
1.54673523432e-10
7.16808511253e-05
1.77129794363e-10
7.16808414299e-05
2.0221729592e-10
7.16808293776e-05
2.299508022e-10
7.16808147854e-05
2.60416521595e-10
7.16807975954e-05
2.9361883071e-10
7.16807776111e-05
3.28953785958e-10
7.1680754424e-05
3.65287007741e-10
7.1680727308e-05
4.00813376612e-10
7.16806950938e-05
4.32851826578e-10
7.16806560122e-05
4.57605017399e-10
7.16806074458e-05
4.69718873967e-10
7.16805457127e-05
4.61624785623e-10
7.16804661739e-05
4.22878298585e-10
7.16803645306e-05
3.39397145911e-10
7.16802225162e-05
1.95358054248e-10
7.16799213006e-05
-8.31355113623e-11
7.16794732204e-05
-6.71043007881e-10
7.16787512271e-05
-1.53080395533e-09
7.16775762444e-05
-2.83162323519e-09
7.16756628057e-05
-4.80096688463e-09
7.16725442886e-05
-7.77499178502e-09
7.16674630456e-05
-1.22563285468e-08
7.16591903868e-05
-1.89950250843e-08
7.16457397477e-05
-2.91205453297e-08
7.16239084631e-05
-4.43370636203e-08
7.15885483918e-05
-6.7208185448e-08
7.15314166564e-05
-1.01558958648e-07
7.14393931503e-05
-1.53012315337e-07
7.12918012987e-05
-2.29626174103e-07
7.10566083578e-05
-3.42463464045e-07
7.06855912028e-05
-5.05664984328e-07
7.01096309455e-05
-7.35014840733e-07
6.92374542856e-05
-1.04348950008e-06
6.79631464395e-05
-1.43389342618e-06
-1.88570283438e-06
6.61946577923e-05
5.07854538927e-05
6.21685881056e-11
5.29410919527e-05
5.67482831448e-11
5.59292807173e-05
2.99255935128e-11
5.91938435362e-05
1.40466162227e-11
6.23195543877e-05
2.64183201639e-12
6.50600387251e-05
-5.14291321565e-12
6.73107969768e-05
-9.23926697911e-12
6.90649238766e-05
-1.00533276607e-11
7.03715739977e-05
-8.4902187137e-12
7.13050885344e-05
-5.68610393362e-12
7.19451375814e-05
-2.80862306936e-12
7.23654716678e-05
-8.6642945293e-13
7.26285864687e-05
-3.82638017404e-13
7.2784117646e-05
-1.36653801777e-12
7.28694039297e-05
-3.49428452823e-12
7.29111625236e-05
-5.99203310334e-12
7.29275889233e-05
-7.75103141843e-12
7.29304541869e-05
-8.57623699877e-12
7.29269218144e-05
-9.17054374734e-12
7.29210890048e-05
-9.92858412531e-12
7.29150796765e-05
-1.06981742327e-11
7.29098403889e-05
-1.10202039905e-11
7.29056675726e-05
-1.04648067934e-11
7.29025342519e-05
-8.85743623481e-12
7.29002796632e-05
-6.31951681337e-12
7.28987102325e-05
-3.09995848511e-12
7.28976469771e-05
6.47210896132e-13
7.28969437973e-05
3.8747111103e-12
7.28964886617e-05
7.33380686175e-12
7.28962002449e-05
1.08920492725e-11
7.28960215955e-05
1.4791561039e-11
7.28959138379e-05
1.91552730555e-11
7.28958509798e-05
2.38354132072e-11
7.2895816671e-05
2.91123347917e-11
7.28957991594e-05
3.48991203284e-11
7.28957908648e-05
4.08243231921e-11
7.28957877407e-05
4.76187895435e-11
7.28957873608e-05
5.53873503008e-11
7.28957881927e-05
6.43064862717e-11
7.28957894129e-05
7.46528514155e-11
7.28957906003e-05
8.66855143435e-11
7.28957915218e-05
1.00639014579e-10
7.28957920042e-05
1.16707465446e-10
7.2895791872e-05
1.35063444911e-10
7.28957909233e-05
1.5586659233e-10
7.28957889217e-05
1.79279924904e-10
7.28957856226e-05
2.05479299226e-10
7.28957807719e-05
2.34580790495e-10
7.28957741891e-05
2.66683586148e-10
7.28957657489e-05
3.01756609856e-10
7.28957551324e-05
3.39353505348e-10
7.28957417128e-05
3.78578131103e-10
7.28957244135e-05
4.17986334575e-10
7.28957015144e-05
4.55518897427e-10
7.28956703701e-05
4.8839043757e-10
7.28956268842e-05
5.12801151887e-10
7.28955646786e-05
5.2348327089e-10
7.28954740568e-05
5.13249154116e-10
7.28953412019e-05
4.72096307772e-10
7.28951532017e-05
3.83302036924e-10
7.28948439617e-05
2.26121804872e-10
7.28942274672e-05
-5.45931607502e-11
7.28932740344e-05
-5.7764362064e-10
7.28917493885e-05
-1.30749921277e-09
7.2889275192e-05
-2.32743338115e-09
7.288526581e-05
-3.76620824346e-09
7.2878787367e-05
-5.77823427552e-09
7.28683415403e-05
-8.54925857605e-09
7.28515320216e-05
-1.2310937446e-08
7.28245419439e-05
-1.73469270056e-08
7.27813225112e-05
-2.39889065199e-08
7.27123544643e-05
-3.25914474472e-08
7.26028046814e-05
-4.34635794019e-08
7.24298981201e-05
-5.67208132193e-08
7.21594339439e-05
-7.20004034324e-08
7.17417558403e-05
-8.79876004069e-08
7.11084559427e-05
-1.01715102811e-07
7.01727706024e-05
-1.07803975046e-07
6.8837884859e-05
-9.90073025604e-08
-6.68780767572e-08
6.70190602904e-05
5.07854530174e-05
-7.85391199314e-07
5.29410912791e-05