/*--------------------------------*- C++ -*----------------------------------*\
| =========                 |                                                 |
| \\      /  F ield         | OpenFOAM: The Open Source CFD Toolbox           |
|  \\    /   O peration     | Version:  2106                                  |
|   \\  /    A nd           | Website:  www.openfoam.com                      |
|    \\/     M anipulation  |                                                 |
\*---------------------------------------------------------------------------*/
FoamFile
{
    version     2.0;
    format      ascii;
    arch        "LSB;label=32;scalar=64";
    class       volVectorField;
    location    "0.34";
    object      U;
}
// * * * * * * * * * * * * * * * * * * * * * * * * * * * * * * * * * * * * * //

dimensions      [0 1 -1 0 0 0 0];

internalField   nonuniform List<vector> 
11200
(
(0.662462405684 0.150569442684 0)
(0.558948679345 0.1032433882 0)
(0.383850748276 0.0513512240269 0)
(0.283747612361 0.0248708550574 0)
(0.232075293919 0.0124170449824 0)
(0.201908617607 0.00662281656623 0)
(0.183197970801 0.00380291421502 0)
(0.171276532974 0.002315869949 0)
(0.163510356419 0.0014645065275 0)
(0.158388824318 0.000944892507233 0)
(0.155006688975 0.000615177115556 0)
(0.152786735891 0.000402234143918 0)
(0.151346586149 0.000264232674109 0)
(0.1504283479 0.000175250687692 0)
(0.149856740704 0.000118361269884 0)
(0.149512534737 8.2160570475e-05 0)
(0.149314967934 5.88663844161e-05 0)
(0.149209598127 4.3315934829e-05 0)
(0.149159729188 3.29345158508e-05 0)
(0.149142478392 2.81861498935e-05 0)
(0.14914462217 2.76839844427e-05 0)
(0.149156884876 2.98896604058e-05 0)
(0.149172493149 3.30500305524e-05 0)
(0.149188027426 3.59657025993e-05 0)
(0.149202223332 3.86013620251e-05 0)
(0.149214480947 4.10406086036e-05 0)
(0.149224632509 4.33180569369e-05 0)
(0.149232784703 4.54648563861e-05 0)
(0.149239174069 4.75202773951e-05 0)
(0.149244082512 4.95313508236e-05 0)
(0.149247795018 5.15600350736e-05 0)
(0.149250578986 5.369730537e-05 0)
(0.149252631261 5.60259767124e-05 0)
(0.149254121787 5.84074471562e-05 0)
(0.149255183094 6.07684385413e-05 0)
(0.149255901553 6.30894468666e-05 0)
(0.149256373893 6.538087982e-05 0)
(0.149256683912 6.76554877259e-05 0)
(0.149256885346 6.99249266406e-05 0)
(0.149257007673 7.2195365389e-05 0)
(0.149257072102 7.44678755335e-05 0)
(0.149257095905 7.67435519685e-05 0)
(0.1492570913 7.90219826039e-05 0)
(0.149257066926 8.13020698823e-05 0)
(0.149257029183 8.35819716078e-05 0)
(0.149256982493 8.5859266601e-05 0)
(0.149256930358 8.81313288255e-05 0)
(0.149256876958 9.03951941624e-05 0)
(0.149256826932 9.26476125439e-05 0)
(0.149256785317 9.48856109609e-05 0)
(0.149256758788 9.71059397035e-05 0)
(0.149256757074 9.93057833347e-05 0)
(0.149256793465 0.000101482216216 0)
(0.149256886168 0.000103631842673 0)
(0.14925706106 0.00010575016545 0)
(0.149257354534 0.000107831529027 0)
(0.149257817481 0.000109868835262 0)
(0.149258524969 0.000111852419526 0)
(0.149259586977 0.000113769650358 0)
(0.149261162354 0.000115595233722 0)
(0.14926349832 0.000117273395748 0)
(0.149267002526 0.000118721518229 0)
(0.14927214444 0.000119978914435 0)
(0.14927957073 0.000121239463915 0)
(0.149290313667 0.000122966152447 0)
(0.149305894793 0.00012533967764 0)
(0.149328699382 0.00012812006676 0)
(0.149362422758 0.000131081250744 0)
(0.149412657151 0.000134007886518 0)
(0.149487632085 0.000136786925983 0)
(0.149599285028 0.000140695282641 0)
(0.149770449566 0.000151555814785 0)
(0.150038889995 0.000172281620786 0)
(0.150467761114 0.00020253369956 0)
(0.151192859559 0.000232461505378 0)
(0.152491826586 0.000191662539243 0)
(0.15502080833 -0.000216769670141 0)
(0.162374115489 -0.00211009912989 0)
(0.187702472563 -0.0107885728149 0)
(0.204359961879 -0.04965978071 0)
(0.965408255915 0.289214706491 0)
(0.961962863135 0.252656039234 0)
(0.823574396834 0.159021440769 0)
(0.698139375257 0.0959957303978 0)
(0.61022547164 0.0582481134162 0)
(0.548971500746 0.0362148525546 0)
(0.506588898472 0.0231612846821 0)
(0.477567278262 0.0151375150965 0)
(0.457745499915 0.0100177551091 0)
(0.44422846684 0.00665814125071 0)
(0.435053301723 0.0044155564378 0)
(0.428873117281 0.00290686599363 0)
(0.424754195685 0.00189105846681 0)
(0.422046638986 0.00121004514119 0)
(0.420297793567 0.000757162868876 0)
(0.419193174598 0.000459254847998 0)
(0.418515558099 0.000265853203911 0)
(0.418116398584 0.000142397372943 0)
(0.417895781703 6.61066477683e-05 0)
(0.417786716861 2.30889980384e-05 0)
(0.417745288526 1.4038864478e-06 0)
(0.417741998198 -1.01672217485e-05 0)
(0.417756584054 -1.3718659342e-05 0)
(0.417778532172 -1.32718801506e-05 0)
(0.417802817228 -1.08392622993e-05 0)
(0.417826179858 -7.49570902447e-06 0)
(0.417846926647 -3.87886219074e-06 0)
(0.417864458721 -3.5885493304e-07 0)
(0.417878779795 2.86285789587e-06 0)
(0.41789020513 5.68240626402e-06 0)
(0.417899206486 8.03549221868e-06 0)
(0.417906277398 9.83775714405e-06 0)
(0.417911619492 1.10068591705e-05 0)
(0.417915466222 1.18594205339e-05 0)
(0.417918195448 1.26811720677e-05 0)
(0.417920082258 1.34378062118e-05 0)
(0.417921368598 1.41115505369e-05 0)
(0.41792224584 1.47265913769e-05 0)
(0.417922840543 1.53118747994e-05 0)
(0.417923224555 1.58811371125e-05 0)
(0.41792345092 1.64345740102e-05 0)
(0.417923562975 1.6977397679e-05 0)
(0.417923591372 1.75131784871e-05 0)
(0.417923558473 1.804526395e-05 0)
(0.417923480538 1.85768199829e-05 0)
(0.41792336969 1.9109960335e-05 0)
(0.417923235996 1.96466998557e-05 0)
(0.41792308984 2.01891404653e-05 0)
(0.417922943081 2.07392658226e-05 0)
(0.417922809155 2.12992259992e-05 0)
(0.417922705859 2.18689693665e-05 0)
(0.417922658334 2.24486814126e-05 0)
(0.41792270036 2.30383851305e-05 0)
(0.417922878128 2.36377482879e-05 0)
(0.417923256958 2.42459208393e-05 0)
(0.41792392974 2.48619108239e-05 0)
(0.417925028026 2.54828741495e-05 0)
(0.417926745505 2.60972470695e-05 0)
(0.41792936004 2.66883013605e-05 0)
(0.41793326181 2.72249031437e-05 0)
(0.417939055204 2.76570012439e-05 0)
(0.417947837149 2.79360757851e-05 0)
(0.41796109592 2.8222033055e-05 0)
(0.417980970118 2.77666149742e-05 0)
(0.418010222023 2.51581338306e-05 0)
(0.41805245916 1.93286525145e-05 0)
(0.418113870629 9.47191271738e-06 0)
(0.41820457419 -5.9448660834e-06 0)
(0.418340169271 -2.94453781771e-05 0)
(0.418545547179 -6.47093238944e-05 0)
(0.418862599132 -0.00011592823706 0)
(0.419360917863 -0.000188072803749 0)
(0.420153963329 -0.000307842904612 0)
(0.421445380549 -0.000532805784692 0)
(0.42362679943 -0.000999781278027 0)
(0.427416888058 -0.00209046127949 0)
(0.434237764146 -0.00485639054107 0)
(0.448264354708 -0.0122541065802 0)
(0.474643869119 -0.0342422627773 0)
(0.478167010858 -0.0987719029166 0)
(1.02222096675 0.238416186091 0)
(1.08213753326 0.295926651179 0)
(1.03447723197 0.239503064885 0)
(0.954615416706 0.174290163038 0)
(0.879992065028 0.121345467235 0)
(0.818614446741 0.0830993832224 0)
(0.771410863238 0.0567316664867 0)
(0.736634404529 0.0387409681462 0)
(0.711624447273 0.0264327867338 0)
(0.693916635811 0.0179731043118 0)
(0.681541425718 0.0121424472787 0)
(0.673000131881 0.00812490709944 0)
(0.667180664067 0.00536631935834 0)
(0.663271689722 0.00348444235337 0)
(0.660688512289 0.00221255826996 0)
(0.659014179803 0.00136337767576 0)
(0.657954488845 0.00080523874668 0)
(0.657304184205 0.000445910710309 0)
(0.656921752675 0.000221061839732 0)
(0.656710173379 8.55737873849e-05 0)
(0.656603294924 8.35019845635e-06 0)
(0.656561732217 -3.37275851014e-05 0)
(0.656557818638 -5.68618702969e-05 0)
(0.656571281654 -6.68804367843e-05 0)
(0.656592799391 -6.84871035623e-05 0)
(0.65661660826 -6.55647751712e-05 0)
(0.656639400894 -6.05528567602e-05 0)
(0.656659570372 -5.48621736696e-05 0)
(0.656676531407 -4.92772605276e-05 0)
(0.656690261812 -4.42051071768e-05 0)
(0.656701008032 -3.98405168505e-05 0)
(0.656709154097 -3.63019991145e-05 0)
(0.656715395595 -3.36957706111e-05 0)
(0.656720422703 -3.18571461778e-05 0)
(0.656724278945 -3.08106217581e-05 0)
(0.656726979395 -3.03038251091e-05 0)
(0.656728835578 -3.02484604515e-05 0)
(0.656730127055 -3.05596431398e-05 0)
(0.656731021434 -3.10874811184e-05 0)
(0.656731608775 -3.17492747237e-05 0)
(0.656731963585 -3.25158142871e-05 0)
(0.656732151247 -3.33520741192e-05 0)
(0.656732216902 -3.42333678064e-05 0)
(0.656732194554 -3.51408015553e-05 0)
(0.65673210881 -3.60587288684e-05 0)
(0.656731978005 -3.69764925384e-05 0)
(0.656731818071 -3.78864587411e-05 0)
(0.65673164501 -3.87830111886e-05 0)
(0.656731476194 -3.96615384799e-05 0)
(0.656731329678 -4.05162493925e-05 0)
(0.656731229644 -4.13438255101e-05 0)
(0.656731211987 -4.21403170142e-05 0)
(0.656731325765 -4.29041846078e-05 0)
(0.656731639097 -4.36386583278e-05 0)
(0.65673224892 -4.43572227013e-05 0)
(0.656733291963 -4.50908514863e-05 0)
(0.6567349568 -4.58952546864e-05 0)
(0.656737521804 -4.68653634023e-05 0)
(0.656741396057 -4.81261570839e-05 0)
(0.656747176881 -4.98966860823e-05 0)
(0.656755798912 -5.26879007461e-05 0)
(0.656768910777 -5.75024840867e-05 0)
(0.656787827387 -6.51435135369e-05 0)
(0.656813990575 -7.64767834159e-05 0)
(0.656851246623 -9.31957098264e-05 0)
(0.656906305097 -0.00011769670611 0)
(0.65698854199 -0.000153181274056 0)
(0.657111748265 -0.00020493673806 0)
(0.657297738969 -0.000281482760969 0)
(0.657581906012 -0.000396693408237 0)
(0.658022376169 -0.000574917559369 0)
(0.658708341504 -0.0008634192909 0)
(0.659786850891 -0.00135227079311 0)
(0.66151543648 -0.00221458600711 0)
(0.664336253339 -0.00381289966115 0)
(0.668945045118 -0.00694599790645 0)
(0.676367687188 -0.0133525131721 0)
(0.688612020944 -0.0268435326887 0)
(0.705237064225 -0.0563198844307 0)
(0.700490108131 -0.113085283879 0)
(1.02251475578 0.170807151447 0)
(1.10138976061 0.27649647703 0)
(1.11752426655 0.266664797758 0)
(1.09214661281 0.219901697765 0)
(1.05187816482 0.16816884676 0)
(1.01020823403 0.123567396175 0)
(0.973494700473 0.0888375213331 0)
(0.943864564955 0.0630063715258 0)
(0.921142807052 0.0442232040937 0)
(0.904284077991 0.0307423925582 0)
(0.892074871262 0.021156293481 0)
(0.883404509561 0.0143954672294 0)
(0.877352665059 0.00966794601195 0)
(0.873197696488 0.00639383393827 0)
(0.870392912612 0.00415116035587 0)
(0.868534015069 0.00263448517811 0)
(0.867327607745 0.00162401037167 0)
(0.866564192652 0.000962667787725 0)
(0.866096422147 0.000539113185759 0)
(0.865822166199 0.000275143715724 0)
(0.865671308621 0.000117058369608 0)
(0.865595044626 2.87829560229e-05 0)
(0.865563974056 -1.93334625609e-05 0)
(0.865561154345 -4.12688421153e-05 0)
(0.865572487505 -4.76717200035e-05 0)
(0.865589484047 -4.5529702091e-05 0)
(0.865607784905 -3.91586877574e-05 0)
(0.865625116044 -3.11463639522e-05 0)
(0.865640393641 -2.29639426147e-05 0)
(0.865653250672 -1.53791628563e-05 0)
(0.865663718672 -8.72073782687e-06 0)
(0.865672000966 -3.04147505713e-06 0)
(0.865678349821 1.73715026861e-06 0)
(0.865682972883 5.46829934024e-06 0)
(0.865686287624 8.03532545134e-06 0)
(0.865688681322 9.79214279499e-06 0)
(0.865690308415 1.1144961745e-05 0)
(0.865691465079 1.22892924961e-05 0)
(0.865692327807 1.32574719884e-05 0)
(0.865692914916 1.41436721933e-05 0)
(0.865693274579 1.49385658841e-05 0)
(0.865693471537 1.56646184136e-05 0)
(0.865693544386 1.6337712668e-05 0)
(0.865693524569 1.69738378812e-05 0)
(0.865693434613 1.75878181467e-05 0)
(0.865693290679 1.81898979904e-05 0)
(0.865693107702 1.87877275319e-05 0)
(0.865692902094 1.93874400732e-05 0)
(0.865692694924 1.99966854072e-05 0)
(0.865692509014 2.06256499204e-05 0)
(0.865692374222 2.12594676007e-05 0)
(0.865692332544 2.18852002952e-05 0)
(0.865692437519 2.24859394362e-05 0)
(0.865692759153 2.30354547969e-05 0)
(0.865693391426 2.34974261691e-05 0)
(0.865694466125 2.38365951296e-05 0)
(0.865696167765 2.40129881571e-05 0)
(0.865698788169 2.39078623086e-05 0)
(0.865702732765 2.3374444502e-05 0)
(0.865708418607 2.2000161069e-05 0)
(0.865716314609 1.92177902655e-05 0)
(0.865728040411 1.43251068398e-05 0)
(0.865746185459 5.49452266325e-06 0)
(0.865773718142 -8.86694594927e-06 0)
(0.865814507829 -3.07564862825e-05 0)
(0.865874474629 -6.41326432692e-05 0)
(0.865962955423 -0.000115868909338 0)
(0.866094460665 -0.00019672432054 0)
(0.866291536602 -0.000323955753582 0)
(0.866588996685 -0.000526033685814 0)
(0.867040436385 -0.00085189856016 0)
(0.867730908558 -0.00138847736117 0)
(0.868796741901 -0.00228452585403 0)
(0.870451157819 -0.0038146103091 0)
(0.873012992472 -0.00650294911107 0)
(0.876881063045 -0.0113589114528 0)
(0.882377757685 -0.0202515241252 0)
(0.889686115906 -0.0364514293288 0)
(0.896360892211 -0.0654905494923 0)
(0.886531527775 -0.110041923871 0)
(1.01287875192 0.118961022685 0)
(1.08820671025 0.231806935709 0)
(1.13741367503 0.25310676373 0)
(1.1540908724 0.228992753227 0)
(1.14994211476 0.18836835917 0)
(1.13538466086 0.146579844884 0)
(1.11758895399 0.110150966968 0)
(1.10059500729 0.080816223528 0)
(1.08612457524 0.0582265776684 0)
(1.07459092666 0.0413189858517 0)
(1.06579146628 0.0289160203892 0)
(1.05928798506 0.0199600991473 0)
(1.05459975533 0.0135815580239 0)
(1.05129075132 0.00909743961826 0)
(1.04899982621 0.00598614885618 0)
(1.0474433742 0.00385695981099 0)
(1.04640649038 0.00242158995739 0)
(1.04573056333 0.00147014098345 0)
(1.04530099512 0.000851691904682 0)
(1.04503648456 0.000459005819262 0)
(1.04488010851 0.000216746325516 0)
(1.04479247919 7.30078306173e-05 0)
(1.04474860178 -5.51285185458e-06 0)
(1.04473169103 -4.40156953395e-05 0)
(1.04472942985 -5.93911811493e-05 0)
(1.04473490415 -6.17230118894e-05 0)
(1.04474384307 -5.72475727933e-05 0)
(1.04475371861 -4.98039179303e-05 0)
(1.0447631512 -4.1643228372e-05 0)
(1.04477147076 -3.39865654403e-05 0)
(1.04477842687 -2.74203422181e-05 0)
(1.04478400676 -2.21480462495e-05 0)
(1.04478835643 -1.8124639339e-05 0)
(1.04479168683 -1.51362728773e-05 0)
(1.04479425247 -1.28056577779e-05 0)
(1.04479634637 -1.10100872799e-05 0)
(1.04479808027 -9.52236067714e-06 0)
(1.04479939971 -8.23351347151e-06 0)
(1.0448003748 -7.2147497704e-06 0)
(1.04480105655 -6.54595629387e-06 0)
(1.04480146627 -6.16664187801e-06 0)
(1.04480169152 -5.95830051726e-06 0)
(1.0448017776 -5.86990619716e-06 0)
(1.04480176289 -5.85300725758e-06 0)
(1.04480167262 -5.86695794045e-06 0)
(1.04480152432 -5.89184975249e-06 0)
(1.04480133535 -5.91782277357e-06 0)
(1.0448011266 -5.94045011345e-06 0)
(1.04480092442 -5.96328060626e-06 0)
(1.04480073505 -5.99938782078e-06 0)
(1.04480057319 -6.0315820164e-06 0)
(1.04480048442 -6.05759929074e-06 0)
(1.04480052333 -6.08416959746e-06 0)
(1.04480076525 -6.1266006622e-06 0)
(1.0448013325 -6.22380572712e-06 0)
(1.04480240591 -6.48951763225e-06 0)
(1.04480417277 -7.18491206458e-06 0)
(1.04480692487 -8.58781103143e-06 0)
(1.04481097484 -1.11894118217e-05 0)
(1.04481679318 -1.50211900095e-05 0)
(1.044825397 -1.99610312548e-05 0)
(1.04483793648 -2.61909244539e-05 0)
(1.04485569957 -3.59932508691e-05 0)
(1.04488098928 -5.23505095216e-05 0)
(1.04491727477 -7.94792228911e-05 0)
(1.04496970702 -0.000123624217405 0)
(1.04504588767 -0.000194554287993 0)
(1.0451571626 -0.000307845963614 0)
(1.04532067426 -0.00048866075734 0)
(1.04556227991 -0.000778017025802 0)
(1.04592065049 -0.00124322603194 0)
(1.04645362862 -0.00199591814118 0)
(1.04724530979 -0.0032266165446 0)
(1.04840861071 -0.00526607527782 0)
(1.05007080488 -0.00869109882702 0)
(1.05228851084 -0.0144953685717 0)
(1.05481770342 -0.0242858348226 0)
(1.05686880419 -0.0403723547116 0)
(1.05573613499 -0.0655942877187 0)
(1.04212255248 -0.0994550332889 0)
(1.0044748354 0.0814039970764 0)
(1.0691723752 0.181288538 0)
(1.13080569024 0.216950418125 0)
(1.17375000873 0.210789155513 0)
(1.19865265817 0.183690077472 0)
(1.21019988747 0.149751684496 0)
(1.21350256555 0.116779145631 0)
(1.21251724843 0.0882206795051 0)
(1.20973099005 0.0650481523012 0)
(1.20651120159 0.0470209096424 0)
(1.20351913594 0.0334068083319 0)
(1.20101145132 0.0233557310585 0)
(1.19903444612 0.0160720108337 0)
(1.1975387685 0.0108795090041 0)
(1.19644129633 0.0072341815909 0)
(1.19565555844 0.00471351031184 0)
(1.19510485207 0.00299761941368 0)
(1.19472642729 0.00184915000964 0)
(1.19447143364 0.0010949488312 0)
(1.19430311025 0.000610599513987 0)
(1.19419445785 0.000307974999452 0)
(1.19412616039 0.000125757817875 0)
(1.19408509823 2.22138352418e-05 0)
(1.1940618275 -3.24594972532e-05 0)
(1.19404951576 -5.72760895949e-05 0)
(1.19404400605 -6.45996124891e-05 0)
(1.19404249753 -6.23755470906e-05 0)
(1.19404317176 -5.5518882502e-05 0)
(1.19404491317 -4.69401453531e-05 0)
(1.19404706364 -3.82528932309e-05 0)
(1.1940492508 -3.02583667083e-05 0)
(1.19405128254 -2.32614600901e-05 0)
(1.1940530897 -1.72857348796e-05 0)
(1.19405466654 -1.2257559662e-05 0)
(1.19405602916 -8.07040705165e-06 0)
(1.19405719649 -4.66989068209e-06 0)
(1.19405814118 -2.05936254552e-06 0)
(1.19405881015 -1.70332319412e-07 0)
(1.19405916265 1.14725311217e-06 0)
(1.19405927382 2.00264763437e-06 0)
(1.19405932515 2.68003068996e-06 0)
(1.19405935392 3.28134936463e-06 0)
(1.19405933291 3.80622758153e-06 0)
(1.19405927874 4.26506941893e-06 0)
(1.19405918822 4.66882450078e-06 0)
(1.19405905211 5.03411269855e-06 0)
(1.19405887336 5.37304411903e-06 0)
(1.19405865898 5.68906940443e-06 0)
(1.19405841803 5.97386158441e-06 0)
(1.19405819259 6.21057695511e-06 0)
(1.19405802985 6.42335542156e-06 0)
(1.19405795901 6.60557109861e-06 0)
(1.19405802855 6.73037922128e-06 0)
(1.19405829586 6.75674730622e-06 0)
(1.19405879541 6.62453119944e-06 0)
(1.19405950703 6.24155528544e-06 0)
(1.19406051914 5.45771329783e-06 0)
(1.19406198788 3.88553670949e-06 0)
(1.19406458992 1.12188443379e-06 0)
(1.19406935435 -3.13047094414e-06 0)
(1.1940768062 -9.65082337248e-06 0)
(1.19408688219 -1.981879388e-05 0)
(1.19410035209 -3.5650909899e-05 0)
(1.19411920667 -6.00658253513e-05 0)
(1.19414557309 -9.76453350991e-05 0)
(1.19418227297 -0.000155705854944 0)
(1.1942332971 -0.000245892795882 0)
(1.19430427888 -0.000386684532485 0)
(1.19440310237 -0.0006075375659 0)
(1.19454054314 -0.000955783477759 0)
(1.19473064312 -0.00150793386501 0)
(1.19499017198 -0.00238826648371 0)
(1.19533393808 -0.00380000465494 0)
(1.19575918886 -0.00607607780396 0)
(1.19620558153 -0.00975532958352 0)
(1.19645337356 -0.0156815805317 0)
(1.19591573862 -0.0250657575534 0)
(1.19343814605 -0.0393635961194 0)
(1.18668548919 -0.0598182830586 0)
(1.17013926226 -0.0851201355576 0)
(0.998962326358 0.054431625177 0)
(1.05310957032 0.133401606999 0)
(1.11628268558 0.170777557909 0)
(1.17301272442 0.175143872351 0)
(1.21791246883 0.159583607361 0)
(1.25049858633 0.134951021805 0)
(1.27288491922 0.108411659022 0)
(1.28776722874 0.0838849742285 0)
(1.29745268624 0.0630565746155 0)
(1.30366075476 0.0462999230611 0)
(1.30759234519 0.0333205154532 0)
(1.31005369954 0.0235495232183 0)
(1.31157361906 0.0163599052096 0)
(1.31249491629 0.011171310624 0)
(1.31303860263 0.00749150009862 0)
(1.31334668633 0.00492447717768 0)
(1.31351009113 0.00316294446991 0)
(1.31358671097 0.00197473937267 0)
(1.31361307657 0.00118818317701 0)
(1.31361191615 0.000678615002101 0)
(1.31359706786 0.000356994317827 0)
(1.31357673656 0.000160740851012 0)
(1.31355573265 4.64575456321e-05 0)
(1.31353642828 -1.58789326407e-05 0)
(1.31351976203 -4.60649497038e-05 0)
(1.31350606547 -5.70723323354e-05 0)
(1.31349515364 -5.73244200288e-05 0)
(1.31348668941 -5.20834793108e-05 0)
(1.31348028462 -4.45190516618e-05 0)
(1.3134755542 -3.64556856147e-05 0)
(1.31347214725 -2.88665914086e-05 0)
(1.31346976073 -2.22051399187e-05 0)
(1.31346813502 -1.66226670558e-05 0)
(1.31346704183 -1.21265937581e-05 0)
(1.31346631568 -8.65104487566e-06 0)
(1.31346585893 -6.09408708518e-06 0)
(1.31346557037 -4.31842444499e-06 0)
(1.31346536058 -3.11685293681e-06 0)
(1.31346522611 -2.26008069924e-06 0)
(1.31346525277 -1.54395929291e-06 0)
(1.31346540339 -9.68142903554e-07 0)
(1.31346549993 -5.55647418668e-07 0)
(1.31346549233 -1.98421394401e-07 0)
(1.31346541217 1.35164151939e-07 0)
(1.31346528007 4.42618745361e-07 0)
(1.3134651091 7.32336922724e-07 0)
(1.31346490293 1.01611814699e-06 0)
(1.31346466437 1.30416377183e-06 0)
(1.31346440322 1.60664549317e-06 0)
(1.31346415311 1.92716428794e-06 0)
(1.31346393733 2.21538499098e-06 0)
(1.31346376304 2.43236565004e-06 0)
(1.31346366067 2.53365219185e-06 0)
(1.31346368365 2.45508582237e-06 0)
(1.31346392004 2.111056194e-06 0)
(1.31346448901 1.41416903004e-06 0)
(1.31346535663 3.12830181556e-07 0)
(1.31346662631 -1.37481562379e-06 0)
(1.31346872109 -3.88330791713e-06 0)
(1.31347184691 -7.94026323389e-06 0)
(1.31347621563 -1.482934452e-05 0)
(1.31348206027 -2.61220485425e-05 0)
(1.31348965733 -4.3412139051e-05 0)
(1.31349949388 -6.9874293068e-05 0)
(1.31351188946 -0.000110538032032 0)
(1.31352692841 -0.000173148963683 0)
(1.31354423206 -0.000269788612998 0)
(1.31356249311 -0.000419409542803 0)
(1.31357852586 -0.000651823438302 0)
(1.31358542885 -0.00101424505739 0)
(1.31356915405 -0.0015816700572 0)
(1.31350227948 -0.00247312550276 0)
(1.31333059855 -0.00387583036726 0)
(1.31294657051 -0.00608210514733 0)
(1.3121402515 -0.0095363720723 0)
(1.31050638111 -0.0148800718361 0)
(1.30729176981 -0.0229413375501 0)
(1.3012870701 -0.0345603945374 0)
(1.29062495875 -0.0501745207853 0)
(1.27183411438 -0.0685571560766 0)
(0.995736074958 0.0346338599877 0)
(1.04179514669 0.0905689206762 0)
(1.10222839309 0.121549564826 0)
(1.16491412539 0.129605834668 0)
(1.22202567497 0.122009269858 0)
(1.26951893403 0.106019940634 0)
(1.30680225287 0.0870975588721 0)
(1.3349953693 0.068636684236 0)
(1.35574479034 0.0523698420317 0)
(1.37069618259 0.0389256202868 0)
(1.38128276858 0.0282980744758 0)
(1.38866268754 0.0201712765401 0)
(1.39373033977 0.014117507702 0)
(1.39715660852 0.00970533104428 0)
(1.39943434347 0.00655058793843 0)
(1.40091965745 0.00433444502714 0)
(1.40186619476 0.00280413320248 0)
(1.40245220548 0.00176572971198 0)
(1.40280129281 0.00107418063556 0)
(1.40299797927 0.000623220154883 0)
(1.40309919037 0.000336394705365 0)
(1.40314263407 0.000159609701225 0)
(1.40315288557 5.51525347302e-05 0)
(1.40314538828 -3.00733156108e-06 0)
(1.403129621 -3.21290685352e-05 0)
(1.40311121145 -4.38937024293e-05 0)
(1.40309316666 -4.5761070139e-05 0)
(1.40307701115 -4.24164878891e-05 0)
(1.40306334659 -3.67235993499e-05 0)
(1.40305224677 -3.03591910902e-05 0)
(1.40304351018 -2.42381446322e-05 0)
(1.4030368116 -1.88075966005e-05 0)
(1.40303178966 -1.42357302279e-05 0)
(1.40302809434 -1.0524646331e-05 0)
(1.40302542775 -7.57354642302e-06 0)
(1.40302355748 -5.25744577904e-06 0)
(1.40302230664 -3.45329148054e-06 0)
(1.40302152455 -2.01773076505e-06 0)
(1.40302104547 -8.45675068336e-07 0)
(1.40302067503 8.5591034791e-08 0)
(1.40302034478 7.94567675485e-07 0)
(1.4030201359 1.28416520287e-06 0)
(1.40302003702 1.65564708125e-06 0)
(1.40301995638 1.97366074724e-06 0)
(1.40301985899 2.27614252159e-06 0)
(1.40301973827 2.58132568342e-06 0)
(1.40301959286 2.89863022224e-06 0)
(1.40301942473 3.23259787528e-06 0)
(1.40301923538 3.58370927987e-06 0)
(1.40301901775 3.9428101716e-06 0)
(1.40301878318 4.26794264247e-06 0)
(1.40301856532 4.52713073229e-06 0)
(1.40301839236 4.68207547459e-06 0)
(1.40301828925 4.67502308883e-06 0)
(1.4030182729 4.41738589855e-06 0)
(1.40301835039 3.76633890794e-06 0)
(1.40301852962 2.52064165428e-06 0)
(1.403018811 5.54151412326e-07 0)
(1.40301942592 -2.54036992973e-06 0)
(1.40302055194 -7.53988338539e-06 0)
(1.40302204397 -1.5239353449e-05 0)
(1.40302357368 -2.69612988102e-05 0)
(1.40302466728 -4.45586409782e-05 0)
(1.40302458191 -7.10152674547e-05 0)
(1.40302182844 -0.000110920067002 0)
(1.40301366861 -0.000171301319858 0)
(1.40299529854 -0.000263032569535 0)
(1.40295853669 -0.000402981235207 0)
(1.40288944704 -0.000617201753121 0)
(1.40276431539 -0.000946301232903 0)
(1.40254311556 -0.00145360615714 0)
(1.4021595099 -0.00223752805891 0)
(1.40150195942 -0.00344710169827 0)
(1.40038213348 -0.0053060447598 0)
(1.39848677014 -0.00813715726493 0)
(1.39530275238 -0.0123752355195 0)
(1.39001704918 -0.0185312492487 0)
(1.3814815939 -0.027042979388 0)
(1.3682004541 -0.0379923135191 0)
(1.3477817294 -0.0504872392011 0)
(0.994011532233 0.0192358065001 0)
(1.03484763896 0.0523338397564 0)
(1.09199263285 0.072363127133 0)
(1.1566242084 0.0791292324415 0)
(1.2203211745 0.0761045476884 0)
(1.27701946592 0.067333973741 0)
(1.32424420368 0.0561509065182 0)
(1.36181575136 0.044799014338 0)
(1.3906853231 0.0345303807889 0)
(1.41226076387 0.0258814350023 0)
(1.42801823288 0.0189465253297 0)
(1.43929884823 0.0135849816878 0)
(1.44722807665 0.00955653169945 0)
(1.4527041266 0.00660011037134 0)
(1.45641894498 0.00447418264546 0)
(1.4588914233 0.0029735034506 0)
(1.46050227999 0.00193275661366 0)
(1.46152566825 0.00122368015855 0)
(1.46215567512 0.000749535970561 0)
(1.46252749088 0.000439002927685 0)
(1.46273375913 0.000240506834307 0)
(1.46283689337 0.000117398902059 0)
(1.4628781878 4.40383508945e-05 0)
(1.4628844189 2.68239831327e-06 0)
(1.46287228661 -1.84500386325e-05 0)
(1.46285192757 -2.74409473369e-05 0)
(1.46282936859 -2.94379482882e-05 0)
(1.46280782254 -2.76853802097e-05 0)
(1.46278881749 -2.41813311164e-05 0)
(1.46277289784 -2.01066499739e-05 0)
(1.46276005501 -1.61105668348e-05 0)
(1.46274999504 -1.25157916498e-05 0)
(1.46274230727 -9.4488430676e-06 0)
(1.46273655937 -6.92037703162e-06 0)
(1.46273235268 -4.87642016465e-06 0)
(1.4627293447 -3.24765653142e-06 0)
(1.46272724671 -1.97080964443e-06 0)
(1.46272580186 -1.00490387437e-06 0)
(1.46272479744 -3.05131461196e-07 0)
(1.46272416896 2.16908213513e-07 0)
(1.46272380402 6.97481685727e-07 0)
(1.46272355233 1.17270843875e-06 0)
(1.4627233818 1.59665542254e-06 0)
(1.46272325338 1.97555158834e-06 0)
(1.46272313761 2.33064840689e-06 0)
(1.46272301578 2.67534878737e-06 0)
(1.46272287455 3.01494866715e-06 0)
(1.46272270537 3.34751564489e-06 0)
(1.46272250376 3.66370638931e-06 0)
(1.46272226704 3.95051418548e-06 0)
(1.46272199845 4.19975690098e-06 0)
(1.46272170592 4.38004192502e-06 0)
(1.46272139656 4.44008616295e-06 0)
(1.4627210804 4.31002459931e-06 0)
(1.46272077328 3.89923601696e-06 0)
(1.46272049933 3.09755013273e-06 0)
(1.46272022508 1.78290502843e-06 0)
(1.46271986261 -1.5971751576e-07 0)
(1.46271927857 -2.97776198583e-06 0)
(1.46271833098 -7.53702488154e-06 0)
(1.46271675536 -1.46202542406e-05 0)
(1.46271387238 -2.53232743621e-05 0)
(1.46270856271 -4.11916118471e-05 0)
(1.46269901864 -6.4606737518e-05 0)
(1.46268217838 -9.91684997795e-05 0)
(1.46265290148 -0.000150266424332 0)
(1.46260268112 -0.000226085040557 0)
(1.46251776135 -0.000339086961313 0)
(1.46237567504 -0.000507874769232 0)
(1.46213957416 -0.000760866013466 0)
(1.46174949941 -0.0011418211538 0)
(1.46111085908 -0.00171837706683 0)
(1.4600725316 -0.00258625758591 0)
(1.45839352393 -0.00388501334634 0)
(1.4556998994 -0.00580703814068 0)
(1.4514262421 -0.00859546389126 0)
(1.44475214432 -0.0125104677255 0)
(1.43460849865 -0.0177325370791 0)
(1.41973578321 -0.0242100044006 0)
(1.39828802787 -0.0313970011926 0)
(0.993269668289 0.0061701506991 0)
(1.03158100329 0.0171020454239 0)
(1.08672182444 0.0239906484082 0)
(1.15174555355 0.0265606665088 0)
(1.2182353743 0.0258180606039 0)
(1.27925775462 0.0230488888544 0)
(1.33140137375 0.0193656349293 0)
(1.37377600153 0.0155468617626 0)
(1.40691054747 0.012044933799 0)
(1.43203314608 0.00906640253917 0)
(1.45060215784 0.00666059625846 0)
(1.46402986256 0.0047900912063 0)
(1.47355016008 0.00337842594781 0)
(1.48017562759 0.0023387334596 0)
(1.4847022753 0.00158890694567 0)
(1.48773618539 0.00105827969786 0)
(1.48972731625 0.000689451626841 0)
(1.49100273905 0.000437625814174 0)
(1.49179581171 0.000268872298397 0)
(1.49227017499 0.000158097496 0)
(1.49253865988 8.71116515318e-05 0)
(1.49267772969 4.29632859679e-05 0)
(1.49273825682 1.65753895727e-05 0)
(1.49275342445 1.65733449746e-06 0)
(1.49274418108 -6.07244341399e-06 0)
(1.49272338627 -9.41453550824e-06 0)
(1.492698735 -1.02176245169e-05 0)
(1.49267445527 -9.65156194272e-06 0)
(1.49265264512 -8.43518009615e-06 0)
(1.49263414585 -6.98708325459e-06 0)
(1.49261908019 -5.54673088107e-06 0)
(1.49260718663 -4.23440446182e-06 0)
(1.49259803558 -3.09756488522e-06 0)
(1.49259115153 -2.14226098281e-06 0)
(1.49258608037 -1.35205985869e-06 0)
(1.49258242166 -7.05218777661e-07 0)
(1.49257983922 -1.80267374749e-07 0)
(1.49257806279 2.44754992641e-07 0)
(1.49257688674 6.15719461159e-07 0)
(1.492576133 9.85096729037e-07 0)
(1.49257564755 1.29012320847e-06 0)
(1.49257533861 1.57433643195e-06 0)
(1.49257514887 1.85521280115e-06 0)
(1.49257502609 2.14265546428e-06 0)
(1.49257493117 2.44411259685e-06 0)
(1.49257483792 2.76230683115e-06 0)
(1.49257472794 3.09642687168e-06 0)
(1.49257458808 3.44243605808e-06 0)
(1.49257440818 3.7917168169e-06 0)
(1.49257417944 4.12995264699e-06 0)
(1.49257389625 4.43723578579e-06 0)
(1.49257355464 4.68104959854e-06 0)
(1.49257314829 4.81629986748e-06 0)
(1.49257266581 4.78152900626e-06 0)
(1.49257208549 4.49270901611e-06 0)
(1.49257138061 3.83228380139e-06 0)
(1.49257053917 2.64491341895e-06 0)
(1.49256942486 8.51716402157e-07 0)
(1.49256761715 -1.78926060937e-06 0)
(1.49256481913 -5.90596730768e-06 0)
(1.4925606399 -1.20287243168e-05 0)
(1.49255405341 -2.09296621877e-05 0)
(1.49254344698 -3.36968432314e-05 0)
(1.49252627759 -5.18832336672e-05 0)
(1.49249843272 -7.76872353509e-05 0)
(1.49245320871 -0.00011413144992 0)
(1.49237973474 -0.000165597452289 0)
(1.49226094967 -0.000238564824432 0)
(1.49206947915 -0.000341521439259 0)
(1.49176069065 -0.000487023071657 0)
(1.49126230959 -0.000695314163142 0)
(1.49046561929 -0.00100004624768 0)
(1.48920117699 -0.00143358577333 0)
(1.48720307244 -0.00204347910009 0)
(1.48407282774 -0.00289109400728 0)
(1.47923055105 -0.00404391325951 0)
(1.47186928206 -0.00555621623122 0)
(1.46097531494 -0.00742952537046 0)
(1.4454011374 -0.00956985134837 0)
(1.42353678703 -0.011728763764 0)
(0.993270466167 -0.00616840144396 0)
(1.0315809862 -0.0171003766272 0)
(1.08672175869 -0.0239897620732 0)
(1.15174559185 -0.0265602464517 0)
(1.21823545269 -0.0258179916499 0)
(1.27925785696 -0.0230491077495 0)
(1.33140149988 -0.0193660440719 0)