/*--------------------------------*- C++ -*----------------------------------*\
| =========                 |                                                 |
| \\      /  F ield         | OpenFOAM: The Open Source CFD Toolbox           |
|  \\    /   O peration     | Version:  2106                                  |
|   \\  /    A nd           | Website:  www.openfoam.com                      |
|    \\/     M anipulation  |                                                 |
\*---------------------------------------------------------------------------*/
FoamFile
{
    version     2.0;
    format      ascii;
    arch        "LSB;label=32;scalar=64";
    class       volVectorField;
    location    "0.12";
    object      U;
}
// * * * * * * * * * * * * * * * * * * * * * * * * * * * * * * * * * * * * * //

dimensions      [0 1 -1 0 0 0 0];

internalField   nonuniform List<vector> 
9600
(
(0.675396186752 0.157677432098 0)
(0.563826160608 0.102430802029 0)
(0.381538923394 0.0510646961985 0)
(0.283853184561 0.0244589909242 0)
(0.232281024808 0.011934822375 0)
(0.201907695065 0.00623035967689 0)
(0.183178385439 0.00352192907242 0)
(0.171271960187 0.00212007706398 0)
(0.163512208819 0.00132523756553 0)
(0.158392626984 0.000841457991076 0)
(0.155010672338 0.000534135765439 0)
(0.152789971829 0.000335037622963 0)
(0.15134871768 0.000205516071228 0)
(0.150429325891 0.000121782200689 0)
(0.149856622173 6.84173384168e-05 0)
(0.149511404509 3.51481234326e-05 0)
(0.14931295608 1.50513817878e-05 0)
(0.14920711535 3.4570721587e-06 0)
(0.149157996552 -2.76605459866e-06 0)
(0.149142202574 -5.68421742623e-06 0)
(0.149144852397 -6.61275123802e-06 0)
(0.149156662693 -6.5114052581e-06 0)
(0.149172057701 -5.88357026195e-06 0)
(0.149187917379 -5.03628745777e-06 0)
(0.149202595974 -4.15462835371e-06 0)
(0.149215359716 -3.33675267093e-06 0)
(0.149226008952 -2.62624884459e-06 0)
(0.149234632298 -2.03500435674e-06 0)
(0.149241455811 -1.55794470546e-06 0)
(0.149246754902 -1.1821666484e-06 0)
(0.149250804572 -8.91853357707e-07 0)
(0.149253854852 -6.71200927958e-07 0)
(0.149256121029 -5.05899441056e-07 0)
(0.149257781661 -3.83621536909e-07 0)
(0.14925898105 -2.94091636204e-07 0)
(0.149259833672 -2.2907560674e-07 0)
(0.149260428765 -1.81980206921e-07 0)
(0.149260834761 -1.47463493688e-07 0)
(0.149261104026 -1.21649462408e-07 0)
(0.149261276178 -1.01793307847e-07 0)
(0.149261380978 -8.60567969549e-08 0)
(0.149261441352 -7.43596754111e-08 0)
(0.149261473098 -6.86001763416e-08 0)
(0.149261485717 -6.80897997319e-08 0)
(0.149261486175 -7.03490965954e-08 0)
(0.149261480076 -7.56354127827e-08 0)
(0.149261470964 -8.22374293882e-08 0)
(0.149261460915 -8.95038947356e-08 0)
(0.149261451279 -9.75210906252e-08 0)
(0.14926144253 -1.06238309419e-07 0)
(0.149261434553 -1.15633993435e-07 0)
(0.149261426954 -1.2571941107e-07 0)
(0.149261419204 -1.36442155486e-07 0)
(0.149261411114 -1.47773436809e-07 0)
(0.149261402855 -1.59747692714e-07 0)
(0.149261394816 -1.72268390675e-07 0)
(0.149261387626 -1.85391915641e-07 0)
(0.149261381444 -1.99280357759e-07 0)
(0.149261375696 -2.14057330582e-07 0)
(0.149261370086 -2.3003771781e-07 0)
(0.149261364449 -2.47449507471e-07 0)
(0.149261358419 -2.66142109943e-07 0)
(0.149261352523 -2.86186583037e-07 0)
(0.149261347694 -3.07741994495e-07 0)
(0.149261343929 -3.30479933255e-07 0)
(0.149261341125 -3.54205994082e-07 0)
(0.149261339405 -3.79185818825e-07 0)
(0.149261337999 -4.05422087326e-07 0)
(0.149261336035 -4.32953536774e-07 0)
(0.149261333501 -4.62225497304e-07 0)
(0.149261330391 -4.9338508098e-07 0)
(0.14926132701 -5.2632266257e-07 0)
(0.149261323979 -5.60955967125e-07 0)
(0.149261321027 -5.97061561077e-07 0)
(0.149261317804 -6.34874413781e-07 0)
(0.14926131414 -6.75016099281e-07 0)
(0.149261309076 -7.1749020956e-07 0)
(0.149261302472 -7.62180523181e-07 0)
(0.149261295618 -8.09418055362e-07 0)
(0.149261288543 -8.58929934067e-07 0)
(0.149261280701 -9.10407680083e-07 0)
(0.149261273056 -9.64634296185e-07 0)
(0.149261265697 -1.02180891072e-06 0)
(0.149261257944 -1.08128165936e-06 0)
(0.149261250957 -1.14328041609e-06 0)
(0.149261245488 -1.2081211917e-06 0)
(0.149261240563 -1.27535053568e-06 0)
(0.149261236045 -1.34512600498e-06 0)
(0.149261232119 -1.41806454393e-06 0)
(0.149261227998 -1.49401320814e-06 0)
(0.149261224017 -1.57287826507e-06 0)
(0.149261220667 -1.65464408421e-06 0)
(0.149261217005 -1.73906536773e-06 0)
(0.14926121371 -1.82687536056e-06 0)
(0.14926121221 -1.91835466267e-06 0)
(0.149261212465 -2.01211109659e-06 0)
(0.149261215619 -2.10779243358e-06 0)
(0.149261222548 -2.20631531813e-06 0)
(0.149261230878 -2.3070665078e-06 0)
(0.149261240374 -2.4093673545e-06 0)
(0.149261254624 -2.51393990086e-06 0)
(0.149261274852 -2.62042821238e-06 0)
(0.149261301868 -2.72835072974e-06 0)
(0.149261338966 -2.83878758614e-06 0)
(0.14926138767 -2.95173075087e-06 0)
(0.149261449638 -3.06642654454e-06 0)
(0.149261529376 -3.18340032209e-06 0)
(0.149261630478 -3.30338097119e-06 0)
(0.149261756595 -3.42816638412e-06 0)
(0.149261914265 -3.56375681407e-06 0)
(0.149262112404 -3.71759415349e-06 0)
(0.149262360486 -3.88240139044e-06 0)
(0.149262671761 -4.05651531883e-06 0)
(0.14926306146 -4.24089952586e-06 0)
(0.149263544977 -4.43535718169e-06 0)
(0.149264144969 -4.64088144276e-06 0)
(0.149264889877 -4.85917507245e-06 0)
(0.149265812389 -5.09083944041e-06 0)
(0.149266956818 -5.3377628931e-06 0)
(0.149268377882 -5.60295367294e-06 0)
(0.149270137201 -5.88828334895e-06 0)
(0.149272313784 -6.19806701468e-06 0)
(0.149275016333 -6.54529939997e-06 0)
(0.149278395543 -6.97155945061e-06 0)
(0.149282595755 -7.57847851983e-06 0)
(0.149287767947 -8.37061481426e-06 0)
(0.149294144748 -9.30004389317e-06 0)
(0.149302033461 -1.0351089345e-05 0)
(0.14931180454 -1.15294194452e-05 0)
(0.149323909257 -1.28503227982e-05 0)
(0.149338904032 -1.43383727646e-05 0)
(0.149357477434 -1.60244178315e-05 0)
(0.149380480984 -1.79422181912e-05 0)
(0.149408973179 -2.01346196434e-05 0)
(0.149444274169 -2.26608638952e-05 0)
(0.149488021309 -2.55953031609e-05 0)
(0.149542241263 -2.90277827439e-05 0)
(0.149609455642 -3.30723902746e-05 0)
(0.149692807295 -3.78746003094e-05 0)
(0.14979621031 -4.36173605981e-05 0)
(0.149924549833 -5.05334143138e-05 0)
(0.150083937528 -5.89206709572e-05 0)
(0.150282030813 -6.91594844199e-05 0)
(0.150528450321 -8.17349869163e-05 0)
(0.150835338274 -9.7272831593e-05 0)
(0.151218088128 -0.000116587782187 0)
(0.151696305008 -0.000140739658158 0)
(0.152295131566 -0.000171114977328 0)
(0.153047094111 -0.000209550548653 0)
(0.153994693697 -0.00025849762392 0)
(0.155194186875 -0.000321258604569 0)
(0.156721389298 -0.000402446287709 0)
(0.158681389259 -0.000509222310966 0)
(0.161227789813 -0.000655774515893 0)
(0.16460817375 -0.000880785599095 0)
(0.169277853792 -0.00131250471814 0)
(0.176247714461 -0.00240812020077 0)
(0.18852068437 -0.00588454496704 0)
(0.215387133738 -0.0183567399288 0)
(0.275037430669 -0.064892520863 0)
(0.977201176603 0.296997119786 0)
(0.962687467685 0.250387262694 0)
(0.820646026036 0.158581015733 0)
(0.697824881953 0.0957993535429 0)
(0.610491651568 0.0579132790784 0)
(0.549133287771 0.0359038577723 0)
(0.50670594554 0.0229309447959 0)
(0.477661973921 0.0149788847155 0)
(0.45781525177 0.0099097339558 0)
(0.44427763853 0.00658330436795 0)
(0.435087223064 0.00436196816805 0)
(0.428895617431 0.00286678712585 0)
(0.424768208962 0.00185965150264 0)
(0.422054569632 0.00118446332414 0)
(0.420301634039 0.000735950845405 0)
(0.419194600187 0.000441938235848 0)
(0.418515978543 0.000252568913698 0)
(0.418116770997 0.00013337143937 0)
(0.41789600967 6.06043145869e-05 0)
(0.417786195091 1.80485284305e-05 0)
(0.417742892792 -5.23984369266e-06 0)
(0.417737423227 -1.66765345686e-05 0)
(0.417751803562 -2.10284310059e-05 0)
(0.417775068681 -2.13716123068e-05 0)
(0.41780080725 -1.96397146447e-05 0)
(0.417825526958 -1.70072743336e-05 0)
(0.417847538352 -1.41531201863e-05 0)
(0.417866220249 -1.14413385811e-05 0)
(0.417881549835 -9.04333891991e-06 0)
(0.417893811027 -7.01792226965e-06 0)
(0.417903418009 -5.36134715105e-06 0)
(0.417910814321 -4.03857522744e-06 0)
(0.417916419713 -3.00217944263e-06 0)
(0.417920605027 -2.20277240968e-06 0)
(0.417923683788 -1.59428923378e-06 0)
(0.417925913467 -1.13664687136e-06 0)
(0.417927501085 -7.9638802741e-07 0)
(0.417928609652 -5.4606814125e-07 0)
(0.417929365942 -3.64224289937e-07 0)
(0.417929867421 -2.34379758733e-07 0)
(0.417930187363 -1.43604365028e-07 0)
(0.417930380225 -8.26092277804e-08 0)
(0.417930487044 -4.54112421043e-08 0)
(0.417930538227 -2.52570836284e-08 0)
(0.417930553256 -1.47812283869e-08 0)
(0.417930547459 -8.46978096711e-09 0)
(0.417930532135 -7.4073159489e-09 0)
(0.417930512187 -8.87240616001e-09 0)
(0.417930490875 -1.1275639946e-08 0)
(0.417930470199 -1.36319898656e-08 0)
(0.417930450851 -1.55808146921e-08 0)
(0.417930432901 -1.75861165055e-08 0)
(0.417930416057 -2.03429172775e-08 0)
(0.41793039997 -2.36787985017e-08 0)
(0.417930384512 -2.75222676468e-08 0)
(0.417930369757 -3.14986277879e-08 0)
(0.417930355946 -3.55629715061e-08 0)
(0.417930342953 -3.93738212323e-08 0)
(0.417930329972 -4.27150162507e-08 0)
(0.417930316691 -4.59134322772e-08 0)
(0.417930303281 -4.94266699046e-08 0)
(0.417930289366 -5.28619984289e-08 0)
(0.417930275156 -5.59814994645e-08 0)
(0.417930261756 -5.90988931334e-08 0)
(0.417930249319 -6.19180277094e-08 0)
(0.417930237355 -6.41905531346e-08 0)
(0.417930225966 -6.6649408442e-08 0)
(0.417930214647 -6.96799576826e-08 0)
(0.417930202308 -7.30086437827e-08 0)
(0.417930188913 -7.69484834356e-08 0)
(0.417930174716 -8.15327477756e-08 0)
(0.417930159918 -8.64737913867e-08 0)
(0.417930145086 -9.1683633699e-08 0)
(0.417930129869 -9.66948829853e-08 0)
(0.417930113581 -1.01675771092e-07 0)
(0.417930096254 -1.07754802109e-07 0)
(0.417930077238 -1.14785783296e-07 0)
(0.417930056134 -1.21816269642e-07 0)
(0.417930034573 -1.29193618372e-07 0)
(0.417930013058 -1.36871010467e-07 0)
(0.417929990049 -1.44003243035e-07 0)
(0.417929966145 -1.5141009002e-07 0)
(0.417929942687 -1.5970121574e-07 0)
(0.417929919032 -1.67909579346e-07 0)
(0.417929895517 -1.76272194155e-07 0)
(0.417929873353 -1.85483559457e-07 0)
(0.417929852065 -1.948556888e-07 0)
(0.417929831255 -2.04574851577e-07 0)
(0.41792981132 -2.1571981807e-07 0)
(0.417929791587 -2.27692400447e-07 0)
(0.417929772291 -2.399524497e-07 0)
(0.417929754608 -2.52894889869e-07 0)
(0.417929737707 -2.66170103137e-07 0)
(0.417929722328 -2.80527338037e-07 0)
(0.417929711657 -2.96841156705e-07 0)
(0.417929706387 -3.13402754082e-07 0)
(0.417929706556 -3.29995493084e-07 0)
(0.417929713959 -3.49521826268e-07 0)
(0.41792972842 -3.7287666925e-07 0)
(0.417929750426 -4.00311438586e-07 0)
(0.417929785085 -4.3281228091e-07 0)
(0.417929835936 -4.69770843963e-07 0)
(0.417929904871 -5.10241406436e-07 0)
(0.417929997956 -5.56071878324e-07 0)
(0.41793012143 -6.08198729575e-07 0)
(0.41793028055 -6.66311800038e-07 0)
(0.417930483932 -7.31698680805e-07 0)
(0.417930740749 -8.04815223304e-07 0)
(0.417931058585 -8.84402086744e-07 0)
(0.417931448904 -9.68053401479e-07 0)
(0.417931944498 -1.04732792854e-06 0)
(0.417932577763 -1.13148464006e-06 0)
(0.417933374449 -1.22819819267e-06 0)
(0.41793437165 -1.34454252525e-06 0)
(0.417935613334 -1.48428283758e-06 0)
(0.41793715704 -1.65385717076e-06 0)
(0.417939076667 -1.86310590151e-06 0)
(0.417941459861 -2.12047427384e-06 0)
(0.417944416698 -2.43817893397e-06 0)
(0.417948086065 -2.83463674268e-06 0)
(0.417952633977 -3.32898205263e-06 0)
(0.417958263538 -3.94505283567e-06 0)
(0.417965224085 -4.71900597863e-06 0)
(0.417973811985 -5.71333244163e-06 0)
(0.417984439018 -7.04751259072e-06 0)
(0.417997651042 -8.78961761031e-06 0)
(0.418014069452 -1.09826979273e-05 0)
(0.418034438509 -1.37060345629e-05 0)
(0.41805969305 -1.70748167737e-05 0)
(0.418090993424 -2.12384915637e-05 0)
(0.41812977775 -2.63864877492e-05 0)
(0.41817783478 -3.27538892955e-05 0)
(0.418237380476 -4.06257113753e-05 0)
(0.418311157783 -5.03517776695e-05 0)
(0.418402576452 -6.23725588966e-05 0)
(0.418515872697 -7.72394733783e-05 0)
(0.418656301418 -9.56340116824e-05 0)
(0.418830397167 -0.000118405418309 0)
(0.41904629726 -0.000146620026377 0)
(0.419314135253 -0.000181614229506 0)
(0.419646553766 -0.000225068157626 0)
(0.42005936471 -0.000279109304443 0)
(0.420572383992 -0.000346443784938 0)
(0.421210510524 -0.000430524182822 0)
(0.422005152333 -0.000535792065123 0)
(0.422996118655 -0.000668024433749 0)
(0.424234149661 -0.000834801550271 0)
(0.4257843857 -0.0010461927229 0)
(0.427731253969 -0.00131581649103 0)
(0.430185548697 -0.00166250586207 0)
(0.433295094635 -0.00211312116631 0)
(0.437261681633 -0.00270780854809 0)
(0.442369704303 -0.00351103100484 0)
(0.449038574579 -0.00463793188296 0)
(0.457925937295 -0.00632426692236 0)
(0.470125768793 -0.00912015093492 0)
(0.487539379327 -0.0144299163485 0)
(0.513819432241 -0.0260776434647 0)
(0.556157510941 -0.0548402881819 0)
(0.619572425104 -0.127444222209 0)
(1.03387038744 0.239240967028 0)
(1.08314081927 0.293634375986 0)
(1.03294437301 0.239131936758 0)
(0.954408191912 0.174539030352 0)
(0.880112563156 0.121551474575 0)
(0.818677585018 0.0832336063718 0)
(0.771466749403 0.0568258269898 0)
(0.736691525587 0.0388125812898 0)
(0.711672060296 0.0264913123114 0)
(0.69395311323 0.0180235466795 0)
(0.681568243553 0.0121875493418 0)
(0.673018744355 0.00816637153169 0)
(0.66719253845 0.00540534976028 0)
(0.663278299886 0.00352193628808 0)
(0.660691208213 0.00224914835731 0)
(0.659014102936 0.00139940204102 0)
(0.657952506554 0.000840646135216 0)
(0.657300821697 0.000480113314088 0)
(0.656917213588 0.000252976341524 0)
(0.656705128308 0.000114286116139 0)
(0.65659979205 3.31752013124e-05 0)
(0.656558491135 -1.12615827651e-05 0)
(0.656553684239 -3.2938323311e-05 0)
(0.656568022399 -4.1103216503e-05 0)
(0.656590907732 -4.16287133266e-05 0)
(0.656616153711 -3.82039933228e-05 0)
(0.656640388461 -3.30686760852e-05 0)
(0.656661976498 -2.75161861131e-05 0)
(0.656680312376 -2.22411278753e-05 0)
(0.656695370426 -1.75718454038e-05 0)
(0.656707423088 -1.362129959e-05 0)
(0.656716870674 -1.03830491028e-05 0)
(0.656724144083 -7.79121407555e-06 0)
(0.656729652624 -5.7560349282e-06 0)
(0.656733759113 -4.18352387829e-06 0)
(0.656736771541 -2.98591640833e-06 0)
(0.656738944091 -2.08670325256e-06 0)
(0.656740481396 -1.42143648041e-06 0)
(0.656741545362 -9.37350491439e-07 0)
(0.656742262711 -5.92207319507e-07 0)
(0.656742730845 -3.5204040508e-07 0)
(0.656743023638 -1.89734800052e-07 0)
(0.656743196447 -8.38340153748e-08 0)
(0.656743289717 -1.81951007833e-08 0)
(0.656743332315 1.9350992147e-08 0)
(0.656743341006 4.07794766024e-08 0)
(0.656743329662 5.45240651804e-08 0)
(0.656743310341 6.17440665454e-08 0)
(0.656743287883 6.38208149783e-08 0)
(0.656743264927 6.27048947873e-08 0)
(0.65674324223 5.98558724222e-08 0)
(0.656743219677 5.61797835038e-08 0)
(0.656743197822 5.30898328739e-08 0)
(0.656743177131 5.17907119699e-08 0)
(0.656743157558 5.23215841405e-08 0)
(0.65674313899 5.48124887666e-08 0)
(0.656743121841 5.90032712342e-08 0)
(0.656743106268 6.35809671868e-08 0)
(0.656743090974 6.83686560227e-08 0)
(0.656743075104 7.36038779907e-08 0)
(0.656743059116 7.89352327017e-08 0)
(0.656743042988 8.45363354075e-08 0)
(0.65674302634 9.10631197534e-08 0)
(0.656743009907 9.82944170967e-08 0)
(0.656742994091 1.05940049049e-07 0)
(0.656742978155 1.14327448848e-07 0)
(0.656742961944 1.23316384573e-07 0)
(0.656742945623 1.32645384651e-07 0)
(0.65674292856 1.4258050605e-07 0)
(0.656742910567 1.53104385644e-07 0)
(0.656742891728 1.64114315577e-07 0)
(0.656742871872 1.75848978275e-07 0)
(0.656742851638 1.88053733229e-07 0)
(0.656742830996 2.00749296235e-07 0)
(0.656742808889 2.14265489373e-07 0)
(0.65674278548 2.27938834034e-07 0)
(0.65674276098 2.41648700829e-07 0)
(0.656742734549 2.56727596429e-07 0)
(0.656742707011 2.7314361006e-07 0)
(0.656742679566 2.89972316381e-07 0)
(0.656742650835 3.08136476198e-07 0)
(0.656742620605 3.28081345391e-07 0)
(0.656742590611 3.48794759947e-07 0)
(0.656742560526 3.70451084097e-07 0)
(0.656742530005 3.93318158129e-07 0)
(0.656742500502 4.16782817732e-07 0)
(0.656742472095 4.41175859017e-07 0)
(0.656742444172 4.66691081639e-07 0)
(0.656742417506 4.92431129675e-07 0)
(0.656742391757 5.19066456006e-07 0)
(0.656742366531 5.47692255567e-07 0)
(0.656742343502 5.77270462123e-07 0)
(0.656742322623 6.07756284991e-07 0)
(0.656742303937 6.39998989449e-07 0)
(0.656742290941 6.73041704878e-07 0)
(0.6567422851 7.06748860553e-07 0)
(0.656742285222 7.41699871173e-07 0)
(0.656742292872 7.76175868299e-07 0)
(0.656742309508 8.1010317118e-07 0)
(0.656742337319 8.47113477342e-07 0)
(0.65674238331 8.85245221075e-07 0)
(0.656742453068 9.21345821934e-07 0)
(0.656742549643 9.5597126426e-07 0)
(0.656742680386 9.87475068214e-07 0)
(0.656742854003 1.01245461695e-06 0)
(0.656743078385 1.02943396419e-06 0)
(0.65674336686 1.03555080869e-06 0)
(0.656743737135 1.02716504455e-06 0)
(0.656744209393 1.00354272778e-06 0)
(0.656744812937 9.65075685354e-07 0)
(0.656745570322 9.14420087501e-07 0)
(0.656746504717 8.36471501276e-07 0)
(0.656747663885 7.19225439565e-07 0)
(0.656749107564 5.48091082614e-07 0)
(0.656750902749 3.08690947631e-07 0)
(0.656753130552 -1.69105179125e-08 0)
(0.656755896044 -4.54516339583e-07 0)
(0.656759326307 -1.03285182146e-06 0)
(0.656763576449 -1.78670593859e-06 0)
(0.65676884328 -2.76403105107e-06 0)
(0.656775369026 -4.02238519968e-06 0)
(0.656783451675 -5.62997751563e-06 0)
(0.656793464919 -7.67340187237e-06 0)
(0.656805866823 -1.0255385019e-05 0)
(0.656821221239 -1.34898096384e-05 0)
(0.656840231551 -1.75543540573e-05 0)
(0.656863769301 -2.26795984871e-05 0)
(0.656892917851 -2.9135715327e-05 0)
(0.656929021462 -3.7254896858e-05 0)
(0.656973740563 -4.74491286175e-05 0)
(0.65702912968 -6.02261117285e-05 0)
(0.657097739789 -7.6218040826e-05 0)
(0.657182735074 -9.62107314912e-05 0)
(0.657288033186 -0.000121172929107 0)
(0.657418494831 -0.000152307666764 0)
(0.657580158417 -0.000191117044291 0)
(0.657780519134 -0.000239468358638 0)
(0.658028888387 -0.00029968763031 0)
(0.658336851701 -0.000374688518812 0)
(0.658718835774 -0.000468121405177 0)
(0.659192824537 -0.000584567721795 0)
(0.659781277297 -0.000729812204322 0)
(0.66051230775 -0.000911198446027 0)
(0.661421193987 -0.00113809135648 0)
(0.662552341865 -0.00142251759674 0)
(0.663961888476 -0.00178007398053 0)
(0.665721176503 -0.00223121209802 0)
(0.667921459287 -0.00280311750392 0)
(0.67068045042 -0.00353257521992 0)
(0.674151679486 -0.00447054122653 0)
(0.678538258444 -0.00568985349896 0)
(0.684113936324 -0.00729910512397 0)
(0.691256403658 -0.00946956748239 0)
(0.700501629971 -0.0124911161263 0)
(0.712633915467 -0.0168951243915 0)
(0.728820109272 -0.0237316549134 0)
(0.750747554657 -0.0351746489267 0)
(0.780713959064 -0.0557670788407 0)
(0.821170706044 -0.0948152335848 0)
(0.868330699189 -0.168395589444 0)
(1.03384127999 0.171306951963 0)
(1.10231584746 0.275556747545 0)
(1.1166362078 0.266312377221 0)
(1.09207923496 0.219892618647 0)
(1.05195417972 0.16821033505 0)
(1.0102221902 0.123615354727 0)
(0.973507686086 0.0888850771339 0)
(0.943885915498 0.0630494673022 0)
(0.921162783273 0.044260776453 0)
(0.904299841476 0.0307743673655 0)
(0.892086221272 0.0211828750911 0)
(0.88341143274 0.0144170513377 0)
(0.877355435452 0.00968504860371 0)
(0.873196842515 0.0064070046446 0)
(0.870389044375 0.00416090755541 0)
(0.868527712474 0.00264123030585 0)
(0.867319366655 0.00162807473938 0)
(0.866554417558 0.000964285118677 0)
(0.866085416568 0.000538482283754 0)
(0.865810148583 0.000272488436531 0)
(0.865658821002 0.000112024324004 0)
(0.865584585679 1.98958107096e-05 0)
(0.865556486596 -2.90068134748e-05 0)
(0.865554554067 -5.15009656065e-05 0)
(0.865566276941 -5.84705989891e-05 0)
(0.865583977652 -5.6877226899e-05 0)
(0.865603197447 -5.10475808576e-05 0)
(0.865621519362 -4.35676958951e-05 0)
(0.86563778019 -3.59019798771e-05 0)
(0.865651561054 -2.88128086188e-05 0)
(0.865662861398 -2.263761621e-05 0)
(0.865671894683 -1.74678205334e-05 0)
(0.865678965539 -1.32621460914e-05 0)
(0.865684399396 -9.91606871717e-06 0)
(0.865688504539 -7.30223061036e-06 0)
(0.865691554079 -5.2927702345e-06 0)
(0.865693780563 -3.77110005591e-06 0)
(0.865695376026 -2.63602341386e-06 0)
(0.865696495394 -1.8023128297e-06 0)
(0.865697262003 -1.20022258689e-06 0)
(0.865697772031 -7.73482730105e-07 0)
(0.865698098918 -4.77551967389e-07 0)
(0.865698297893 -2.78098719941e-07 0)
(0.865698409653 -1.48773056489e-07 0)
(0.865698464535 -6.92590380251e-08 0)
(0.865698486332 -2.47309786508e-08 0)
(0.865698486714 -1.81028738126e-09 0)
(0.865698471221 6.06725518512e-09 0)
(0.865698448161 4.94840080379e-09 0)
(0.865698422796 -1.47683123708e-09 0)
(0.865698397291 -1.05641708869e-08 0)
(0.865698373145 -2.02503995998e-08 0)
(0.865698351219 -2.88910211436e-08 0)
(0.865698330563 -3.74439113382e-08 0)
(0.865698310501 -4.63151481197e-08 0)
(0.865698290902 -5.50863004347e-08 0)
(0.865698270956 -6.2480425522e-08 0)
(0.865698250676 -6.93811195365e-08 0)
(0.865698230314 -7.62774750663e-08 0)
(0.865698209284 -8.27641310117e-08 0)
(0.865698187806 -8.89303672181e-08 0)
(0.86569816624 -9.49475466294e-08 0)
(0.865698144209 -1.00277734866e-07 0)
(0.865698122047 -1.05056272721e-07 0)
(0.865698100511 -1.10180738897e-07 0)
(0.865698079249 -1.15838622491e-07 0)
(0.865698057731 -1.21904010882e-07 0)
(0.865698035692 -1.28507597886e-07 0)
(0.86569801246 -1.35430895609e-07 0)
(0.865697987946 -1.4272524269e-07 0)
(0.865697962403 -1.50888594526e-07 0)
(0.865697935428 -1.59833863342e-07 0)
(0.865697907262 -1.69721150946e-07 0)
(0.86569787829 -1.80799880096e-07 0)
(0.86569784764 -1.92461470293e-07 0)
(0.865697815195 -2.04768990667e-07 0)
(0.865697781765 -2.18371762991e-07 0)
(0.865697746706 -2.32326395336e-07 0)
(0.865697709742 -2.45978858832e-07 0)
(0.865697672184 -2.60348009156e-07 0)
(0.865697633585 -2.74959502262e-07 0)
(0.865697593216 -2.88862691532e-07 0)
(0.86569755258 -3.03395112116e-07 0)
(0.865697512013 -3.19392198477e-07 0)
(0.86569747086 -3.3620903545e-07 0)
(0.865697430344 -3.54458239695e-07 0)
(0.865697391062 -3.74858379953e-07 0)
(0.865697352102 -3.96836720831e-07 0)
(0.865697314163 -4.20681863105e-07 0)
(0.865697277795 -4.46306118647e-07 0)
(0.865697242274 -4.72731478884e-07 0)
(0.86569720897 -5.01148110275e-07 0)
(0.865697179074 -5.32503484763e-07 0)
(0.865697152515 -5.65819072959e-07 0)
(0.865697132059 -6.02299861401e-07 0)
(0.865697120363 -6.44139858068e-07 0)
(0.865697116851 -6.91119041168e-07 0)
(0.865697123746 -7.43740493315e-07 0)
(0.865697146712 -8.03022546398e-07 0)
(0.865697186538 -8.66427825157e-07 0)
(0.865697244509 -9.35376036564e-07 0)
(0.865697328276 -1.0139739892e-06 0)
(0.865697444199 -1.10319534141e-06 0)
(0.865697599197 -1.20516576515e-06 0)
(0.865697803556 -1.32476034185e-06 0)
(0.865698067793 -1.46494253851e-06 0)
(0.865698405769 -1.62989201275e-06 0)
(0.865698836932 -1.82769281058e-06 0)
(0.865699382354 -2.06596732754e-06 0)
(0.865700069111 -2.35631658474e-06 0)
(0.865700933388 -2.7211892864e-06 0)
(0.8657020157 -3.17025809997e-06 0)
(0.865703365477 -3.71762070143e-06 0)
(0.865705048042 -4.38638008541e-06 0)
(0.865707142413 -5.20535065071e-06 0)
(0.86570974271 -6.20876488147e-06 0)
(0.865712970375 -7.4428279764e-06 0)
(0.865716976016 -8.96369544157e-06 0)
(0.865721941096 -1.0836785117e-05 0)
(0.865728093309 -1.31463330194e-05 0)
(0.865735716582 -1.59980085229e-05 0)
(0.865745159994 -1.95204112848e-05 0)
(0.865756858795 -2.38767779053e-05 0)
(0.865771350901 -2.92744730393e-05 0)
(0.865789298 -3.59664702295e-05 0)
(0.865811521207 -4.42612813147e-05 0)
(0.865839038838 -5.45344693141e-05 0)
(0.865873112422 -6.72507071728e-05 0)
(0.865915306183 -8.29933919527e-05 0)
(0.865967558858 -0.000102489614256 0)
(0.866032269062 -0.000126638341299 0)
(0.866112408772 -0.000156557837424 0)
(0.866211667559 -0.000193642586627 0)
(0.86633461713 -0.000239621918875 0)
(0.86648692238 -0.000296641985307 0)
(0.866675616957 -0.000367377867411 0)
(0.866909431233 -0.000455163086739 0)
(0.86719920082 -0.000564152667794 0)
(0.867558394166 -0.000699541459253 0)
(0.868003770188 -0.000867837992549 0)
(0.868556192154 -0.00107721544047 0)
(0.869241664202 -0.00133797561267 0)
(0.870092666667 -0.00166316429575 0)
(0.871149851741 -0.0020693919217 0)
(0.872464216546 -0.00257793821426 0)
(0.874099945852 -0.00321629200067 0)
(0.876138151445 -0.00402034484611 0)
(0.87868184328 -0.00503756269972 0)
(0.881862656571 -0.00633174265627 0)
(0.885850100229 -0.00799046439975 0)
(0.890864493637 -0.0101372483619 0)
(0.897195285003 -0.012952395922 0)
(0.905226884245 -0.0167106242617 0)
(0.915473886256 -0.0218517985888 0)
(0.928623927286 -0.0291175712483 0)
(0.945566036889 -0.039815499875 0)
(0.96731371359 -0.0562964350561 0)
(0.994641123099 -0.0826782454427 0)
(1.02696051891 -0.125586666819 0)
(1.05801931006 -0.193089641925 0)
(1.02388345614 0.119321986646 0)
(1.0887543605 0.231514429643 0)
(1.13660483348 0.252868947039 0)
(1.15406272238 0.228905064989 0)
(1.15000111356 0.18833740897 0)
(1.13537622472 0.146577313398 0)
(1.11757776152 0.110164836877 0)
(1.10059198555 0.0808376045406 0)
(1.08612241748 0.0582501598445 0)
(1.0745876564 0.0413416796014 0)
(1.06578689113 0.0289360752528 0)
(1.05928175181 0.019976665246 0)
(1.05459164799 0.0135943759285 0)
(1.05128078264 0.00910661707061 0)
(1.04898814055 0.0059920083587 0)
(1.04743018151 0.00385994675918 0)
(1.04639203761 0.00242222490735 0)
(1.0457151281 0.00146898462488 0)
(1.04528487122 0.00084930296572 0)
(1.04501998138 0.000455964035195 0)
(1.04486376601 0.000213751066071 0)
(1.04477735624 7.05891216922e-05 0)
(1.04473446683 -9.1042153395e-06 0)
(1.04471776416 -4.91240259042e-05 0)
(1.04471606665 -6.5328194505e-05 0)
(1.04472223238 -6.78939201228e-05 0)
(1.04473190739 -6.32450623896e-05 0)
(1.04474255114 -5.53110814598e-05 0)
(1.04475277083 -4.63898550191e-05 0)
(1.04476188433 -3.77412086826e-05 0)
(1.04476963495 -2.99842357276e-05 0)
(1.04477600691 -2.33569555197e-05 0)
(1.04478110953 -1.78826318783e-05 0)
(1.0447851074 -1.34737062999e-05 0)
(1.04478817983 -9.99427002706e-06 0)
(1.04479049831 -7.29552540454e-06 0)
(1.04479221639 -5.23524317303e-06 0)
(1.04479346582 -3.6863979741e-06 0)
(1.04479435592 -2.53973892803e-06 0)
(1.04479497579 -1.70444628087e-06 0)
(1.04479539636 -1.10676156385e-06 0)
(1.04479567259 -6.8772502507e-07 0)
(1.0447958465 -4.01056965711e-07 0)
(1.04479594981 -2.10611132555e-07 0)
(1.0447960056 -8.81657724917e-08 0)
(1.04479602892 -1.3739072716e-08 0)
(1.04479603093 2.48628051975e-08 0)
(1.04479602171 4.21565272741e-08 0)
(1.04479600694 4.74164622108e-08 0)
(1.04479598904 4.59302338811e-08 0)
(1.04479596959 4.10359443125e-08 0)
(1.04479594925 3.45759235554e-08 0)
(1.04479592719 2.71846144236e-08 0)
(1.04479590309 1.9407475072e-08 0)
(1.04479587889 1.34930741744e-08 0)
(1.04479585636 9.41154278652e-09 0)
(1.04479583514 6.04534554242e-09 0)
(1.04479581422 3.41327092049e-09 0)
(1.04479579326 1.33753448317e-09 0)
(1.04479577148 3.12165165189e-10 0)
(1.04479574894 6.70840639185e-10 0)
(1.04479572632 2.1465523245e-09 0)
(1.04479570331 4.86041424159e-09 0)
(1.04479567963 8.71679247265e-09 0)
(1.04479565574 1.27339559608e-08 0)
(1.04479563143 1.64012137364e-08 0)
(1.04479560614 1.98518975925e-08 0)
(1.04479557993 2.29846617507e-08 0)
(1.04479555263 2.61954719723e-08 0)
(1.04479552391 2.96239713942e-08 0)
(1.04479549388 3.2671955573e-08 0)
(1.04479546212 3.54304246474e-08 0)
(1.04479542878 3.81530024788e-08 0)
(1.04479539464 4.04135973682e-08 0)
(1.04479535901 4.26077760031e-08 0)
(1.04479532129 4.53301011095e-08 0)
(1.04479528263 4.78856394387e-08 0)
(1.04479524294 5.04166400997e-08 0)
(1.04479520105 5.40131602519e-08 0)
(1.04479515803 5.81224605301e-08 0)
(1.0447951145 6.24561772725e-08 0)
(1.04479506913 6.79681149448e-08 0)
(1.04479502231 7.39581460619e-08 0)
(1.04479497496 7.93917406409e-08 0)
(1.04479492674 8.4980720908e-08 0)
(1.04479487814 9.04719267956e-08 0)
(1.04479483023 9.47670061717e-08 0)
(1.04479478267 9.86527294569e-08 0)
(1.04479473606 1.02452459743e-07 0)
(1.04479469132 1.05472029936e-07 0)
(1.04479464741 1.08325065008e-07 0)
(1.04479460499 1.1059994523e-07 0)
(1.04479456596 1.10989104564e-07 0)
(1.04479453006 1.10044297012e-07 0)
(1.04479449864 1.06898883083e-07 0)
(1.04479447489 9.84153952912e-08 0)
(1.04479445926 8.39459341694e-08 0)
(1.04479445279 6.33545122422e-08 0)
(1.04479446024 3.32683254237e-08 0)
(1.04479448448 -9.33507415918e-09 0)
(1.04479452866 -6.50662317619e-08 0)
(1.04479460043 -1.37386876911e-07 0)
(1.04479470613 -2.30081981129e-07 0)
(1.04479485222 -3.46716073063e-07 0)
(1.04479504968 -4.93502464251e-07 0)
(1.04479531062 -6.76687515356e-07 0)
(1.04479564901 -9.02847828834e-07 0)
(1.04479608509 -1.1826687467e-06 0)
(1.04479664243 -1.52781593018e-06 0)
(1.04479734734 -1.95017949264e-06 0)
(1.04479823488 -2.47006824831e-06 0)
(1.04479934832 -3.11213356487e-06 0)
(1.04480073913 -3.90352136295e-06 0)
(1.04480247458 -4.87915976685e-06 0)
(1.04480463797 -6.08349963267e-06 0)
(1.04480732715 -7.5686859711e-06 0)
(1.04481066643 -9.40140574026e-06 0)
(1.04481481317 -1.16656931768e-05 0)
(1.04481995746 -1.44609617207e-05 0)
(1.04482633503 -1.79108740941e-05 0)
(1.04483424101 -2.21721784114e-05 0)
(1.04484403851 -2.74377786279e-05 0)
(1.04485617794 -3.3947919559e-05 0)
(1.04487121707 -4.20038918654e-05 0)
(1.0448898434 -5.1977594166e-05 0)
(1.04491290986 -6.43277363704e-05 0)
(1.04494147359 -7.96196467916e-05 0)
(1.04497684183 -9.85508213908e-05 0)
(1.04502063577 -0.000121986941122 0)
(1.04507486776 -0.0001510046657 0)
(1.04514202667 -0.000186937539276 0)
(1.04522519165 -0.000231438013683 0)
(1.04532818511 -0.000286561535875 0)
(1.04545574512 -0.000354862281042 0)
(1.04561373732 -0.000439510040537 0)
(1.04580943737 -0.00054444866867 0)
(1.04605187154 -0.000674592430352 0)
(1.04635223332 -0.000836063742419 0)
(1.04672441658 -0.00103650428115 0)
(1.04718568139 -0.00128548021033 0)
(1.04775747608 -0.00159499444636 0)
(1.04846646956 -0.00198014328356 0)
(1.04934586518 -0.00245999056056 0)
(1.05043705757 -0.0030587367023 0)
(1.05179172553 -0.00380727196138 0)
(1.05347449974 -0.00474530750327 0)