/*--------------------------------*- C++ -*----------------------------------*\
| =========                 |                                                 |
| \\      /  F ield         | OpenFOAM: The Open Source CFD Toolbox           |
|  \\    /   O peration     | Version:  2106                                  |
|   \\  /    A nd           | Website:  www.openfoam.com                      |
|    \\/     M anipulation  |                                                 |
\*---------------------------------------------------------------------------*/
FoamFile
{
    version     2.0;
    format      ascii;
    arch        "LSB;label=32;scalar=64";
    class       surfaceScalarField;
    location    "0.06";
    object      phi;
}
// * * * * * * * * * * * * * * * * * * * * * * * * * * * * * * * * * * * * * //

dimensions      [0 3 -1 0 0 0 0];

oriented        oriented;

internalField   nonuniform List<scalar> 
18840
(
3.37542678638e-05
1.62457321322e-05
2.25358664056e-05
1.12184009424e-05
1.63022323747e-05
6.23363398935e-06
1.28096863872e-05
3.49254617019e-06
1.08065649969e-05
2.0031211109e-06
9.60507615486e-06
1.20148888191e-06
8.85260003409e-06
7.52476090634e-07
8.36695508475e-06
4.856452069e-07
8.04858174054e-06
3.18373336531e-07
7.83912623201e-06
2.0945540161e-07
7.70217813684e-06
1.36948024676e-07
7.61396781494e-06
8.82100925006e-08
7.558532963e-06
5.54346382196e-08
7.52498489171e-06
3.35479959808e-08
7.50584611326e-06
1.91389553553e-08
7.49598227273e-06
9.86377275204e-09
7.49189046421e-06
4.09182352493e-09
7.49120461763e-06
6.85920673711e-10
7.49237538932e-06
-1.17067823386e-09
7.49439642715e-06
-2.02115238789e-09
7.49665926248e-06
-2.2631580849e-09
7.49881654178e-06
-2.15753052932e-09
7.50069518e-06
-1.87864672261e-09
7.50223253822e-06
-1.53707247593e-09
7.50343112771e-06
-1.19822859708e-09
7.50432803201e-06
-8.96648962519e-10
7.50497487491e-06
-6.46616712536e-10
7.50542526056e-06
-4.50251242545e-10
7.50572802315e-06
-3.02780123534e-10
7.50592431852e-06
-1.96363502286e-10
7.50604666493e-06
-1.22441090284e-10
7.50611937039e-06
-7.28383936221e-11
7.50616031881e-06
-4.08115043489e-11
7.50618126683e-06
-2.11248865566e-11
7.50619084033e-06
-9.45317765379e-12
7.5061939904e-06
-3.33678061815e-12
7.50619395463e-06
-7.87312286006e-14
7.50619241071e-06
1.6286537063e-12
7.50619046394e-06
2.12019731417e-12
7.5061886978e-06
1.94381329331e-12
7.50618721037e-06
1.58033712194e-12
7.50618600351e-06
1.19452536302e-12
7.50618511863e-06
7.96450432334e-13
7.50618452129e-06
4.62935720574e-13
7.50618416719e-06
2.0230950345e-13
7.50618407081e-06
4.15649927761e-14
7.50618419054e-06
-1.71740546744e-14
7.50618441613e-06
-3.28729907409e-14
7.50618465718e-06
-6.88444116724e-14
7.50618489949e-06
-1.38359892725e-13
7.50618517538e-06
-2.05130479279e-13
7.50618548732e-06
-2.64044102564e-13
7.50618580591e-06
-3.47216757418e-13
7.50618617223e-06
-4.27766008876e-13
7.50618664801e-06
-4.3648992982e-13
7.50618718875e-06
-3.96271829649e-13
7.50618767769e-06
-4.09194151218e-13
7.50618809567e-06
-4.96610906793e-13
7.50618851856e-06
-6.02285083993e-13
7.50618902021e-06
-6.65413150653e-13
7.50618961889e-06
-6.80342814324e-13
7.50619029191e-06
-6.92654042456e-13
7.50619102737e-06
-7.14081206508e-13
7.50619181304e-06
-7.16108243774e-13
7.5061926069e-06
-6.97495613922e-13
7.50619335386e-06
-7.0886884622e-13
7.50619405672e-06
-7.82230400369e-13
7.50619479678e-06
-8.69695786297e-13
7.50619563851e-06
-9.0929863965e-13
7.50619656323e-06
-9.14319068402e-13
7.50619751821e-06
-9.42102231269e-13
7.50619850497e-06
-1.00650812069e-12
7.50619957139e-06
-1.0675932331e-12
7.50620073015e-06
-1.09943122573e-12
7.50620193704e-06
-1.11947870847e-12
7.50620314396e-06
-1.15172609676e-12
7.50620434062e-06
-1.20223502264e-12
7.50620555152e-06
-1.26700871512e-12
7.5062068173e-06
-1.33904169547e-12
7.5062081787e-06
-1.39707083037e-12
7.50620964649e-06
-1.41488632971e-12
7.50621117577e-06
-1.39975518397e-12
7.50621269455e-06
-1.40150832761e-12
7.50621417402e-06
-1.46331702826e-12
7.50621565769e-06
-1.57074725447e-12
7.50621720465e-06
-1.6673915858e-12
7.50621882082e-06
-1.72178848727e-12
7.50622046765e-06
-1.75933515022e-12
7.50622213034e-06
-1.81932442682e-12
7.50622385225e-06
-1.89624585207e-12
7.50622569655e-06
-1.94543281746e-12
7.506227685e-06
-1.95084258011e-12
7.50622978499e-06
-1.96198457683e-12
7.50623196377e-06
-2.03717618294e-12
7.50623422864e-06
-2.16939781354e-12
7.50623659182e-06
-2.30111875058e-12
7.50623902686e-06
-2.40254922861e-12
7.50624148442e-06
-2.51545988492e-12
7.50624398611e-06
-2.71740145831e-12
7.50624669802e-06
-3.02955539598e-12
7.50624980249e-06
-3.35082189875e-12
7.50625338783e-06
-3.62628210836e-12
7.50625740512e-06
-3.91025598951e-12
7.50626181895e-06
-4.33336322037e-12
7.50626671863e-06
-4.96193933905e-12
7.50627232114e-06
-5.75197658311e-12
7.50627889158e-06
-6.65850379476e-12
7.50628662709e-06
-7.72045983869e-12
7.50629575823e-06
-9.05140370854e-12
7.50630662732e-06
-1.07895230436e-11
7.50631969419e-06
-1.29841174217e-11
7.50633547892e-06
-1.57162667224e-11
7.50635458769e-06
-1.90942955993e-11
7.50637782459e-06
-2.32863655658e-11
7.50640627913e-06
-2.84719192562e-11
7.50644124257e-06
-3.48537281733e-11
7.50648417659e-06
-4.27470574921e-11
7.50653688706e-06
-5.26193049962e-11
7.5066017667e-06
-6.49760646756e-11
7.50668189791e-06
-8.02935266681e-11
7.5067810106e-06
-9.91653565841e-11
7.50690365886e-06
-1.22569668837e-10
7.50705587509e-06
-1.52121415964e-10
7.50724717662e-06
-1.91249807451e-10
7.5074829825e-06
-2.35675083013e-10
7.50777290394e-06
-2.89655131569e-10
7.50813185588e-06
-3.58662976456e-10
7.5085769469e-06
-4.44977497208e-10
7.50912897167e-06
-5.5219487241e-10
7.5098137272e-06
-6.8495216451e-10
7.51066337073e-06
-8.49473244734e-10
7.51171768579e-06
-1.05392042844e-09
7.5130259472e-06
-1.30820531323e-09
7.51464958304e-06
-1.62401600217e-09
7.51666519456e-06
-2.01585330363e-09
7.51916792599e-06
-2.50257788557e-09
7.52227612327e-06
-3.10812756533e-09
7.5261375746e-06
-3.86169824222e-09
7.53093683559e-06
-4.79935727298e-09
7.53690429562e-06
-5.96720991048e-09
7.54432854139e-06
-7.42398894567e-09
7.55357217209e-06
-9.2434037261e-09
7.56509131306e-06
-1.15189175879e-08
7.57946184618e-06
-1.43707007978e-08
7.59741499666e-06
-1.79535472035e-08
7.61988327729e-06
-2.24683313732e-08
7.64806280638e-06
-2.81794569262e-08
7.68350178908e-06
-3.54388924615e-08
7.72822381654e-06
-4.47215501313e-08
7.78490524278e-06
-5.66810672383e-08
7.8571460464e-06
-7.22408945135e-08
7.94990747775e-06
-9.27613542162e-08
8.07030192245e-06
-1.2039450763e-07
8.22927810004e-06
-1.58976854647e-07
8.44589771295e-06
-2.16620313405e-07
8.75949314309e-06
-3.13595767148e-07
9.26613301982e-06
-5.06639754564e-07
1.02359531754e-05
-9.69820614643e-07
1.25153064776e-05
-2.27935359716e-06
-6.30851904346e-06
1.8823824467e-05
5.01388403867e-05
1.6106892314e-05
4.41590406393e-05
1.71982008816e-05
3.77598274343e-05
1.26328469806e-05
3.26497196595e-05
8.60265429221e-06
2.89474050633e-05
5.70543567852e-06
2.63696043339e-05
3.77928971804e-06
2.45978379293e-05
2.52424205033e-06
2.33852831265e-05
1.69819993544e-06
2.25582869375e-05
1.14536959081e-06
2.19974359084e-05
7.7030632164e-07
2.16206299036e-05
5.13754095418e-07
2.13710258547e-05
3.37814421947e-07
2.12089767363e-05
2.17483953847e-07
2.11067005496e-05
1.35824271207e-07
2.10447081376e-05
8.11312384852e-08
2.10093644249e-05
4.52072076968e-08
2.09911939362e-05
2.22620912394e-08
2.0983693428e-05
8.1864175879e-09
2.09824329972e-05
8.99631232605e-11
2.09845536923e-05
-4.14177805628e-09
2.0988189805e-05
-5.8991661663e-09
2.09922272001e-05
-6.19482574111e-09
2.09960427268e-05
-5.69419755223e-09
2.09993356402e-05
-4.83004959018e-09
2.10020057219e-05
-3.86832159199e-09
2.10040685893e-05
-2.95927101746e-09
2.10055985473e-05
-2.17622207647e-09
2.10066923793e-05
-1.5437609574e-09
2.10074476396e-05
-1.05800540929e-09
2.10079515189e-05
-7.00390956474e-10
2.10082760315e-05
-4.46982241751e-10
2.10084768945e-05
-2.74135189765e-10
2.10085959118e-05
-1.60045564805e-10
2.10086624952e-05
-8.78977543219e-11
2.10086969141e-05
-4.38901338464e-11
2.10087122107e-05
-1.84348055686e-11
2.10087168374e-05
-4.44233086681e-12
2.10087164587e-05
2.22039632229e-12
2.10087141781e-05
4.54625709944e-12
2.10087111338e-05
4.94539334141e-12
2.10087081011e-05
4.40147876071e-12
2.10087055353e-05
3.56683399231e-12
2.10087035458e-05
2.72262916661e-12
2.10087020675e-05
1.95062872764e-12
2.10087010255e-05
1.29755870249e-12
2.10087003565e-05
8.50179990106e-13
2.10087000549e-05
5.14618785006e-13
2.10086999781e-05
2.72862314469e-13
2.10086999925e-05
7.34767945337e-14
2.10087000783e-05
-9.30690626052e-14
2.10087002223e-05
-2.35718337384e-13
2.10087003889e-05
-3.84603641476e-13
2.10087005825e-05
-5.32899125704e-13
2.10087008691e-05
-6.27255791231e-13
2.10087012612e-05
-6.77140747782e-13
2.10087016611e-05
-7.5091056045e-13
2.10087019884e-05
-8.84738724412e-13
2.10087022714e-05
-1.03729294095e-12
2.10087025954e-05
-1.13910091699e-12
2.10087029999e-05
-1.17389107543e-12
2.10087034706e-05
-1.18001073681e-12
2.10087040058e-05
-1.18947460862e-12
2.10087046169e-05
-1.20263755051e-12
2.10087052713e-05
-1.2243742058e-12
2.10087058911e-05
-1.28452740582e-12
2.10087064296e-05
-1.39650521243e-12
2.10087069412e-05
-1.51353482955e-12
2.10087075218e-05
-1.57729937309e-12
2.10087081915e-05
-1.59155037365e-12
2.10087089047e-05
-1.61655308651e-12
2.10087096341e-05
-1.68577754469e-12
2.10087104157e-05
-1.77634124536e-12
2.10087112865e-05
-1.86077573458e-12
2.10087122305e-05
-1.94367262999e-12
2.10087131982e-05
-2.03579826999e-12
2.10087141541e-05
-2.13106953567e-12
2.10087150958e-05
-2.2178574616e-12
2.10087160513e-05
-2.29580303442e-12
2.1008717072e-05
-2.3645602126e-12
2.10087182053e-05
-2.41484254063e-12
2.10087194438e-05
-2.45195196636e-12
2.10087207139e-05
-2.5147091065e-12
2.10087219438e-05
-2.64283021767e-12
2.10087231409e-05
-2.82695545637e-12
2.1008724384e-05
-3.01461296257e-12
2.10087257285e-05
-3.16915022605e-12
2.10087271513e-05
-3.30098149771e-12
2.10087286038e-05
-3.43449846883e-12
2.10087300979e-05
-3.56267547544e-12
2.10087317088e-05
-3.6512769624e-12
2.10087334989e-05
-3.69258333553e-12
2.10087354684e-05
-3.7481166476e-12
2.10087375929e-05
-3.90979355093e-12
2.10087398904e-05
-4.21085194763e-12
2.1008742417e-05
-4.60566175913e-12
2.10087451986e-05
-5.0370249704e-12
2.10087482077e-05
-5.51044474761e-12
2.10087514325e-05
-6.08950406829e-12
2.10087550094e-05
-6.79544711365e-12
2.10087592016e-05
-7.6070914167e-12
2.10087642179e-05
-8.45260848956e-12
2.10087701862e-05
-9.43044382959e-12
2.10087771281e-05
-1.07264934311e-11
2.10087851989e-05
-1.24610216953e-11
2.10087947496e-05
-1.46592049887e-11
2.1008806233e-05
-1.73061390679e-11
2.10088201205e-05
-2.04633401697e-11
2.10088368475e-05
-2.43342396653e-11
2.10088568708e-05
-2.90560995235e-11
2.10088805188e-05
-3.44757975308e-11
2.10089103711e-05
-4.28089774092e-11
2.1008947509e-05
-5.27560870393e-11
2.10089933132e-05
-6.47986009492e-11
2.10090498256e-05
-7.97110624895e-11
2.1009119719e-05
-9.82146019617e-11
2.10092062047e-05
-1.21164664249e-10
2.10093131189e-05
-1.49653545917e-10
2.10094453164e-05
-1.84999951236e-10
2.10096090116e-05
-2.28801616511e-10
2.10098119144e-05
-2.83044501987e-10
2.10100633277e-05
-3.50261025604e-10
2.10103746143e-05
-4.33601463211e-10
2.10107596192e-05
-5.36986200896e-10
2.10112339261e-05
-6.6550083423e-10
2.10118240102e-05
-8.25694697938e-10
2.10125595794e-05
-1.02512343067e-09
2.10134740432e-05
-1.27294577308e-09
2.1014610136e-05
-1.58067916264e-09
2.10160210743e-05
-1.96275431126e-09
2.10177729113e-05
-2.4368475156e-09
2.1019947899e-05
-3.02498235468e-09
2.10226484852e-05
-3.75501437534e-09
2.1026002066e-05
-4.66177999985e-09
2.10301668277e-05
-5.78831977716e-09
2.10353392919e-05
-7.18807125116e-09
2.10417642351e-05
-8.92793741397e-09
2.10497472001e-05
-1.10915191034e-08
2.10596693326e-05
-1.37833401383e-08
2.10720057935e-05
-1.71349227408e-08
2.10873505662e-05
-2.13118802008e-08
2.11064486378e-05
-2.65224893112e-08
2.11302355984e-05
-3.30304173497e-08
2.11598886643e-05
-4.11720189294e-08
2.11968954128e-05
-5.13777473717e-08
2.12431443376e-05
-6.42022280723e-08
2.13010443145e-05
-8.03678938461e-08
2.13736892591e-05
-1.00825019755e-07
2.14650892464e-05
-1.268399504e-07
2.15804989929e-05
-1.60131991174e-07
2.17269053876e-05
-2.03087989755e-07
2.19137866309e-05
-2.59122376988e-07
2.21543606475e-05
-3.33335369685e-07
2.24677819555e-05
-4.33815429203e-07
2.2883272788e-05
-5.74466875608e-07
2.34483338784e-05
-7.81681519823e-07
2.42455553853e-05
-1.11081722402e-06
2.54253051962e-05
-1.68639005443e-06
2.72542108843e-05
-2.79872671637e-06
3.01145570541e-05
-5.13969852734e-06
-1.0196372357e-05
3.40024088968e-05
5.35844095266e-05
1.25224827037e-05
5.29166062591e-05
1.78660045522e-05
4.96394865532e-05
1.59099664261e-05
4.58389009633e-05
1.24032400896e-05
4.24445820921e-05
9.09975470067e-06
3.97366587809e-05
6.48721361531e-06
3.76975643622e-05
4.5633362107e-06
3.6211580141e-05
3.18418402389e-06
3.51515691347e-05
2.20538071929e-06
3.44079529691e-05
1.51392233329e-06
3.3894453144e-05
1.02725364331e-06
3.35458877415e-05
6.86379915201e-07
3.3314051515e-05
4.49320198127e-07
3.31637552282e-05
2.86120683684e-07
3.30695630432e-05
1.75323443739e-07
3.30132614003e-05
1.01508913447e-07
3.29819450746e-05
5.35783312284e-08
3.29665865929e-05
2.3544735159e-08
3.29609950803e-05
5.68117214047e-09
3.2960973855e-05
-4.12065348781e-09
3.29638211419e-05
-8.7464183261e-09
3.29678311477e-05
-1.0204671477e-08
3.29720025957e-05
-9.86538111627e-09
3.29758022781e-05
-8.62954486754e-09
3.29789965002e-05
-7.06238076285e-09
3.29815320044e-05
-5.49469114589e-09
3.29834547172e-05
-4.09897250472e-09
3.29848566111e-05
-2.94575603486e-09
3.29858428693e-05
-2.04434500313e-09
3.29865133884e-05
-1.37101413265e-09
3.29869537861e-05
-8.87522879918e-10
3.29872330692e-05
-5.53166645944e-10
3.29874029316e-05
-3.30058637497e-10
3.29875017084e-05
-1.86431933887e-10
3.29875554429e-05
-9.7689988038e-11
3.2987582061e-05
-4.52587985144e-11
3.29875935582e-05
-1.59532534354e-11
3.298759634e-05
-4.7069493742e-13
3.29875952989e-05
5.65285701219e-12
3.29875926424e-05
7.64462087747e-12
3.29875896039e-05
7.41901350081e-12
3.29875867927e-05
6.29552715189e-12
3.29875844626e-05
4.96603618258e-12
3.29875826642e-05
3.67486603674e-12
3.29875814323e-05
2.56323684284e-12
3.29875807503e-05
1.74064258415e-12
3.29875803552e-05
1.17924235949e-12
3.2987580035e-05
7.92059986213e-13
3.29875798301e-05
3.89162127783e-13
3.29875797223e-05
6.94966434991e-14
3.29875796881e-05
-1.8908434663e-13
3.2987579717e-05
-4.06032318983e-13
3.29875798365e-05
-5.91487881189e-13
3.29875800554e-05
-7.29019635542e-13
3.29875803239e-05
-8.69475987708e-13
3.29875805652e-05
-1.0496858218e-12
3.29875807569e-05
-1.24583767774e-12
3.29875809456e-05
-1.39345677935e-12
3.29875811791e-05
-1.46215254762e-12
3.29875814614e-05
-1.48634847196e-12
3.29875817821e-05
-1.50792563677e-12
3.29875821588e-05
-1.53311686215e-12
3.2987582601e-05
-1.56671624182e-12
3.29875830613e-05
-1.63427174627e-12
3.29875834716e-05
-1.75124070083e-12
3.29875838236e-05
-1.88494710911e-12
3.29875841756e-05
-1.98093950869e-12
3.29875845788e-05
-2.03343827307e-12
3.29875850216e-05
-2.07368607696e-12
3.29875854754e-05
-2.13269027894e-12
3.29875859539e-05
-2.21222227804e-12
3.29875864957e-05
-2.30189734765e-12
3.29875871165e-05
-2.4042474166e-12
3.2987587794e-05
-2.52612271306e-12
3.29875884895e-05
-2.65992046266e-12
3.29875891715e-05
-2.78728780275e-12
3.29875898309e-05
-2.89922954092e-12
3.29875904946e-05
-2.99619173196e-12
3.29875912201e-05
-3.07510640169e-12
3.29875920478e-05
-3.13812449443e-12
3.29875929521e-05
-3.21393943072e-12
3.29875938605e-05
-3.34938096254e-12
3.29875947298e-05
-3.5644594361e-12
3.2987595592e-05
-3.82597262767e-12
3.29875965158e-05
-4.08005560412e-12
3.2987597532e-05
-4.30602985023e-12
3.29875986164e-05
-4.5186988646e-12
3.2987599745e-05
-4.72355664112e-12
3.29876009475e-05
-4.89623183923e-12
3.29876022837e-05
-5.02280544029e-12
3.298760378e-05
-5.15139809639e-12
3.29876054296e-05
-5.37962316825e-12
3.29876072555e-05
-5.77685565388e-12
3.29876093352e-05
-6.33147075522e-12
3.29876117441e-05
-6.9864980257e-12
3.29876144819e-05
-7.72055655218e-12
3.29876174924e-05
-8.5836111148e-12
3.29876207757e-05
-9.61590467092e-12
3.29876244274e-05
-1.07415409801e-11
3.29876289739e-05
-1.2293098027e-11
3.2987634665e-05
-1.40759184789e-11
3.29876415814e-05
-1.62231552622e-11
3.29876498528e-05
-1.89985621282e-11
3.29876598011e-05
-2.25408763383e-11
3.29876719447e-05
-2.69128336385e-11
3.29876868689e-05
-3.2230486584e-11
3.29877052099e-05
-3.87588181681e-11
3.29877278109e-05
-4.69240272675e-11
3.29877558647e-05
-5.71757008785e-11
3.29877912788e-05
-6.99251192189e-11
3.29878342207e-05
-8.57017648529e-11
3.29878867572e-05
-1.05214293516e-10
3.29879514241e-05
-1.29445210771e-10
3.29880312852e-05
-1.59583712439e-10
3.29881301314e-05
-1.97008219624e-10
3.29882524921e-05
-2.43429989374e-10
3.29884038723e-05
-3.00997523548e-10
3.29885911939e-05
-3.72365058967e-10
3.29888232247e-05
-4.60805716116e-10
3.29891108359e-05
-5.70468103722e-10
3.29894673644e-05
-7.06539772246e-10
3.29899093615e-05
-8.75385258743e-10
3.29904575741e-05
-1.08496556398e-09
3.29911377003e-05
-1.34533693441e-09
3.29919810877e-05
-1.66887029051e-09
3.29930269771e-05
-2.07106413333e-09
3.29943245209e-05
-2.57081521821e-09
3.29959349718e-05
-3.19136425657e-09
3.2997934312e-05
-3.96183892638e-09
3.30004164716e-05
-4.91851860782e-09
3.30034979631e-05
-6.1064145564e-09
3.30073239955e-05
-7.58152245264e-09
3.30120755121e-05
-9.41364531524e-09
3.30179772436e-05
-1.16899038879e-08
3.30253082391e-05
-1.45190078332e-08
3.30344161876e-05
-1.80362940349e-08
3.30457349644e-05
-2.2410520247e-08
3.30598053689e-05
-2.78534144189e-08
3.30773018297e-05
-3.46311968321e-08
3.30990676888e-05
-4.30779799738e-08
3.31261593408e-05
-5.36142312073e-08
3.31599016693e-05
-6.67726816003e-08
3.32019607632e-05
-8.32312182295e-08
3.3254438947e-05
-1.03855929085e-07
3.3319998802e-05
-1.29761880095e-07
3.34020288431e-05
-1.62397646094e-07
3.35048679727e-05
-2.03663659221e-07
3.36341150861e-05
-2.5608671711e-07
3.37970675444e-05
-3.23084344066e-07
3.40033586519e-05
-4.0937854614e-07
3.4265916015e-05
-5.21679309058e-07
3.46024609018e-05
-6.69880853381e-07
3.50379234271e-05
-8.69278700596e-07
3.56083856491e-05
-1.14492928787e-06
3.63673153651e-05
-1.54061059576e-06
3.73941578148e-05
-2.13765937712e-06
3.88009742172e-05
-3.09320530613e-06
4.07128537445e-05
-4.71060532318e-06
4.31256578349e-05
-7.55250175276e-06
-1.24863180106e-05
4.54156042557e-05
5.35705291901e-05
8.95195332659e-06
5.55863968855e-05
1.58501373474e-05
5.52414151054e-05
1.62549480785e-05
5.35985794367e-05
1.40460758505e-05
5.15450168339e-05
1.11533169264e-05
4.95859674253e-05
8.44626352705e-06
4.79332000644e-05
6.21610352259e-06
4.66311387374e-05
4.48624510758e-06
4.56488845472e-05
3.18763513321e-06
4.49303823989e-05
2.23242459134e-06
4.44176559405e-05
1.53997989226e-06
4.40599014494e-05
1.04413425891e-06
4.3815914151e-05
6.93307320265e-07
4.36537035583e-05
4.48331238685e-07
4.35491242217e-05
2.79902810448e-07
4.34843268622e-05
1.66306323754e-07
4.34463465957e-05
9.15585767945e-08
4.34259261798e-05
4.39650370702e-08
4.34165834916e-05
1.5023566872e-08
4.3413861619e-05
-1.3989728539e-09
4.34148099218e-05
-9.69462029084e-09
4.34175198154e-05
-1.29144737495e-08
4.34208273976e-05
-1.31729421742e-08
4.34240725057e-05
-1.18744889652e-08
4.34269251109e-05
-9.91473843874e-09
4.34292610511e-05
-7.83045322695e-09
4.34310756013e-05
-5.91353817007e-09
4.34324256322e-05
-4.29596366201e-09
4.34333928751e-05
-3.01169326455e-09
4.34340621978e-05
-2.04022100104e-09
4.34345095796e-05
-1.33532988585e-09
4.34347989297e-05
-8.4229470412e-10
4.34349790495e-05
-5.1010098559e-10
4.34350867053e-05
-2.93975508635e-10
4.34351477122e-05
-1.58699215354e-10
4.34351799427e-05
-7.75797597599e-11
4.3435195192e-05
-3.13466153751e-11
4.34352014567e-05
-6.85551643309e-12
4.34352024065e-05
4.69668748695e-12
4.34352010435e-05
9.11390331531e-12
4.34351988701e-05
9.72129539637e-12
4.34351966039e-05
8.62558393972e-12
4.34351945309e-05
6.927574635e-12
4.34351928251e-05
5.20963959006e-12
4.34351915972e-05
3.78229302872e-12
4.34351907805e-05
2.70035741521e-12
4.34351902398e-05
1.87344708793e-12
4.34351899112e-05
1.19668428679e-12
4.34351897153e-05
5.86243862931e-13
4.34351895827e-05
1.97032428111e-13
4.34351894839e-05
-7.36815187363e-14
4.34351894075e-05
-3.00326580099e-13
4.34351893582e-05
-5.13463786479e-13
4.34351893764e-05
-7.2878811756e-13
4.34351894336e-05
-9.51831998442e-13
4.3435189481e-05
-1.17430918756e-12
4.34351895131e-05
-1.35486502902e-12
4.34351895499e-05
-1.46362892179e-12
4.34351895999e-05
-1.5168250561e-12
4.34351896631e-05
-1.54767452291e-12
4.3435189753e-05
-1.57437379633e-12
4.34351898878e-05
-1.60734528219e-12
4.34351900606e-05
-1.67027160052e-12
4.34351902269e-05
-1.77851593242e-12
4.3435190346e-05
-1.90939039031e-12
4.34351904252e-05
-2.02419253936e-12
4.34351905027e-05
-2.1094469986e-12
4.34351905977e-05
-2.1802661094e-12
4.34351906998e-05
-2.2457656045e-12
4.34351908016e-05
-2.31207590783e-12
4.34351909202e-05
-2.37908653025e-12
4.34351910836e-05
-2.46038705005e-12
4.34351913035e-05
-2.57030581656e-12
4.3435191567e-05
-2.70602680182e-12
4.34351918436e-05
-2.85000252071e-12
4.3435192099e-05
-2.98630592874e-12
4.34351923196e-05
-3.10884852882e-12
4.34351925344e-05
-3.21449467156e-12
4.34351927966e-05
-3.30260150044e-12
4.34351931297e-05
-3.38950786907e-12
4.34351934962e-05
-3.51212321211e-12
4.34351938396e-05
-3.70375886738e-12
4.34351941521e-05
-3.9638722941e-12
4.34351944827e-05
-4.26140965212e-12
4.34351948853e-05
-4.56657814858e-12
4.34351953736e-05
-4.86962742888e-12
4.34351959309e-05
-5.16733526795e-12
4.34351965504e-05
-5.44107573188e-12
4.34351972544e-05
-5.67191974632e-12
4.34351980702e-05
-5.88785484755e-12
4.34351990053e-05
-6.17736687967e-12
4.34352000818e-05
-6.62926103506e-12
4.34352013803e-05
-7.26601175486e-12
4.34352030128e-05
-8.05348168797e-12
4.34352050453e-05
-8.97186466201e-12
4.34352074584e-05
-1.00727578837e-11
4.34352102436e-05
-1.14420234089e-11
4.34352135477e-05
-1.31199133817e-11
4.3435217734e-05
-1.50937093578e-11
4.34352228475e-05
-1.74145025763e-11
4.3435229059e-05
-2.01946944567e-11
4.34352365692e-05
-2.37083477917e-11
4.3435245658e-05
-2.81965610724e-11
4.343525678e-05
-3.3809500369e-11
4.34352705078e-05
-4.06858500025e-11
4.34352874339e-05
-4.91078864554e-11
4.34353082006e-05
-5.95655124166e-11
4.34353337406e-05
-7.2637628277e-11
4.34353653032e-05
-8.89090847849e-11
4.34354044324e-05
-1.09042195489e-10
4.34354529421e-05
-1.34057442805e-10
4.34355128978e-05
-1.65093472145e-10
4.34355869985e-05
-2.03647520305e-10
4.34356787709e-05
-2.51522731889e-10
4.34357925706e-05
-3.10861004885e-10
4.34359336292e-05
-3.84370286492e-10
4.34361083501e-05
-4.7551067439e-10
4.34363247823e-05
-5.88565718869e-10
4.34365930311e-05
-7.28814449732e-10
4.34369256629e-05
-9.02856970324e-10
4.34373382204e-05
-1.11886429951e-09
4.34378499614e-05
-1.3869538123e-09
4.34384848558e-05
-1.71969757923e-09
4.34392726004e-05
-2.13289967025e-09
4.34402500729e-05
-2.64616509858e-09
4.34414629801e-05
-3.283888807e-09
4.34429680743e-05
-4.07611195341e-09
4.34448361357e-05
-5.0597973768e-09
4.34471552661e-05
-6.28103747066e-09
4.34500345838e-05
-7.79752588345e-09
4.34536094094e-05
-9.68106651163e-09
4.34580482647e-05
-1.20206136846e-08
4.34635610361e-05
-1.49267073881e-08
4.34704084984e-05
-1.85374500774e-08
4.34789147993e-05
-2.30253214826e-08
4.34894837174e-05
-2.86051221532e-08
4.35026182952e-05
-3.55449114126e-08
4.35189451626e-05
-4.418050706e-08
4.35392461518e-05
-5.4932858882e-08
4.35644980661e-05
-6.83301248607e-08
4.35959218773e-05
-8.50376774689e-08
4.36350462926e-05
-1.05896902988e-07
4.36837901984e-05
-1.31975090051e-07
4.37445673756e-05
-1.64633119117e-07
4.38204229522e-05
-2.05617922586e-07
4.39152142321e-05
-2.57189180918e-07
4.40338490536e-05
-3.22298001159e-07
4.41826072153e-05
-4.04844520281e-07
4.43695828684e-05
-5.10059766201e-07
4.46052982671e-05
-6.45093420998e-07
4.49035702584e-05
-8.19950957815e-07
4.52827409492e-05
-1.0490514802e-06
4.57673933805e-05
-1.35393184914e-06
4.63905632966e-05
-1.76809924193e-06
4.71958643422e-05
-2.34591066286e-06
4.82369181566e-05
-3.17871442432e-06
4.95658670813e-05
-4.42215368765e-06
5.11889638715e-05
-6.3337020947e-06
5.29373395493e-05
-9.30087842295e-06
-1.37551153858e-05
5.42061373751e-05
5.27606321987e-05
6.19132101203e-06
5.57403659249e-05
1.28704038524e-05
5.73127926632e-05
1.46825212509e-05
5.76121030107e-05
1.37467660566e-05
5.71357057827e-05
1.16297135931e-05
5.63233187981e-05
9.25865062455e-06
5.54552009473e-05
7.08422147546e-06
5.4672349665e-05
5.2690962588e-06
5.40271338478e-05
3.83285110284e-06
5.35246810088e-05
2.73487754208e-06
5.31488688751e-05
1.91579195536e-06
5.28766130937e-05
1.31638989797e-06
5.26848525092e-05
8.85067965256e-07
5.25534555998e-05
5.79728024924e-07
5.24660501199e-05
3.67308236069e-07
5.24098946296e-05
2.22461719042e-07
5.23753785276e-05
1.26074454125e-07
5.23554330524e-05
6.39103140191e-08
5.2344979362e-05
2.5477436166e-08
5.2340441807e-05
3.13881006482e-09
5.2339397133e-05
-8.64993001681e-09
5.23402275003e-05
-1.37449213583e-08
5.23419104332e-05
-1.48558943803e-08
5.23438330154e-05
-1.37969610654e-08
5.23456582777e-05
-1.17398177921e-08
5.23472272132e-05
-9.39928784934e-09
5.23484893091e-05
-7.17559337621e-09
5.23494547187e-05
-5.26133625294e-09
5.23501629462e-05
-3.72003715873e-09
5.2350663713e-05
-2.54099976901e-09
5.23510058679e-05
-1.67749321583e-09
5.23512317971e-05
-1.06859511851e-09
5.235137612e-05
-6.5442342121e-10
5.23514649017e-05
-3.82673201377e-10
5.23515171618e-05
-2.10940689842e-10
5.23515463466e-05
-1.06775632463e-10
5.23515615828e-05
-4.65487902124e-11
5.23515686598e-05
-1.3902244117e-11
5.23515711632e-05
2.195208989e-12
5.23515713734e-05
8.92206232745e-12
5.23515705643e-05
1.06174598363e-11
5.23515693759e-05
9.87799165049e-12
5.2351568131e-05
8.16248584857e-12
5.23515670806e-05
6.29972104183e-12
5.23515663433e-05
4.67906134115e-12
5.23515658728e-05
3.38868266836e-12
5.23515655406e-05
2.37338880943e-12
5.23515652199e-05
1.56100898213e-12
5.23515648421e-05
9.33502256798e-13
5.23515645017e-05
5.17957435533e-13
5.23515642721e-05
1.31434372619e-13
5.23515641112e-05
-2.08348956963e-13
5.23515640121e-05
-4.82175753568e-13
5.23515639716e-05
-7.35037959555e-13
5.23515639553e-05
-9.68905902014e-13
5.2351563947e-05
-1.16107240481e-12
5.23515639347e-05
-1.29536214111e-12
5.23515639094e-05
-1.38060851343e-12
5.23515638666e-05
-1.43979962441e-12
5.23515638179e-05
-1.48639215332e-12
5.23515637805e-05
-1.52871115128e-12
5.23515637646e-05
-1.59212736063e-12
5.23515637704e-05
-1.69112131394e-12
5.23515637797e-05
-1.80796839486e-12
5.23515637643e-05
-1.92006724018e-12
5.23515637149e-05
-2.02153642919e-12
5.23515636447e-05
-2.11847655784e-12
5.23515635691e-05
-2.20575287505e-12
5.2351563491e-05
-2.27027664428e-12
5.23515634016e-05
-2.31383594885e-12
5.23515633123e-05
-2.35663406533e-12
5.23515632525e-05
-2.42349482764e-12
5.23515632435e-05
-2.52467901578e-12
5.23515632809e-05
-2.65184835396e-12
5.23515633327e-05
-2.78924737732e-12
5.23515633561e-05
-2.92343150916e-12
5.23515633341e-05
-3.04441619711e-12
5.2351563295e-05
-3.14749416828e-12
5.2351563283e-05
-3.24164788482e-12
5.23515633092e-05
-3.3538519788e-12
5.23515633396e-05
-3.51654456044e-12
5.23515633372e-05
-3.74297893817e-12
5.23515633109e-05
-4.01923360105e-12
5.23515633083e-05
-4.32427180924e-12
5.2351563369e-05
-4.6474017152e-12
5.23515635017e-05
-4.98402118737e-12
5.23515636986e-05
-5.32263237084e-12
5.23515639547e-05
-5.64651483346e-12
5.23515642653e-05
-5.95878072977e-12
5.23515646211e-05
-6.30979089184e-12
5.23515650302e-05
-6.7793734368e-12
5.23515655566e-05
-7.41679148822e-12
5.23515663182e-05
-8.21601903199e-12
5.23515674224e-05
-9.16478626751e-12
5.23515688957e-05
-1.03117380778e-11
5.23515706995e-05
-1.17598638683e-11
5.23515728482e-05
-1.35947991599e-11
5.2351575494e-05
-1.58248305266e-11
5.23515788753e-05
-1.84528724694e-11
5.23515832038e-05
-2.16109810023e-11
5.23515886624e-05
-2.55345019087e-11
5.23515954394e-05
-3.05131379895e-11
5.23516038952e-05
-3.67771255412e-11
5.23516145322e-05
-4.45085654371e-11
5.23516278928e-05
-5.39826594238e-11
5.23516445079e-05
-6.56789648491e-11
5.23516650556e-05
-8.02696006971e-11
5.23516905902e-05
-9.84607879967e-11
5.23517224947e-05
-1.20987726289e-10
5.23517623138e-05
-1.48788331078e-10
5.23518116686e-05
-1.83262653128e-10
5.23518726672e-05
-2.26133023149e-10
5.2351948198e-05
-2.79423238578e-10
5.23520419766e-05
-3.4550964866e-10
5.23521584774e-05
-4.2733197563e-10
5.23523030429e-05
-5.2868682983e-10
5.23524822834e-05
-6.54404711875e-10
5.23527045194e-05
-8.10451415892e-10
5.23529801391e-05
-1.00416700563e-09
5.23533221314e-05
-1.24464926619e-09
5.23537465678e-05
-1.54313238211e-09
5.23542733627e-05
-1.91357845258e-09
5.23549271873e-05
-2.37341683605e-09
5.23557386102e-05
-2.94433722689e-09
5.23567456763e-05
-3.65329873783e-09
5.23579956494e-05
-4.53390703981e-09
5.23595472294e-05
-5.62773045069e-09
5.23614733877e-05
-6.9860219338e-09
5.23638648394e-05
-8.67251755858e-09
5.23668341753e-05
-1.07669067699e-08
5.23705213102e-05
-1.33683654722e-08
5.23751003279e-05
-1.65997821109e-08
5.23807875861e-05
-2.06139787282e-08
5.23878518892e-05
-2.56017939885e-08
5.23966277397e-05
-3.18012261465e-08
5.2407531517e-05
-3.95087425351e-08
5.24210811118e-05
-4.90944584405e-08
5.24379212938e-05
-6.1021182616e-08
5.24588559641e-05
-7.58680294013e-08
5.24848874217e-05
-9.43615278896e-08
5.25172657001e-05
-1.17415859865e-07
5.25575523596e-05
-1.46183668488e-07
5.260770084e-05
-1.8212329585e-07
5.26701572123e-05
-2.27089017339e-07
5.27479900955e-05
-2.83450725616e-07
5.28450582589e-05
-3.54257329631e-07
5.2966225068e-05
-4.4346465778e-07
5.31176365742e-05
-5.56255975741e-07
5.33070830481e-05
-6.99506327401e-07
5.35444645833e-05
-8.82475234841e-07
5.38423791338e-05
-1.11786527039e-06
5.42168188606e-05
-1.42349057185e-06
5.46878601266e-05
-1.82497335282e-06
5.52799299203e-05
-2.36016932993e-06
5.60204232514e-05