/*--------------------------------*- C++ -*----------------------------------*\
| =========                 |                                                 |
| \\      /  F ield         | OpenFOAM: The Open Source CFD Toolbox           |
|  \\    /   O peration     | Version:  2106                                  |
|   \\  /    A nd           | Website:  www.openfoam.com                      |
|    \\/     M anipulation  |                                                 |
\*---------------------------------------------------------------------------*/
FoamFile
{
    version     2.0;
    format      ascii;
    arch        "LSB;label=32;scalar=64";
    class       volVectorField;
    location    "0.35";
    object      U;
}
// * * * * * * * * * * * * * * * * * * * * * * * * * * * * * * * * * * * * * //

dimensions      [0 1 -1 0 0 0 0];

internalField   nonuniform List<vector> 
11200
(
(0.662462407497 0.150569440486 0)
(0.558948688717 0.103243387032 0)
(0.383850768022 0.0513512231573 0)
(0.283747640717 0.0248708542153 0)
(0.232075330477 0.0124170441672 0)
(0.201908662337 0.00662281578204 0)
(0.183198023707 0.00380291341761 0)
(0.17127659397 0.00231586915221 0)
(0.16351042536 0.00146450576687 0)
(0.158388901061 0.000944891791887 0)
(0.15500677323 0.000615176462205 0)
(0.152786827316 0.000402233586777 0)
(0.151346684413 0.000264232226529 0)
(0.150428452787 0.000175250395088 0)
(0.149856852222 0.000118361158754 0)
(0.149512653073 8.21607109004e-05 0)
(0.149315093351 5.88668486811e-05 0)
(0.149209730878 4.33167895687e-05 0)
(0.149159869614 3.29358607781e-05 0)
(0.149142626061 2.81874718957e-05 0)
(0.149144776053 2.76855693529e-05 0)
(0.149157043903 2.98912535682e-05 0)
(0.149172655834 3.305171826e-05 0)
(0.14918819212 3.59674654055e-05 0)
(0.149202388275 3.86031184937e-05 0)
(0.149214644305 4.10423211979e-05 0)
(0.14922479254 4.33197055158e-05 0)
(0.14923293987 4.54664018369e-05 0)
(0.149239322999 4.75216841135e-05 0)
(0.149244223994 4.95326332416e-05 0)
(0.14924792807 5.15612924719e-05 0)
(0.149250702856 5.36986321167e-05 0)
(0.149252745616 5.60272351309e-05 0)
(0.149254226815 5.84085252815e-05 0)
(0.149255279175 6.07694874954e-05 0)
(0.149255989378 6.30904382163e-05 0)
(0.149256454538 6.53815933298e-05 0)
(0.149256758247 6.76560381871e-05 0)
(0.149256954007 6.99254430702e-05 0)
(0.149257070918 7.21958743333e-05 0)
(0.149257129614 7.44684299721e-05 0)
(0.149257147102 7.67440754751e-05 0)
(0.149257135419 7.90224920845e-05 0)
(0.149257103289 8.13025179584e-05 0)
(0.14925705712 8.35823627715e-05 0)
(0.149257001873 8.58596477716e-05 0)
(0.149256941965 8.81316765292e-05 0)
(0.149256881902 9.0395445324e-05 0)
(0.149256826669 9.26477674144e-05 0)
(0.149256781645 9.48857403673e-05 0)
(0.149256753681 9.71061459025e-05 0)
(0.149256752164 9.93060691175e-05 0)
(0.1492567896 0.000101482620017 0)
(0.14925688353 0.000103632414873 0)
(0.149257059033 0.000105751030798 0)
(0.149257351867 0.000107832715855 0)
(0.149257813188 0.000109870125409 0)
(0.149258518396 0.000111853734143 0)
(0.149259578097 0.00011377072649 0)
(0.149261151762 0.00011559604686 0)
(0.14926348656 0.000117273953333 0)
(0.149266990089 0.000118721666246 0)
(0.149272130168 0.000119979295089 0)
(0.149279555093 0.000121239839755 0)
(0.14929029734 0.000122967000271 0)
(0.149305877537 0.000125341084491 0)
(0.14932868308 0.000128121649543 0)
(0.149362408232 0.000131082641869 0)
(0.149412644877 0.000134009211277 0)
(0.149487622781 0.000136788107009 0)
(0.149599278662 0.000140696588452 0)
(0.149770446735 0.00015155792346 0)
(0.150038890942 0.00017228315989 0)
(0.150467764682 0.000202534174534 0)
(0.151192862419 0.000232461047269 0)
(0.152491818525 0.000191663522323 0)
(0.155020763782 -0.0002167552564 0)
(0.162373967691 -0.00211002788182 0)
(0.187701918378 -0.0107882760732 0)
(0.204358019263 -0.0496583817787 0)
(0.965408258693 0.289214703033 0)
(0.961962875387 0.252656037412 0)
(0.8235744212 0.159021439507 0)
(0.698139410428 0.0959957292492 0)
(0.610225517119 0.05824811237 0)
(0.548971556221 0.036214851638 0)
(0.506588963709 0.0231612838404 0)
(0.477567352969 0.0151375143251 0)
(0.45774558371 0.0100177544842 0)
(0.444228559391 0.0066581408484 0)
(0.435053402669 0.00441555627952 0)
(0.428873226293 0.00290686615697 0)
(0.424754312546 0.00189105898323 0)
(0.422046763645 0.00121004611847 0)
(0.420297926229 0.000757164377993 0)
(0.419193315649 0.00045925698899 0)
(0.418515707922 0.000265856040602 0)
(0.418116557514 0.000142400956648 0)
(0.417895949603 6.61109202643e-05 0)
(0.417786893307 2.30934539014e-05 0)
(0.4177454725 1.40861593344e-06 0)
(0.41774218828 -1.01620722014e-05 0)
(0.417756778745 -1.37133908327e-05 0)
(0.417778729515 -1.32667187968e-05 0)
(0.417803015279 -1.08344212568e-05 0)
(0.417826376702 -7.49132610445e-06 0)
(0.417847120452 -3.87495732007e-06 0)
(0.417864647878 -3.55403411564e-07 0)
(0.417878962932 2.86586976718e-06 0)
(0.417890381083 5.68498232053e-06 0)
(0.417899374252 8.03760322596e-06 0)
(0.417906435938 9.83928249864e-06 0)
(0.417911768261 1.1007977287e-05 0)
(0.417915605569 1.18601784025e-05 0)
(0.417918325653 1.26818363933e-05 0)
(0.417920203541 1.34383532681e-05 0)
(0.417921481976 1.41118319928e-05 0)
(0.417922352307 1.47265867374e-05 0)
(0.417922940553 1.53117793906e-05 0)
(0.417923318238 1.58808816182e-05 0)
(0.417923537897 1.64342472201e-05 0)
(0.417923642762 1.69770430392e-05 0)
(0.417923663391 1.75129095635e-05 0)
(0.417923622239 1.8045142093e-05 0)
(0.417923535658 1.85769318931e-05 0)
(0.417923416072 1.91105101657e-05 0)
(0.417923274384 1.96477234539e-05 0)
(0.417923121458 2.01904442714e-05 0)
(0.41792296951 2.07406746416e-05 0)
(0.417922832174 2.1300823481e-05 0)
(0.417922727186 2.18708310068e-05 0)
(0.417922679341 2.24507817046e-05 0)
(0.417922721857 2.30406542434e-05 0)
(0.417922900365 2.36401812087e-05 0)
(0.417923279404 2.42485525545e-05 0)
(0.417923951131 2.48648814997e-05 0)
(0.417925047664 2.54858039984e-05 0)
(0.417926763056 2.61002042868e-05 0)
(0.417929375814 2.66907658949e-05 0)
(0.417933277077 2.72261679157e-05 0)
(0.417939071105 2.76569561834e-05 0)
(0.417947855186 2.79356619375e-05 0)
(0.417961115254 2.82223431158e-05 0)
(0.417980991696 2.77654914103e-05 0)
(0.418010247626 2.51529963715e-05 0)
(0.418052488902 1.93213942108e-05 0)
(0.418113907296 9.46370375942e-06 0)
(0.418204620749 -5.95368931348e-06 0)
(0.418340228398 -2.94541905471e-05 0)
(0.418545621325 -6.47179712243e-05 0)
(0.418862689899 -0.000115936277125 0)
(0.419361025101 -0.000188078889953 0)
(0.420154084387 -0.000307846790903 0)
(0.421445507978 -0.000532803835466 0)
(0.423626914088 -0.000999765113854 0)
(0.427416946693 -0.00209041080533 0)
(0.434237672145 -0.00485625177842 0)
(0.448263900492 -0.012253730314 0)
(0.474642551966 -0.0342412199645 0)
(0.478163949709 -0.0987687994897 0)
(1.02222096986 0.238416183766 0)
(1.08213754612 0.295926649949 0)
(1.03447725697 0.239503064016 0)
(0.954615452895 0.174290162303 0)
(0.879992112114 0.121345466672 0)
(0.818614504451 0.0830993828879 0)
(0.7714109313 0.0567316663947 0)
(0.736634482665 0.0387409682636 0)
(0.711624535116 0.0264327871076 0)
(0.693916732948 0.0179731050593 0)
(0.681541531725 0.0121424484755 0)
(0.673000246422 0.00812490882631 0)
(0.667180786959 0.00536632172606 0)
(0.663271820984 0.00348444547577 0)
(0.66068865216 0.00221256226543 0)
(0.659014328681 0.00136338259215 0)
(0.657954647119 0.000805244552224 0)
(0.657304352132 0.00044591733186 0)
(0.656921930199 0.000221069036273 0)
(0.656710360064 8.55815105178e-05 0)
(0.656603490047 8.35801596047e-06 0)
(0.656561934276 -3.3719628334e-05 0)
(0.656558025678 -5.68541419396e-05 0)
(0.65657149196 -6.68733353959e-05 0)
(0.656593011174 -6.84809444053e-05 0)
(0.656616819764 -6.55597774741e-05 0)
(0.656639610457 -6.05490918364e-05 0)
(0.656659776443 -5.48595093315e-05 0)
(0.656676732531 -4.92755020347e-05 0)
(0.656690456624 -4.42040635913e-05 0)
(0.656701195283 -3.98400831781e-05 0)
(0.656709332982 -3.6302107906e-05 0)
(0.656715565759 -3.36960292469e-05 0)
(0.656720584286 -3.18574208552e-05 0)
(0.656724432021 -3.08114783004e-05 0)
(0.656727124007 -3.03050124826e-05 0)
(0.656728972589 -3.02500659325e-05 0)
(0.656730257345 -3.0561562126e-05 0)
(0.656731145413 -3.10895924884e-05 0)
(0.656731726533 -3.1751759378e-05 0)
(0.656732074929 -3.25186050301e-05 0)
(0.656732255827 -3.3354931244e-05 0)
(0.656732314234 -3.42361663372e-05 0)
(0.65673228417 -3.51431496226e-05 0)
(0.656732190439 -3.6060434538e-05 0)
(0.65673205165 -3.69773348496e-05 0)
(0.656731884246 -3.78862004556e-05 0)
(0.656731704655 -3.87816145553e-05 0)
(0.656731530926 -3.96592082945e-05 0)
(0.656731381326 -4.05132056102e-05 0)
(0.656731279839 -4.13401742025e-05 0)
(0.656731261957 -4.21362505069e-05 0)
(0.656731376199 -4.28998577224e-05 0)
(0.656731690323 -4.36343064718e-05 0)
(0.65673230074 -4.43531479947e-05 0)
(0.656733343264 -4.50870289912e-05 0)
(0.65673500711 -4.58928696911e-05 0)
(0.656737571107 -4.68646958136e-05 0)
(0.656741444307 -4.8127166287e-05 0)
(0.656747225652 -4.99008953675e-05 0)
(0.656755851233 -5.26975610912e-05 0)
(0.656768969294 -5.75149860108e-05 0)
(0.656787889437 -6.51605262978e-05 0)
(0.656814054846 -7.64958681303e-05 0)
(0.656851318354 -9.32184320046e-05 0)
(0.656906389009 -0.000117722005403 0)
(0.656988641289 -0.000153208592342 0)
(0.657111866245 -0.000204965801743 0)
(0.657297879052 -0.00028151317771 0)
(0.657582071448 -0.000396724750058 0)
(0.65802256947 -0.00057494857442 0)
(0.658708563159 -0.000863447063583 0)
(0.659787097873 -0.00135228896566 0)
(0.661515697548 -0.00221458084446 0)
(0.664336499348 -0.00381284347618 0)
(0.668945214486 -0.00694583419467 0)
(0.676367661221 -0.013352121441 0)
(0.688611581392 -0.0268426411942 0)
(0.705235816931 -0.0563178571655 0)
(0.700487520726 -0.113080651978 0)
(1.02251475895 0.170807148949 0)
(1.10138977362 0.276496475489 0)
(1.11752429179 0.266664796339 0)
(1.0921466494 0.219901696397 0)
(1.05187821259 0.168168845602 0)
(1.01020829282 0.123567395301 0)
(0.973494770075 0.0888375208084 0)
(0.943864645096 0.0630063713605 0)
(0.921142897412 0.0442232043368 0)
(0.90428417818 0.0307423932783 0)
(0.892074980815 0.0211562948128 0)
(0.883404628135 0.0143954692884 0)
(0.877352792475 0.00966794899147 0)
(0.873197832749 0.00639383798856 0)
(0.870393057929 0.00415116561531 0)
(0.868534169762 0.00263449166144 0)
(0.86732777214 0.00162401805502 0)
(0.866564366937 0.000962676564114 0)
(0.866096606224 0.000539122859014 0)
(0.865822359535 0.000275154006592 0)
(0.865671510281 0.000117068837765 0)
(0.865595253323 2.87928983218e-05 0)
(0.865564188038 -1.93243679822e-05 0)
(0.865561371793 -4.1260921928e-05 0)
(0.865572706726 -4.76653033703e-05 0)
(0.865589703411 -4.5525023518e-05 0)
(0.865608002904 -3.91558535733e-05 0)
(0.865625331293 -3.11452308528e-05 0)
(0.865640604788 -2.29642671998e-05 0)
(0.865653456399 -1.53805736527e-05 0)
(0.865663917734 -8.72284381554e-06 0)
(0.865672192437 -3.04384818515e-06 0)
(0.865678533001 1.73476264158e-06 0)
(0.8656831472 5.46595430479e-06 0)
(0.865686453428 8.0324844354e-06 0)
(0.865688838992 9.78894927788e-06 0)
(0.865690458732 1.11420798095e-05 0)
(0.865691609134 1.22862739149e-05 0)
(0.865692465676 1.32542314193e-05 0)
(0.865693046674 1.4139783144e-05 0)
(0.865693400221 1.49340972658e-05 0)
(0.86569359072 1.56598902173e-05 0)
(0.86569365684 1.63328892086e-05 0)
(0.865693630003 1.69697192893e-05 0)
(0.865693532588 1.75847568435e-05 0)
(0.865693381233 1.81882003655e-05 0)
(0.865693191477 1.87875183264e-05 0)
(0.865692979921 1.93888428421e-05 0)
(0.865692768093 1.99996672021e-05 0)
(0.865692579182 2.06296906677e-05 0)
(0.865692443024 2.1264112789e-05 0)
(0.865692401206 2.18898535863e-05 0)
(0.865692506759 2.24902373864e-05 0)
(0.865692829157 2.30391434635e-05 0)
(0.865693462084 2.35004538211e-05 0)
(0.865694535788 2.38399388238e-05 0)
(0.865696235788 2.40147102768e-05 0)
(0.865698855691 2.39065619108e-05 0)
(0.865702799619 2.33722710602e-05 0)
(0.86570848484 2.19961056524e-05 0)
(0.865716385644 1.9212627643e-05 0)
(0.865728118891 1.43141401436e-05 0)
(0.865746271326 5.47495731748e-06 0)
(0.865773813618 -8.89178296852e-06 0)
(0.86581461479 -3.07854045559e-05 0)
(0.86587459629 -6.41665072627e-05 0)
(0.86596309574 -0.00011590841493 0)
(0.866094624444 -0.000196769912171 0)
(0.866291728628 -0.000324007396758 0)
(0.866589221741 -0.00052609039927 0)
(0.867040698763 -0.000851957537424 0)
(0.867731210726 -0.00138853237463 0)
(0.868797083321 -0.00228456422513 0)
(0.8704515304 -0.00381460780072 0)
(0.873013371577 -0.0065028576503 0)
(0.876881395187 -0.0113586376751 0)
(0.88237794552 -0.0202508875544 0)
(0.889686006393 -0.0364500801237 0)
(0.896360273526 -0.0654878073686 0)
(0.886530186366 -0.110036499338 0)
(1.01287875508 0.118961019769 0)
(1.08820672328 0.231806933823 0)
(1.13741370034 0.253106761782 0)
(1.1540909091 0.228992751197 0)
(1.14994216273 0.188368357335 0)
(1.13538472004 0.146579843367 0)
(1.11758902424 0.110150965838 0)
(1.10059508839 0.0808162228158 0)
(1.08612466688 0.0582265774639 0)
(1.07459102848 0.0413189862231 0)
(1.06579157785 0.0289160214523 0)
(1.05928810605 0.0199601011064 0)
(1.05459988556 0.0135815610974 0)
(1.05129089076 0.00909744404608 0)
(1.04899997499 0.00598615480004 0)
(1.04744353257 0.00385696729198 0)
(1.04640665862 0.00242159893796 0)
(1.04573074153 0.00147015131546 0)
(1.04530118305 0.000851703310686 0)
(1.04503668157 0.000459017882394 0)
(1.04488031354 0.000216758548495 0)
(1.04479269085 7.30195144816e-05 0)
(1.04474881847 -5.50238996797e-06 0)
(1.04473191112 -4.40068912136e-05 0)
(1.04472965172 -5.93843788874e-05 0)
(1.0447351263 -6.17184407495e-05 0)
(1.04474406416 -5.7245284306e-05 0)
(1.04475393737 -4.98037369134e-05 0)
(1.04476336636 -4.16448804523e-05 0)
(1.04477168102 -3.39896698857e-05 0)
(1.04477863097 -2.74244252514e-05 0)
(1.04478420377 -2.21526996158e-05 0)
(1.04478854554 -1.81294763793e-05 0)
(1.04479186742 -1.5140980722e-05 0)
(1.04479442476 -1.2809918864e-05 0)
(1.04479651124 -1.10140545775e-05 0)
(1.04479823799 -9.52566432529e-06 0)
(1.04479955058 -8.23683140684e-06 0)
(1.04480051917 -7.21894051088e-06 0)
(1.04480119462 -6.55119849385e-06 0)
(1.04480159849 -6.17263935522e-06 0)
(1.04480181765 -5.9647945748e-06 0)
(1.04480189766 -5.87702573804e-06 0)
(1.0448018768 -5.85935474639e-06 0)
(1.04480177969 -5.87211655018e-06 0)
(1.04480162447 -5.89526726767e-06 0)
(1.044801429 -5.91935459343e-06 0)
(1.04480121457 -5.93997143347e-06 0)
(1.04480100786 -5.96066123097e-06 0)
(1.04480081539 -5.9949044539e-06 0)
(1.04480065183 -6.02572984878e-06 0)
(1.04480056253 -6.0510563399e-06 0)
(1.04480060178 -6.07740611518e-06 0)
(1.0448008446 -6.12011343525e-06 0)
(1.04480141366 -6.21884739379e-06 0)
(1.04480248642 -6.48807076516e-06 0)
(1.04480425049 -7.18584965065e-06 0)
(1.04480700306 -8.59379725227e-06 0)
(1.04481105434 -1.12009345715e-05 0)
(1.04481687464 -1.50336330963e-05 0)
(1.04482548117 -1.99717266563e-05 0)
(1.04483802416 -2.62057808917e-05 0)
(1.04485579473 -3.60139930669e-05 0)
(1.04488109463 -5.23788382481e-05 0)
(1.0449173931 -7.95163048609e-05 0)
(1.04496984238 -0.000123671270648 0)
(1.04504604471 -0.000194611825998 0)
(1.0451573464 -0.000307914462066 0)
(1.04532089052 -0.000488740391607 0)
(1.04556253502 -0.000778106629207 0)
(1.04592095121 -0.00124332209057 0)
(1.04645398128 -0.00199601228484 0)
(1.04724571948 -0.00322669157642 0)
(1.04840907907 -0.00526609865458 0)
(1.05007132496 -0.00869100860155 0)
(1.05228905994 -0.0144950491543 0)
(1.05481823795 -0.02428507397 0)
(1.0568692683 -0.040370774357 0)
(1.05573650402 -0.0655912391146 0)
(1.04212289062 -0.0994494344436 0)
(1.00447483852 0.0814039940087 0)
(1.06917238818 0.181288536062 0)
(1.13080571552 0.216950415998 0)
(1.17375004538 0.210789153164 0)
(1.19865270609 0.183690075231 0)
(1.21019994666 0.149751682533 0)
(1.21350263592 0.116779144034 0)
(1.21251732982 0.0882206783034 0)
(1.20973108221 0.0650481515874 0)
(1.20651130415 0.0470209095804 0)
(1.20351924854 0.0334068090806 0)
(1.20101157366 0.023355732872 0)
(1.19903457803 0.0160720139488 0)
(1.19753890994 0.010879513683 0)
(1.19644144731 0.00723418801853 0)
(1.19565571912 0.00471351857565 0)
(1.19510502263 0.00299762946028 0)
(1.19472660773 0.00184916163268 0)
(1.19447162357 0.00109496165308 0)
(1.19430330891 0.000610613000486 0)
(1.19419466408 0.000307988520389 0)
(1.19412637272 0.000125770655826 0)
(1.19408531512 2.22252807344e-05 0)
(1.19406204744 -3.24500707309e-05 0)
(1.19404973728 -5.7269109475e-05 0)
(1.19404422781 -6.45953045584e-05 0)
(1.19404271839 -6.23739373983e-05 0)
(1.19404339058 -5.55198095773e-05 0)
(1.19404512878 -4.69432120123e-05 0)
(1.19404727483 -3.82576015572e-05 0)
(1.19404945632 -3.02640215838e-05 0)
(1.19405148137 -2.32674943694e-05 0)
(1.19405328111 -1.72917013428e-05 0)
(1.19405484984 -1.22630762328e-05 0)
(1.19405620424 -8.07519140215e-06 0)
(1.19405736386 -4.67423484136e-06 0)
(1.19405830101 -2.0639651381e-06 0)
(1.19405896254 -1.75464831814e-07 0)
(1.19405930822 1.14088044779e-06 0)
(1.19405941351 1.99561154859e-06 0)
(1.19405945931 2.67265627772e-06 0)
(1.19405948194 3.27393589891e-06 0)
(1.19405945534 3.79977038124e-06 0)
(1.19405939587 4.25872625203e-06 0)
(1.19405929903 4.66331215854e-06 0)
(1.19405915653 5.03007658899e-06 0)
(1.1940589717 5.37090843348e-06 0)
(1.19405875199 5.68894301397e-06 0)
(1.19405850667 5.97559536586e-06 0)
(1.1940582781 6.21390780916e-06 0)
(1.19405811347 6.42746807539e-06 0)
(1.1940580419 6.60969956397e-06 0)
(1.19405811146 6.73409300428e-06 0)
(1.19405837833 6.75958106547e-06 0)
(1.19405887613 6.62547128089e-06 0)
(1.19405958632 6.23922067276e-06 0)
(1.19406059634 5.45224663307e-06 0)
(1.19406206254 3.87565043499e-06 0)
(1.19406466829 1.10903559175e-06 0)
(1.1940694388 -3.14773746056e-06 0)
(1.19407689362 -9.67487088061e-06 0)
(1.19408697282 -1.98488239112e-05 0)
(1.19410044947 -3.56883360596e-05 0)
(1.19411931374 -6.01123349217e-05 0)
(1.19414569271 -9.77021136576e-05 0)
(1.19418240925 -0.00015577447711 0)
(1.19423345513 -0.00024597505177 0)
(1.19430446424 -0.000386781972835 0)
(1.19440332174 -0.000607651267147 0)
(1.1945408046 -0.000955913279175 0)
(1.19473095639 -0.00150807626795 0)
(1.19499054846 -0.00238841316795 0)
(1.19533439132 -0.00380013789936 0)
(1.19575973479 -0.00607616223068 0)
(1.19620623773 -0.00975529946757 0)
(1.1964541598 -0.0156813168041 0)
(1.19591668123 -0.0250650492979 0)
(1.1934392962 -0.0393620836525 0)
(1.18668698898 -0.0598153918823 0)
(1.17014140731 -0.0851149891404 0)
(0.998962329428 0.0544316222805 0)
(1.05310958325 0.133401605303 0)
(1.11628271078 0.170777555943 0)
(1.17301276096 0.17514387005 0)
(1.2179125166 0.15958360505 0)
(1.25049864537 0.134951019652 0)
(1.27288498949 0.108411657121 0)
(1.28776731011 0.0838849726305 0)
(1.29745277855 0.0630565734292 0)
(1.30366085773 0.0462999224966 0)
(1.30759245846 0.033320515803 0)
(1.31005382284 0.0235495247758 0)
(1.3115737522 0.0163599082509 0)
(1.31249505917 0.011171315392 0)
(1.31303875526 0.0074915067887 0)
(1.31334684876 0.00492448592948 0)
(1.3135102634 0.00316295525563 0)
(1.31358689287 0.00197475194749 0)
(1.3136132676 0.00118819707414 0)
(1.31361211542 0.000678629565973 0)
(1.31359727412 0.000357008797372 0)
(1.31357694834 0.000160754491872 0)
(1.31355594843 4.64695997134e-05 0)
(1.31353664666 -1.58692079593e-05 0)
(1.31351998167 -4.60580122653e-05 0)
(1.31350628524 -5.70684775709e-05 0)
(1.3134953726 -5.73236592091e-05 0)
(1.31348690656 -5.20855931155e-05 0)
(1.31348049901 -4.45235473768e-05 0)
(1.31347576472 -3.64619147351e-05 0)
(1.31347235269 -2.88738104041e-05 0)
(1.31346995989 -2.22126728415e-05 0)
(1.31346832702 -1.6630119316e-05 0)
(1.31346722594 -1.21336519368e-05 0)
(1.31346649144 -8.65748378844e-06 0)
(1.31346602655 -6.10027669667e-06 0)
(1.31346573006 -4.32489761173e-06 0)
(1.3134655126 -3.12390752183e-06 0)
(1.31346537162 -2.26774253655e-06 0)
(1.31346539274 -1.55205543922e-06 0)
(1.31346553808 -9.77332250975e-07 0)
(1.31346562974 -5.65274758594e-07 0)
(1.31346561646 -2.06971520838e-07 0)
(1.31346553012 1.27072181945e-07 0)
(1.31346539244 4.35670195526e-07 0)
(1.31346521559 7.27091093319e-07 0)
(1.31346500357 1.01297582854e-06 0)
(1.31346475961 1.30295488841e-06 0)
(1.31346449373 1.6070182092e-06 0)
(1.31346423973 1.92835875087e-06 0)
(1.31346402108 2.21639323572e-06 0)
(1.31346384535 2.43241270199e-06 0)
(1.31346374266 2.53204625341e-06 0)
(1.31346376548 2.45144395961e-06 0)
(1.31346400177 2.10492061642e-06 0)
(1.31346456925 1.40636659584e-06 0)
(1.31346543284 3.04846950195e-07 0)
(1.3134667034 -1.38387561419e-06 0)
(1.31346879998 -3.89588343491e-06 0)
(1.3134719252 -7.95850294502e-06 0)
(1.31347629578 -1.48556979778e-05 0)
(1.31348214358 -2.61568648796e-05 0)
(1.31348974658 -4.34565456752e-05 0)
(1.31349959174 -6.99307599684e-05 0)
(1.31351199893 -0.000110608348457 0)
(1.31352705328 -0.000173235062394 0)
(1.31354437717 -0.000269892809128 0)
(1.3135626641 -0.000419534521246 0)
(1.31357872987 -0.000651971532482 0)
(1.3135856757 -0.00101441754013 0)
(1.31356945644 -0.00158186457482 0)
(1.3135026534 -0.00247333613249 0)
(1.31333106656 -0.00387604303801 0)
(1.31294716419 -0.00608228910993 0)
(1.31214101456 -0.00953646898502 0)
(1.31050737675 -0.0148799769438 0)
(1.30729309425 -0.0229408692043 0)
(1.30128887575 -0.0345592495958 0)
(1.29062752558 -0.0501722306531 0)
(1.27183791953 -0.0685530465301 0)
(0.995736077983 0.0346338575664 0)
(1.04179515954 0.0905689195048 0)
(1.10222841819 0.12154956334 0)
(1.16491416178 0.129605832747 0)
(1.22202572253 0.12200926778 0)
(1.26951899284 0.106019938541 0)
(1.30680232293 0.0870975568538 0)
(1.33499545053 0.0686366823988 0)
(1.35574488267 0.0523698405256 0)
(1.37069628581 0.0389256193233 0)
(1.38128288241 0.0282980744135 0)
(1.38866281169 0.0201712777314 0)
(1.39373047402 0.0141175105044 0)
(1.39715675272 0.00970533573832 0)
(1.39943449758 0.00655059475639 0)
(1.40091982145 0.00433445408122 0)
(1.40186636849 0.00280414443 0)
(1.40245238856 0.00176574283331 0)
(1.40280148454 0.0010741951432 0)
(1.40299817864 0.000623235330488 0)
(1.40309939611 0.000336409724245 0)
(1.40314284469 0.000159623728579 0)
(1.40315309956 5.51647525384e-05 0)
(1.40314560437 -2.99763411524e-06 0)
(1.40312983807 -3.21225354039e-05 0)
(1.40311142849 -4.38905495783e-05 0)
(1.40309338298 -4.57612650825e-05 0)
(1.40307722602 -4.24197145016e-05 0)
(1.40306355913 -3.67293090356e-05 0)
(1.40305245604 -3.03667875288e-05 0)
(1.4030437149 -2.42468146035e-05 0)
(1.40303701044 -1.88165533767e-05 0)
(1.40303198158 -1.42445305935e-05 0)
(1.40302827853 -1.05329757192e-05 0)
(1.40302560353 -7.58126981367e-06 0)
(1.40302372472 -5.26473530239e-06 0)
(1.40302246569 -3.46068616655e-06 0)
(1.40302167589 -2.02538770294e-06 0)
(1.40302119007 -8.53941439738e-07 0)
(1.40302081326 7.67327749414e-08 0)
(1.40302047747 7.84525783947e-07 0)
(1.40302026415 1.27325088176e-06 0)
(1.40302016059 1.64406759805e-06 0)
(1.40302007486 1.962886024e-06 0)
(1.40301997225 2.26664577817e-06 0)
(1.40301984592 2.57354173688e-06 0)
(1.4030196946 2.8927623698e-06 0)
(1.40301952083 3.22849118579e-06 0)
(1.40301932633 3.58104109859e-06 0)
(1.40301910415 3.94089606509e-06 0)
(1.4030188662 4.26626535822e-06 0)
(1.40301864627 4.52492102624e-06 0)
(1.4030184724 4.67834445705e-06 0)
(1.40301836814 4.66913869218e-06 0)
(1.40301835014 4.40936671073e-06 0)
(1.40301842797 3.75473031759e-06 0)
(1.40301860588 2.5069620871e-06 0)
(1.4030188814 5.39388087062e-07 0)
(1.40301949551 -2.56389949796e-06 0)
(1.403020624 -7.56791846779e-06 0)
(1.40302211679 -1.52735180266e-05 0)
(1.40302364781 -2.70040337201e-05 0)
(1.40302474506 -4.46121818702e-05 0)
(1.40302466562 -7.10821494066e-05 0)
(1.40302192088 -0.00011100310379 0)
(1.4030137735 -0.000171403372573 0)
(1.40299542023 -0.000263156492055 0)
(1.40295868045 -0.000403131327064 0)
(1.40288962024 -0.000617382621039 0)
(1.40276452921 -0.000946516278869 0)
(1.40254338449 -0.00145385571961 0)
(1.40215985312 -0.00223781124131 0)
(1.40150240706 -0.00344741250284 0)
(1.40038273077 -0.00530636381502 0)
(1.39848758318 -0.00813744395704 0)
(1.39530388093 -0.0123754143472 0)
(1.39001864804 -0.0185311889777 0)
(1.38148389884 -0.0270424613135 0)
(1.36820385098 -0.0379910000909 0)
(1.34778683042 -0.0504846573511 0)
(0.994011535234 0.0192358048133 0)
(1.03484765173 0.0523338393414 0)
(1.09199265781 0.0723631263679 0)
(1.15662424456 0.0791292311591 0)
(1.22032122177 0.076104546074 0)
(1.27701952442 0.0673339719549 0)
(1.32424427347 0.0561509045801 0)
(1.36181583244 0.0447990124317 0)
(1.39068541542 0.0345303791149 0)
(1.41226086732 0.0258814338078 0)
(1.42801834723 0.0189465249583 0)
(1.43929897322 0.0135849825486 0)
(1.44722821205 0.00955653421502 0)
(1.45270427221 0.00660011490515 0)
(1.45641910063 0.00447418946202 0)
(1.45889158883 0.00297351261963 0)
(1.4605024551 0.00193276801355 0)
(1.46152585239 0.001223693463 0)
(1.46215586741 0.000749550655619 0)
(1.46252769019 0.000439018280775 0)
(1.4627339641 0.000240521987888 0)
(1.46283710252 0.000117412924208 0)
(1.4628783997 4.40503685424e-05 0)
(1.4628846323 2.69168495929e-06 0)
(1.46287250061 -1.8444106812e-05 0)
(1.46285214155 -2.74385804778e-05 0)
(1.462829582 -2.94390405224e-05 0)
(1.46280803492 -2.76895774767e-05 0)
(1.46278902797 -2.41878613213e-05 0)
(1.46277310555 -2.0115193721e-05 0)
(1.46276025883 -1.61202501321e-05 0)
(1.46275019348 -1.25258239591e-05 0)
(1.46274249907 -9.45863271572e-06 0)
(1.46273674355 -6.92965467031e-06 0)
(1.4627325284 -4.88520619219e-06 0)
(1.4627295116 -3.25602004832e-06 0)
(1.46272740513 -1.97918496516e-06 0)
(1.46272595224 -1.01362771923e-06 0)
(1.46272494101 -3.14270673288e-07 0)
(1.46272430656 2.06742229096e-07 0)
(1.46272393617 6.87011467772e-07 0)
(1.46272368003 1.16182697987e-06 0)
(1.46272350512 1.58551995323e-06 0)
(1.46272337216 1.96485514931e-06 0)
(1.46272325159 2.32078145492e-06 0)
(1.46272312441 2.6666412297e-06 0)
(1.46272297725 3.00765352696e-06 0)
(1.46272280204 3.3416596828e-06 0)
(1.46272259472 3.65878785351e-06 0)
(1.46272235297 3.94612095909e-06 0)
(1.46272208025 4.1953699838e-06 0)
(1.46272178463 4.3749059712e-06 0)
(1.46272147343 4.4334716156e-06 0)
(1.46272115617 4.30140989413e-06 0)
(1.46272084765 3.88872139019e-06 0)
(1.46272057199 3.08391874694e-06 0)
(1.46272029573 1.765532455e-06 0)
(1.46271992889 -1.80587223879e-07 0)
(1.46271934239 -3.00241177625e-06 0)
(1.462718396 -7.56716092641e-06 0)
(1.46271681842 -1.46573995914e-05 0)
(1.46271393397 -2.53698762328e-05 0)
(1.46270862503 -4.12506135873e-05 0)
(1.46269908399 -6.46809249738e-05 0)
(1.46268224891 -9.92610154468e-05 0)
(1.46265298054 -0.000150381042863 0)
(1.46260277203 -0.000226224829737 0)
(1.4625178678 -0.000339257785398 0)
(1.46237580402 -0.00050808434089 0)
(1.46213973798 -0.000761120998272 0)
(1.46174971288 -0.00114212299022 0)
(1.4611111415 -0.00171873164496 0)
(1.46007291739 -0.0025866732825 0)
(1.45839406763 -0.00388548766865 0)
(1.45570068212 -0.00580755599843 0)
(1.45142738773 -0.00859599052922 0)
(1.44475384657 -0.0125109368843 0)
(1.4346110511 -0.01773283321 0)
(1.41973964415 -0.0242099409862 0)
(1.39829390369 -0.0313963141509 0)
(0.993269671286 0.00617014994739 0)
(1.03158101597 0.0171020459141 0)
(1.08672184919 0.0239906484937 0)
(1.15174558941 0.0265606659861 0)
(1.21823542122 0.025818059679 0)
(1.27925781275 0.0230488874995 0)
(1.33140144322 0.0193656332319 0)
(1.37377608246 0.015546859893 0)
(1.40691063984 0.0120449320277 0)
(1.4320332498 0.0090664011765 0)
(1.45060227277 0.00666059565797 0)
(1.46402998848 0.00479009180475 0)
(1.47355029673 0.00337842817645 0)
(1.48017577472 0.00233873771941 0)
(1.4847024326 0.00158891350713 0)
(1.48773635254 0.00105828867727 0)
(1.48972749278 0.00068946286485 0)
(1.49100292425 0.000437638926239 0)
(1.49179600458 0.000268886725628 0)
(1.49227037424 0.000158112517568 0)
(1.49253886407 8.71263847776e-05 0)
(1.49267793734 4.29767387826e-05 0)
(1.49273846656 1.65866700157e-05 0)
(1.4927536352 1.66569625209e-06 0)
(1.49274439217 -6.06744313893e-06 0)
(1.49272359726 -9.4131623461e-06 0)
(1.49269894565 -1.02197609586e-05 0)
(1.49267466538 -9.65681042369e-06 0)
(1.49265285382 -8.4430328547e-06 0)
(1.49263435218 -6.99637526283e-06 0)
(1.49261928325 -5.55699689857e-06 0)
(1.49260738484 -4.24499245274e-06 0)
(1.49259822749 -3.1079337536e-06 0)
(1.49259133587 -2.15213600251e-06 0)
(1.49258625616 -1.36150874972e-06 0)
(1.4925825884 -7.14352624698e-07 0)
(1.49257999712 -1.89352014014e-07 0)
(1.49257821261 2.3541231872e-07 0)
(1.49257702927 6.06057391443e-07 0)
(1.49257626931 9.74386763003e-07 0)
(1.49257577897 1.27891397058e-06 0)
(1.49257546586 1.56269343502e-06 0)
(1.4925752722 1.84341589306e-06 0)
(1.49257514524 2.13128765149e-06 0)
(1.49257504566 2.4334424507e-06 0)
(1.49257494724 2.75255355678e-06 0)
(1.49257483151 3.08788530362e-06 0)
(1.49257468537 3.4351658726e-06 0)
(1.49257449925 3.78550329015e-06 0)
(1.49257426489 4.124518306e-06 0)
(1.49257397689 4.43197910379e-06 0)
(1.49257363174 4.67527961221e-06 0)
(1.49257322317 4.80923018866e-06 0)
(1.4925727389 4.77288020276e-06 0)
(1.49257215592 4.48212240756e-06 0)
(1.4925714496 3.81664831271e-06 0)
(1.49257060552 2.62528207202e-06 0)
(1.49256948524 8.29185702928e-07 0)
(1.49256767444 -1.81430261485e-06 0)
(1.49256487512 -5.93763378153e-06 0)
(1.49256069222 -1.20677386764e-05 0)
(1.49255410174 -2.09784869862e-05 0)
(1.49254349263 -3.37582227858e-05 0)
(1.49252632233 -5.19604638259e-05 0)
(1.49249847816 -7.77837931012e-05 0)
(1.49245325786 -0.000114252878375 0)
(1.49237978973 -0.000165747502803 0)
(1.49226101136 -0.000238751912069 0)
(1.49206955304 -0.000341757589672 0)
(1.49176079154 -0.00048731700055 0)
(1.4912624511 -0.000695658158153 0)
(1.49046581298 -0.00100045211968 0)
(1.48920145665 -0.00143408558238 0)
(1.48720349803 -0.00204409368402 0)
(1.48407348524 -0.00289183894763 0)
(1.47923157305 -0.00404480251937 0)
(1.47187087716 -0.00555725841303 0)
(1.46097780209 -0.00743071971931 0)
(1.44540500819 -0.00957117767381 0)
(1.42354279613 -0.0117301873888 0)
(0.993270469176 -0.00616840117483 0)
(1.03158099878 -0.0171003751967 0)
(1.08672178314 -0.0239897610729 0)
(1.15174562736 -0.0265602461452 0)
(1.21823549915 -0.0258179918785 0)
(1.2792579146 -0.0230491085681 0)
(1.33140156902 -0.0193660453796 0)