/*--------------------------------*- C++ -*----------------------------------*\
| =========                 |                                                 |
| \\      /  F ield         | OpenFOAM: The Open Source CFD Toolbox           |
|  \\    /   O peration     | Version:  2106                                  |
|   \\  /    A nd           | Website:  www.openfoam.com                      |
|    \\/     M anipulation  |                                                 |
\*---------------------------------------------------------------------------*/
FoamFile
{
    version     2.0;
    format      ascii;
    arch        "LSB;label=32;scalar=64";
    class       surfaceScalarField;
    location    "0.32";
    object      phi;
}
// * * * * * * * * * * * * * * * * * * * * * * * * * * * * * * * * * * * * * //

dimensions      [0 3 -1 0 0 0 0];

oriented        oriented;

internalField   nonuniform List<scalar> 
18840
(
3.37543041927e-05
1.62456958066e-05
2.25359626125e-05
1.12183420236e-05
1.63023782411e-05
6.23358448241e-06
1.28098251239e-05
3.49255280485e-06
1.08065799107e-05
2.00324512052e-06
9.60476905704e-06
1.20181094148e-06
8.85167864721e-06
7.53090471971e-07
8.36503066264e-06
4.86647780857e-07
8.04518612346e-06
3.19844640001e-07
7.8337420463e-06
2.11444191802e-07
7.69428197105e-06
1.39459955821e-07
7.60308021299e-06
9.12016977904e-08
7.54426532037e-06
5.88148723734e-08
7.50707701704e-06
3.71882161133e-08
7.48418907668e-06
2.28879189914e-08
7.47062357667e-06
1.35655308636e-08
7.46302100702e-06
7.60254801445e-09
7.45913818864e-06
3.88277680512e-09
7.45749841995e-06
1.63973960389e-09
7.45714528342e-06
3.53073384825e-10
7.45748260464e-06
-3.37357298138e-10
7.4581336929e-06
-6.51085484259e-10
7.45888573211e-06
-7.52031499646e-10
7.45961949754e-06
-7.33719524242e-10
7.46027603374e-06
-6.56477296418e-10
7.46083254565e-06
-5.56480512145e-10
7.46128675202e-06
-4.54198404639e-10
7.46164697972e-06
-3.60222452299e-10
7.46192614433e-06
-2.79163980471e-10
7.46213828691e-06
-2.12167222731e-10
7.46229675135e-06
-1.58510734948e-10
7.4624132994e-06
-1.16609265976e-10
7.46249777848e-06
-8.45711184254e-11
7.46255816126e-06
-6.05072311933e-11
7.46260074558e-06
-4.27149672408e-11
7.46263038766e-06
-2.97460052205e-11
7.46265075146e-06
-2.04150822735e-11
7.4626645499e-06
-1.37928139572e-11
7.46267375512e-06
-9.16841963505e-12
7.46267979682e-06
-5.99530513781e-12
7.46268371378e-06
-3.8602435415e-12
7.46268628322e-06
-2.51003473153e-12
7.46268787378e-06
-1.52888169105e-12
7.4626887778e-06
-8.70301606372e-13
7.46268927301e-06
-5.10686448143e-13
7.46268954696e-06
-3.22349158547e-13
7.46268972605e-06
-2.41131630593e-13
7.46268987466e-06
-2.18303691356e-13
7.46269003562e-06
-2.1694533223e-13
7.46269023296e-06
-2.27262077119e-13
7.46269045096e-06
-2.45940779381e-13
7.46269068607e-06
-2.79151855823e-13
7.46269094186e-06
-3.29700762017e-13
7.46269124754e-06
-3.85324414423e-13
7.46269163374e-06
-4.288407555e-13
7.46269211e-06
-4.58502672151e-13
7.46269265379e-06
-4.85258462821e-13
7.46269324576e-06
-5.12290868312e-13
7.46269387211e-06
-5.37450647764e-13
7.46269453581e-06
-5.65928051615e-13
7.46269525038e-06
-6.08473023387e-13
7.46269601787e-06
-6.62866294374e-13
7.46269683068e-06
-7.10582473522e-13
7.46269768657e-06
-7.36488228965e-13
7.46269858328e-06
-7.46808819917e-13
7.46269950938e-06
-7.64665015533e-13
7.46270045698e-06
-7.98525428824e-13
7.46270142766e-06
-8.42092086408e-13
7.46270241602e-06
-8.93274842909e-13
7.46270341681e-06
-9.5714847071e-13
7.46270445125e-06
-1.03357538922e-12
7.46270555795e-06
-1.10808572559e-12
7.46270675153e-06
-1.16052440534e-12
7.46270801521e-06
-1.18363256058e-12
7.46270932488e-06
-1.19511775332e-12
7.46271067864e-06
-1.21795477001e-12
7.46271209085e-06
-1.249983403e-12
7.4627135476e-06
-1.27559510836e-12
7.46271500602e-06
-1.30214535608e-12
7.4627164595e-06
-1.35247083131e-12
7.46271796038e-06
-1.41473831607e-12
7.46271955362e-06
-1.44329110775e-12
7.46272120886e-06
-1.42946528859e-12
7.46272284899e-06
-1.42681041797e-12
7.4627244401e-06
-1.48004854435e-12
7.4627260237e-06
-1.56996657002e-12
7.46272766808e-06
-1.65347173518e-12
7.46272940185e-06
-1.72209809352e-12
7.46273119957e-06
-1.79318949008e-12
7.46273303963e-06
-1.86931683456e-12
7.46273492974e-06
-1.93417475545e-12
7.4627368771e-06
-1.98901537232e-12
7.46273887959e-06
-2.06460287139e-12
7.46274093358e-06
-2.16960387685e-12
7.46274307672e-06
-2.27371599664e-12
7.46274536791e-06
-2.35202498316e-12
7.4627477965e-06
-2.42468079258e-12
7.46275029471e-06
-2.5332149974e-12
7.46275290129e-06
-2.68114137552e-12
7.46275574493e-06
-2.85776744609e-12
7.46275886442e-06
-3.09453785473e-12
7.46276226269e-06
-3.39605436162e-12
7.4627660562e-06
-3.76077203478e-12
7.46277034092e-06
-4.20963130855e-12
7.4627751276e-06
-4.7632761254e-12
7.46278057626e-06
-5.42928508151e-12
7.46278684803e-06
-6.27086107811e-12
7.46279406631e-06
-7.34703480747e-12
7.46280256943e-06
-8.63291232085e-12
7.46281273831e-06
-1.0166944586e-11
7.46282485966e-06
-1.21213820787e-11
7.46283937527e-06
-1.45446240593e-11
7.46285695678e-06
-1.75187259381e-11
7.4628782713e-06
-2.1211278086e-11
7.46290415076e-06
-2.58564666983e-11
7.4629357796e-06
-3.1689093637e-11
7.46297454372e-06
-3.88899465006e-11
7.46302216973e-06
-4.77218930011e-11
7.46308086791e-06
-5.86797043246e-11
7.4631531494e-06
-7.23194797256e-11
7.46324223912e-06
-8.92050729178e-11
7.46335227707e-06
-1.10031436757e-10
7.46348834784e-06
-1.35955518602e-10
7.46365731128e-06
-1.68972073386e-10
7.46387003181e-06
-2.12708841436e-10
7.46412922818e-06
-2.59097832878e-10
7.46444887651e-06
-3.19521002549e-10
7.46484434821e-06
-3.9529187004e-10
7.46533396764e-06
-4.89501149109e-10
7.46594027426e-06
-6.06325204992e-10
7.46669124112e-06
-7.51066803483e-10
7.4676214963e-06
-9.30280734933e-10
7.46877381899e-06
-1.15229367444e-09
7.47020133964e-06
-1.42750288884e-09
7.47197011133e-06
-1.76870964071e-09
7.47416204219e-06
-2.19180439982e-09
7.4768789541e-06
-2.7167516955e-09
7.48024746977e-06
-3.36844306361e-09
7.48442531743e-06
-4.17784909826e-09
7.48960912441e-06
-5.18375048121e-09
7.49604445631e-06
-6.43508945179e-09
7.50403876154e-06
-7.99393034214e-09
7.51397770792e-06
-9.93873835877e-09
7.52634707779e-06
-1.23692700515e-08
7.54176106726e-06
-1.54138270777e-08
7.56100003437e-06
-1.92387751384e-08
7.58506203674e-06
-2.40617669992e-08
7.61523322383e-06
-3.01710367912e-08
7.65318758671e-06
-3.79543487695e-08
7.70113154257e-06
-4.79439985987e-08
7.76202431834e-06
-6.08927523587e-08
7.83994061971e-06
-7.7916238089e-08
7.94074450911e-06
-1.00803736048e-07
8.07356549438e-06
-1.32820741422e-07
8.25459900745e-06
-1.81033439968e-07
8.51786580058e-06
-2.63266870295e-07
8.94712294631e-06
-4.29257408053e-07
9.77723113593e-06
-8.30108377913e-07
1.17298314132e-05
-1.95260050242e-06
-5.28659552668e-06
1.70164268565e-05
5.01388817861e-05
1.61068137614e-05
4.41591292838e-05
1.71980944355e-05
3.77598739233e-05
1.26328401921e-05
3.26495145695e-05
8.60291208044e-06
2.89465820342e-05
5.70617739657e-06
2.63676029266e-05
3.78078989748e-06
2.45938852446e-05
2.5268084735e-06
2.33783982303e-05
1.70213469805e-06
2.25473236578e-05
1.15091910184e-06
2.19811567706e-05
7.77611185244e-07
2.15978043288e-05
5.22812276462e-07
2.13405412684e-05
3.48464566813e-07
2.11699438576e-05
2.29412274633e-07
2.10585362031e-05
1.48595871076e-07
2.098718516e-05
9.42389280006e-08
2.09426216605e-05
5.81290133535e-08
2.09157071058e-05
3.45170460997e-08
2.09002072207e-05
1.93825576085e-08
2.08919196889e-05
9.9272233186e-09
2.08880544814e-05
4.21821709379e-09
2.08867847526e-05
9.32304702206e-10
2.08869497652e-05
-8.16064651737e-10
2.0887828132e-05
-1.63030839393e-09
2.08889866966e-05
-1.89219263127e-09
2.08901801496e-05
-1.84987419826e-09
2.08912807254e-05
-1.65704000898e-09
2.08922322073e-05
-1.40568191231e-09
2.08930198876e-05
-1.14790965768e-09
2.08936514712e-05
-9.10766630353e-10
2.0894145302e-05
-7.06074432013e-10
2.08945234537e-05
-5.36816628315e-10
2.08948078791e-05
-4.0122522509e-10
2.08950184043e-05
-2.95294495437e-10
2.08951719332e-05
-2.14234329497e-10
2.08952823527e-05
-1.5329072242e-10
2.08953607198e-05
-1.08185206732e-10
2.08954156059e-05
-7.5288339343e-11
2.08954535249e-05
-5.16405632345e-11
2.08954793349e-05
-3.48866667909e-11
2.0895496616e-05
-2.31732785126e-11
2.08955079682e-05
-1.50873863073e-11
2.0895515168e-05
-9.59511216341e-12
2.08955196256e-05
-5.93903158835e-12
2.08955223219e-05
-3.58976018525e-12
2.08955238432e-05
-2.11935157801e-12
2.08955245976e-05
-1.1960129352e-12
2.08955249259e-05
-6.78717583479e-13
2.08955251099e-05
-4.92515780542e-13
2.08955252243e-05
-4.10396279715e-13
2.08955253258e-05
-4.00332427477e-13
2.08955254149e-05
-4.27373040914e-13
2.08955254993e-05
-4.793816537e-13
2.08955256014e-05
-5.47711289798e-13
2.08955257623e-05
-6.14196345879e-13
2.08955260138e-05
-6.6937386378e-13
2.0895526356e-05
-7.05117603263e-13
2.08955267602e-05
-7.39421559315e-13
2.08955272068e-05
-7.87987463941e-13
2.08955276875e-05
-8.54458846776e-13
2.08955282017e-05
-9.29974234154e-13
2.08955287617e-05
-1.00466314892e-12
2.08955293817e-05
-1.07438787055e-12
2.08955300573e-05
-1.12967448531e-12
2.08955307719e-05
-1.1685954373e-12
2.08955315074e-05
-1.20193168988e-12
2.08955322561e-05
-1.25723729374e-12
2.08955330214e-05
-1.35038460036e-12
2.08955338067e-05
-1.47446897169e-12
2.08955346009e-05
-1.61201059954e-12
2.08955354004e-05
-1.74430113405e-12
2.08955362305e-05
-1.84988589901e-12
2.08955371327e-05
-1.9183819072e-12
2.08955381149e-05
-1.9589750225e-12
2.08955391503e-05
-1.99263457485e-12
2.0895540222e-05
-2.03355506614e-12
2.08955413438e-05
-2.07725168136e-12
2.08955425238e-05
-2.1218253328e-12
2.08955437224e-05
-2.18393372703e-12
2.08955448995e-05
-2.27101094832e-12
2.08955460924e-05
-2.3577090902e-12
2.08955473738e-05
-2.41067278569e-12
2.08955487484e-05
-2.43525533644e-12
2.0895550139e-05
-2.48374834606e-12
2.08955514794e-05
-2.59881278324e-12
2.08955527941e-05
-2.76617128147e-12
2.08955541513e-05
-2.94212008885e-12
2.08955555887e-05
-3.10453166609e-12
2.08955571236e-05
-3.2657957204e-12
2.08955587532e-05
-3.44663699139e-12
2.0895560463e-05
-3.64194188363e-12
2.08955622627e-05
-3.82441770868e-12
2.08955641576e-05
-3.99354762463e-12
2.08955661567e-05
-4.19929196403e-12
2.08955683254e-05
-4.46201570544e-12
2.08955707411e-05
-4.73423132536e-12
2.08955734088e-05
-5.01239018715e-12
2.08955763429e-05
-5.3783812042e-12
2.08955796003e-05
-5.86648603325e-12
2.08955832553e-05
-6.4205984867e-12
2.08955874523e-05
-7.05310527529e-12
2.08955923288e-05
-7.90245461092e-12
2.08955979416e-05
-9.02333732913e-12
2.08956044704e-05
-1.03663280437e-11
2.08956122905e-05
-1.19718103587e-11
2.0895621568e-05
-1.39652401223e-11
2.08956324897e-05
-1.6443428446e-11
2.0895645596e-05
-1.95121820972e-11
2.08956613843e-05
-2.32370771769e-11
2.08956802761e-05
-2.76177673713e-11
2.08957027681e-05
-3.26277063854e-11
2.08957301894e-05
-3.94113877373e-11
2.08957645687e-05
-4.8835069049e-11
2.08958069726e-05
-5.98963564233e-11
2.08958592237e-05
-7.35245432307e-11
2.08959235289e-05
-9.03650392165e-11
2.0896002859e-05
-1.11183717447e-10
2.08961009031e-05
-1.36999446298e-10
2.08962219852e-05
-1.68949133548e-10
2.08963716524e-05
-2.08470272352e-10
2.08965567924e-05
-2.57454808543e-10
2.08967856959e-05
-3.18049307357e-10
2.08970687103e-05
-3.92910301017e-10
2.08974185108e-05
-4.85566644642e-10
2.08978499621e-05
-6.00403720409e-10
2.08983802502e-05
-7.43014200734e-10
2.08990421335e-05
-9.20621711558e-10
2.08998641079e-05
-1.14113142935e-09
2.09008832819e-05
-1.41440214502e-09
2.09021463538e-05
-1.75280670441e-09
2.09037115809e-05
-2.17178751752e-09
2.09056510341e-05
-2.69058334402e-09
2.09080540846e-05
-3.33317306717e-09
2.09110314727e-05
-4.12942668776e-09
2.09147205089e-05
-5.11631054643e-09
2.09192918051e-05
-6.33968949215e-09
2.09249569792e-05
-7.85670175372e-09
2.09319789331e-05
-9.73857041385e-09
2.09406847887e-05
-1.20741451716e-08
2.09514818404e-05
-1.49745368448e-08
2.09648775652e-05
-1.8579088808e-08
2.0981505604e-05
-2.30629800273e-08
2.1002159327e-05
-2.86474502104e-08
2.10278339695e-05
-3.56130273664e-08
2.10597823227e-05
-4.43172532603e-08
2.10995881926e-05
-5.52193886336e-08
2.11492641373e-05
-6.89145632135e-08
2.12113851503e-05
-8.61825915261e-08
2.12892739666e-05
-1.08059619303e-07
2.13872670425e-05
-1.3594717483e-07
2.15111099793e-05
-1.71786961043e-07
2.16685759026e-05
-2.18359177313e-07
2.18704925705e-05
-2.79833544514e-07
2.21325672568e-05
-3.62878787909e-07
2.24788472669e-05
-4.79100744116e-07
2.2948621352e-05
-6.50807554053e-07
2.3610467428e-05
-9.251131509e-07
2.45889305372e-05
-1.40772105583e-06
2.61014149684e-05
-2.34259292585e-06
2.84462726494e-05
-4.29745846337e-06
-8.41633023986e-06
3.15760071652e-05
5.35844268422e-05
1.25223870204e-05
5.29166007328e-05
1.78659201268e-05
4.96393015218e-05
1.59101395323e-05
4.58382171086e-05
1.24039965934e-05
4.24428746645e-05
9.10151982131e-06
3.97331590981e-05
6.49050515908e-06
3.76912453294e-05
4.56872249531e-06
3.62011670161e-05
3.19221304706e-06
3.51355934701e-05
2.21649245183e-06
3.43848444264e-05
1.52836022426e-06
3.38626588517e-05
1.04499779824e-06
3.35040064024e-05
7.07116868383e-07
3.32609624249e-05
4.72456246722e-07
3.30987204601e-05
3.10837871016e-07
3.29922904714e-05
2.00668894769e-07
3.29239192869e-05
1.26500158227e-07
3.28811293413e-05
7.7306936738e-08
3.2855250648e-05
4.52611487523e-08
3.2840334079e-05
2.48437384588e-08
3.28323541064e-05
1.21981605655e-08
3.28286281739e-05
4.65821069448e-09
3.28274042659e-05
4.07891870638e-10
3.28275637542e-05
-1.7897167713e-09
3.28284098591e-05
-2.73824318048e-09
3.28295259917e-05
-2.96598393989e-09
3.28306756772e-05
-2.80671824571e-09
3.28317358356e-05
-2.46584031855e-09
3.2832652319e-05
-2.06441016381e-09
3.28334109683e-05
-1.66945154947e-09
3.28340192115e-05
-1.31439265906e-09
3.28344947483e-05
-1.01249083674e-09
3.28348588816e-05
-7.65532539203e-10
3.28351327564e-05
-5.69338917346e-10
3.28353354633e-05
-4.1708146439e-10
3.28354832966e-05
-3.01210334675e-10
3.28355896139e-05
-2.14524805468e-10
3.28356650207e-05
-1.50677333807e-10
3.28357177548e-05
-1.04339638999e-10
3.28357541028e-05
-7.11811603963e-11
3.28357787742e-05
-4.77762311405e-11
3.28357952545e-05
-3.1484114041e-11
3.28358060561e-05
-2.03335308527e-11
3.28358129681e-05
-1.28438319148e-11
3.28358172619e-05
-7.92367345452e-12
3.28358198412e-05
-4.77159197486e-12
3.28358213608e-05
-2.80676526911e-12
3.28358222264e-05
-1.62792023542e-12
3.28358226334e-05
-9.53626778721e-13
3.28358227614e-05
-5.78607490446e-13
3.28358228008e-05
-4.76444346545e-13
3.28358227889e-05
-4.78563955897e-13
3.2835822753e-05
-5.33911724875e-13
3.28358227346e-05
-6.10470371188e-13
3.28358227708e-05
-6.83096456249e-13
3.28358228955e-05
-7.74099550728e-13
3.28358231024e-05
-8.45718737681e-13
3.28358233713e-05
-9.1046012244e-13
3.28358236798e-05
-9.7868460072e-13
3.28358240157e-05
-1.06297835709e-12
3.28358243805e-05
-1.16617879799e-12
3.28358247923e-05
-1.27156109018e-12
3.28358252655e-05
-1.35139116722e-12
3.28358257885e-05
-1.39735109697e-12
3.28358263364e-05
-1.44889163341e-12
3.28358268775e-05
-1.51880025097e-12
3.28358274171e-05
-1.62943939539e-12
3.28358279705e-05
-1.78191846334e-12
3.28358285372e-05
-1.95711026209e-12
3.28358291153e-05
-2.13703068997e-12
3.28358297049e-05
-2.29578662693e-12
3.28358303237e-05
-2.4108120291e-12
3.28358310007e-05
-2.47407321665e-12
3.28358317374e-05
-2.50644136696e-12
3.28358325093e-05
-2.54575580343e-12
3.28358333086e-05
-2.61015687145e-12
3.28358341503e-05
-2.68550583219e-12
3.2835835031e-05
-2.76049729359e-12
3.2835835918e-05
-2.84735309285e-12
3.28358367964e-05
-2.9477650115e-12
3.28358377054e-05
-3.03644140162e-12
3.28358386867e-05
-3.10249831382e-12
3.28358397197e-05
-3.1807132124e-12
3.28358407396e-05
-3.31918534602e-12
3.28358417127e-05
-3.52085796539e-12
3.28358426822e-05
-3.7506803238e-12
3.28358437117e-05
-3.98867075232e-12
3.28358448178e-05
-4.23407131423e-12
3.28358460093e-05
-4.49197673921e-12
3.28358473096e-05
-4.77152155941e-12
3.28358487258e-05
-5.06428090384e-12
3.28358502516e-05
-5.36214717452e-12
3.28358518769e-05
-5.68975205581e-12
3.28358536368e-05
-6.07622883401e-12
3.28358556335e-05
-6.51863676876e-12
3.28358579492e-05
-7.01661559738e-12
3.28358605597e-05
-7.61539848791e-12
3.28358634851e-05
-8.36314593846e-12
3.28358668437e-05
-9.26522880676e-12
3.2835870657e-05
-1.02777486784e-11
3.28358750304e-05
-1.14904581409e-11
3.28358804423e-05
-1.33296466214e-11
3.28358870196e-05
-1.55963293859e-11
3.28358949301e-05
-1.8300037472e-11
3.28359045831e-05
-2.15428142621e-11
3.28359163372e-05
-2.56322913171e-11
3.283593052e-05
-3.07422236154e-11
3.28359478861e-05
-3.6999729837e-11
3.28359693665e-05
-4.46683935745e-11
3.28359958558e-05
-5.40588144912e-11
3.28360288618e-05
-6.56429036282e-11
3.28360696173e-05
-8.01351092819e-11
3.28361189804e-05
-9.81848191562e-11
3.28361795888e-05
-1.20533662439e-10
3.28362542279e-05
-1.48222900685e-10
3.28363461936e-05
-1.82487726806e-10
3.28364597254e-05
-2.24852942032e-10
3.28366000664e-05
-2.77341443827e-10
3.28367734096e-05
-3.42362845761e-10
3.28369876404e-05
-4.22821201526e-10
3.28372526328e-05
-5.22422911773e-10
3.28375803907e-05
-6.45681521034e-10
3.28379857463e-05
-7.98205719063e-10
3.28384873279e-05
-9.87039745704e-10
3.28391082108e-05
-1.22114207877e-09
3.28398767679e-05
-1.51148150737e-09
3.28408276814e-05
-1.87136146512e-09
3.28420045756e-05
-2.31786575873e-09
3.28434615126e-05
-2.87139015203e-09
3.28452655585e-05
-3.55705832065e-09
3.28474998702e-05
-4.40618457168e-09
3.28502671973e-05
-5.45785615556e-09
3.2853694792e-05
-6.76070205074e-09
3.28579405121e-05
-8.37509791958e-09
3.28632001241e-05
-1.03758553077e-08
3.28697165689e-05
-1.28559536949e-08
3.28777912017e-05
-1.59311819617e-08
3.28877983656e-05
-1.97456653796e-08
3.29002035036e-05
-2.4479131157e-08
3.29155857263e-05
-3.03563497548e-08
3.29346662205e-05
-3.76590751061e-08
3.29583445229e-05
-4.67411022592e-08
3.29877455109e-05
-5.80483815158e-08
3.30242784893e-05
-7.21457899497e-08
3.30697141877e-05
-8.97526186309e-08
3.31262862184e-05
-1.11791023825e-07
3.31968251466e-05
-1.39453288979e-07
3.32849401616e-05
-1.74297640434e-07
3.33952687714e-05
-2.18388368111e-07
3.3533829887e-05
-2.74508311074e-07
3.37085380038e-05
-3.46495128669e-07
3.39299798075e-05
-4.39801142363e-07
3.42126318394e-05
-5.62485689018e-07
3.45768250632e-05
-7.27072192207e-07
3.50519462029e-05
-9.54221987363e-07
3.56814335323e-05
-1.28029507839e-06
3.65294143803e-05
-1.77309420062e-06
3.76848562958e-05
-2.56316337398e-06
3.92417186694e-05
-3.89945556248e-06
4.11760186381e-05
-6.23175874972e-06
-1.020453493e-05
4.29642240985e-05
5.35705202563e-05
8.9518670673e-06
5.55863056079e-05
1.58501344163e-05
5.52410588334e-05
1.62553862392e-05
5.35976157713e-05
1.40474397063e-05
5.154290606e-05
1.11562297578e-05
4.95819402777e-05
8.4514705679e-06
4.79262511451e-05
6.22441171178e-06
4.66200398913e-05
4.49842440046e-06
4.56322338321e-05
3.20429830352e-06
4.49066876267e-05
2.25390634088e-06
4.43854423038e-05
1.56624311843e-06
4.40178329289e-05
1.07472615991e-06
4.37629124676e-05
7.27376718726e-07
4.35890450431e-05
4.84705353322e-07
4.34725018078e-05
3.17212107889e-07
4.33958687335e-05
2.03133177493e-07
4.33465906507e-05
1.26584974426e-07
4.33157564132e-05
7.60952759146e-08
4.32971348658e-05
4.34651888466e-08
4.32864332282e-05
2.28997698489e-08
4.32807398891e-05
1.03515536118e-08
4.32781171674e-05
3.03066851426e-09
4.32772905292e-05
-9.63013068783e-10
4.32774550665e-05
-2.90274856215e-09
4.32781064887e-05
-3.61739918033e-09
4.32789445228e-05
-3.6447438463e-09
4.327979953e-05
-3.32083232735e-09
4.3280583875e-05
-2.84877083769e-09
4.32812596503e-05
-2.3452915982e-09
4.32818176957e-05
-1.87253904466e-09
4.32822642696e-05
-1.45919761397e-09
4.32826128863e-05
-1.11430106887e-09
4.32828794981e-05
-8.36086303155e-10
4.32830798003e-05
-6.17478048237e-10
4.32832279033e-05
-4.49358040596e-10
4.32833358053e-05
-3.22426434987e-10
4.32834133022e-05
-2.28158895118e-10
4.32834681863e-05
-1.59200676746e-10
4.32835065225e-05
-1.09473765057e-10
4.32835329218e-05
-7.41106387364e-11
4.32835508206e-05
-4.93231397777e-11
4.3283562734e-05
-3.22169305137e-11
4.32835704769e-05
-2.06030686367e-11
4.32835753725e-05
-1.28601665349e-11
4.32835783553e-05
-7.80962647603e-12
4.32835800784e-05
-4.59948824973e-12
4.32835810089e-05
-2.63376160411e-12
4.32835814997e-05
-1.50016625597e-12
4.32835817831e-05
-8.96975154426e-13
4.32835818977e-05
-6.19639490632e-13
4.3283581897e-05
-5.31095245072e-13
4.32835818266e-05
-5.46970115701e-13
4.32835817425e-05
-6.02590134396e-13
4.32835816935e-05
-6.63594695421e-13
4.32835816816e-05
-7.34468912697e-13
4.32835817153e-05
-8.08476838313e-13
4.32835817808e-05
-8.83952441245e-13
4.32835818675e-05
-9.64810426265e-13
4.32835819804e-05
-1.06215250179e-12
4.32835821272e-05
-1.17639590739e-12
4.32835823179e-05
-1.28536479707e-12
4.32835825669e-05
-1.36244987458e-12
4.32835828578e-05
-1.41022462744e-12
4.32835831307e-05
-1.47283739617e-12
4.32835833608e-05
-1.58396304868e-12
4.32835835735e-05
-1.74812762681e-12
4.3283583806e-05
-1.94510170679e-12
4.32835840633e-05
-2.14493832921e-12
4.32835843315e-05
-2.32547956006e-12
4.32835846084e-05
-2.47150404427e-12
4.32835849061e-05
-2.57043746737e-12
4.32835852342e-05
-2.62013267447e-12
4.32835855802e-05
-2.64465677259e-12
4.32835859294e-05
-2.68538993077e-12
4.32835862971e-05
-2.76614809658e-12
4.3283586702e-05
-2.87089420675e-12
4.32835871303e-05
-2.97150122691e-12
4.32835875561e-05
-3.06406233826e-12
4.32835879755e-05
-3.15331509069e-12
4.32835884139e-05
-3.24068611413e-12
4.32835888868e-05
-3.3448601332e-12
4.32835893694e-05
-3.49626810123e-12
4.32835898251e-05
-3.7035002472e-12
4.3283590246e-05
-3.94219222541e-12
4.32835906728e-05
-4.19201901115e-12
4.32835911624e-05
-4.46935095812e-12
4.32835917283e-05
-4.78921456987e-12
4.32835923768e-05
-5.13944805058e-12
4.32835931443e-05
-5.50743727868e-12
4.32835940452e-05
-5.88921124788e-12
4.32835950591e-05
-6.31445237965e-12
4.32835961826e-05
-6.82292195575e-12
4.32835974825e-05
-7.40715611076e-12
4.32835990616e-05
-8.06782370527e-12
4.32836009864e-05
-8.87180355325e-12
4.32836032621e-05
-9.89077608302e-12
4.3283605966e-05
-1.11340829295e-11
4.32836093033e-05
-1.26224552096e-11
4.32836134216e-05
-1.44328519434e-11
4.32836184355e-05
-1.66595789217e-11
4.3283624402e-05
-1.94421972872e-11
4.32836316786e-05
-2.28941320595e-11
4.32836405383e-05
-2.71381609281e-11
4.32836513956e-05
-3.23695049121e-11
4.32836646824e-05
-3.89072724338e-11
4.3283680882e-05
-4.70256264124e-11
4.32837008203e-05
-5.69640141507e-11
4.32837254674e-05
-6.91380501401e-11
4.32837557352e-05
-8.41782405988e-11
4.32837928956e-05
-1.02856111257e-10
4.32838387666e-05
-1.26118981718e-10
4.32838955018e-05
-1.55010072713e-10
4.32839655934e-05
-1.90698629745e-10
4.32840521761e-05
-2.34842621313e-10
4.32841590885e-05
-2.89487920994e-10
4.32842911917e-05
-3.57094648156e-10
4.32844546061e-05
-4.40790206187e-10
4.32846566617e-05
-5.4443304208e-10
4.32849064921e-05
-6.7269154808e-10
4.32852156402e-05
-8.31430903316e-10
4.32855981617e-05
-1.02797287951e-09
4.3286071374e-05
-1.27130986246e-09
4.32866569781e-05
-1.57264157024e-09
4.32873819269e-05
-1.94597750925e-09
4.32882792628e-05
-2.40872627435e-09
4.3289390052e-05
-2.9821393643e-09
4.32907649896e-05
-3.69287424654e-09
4.32924669786e-05
-4.57352648379e-09
4.32945741128e-05
-5.66430274699e-09
4.32971832112e-05
-7.01519166631e-09
4.33004139923e-05
-8.68845760532e-09
4.33044147352e-05
-1.07613909926e-08
4.33093694493e-05
-1.33297972956e-08
4.33155061769e-05
-1.65125398943e-08
4.33231077138e-05
-2.04573821219e-08
4.33325248636e-05
-2.5348188197e-08
4.33441931183e-05
-3.14137531801e-08
4.33586533872e-05
-3.89392130565e-08
4.3376578014e-05
-4.82807396053e-08
4.3398803548e-05
-5.9884280209e-08
4.34263718101e-05
-7.43091931429e-08
4.34605828381e-05
-9.22593165906e-08
4.3503061534e-05
-1.1462429715e-07
4.35558433119e-05
-1.42534157586e-07
4.36214856835e-05
-1.77433093724e-07
4.3703213579e-05
-2.21181078049e-07
4.38051126536e-05
-2.76196848958e-07
4.39323884625e-05
-3.45664513339e-07
4.40917209896e-05
-4.33841300105e-07
4.42917574132e-05
-5.46532072085e-07
4.45438072377e-05
-6.91851421173e-07
4.48628245615e-05
-8.81503156208e-07
4.52687655453e-05
-1.13301321126e-06
4.57882953299e-05
-1.47375173328e-06
4.64562808395e-05
-1.94828071654e-06
4.73147508441e-05
-2.63156422414e-06
4.8402282509e-05
-3.65069506113e-06
4.9715687245e-05
-5.21286050422e-06
5.11038153453e-05
-7.61988757748e-06
-1.1173412723e-05
5.20726934067e-05
5.27606086391e-05
6.19125867434e-06
5.57402406203e-05
1.28705023119e-05
5.73124119869e-05
1.46832147631e-05
5.76111977139e-05
1.37486537811e-05
5.71338687343e-05
1.16335591427e-05
5.63199840114e-05
9.26535497052e-06
5.5449644863e-05
7.09475074959e-06
5.46637029429e-05
5.28436643602e-06
5.40144129793e-05
3.85358810017e-06
5.35068423341e-05
2.76147682501e-06
5.3124877918e-05
1.94820756834e-06
5.28455239444e-05
1.35408015248e-06
5.26458878099e-05
9.27012881606e-07
5.25060752416e-05
6.24517987014e-07
5.24099975856e-05
4.13289760026e-07
5.2345215979e-05
2.67914715003e-07
5.23024109531e-05
1.69389936774e-07
5.22747659571e-05
1.03740155789e-07
5.2257393671e-05
6.08373552981e-08
5.22468515785e-05
3.34418275596e-08
5.22407553252e-05
1.6447821546e-08
5.22374823525e-05
6.30368748422e-09
5.22359411537e-05
5.7823105961e-10
5.22354258751e-05
-2.3874560114e-09
5.22354778284e-05
-3.66935608277e-09
5.22358127213e-05
-3.97962874857e-09
5.22362600552e-05
-3.76814168467e-09
5.22367229266e-05
-3.31165426285e-09
5.22371507374e-05
-2.77318232108e-09
5.22375210939e-05
-2.24301019817e-09
5.22378279633e-05
-1.76618804232e-09
5.22380741672e-05
-1.3606249019e-09
5.22382667754e-05
-1.02879461033e-09
5.22384143467e-05
-7.65115691678e-10
5.22385253927e-05
-5.604364038e-10
5.22386076157e-05
-4.04654880922e-10
5.22386675873e-05
-2.88121949523e-10
5.22387107062e-05
-2.02304815436e-10
5.22387412918e-05
-1.40026107554e-10
5.22387626902e-05
-9.54670709075e-11
5.22387774408e-05
-6.40385348484e-11
5.22387874427e-05
-4.22012634602e-11
5.22387940877e-05
-2.72587723e-11
5.22387984019e-05
-1.72033221528e-11
5.22388011288e-05
-1.05825045786e-11
5.22388028041e-05
-6.33925065937e-12
5.22388037956e-05
-3.70126011186e-12
5.22388043512e-05
-2.11208707633e-12
5.22388046118e-05
-1.18958704436e-12
5.22388046593e-05
-6.95530999576e-13
5.22388045668e-05
-4.79710910205e-13
5.22388044062e-05
-4.39483358982e-13
5.22388042482e-05
-4.84086821217e-13
5.22388041356e-05
-5.57397080936e-13
5.22388040735e-05
-6.38469417126e-13
5.22388040458e-05
-7.19282932777e-13
5.22388040328e-05
-8.00645702192e-13
5.22388040233e-05
-8.8535488379e-13
5.22388040286e-05
-9.81418969902e-13
5.22388040748e-05
-1.09014429483e-12
5.22388041782e-05
-1.19191016411e-12
5.22388043264e-05
-1.26449406944e-12
5.22388044731e-05
-1.31989268915e-12
5.223880457e-05
-1.4048011258e-12
5.22388046151e-05
-1.54975511587e-12
5.22388046523e-05
-1.74396063951e-12
5.22388047246e-05
-1.95332779207e-12
5.22388048259e-05
-2.1457104051e-12
5.22388049372e-05
-2.30356777977e-12
5.2238805061e-05
-2.41756123722e-12
5.22388052055e-05
-2.48630981322e-12
5.2238805358e-05
-2.52395382362e-12
5.22388054939e-05
-2.56217745878e-12
5.22388056123e-05
-2.62816761138e-12
5.22388057433e-05
-2.72217442788e-12
5.2238805906e-05
-2.82053051298e-12
5.2238806083e-05
-2.9033307972e-12
5.22388062446e-05
-2.97646569459e-12
5.22388063828e-05
-3.06083542881e-12
5.22388065196e-05
-3.17697521994e-12
5.22388066682e-05
-3.34164751025e-12
5.22388068091e-05
-3.55371167607e-12
5.22388069281e-05
-3.79493249964e-12
5.22388070261e-05
-4.04765754682e-12
5.2238807111e-05
-4.3101963173e-12
5.2238807217e-05
-4.60922425649e-12
5.22388073799e-05
-4.96985401853e-12
5.22388076301e-05
-5.37682006176e-12
5.22388080007e-05
-5.8051603714e-12
5.22388084829e-05
-6.26419519038e-12
5.22388090376e-05
-6.79911810934e-12
5.22388096841e-05
-7.44314688858e-12
5.22388105144e-05
-8.19485471924e-12
5.22388115818e-05
-9.08414335542e-12
5.22388129315e-05
-1.02026458616e-11
5.22388146492e-05
-1.16169206371e-11
5.22388167957e-05
-1.33063170374e-11
5.22388194939e-05
-1.53138837617e-11
5.22388228572e-05
-1.78069578415e-11
5.22388269887e-05
-2.09291409781e-11
5.22388322001e-05
-2.48024759531e-11
5.22388388917e-05
-2.95657896774e-11
5.22388472698e-05
-3.54577641252e-11
5.22388576059e-05
-4.27689649262e-11
5.22388704906e-05
-5.18683612032e-11
5.2238886577e-05
-6.31123616166e-11
5.22389065898e-05
-7.68830389679e-11
5.22389314675e-05
-9.38327006136e-11
5.22389622472e-05
-1.14874259806e-10
5.22390002549e-05
-1.41006746207e-10
5.22390473382e-05
-1.73367744484e-10
5.22391056649e-05
-2.13386320842e-10
5.22391777808e-05
-2.62837999958e-10
5.22392669662e-05
-3.24038495835e-10
5.22393772931e-05
-3.99839526073e-10
5.22395137545e-05
-4.93650393715e-10
5.22396826949e-05
-6.09744943611e-10
5.2239891808e-05
-7.53500737227e-10
5.22401505291e-05
-9.31391534166e-10
5.22404707997e-05
-1.15157017338e-09
5.22408672684e-05
-1.42421514847e-09
5.22413579325e-05
-1.76186250153e-09
5.2241965248e-05
-2.17999673529e-09
5.22427171733e-05
-2.69791106206e-09
5.22436480472e-05
-3.33956114701e-09
5.22448003569e-05
-4.13449857955e-09
5.22462267538e-05
-5.11936972949e-09
5.22479925407e-05
-6.33934098228e-09
5.22501786262e-05
-7.85029366542e-09
5.2252885216e-05
-9.72162382205e-09
5.22562363499e-05
-1.2039533757e-08
5.22603857049e-05
-1.49108526231e-08
5.2265523882e-05
-1.84680395608e-08
5.22718868888e-05
-2.28755505125e-08
5.22797672086e-05
-2.83376783683e-08
5.22895275393e-05
-3.51084098568e-08
5.23016177287e-05
-4.35036948019e-08
5.23165957739e-05
-5.39169842873e-08
5.23351542094e-05
-6.6839045119e-08
5.23581534558e-05
-8.28833598643e-08
5.23866627952e-05
-1.02818326825e-07
5.2422012596e-05
-1.27608924946e-07
5.24658599283e-05
-1.58471465548e-07
5.25202713976e-05
-1.96945590203e-07
5.25878291097e-05
-2.44990802441e-07
5.26717654742e-05
-3.05117511421e-07
5.27761370239e-05
-3.80568422885e-07
5.29060479378e-05
-4.75575561117e-07
5.30679394217e-05
-5.95733156609e-07
5.32699609534e-05
-7.48554050864e-07
5.35224341039e-05
-9.4432507123e-07
5.38383932243e-05
-1.1974625118e-06
5.42340918844e-05
-1.52871195975e-06