/*--------------------------------*- C++ -*----------------------------------*\
| =========                 |                                                 |
| \\      /  F ield         | OpenFOAM: The Open Source CFD Toolbox           |
|  \\    /   O peration     | Version:  2106                                  |
|   \\  /    A nd           | Website:  www.openfoam.com                      |
|    \\/     M anipulation  |                                                 |
\*---------------------------------------------------------------------------*/
FoamFile
{
    version     2.0;
    format      ascii;
    arch        "LSB;label=32;scalar=64";
    class       volVectorField;
    location    "0.32";
    object      U;
}
// * * * * * * * * * * * * * * * * * * * * * * * * * * * * * * * * * * * * * //

dimensions      [0 1 -1 0 0 0 0];

internalField   nonuniform List<vector> 
9600
(
(0.675396182704 0.157677435934 0)
(0.56382615814 0.10243080597 0)
(0.381538930243 0.0510646941249 0)
(0.283853190213 0.0244589884189 0)
(0.232281027496 0.0119348224911 0)
(0.20190770689 0.00623035853654 0)
(0.183178406327 0.00352192615387 0)
(0.171271985839 0.00212007509107 0)
(0.163512239154 0.00132523645515 0)
(0.158392659224 0.000841456863281 0)
(0.155010696377 0.000534135701038 0)
(0.152789975742 0.000335039650673 0)
(0.151348686812 0.000205520917544 0)
(0.150429238862 0.000121791711337 0)
(0.14985645096 6.84338353493e-05 0)
(0.149511114465 3.5173302192e-05 0)
(0.149312504621 1.50867318315e-05 0)
(0.149206453329 3.50400916032e-06 0)
(0.149157071339 -2.70671354226e-06 0)
(0.149140960216 -5.61145127508e-06 0)
(0.149143242279 -6.52725054453e-06 0)
(0.149154638437 -6.4181451677e-06 0)
(0.149169578262 -5.78221399577e-06 0)
(0.149184951464 -4.92832024865e-06 0)
(0.149199123693 -4.04269497594e-06 0)
(0.149211373027 -3.22376949448e-06 0)
(0.149221511485 -2.51502073232e-06 0)
(0.149229639576 -1.92820481762e-06 0)
(0.149235994403 -1.45805685858e-06 0)
(0.149240860159 -1.09111397703e-06 0)
(0.149244518869 -8.10995581296e-07 0)
(0.149247225713 -6.01388936123e-07 0)
(0.149249198469 -4.47342724425e-07 0)
(0.149250615643 -3.35881825841e-07 0)
(0.149251619511 -2.56307722663e-07 0)
(0.149252320851 -1.99996782241e-07 0)
(0.149252803996 -1.60126241829e-07 0)
(0.149253131872 -1.31552870981e-07 0)
(0.149253350576 -1.10567632951e-07 0)
(0.149253493495 -9.46062596398e-08 0)
(0.149253584835 -8.21476735071e-08 0)
(0.149253642256 -7.3007821826e-08 0)
(0.149253676845 -6.92143237388e-08 0)
(0.149253695119 -6.99728770292e-08 0)
(0.149253702544 -7.30127641367e-08 0)
(0.149253703521 -7.74985950563e-08 0)
(0.149253701093 -8.36156848442e-08 0)
(0.14925369716 -9.13640074474e-08 0)
(0.149253692743 -9.99692605135e-08 0)
(0.149253688405 -1.09057778316e-07 0)
(0.149253684179 -1.18477594911e-07 0)
(0.149253679836 -1.28314699504e-07 0)
(0.14925367534 -1.38745962576e-07 0)
(0.149253670993 -1.49847246384e-07 0)
(0.149253667366 -1.61615600823e-07 0)
(0.149253664832 -1.74044238267e-07 0)
(0.149253663238 -1.87228177801e-07 0)
(0.14925366214 -2.01313226403e-07 0)
(0.149253661177 -2.16422703115e-07 0)
(0.149253660211 -2.3259567639e-07 0)
(0.149253659385 -2.49903690169e-07 0)
(0.149253658826 -2.68422153277e-07 0)
(0.149253658452 -2.88079401847e-07 0)
(0.149253658144 -3.08778909921e-07 0)
(0.149253657842 -3.30592356677e-07 0)
(0.149253657382 -3.53762170133e-07 0)
(0.149253656543 -3.78472336753e-07 0)
(0.149253655243 -4.04765158194e-07 0)
(0.149253653418 -4.32656242503e-07 0)
(0.149253650938 -4.62224454711e-07 0)
(0.149253647946 -4.9352216846e-07 0)
(0.149253645027 -5.26551061799e-07 0)
(0.149253642694 -5.61276912366e-07 0)
(0.149253640905 -5.97740501022e-07 0)
(0.149253639245 -6.36123549695e-07 0)
(0.149253637453 -6.76550610135e-07 0)
(0.149253635648 -7.18965832448e-07 0)
(0.149253633822 -7.63403480635e-07 0)
(0.149253631404 -8.1021686023e-07 0)
(0.149253627898 -8.59699455269e-07 0)
(0.149253623777 -9.11611960495e-07 0)
(0.149253620034 -9.65520283858e-07 0)
(0.149253616816 -1.02152114954e-06 0)
(0.149253613043 -1.08026706815e-06 0)
(0.149253607627 -1.14224221421e-06 0)
(0.149253600692 -1.20725953481e-06 0)
(0.149253593373 -1.27490006295e-06 0)
(0.149253586651 -1.34517434098e-06 0)
(0.149253580578 -1.41830994059e-06 0)
(0.149253574739 -1.49432491386e-06 0)
(0.149253569057 -1.57314391511e-06 0)
(0.149253563725 -1.65480335982e-06 0)
(0.149253558858 -1.73957927433e-06 0)
(0.14925355447 -1.82769204063e-06 0)
(0.149253550956 -1.9187315204e-06 0)
(0.149253549355 -2.01218209457e-06 0)
(0.149253550232 -2.10838450294e-06 0)
(0.149253552879 -2.20764357101e-06 0)
(0.149253557097 -2.30927068207e-06 0)
(0.149253564659 -2.41270803907e-06 0)
(0.149253577335 -2.51799299171e-06 0)
(0.149253595624 -2.62486812818e-06 0)
(0.149253620853 -2.73364725384e-06 0)
(0.149253655245 -2.84507778246e-06 0)
(0.149253699951 -2.95841647929e-06 0)
(0.149253756823 -3.07313605152e-06 0)
(0.149253829165 -3.19065187309e-06 0)
(0.149253919952 -3.311162557e-06 0)
(0.149254034011 -3.43447058036e-06 0)
(0.149254178151 -3.56428193566e-06 0)
(0.149254358716 -3.70765489708e-06 0)
(0.149254584101 -3.86676201374e-06 0)
(0.149254865668 -4.03688839847e-06 0)
(0.149255216012 -4.2170214623e-06 0)
(0.149255650079 -4.4072610122e-06 0)
(0.149256188078 -4.60856101884e-06 0)
(0.149256855543 -4.82190353217e-06 0)
(0.149257683341 -5.04755338321e-06 0)
(0.149258710499 -5.28750909349e-06 0)
(0.149259983742 -5.54468487852e-06 0)
(0.14926155973 -5.82030182705e-06 0)
(0.149263511098 -6.11714091297e-06 0)
(0.149265929007 -6.44204671764e-06 0)
(0.149268934327 -6.81326718822e-06 0)
(0.149272695783 -7.29294290502e-06 0)
(0.149277349324 -8.0014047108e-06 0)
(0.149283066329 -8.8704760299e-06 0)
(0.14929012886 -9.86239429751e-06 0)
(0.149298871953 -1.09766065962e-05 0)
(0.149309698871 -1.22268427643e-05 0)
(0.149323107865 -1.36319043333e-05 0)
(0.14933971646 -1.52170714652e-05 0)
(0.14936028801 -1.70144524259e-05 0)
(0.149385768409 -1.90640661366e-05 0)
(0.149417333161 -2.14169061955e-05 0)
(0.149456441269 -2.41362631186e-05 0)
(0.149504904129 -2.7302531101e-05 0)
(0.149564973686 -3.10185183205e-05 0)
(0.14963945238 -3.541290072e-05 0)
(0.149731831569 -4.06475949074e-05 0)
(0.149846466483 -4.69298111574e-05 0)
(0.149988801412 -5.45253354495e-05 0)
(0.150165656041 -6.37713794092e-05 0)
(0.150385598368 -7.50982067822e-05 0)
(0.150659433082 -8.90610505561e-05 0)
(0.151000841931 -0.000106379461382 0)
(0.151427245434 -0.000127991227476 0)
(0.15196097223 -0.000155125260956 0)
(0.152630876534 -0.000189403000399 0)
(0.153474630295 -0.000232980374678 0)
(0.154542075838 -0.000288764467645 0)
(0.155900400361 -0.000360832923729 0)
(0.157642915176 -0.000455616192934 0)
(0.159906785918 -0.000586250631548 0)
(0.162915435224 -0.000789364361792 0)
(0.16708553179 -0.00118682168455 0)
(0.173359475705 -0.00221071049946 0)
(0.184555761272 -0.00546827885724 0)
(0.209191987818 -0.0170428017399 0)
(0.263481654459 -0.0593829750914 0)
(0.977201172754 0.296997122096 0)
(0.962687462758 0.25038727104 0)
(0.820646030527 0.158581013584 0)
(0.69782489638 0.0957993458814 0)
(0.610491666662 0.0579132748755 0)
(0.549133312342 0.0359038525987 0)
(0.506705984678 0.0229309362915 0)
(0.477662021643 0.0149788785591 0)
(0.457815299608 0.00990973330909 0)
(0.444277675656 0.0065833105598 0)
(0.435087226461 0.00436198698218 0)
(0.428895553176 0.00286682657976 0)
(0.424768033285 0.00185971997771 0)
(0.422054223697 0.00118457136972 0)
(0.420301041347 0.00073611016302 0)
(0.41919366792 0.000442159060608 0)
(0.418514598331 0.000252859814386 0)
(0.41811482107 0.000133739321111 0)
(0.417893361134 6.10526359323e-05 0)
(0.417782716747 1.85776888272e-05 0)
(0.417738457236 -4.63444275484e-06 0)
(0.4177319189 -1.60102362898e-05 0)
(0.417745135223 -2.03063159084e-05 0)
(0.417767159475 -2.06087482357e-05 0)
(0.417791609476 -1.88553265141e-05 0)
(0.417815023899 -1.62208081912e-05 0)
(0.417835743318 -1.33832706834e-05 0)
(0.417853175541 -1.07055209572e-05 0)
(0.417867324434 -8.35700699664e-06 0)
(0.417878495757 -6.39328938419e-06 0)
(0.41788712027 -4.80682410372e-06 0)
(0.417893652839 -3.55887789127e-06 0)
(0.41789851845 -2.59836579026e-06 0)
(0.417902087167 -1.87242802426e-06 0)
(0.417904667137 -1.33225152919e-06 0)
(0.417906506765 -9.35703776531e-07 0)
(0.417907800732 -6.48060154349e-07 0)
(0.417908698122 -4.41837615571e-07 0)
(0.417909311008 -2.95823794635e-07 0)
(0.417909722307 -1.93762993899e-07 0)
(0.417909992517 -1.23542267643e-07 0)
(0.41791016453 -7.66647073815e-08 0)
(0.417910269415 -4.8231461561e-08 0)
(0.417910330295 -3.28954231454e-08 0)
(0.417910362464 -2.53483447742e-08 0)
(0.417910375587 -2.20554426936e-08 0)
(0.417910376893 -2.05469912837e-08 0)
(0.417910372296 -1.95077751993e-08 0)
(0.41791036513 -1.9046067287e-08 0)
(0.417910356745 -1.95263309672e-08 0)
(0.417910347634 -2.06842279823e-08 0)
(0.417910337755 -2.23285487247e-08 0)
(0.417910327338 -2.44158094894e-08 0)
(0.417910316972 -2.67464381057e-08 0)
(0.417910307344 -2.91760738419e-08 0)
(0.417910298733 -3.15761505273e-08 0)
(0.417910290822 -3.40371336811e-08 0)
(0.417910283095 -3.66159993617e-08 0)
(0.417910275233 -3.93683328387e-08 0)
(0.417910267107 -4.23159596385e-08 0)
(0.417910258802 -4.54856383132e-08 0)
(0.417910250544 -4.8820030687e-08 0)
(0.417910242394 -5.21027207671e-08 0)
(0.417910234121 -5.51837660374e-08 0)
(0.417910225365 -5.81862602137e-08 0)
(0.417910215837 -6.15496058847e-08 0)
(0.417910205451 -6.54851185965e-08 0)
(0.417910194234 -6.99065958416e-08 0)
(0.417910182087 -7.47349017197e-08 0)
(0.417910168841 -7.9853616287e-08 0)
(0.417910154685 -8.50771602659e-08 0)
(0.417910140262 -9.0248455468e-08 0)
(0.417910126049 -9.52963402939e-08 0)
(0.417910111827 -1.00308315421e-07 0)
(0.41791009714 -1.05508858282e-07 0)
(0.417910081972 -1.10957229828e-07 0)
(0.417910066538 -1.16542436783e-07 0)
(0.417910050497 -1.22410696913e-07 0)
(0.41791003305 -1.28929123287e-07 0)
(0.417910014173 -1.360615901e-07 0)
(0.417909994978 -1.43217809631e-07 0)
(0.417909976265 -1.50021884344e-07 0)
(0.417909957316 -1.56952519142e-07 0)
(0.417909936689 -1.64902342533e-07 0)
(0.41790991398 -1.74212663941e-07 0)
(0.417909890187 -1.84332342071e-07 0)
(0.417909866438 -1.94591630642e-07 0)
(0.417909843275 -2.05089551028e-07 0)
(0.417909820852 -2.16245197778e-07 0)
(0.417909799104 -2.27990241824e-07 0)
(0.417909778046 -2.40047766701e-07 0)
(0.417909757867 -2.52491773796e-07 0)
(0.417909738835 -2.65889815518e-07 0)
(0.417909721762 -2.8066928687e-07 0)
(0.41790970812 -2.96289925051e-07 0)
(0.417909698876 -3.12156133612e-07 0)
(0.417909694316 -3.29274570056e-07 0)
(0.417909695227 -3.48849940435e-07 0)
(0.417909703029 -3.70576588406e-07 0)
(0.41790971986 -3.95324458203e-07 0)
(0.417909748806 -4.25409488123e-07 0)
(0.417909792128 -4.60136295174e-07 0)
(0.41790985216 -4.98827259699e-07 0)
(0.417909934417 -5.4264333851e-07 0)
(0.417910044524 -5.91877668211e-07 0)
(0.417910186243 -6.46441065354e-07 0)
(0.417910366754 -7.08682822668e-07 0)
(0.417910596528 -7.79150958061e-07 0)
(0.417910884682 -8.55593801153e-07 0)
(0.417911240459 -9.37136250512e-07 0)
(0.417911682861 -1.01946168105e-06 0)
(0.417912244459 -1.10081058009e-06 0)
(0.417912955888 -1.19120675389e-06 0)
(0.417913846828 -1.29744486838e-06 0)
(0.417914956696 -1.42450279675e-06 0)
(0.417916336835 -1.57856210311e-06 0)
(0.417918053261 -1.76690489125e-06 0)
(0.417920185485 -1.99717532824e-06 0)
(0.417922831145 -2.28149535311e-06 0)
(0.41792611317 -2.63568044558e-06 0)
(0.417930181934 -3.07570211471e-06 0)
(0.41793522177 -3.62245285155e-06 0)
(0.417941459568 -4.30628677783e-06 0)
(0.417949164001 -5.17033085747e-06 0)
(0.417958661046 -6.29501976803e-06 0)
(0.417970435985 -7.82219438233e-06 0)
(0.417985092606 -9.77421319891e-06 0)
(0.418003287553 -1.22072391872e-05 0)
(0.418025844518 -1.52221634943e-05 0)
(0.418053799555 -1.89524782773e-05 0)
(0.41808844012 -2.35635123429e-05 0)
(0.418131360682 -2.92620220975e-05 0)
(0.418184537237 -3.63054950286e-05 0)
(0.418250419257 -4.50112789139e-05 0)
(0.418332047317 -5.57724808113e-05 0)
(0.418433195184 -6.90772550069e-05 0)
(0.418558547233 -8.55338735849e-05 0)
(0.418713927309 -0.000105901616641 0)
(0.418906583162 -0.000131128498895 0)
(0.419145540265 -0.000162402744661 0)
(0.419442053981 -0.000201221005553 0)
(0.419810194321 -0.000249477701055 0)
(0.420267588508 -0.000309576096637 0)
(0.420836378105 -0.000384582099728 0)
(0.421544480019 -0.000478441370022 0)
(0.422427253984 -0.000596274531571 0)
(0.423529747242 -0.000744798758187 0)
(0.424909773581 -0.000932943084135 0)
(0.426642240763 -0.00117278041099 0)
(0.428825436089 -0.00148101567611 0)
(0.431590551002 -0.00188153598512 0)
(0.435116907597 -0.00241022580711 0)
(0.439657870007 -0.00312521123351 0)
(0.445588669665 -0.00413158717274 0)
(0.453501008169 -0.00564715872374 0)
(0.464384274623 -0.00818381723498 0)
(0.479967289841 -0.0130499136159 0)
(0.503589792986 -0.0237973804065 0)
(0.541741518175 -0.0503209492456 0)
(0.598539829201 -0.116422002033 0)
(1.03387038785 0.239240962484 0)
(1.08314081777 0.293634380246 0)
(1.03294437408 0.239131935989 0)
(0.954408206772 0.17453901884 0)
(0.880112583803 0.121551461487 0)
(0.818677613008 0.08323359419 0)
(0.771466789292 0.0568258136593 0)
(0.736691571708 0.0388125727969 0)
(0.711672098004 0.0264913185594 0)
(0.693953124093 0.0180235773238 0)
(0.681568196783 0.0121876192483 0)
(0.673018593684 0.0081665017796 0)
(0.66719222293 0.00540556429574 0)
(0.663277739851 0.00352226124404 0)
(0.660690301514 0.00224961110035 0)
(0.659012726149 0.00140002802217 0)
(0.657950517513 0.000841456611887 0)
(0.657298062203 0.000481124343379 0)
(0.656913516241 0.000254195919913 0)
(0.656700323623 0.000115712457536 0)
(0.656593714061 3.47980224543e-05 0)
(0.656550999684 -9.46321798735e-06 0)
(0.656544656899 -3.10070730677e-05 0)
(0.656557354981 -3.90706599983e-05 0)
(0.656578538294 -3.95432698155e-05 0)
(0.656602061531 -3.61161248432e-05 0)
(0.656624591196 -3.10270857845e-05 0)
(0.656644528822 -2.55658925644e-05 0)
(0.656661303361 -2.04214187375e-05 0)
(0.656674917909 -1.59141208132e-05 0)
(0.656685666664 -1.21474370064e-05 0)
(0.656693964605 -9.10512472695e-06 0)
(0.656700249748 -6.71198822859e-06 0)
(0.656704930946 -4.86967561555e-06 0)
(0.656708364331 -3.47709438512e-06 0)
(0.656710846396 -2.4414658439e-06 0)
(0.656712615571 -1.68306717083e-06 0)
(0.656713858559 -1.13626440032e-06 0)
(0.656714718809 -7.48447819412e-07 0)
(0.656715304631 -4.78136773084e-07 0)
(0.656715696493 -2.93289535221e-07 0)
(0.656715953056 -1.69656889615e-07 0)
(0.656716116351 -8.85081615975e-08 0)
(0.656716216336 -3.67354040616e-08 0)
(0.656716274158 -5.08872376572e-09 0)
(0.656716304818 1.34158358584e-08 0)
(0.656716318507 2.40811280074e-08 0)
(0.656716321113 3.03011285912e-08 0)
(0.656716316223 3.38578709379e-08 0)
(0.656716307265 3.65706001643e-08 0)
(0.656716296385 3.89676154392e-08 0)
(0.656716284218 4.13540580663e-08 0)
(0.656716271359 4.3994116794e-08 0)
(0.656716258525 4.72160903504e-08 0)
(0.656716246377 5.12200907185e-08 0)
(0.656716235146 5.57110242195e-08 0)
(0.656716224527 6.04135497324e-08 0)
(0.656716214064 6.5191419653e-08 0)
(0.656716203378 7.00110029834e-08 0)
(0.656716192317 7.4996635677e-08 0)
(0.656716181039 8.03615624042e-08 0)
(0.656716169834 8.63011671203e-08 0)
(0.656716158696 9.30208943925e-08 0)
(0.656716147238 1.00575916935e-07 0)
(0.65671613488 1.08508397072e-07 0)
(0.656716121322 1.16324802266e-07 0)
(0.656716106725 1.23949112619e-07 0)
(0.656716091211 1.31700748288e-07 0)
(0.656716074723 1.39931344577e-07 0)
(0.656716057219 1.48981731173e-07 0)
(0.656716038855 1.59204016369e-07 0)
(0.656716020069 1.70810405014e-07 0)
(0.656716001149 1.83648358109e-07 0)
(0.656715981833 1.97298607042e-07 0)
(0.65671596178 2.11474916165e-07 0)
(0.656715941081 2.26280186175e-07 0)
(0.656715919856 2.41841638858e-07 0)
(0.656715897705 2.57987327368e-07 0)
(0.656715874146 2.74726609138e-07 0)
(0.656715849444 2.925572082e-07 0)
(0.656715824414 3.11832701901e-07 0)
(0.656715799275 3.32169599573e-07 0)
(0.656715773179 3.52805073259e-07 0)
(0.656715745157 3.73466450669e-07 0)
(0.656715715319 3.94583544843e-07 0)
(0.656715684776 4.16734430097e-07 0)
(0.656715654404 4.40214217633e-07 0)
(0.656715624462 4.64923498477e-07 0)
(0.656715595273 4.90636039272e-07 0)
(0.656715567258 5.17532545666e-07 0)
(0.656715540492 5.45974284016e-07 0)
(0.656715514819 5.75843959958e-07 0)
(0.656715490627 6.06710362228e-07 0)
(0.656715469385 6.38547615437e-07 0)
(0.656715452931 6.71593851537e-07 0)
(0.656715441978 7.0563899084e-07 0)
(0.656715436606 7.39958292414e-07 0)
(0.656715438174 7.74210326703e-07 0)
(0.656715448259 8.09413769148e-07 0)
(0.656715468496 8.46620718277e-07 0)
(0.656715504431 8.85423315953e-07 0)
(0.656715562169 9.23387234228e-07 0)
(0.656715645198 9.59896143189e-07 0)
(0.656715759105 9.93972909834e-07 0)
(0.656715911625 1.02305975012e-06 0)
(0.656716109859 1.04489455527e-06 0)
(0.656716364513 1.0574822464e-06 0)
(0.656716692414 1.05845354156e-06 0)
(0.656717112326 1.04585130503e-06 0)
(0.656717647682 1.01771702353e-06 0)
(0.656718325077 9.74526633381e-07 0)
(0.656719167125 9.126701799e-07 0)
(0.656720207925 8.17608213044e-07 0)
(0.656721500161 6.76715251338e-07 0)
(0.656723104974 4.76192104199e-07 0)
(0.656725097055 1.99257199104e-07 0)
(0.656727570201 -1.75531074608e-07 0)
(0.656730637822 -6.74275574888e-07 0)
(0.65673443911 -1.32937828042e-06 0)
(0.656739149566 -2.18226589817e-06 0)
(0.656744985738 -3.2829771438e-06 0)
(0.656752213247 -4.6932825433e-06 0)
(0.656761163435 -6.49227444731e-06 0)
(0.65677224853 -8.777010137e-06 0)
(0.656785971067 -1.16554476581e-05 0)
(0.656802957997 -1.52514076741e-05 0)
(0.656823989613 -1.97821693202e-05 0)
(0.656850025756 -2.54973891846e-05 0)
(0.656882262542 -3.26932364818e-05 0)
(0.656922185007 -4.17343653161e-05 0)
(0.656971630358 -5.30742401023e-05 0)
(0.657032871001 -6.72766770668e-05 0)
(0.657108723405 -8.50424265896e-05 0)
(0.657202680914 -0.000107238544576 0)
(0.65731907733 -0.000134940300216 0)
(0.65746328892 -0.000169485602824 0)
(0.657641989085 -0.000212538800182 0)
(0.657863470939 -0.00026617335843 0)
(0.658138048206 -0.000332980499445 0)
(0.658478557144 -0.00041620739074 0)
(0.658900993337 -0.000519932223338 0)
(0.659425330269 -0.000649299635748 0)
(0.660076561468 -0.000810831667936 0)
(0.660886034741 -0.00101284228785 0)
(0.661893198201 -0.00126600929902 0)
(0.66314790062 -0.00158416963759 0)
(0.664713464863 -0.00198545785641 0)
(0.666670870281 -0.00249398154038 0)
(0.669124569177 -0.00314238164111 0)
(0.672210805317 -0.00397593675459 0)
(0.676109918231 -0.00505953152918 0)
(0.681065239903 -0.00649033304172 0)
(0.687413095278 -0.00842258027594 0)
(0.695631941394 -0.0111193353537 0)
(0.706423791054 -0.0150664523142 0)
(0.720834286205 -0.0212286727162 0)
(0.740372921095 -0.0316037170169 0)
(0.76708605883 -0.0503483917027 0)
(0.803087532706 -0.0858850337055 0)
(0.844624135196 -0.152300495674 0)
(1.03384128398 0.171306947535 0)
(1.10231585002 0.275556745054 0)
(1.1166362067 0.266312374103 0)
(1.09207924508 0.219892604749 0)
(1.0519541982 0.168210315215 0)
(1.01022221329 0.123615336213 0)
(0.973507714869 0.0888850615846 0)
(0.943885945545 0.0630494623819 0)
(0.921162798144 0.0442607981766 0)
(0.904299819855 0.0307744350288 0)
(0.892086132329 0.0211830144197 0)
(0.883411230643 0.0144172970197 0)
(0.877355059043 0.00968544099496 0)
(0.873196213039 0.00640758687332 0)
(0.870388061741 0.00416172400683 0)
(0.868526255853 0.00264232287085 0)
(0.867317297773 0.00162947866354 0)
(0.866551583152 0.000966026371731 0)
(0.866081654259 0.000540573925272 0)
(0.865805295509 0.000274927393755 0)
(0.865652720004 0.000114791730622 0)
(0.86557708704 2.29566217739e-05 0)
(0.865547474311 -2.5724508802e-05 0)
(0.865543936673 -4.8044826535e-05 0)
(0.865553984148 -5.49251880162e-05 0)
(0.865569987204 -5.33270236205e-05 0)
(0.865587524589 -4.75742843151e-05 0)
(0.865604214532 -4.02470942603e-05 0)
(0.865618927205 -3.27999928532e-05 0)
(0.865631272376 -2.5982333063e-05 0)
(0.865641271506 -2.01159865457e-05 0)
(0.86564915293 -1.52759168414e-05 0)
(0.865655228976 -1.14051157763e-05 0)
(0.865659825612 -8.38484585162e-06 0)
(0.865663245299 -6.07596122999e-06 0)
(0.865665750574 -4.34206878135e-06 0)
(0.865667559221 -3.0609194209e-06 0)
(0.865668846088 -2.12861172652e-06 0)
(0.865669748411 -1.46001566516e-06 0)
(0.865670371616 -9.87317433765e-07 0)
(0.865670794898 -6.57948576173e-07 0)
(0.865671076668 -4.32203645789e-07 0)
(0.865671259338 -2.80357741947e-07 0)
(0.865671373503 -1.80545887005e-07 0)
(0.865671441106 -1.16721190342e-07 0)
(0.865671477644 -7.73223579304e-08 0)
(0.865671494053 -5.44752945157e-08 0)
(0.865671498161 -4.26339839004e-08 0)
(0.865671495476 -3.72602245286e-08 0)
(0.865671488697 -3.52908813822e-08 0)
(0.865671478664 -3.58595961605e-08 0)
(0.865671466208 -3.83829625342e-08 0)
(0.865671452303 -4.21685512522e-08 0)
(0.865671437947 -4.6499774133e-08 0)
(0.86567142358 -5.08251010472e-08 0)
(0.865671409251 -5.51003900941e-08 0)
(0.86567139487 -5.95241613996e-08 0)
(0.865671380159 -6.43718527814e-08 0)
(0.865671365025 -6.98115039212e-08 0)
(0.86567134956 -7.57420286963e-08 0)
(0.865671333895 -8.17995464488e-08 0)
(0.865671318237 -8.76504631262e-08 0)
(0.865671302537 -9.32908213108e-08 0)
(0.865671286012 -9.91448708237e-08 0)
(0.865671267794 -1.05917533217e-07 0)
(0.865671247862 -1.1391321183e-07 0)
(0.8656712268 -1.22953519019e-07 0)
(0.865671204984 -1.32553904876e-07 0)
(0.865671182294 -1.42296794895e-07 0)
(0.865671158564 -1.51931736069e-07 0)
(0.865671133868 -1.61168651747e-07 0)
(0.865671108387 -1.69830203065e-07 0)
(0.865671082069 -1.78241401141e-07 0)
(0.865671054625 -1.87062268899e-07 0)
(0.865671026032 -1.96673509981e-07 0)
(0.865670996643 -2.06991055771e-07 0)
(0.865670966526 -2.17900676647e-07 0)
(0.865670935239 -2.29484195205e-07 0)
(0.865670902467 -2.41758977621e-07 0)
(0.865670868467 -2.54608209281e-07 0)
(0.865670833661 -2.68121525606e-07 0)
(0.865670797936 -2.82780837027e-07 0)
(0.865670760676 -2.99064100607e-07 0)
(0.865670721479 -3.16814680124e-07 0)
(0.865670680703 -3.35483815116e-07 0)
(0.865670639324 -3.55010260841e-07 0)
(0.865670598119 -3.75794108665e-07 0)
(0.865670557327 -3.9807209846e-07 0)
(0.865670517356 -4.21753429019e-07 0)
(0.86567047883 -4.46632178852e-07 0)
(0.865670441785 -4.72886413953e-07 0)
(0.865670405953 -5.01191646545e-07 0)
(0.865670372091 -5.31922943404e-07 0)
(0.865670342049 -5.65005970918e-07 0)
(0.865670317468 -6.01156688326e-07 0)
(0.865670299152 -6.41672561033e-07 0)
(0.865670288134 -6.8687279597e-07 0)
(0.865670287255 -7.36908258508e-07 0)
(0.865670300122 -7.92094089071e-07 0)
(0.865670329411 -8.5218715105e-07 0)
(0.865670377121 -9.17711300558e-07 0)
(0.865670447404 -9.91704344513e-07 0)
(0.865670546639 -1.07525457204e-06 0)
(0.865670681794 -1.17015686612e-06 0)
(0.865670861272 -1.28110473083e-06 0)
(0.86567109451 -1.41176499947e-06 0)
(0.865671394531 -1.5642217371e-06 0)
(0.865671778997 -1.74340724426e-06 0)
(0.865672266872 -1.95754223455e-06 0)
(0.865672880498 -2.21787669964e-06 0)
(0.865673650873 -2.54188572515e-06 0)
(0.865674616466 -2.94561698248e-06 0)
(0.86567582307 -3.43940050636e-06 0)
(0.865677327151 -4.04218062876e-06 0)
(0.865679197964 -4.77939130701e-06 0)
(0.865681521691 -5.68217688247e-06 0)
(0.865684406881 -6.79082782164e-06 0)
(0.865687986814 -8.1546981061e-06 0)
(0.865692424434 -9.8331746828e-06 0)
(0.865697923919 -1.19016102357e-05 0)
(0.86570473855 -1.44532956852e-05 0)
(0.86571317885 -1.76033792862e-05 0)
(0.865723630339 -2.14965162607e-05 0)
(0.865736574454 -2.63158727637e-05 0)
(0.865752604072 -3.2289904041e-05 0)
(0.865772451344 -3.96945279106e-05 0)
(0.865797023514 -4.88709223336e-05 0)
(0.865827442811 -6.0233375897e-05 0)
(0.865865102891 -7.42964150484e-05 0)
(0.865911732445 -9.17032890964e-05 0)
(0.865969471454 -0.000113257417768 0)
(0.866040968232 -0.000139958225005 0)
(0.866129506063 -0.000173046342148 0)
(0.866239156358 -0.000214060886169 0)
(0.866374966589 -0.000264915679348 0)
(0.866543196712 -0.000327993407482 0)
(0.866751614613 -0.00040625964836 0)
(0.867009865526 -0.000503411454559 0)
(0.867329933033 -0.000624069609038 0)
(0.867726718495 -0.000774023193491 0)
(0.868218769038 -0.000960538536052 0)
(0.868829202763 -0.00119276868675 0)
(0.869586885499 -0.00148229924048 0)
(0.870527927819 -0.00184387183045 0)
(0.871697619784 -0.00229636882338 0)
(0.873152948627 -0.00286417780291 0)
(0.87496591072 -0.00357912850159 0)
(0.877227926136 -0.00448331737659 0)
(0.880055813 -0.00563336834271 0)
(0.883600020462 -0.00710711522222 0)
(0.88805616688 -0.00901457407454 0)
(0.893681400805 -0.011516909815 0)
(0.900817492601 -0.0148608568078 0)
(0.909922220479 -0.0194436647043 0)
(0.921607064991 -0.0259386581643 0)
(0.936659852964 -0.0355368631938 0)
(0.955967763826 -0.0503783832225 0)
(0.980175629604 -0.0741896507322 0)
(1.00864089176 -0.112880660964 0)
(1.03550932174 -0.173332017752 0)
(1.02388346107 0.119321986239 0)
(1.0887543651 0.23151442262 0)
(1.13660483179 0.252868940455 0)
(1.15406272545 0.228905050335 0)
(1.15000112409 0.188337385888 0)
(1.1353762375 0.146577291299 0)
(1.11757777347 0.110164822103 0)
(1.10059199415 0.0808376069642 0)
(1.0861224093 0.0582502000846 0)
(1.07458761318 0.0413417852586 0)
(1.06578679004 0.0289362816623 0)
(1.05928156 0.0199770180155 0)
(1.05459132075 0.0135949285249 0)
(1.051280263 0.0091074266231 0)
(1.04898735676 0.00599313322846 0)
(1.04742904655 0.00386144238791 0)
(1.04639045216 0.00242413814176 0)
(1.04571298255 0.00147134961186 0)
(1.04528204906 0.00085213725993 0)
(1.04501636562 0.000459264127421 0)
(1.0448592423 0.000217490386068 0)
(1.04477181266 7.47191817108e-05 0)
(1.04472783183 -4.64454885688e-06 0)
(1.04470996592 -4.44442887229e-05 0)
(1.04470703959 -6.05347130481e-05 0)
(1.04471196232 -6.30923582777e-05 0)
(1.04472040291 -5.85432499146e-05 0)
(1.04472984456 -5.0810795451e-05 0)
(1.04473891862 -4.21798463735e-05 0)
(1.04474696432 -3.38928828143e-05 0)
(1.0447537419 -2.65485658684e-05 0)
(1.04475924732 -2.03631550607e-05 0)
(1.04476359651 -1.53388779389e-05 0)
(1.04476695567 -1.1369215374e-05 0)
(1.04476950081 -8.3023173317e-06 0)
(1.04477139657 -5.97758449526e-06 0)
(1.04477278658 -4.24487826475e-06 0)
(1.04477379046 -2.97311132732e-06 0)
(1.04477450485 -2.0529900034e-06 0)
(1.04477500574 -1.39645439409e-06 0)
(1.04477535124 -9.34509739321e-07 0)
(1.04477558501 -6.14214000663e-07 0)
(1.04477573936 -3.95380235651e-07 0)
(1.04477583794 -2.48046509624e-07 0)
(1.04477589801 -1.50351926447e-07 0)
(1.04477593205 -8.65839861925e-08 0)
(1.04477594883 -4.56739969257e-08 0)
(1.04477595429 -2.00041925939e-08 0)
(1.04477595221 -4.57733607975e-09 0)
(1.04477594469 3.68439106342e-09 0)
(1.0447759331 7.4201863249e-09 0)
(1.04477591885 8.75341519833e-09 0)
(1.04477590331 9.04485572603e-09 0)
(1.04477588757 9.09426361795e-09 0)
(1.04477587206 9.20685746523e-09 0)
(1.0447758566 9.59601635872e-09 0)
(1.04477584082 1.01612550465e-08 0)
(1.04477582436 1.07457848555e-08 0)
(1.04477580718 1.12187661833e-08 0)
(1.04477578964 1.15777817536e-08 0)
(1.04477577209 1.2178844956e-08 0)
(1.04477575455 1.3458821102e-08 0)
(1.04477573641 1.52796893373e-08 0)
(1.04477571668 1.68942701528e-08 0)
(1.04477569486 1.77563127236e-08 0)
(1.04477567132 1.79025638196e-08 0)
(1.0447756469 1.78170794412e-08 0)
(1.04477562193 1.80723341799e-08 0)
(1.04477559612 1.90095522309e-08 0)
(1.04477556929 2.0780323145e-08 0)
(1.04477554153 2.35246827347e-08 0)
(1.04477551276 2.72230613748e-08 0)
(1.04477548259 3.14715688468e-08 0)
(1.04477545073 3.57522357983e-08 0)
(1.04477541746 3.98854388621e-08 0)
(1.04477538329 4.40768913699e-08 0)
(1.04477534824 4.86010342862e-08 0)
(1.0447753118 5.35007032671e-08 0)
(1.04477527358 5.85849270843e-08 0)
(1.04477523374 6.36277603372e-08 0)
(1.04477519267 6.84216961346e-08 0)
(1.04477515029 7.28070523059e-08 0)
(1.04477510625 7.68504597669e-08 0)
(1.04477506044 8.09299690617e-08 0)
(1.04477501302 8.53338916209e-08 0)
(1.04477496438 8.97887316863e-08 0)
(1.04477491529 9.38072128662e-08 0)
(1.04477486647 9.73975725644e-08 0)
(1.04477481856 1.01031543633e-07 0)
(1.04477477185 1.04858997905e-07 0)
(1.04477472601 1.08244969751e-07 0)
(1.04477468083 1.10494097693e-07 0)
(1.04477463748 1.11557388664e-07 0)
(1.0447745976 1.11191249396e-07 0)
(1.04477456215 1.08063535295e-07 0)
(1.04477453245 1.00932555969e-07 0)
(1.04477451022 8.98609654459e-08 0)
(1.04477449729 7.40066535448e-08 0)
(1.04477449609 5.07053803449e-08 0)
(1.04477450926 1.70091271979e-08 0)
(1.04477454073 -3.03402658392e-08 0)
(1.04477459735 -9.33874314279e-08 0)
(1.04477468579 -1.74155308366e-07 0)
(1.04477481092 -2.76534868861e-07 0)
(1.04477498111 -4.07255922865e-07 0)
(1.04477520901 -5.7165029953e-07 0)
(1.04477550858 -7.74097376435e-07 0)
(1.04477589618 -1.02335084247e-06 0)
(1.04477639156 -1.3318081867e-06 0)
(1.04477701858 -1.71261537928e-06 0)
(1.04477780867 -2.18149620131e-06 0)
(1.04477880161 -2.75813540788e-06 0)
(1.04478004433 -3.46712287898e-06 0)
(1.04478159441 -4.34140149126e-06 0)
(1.04478352476 -5.42080840616e-06 0)
(1.0447859255 -6.75232959755e-06 0)
(1.04478890867 -8.39519507762e-06 0)
(1.04479261325 -1.04231772498e-05 0)
(1.04479720894 -1.29251300172e-05 0)
(1.04480290688 -1.60122538271e-05 0)
(1.04480997006 -1.98241631345e-05 0)
(1.04481872164 -2.45334123522e-05 0)
(1.04482956162 -3.03536652033e-05 0)
(1.04484298827 -3.75520587016e-05 0)
(1.04485961777 -4.64610912951e-05 0)
(1.04488020965 -5.74900834701e-05 0)
(1.04490570393 -7.11459568959e-05 0)
(1.04493726634 -8.80512928526e-05 0)
(1.04497634229 -0.000108975839967 0)
(1.04502472181 -0.000134876186152 0)
(1.0450846213 -0.000166942098529 0)
(1.04515878554 -0.000206649316031 0)
(1.04525061697 -0.00025582773345 0)
(1.04536433165 -0.000316748928262 0)
(1.04550515234 -0.000392236021202 0)
(1.04567955366 -0.000485800711394 0)
(1.04589556496 -0.000601812817918 0)
(1.04616314495 -0.000745716954707 0)
(1.04649464965 -0.000924310215713 0)
(1.04690542173 -0.00114609762537 0)
(1.04741452459 -0.00142174225324 0)
(1.04804566112 -0.00176465230502 0)
(1.04882833539 -0.00219175777835 0)
(1.04979931647 -0.00272453543592 0)
(1.05100449738 -0.00339039099397 0)
(1.05250126565 -0.0042245516964 0)