/*--------------------------------*- C++ -*----------------------------------*\
| =========                 |                                                 |
| \\      /  F ield         | OpenFOAM: The Open Source CFD Toolbox           |
|  \\    /   O peration     | Version:  2106                                  |
|   \\  /    A nd           | Website:  www.openfoam.com                      |
|    \\/     M anipulation  |                                                 |
\*---------------------------------------------------------------------------*/
FoamFile
{
    version     2.0;
    format      ascii;
    arch        "LSB;label=32;scalar=64";
    class       surfaceScalarField;
    location    "0.345";
    object      phi;
}
// * * * * * * * * * * * * * * * * * * * * * * * * * * * * * * * * * * * * * //

dimensions      [0 3 -1 0 0 0 0];

oriented        oriented;

internalField   nonuniform List<scalar> 
22100
(
3.38461206485e-05
1.61538793484e-05
2.24572109547e-05
1.13889101854e-05
1.62585546991e-05
6.19865665004e-06
1.27977782996e-05
3.46077677646e-06
1.08046449571e-05
1.99313369132e-06
9.60459243237e-06
1.2000528534e-06
8.85132513357e-06
7.53267593748e-07
8.36435674921e-06
4.86968652895e-07
8.04433927492e-06
3.20017720273e-07
7.83284486589e-06
2.11494635788e-07
7.69340207806e-06
1.3944300688e-07
7.60224555601e-06
9.11567327333e-08
7.54348312958e-06
5.87626339536e-08
7.50634656322e-06
3.71367774428e-08
7.48350739665e-06
2.28393846725e-08
7.4699869096e-06
1.35207120599e-08
7.46242261574e-06
7.5645223334e-09
7.45855490747e-06
3.86793068542e-09
7.45683621539e-06
1.71890384843e-09
7.45642988379e-06
4.0653897849e-10
7.45677999871e-06
-3.49892089078e-10
7.4574664455e-06
-6.86237955461e-10
7.45822503207e-06
-7.58396274188e-10
7.45895056004e-06
-7.25357484096e-10
7.45959507656e-06
-6.44367887414e-10
7.46013920542e-06
-5.44000742573e-10
7.46058150973e-06
-4.42194959031e-10
7.46093045343e-06
-3.48849998843e-10
7.46119895276e-06
-2.68415600421e-10
7.46140110561e-06
-2.02071977718e-10
7.46155029487e-06
-1.49109233111e-10
7.46165821481e-06
-1.07837751138e-10
7.46173460324e-06
-7.62881780727e-11
7.46178756917e-06
-5.28377807261e-11
7.46182110553e-06
-3.33748658384e-11
7.46184016768e-06
-1.8905218078e-11
7.46184948592e-06
-9.17160492162e-12
7.46185252011e-06
-2.88863544121e-12
7.46185119342e-06
1.44719209459e-12
7.46184663586e-06
4.64857157895e-12
7.46183978802e-06
6.91397233837e-12
7.4618312517e-06
8.56817041072e-12
7.46182139674e-06
9.849786726e-12
7.46181040326e-06
1.09568640919e-11
7.46179828398e-06
1.2060462109e-11
7.46178493076e-06
1.32771462608e-11
7.461770123e-06
1.47109367802e-11
7.46175355782e-06
1.64573122444e-11
7.46173482658e-06
1.86156614504e-11
7.46171339756e-06
2.13085010409e-11
7.46168866915e-06
2.46043937588e-11
7.46165995118e-06
2.85958139754e-11
7.46162645116e-06
3.33812175717e-11
7.46158731769e-06
3.90262135148e-11
7.46154167445e-06
4.55426000758e-11
7.46148868718e-06
5.28865377489e-11
7.4614276927e-06
6.08909876748e-11
7.46135858686e-06
6.90132316271e-11
7.46128208573e-06
7.64240704239e-11
7.46120063139e-06
8.1371413837e-11
7.46112063173e-06
7.99325481746e-11
7.46105414482e-06
6.63896441079e-11
7.46100879692e-06
4.5244994364e-11
7.46100397176e-06
4.75298961311e-12
7.46107558651e-06
-7.16651343695e-11
7.46128196032e-06
-2.06390033341e-10
7.46171749018e-06
-4.35604501509e-10
7.46253225212e-06
-8.14835773069e-10
7.46396146959e-06
-1.42930374875e-09
7.46636053442e-06
-2.39919759931e-09
7.47017877989e-06
-3.81838870086e-09
7.4766272864e-06
-6.44864051928e-09
7.48739726007e-06
-1.07700746311e-08
7.50557071724e-06
-1.81735836048e-08
7.53875395672e-06
-3.3183400437e-08
7.60796529005e-06
-6.92115228696e-08
7.7746212295e-06
-1.66656149933e-07
8.22951918929e-06
-4.54898208883e-07
9.69711078543e-06
-1.4675918495e-06
-5.45128028526e-06
1.5148390966e-05
5.02175952332e-05
1.59362845946e-05
4.42441127589e-05
1.73623934603e-05
3.77795032659e-05
1.26632668107e-05
3.2646146376e-05
8.59413429747e-06
2.89380947923e-05
5.70118584743e-06
2.63596248873e-05
3.77852329056e-06
2.45875209321e-05
2.52537203365e-06
2.33734793004e-05
1.70101072799e-06
2.25435306636e-05
1.14996677318e-06
2.1978222381e-05
7.76803309696e-07
2.15955202591e-05
5.22145512354e-07
2.13387441065e-05
3.47933269152e-07
2.11685030025e-05
2.29004126146e-07
2.10573458177e-05
1.48294357229e-07
2.09861583349e-05
9.40272702717e-08
2.09416863926e-05
5.79930655285e-08
2.09148050165e-05
3.4446321309e-08
2.08993063626e-05
1.93670318718e-08
2.08910830419e-05
9.94265691404e-09
2.08872831565e-05
4.20681202895e-09
2.08862145662e-05
7.19062913057e-10
2.08864606048e-05
-9.31944144991e-10
2.08873323413e-05
-1.62983756184e-09
2.08884721134e-05
-1.864871405e-09
2.08896456881e-05
-1.81772207378e-09
2.0890728903e-05
-1.6270284679e-09
2.08916667072e-05
-1.37983625052e-09
2.08924444364e-05
-1.12642953117e-09
2.08930698608e-05
-8.93692342306e-10
2.08935622065e-05
-6.94251391264e-10
2.08939462632e-05
-5.32961326367e-10
2.08942480406e-05
-4.09373451078e-10
2.0894459279e-05
-2.87270760943e-10
2.08946065865e-05
-1.99897801212e-10
2.08947072332e-05
-1.33734209565e-10
2.08947728637e-05
-8.42642863444e-11
2.08948136627e-05
-4.97217051644e-11
2.08948377766e-05
-2.67857883178e-11
2.08948500144e-05
-1.06160625297e-11
2.08948533049e-05
1.4742310572e-12
2.08948500659e-05
1.02114330021e-11
2.0894841965e-05
1.66752734446e-11
2.08948301459e-05
2.16278242089e-11
2.08948153319e-05
2.56822602568e-11
2.08947979009e-05
2.93586051293e-11
2.08947780062e-05
3.30158181431e-11
2.08947556354e-05
3.69017294992e-11
2.08947306744e-05
4.12200512861e-11
2.08947029347e-05
4.61465130202e-11
2.0894672151e-05
5.18780792463e-11
2.0894638108e-05
5.84320727057e-11
2.0894600671e-05
6.58235224239e-11
2.08945598539e-05
7.39897888735e-11
2.08945159746e-05
8.27020196804e-11
2.08944699015e-05
9.14244269448e-11
2.0894423433e-05
9.91798786688e-11
2.08943798927e-05
1.04253634154e-10
2.08943452804e-05
1.03438556022e-10
2.08943290671e-05
9.2464015489e-11
2.08943465608e-05
6.36960889174e-11
2.08944248146e-05
1.5418844424e-12
2.08946124815e-05
-1.21384785585e-10
2.08949779878e-05
-3.20418011452e-10
2.08956401237e-05
-6.57566955592e-10
2.08967062527e-05
-1.13803058467e-09
2.08983539449e-05
-1.85426959398e-09
2.09009409081e-05
-3.02278157889e-09
2.0905014997e-05
-4.88917086721e-09
2.09114453318e-05
-7.85987504998e-09
2.09216554297e-05
-1.26095479839e-08
2.09381351889e-05
-2.02984770715e-08
2.09650296574e-05
-3.33434615621e-08
2.10092778828e-05
-5.50186512995e-08
2.10840513692e-05
-9.29473957531e-08
2.12152736893e-05
-1.64406016529e-07
2.1455847559e-05
-3.0978567307e-07
2.19136182894e-05
-6.24427161996e-07
2.28004774188e-05
-1.34175762873e-06
2.44442032428e-05
-3.1113180878e-06
-7.03747392761e-06
2.60303957901e-05
5.35171057064e-05
1.24191792831e-05
5.29349694093e-05
1.79445304608e-05
4.96538417986e-05
1.5944395005e-05
4.58401836748e-05
1.24077929805e-05
4.24400951546e-05
9.10127487568e-06
3.97291756375e-05
6.48944327679e-06
3.76873095672e-05
4.56723853494e-06
3.61976671148e-05
3.19065357499e-06
3.51326168346e-05
2.21501742304e-06
3.43823721201e-05
1.52704837317e-06
3.38606314691e-05
1.04388650203e-06
3.35023515599e-05
7.06213514962e-07
3.3259606995e-05
4.71749031085e-07
3.30975970344e-05
3.10304663879e-07
3.29913413115e-05
2.00283344831e-07
3.29230997878e-05
1.26234941645e-07
3.28804121801e-05
7.71342717624e-08
3.28546273785e-05
4.51521826604e-08
3.28398006101e-05
2.47697884269e-08
3.28318744036e-05
1.21333596071e-08
3.28280051814e-05
4.58860558331e-09
3.28270068137e-05
6.67191671946e-11
3.2827187806e-05
-1.81056557681e-09
3.28280364118e-05
-2.71324401012e-09
3.2829152345e-05
-2.93345340433e-09
3.28302997246e-05
-2.77423414068e-09
3.28313558073e-05
-2.43576710595e-09
3.28322662952e-05
-2.03677824413e-09
3.28330163467e-05
-1.64361084984e-09
3.28336120542e-05
-1.28982522928e-09
3.28340683733e-05
-9.89121937211e-10
3.28344033876e-05
-7.44206149219e-10
3.28346698664e-05
-5.53538347022e-10
3.2834886177e-05
-4.15965273956e-10
3.28350334762e-05
-2.80800730198e-10
3.28351327533e-05
-1.8330306819e-10
3.28351986427e-05
-1.15389351955e-10
3.28352405643e-05
-6.85212496272e-11
3.28352653904e-05
-3.53009526017e-11
3.28352770767e-05
-1.01199310815e-11
3.28352791907e-05
8.1379921556e-12
3.28352742297e-05
2.16236314854e-11
3.28352640202e-05
3.17801416514e-11
3.28352498003e-05
3.98102915693e-11
3.28352323312e-05
4.66973791387e-11
3.28352120912e-05
5.30987863967e-11
3.2835189381e-05
5.94365418449e-11
3.28351644124e-05
6.59993687226e-11
3.28351373179e-05
7.30464107728e-11
3.28351080988e-05
8.09017906028e-11
3.28350770759e-05
8.92588995293e-11
3.28350448536e-05
9.78540223174e-11
3.28350124749e-05
1.06183787841e-10
3.28349817325e-05
1.13263770767e-10
3.2834955639e-05
1.17343484492e-10
3.28349388781e-05
1.15789205656e-10
3.28349384658e-05
1.04519228706e-10
3.28349659824e-05
7.57937831565e-11
3.28350387276e-05
1.95844613837e-11
3.28351865069e-05
-8.42433610639e-11
3.28354607663e-05
-2.72890563888e-10
3.2835950763e-05
-6.11498745582e-10
3.28366691949e-05
-1.03895577265e-09
3.2837712779e-05
-1.70122634108e-09
3.28393403093e-05
-2.76572993618e-09
3.28419268024e-05
-4.4409312164e-09
3.28459762465e-05
-7.0723983677e-09
3.28523029929e-05
-1.12161041958e-08
3.28622198474e-05
-1.77769061506e-08
3.28778907743e-05
-2.8280622975e-08
3.29029753753e-05
-4.53832402011e-08
3.2942823139e-05
-7.31914406897e-08
3.30072610862e-05
-1.19456851303e-07
3.3113266711e-05
-1.98953301371e-07
3.32898447135e-05
-3.40984319346e-07
3.35851849629e-05
-6.05126244427e-07
3.40703442115e-05
-1.10958675557e-06
3.48114246826e-05
-2.0828383551e-06
3.56721937084e-05
-3.97208695857e-06
-7.10558723879e-06
3.57403079479e-05
5.35105668329e-05
8.90861282141e-06
5.55742233117e-05
1.5880874667e-05
5.52424841785e-05
1.62761347028e-05
5.3597788189e-05
1.40524895113e-05
5.15418504434e-05
1.11572131185e-05
4.95802831495e-05
8.45101102824e-06
4.79243545639e-05
6.22316754091e-06
4.6618143093e-05
4.49686543204e-06
4.5630470671e-05
3.20269020558e-06
4.49051220859e-05
2.25239730015e-06
4.43840952516e-05
1.56491366769e-06
4.40166994528e-05
1.07360964123e-06
4.37619733109e-05
7.2647550305e-07
4.35882750599e-05
4.84003252792e-07
4.34718760624e-05
3.16682690965e-07
4.33953663606e-05
2.02745001666e-07
4.33461964497e-05
1.26304533435e-07
4.33154591999e-05
7.58897708138e-08
4.32969231977e-05
4.33061319763e-08
4.32862974743e-05
2.27594092609e-08
4.32806949511e-05
1.01914340553e-08
4.32778875791e-05
2.87436950625e-09
4.32770600729e-05
-9.82811037335e-10
4.32772782217e-05
-2.9311751879e-09
4.32779659944e-05
-3.62103754562e-09
4.32788292654e-05
-3.63734100892e-09
4.32797022683e-05
-3.30862413243e-09
4.3280499894e-05
-2.83426405395e-09
4.3281185799e-05
-2.32937041649e-09
4.32817517734e-05
-1.8556447511e-09
4.32822046532e-05
-1.44184097136e-09
4.32825571553e-05
-1.09652253108e-09
4.32828189747e-05
-8.1512112792e-10
4.32829945634e-05
-5.91338536466e-10
4.32831277028e-05
-4.13709431364e-10
4.3283213265e-05
-2.68634031023e-10
4.32832673852e-05
-1.69307112469e-10
4.32833073228e-05
-1.08283214903e-10
4.32833318562e-05
-5.97009940613e-11
4.32833439676e-05
-2.21470226754e-11
4.32833470844e-05
5.0607841235e-12
4.32833431713e-05
2.55281694077e-11
4.32833339296e-05
4.09647267604e-11
4.32833205404e-05
5.31060547026e-11
4.3283303664e-05
6.34499382301e-11
4.32832837534e-05
7.28605665101e-11
4.32832611588e-05
8.18621476449e-11
4.32832361837e-05
9.07913316765e-11
4.32832091639e-05
9.98758276364e-11
4.32831807182e-05
1.09163473122e-10
4.32831514939e-05
1.18308197431e-10
4.3283122466e-05
1.26715579912e-10
4.32830951134e-05
1.33380674851e-10
4.32830715419e-05
1.36686038056e-10
4.32830546712e-05
1.34066240432e-10
4.32830490523e-05
1.21287362279e-10
4.32830626668e-05
9.0764222243e-11
4.32831075502e-05
3.07691138956e-11
4.32832030309e-05
-7.60238807e-11
4.3283365414e-05
-2.46767181568e-10
4.32836089405e-05
-5.16588060302e-10
4.32840539278e-05
-1.05665641107e-09
4.32848280332e-05
-1.81326168223e-09
4.3286084378e-05
-2.95771394886e-09
4.32880308311e-05
-4.71232731131e-09
4.32910174898e-05
-7.42775679623e-09
4.32956039789e-05
-1.16590807715e-08
4.33026688456e-05
-1.82811891067e-08
4.33135940186e-05
-2.87023061949e-08
4.33305369613e-05
-4.52237814669e-08
4.33568059251e-05
-7.16524040618e-08
4.33979694424e-05
-1.14355165398e-07
4.34628753789e-05
-1.84363001451e-07
4.3565241434e-05
-3.01319577404e-07
4.37250105609e-05
-5.00753682167e-07
4.3966759055e-05
-8.46875022279e-07
4.43071203325e-05
-1.44994841938e-06
4.47073471166e-05
-2.48306562997e-06
4.4926479551e-05
-4.19121976394e-06
-6.57619286691e-06
4.43970853568e-05
5.2735138365e-05
6.17347481997e-06
5.57309354921e-05
1.28850782205e-05
5.73114758899e-05
1.46955948679e-05
5.76109939382e-05
1.37529720002e-05
5.71335252996e-05
1.1634682253e-05
5.63194713057e-05
9.26506547968e-06
5.54489916588e-05
7.09364760808e-06
5.46629816114e-05
5.28287586806e-06
5.40136865482e-05
3.85198563035e-06
5.35061557053e-05
2.75992848573e-06
5.31242602778e-05
1.94680942664e-06
5.28449912341e-05
1.35287901074e-06
5.26454455034e-05
9.26021558185e-07
5.25057217904e-05
6.2372729274e-07
5.2409727568e-05
4.1267724557e-07
5.23450221177e-05
2.67450793776e-07
5.23022848593e-05
1.69042139674e-07
5.22746982489e-05
1.03476719729e-07
5.22573742371e-05
6.06304756731e-08
5.22468660399e-05
3.32679244754e-08
5.22407667584e-05
1.62910131501e-08
5.22374582233e-05
6.1831766038e-09
5.22359597876e-05
5.15866500826e-10
5.22354519821e-05
-2.42315819277e-09
5.2235516995e-05
-3.68586788125e-09
5.22358624553e-05
-3.98264158751e-09
5.22363166577e-05
-3.7626837071e-09
5.22367829739e-05
-3.30044569495e-09
5.22372103136e-05
-2.75656958751e-09
5.22375759673e-05
-2.22113627474e-09
5.22378732408e-05
-1.73893476119e-09
5.22381049352e-05
-1.32802783778e-09
5.22382813039e-05
-9.91290809323e-10
5.2238414307e-05
-7.24105952581e-10
5.223851477e-05
-5.13940313088e-10
5.22385994565e-05
-3.53100474075e-10
5.22386650967e-05
-2.34748664879e-10
5.22387074696e-05
-1.50491020641e-10
5.22387403176e-05
-9.24139493065e-11
5.22387557771e-05
-3.75274368005e-11
5.22387610319e-05
-1.6580320659e-13
5.2238758667e-05
2.78756819146e-11
5.22387506327e-05
4.89351075995e-11
5.22387382686e-05
6.53646638084e-11
5.22387224583e-05
7.91266917477e-11
5.22387037763e-05
9.13871532458e-11
5.22386827121e-05
1.02755946085e-10
5.22386599554e-05
1.13367356124e-10
5.22386365846e-05
1.23061064678e-10
5.22386105505e-05
1.35012025928e-10
5.2238583626e-05
1.45055968259e-10
5.223855693e-05
1.53243197326e-10
5.22385320637e-05
1.58092968885e-10
5.22385116664e-05
1.56946459177e-10
5.22385012398e-05
1.44348001816e-10
5.2238510058e-05
1.12322168327e-10
5.22385411997e-05
5.94634448271e-11
5.22386179004e-05
-4.60980982805e-11
5.22387381856e-05
-1.96488828111e-10
5.22389333841e-05
-4.42118477469e-10
5.22392713778e-05
-8.5475875891e-10
5.22397898593e-05
-1.57530812569e-09
5.22405637763e-05
-2.58737595258e-09
5.22417258366e-05
-4.11998678698e-09
5.22434794233e-05
-6.46607366086e-09
5.22461258189e-05
-1.0074305032e-08
5.22501169311e-05
-1.56503619048e-08
5.22561438837e-05
-2.43083410376e-08
5.2265265452e-05
-3.78240869257e-08
5.22790988686e-05
-5.90574084797e-08
5.23001016485e-05
-9.26553800482e-08
5.23319888804e-05
-1.46242602101e-07
5.23801029191e-05
-2.32477253832e-07
5.2451367981e-05
-3.72584850849e-07
5.25526446048e-05
-6.02030508466e-07
5.26844735656e-05
-9.78704197979e-07
5.28246249151e-05
-1.59010006123e-06
5.28916128325e-05
-2.55005398642e-06
5.26729912596e-05
-3.97259849719e-06
-5.76728710656e-06
5.18640853434e-05
5.19834868288e-05
4.18998835127e-06
5.50586650089e-05
9.8099007143e-06
5.76386147973e-05
1.211564564e-05
5.93259052723e-05
1.20656820608e-05
6.02280177988e-05
1.07325702222e-05
6.05929294396e-05
8.90015429838e-06
6.06482867777e-05
7.03829069136e-06
6.05531927027e-05
5.37797033399e-06
6.0402958481e-05
4.00222021635e-06
6.02479183048e-05
2.91496900633e-06
6.01107930908e-05
2.08393497243e-06
5.99990338749e-05
1.46463855199e-06
5.99125190026e-05
1.01253675366e-06
5.98479274125e-05
6.88319208825e-07
5.9801024148e-05
4.59580840908e-07
5.97677397974e-05
3.00735477704e-07
5.97445987389e-05
1.92183535985e-07
5.97288204823e-05
1.19255311704e-07
5.97182726109e-05
7.11786718519e-08
5.97113666808e-05
4.01741645089e-08
5.97069475739e-05
2.07104095546e-08
5.97042138986e-05
8.91711605394e-09
5.97026050584e-05
2.12494234562e-09
5.97017006916e-05
-1.51858419911e-09
5.97012425352e-05
-3.22753162183e-09
5.97010531294e-05
-3.79307688633e-09
5.97010169519e-05
-3.72635590196e-09
5.97010613483e-05
-3.34469814558e-09
5.97011426018e-05
-2.83768097564e-09
5.97012350554e-05
-2.31343345549e-09
5.97013248419e-05
-1.82852799318e-09
5.97014053362e-05
-1.40830993711e-09
5.97014750991e-05
-1.06085168156e-09
5.97015347612e-05
-7.83540654393e-10
5.97015850915e-05
-5.64043634976e-10
5.97016249827e-05
-3.92772745244e-10
5.97016528589e-05
-2.62436313553e-10
5.97016682597e-05
-1.65732055616e-10
5.97016667147e-05
-9.07524195725e-11
5.97016587051e-05
-2.94509804406e-11
5.97016521557e-05
6.39922943627e-12
5.9701642977e-05
3.70230649147e-11
5.97016325314e-05
5.93063486297e-11
5.97016209141e-05
7.68708379322e-11
5.97016070686e-05
9.28328164101e-11
5.97015908417e-05
1.07452543218e-10
5.97015723132e-05
1.21111647985e-10
5.97015514966e-05
1.34011903281e-10
5.97015282541e-05
1.46126798073e-10
5.97015059266e-05
1.571617393e-10
5.97014844218e-05
1.66390333897e-10
5.97014649871e-05
1.72514221795e-10
5.97014492949e-05
1.7363597358e-10
5.97014388916e-05
1.67224149924e-10
5.97014325598e-05
1.50525122001e-10
5.97014237247e-05
1.20982643434e-10
5.97014287294e-05
5.43487704436e-11
5.97014405468e-05
-5.80614073004e-11
5.97015250588e-05
-2.81119261459e-10
5.97017142951e-05
-6.31531643814e-10
5.97020143222e-05
-1.15496843537e-09
5.97024015751e-05
-1.96273509001e-09
5.97029804843e-05
-3.1664390985e-09
5.97038333861e-05
-4.97314167541e-09
5.97050743261e-05
-7.7072316668e-09
5.97068683229e-05
-1.18684758591e-08
5.97094533884e-05
-1.82355773821e-08
5.97131734049e-05
-2.80285196534e-08
5.97185179012e-05
-4.31687649931e-08
5.97261673239e-05
-6.67070283128e-08
5.97370227332e-05
-1.03510972618e-07
5.97521459402e-05
-1.6136599477e-07
5.97723734685e-05
-2.52704986398e-07
5.97971122352e-05
-3.97323835891e-07
5.98212039842e-05
-6.26122472972e-07
5.98277725711e-05
-9.85272993265e-07
5.97747789084e-05
-1.53710664451e-06
5.95743100006e-05
-2.34958554606e-06
5.9068565196e-05
-3.4668539797e-06
-4.79609927745e-06
5.80973771195e-05
5.14373057283e-05
2.75268298187e-06
5.42658216013e-05
6.98138551066e-06
5.72496448049e-05
9.13182299177e-06
5.97900296679e-05
9.52529773229e-06
6.17201306262e-05
8.80246975934e-06
6.30883060051e-05
7.53197938191e-06
6.401671996e-05
6.10987716111e-06
6.46292401231e-05
4.76545056455e-06
6.50258074207e-05
3.60565328643e-06
6.52790823156e-05
2.66169445963e-06
6.54389776705e-05
1.924039953e-06
6.55386948017e-05
1.36492174929e-06
6.55999336411e-05
9.51298238614e-07
6.5636748764e-05
6.51504409485e-07
6.56582001832e-05
4.38129750573e-07
6.56701087355e-05
2.88827255566e-07
6.56761983099e-05
1.86094289558e-07
6.56788349594e-05
1.16618989715e-07
6.56795057397e-05
7.05082096143e-08
6.56791298678e-05
4.05503380377e-08
6.56782627918e-05
2.15777670566e-08
6.56772321748e-05
9.94799017224e-09
6.56762231994e-05
3.13414841111e-09
6.56753141691e-05
-6.0934802255e-10
6.56745457046e-05
-2.45888492356e-09
6.56739175568e-05
-3.16476920771e-09
6.56734188631e-05
-3.22750844619e-09
6.56730321667e-05
-2.95784360732e-09
6.56727384777e-05
-2.54383234929e-09
6.56725196419e-05
-2.094425081e-09
6.56723595513e-05
-1.66825440463e-09
6.56722445477e-05
-1.29308569884e-09
6.56721624662e-05
-9.78544036375e-10
6.56721027017e-05
-7.23542692482e-10
6.56720594636e-05
-5.20577074382e-10
6.56720285155e-05
-3.61604860016e-10
6.56720037213e-05
-2.3744982413e-10
6.56719823854e-05
-1.4424615125e-10
6.56719675543e-05
-7.58141491154e-11
6.56719659027e-05
-2.77393938757e-11
6.56719644286e-05
7.8817152193e-12
6.56719571009e-05
4.4309951795e-11
6.56719470732e-05
6.92550746307e-11
6.56719345618e-05
8.92625677168e-11
6.56719204759e-05
1.06769070998e-10
6.56719048593e-05
1.22897681276e-10
6.56718875765e-05
1.38209173779e-10
6.56718685688e-05
1.52832622988e-10
6.56718483463e-05
1.66165520271e-10
6.56718289744e-05
1.76357810132e-10
6.56718093873e-05
1.85814176488e-10
6.56717900939e-05
1.91654091508e-10
6.56717722208e-05
1.91359412018e-10
6.5671757714e-05
1.81622114733e-10
6.56717503885e-05
1.57732643749e-10
6.56717575498e-05
1.13726494762e-10
6.56717637503e-05
4.80146991321e-11
6.5671797168e-05
-9.16374096708e-11
6.56718648992e-05
-3.49005961429e-10
6.56719633106e-05
-7.30096591798e-10
6.56721138625e-05
-1.30572896248e-09
6.56723234929e-05
-2.17260075806e-09
6.56726088968e-05
-3.45196291048e-09
6.56729865559e-05
-5.35100944301e-09
6.56734674948e-05
-8.18842350303e-09
6.56740494408e-05
-1.24506476609e-08
6.56747023487e-05
-1.88886635007e-08
6.56753407308e-05
-2.8667049055e-08
6.56757637765e-05
-4.35919478831e-08
6.56755441453e-05
-6.64875565299e-08
6.56738130876e-05
-1.0178007922e-07
6.56688374687e-05
-1.56390539194e-07
6.56570841286e-05
-2.40951830162e-07
6.56314265831e-05
-3.71666501716e-07
6.55777180364e-05
-5.72414152952e-07
6.54687339641e-05
-8.76289147403e-07
6.52553236424e-05
-1.32369650672e-06
6.48574717386e-05
-1.95173406111e-06
6.41627639604e-05
-2.77214654335e-06
-3.71442206848e-06
6.30810864926e-05
5.10850427159e-05
1.66764062206e-06
5.36118455816e-05
4.45458331268e-06
5.66873180441e-05
6.05635107994e-06
5.96894485752e-05
6.5231677335e-06
6.22997296664e-05
6.1921891628e-06
6.44136916831e-05
5.4180178296e-06
6.60471882494e-05
4.47638102374e-06
6.72686201964e-05
3.54401901467e-06
6.81598996186e-05
2.71437423392e-06
6.87977665984e-05
2.02382782874e-06
6.92467513616e-05
1.47505552469e-06
6.95579705958e-05
1.05370284218e-06
6.97704376923e-05
7.38831464813e-07
6.99131812035e-05
5.08761217535e-07
7.0007392801e-05
3.43918475461e-07
7.00683028991e-05
2.27917483751e-07
7.01067054956e-05
1.47692014124e-07
7.01301483864e-05
9.31764159922e-08
7.01438381018e-05
5.6818802932e-08
7.01513147808e-05
3.30739512152e-08
7.01549478137e-05
1.79450053996e-08
7.01562961206e-05
8.59992998579e-09
7.01563684986e-05
3.06199097584e-09
7.01557769227e-05
-1.75712103611e-11
7.01549164813e-05
-1.59826045759e-09
7.01539932803e-05
-2.24140308343e-09
7.01531250396e-05
-2.35910922437e-09
7.01523654307e-05
-2.19806955683e-09
7.0151731657e-05
-1.90989520988e-09
7.01512208739e-05
-1.58346129375e-09
7.01508201558e-05
-1.26733146288e-09
7.01505125493e-05
-9.85261936683e-10
7.01502804086e-05
-7.46179640313e-10
7.01501075647e-05
-5.50470737283e-10
7.01499810112e-05
-3.93801491454e-10
7.01498900894e-05
-2.70474945194e-10
7.0149827688e-05
-1.74862237026e-10
7.0149786336e-05
-1.02747220985e-10
7.01497579752e-05
-4.73551082041e-11
7.01497281998e-05
2.08883627698e-12
7.01497048845e-05
3.11937450746e-11
7.01496918822e-05
5.72623043577e-11
7.01496814106e-05
7.96407553021e-11
7.01496715206e-05
9.90341781623e-11
7.0149661464e-05
1.16682360481e-10
7.01496508724e-05
1.33331473449e-10
7.01496396179e-05
1.49299180805e-10
7.01496277452e-05
1.64542110443e-10
7.01496150938e-05
1.78666858099e-10
7.01496002621e-05
1.91054005451e-10
7.01495851812e-05
2.00778914934e-10
7.0149570686e-05
2.06052535287e-10
7.01495575187e-05
2.04423723281e-10
7.0149546228e-05
1.92821197496e-10
7.01495363875e-05
1.67500392144e-10
7.01495252568e-05
1.24774247772e-10
7.01495180328e-05
5.51260092862e-11
7.01495071859e-05
-8.09717243268e-11
7.01495177733e-05
-3.59791323879e-10
7.01495404544e-05
-7.52933275678e-10
7.01495633637e-05
-1.32881676196e-09
7.0149564881e-05
-2.17441373156e-09
7.01495183251e-05
-3.40559292405e-09
7.01493703774e-05
-5.20320839132e-09
7.01490220619e-05
-7.84030829921e-09
7.01482982622e-05
-1.17270674145e-08
7.01468974534e-05
-1.74880567265e-08
7.01443081739e-05
-2.60779380328e-08
7.01396563368e-05
-3.89402375772e-08
7.01314610363e-05
-5.82923754612e-08
7.01172335501e-05
-8.75527286913e-08
7.00928204619e-05
-1.31977592634e-07
7.00511341281e-05
-1.99265667571e-07
6.99802047915e-05
-3.0073737431e-07
6.9860073989e-05
-4.5228357549e-07
6.96583099549e-05
-6.74525370158e-07
6.93250210304e-05
-9.90407783551e-07
6.87906929658e-05
-1.41740632479e-06
6.79727916135e-05
-1.95424556022e-06
-2.55493753302e-06
6.68133068008e-05
5.08804135461e-05
7.87227426581e-07
5.31704672013e-05
2.16453032262e-06
5.62177512998e-05
3.00906752951e-06
5.94382718228e-05
3.3026477413e-06
6.24449721183e-05
3.18548936118e-06
6.50382559812e-05
2.8247344313e-06
6.71548699603e-05
2.3597674773e-06
6.88135688305e-05
1.88532054586e-06
7.00731751776e-05
1.45476826012e-06
7.1005672463e-05
1.09133089422e-06
7.16812690611e-05
7.99459261458e-07
7.21614287162e-05
5.73543513218e-07
7.24966099419e-05
4.03650561175e-07
7.27264867956e-05
2.78884681286e-07
7.28812859988e-05
1.89119588221e-07
7.29834760681e-05
1.2572773476e-07
7.30494201696e-05
8.17482288391e-08
7.30908225985e-05
5.17742961445e-08
7.31159168614e-05
3.17248393442e-08
7.31304016858e-05
1.85894098297e-08
7.31381566932e-05
1.01902603121e-08
7.31417773984e-05
4.97946365443e-09
7.31429653497e-05
1.87425267776e-09
7.31428191771e-05
1.28792102278e-10
7.31419961574e-05
-7.75060002754e-10
7.31409134443e-05
-1.15852250505e-09
7.31397987647e-05
-1.24426405989e-09
7.31387715358e-05
-1.17066424319e-09
7.31378842212e-05
-1.02238482998e-09
7.31371507173e-05
-8.49772196174e-10
7.31365636635e-05
-6.80067325502e-10
7.31361056678e-05
-5.27032581216e-10
7.31357558534e-05
-3.9612442781e-10
7.31354935814e-05
-2.87962875952e-10
7.31353005039e-05
-2.00495481901e-10
7.31351609777e-05
-1.30743084442e-10
7.3135061744e-05
-7.54515643768e-11
7.31349902868e-05
-3.11504141117e-11
7.31349371853e-05
5.83581509939e-12
7.31349074862e-05
3.1832852947e-11
7.3134884408e-05
5.4264423152e-11
7.3134867568e-05
7.40419332422e-11
7.31348551413e-05
9.1969026562e-11
7.31348453324e-05
1.08717417729e-10
7.31348368786e-05
1.24989806681e-10
7.31348289068e-05
1.41141941517e-10
7.31348208143e-05
1.57228677913e-10
7.31348121787e-05
1.73019730849e-10
7.31348027394e-05
1.87961936948e-10
7.31347924643e-05
2.01200599125e-10
7.31347814202e-05
2.11714187837e-10
7.31347696857e-05
2.17703995365e-10
7.31347573666e-05
2.16641825361e-10
7.31347447471e-05
2.05318707767e-10
7.31347324336e-05
1.7973107442e-10
7.31347215126e-05
1.35586093607e-10
7.31347056277e-05
7.08804384301e-11
7.31346824861e-05
-5.7913821571e-11
7.31346408077e-05
-3.18308748371e-10
7.3134574659e-05
-6.86978569941e-10
7.31344604237e-05
-1.21471386735e-09
7.31342547067e-05
-1.96894000071e-09
7.31338895435e-05
-3.04068807786e-09
7.31332500436e-05
-4.56387836236e-09
7.31321431844e-05
-6.73359779366e-09
7.31302471551e-05
-9.83119305706e-09
7.31270346214e-05
-1.42756838997e-08
7.31216505152e-05
-2.06939887513e-08
7.3112682063e-05
-2.99719236696e-08
7.30978246849e-05
-4.34351096008e-08
7.30733713665e-05
-6.30995231694e-08
7.30334251023e-05
-9.20314350292e-08
7.29684726112e-05
-1.34313307183e-07
7.28634972327e-05
-1.95762193784e-07
7.26953342403e-05
-2.84120814939e-07
7.24294856284e-05
-4.0867702621e-07
7.20175933881e-05
-5.78515808678e-07
7.13984648984e-05
-7.98278123511e-07
7.05065543981e-05
-1.06233542825e-06
-1.34562460535e-06
6.92972411657e-05
5.07871729508e-05
5.48214806286e-11
5.29516508723e-05
5.30607647568e-11
5.59606900269e-05
2.89203203011e-11
5.9263323998e-05
1.43003275254e-11
6.24488110129e-05
2.8411572767e-12
6.52735519515e-05
-6.04215506044e-12
6.76333318228e-05
-1.19581724374e-11
6.95186676881e-05
-1.49130933237e-11
7.09734516757e-05
-1.53481968786e-11
7.20647967861e-05
-1.38603393304e-11
7.28642674671e-05
-1.10822209193e-11
7.34378189756e-05
-7.66968741991e-12
7.38414741434e-05
-4.28532185322e-12
7.41203607194e-05
-1.57738179661e-12
7.43094807521e-05
-1.31931953991e-13
7.44352091486e-05
-3.48290351779e-13
7.45169601761e-05
-2.48837772271e-12
7.456874108e-05
-6.30580559578e-12
7.46004773732e-05
-1.11629504389e-11
7.4619083138e-05
-1.60802623084e-11
7.4629293583e-05
-1.99297403432e-11
7.46342948981e-05
-2.16173565179e-11
7.46361900372e-05
-2.06757346315e-11
7.46363373951e-05
-1.83766500423e-11
7.46355784089e-05
-1.58906683358e-11
7.46344328446e-05
-1.27838477995e-11
7.46331979777e-05
-9.21991619406e-12
7.46320327623e-05
-5.26820866469e-12
7.46310110116e-05
-4.28532024393e-13
7.46301578089e-05
3.64732811771e-12
7.46294696328e-05
8.32698255905e-12
7.46289295011e-05
1.33336409983e-11
7.46285150107e-05
1.86152171258e-11
7.46282030536e-05
2.42339481372e-11
7.46279724162e-05
3.03708657832e-11
7.46278047402e-05
3.71388533192e-11
7.46276848443e-05
4.46150873225e-11
7.46276010474e-05
5.27781915763e-11
7.46275452978e-05
6.16695752865e-11
7.46275062793e-05
7.08890437059e-11
7.46274801119e-05
8.04226585219e-11
7.46274629269e-05
9.11692428505e-11
7.46274517493e-05
1.03046420474e-10
7.46274443605e-05
1.15978358049e-10
7.46274392338e-05
1.29974313046e-10
7.46274353049e-05
1.44920072863e-10
7.4627431834e-05
1.60550019975e-10
7.46274282902e-05
1.76422295981e-10
7.46274242548e-05
1.9187010297e-10
7.46274193798e-05
2.05965012399e-10
7.46274134859e-05
2.17514837597e-10
7.46274063574e-05
2.24761874082e-10
7.46273976245e-05
2.25344865936e-10
7.46273865803e-05
2.16286660626e-10
7.4627372115e-05
1.94128420069e-10
7.46273524472e-05
1.55128023286e-10
7.46273268123e-05
9.64085002672e-11
7.4627281549e-05
-1.27218943689e-11
7.46271935815e-05
-2.30476783312e-10
7.46270578499e-05
-5.51465771927e-10
7.46268351032e-05
-9.92114910787e-10
7.46264645185e-05
-1.59852637572e-09
7.46258497821e-05
-2.42618370504e-09
7.46248342252e-05
-3.54853028319e-09
7.46231628477e-05
-5.06238313879e-09
7.46204189935e-05
-7.08746899826e-09
7.46159362307e-05
-9.79303692422e-09
7.46086569257e-05
-1.3414782757e-08
7.45968445354e-05
-1.81596304883e-08
7.45776986994e-05
-2.42893763262e-08
7.45468028871e-05
-3.2203842967e-08
7.44974298167e-05
-4.26585071144e-08
7.44188442262e-05
-5.57278448928e-08
7.42946522573e-05
-7.15703957225e-08
7.41004812782e-05
-8.99500502258e-08
7.38015228901e-05
-1.09718879952e-07
7.3351126979e-05
-1.28120201417e-07
7.26928348313e-05
-1.39986266667e-07
7.17686312188e-05
-1.38132171989e-07
-1.14067463719e-07
7.05370737547e-05
5.07871719128e-05
-7.87116748594e-07