/*--------------------------------*- C++ -*----------------------------------*\
| =========                 |                                                 |
| \\      /  F ield         | OpenFOAM: The Open Source CFD Toolbox           |
|  \\    /   O peration     | Version:  2106                                  |
|   \\  /    A nd           | Website:  www.openfoam.com                      |
|    \\/     M anipulation  |                                                 |
\*---------------------------------------------------------------------------*/
FoamFile
{
    version     2.0;
    format      ascii;
    arch        "LSB;label=32;scalar=64";
    class       volScalarField;
    location    "0.21";
    object      p;
}
// * * * * * * * * * * * * * * * * * * * * * * * * * * * * * * * * * * * * * //

dimensions      [0 2 -2 0 0 0 0];

internalField   nonuniform List<scalar> 
9600
(
2.22929107495
-0.668720690917
-1.57295093149
-1.9585604904
-2.17789301903
-2.31783543234
-2.42174054009
-2.50929008313
-2.58878951993
-2.66417968897
-2.73755361766
-2.81006238682
-2.88233560096
-2.9547041253
-3.02732457809
-3.10025277215
-3.17348872947
-3.2470040968
-3.3207586004
-3.39470934179
-3.46881560945
-3.54304294729
-3.61736091842
-3.69174526768
-3.76617673443
-3.84064025883
-3.91512417712
-3.98961958139
-4.06411962495
-4.13861907105
-4.21311384508
-4.28760067642
-4.36207687193
-4.43654011904
-4.51098836683
-4.58541962853
-4.65983195653
-4.73422345921
-4.80859216608
-4.8829359235
-4.95725239757
-5.03153919428
-5.1057937696
-5.18001325744
-5.25419457362
-5.32833443007
-5.40242930044
-5.47647538763
-5.55046862129
-5.62440462873
-5.69827866929
-5.7720856539
-5.84582020125
-5.9194765374
-5.99304838553
-6.06652900585
-6.13991128355
-6.21318764874
-6.28634992902
-6.3593893786
-6.43229669041
-6.5050619439
-6.57767462796
-6.6501235829
-6.72239689705
-6.79448187687
-6.86636504932
-6.93803216466
-7.00946813323
-7.08065692148
-7.15158153467
-7.22222407493
-7.29256563094
-7.36258614332
-7.43226449372
-7.50157850623
-7.57050474122
-7.63901838101
-7.70709341154
-7.77470267029
-7.84181748518
-7.90840759928
-7.97444144463
-8.03988612518
-8.10470711878
-8.16886807697
-8.23233100455
-8.29505645157
-8.35700328811
-8.41812849696
-8.47838723213
-8.53773289047
-8.59611704015
-8.65348931956
-8.70979743162
-8.7649871851
-8.8190025176
-8.87178531614
-8.92327542403
-8.97341078928
-9.02212726451
-9.0693586865
-9.11503701035
-9.15909220448
-9.20145221104
-9.24204298294
-9.28078859672
-9.31761111601
-9.35243079385
-9.38516631041
-9.4157344181
-9.4440499138
-9.4700259973
-9.49357459321
-9.51460592662
-9.53302847205
-9.5487497443
-9.56167593085
-9.57171172845
-9.5787609768
-9.5827266658
-9.58351081448
-9.58101442163
-9.57513791894
-9.56578179575
-9.55284577773
-9.53622774902
-9.51582632013
-9.49154014431
-9.46326702444
-9.43090442063
-9.39434966295
-9.35349942601
-9.30825016781
-9.25849731675
-9.20413488254
-9.1450557635
-9.0811502535
-9.01230595844
-8.93840659981
-8.859330089
-8.77494755049
-8.68512083028
-8.5896999314
-8.48851852144
-8.3813894466
-8.26809846157
-8.14839444338
-8.02197707471
-7.88847838908
-7.74743551004
-7.59824771014
-7.44010374715
-7.27185679499
-7.0918088965
-6.8973955701
-6.68470358936
-6.44790559005
-6.18764960657
-5.96786480007
0.317751042271
-0.864605268243
-1.47327972118
-1.82730232673
-2.06991978849
-2.24048274709
-2.36855451167
-2.4730570304
-2.56413271651
-2.64741128527
-2.72618424111
-2.8024013611
-2.87722201907
-2.95133439291
-3.02514053257
-3.09886706365
-3.17263375652
-3.24649633621
-3.32047348516
-3.39456341655
-3.46875452439
-3.54303027277
-3.6173740788
-3.6917705742
-3.76620610249
-3.84066921533
-3.91515050746
-3.98964243698
-4.06413893584
-4.13863515684
-4.21312720767
-4.28761186278
-4.36208639328
-4.43654841176
-4.51099584124
-4.58542667997
-4.65983888313
-4.73423044453
-4.80859936932
-4.88294356177
-4.95726066232
-5.03154815403
-5.10580343953
-5.18002373741
-5.2542059507
-5.32834675602
-5.40244264186
-5.47648982899
-5.55048423095
-5.62442148212
-5.69829689007
-5.7721053599
-5.84584147585
-5.91949946125
-5.9930731047
-6.06655570652
-6.1399400793
-6.21321860961
-6.28638318317
-6.35942512543
-6.43233513608
-6.50510325926
-6.57771896331
-6.6501711027
-6.72244779438
-6.79453637912
-6.86642338908
-6.93809456024
-7.00953480583
-7.08072811463
-7.15165749812
-7.22230506751
-7.29265196313
-7.36267816059
-7.43236248232
-7.5016827035
-7.57061547548
-7.63913606811
-7.70721836482
-7.77483514333
-7.84195791022
-7.90855652673
-7.97459927048
-8.04005306887
-8.10488348944
-8.16905442036
-8.23252790049
-8.29526431164
-8.3572224736
-8.41835949523
-8.47863057386
-8.53798902338
-8.59638641028
-8.65377245897
-8.71009489245
-8.76529944789
-8.81933006026
-8.87212869111
-8.92363516958
-8.9737874503
-9.02252142673
-9.06977089958
-9.11546779627
-9.15954204918
-9.20192159185
-9.24253242554
-9.28129871789
-9.31814254844
-9.3529839662
-9.38574148783
-9.41633186751
-9.44467005847
-9.47066922982
-9.49424119194
-9.5152962922
-9.53374300362
-9.54948876026
-9.56243990407
-9.57250117308
-9.57957625455
-9.58356810256
-9.58437891699
-9.58190984954
-9.5760611702
-9.56673248784
-9.55382318497
-9.53723306893
-9.51686074351
-9.49260480467
-9.46436380909
-9.43203612273
-9.39551995159
-9.35471284289
-9.3095122983
-9.25981534564
-9.20551781075
-9.14651489947
-9.082699717
-9.01396318185
-8.94019354194
-8.86127431961
-8.77708364208
-8.68749203524
-8.59236073862
-8.49153812297
-8.38485578559
-8.27212438884
-8.15312645572
-8.02760801071
-7.89526674914
-7.75573611754
-7.60856519685
-7.45319027406
-7.28890252988
-7.11482212459
-6.92995839326
-6.7334467245
-6.52437445695
-6.30299592078
-6.09157766592
-0.658091386965
-1.13945976946
-1.53072007098
-1.82233447078
-2.04390867371
-2.2118443398
-2.34394615668
-2.45373463791
-2.54959331471
-2.63673807552
-2.7184803114
-2.79691481287
-2.87336200174
-2.9486514925
-3.02329950879
-3.09762134245
-3.17180412839
-3.24595395948
-3.32012676723
-3.39434800101
-3.4686255063
-3.54295714794
-3.61733617076
-3.69175415785
-3.76620225595
-3.84067225384
-3.91515691759
-3.98965013142
-4.06414676736
-4.13864254896
-4.21313392285
-4.28761786863
-4.36209176898
-4.43655326363
-4.51100026009
-4.5854308061
-4.65984289033
-4.73423444489
-4.8086033805
-4.8829475951
-4.95726478942
-5.03155245951
-5.10580797554
-5.1800285352
-5.25421106637
-5.32835225841
-5.40244859707
-5.47649629949
-5.55049126441
-5.62442912317
-5.69830518704
-5.77211436989
-5.84585121792
-5.91950994536
-5.99308437884
-6.06656786038
-6.13995319724
-6.21323273769
-6.28639833762
-6.3594413429
-6.43235251381
-6.50512193077
-6.57773902323
-6.65019261263
-6.72247080465
-6.79456096381
-6.86644966475
-6.93812264279
-7.00956480894
-7.0807601813
-7.15169174965
-7.22234158622
-7.29269082562
-7.36271953583
-7.43240657098
-7.50172962492
-7.57066531592
-7.63918901014
-7.70727461338
-7.7748947811
-7.84202101421
-7.90862334131
-7.97467011244
-8.04012811496
-8.10496278124
-8.16913807258
-8.23261616437
-8.29535745094
-8.35732068642
-8.41846294229
-8.47873945855
-8.53810358567
-8.59650684997
-8.65389896612
-8.71022770829
-8.76543880524
-8.81947612884
-8.87228165298
-8.92379520376
-8.97395466479
-9.02269600244
-9.06995306292
-9.11565771561
-9.15973991263
-9.20212757609
-9.24274661979
-9.28152124133
-9.31837372199
-9.35322412856
-9.38599084253
-9.41659084248
-9.44493923559
-9.47094906739
-9.49453193298
-9.51559832242
-9.53405684835
-9.54981472262
-9.56277832881
-9.57285271926
-9.57994169952
-9.58394808305
-9.58477406432
-9.58232113773
-9.576489928
-9.56718058085
-9.55429313272
-9.53772711356
-9.51738126856
-9.49315449451
-9.46494572126
-9.43265375292
-9.39617763985
-9.35541588826
-9.31026704213
-9.26062967108
-9.20640136095
-9.14747950601
-9.08376019957
-9.01513769592
-8.94150443862
-8.86274953898
-8.77875801224
-8.68940895027
-8.59457458153
-8.49411764893
-8.38788812977
-8.27572061288
-8.15742959294
-8.03280459182
-7.90160394138
-7.76354735051
-7.61831050118
-7.46552155142
-7.3047702014
-7.13564441546
-6.95785050064
-6.77151231486
-6.57730802387
-6.37651826827
-6.17781273902
-1.20955272735
-1.39589749708
-1.63834697933
-1.8608136372
-2.04800472748
-2.20203229231
-2.33046977115
-2.44076028066
-2.53855483647
-2.62791494246
-2.71168609514
-2.79181280968
-2.86960266476
-2.94592475605
-3.02134954118
-3.09624562549
-3.17084668106
-3.24529704856
-3.31968295685
-3.3940532969
-3.46843361018
-3.54283510542
-3.61726123401
-3.69170995476
-3.766177811
-3.84066019078
-3.91515235331
-3.98964988869
-4.06414885506
-4.13864575364
-4.2131375195
-4.2876214605
-4.36209519779
-4.43655650165
-4.51100328292
-4.58543360522
-4.65984553754
-4.73423705275
-4.80860601014
-4.88295025376
-4.9572675213
-5.0315553391
-5.10581103831
-5.18003177694
-5.25421450642
-5.32835593415
-5.4024525293
-5.47650049395
-5.5504957396
-5.62443387976
-5.69831026397
-5.7721198372
-5.84585715214
-5.91951635858
-5.99309126157
-6.06657523909
-6.13996114421
-6.21324133056
-6.28640762421
-6.35945134181
-6.43236321218
-6.50513336774
-6.57775130728
-6.65020581786
-6.72248496801
-6.79457610706
-6.86646584633
-6.93813993658
-7.009583232
-7.08077976567
-7.15171265931
-7.2223639151
-7.29271459726
-7.3627447886
-7.43243342327
-7.50175817904
-7.57069559942
-7.63922111098
-7.7073087257
-7.77493102707
-7.84205937827
-7.90866383504
-7.97471291256
-8.04017346
-8.10501076358
-8.16918869342
-8.23266951887
-8.29541371304
-8.35738001073
-8.41852544051
-8.47880525286
-8.53817284759
-8.59657973393
-8.65397558236
-8.71030819587
-8.76552334828
-8.81956489938
-8.87237482223
-8.92389298234
-8.97405727366
-9.02280363708
-9.07006596512
-9.1157761448
-9.15986409992
-9.20225781254
-9.24288316261
-9.28166417226
-9.31852318941
-9.35338050903
-9.38615437933
-9.41676144204
-9.44511691299
-9.47113408676
-9.49472447015
-9.51579853655
-9.53426515895
-9.55003152253
-9.56300384886
-9.57308730136
-9.58018593819
-9.58420267626
-9.58503966315
-9.58259853521
-9.57678019313
-9.56748487437
-9.55461255283
-9.53806324019
-9.51773640453
-9.49353153203
-9.46534815062
-9.43308569431
-9.39664417198
-9.35592329421
-9.31082283597
-9.26124302667
-9.2070835363
-9.14824414021
-9.08462416762
-9.0161217056
-8.94263371361
-8.86405519298
-8.7802785874
-8.69119217289
-8.59667950454
-8.49661813561
-8.39087718711
-8.27931579935
-8.16178062161
-8.03810374258
-7.90810124392
-7.77157175716
-7.62830018765
-7.47806697884
-7.3206705015
-7.15597364191
-6.98399298382
-6.80506675771
-6.61991673884
-6.4294931276
-6.23696146669
-1.54689884192
-1.59865954907
-1.74255673154
-1.90684895552
-2.06118218557
-2.19923969428
-2.32139347499
-2.4301818429
-2.52862588301
-2.61945604508
-2.70486373829
-2.78650175729
-2.86557183445
-2.94292578613
-3.01915534619
-3.09466415212
-3.16972286885
-3.24450957585
-3.31913903151
-3.39368329013
-3.46818613835
-3.54267290137
-3.61715734746
-3.69164521153
-3.76613898908
-3.84063821371
-3.91514105961
-3.98964515291
-4.06414798494
-4.13864704833
-4.2131399177
-4.28762431404
-4.36209815109
-4.43655942561
-4.51100613172
-4.58543633328
-4.65984813679
-4.73423959157
-4.80860857564
-4.88295287918
-4.95727022257
-5.0315581607
-5.10581403037
-5.18003497275
-5.25421793647
-5.32835963696
-5.40245655407
-5.47650490888
-5.55050060402
-5.62443921603
-5.69831606473
-5.77212614529
-5.84586399715
-5.91952378398
-5.99309927057
-6.06658382577
-6.13997031397
-6.21325114114
-6.28641816855
-6.35946265442
-6.43237532352
-6.5051463312
-6.57776516861
-6.65022064628
-6.72250084538
-6.79459309616
-6.86648399503
-6.93815930586
-7.00960390755
-7.08080183987
-7.15173620745
-7.22238906059
-7.29274143816
-7.36277337903
-7.43246383461
-7.50179052451
-7.57072995904
-7.63925754825
-7.70734740289
-7.77497214522
-7.84210303174
-7.90871003873
-7.97476172476
-8.04022504298
-8.10506532647
-8.16924636611
-8.23273035703
-8.29547781633
-8.35744754914
-8.41859656053
-8.4788800595
-8.5382514867
-8.59666235732
-8.65406230075
-8.71039912202
-8.76561860095
-8.81966457092
-8.87247901641
-8.92400184716
-8.97417086546
-9.02292198143
-9.07018915767
-9.11590425191
-9.15999719452
-9.20239606076
-9.24302678935
-9.28181328572
-9.31867779075
-9.3535407603
-9.38632058124
-9.41693382018
-9.44529562504
-9.4713194371
-9.494916751
-9.51599787506
-9.5344718726
-9.55024610365
-9.56322671483
-9.57331882177
-9.58042665106
-9.58445331745
-9.58530101412
-9.58287146586
-9.57706587961
-9.56778484525
-9.5549284603
-9.53839701022
-9.51809048331
-9.49390892001
-9.46575254309
-9.43352148346
-9.39711671208
-9.35643928045
-9.31139038975
-9.26187194599
-9.20778588414
-9.14903457503
-9.08552059567
-9.01714617568
-8.9438130908
-8.86542234454
-8.78187402941
-8.69306593338
-8.59889313313
-8.4992477788
-8.39401766238
-8.28308568393
-8.16632893257
-8.04361862109
-7.91482178994
-7.7798033185
-7.63843375027
-7.49060260702
-7.3362405572
-7.17535608019
-7.00808501796
-6.83474914253
-6.65580872912
-6.47159675826
-6.28269372056
-1.75097348853
-1.7459920716
-1.82996932784
-1.95075771081
-2.07740107001
-2.20008056644
-2.31497745922
-2.42117372035
-2.51945676234
-2.61124595094
-2.69800690714
-2.78102210156
-2.86132629267
-2.93971313996
-3.01677065554
-3.09292327477
-3.16847112378
-3.24362249803
-3.31851938885
-3.39325685355
-3.46789729412
-3.54248065053
-3.6170316735
-3.69156550708
-3.76608984844
-3.84060919124
-3.91512503026
-3.9896372958
-4.06414508669
-4.13864703553
-4.21314149712
-4.28762668257
-4.36210080831
-4.43656212197
-4.5110087908
-4.58543892388
-4.65985062495
-4.73424198963
-4.80861095128
-4.88295528885
-4.95727268172
-5.03156068093
-5.10581665193
-5.18003774108
-5.25422088666
-5.32836278148
-5.40245989562
-5.47650846558
-5.55050441773
-5.62444332363
-5.69832045805
-5.77213080641
-5.8458689935
-5.91952917369
-5.99310509622
-6.06659010339
-6.13997710643
-6.21325846056
-6.28642601623
-6.35947109435
-6.43238442269
-6.5051561216
-6.57777566636
-6.65023187983
-6.72251287882
-6.79460598063
-6.86649774305
-6.93817396456
-7.00961956433
-7.08081853891
-7.15175397216
-7.22240796721
-7.29276157877
-7.36279479933
-7.43248657723
-7.50181469166
-7.57075564208
-7.63928476365
-7.7073761947
-7.77500265509
-7.8421354169
-7.90874436507
-7.97479798754
-8.04026331055
-8.10510573719
-8.16928902776
-8.23277537565
-8.29552529934
-8.35749759529
-8.41864930012
-8.47893561253
-8.53830996142
-8.59672388799
-8.65412701927
-8.71046716652
-8.76569012713
-8.81973971623
-8.87255787958
-8.92408457763
-8.97425767029
-9.02301302305
-9.0702846158
-9.11600431067
-9.16010196041
-9.20250562519
-9.24314137782
-9.28193315271
-9.31880299695
-9.35367135996
-9.38645682169
-9.41707594768
-9.44544373476
-9.47147374194
-9.49507761509
-9.51616551067
-9.53464649219
-9.55042812487
-9.56341666132
-9.57351721154
-9.58063403048
-9.58467044608
-9.58552884082
-9.58311098885
-9.57731823961
-9.5680516173
-9.55521153382
-9.53869855873
-9.51841313064
-9.49425581843
-9.46612764273
-9.43392949828
-9.39756323035
-9.35693120314
-9.31193615296
-9.26248169697
-9.20847200819
-9.14981206433
-9.086407577
-9.01816488607
-8.94499059854
-8.86679144456
-8.78347468514
-8.69494728821
-8.60111543923
-8.50188480002
-8.39716009016
-8.28684533793
-8.17084409895
-8.04906058709
-7.92140280015
-7.78778601974
-7.64814113494
-7.50242679257
-7.35064607938
-7.19286851837
-7.02924965724
-6.86003233024
-6.68546114542
-6.50553687658
-6.31998760459
-1.87410251783
-1.84864326258
-1.89800439923
-1.98816324705
-2.09308842815
-2.20241051795
-2.31024741796
-2.41347118851
-2.51114501683
-2.60353548458
-2.69140693779
-2.77565093145
-2.85710632014
-2.9364843662
-3.01435229475
-3.09114438834
-3.16718356229
-3.24270451516
-3.31787446676
-3.39281049417
-3.46759316111
-3.54227693896
-3.61689793033
-3.69147972767
-3.76603629006
-3.84057703574
-3.91510678762
-3.98962788823
-4.06414111106
-4.13864626099
-4.21314251554
-4.28762863976
-4.36210316642
-4.43656456054
-4.51101118158
-4.58544124623
-4.65985287314
-4.734244146
-4.80861304256
-4.88295737282
-4.95727479572
-5.03156284184
-5.10581887982
-5.18004006655
-5.25422334747
-5.32836541501
-5.40246272589
-5.47651150579
-5.55050770504
-5.62444693171
-5.69832442559
-5.77213513329
-5.84587365319
-5.91953418893
-5.99311050024
-6.06659591685
-6.13998332914
-6.21326510246
-6.28643309804
-6.35947864
-6.43239247902
-6.50516475729
-6.57778493438
-6.6502417933
-6.72252345587
-6.7946172662
-6.86650978135
-6.93818680386
-7.00963327563
-7.08083319242
-7.15176961033
-7.22242462856
-7.2927793247
-7.36281368633
-7.43250664163
-7.50183601302
-7.57077833782
-7.6393088895
-7.70740175843
-7.77502970926
-7.84216406634
-7.90877472684
-7.97483014051
-8.04029729193
-8.10514160745
-8.169326881
-8.23281531097
-8.29556738878
-8.35754189139
-8.41869589709
-8.47898460892
-8.53836144333
-8.59677794382
-8.65418370237
-8.71052654692
-8.76575232106
-8.81980483117
-8.87262595794
-8.92415566792
-8.97433189496
-9.02309048134
-9.07036542347
-9.11608863955
-9.16018992955
-9.2025972768
-9.24323683148
-9.28203265851
-9.31890670955
-9.35377936036
-9.38656931857
-9.41719320579
-9.4455658785
-9.47160091071
-9.49521018849
-9.51630384288
-9.53479083223
-9.55057880741
-9.56357419814
-9.57368218794
-9.58080704719
-9.58485222184
-9.58572032231
-9.58331329495
-9.57753259323
-9.56827955666
-9.55545496617
-9.53895976287
-9.51869482447
-9.49456117812
-9.46646067253
-9.43429508809
-9.3979671112
-9.35738025238
-9.31243878677
-9.26304810857
-9.2091144872
-9.1505454416
-9.0872496737
-9.01913733306
-8.94611971129
-8.86810900169
-8.78501898215
-8.69676485605
-8.60326285923
-8.50443082381
-8.4001881714
-8.29045684968
-8.17516243731
-8.05423538717
-7.92761480083
-7.79525232461
-7.657119119
-7.51321515287
-7.36357999467
-7.208302959
-7.04752747957
-6.88143275009
-6.71016101495
-6.53365682318
-6.35161937685
-1.94814439963
-1.91709190943
-1.94702415137
-2.0167957182
-2.10596431197
-2.2048409706
-2.30672016823
-2.40719258111
-2.50411917519
-2.59686546686
-2.68560264588
-2.77086905148
-2.85331418185
-2.93356195537
-3.01215094088
-3.08951771588
-3.16600173446
-3.24185919897
-3.31727887945
-3.39239715182
-3.46731077198
-3.54208725469
-3.61677297978
-3.69139943684
-3.76598588388
-3.84054657217
-3.91508931471
-3.9896186967
-4.06413705217
-4.13864524309
-4.21314319274
-4.2876302106
-4.36210515518
-4.43656666395
-4.51101323553
-4.58544321922
-4.65985477973
-4.73424598538
-4.80861481312
-4.8829591019
-4.95727653249
-5.03156462178
-5.10582071756
-5.18004196578
-5.25422533224
-5.32836753682
-5.4024650257
-5.47651398579
-5.55051035563
-5.62444977358
-5.69832749782
-5.77213843598
-5.84587719976
-5.91953798854
-5.99311458196
-6.06660031879
-6.1399880706
-6.21327022426
-6.28643861423
-6.35948454815
-6.43239878829
-6.5051715116
-6.57779219262
-6.65024957211
-6.72253174964
-6.79462610853
-6.86651922406
-6.93819687881
-7.00964401168
-7.08084463818
-7.15178181714
-7.22243762804
-7.29279314673
-7.36282837198
-7.43252222553
-7.50185254164
-7.57079589591
-7.63932755009
-7.70742154622
-7.77505064172
-7.84218618666
-7.90879811707
-7.97485488795
-8.0403234524
-8.10516923163
-8.1693560165
-8.23284602264
-8.29559976884
-8.35757600291
-8.41873180074
-8.4790223767
-8.53840114814
-8.59681968605
-8.6542275498
-8.71057253856
-8.76580053656
-8.81985538487
-8.87267892329
-8.92421107992
-8.97438986141
-9.0231511094
-9.07042875572
-9.11615476928
-9.16025901643
-9.20266940215
-9.24331199864
-9.2821109973
-9.31898842994
-9.35386456267
-9.386658091
-9.41728577939
-9.44566246543
-9.4717016138
-9.49531525079
-9.51641363909
-9.53490569905
-9.55069907279
-9.56370029306
-9.57381469297
-9.58094658581
-9.58499950269
-9.58587625207
-9.58347904245
-9.57770944471
-9.56846903287
-9.55565896045
-9.53918055226
-9.51893519088
-9.49482432133
-9.4667505002
-9.43461644787
-9.39832575715
-9.35778301511
-9.31289390462
-9.26356552653
-9.20970616663
-9.15122583308
-9.08803603608
-9.02005031142
-8.94718431125
-8.86935541772
-8.78648336598
-8.69849059656
-8.60530214518
-8.50684652187
-8.40305575552
-8.29386668808
-8.17922271915
-8.05907500965
-7.93338624239
-7.80213427397
-7.6653177922
-7.52296263799
-7.37512916889
-7.22191697174
-7.06346326245
-6.89992634085
-6.73144233072
-6.55804566443
-6.37967352708
-1.99037724236
-1.95881076146
-1.97845737131
-2.03590243685
-2.11491605226
-2.206694661
-2.30431223247
-2.40269991661
-2.49898146937
-2.59191529952
-2.6812478042
-2.76725175295
-2.85042765343
-2.93132684697
-3.01046110646
-3.08826543152
-3.16508984535
-3.24120575957
-3.31681776603
-3.39207668262
-3.46709154465
-3.54193979147
-3.61667551057
-3.69133559094
-3.76594635679
-3.84052272507
-3.91507558259
-3.9896114229
-4.06413379081
-4.13864437139
-4.21314365358
-4.28763136177
-4.36210664324
-4.43656827508
-4.5110148309
-4.58544474017
-4.65985623874
-4.73424740201
-4.8086161875
-4.88296044033
-4.95727786347
-5.03156597971
-5.10582212532
-5.18004342723
-5.25422684917
-5.32836914148
-5.40246676066
-5.47651587228
-5.55051238373
-5.62445194485
-5.69832984647
-5.77214099048
-5.84587995677
-5.91954096014
-5.99311779402
-6.06660377472
-6.1399917596
-6.21327415171
-6.28644281222
-6.35948904345
-6.43240358482
-6.5051766095
-6.57779762964
-6.6502553906
-6.72253795259
-6.79463270935
-6.86652627084
-6.93820440699
-7.00965202971
-7.08085316648
-7.15179089704
-7.22244729232
-7.29280342174
-7.36283930401
-7.432533849
-7.50186486078
-7.57080894295
-7.63934138927
-7.70743622324
-7.77506618073
-7.84220260473
-7.90881545198
-7.9748732106
-8.04034282234
-8.10518969286
-8.16937759744
-8.23286873957
-8.29562367853
-8.35760116501
-8.41875825562
-8.47905016206
-8.53843029035
-8.59685026108
-8.65425964122
-8.71060616595
-8.76583571526
-8.81989218502
-8.87271743761
-8.9242513545
-8.97443197284
-9.02319514581
-9.07047473201
-9.11620273126
-9.1603091032
-9.20272175694
-9.24336663097
-9.28216794349
-9.31904787402
-9.35392663319
-9.38672281912
-9.41735332393
-9.44573310504
-9.47177550889
-9.49539256823
-9.51649467541
-9.53499081246
-9.55078862419
-9.56379467687
-9.57391446391
-9.58105240151
-9.58511209332
-9.58599646564
-9.58360799369
-9.57784845925
-9.56861967607
-9.55582310572
-9.53936040106
-9.51913355561
-9.49504448207
-9.46699627856
-9.43489254372
-9.39863782932
-9.35813784937
-9.31329956375
-9.26403163151
-9.21024427211
-9.15184986225
-9.08876267596
-9.02089935706
-8.9481794291
-8.8705250681
-8.7878614775
-8.70011762094
-8.60722626375
-8.50912516319
-8.4057573093
-8.29707209825
-8.18302750797
-8.06359148411
-7.9387455203
-7.80848746914
-7.67283705478
-7.53184051867
-7.38557585798
-7.23415685547
-7.0777329801
-6.91648104087
-6.75058926091
-6.58023277259
-6.40561250298
-2.00962562918
-1.97852689725
-1.99375233512
-2.04541930602
-2.11947697373
-2.20767836495
-2.30308231105
-2.40035103808
-2.49626305841
-2.58927376169
-2.6789090315
-2.76529961168
-2.84886409872
-2.93011272932
-3.009541214
-3.0875825982
-3.16459198197
-3.24084865091
-3.3165655663
-3.39190128113
-3.46697147702
-3.54185900215
-3.61662224718
-3.69130154075
-3.76592478876
-3.84050963015
-3.91506805279
-3.98960744235
-4.06413201346
-4.13864392297
-4.21314395508
-4.2876320457
-4.36210751327
-4.43656923491
-4.51101581281
-4.58544569612
-4.65985715974
-4.73424830307
-4.80861708115
-4.88296133083
-4.95727875565
-5.03156688045
-5.10582306118
-5.18004442283
-5.25422790344
-5.32837024316
-5.40246792568
-5.47651714065
-5.55051376964
-5.62445343164
-5.69833143262
-5.77214269761
-5.84588179725
-5.9195429458
-5.99311993907
-6.06660609773
-6.13999425389
-6.21327679885
-6.28644561815
-6.35949203923
-6.43240679531
-6.50518002522
-6.57780125072
-6.65025924521
-6.72254205766
-6.79463706671
-6.8665309001
-6.93820934252
-7.00965729759
-7.08085877325
-7.15179684569
-7.22245359303
-7.29281009641
-7.36284640223
-7.43254141396
-7.50187288786
-7.57081742225
-7.63935034523
-7.7074456845
-7.7750761735
-7.84221316104
-7.90882659878
-7.97488497401
-8.0403552273
-8.10520278017
-8.16939140275
-8.23288325725
-8.29563892596
-8.35761718064
-8.41877506614
-8.47906779997
-8.53844875553
-8.59686957728
-8.65427987931
-8.71062735517
-8.76585784826
-8.81991528753
-8.87274158141
-8.92427657526
-8.97445828674
-9.02322262688
-9.07050343668
-9.11623266093
-9.1603403173
-9.20275437814
-9.24340071081
-9.28220348884
-9.31908501145
-9.35396550593
-9.38676345155
-9.41739580384
-9.44577769434
-9.47182244356
-9.4954420009
-9.51654680688
-9.53504594151
-9.55084714943
-9.56385706661
-9.57398122306
-9.58112412849
-9.58518952729
-9.58608048269
-9.58369969416
-9.57794916326
-9.56873094517
-9.55594683023
-9.53949874132
-9.51928925953
-9.49522086846
-9.46719715544
-9.43512252025
-9.39890244111
-9.35844376707
-9.31365472431
-9.26444549689
-9.21072812601
-9.15241712916
-9.08942952014
-9.02168494459
-8.94910645439
-8.87162068215
-8.78915788282
-8.70165307158
-8.60904604059
-8.51128263619
-8.40831559111
-8.30010557656
-8.18662327848
-8.06785097484
-7.94378632961
-7.81444478529
-7.67986499413
-7.54011260323
-7.39528626866
-7.24552240394
-7.09099862563
-6.93193475974
-6.76859470567
-6.60129168219
-6.43043551847
-2.0096255762
-1.9785269101
-1.99375227337
-2.04541942966
-2.11947693625
-2.20767839971
-2.30308238539
-2.40035107541
-2.49626308642
-2.58927380795
-2.67890908875
-2.76529966856
-2.8488641445
-2.93011277628
-3.00954126527
-3.08758264007
-3.16459202668
-3.24084869988
-3.3165656193
-3.39190133319
-3.46697152303
-3.5418590452
-3.61662228958
-3.69130158317
-3.76592482485
-3.84050967693
-3.91506812281
-3.98960752916
-4.06413211618
-4.13864404985
-4.2131441127
-4.28763222134
-4.36210770322
-4.43656945724
-4.51101608137
-4.58544599992
-4.65985748439
-4.73424864419
-4.80861744575
-4.88296172885
-4.95727918259
-5.03156732308
-5.10582352133
-5.18004493002
-5.25422846701
-5.32837083866
-5.40246853995
-5.4765177984
-5.55051449882
-5.62445422145
-5.69833226769
-5.7721435898
-5.84588276573
-5.9195439897
-5.99312106279
-6.06660732006
-6.13999557716
-6.21327818931
-6.28644705576
-6.35949355219
-6.43240841746
-6.50518174953
-6.57780305102
-6.6502611347
-6.72254405945
-6.79463917946
-6.86653312173
-6.93821169447
-7.00965980526
-7.08086143613
-7.151799649
-7.22245653404
-7.29281319047
-7.36284968008
-7.43254490043
-7.50187657923
-7.57082130678
-7.63935442353
-7.70744995203
-7.77508063354
-7.84221784563
-7.90883153383
-7.97489016954
-8.04036068504
-8.10520850494
-8.16939742192
-8.23288957145
-8.29564551455
-8.3576240375
-8.4187822001
-8.47907525425
-8.53845652756
-8.59687762613
-8.65428822683
-8.71063604281
-8.76586688024
-8.81992465368
-8.87275132244
-8.92428671168
-8.97446878574
-9.02323353663
-9.07051482996
-9.11624455501
-9.16035269233
-9.20276728268
-9.24341423449
-9.28221764788
-9.31909985361
-9.35398115376
-9.38677998482
-9.4174132772
-9.44579626405
-9.47184231505
-9.49546337105
-9.51656990218
-9.53507103681
-9.5508746139
-9.56388731598
-9.57401474383
-9.58116154197
-9.58523160746
-9.58612810492
-9.58375391712
-9.5780112855
-9.56880251305
-9.55602979564
-9.53959529689
-9.51940203481
-9.49535316425
-9.46735282783
-9.4353061976
-9.39911960833
-9.35870099561
-9.31395988834
-9.26480795479
-9.21115909782
-9.15292988004
-9.09003987277
-9.02241176384
-8.94997202156
-8.87265145473
-8.79038516982
-8.70311392407
-8.61078423823
-8.51334965742
-8.41077193794
-8.30302215452
-8.19008301581
-8.07195027281
-7.94863692271
-7.82017539686
-7.68662348808
-7.54806843068
-7.4046329037
-7.25648263047
-7.10383236936
-6.94695426992
-6.78618791036
-6.62195727322
-6.45481124072
-1.99037707199
-1.95881083974
-1.97845719974
-2.0359027917
-2.11491593013
-2.20669475406
-2.30431243147
-2.40270003392
-2.49898159942
-2.59191546617
-2.68124796342
-2.76725191885
-2.85042779673
-2.93132699285
-3.01046125593
-3.08826555738
-3.1650899763
-3.24120590408
-3.31681792529
-3.39207683631
-3.46709168397
-3.54193992283
-3.61667563108
-3.69133570753
-3.76594646274
-3.84052287506
-3.91507580389
-3.98961169444
-4.06413410808
-4.138644761
-4.21314412173
-4.28763188139
-4.36210721807
-4.43656895491
-4.51101563487
-4.58544563598
-4.65985719999
-4.73424842457
-4.8086172842
-4.88296162108
-4.95727913101
-5.03156731464
-5.10582352864
-5.18004495022
-5.25422851375
-5.32837091159
-5.40246861597
-5.47651786672
-5.55051457183
-5.62445430163
-5.6983323492
-5.77214367596
-5.8458828634
-5.91954410113
-5.99312117513
-6.06660742734
-6.13999568563
-6.21327829655
-6.28644714142
-6.35949360176
-6.43240844774
-6.50518176719
-6.5778030325
-6.65026106797
-6.7225439577
-6.79463904878
-6.86653295548
-6.93821148856
-7.00965955741
-7.08086113417
-7.1517992838
-7.22245611911
-7.29281272779
-7.36284915077
-7.43254430597
-7.5018759317
-7.57082059404
-7.63935361569
-7.70744902499
-7.77507958094
-7.84221668017
-7.90883026622
-7.97488880056
-8.04035920325
-8.10520689007
-8.16939567238
-8.23288767124
-8.29564342076
-8.35762173588
-8.41877967927
-8.47907252286
-8.53845359064
-8.59687442191
-8.65428472098
-8.71063224967
-8.76586280792
-8.81992028119
-8.87274663669
-8.92428173084
-8.97446348778
-9.02322790273
-9.07050889954
-9.11623835034
-9.16034619523
-9.20276049121
-9.24340720386
-9.2822103796
-9.31909234837
-9.35397352495
-9.38677235461
-9.41740568482
-9.4457887883
-9.47183511005
-9.49545662219
-9.51656385776
-9.53506598467
-9.55087087453
-9.56388527355
-9.57401490135
-9.58116453521
-9.58523818817
-9.58613914129
-9.58377048187
-9.57803469936
-9.56883428712
-9.55607186025
-9.53964989121
-9.51947177401
-9.49544134539
-9.4674633102
-9.43544365077
-9.39928958407
-9.35891010486
-9.31421608639
-9.2651206021
-9.21153947202
-9.1533913488
-9.09059825293
-9.02308601762
-8.95078456228
-8.87362879916
-8.79155867247
-8.70452062001
-8.61246788256
-8.51536167361
-8.41317265934
-8.3058821276
-8.19348486441
-8.0759902471
-7.95342653291
-7.82584415155
-7.69332068015
-7.55596675174
-7.41393153985
-7.26741320576
-7.11666538805
-6.96200987372
-6.8038488988
-6.64268274732
-6.47913813718
-1.94814408963
-1.91709221847
-1.94702380506
-2.01679621052
-2.10596417702
-2.20484112779
-2.30672044753
-2.40719278096
-2.50411941283
-2.59686574632
-2.68560291852
-2.77086932575
-2.85331443175
-2.93356220951
-3.01215117514
-3.08951791226
-3.16600194331
-3.24185943687
-3.31727913606
-3.3923973985
-3.46731100788
-3.54208747541
-3.61677316969
-3.69139960407
-3.76598606659
-3.84054684487
-3.91508970037
-3.98961916809
-4.06413760785
-4.13864590833
-4.21314396689
-4.28763107063
-4.36210613164
-4.43656781387
-4.51101456226