/*--------------------------------*- C++ -*----------------------------------*\
| =========                 |                                                 |
| \\      /  F ield         | OpenFOAM: The Open Source CFD Toolbox           |
|  \\    /   O peration     | Version:  2106                                  |
|   \\  /    A nd           | Website:  www.openfoam.com                      |
|    \\/     M anipulation  |                                                 |
\*---------------------------------------------------------------------------*/
FoamFile
{
    version     2.0;
    format      ascii;
    arch        "LSB;label=32;scalar=64";
    class       volScalarField;
    location    "0.26";
    object      p;
}
// * * * * * * * * * * * * * * * * * * * * * * * * * * * * * * * * * * * * * //

dimensions      [0 2 -2 0 0 0 0];

internalField   nonuniform List<scalar> 
9600
(
2.24252553559
-0.655483542876
-1.55971548992
-1.9453253805
-2.16465623387
-2.30459828361
-2.40850295733
-2.49605283613
-2.57555227045
-2.65094261382
-2.72431697146
-2.79682574123
-2.86909869104
-2.9414669775
-3.01408705673
-3.08701478697
-3.16025035319
-3.23376540754
-3.30751964126
-3.38147015386
-3.45557617427
-3.52980321968
-3.60412077986
-3.67850467068
-3.75293562069
-3.82739856173
-3.90188189035
-3.97637668811
-4.05087613002
-4.12537499657
-4.19986921927
-4.27435549063
-4.34883101428
-4.42329339982
-4.49774057269
-4.57217066661
-4.64658185735
-4.72097222254
-4.79533971742
-4.86968221477
-4.94399751284
-5.01828323272
-5.09253669969
-5.16675498686
-5.24093491234
-5.31507320575
-5.38916644676
-5.46321098083
-5.53720283074
-5.61113773233
-5.68501103546
-5.75881764168
-5.83255196633
-5.9062080538
-5.97977965531
-6.05326010799
-6.12664227393
-6.19991851044
-6.27308063606
-6.34611997777
-6.41902737527
-6.49179301699
-6.56440635679
-6.63685615674
-6.7091304794
-6.78121660229
-6.85310094872
-6.92476912425
-6.99620594888
-7.06739547102
-7.13832090463
-7.20896447446
-7.27930729029
-7.34932933675
-7.41900948997
-7.48832543577
-7.55725363778
-7.62576931835
-7.69384642898
-7.76145760678
-7.8285741247
-7.89516583088
-7.96120107371
-8.02664672852
-8.09146828093
-8.15562968124
-8.21909306597
-8.28181875512
-8.34376556026
-8.40489083445
-8.4651500159
-8.52449637814
-8.58288126828
-8.64025432128
-8.6965634051
-8.75175440284
-8.80577117394
-8.85855559315
-8.91004747221
-8.96018454544
-9.00890252142
-9.05613528699
-9.10181482587
-9.14587109989
-9.18823223002
-9.22882437913
-9.2675715433
-9.30439550801
-9.33921634538
-9.37195270639
-9.40252148185
-9.43083797107
-9.45681562142
-9.48036596663
-9.50139902387
-9.51982321654
-9.53554585615
-9.54847306023
-9.55850979826
-9.56556035667
-9.56952751291
-9.57031309989
-9.56781835349
-9.561943787
-9.55258982191
-9.53965530388
-9.52303883714
-9.50263877415
-9.47835348008
-9.45008083992
-9.41771802764
-9.38116222625
-9.34031079048
-9.29505985972
-9.24530465777
-9.19093934644
-9.13185630777
-9.0679459441
-8.99909564112
-8.9251886759
-8.84610241716
-8.76170718991
-8.6718645354
-8.57642385936
-8.47521719819
-8.36805627206
-8.25472615558
-8.13497276504
-8.00849246835
-7.87491381935
-7.7337696537
-7.58445385467
-7.42614748545
-7.25769399755
-7.07738477367
-6.88264399206
-6.66954402935
-6.43225958433
-6.17144731339
-5.94968680752
0.330983803987
-0.851369146481
-1.46004340003
-1.81406696668
-2.0566830817
-2.22724569378
-2.35531678267
-2.45981972232
-2.55089565
-2.63417424473
-2.71294755627
-2.78916477463
-2.86398513177
-2.93809717972
-3.01190296047
-3.08562906008
-3.15939537143
-3.23325766444
-3.3072345583
-3.38132424836
-3.4555150857
-3.52979057282
-3.60413399313
-3.67852999131
-3.75296498562
-3.82742753406
-3.90190824704
-3.97639955231
-4.0508954355
-4.12539108701
-4.19988258998
-4.2743666742
-4.34884052171
-4.42330169877
-4.4977480944
-4.57217777343
-4.64658881339
-4.72097921957
-4.79534694188
-4.86968986636
-4.94400574871
-5.01829215249
-5.09254637704
-5.16676543
-5.24094619049
-5.31508540833
-5.38917966091
-5.46322532942
-5.53721842126
-5.61115462355
-5.68502929913
-5.75883736468
-5.83257325877
-5.90623101959
-5.97980441762
-6.05328681211
-6.12667102176
-6.1999494065
-6.27311384766
-6.34615569351
-6.41906575787
-6.49183424928
-6.56445064714
-6.6369036936
-6.70918141594
-6.78127111059
-6.85315924723
-6.92483145165
-6.99627254512
-7.06746658285
-7.13839680442
-7.20904546614
-7.27939368507
-7.34942141133
-7.41910751715
-7.48842971847
-7.55736447434
-7.62588700607
-7.69397132965
-7.76159016148
-7.82871473079
-7.89531477456
-7.96135867704
-8.02681347521
-8.09164470458
-8.15581618415
-8.2192899581
-8.28202645986
-8.34398464905
-8.40512185497
-8.46539340234
-8.52475254125
-8.58315069676
-8.64053755267
-8.69686096098
-8.75206677839
-8.80609884788
-8.8588990633
-8.91040729141
-8.96056125679
-9.00929660198
-9.05654719398
-9.10224520654
-9.14632070086
-9.18870161367
-9.22931389726
-9.2680816361
-9.30492676883
-9.33976927212
-9.37252778011
-9.40311911813
-9.43145838462
-9.45745903855
-9.48103265862
-9.50208940923
-9.52053773323
-9.53628488896
-9.54923711747
-9.5592992899
-9.56637553244
-9.57036886172
-9.57118120243
-9.56871383303
-9.5628672777
-9.55354057235
-9.54063299971
-9.5240441653
-9.50367278925
-9.47941730139
-9.45117652938
-9.41884879278
-9.38233159803
-9.34152290296
-9.29632008619
-9.24662002838
-9.19231890548
-9.13331132604
-9.06949030723
-9.0007463527
-8.9269670266
-8.84803559748
-8.76382936887
-8.67421788943
-8.57906180666
-8.47820815385
-8.37148671237
-8.25870698408
-8.13964818409
-8.01405211971
-7.88161184216
-7.74195490738
-7.59462276633
-7.43904068884
-7.27448409358
-7.1000512669
-6.91471851679
-6.71756004846
-6.50755880896
-6.28483143468
-6.07111826578
-0.644858252002
-1.12622497706
-1.51748358959
-1.80909873846
-2.03067184886
-2.19860743296
-2.33070850937
-2.44049724351
-2.53635637367
-2.62350114999
-2.70524354497
-2.78367818396
-2.86012511449
-2.93541421688
-3.01006187068
-3.08438332164
-3.15856574572
-3.23271530445
-3.30688786154
-3.38110883782
-3.45538605063
-3.52971743771
-3.60409612967
-3.67851365812
-3.752961214
-3.82743059514
-3.90191461233
-3.97640717
-4.05090320098
-4.12539845627
-4.19988931866
-4.27437268456
-4.34884586324
-4.42330652008
-4.49775257171
-4.57218203801
-4.64659293362
-4.72098324341
-4.79535094447
-4.86969392907
-4.94400992669
-5.01829644519
-5.09255078976
-5.16677004398
-5.24095111398
-5.31509074488
-5.38918554218
-5.46323180774
-5.53722555328
-5.61116242811
-5.68503776642
-5.75884646329
-5.83258302388
-5.90624153541
-5.97981574238
-6.05329896851
-6.12668402445
-6.19996329831
-6.27312875295
-6.34617175685
-6.41908306894
-6.49185286788
-6.56447065483
-6.63692518453
-6.70920444634
-6.78129571648
-6.85318549801
-6.92485948603
-6.99630254956
-7.06749872789
-7.13843119238
-7.20908216997
-7.27943281422
-7.34946307724
-7.41915180288
-7.48847673014
-7.5574143771
-7.62593998034
-7.69402754078
-7.76164977714
-7.8287779082
-7.89538164119
-7.96142940218
-8.02688832128
-8.09172390427
-8.15589983851
-8.21937819026
-8.28211958359
-8.3440830102
-8.40522559996
-8.46550258141
-8.52486732593
-8.58327136969
-8.64066436601
-8.69699408897
-8.7522063837
-8.80624510108
-8.85905211254
-8.9105672717
-8.96072834709
-9.00947107633
-9.05672924518
-9.10243497088
-9.14651838926
-9.18890749509
-9.22952811869
-9.26830427698
-9.30515801286
-9.34000933475
-9.37277697302
-9.40337805832
-9.43172777905
-9.45773922107
-9.48132379612
-9.5023916928
-9.52085150844
-9.53661060994
-9.54957555375
-9.55965115204
-9.56674127275
-9.57074898484
-9.57157626988
-9.5691247029
-9.56329522937
-9.55398780405
-9.5411017543
-9.52453671244
-9.50419180191
-9.47996542512
-9.45175656799
-9.41946447348
-9.38298750898
-9.34222424305
-9.29707310595
-9.24743230894
-9.1931999076
-9.13427305592
-9.07054759843
-9.00191705864
-8.92827302792
-8.84950462606
-8.76549632539
-8.67612560663
-8.58126374163
-8.48077272634
-8.37450033778
-8.26227939028
-8.14392128225
-8.01921107639
-7.8879021289
-7.74970760787
-7.60429421046
-7.45127781713
-7.29023099049
-7.12071734877
-6.94240616835
-6.75536139409
-6.56016515216
-6.35797912185
-6.15728171116
-1.19631834058
-1.38266338985
-1.62511063128
-1.84757776521
-2.03476768746
-2.18879543814
-2.31723230315
-2.42752281954
-2.52531790449
-2.61467813861
-2.69844929928
-2.77857607638
-2.85636572623
-2.93268744118
-3.00811184987
-3.08300759183
-3.15760830253
-3.23205836792
-3.30644402311
-3.38081413678
-3.45519417525
-3.52959541301
-3.60402124494
-3.67846953992
-3.75293683962
-3.82741855422
-3.90191001252
-3.97640686976
-4.05090523606
-4.125401626
-4.19989290597
-4.2743762883
-4.3488493118
-4.42330977828
-4.49775565242
-4.57218495665
-4.64659571271
-4.72098593492
-4.79535360422
-4.86969660327
-4.94401263413
-5.01829920564
-5.09255362988
-5.16677303722
-5.24095436403
-5.31509433926
-5.38918948383
-5.46323606588
-5.53723011144
-5.61116735482
-5.6850430588
-5.75885211765
-5.83258905613
-5.90624799578
-5.97982264259
-6.05330630969
-6.12669184639
-6.19997166674
-6.27313775728
-6.34618151607
-6.41909368338
-6.49186437321
-6.56448305532
-6.63693846917
-6.70921863286
-6.78131083419
-6.85320159917
-6.92487665751
-6.9963209252
-7.06751844441
-7.13845232886
-7.20910475512
-7.27945685649
-7.34948861725
-7.41917887158
-7.48850536945
-7.55744469575
-7.62597213645
-7.69406164436
-7.76168586103
-7.82881602804
-7.89542193654
-7.96147205145
-8.02693347491
-8.09177164304
-8.15595021408
-8.21943133983
-8.28217575643
-8.34414242807
-8.40528833328
-8.46556864933
-8.5249368579
-8.5833445723
-8.6407413866
-8.69707498375
-8.75229121857
-8.80633402537
-8.85914528776
-8.91066481926
-8.96083056574
-9.00957830547
-9.05684181728
-9.10255307627
-9.14664221892
-9.18903735941
-9.22966431967
-9.2684469718
-9.3053073427
-9.34016555545
-9.37294031559
-9.40354866169
-9.43190563497
-9.45792446428
-9.4815166025
-9.50259217689
-9.52105992491
-9.53682737139
-9.54980113927
-9.55988611888
-9.56698608103
-9.57100404692
-9.57184228604
-9.5694022115
-9.56358497369
-9.55429104043
-9.54142007237
-9.52487190969
-9.50454616321
-9.48034180607
-9.45215821718
-9.4198955079
-9.38345316807
-9.34273083307
-9.29762825738
-9.24804519024
-9.19388161185
-9.1350371638
-9.07141084539
-9.0029000611
-8.92940100428
-8.85080852392
-8.76701449016
-8.67790552711
-8.58336415912
-8.48326758788
-8.37748269773
-8.26586625724
-8.14826192522
-8.02449742953
-7.89438399748
-7.75771408559
-7.61426313937
-7.46379959303
-7.30610677739
-7.14102515405
-6.96853988728
-6.78894652727
-6.60290902807
-6.41132493629
-6.21732705203
-1.53366331458
-1.58542553988
-1.72932041875
-1.89361313414
-2.04794494731
-2.18600275541
-2.30815622879
-2.41694439277
-2.5153888949
-2.60621931807
-2.69162697793
-2.77326497791
-2.85233486515
-2.92968847296
-3.00591763717
-3.08142609202
-3.15648446855
-3.23127084513
-3.30590002751
-3.38044409005
-3.45494673754
-3.52943327914
-3.60391743298
-3.67840486288
-3.75289805193
-3.82739657019
-3.90189868447
-3.97640211581
-4.05090437224
-4.12540291487
-4.19989527473
-4.2743791317
-4.34885231792
-4.42331278498
-4.49775856574
-4.57218773863
-4.6465983938
-4.72098856407
-4.79535620865
-4.86969919185
-4.94401523048
-5.01830185828
-5.09255640595
-5.16677601646
-5.24095763554
-5.31509799299
-5.38919357735
-5.46324063266
-5.53723515971
-5.61117286585
-5.68504902105
-5.75885853276
-5.83259595152
-5.90625535789
-5.97983047732
-6.05331464723
-6.12670077153
-6.19998126527
-6.27314808236
-6.34619262707
-6.41910565704
-6.4918772645
-6.56449689107
-6.63695327419
-6.70923444809
-6.78132772879
-6.85321966942
-6.92489601452
-6.99634167511
-7.06754069209
-7.13847617868
-7.20913026165
-7.27948401681
-7.34951746315
-7.41920951124
-7.48853791784
-7.55747922479
-7.62600873256
-7.6941004349
-7.76172696041
-7.82885955061
-7.89546805113
-7.96152091489
-8.02698514963
-8.09182619706
-8.1560078547
-8.21949231583
-8.28224018091
-8.3442103397
-8.40535986466
-8.4656439715
-8.52501605907
-8.58342771325
-8.64082857241
-8.69716630629
-8.75238673278
-8.80643383261
-8.85924955002
-8.91077364184
-8.96094396388
-9.00969640144
-9.05696481773
-9.10268110219
-9.14677527766
-9.1891755523
-9.22980786478
-9.26859595247
-9.30546180631
-9.34032578401
-9.37310663237
-9.40372134094
-9.43208480284
-9.45811022229
-9.48170915118
-9.50279174632
-9.52126695907
-9.5370423237
-9.55002430861
-9.56011803404
-9.56722721969
-9.57125498563
-9.57210375273
-9.56967513189
-9.56387030001
-9.55459034935
-9.54173533635
-9.52520503851
-9.50489953406
-9.4807186276
-9.45256223514
-9.42033104
-9.38392558917
-9.34324675587
-9.29819584786
-9.24867453993
-9.19458492396
-9.13582893294
-9.07230868828
-9.00392608285
-8.9305824414
-8.8521781752
-8.76861253019
-8.67978207772
-8.58558094289
-8.48590107714
-8.38062839185
-8.26964297952
-8.1528191949
-8.03002437816
-7.9011208277
-7.76596815082
-7.62442813201
-7.47638022682
-7.32174358788
-7.16050915947
-6.99279116455
-6.81888648262
-6.63923177859
-6.45415445582
-6.2642715335
-1.73773725152
-1.73275793093
-1.81673281042
-1.93752200319
-2.06416375466
-2.18684340457
-2.30174037257
-2.40793639006
-2.50621972363
-2.59800924954
-2.68477019628
-2.76778530957
-2.84808930016
-2.9264758183
-3.00353290857
-3.07968515205
-3.15523267788
-3.23038373134
-3.30528035346
-3.38001764671
-3.45465793714
-3.52924109997
-3.60379182136
-3.67832520073
-3.75284893153
-3.82736756263
-3.90188267211
-3.97639428667
-4.0509015141
-4.12540292256
-4.19989683562
-4.27438148128
-4.34885502288
-4.42331558833
-4.49776130792
-4.57219035701
-4.64660090228
-4.72099099791
-4.79535858251
-4.86970151783
-4.94401754388
-5.01830422238
-5.0925588796
-5.16677865112
-5.24096048819
-5.31510111511
-5.38919700377
-5.46324436402
-5.53723917745
-5.61117714146
-5.68505356779
-5.75886336205
-5.83260106294
-5.90626076851
-5.979836197
-6.05332071945
-6.12670729351
-6.19998834105
-6.27315576855
-6.34620097694
-6.41911474039
-6.49188711815
-6.56450749673
-6.63696460736
-6.70924651211
-6.78134056788
-6.85323336192
-6.92491064855
-6.9963573302
-7.06755744956
-7.13849411043
-7.20914939869
-7.27950437787
-7.34953908941
-7.41923247278
-7.48856227698
-7.55750502469
-7.62603601584
-7.69412925966
-7.76175739002
-7.82889165922
-7.89550195139
-7.96155673425
-8.02702298919
-8.09186616739
-8.15605013709
-8.21953711391
-8.28228760828
-8.3442604419
-8.40541273793
-8.46569978006
-8.52507493274
-8.58348970176
-8.64089373571
-8.69723475323
-8.75245855989
-8.80650912798
-8.85932846774
-8.9108564073
-8.96103071315
-9.00978728072
-9.05706003959
-9.10278089037
-9.14687982128
-9.18928501039
-9.22992231865
-9.26871540075
-9.3055864031
-9.34045599349
-9.37324283567
-9.40386367878
-9.43223332995
-9.45826497146
-9.48187022652
-9.50295941946
-9.52144176163
-9.53722478581
-9.55021478979
-9.56031685247
-9.56743490789
-9.57147214341
-9.57233135759
-9.5699143332
-9.5641223544
-9.55485679871
-9.54201813336
-9.52550625127
-9.50522165564
-9.48106505972
-9.45293709042
-9.42073904658
-9.3843724682
-9.34373938778
-9.29874256288
-9.24928564568
-9.19527310526
-9.13660930393
-9.07319926466
-9.00494908484
-8.93176516728
-8.8535536223
-8.77022090357
-8.6816731059
-8.58781536185
-8.48855308115
-8.38378977828
-8.27342660403
-8.15736462923
-8.03550530482
-7.90775230856
-7.77401650761
-7.63422211065
-7.48832018036
-7.33630608321
-7.17823868807
-7.01426197527
-6.84460928705
-6.66952439912
-6.48902645524
-6.30290160812
-1.86086585639
-1.83540905936
-1.88476750762
-1.97492756934
-2.07985125412
-2.18917315506
-2.29701039715
-2.4002340468
-2.49790800806
-2.59029879613
-2.67817027459
-2.76241415116
-2.843869293
-2.92324700615
-3.00111450349
-3.07790617839
-3.15394503803
-3.22946571903
-3.3046354431
-3.3795713083
-3.45435384358
-3.52903744759
-3.60365812714
-3.67823945204
-3.75279539582
-3.82733545286
-3.90186450167
-3.97638494502
-4.05089757996
-4.12540217057
-4.19989786901
-4.27438344282
-4.34885739533
-4.42331807441
-4.49776376276
-4.57219271892
-4.64660314589
-4.7209931255
-4.79536062067
-4.86970350994
-4.94401954148
-5.01830626291
-5.09256099327
-5.16678087394
-5.2409628754
-5.31510372448
-5.38919987594
-5.46324753356
-5.5372426544
-5.61118091054
-5.68505761157
-5.75886766798
-5.83260561086
-5.90626558503
-5.97984132936
-6.05332621386
-6.1267131924
-6.19999469311
-6.27316262338
-6.34620839207
-6.41912278064
-6.49189581791
-6.56451684049
-6.63697457249
-6.70925712189
-6.78135188042
-6.85324543691
-6.92492354408
-6.99637111244
-7.06757219487
-7.13850988688
-7.20916624509
-7.27952232412
-7.34955818892
-7.41925280222
-7.48858389003
-7.55752793145
-7.62606022799
-7.6941548428
-7.76178443784
-7.82892024424
-7.89553214384
-7.9615886299
-8.02705670025
-8.09190182667
-8.156087892
-8.21957707547
-8.28232982529
-8.34430495903
-8.40545965507
-8.46574921442
-8.52512692814
-8.58354422424
-8.64095081279
-8.69729453277
-8.75252118374
-8.80657463032
-8.85939684769
-8.91092776319
-8.96110517408
-9.00986491848
-9.05714093133
-9.10286518097
-9.14696770252
-9.18937656862
-9.2300175783
-9.26881452578
-9.3056896816
-9.34056376438
-9.37335536179
-9.40398105501
-9.43235571554
-9.45839251457
-9.48200308122
-9.50309787936
-9.52158620736
-9.53737578278
-9.55037272496
-9.56048215236
-9.56760813556
-9.57165399156
-9.57252267596
-9.57011643076
-9.5643365973
-9.55508457486
-9.54226139199
-9.52576734103
-9.50550324308
-9.48137043639
-9.45327034263
-9.42110507685
-9.38477720703
-9.34418991284
-9.2992473013
-9.24985475487
-9.19591901647
-9.13734713632
-9.07404705452
-9.00592857254
-8.93290281083
-8.85488160693
-8.77177813229
-8.68350697688
-8.58998344972
-8.491124872
-8.38685019488
-8.27707881947
-8.16173386601
-8.04074472016
-7.91404696048
-7.78158862962
-7.64333699553
-7.49928682221
-7.34947410235
-7.19398388852
-7.03295682103
-6.86657264101
-6.69498656198
-6.51817157852
-6.33588363286
-1.93490743274
-1.90385786961
-1.9337868846
-2.00355988068
-2.09272744955
-2.1916035604
-2.29348315484
-2.39395563108
-2.49088225496
-2.58362877977
-2.67236599017
-2.75763226029
-2.84007710198
-2.92032452564
-2.9989130985
-3.07627945891
-3.15276319041
-3.22862042741
-3.30403990036
-3.37915799983
-3.45407148423
-3.52884780715
-3.60353322682
-3.67815919783
-3.75274501358
-3.82730503016
-3.90184710754
-3.97637582865
-4.05089355417
-4.12540117367
-4.19989859511
-4.27438506454
-4.34885939627
-4.42332017326
-4.4977658441
-4.57219473058
-4.64660504064
-4.72099488746
-4.79536229589
-4.86970517742
-4.94402124306
-5.01830798877
-5.09256274014
-5.16678268071
-5.24096481782
-5.31510586055
-5.38920222004
-5.46325008289
-5.53724540446
-5.61118385355
-5.68506073203
-5.75887094928
-5.83260904373
-5.90626921116
-5.97984523308
-6.05333045079
-6.12671778141
-6.19999966141
-6.2731680142
-6.34621425085
-6.41912913898
-6.49190268784
-6.56452420861
-6.63698242815
-6.70926548874
-6.78136080502
-6.85325495603
-6.92493368861
-6.99638192265
-7.06758370637
-7.13852213189
-7.20917927939
-7.27953623138
-7.34957303189
-7.4192685944
-7.48860062386
-7.55754561869
-7.62607890986
-7.69417457346
-7.76180526052
-7.82894218976
-7.89555527305
-7.96161305731
-8.0270825506
-8.09192918224
-8.15611679954
-8.21960761148
-8.2823621177
-8.34433911993
-8.40549573002
-8.46578721923
-8.52516690188
-8.58358621976
-8.64099489928
-8.69734083588
-8.75256984023
-8.80662570258
-8.85945031227
-8.91098363869
-8.96116354615
-9.00992583242
-9.05720444947
-9.10293143176
-9.14703678345
-9.18944846
-9.23009233957
-9.26889246713
-9.30577111011
-9.34064883866
-9.37344419822
-9.40407373514
-9.43245234806
-9.45849327013
-9.48210830281
-9.50320789964
-9.52170131444
-9.53749637833
-9.55049916692
-9.5606147967
-9.56774768222
-9.57180132121
-9.57267869062
-9.57028220983
-9.56451348237
-9.55527400168
-9.54246526821
-9.52598813361
-9.50574377052
-9.48163400234
-9.45356098152
-9.42142761207
-9.38513740696
-9.34459479267
-9.29970542259
-9.25037621055
-9.19651566967
-9.13803345194
-9.07484065191
-9.00685070262
-8.93397898139
-8.85614250459
-8.77326049947
-8.68525512826
-8.59205100476
-8.49357579142
-8.38976153164
-8.28054347439
-8.16586287427
-8.04567096922
-7.91992793164
-7.78860943568
-7.65171262607
-7.50926076152
-7.36131410566
-7.2079727614
-7.04937791199
-6.88569450568
-6.71707764421
-6.54359230936
-6.36522283621
-1.97713986737
-1.94557704441
-1.96522002611
-2.02266626851
-2.10167950077
-2.19345736582
-2.29107521679
-2.38946311068
-2.48574463054
-2.57867859448
-2.66801111495
-2.75401491485
-2.83719050036
-2.91808933438
-2.99722324078
-3.07502719993
-3.1518513413
-3.22796703891
-3.30357884393
-3.37883758614
-3.45385230917
-3.52870040448
-3.60343581819
-3.67809540691
-3.75270551481
-3.8272812072
-3.90183342627
-3.97636861941
-4.05089034267
-4.12540033681
-4.19989909582
-4.27438625198
-4.34886088285
-4.42332175849
-4.49776743759
-4.5721962757
-4.64660648871
-4.72099623314
-4.79536359549
-4.86970648986
-4.94402257717
-5.01830931928
-5.09256407289
-5.16678406277
-5.24096630028
-5.31510747788
-5.38920398943
-5.46325200273
-5.53724746607
-5.61118604596
-5.68506304822
-5.75887339664
-5.83261163682
-5.90627197734
-5.97984821308
-6.05333366993
-6.12672124887
-6.20000341804
-6.27317212023
-6.34621873886
-6.41913399688
-6.49190789851
-6.56452977615
-6.63698837503
-6.70927184312
-6.781367584
-6.85326216232
-6.92494132929
-6.99639001425
-7.06759225483
-7.13853115618
-7.20918887134
-7.27954652805
-7.34958410258
-7.41928039068
-7.48861307644
-7.5575587523
-7.62609280448
-7.69418926243
-7.76182073965
-7.82895847901
-7.89557242495
-7.96163115217
-8.02710169454
-8.09194944902
-8.15613818772
-8.21963013324
-8.28238589453
-8.34436429865
-8.40552233489
-8.46581518716
-8.52519626033
-8.58361708873
-8.64102734362
-8.69737487728
-8.75260553707
-8.80666313657
-8.85948949428
-8.91102454904
-8.96120620599
-9.0099702481
-9.05725066928
-9.1029795657
-9.14708692818
-9.18950063924
-9.23014664752
-9.26894915064
-9.30583039591
-9.34071075756
-9.3735088593
-9.40414131721
-9.43252294854
-9.45856707663
-9.48218562877
-9.50328912353
-9.52178670423
-9.53758619019
-9.55059373881
-9.56071459527
-9.56785342114
-9.5719139469
-9.57279902758
-9.57041122882
-9.56465259553
-9.55542476335
-9.54262954714
-9.52616829641
-9.50594260668
-9.48185488341
-9.45380802824
-9.42170558307
-9.3854518339
-9.34495246883
-9.30011482488
-9.25084728258
-9.19705981017
-9.13866456503
-9.07557588037
-9.00771065234
-8.93498803903
-8.85732968578
-8.77466042525
-8.68690918423
-8.59400897059
-8.49589672808
-8.3925155031
-8.2838142641
-8.16974953171
-8.05028973341
-7.92541521625
-7.79512343515
-7.65943440823
-7.51839401179
-7.37208280009
-7.22061851058
-7.06415891677
-6.90289105549
-6.73702247825
-6.56675607571
-6.39232970138
-1.99638778003
-1.96529341582
-1.98051531439
-2.03218276685
-2.10624064812
-2.19444133274
-2.28984530847
-2.38711430711
-2.48302627881
-2.57603700629
-2.66567226509
-2.75206269911
-2.83562688927
-2.91687518331
-2.99630337208
-3.07434444497
-3.15135355783
-3.22760998453
-3.30332669278
-3.37866225427
-3.45373232218
-3.52861967742
-3.60338258342
-3.67806136353
-3.7526839581
-3.82726813049
-3.90182593441
-3.97636470772
-4.05088864501
-4.12539994024
-4.19989941755
-4.27438694259
-4.34886175252
-4.42332270529
-4.49776839358
-4.57219719537
-4.64660736316
-4.72099709304
-4.79536447597
-4.86970738808
-4.94402346444
-5.01831019102
-5.09256496897
-5.16678502558
-5.24096732347
-5.31510855418
-5.38920513778
-5.46325326292
-5.53724884741
-5.61118751913
-5.68506457468
-5.75887498678
-5.8326133371
-5.90627382655
-5.97985021768
-6.05333582747
-6.12672355492
-6.20000591068
-6.27317488192
-6.34622179126
-6.41913730704
-6.49191142416
-6.56453352329
-6.63699238617
-6.70927613704
-6.78137214523
-6.85326696696
-6.92494637301
-6.99639530546
-7.06759780362
-7.13853699906
-7.20919509326
-7.27955322091
-7.34959129572
-7.41928804756
-7.48862117091
-7.55756730576
-7.62610182759
-7.69419872516
-7.76183063995
-7.82896887628
-7.89558337891
-7.9616426903
-8.02711383905
-8.09196223572
-8.15615167063
-8.21964438946
-8.28240100572
-8.34438031337
-8.40553925568
-8.465832993
-8.52521496899
-8.58363677256
-8.64104805741
-8.69739660285
-8.7526282545
-8.80668687763
-8.85951429594
-8.91105040938
-8.96123312324
-9.00999820168
-9.05727966983
-9.10300966493
-9.14711821304
-9.18953320855
-9.23018064314
-9.26898467182
-9.30586753608
-9.34074950349
-9.37354932219
-9.40418372232
-9.43256746671
-9.45861386039
-9.48223492296
-9.50334137647
-9.52184215803
-9.53764496628
-9.55065615963
-9.56078124883
-9.56792506836
-9.57199136737
-9.57288309979
-9.57050299367
-9.56475343024
-9.55553625507
-9.54275357484
-9.52630719972
-9.5060991166
-9.48203230284
-9.45401043684
-9.42193776634
-9.38571935696
-9.34526196648
-9.30047436659
-9.25126650271
-9.1975500667
-9.13923967447
-9.07625251405
-9.0085085829
-8.9359306831
-8.85844488686
-8.77598120643
-8.68847464573
-8.59586601302
-8.49810080731
-8.39513147261
-8.28691921254
-8.17343422962
-8.05465971351
-7.93059332894
-7.80125141214
-7.66667485754
-7.52693076267
-7.3821221726
-7.23239104674
-7.07792559295
-6.91895714273
-6.75576729061
-6.58869259792
-6.41816993116
-1.99638735122
-1.9652932682
-1.98051585096
-2.03218264006
-2.1062406442
-2.19444163526
-2.28984542096
-2.38711433798
-2.48302633028
-2.57603698164
-2.66567220779
-2.75206267959
-2.83562692274
-2.91687525992
-2.99630348853
-3.07434459129
-3.1513537036
-3.22761011691
-3.3033268417
-3.37866242978
-3.45373248846
-3.52861978901
-3.60338262478
-3.67806136667
-3.75268397597
-3.8272681958
-3.90182604653
-3.97636485065
-4.05088879706
-4.1254000757
-4.19989953115
-4.27438706935
-4.34886194015
-4.42332296511
-4.4977686854
-4.57219748335
-4.64660766311
-4.72099745094
-4.79536490094
-4.86970783737
-4.94402389649
-5.01831060658
-5.09256540699
-5.16678550901
-5.24096783296
-5.31510906393
-5.38920566221
-5.46325383946
-5.53724948943
-5.61118820849
-5.68506529177
-5.75887573602
-5.83261415059
-5.90627472262
-5.97985120498
-6.05333691179
-6.12672473564
-6.20000720461
-6.27317632709
-6.34622341073
-6.41913906624
-6.49191328366
-6.5645355008
-6.63699451174
-6.7092783943
-6.78137448269
-6.85326934289
-6.92494875911
-6.99639770542
-7.06760028454
-7.13853966134
-7.20919799995
-7.27955636578
-7.34959464519
-7.4192915971
-7.48862494537
-7.55757131151
-7.6261060173
-7.69420302892
-7.76183504187
-7.82897343096
-7.89558813804
-7.96164764586
-8.02711896025
-8.09196755714
-8.15615730046
-8.21965040881
-8.28240742546
-8.34438713338
-8.40554650179
-8.46584067733
-8.52522305362
-8.58364523951
-8.64105692534
-8.69740586595
-8.75263787092
-8.80669683435
-8.85952461778
-8.91106109699
-8.96124416002
-9.01000958393
-9.05729140574
-9.10302175602
-9.147130753
-9.18954629923
-9.23019431764
-9.26899891907
-9.30588237016
-9.34076503894
-9.37356564824
-9.40420097784
-9.4325858571
-9.45863357572
-9.48225620282
-9.50336448561
-9.521867369
-9.53767242306
-9.55068628348
-9.56081469101
-9.56796245752
-9.57203339834
-9.57293071189
-9.57055732834
-9.5648158699
-9.5556083129
-9.54283702189
-9.52640440392
-9.50621290646
-9.48216591839
-9.45416781607
-9.42212369839
-9.38593953571
-9.34552295009
-9.30078391567
-9.25163422647
-9.19798757998
-9.13976075504
-9.0768734103
-9.00924848434
-8.93681242628
-8.85949574968
-8.77723350697
-8.68996647924
-8.59764265307
-8.50021553255
-8.39764659622
-8.28990827733
-8.17698354879
-8.0588696984
-7.93558076075
-7.80715090291
-7.67364132598
-7.53514218846
-7.39178206978
-7.24373261364
-7.09121963846
-6.93452683383
-6.77400899959
-6.61010851752
-6.44339295945
-1.9771388047
-1.9455765945
-1.96522138213
-2.0226659515
-2.10167954453
-2.19345819128
-2.29107553776
-2.38946321796
-2.48574479722
-2.57867856999
-2.66801098607
-2.75401486149
-2.83719057043
-2.91808952204
-2.9972235452
-3.07502759266
-3.15185174776
-3.22796742904
-3.30357928001
-3.37883808224
-3.45385277495
-3.5287007214
-3.60343594622
-3.67809543837
-3.7527055957
-3.827281423
-3.90183376755
-3.97636903951
-4.05089079417
-4.12540076408
-4.19989947581
-4.27438665033
-4.34886141398
-4.42332246616
-4.49776824662
-4.57219710455
-4.64660736418
-4.72099725646
-4.79536480056
-4.86970779507
-4.94402388981
-5.01831062847
-5.09256543568
-5.16678551616
-5.24096780059
-5.315109008
-5.38920561767
-5.46325381345
-5.5372494625
-5.61118816895
-5.68506525543
-5.75887571757
-5.8326141567
-5.90627473886
-5.9798512148
-6.05333692231
-6.126724776
-6.20000728917
-6.27317645781
-6.3462235812
-6.41913924759
-6.49191345354
-6.56453566306
-6.63699467041
-6.70927851682
-6.78137452422
-6.85326927503
-6.9249485523
-6.99639733462
-7.06759979271
-7.13853915255
-7.20919753781
-7.27955591518
-7.34959414495
-7.41929104111
-7.48862434919
-7.55757064547
-7.62610521904
-7.69420205769
-7.76183389665
-7.82897212752
-7.89558667035
-7.96164597844
-8.02711708709
-8.09196554966
-8.15615524585
-8.21964832089
-8.28240527195
-8.34438489685
-8.40554418337
-8.46583828025
-8.5252205387
-8.58364251162
-8.64105391389
-8.69740255625
-8.75263427087
-8.80669294091
-8.85952043894
-8.91105661735
-8.96123934342
-9.01000442898
-9.05728587651
-9.10301584282
-9.14712454356
-9.1895398525
-9.23018762066
-9.26899189811
-9.30587501396
-9.3407574396
-9.37355782781
-9.4041930737
-9.43257814609
-9.45862632409
-9.48224955042
-9.50335847994
-9.52186219135
-9.53766847003
-9.55068404073
-9.56081467047
-9.5679653132
-9.57203991628
-9.57294181945
-9.57057407663
-9.56483960606
-9.55564063142
-9.5428796596
-9.52645961475
-9.50628357031
-9.48225542126
-9.45428008382
-9.42226336356
-9.38611225453
-9.34573545423
-9.30104416391
-9.25195196757
-9.19837447804
-9.14023049517
-9.07744221073
-9.00993556935
-8.93764062949
-8.86049242062
-8.77843105812
-8.69140296084
-8.59936292152
-8.50227262159
-8.40010294425
-8.29283682672
-8.18046984043
-8.06301330121
-7.94049738999
-7.8129751183
-7.68052790211
-7.54327043671
-7.40135869092
-7.25499650831
-7.10444824934
-6.9500464632
-6.79220551064
-6.6314397651
-6.46838863411
-1.93490619708
-1.90385704085
-1.93378836351
-2.00355945825
-2.09272760383
-2.19160464031
-2.29348365075
-2.39395589143
-2.49088251657
-2.58362878943
-2.67236588057
-2.75763223204
-2.84007721184
-2.92032477791
-2.99891351918
-3.07628003369
-3.15276383703
-3.22862110577
-3.30404064975
-3.37915879474
-3.45407219959
-3.52884829675
-3.60353344866
-3.67815929248
-3.75274519384
-3.82730541288
-3.90184766431
-3.97637647024
-4.05089422333
-4.1254018399
-4.19989926413
-4.27438581131
-4.3488603321