/*--------------------------------*- C++ -*----------------------------------*\
| =========                 |                                                 |
| \\      /  F ield         | OpenFOAM: The Open Source CFD Toolbox           |
|  \\    /   O peration     | Version:  2106                                  |
|   \\  /    A nd           | Website:  www.openfoam.com                      |
|    \\/     M anipulation  |                                                 |
\*---------------------------------------------------------------------------*/
FoamFile
{
    version     2.0;
    format      ascii;
    arch        "LSB;label=32;scalar=64";
    class       volScalarField;
    location    "0.43";
    object      p;
}
// * * * * * * * * * * * * * * * * * * * * * * * * * * * * * * * * * * * * * //

dimensions      [0 2 -2 0 0 0 0];

internalField   nonuniform List<scalar> 
11200
(
150.100263413
147.171661761
146.05781125
145.530480555
145.163151498
144.868373697
144.606730281
144.358191931
144.113673302
143.868604717
143.620289084
143.3669718
143.107420939
142.840700958
142.566044974
142.282779473
141.990278478
141.6879358
141.375152397
141.051339936
140.715874628
140.368107356
140.007379897
139.633024492
139.244355731
138.840672436
138.421258498
137.98538354
137.532303661
137.061262099
136.571489796
136.062205944
135.532618115
134.9819225
134.409304306
133.813939603
133.194994061
132.551624445
131.882977947
131.188193213
130.466400534
129.716722114
128.938272218
128.13015722
127.291475641
126.421317769
125.518765243
124.582890323
123.612754725
122.607408053
121.565885745
120.487206155
119.370366927
118.214340203
117.018066461
115.780446682
114.500332386
113.176513081
111.807700699
110.392509122
108.929430092
107.416800495
105.852763264
104.235217142
102.561752439
100.829563309
99.0353393666
97.1751205866
95.2441027893
93.2363713697
91.1445373476
88.9592413873
86.6682848106
84.25548135
81.6987449862
78.9664153476
76.010892075
72.759597434
69.0587993105
64.2954780686
148.307221464
146.949047478
146.1580764
145.658062638
145.26707506
144.943193081
144.658672245
144.394069941
144.13858159
143.886058778
143.632674253
143.375914518
143.114042611
142.845782098
142.570132524
142.286258962
141.993423839
141.690944114
141.378161059
141.054412742
140.719048865
140.371393845
140.010804147
139.636611714
139.248120684
138.844624153
138.425403173
137.989725528
137.536846018
137.066006909
136.576438158
136.067357414
135.537970394
134.987476946
134.415064174
133.819908127
133.201174442
132.558019581
131.889590828
131.195026921
130.473458275
129.724007308
128.945788606
128.137908978
127.299467483
126.429555195
125.527254723
124.591639504
123.621772782
122.616706077
121.575477203
120.497107492
119.380598267
118.224926239
117.029037557
115.791840266
114.512194694
113.188901186
111.820685172
110.406177473
108.943891264
107.432191104
105.869253569
104.253014926
102.581107594
100.850790685
99.0588489122
97.2014447271
95.2739387048
93.2706462633
91.1844987022
89.0065398451
86.7252223864
84.3254104854
81.7867089459
79.0806094122
76.1663137475
72.9859883789
69.4368448024
65.3240343971
147.312031266
146.657831001
146.105475688
145.667858515
145.296235385
144.974134218
144.685034672
144.414800753
144.154337373
143.897855665
143.64147071
143.382500898
143.11903426
142.849643857
142.573208585
142.288799714
141.995607424
141.692892874
141.379957603
141.056124585
140.720731643
140.373139264
140.012603421
139.638470612
139.250048862
138.846628699
138.427488863
137.991896048
137.539104749
137.068357461
136.578885024
136.069907412
135.540633722
134.990256622
134.417958026
133.822916558
133.204298948
132.561262071
131.892954074
131.198514538
130.477074764
129.727758097
128.949680186
128.141949185
127.303665685
126.433922658
125.531805103
124.596389308
123.626741994
122.621918994
121.580963386
120.502902968
119.386746963
118.231481741
117.036065266
115.799420034
114.520424086
113.197899716
111.830599055
110.417186323
108.956214533
107.446097119
105.885069877
104.271163867
102.602141712
100.875409497
99.0879253064
97.2360906139
95.3155914104
93.3211893273
91.2464350337
89.0832660056
86.8215876625
84.4484843699
81.9472355191
79.2959814501
76.4667494897
73.4279259287
70.1435354817
66.5905606898
146.762270225
146.398889059
145.998991413
145.630001426
145.292385123
144.984282809
144.698919217
144.428214575
144.165841445
143.907172864
143.648790871
143.388164009
143.123392511
142.85300914
142.575837778
142.290895796
141.997326715
141.694354101
141.381250621
141.05731623
140.721859908
140.374191538
140.013669956
139.639572082
139.251187341
138.847808121
138.428712903
137.99316713
137.540424189
137.069725558
136.580300952
136.071368493
135.542135545
134.99180026
134.419553191
133.824568248
133.206013366
132.563046163
131.894813857
131.200456469
130.47910614
129.72988723
128.951916777
128.144304779
127.30615417
126.43656083
125.534613325
124.599392352
123.629969979
122.625408556
121.584758971
120.507058557
119.391328269
118.236568826
117.041755874
115.80583383
114.527707711
113.2062332
111.840203098
110.428332231
108.969239041
107.461425934
105.903231495
104.292796802
102.62802005
100.906502614
99.1254691223
97.2816675414
95.3712449831
93.3895917717
91.3311511752
89.1891940218
86.955488972
84.6199944598
82.1706219679
79.5932738918
76.8732057709
74.0007117354
70.9793916397
67.8464269865
146.428222534
146.196427231
145.895015166
145.584038445
145.279199159
144.987175701
144.708199687
144.439072778
144.176111313
143.916025172
143.65605401
143.393960495
143.127952166
142.856579971
142.578647173
142.293136682
141.999155717
141.695894873
141.382598625
141.058544255
140.723026833
140.375350061
140.014817643
139.640719084
139.252357319
138.849016105
138.429968673
137.994478056
137.541796311
137.071164315
136.581811951
136.072957919
135.543810274
134.993565505
134.421410129
133.826520188
133.208061097
132.565190647
131.897059315
131.202807702
130.48157032
129.73247387
128.954637915
128.147175029
127.30919147
126.439787128
125.53805512
124.603081754
123.633945889
122.629718043
121.589459593
120.512220574
119.397037334
118.242929378
117.048895126
115.813906167
114.536900258
113.216773715
111.852368537
110.442466012
108.985762957
107.480848007
105.926183476
104.320075065
102.660628911
100.945702913
99.1728495481
97.3392469524
95.4416158066
93.4761221477
91.4382695216
89.3227935858
87.1235861133
84.8337286499
82.4458007584
79.9527936607
77.3505114706
74.6433965625
71.8528092924
69.0294464794
146.224830375
146.048928499
145.807734072
145.540408651
145.26322194
144.98658363
144.714893538
144.44839106
144.18562461
143.924614129
143.663324769
143.399889561
143.132683096
142.860314558
142.581591009
142.295474631
142.001043233
141.697457255
141.383933786
141.059726924
140.724113233
140.376380852
140.015820426
139.641722301
139.253375977
138.850060769
138.431047236
137.995596352
137.542958686
137.072373875
136.583070806
136.074267332
135.545171065
134.994978624
134.422876968
133.828043289
133.209646059
132.566844889
131.898791115
131.204628892
130.48349363
129.734512737
128.956808109
128.14949441
127.311681779
126.442474503
125.5409713
124.606265318
123.637443843
122.633587832
121.593770594
120.517056939
119.402501269
118.249145126
117.056014079
115.822114525
114.546427916
113.22790142
111.865444761
110.457908132
109.004075776
107.502655369
105.952263339
104.351383639
102.698349111
100.991309796
99.2281948906
97.4066708524
95.5240979559
93.5774906506
91.563493052
89.478393758
87.3182265887
85.0790504253
82.7575805375
80.3524654272
77.8667730566
75.3126573834
72.7170660416
70.1270961457
146.101713972
145.946106536
145.73980508
145.503243431
145.247768758
144.984489703
144.719876718
144.456368074
144.194234507
143.932648193
143.670275158
143.405638961
143.137309876
142.863979362
142.584475202
142.297749717
142.002857844
141.698933607
141.385168845
141.060795547
140.725071858
140.377271359
140.016675258
139.642566073
139.254224975
138.850926317
138.431937792
137.996518168
137.543916458
137.07337152
136.584111796
136.075355278
135.546309601
134.99617236
134.424131551
133.829365388
133.211042726
132.568324095
131.900361559
131.206298543
130.485270323
129.736408103
128.958837758
128.151679621
127.31404772
126.445051557
125.543796286
124.609382883
123.640908113
122.637464366
121.598139054
120.522014384
119.408166028
118.255661403
117.06355721
115.830896277
114.55670279
113.2399829
111.879709711
110.474823947
109.024224563
107.526751087
105.981174427
104.386182092
102.740362262
101.042185705
99.289988174
97.4819560481
95.6161198197
93.6903652959
91.7024783912
89.6502532796
87.5317106568
85.3455178939
83.0917437759
80.7731458165
78.3972730677
75.9797236222
73.5473721055
71.1395745879
146.027634712
145.877624799
145.690869573
145.474764773
145.235059425
144.982238896
144.723602412
144.462864701
144.201498292
143.939576792
143.676359378
143.410722667
143.141426172
142.867248657
142.587046551
142.299769914
142.004457136
141.700220756
141.386231115
141.061700955
140.725872263
140.378005699
140.017372353
139.643246718
139.254905015
138.85161664
138.432646506
137.997251369
137.544678847
137.074167027
136.584943845
136.076227467
135.547225552
134.997136053
134.425147069
133.830437311
133.212176495
132.569525573
131.901637543
131.207658698
130.486730709
129.73798673
128.960553595
128.153554661
127.316108975
126.447331869
125.546335598
124.612229697
123.644121329
122.641115623
121.602315963
120.52682329
119.413736052
118.262149324
117.071154028
115.839835254
114.567271004
113.252525409
111.894653071
110.492684043
109.04562764
107.552463981
106.012138622
104.423554735
102.785567877
101.096982716
99.356553826
97.5629955155
95.71500653
93.8113221396
91.8508101209
89.8326407255
87.7565681905
85.623404718
83.4357636153
81.1991781347
78.9236844957
76.625887141
74.3304647752
72.0694246686
145.985358783
145.835911318
145.659496181
145.455758682
145.226226946
144.980519592
144.726160602
144.467523141
144.206817138
143.944723563
143.680926537
143.414568217
143.144557076
142.869744464
142.589013591
142.301316173
142.005680084
141.701202675
141.38703851
141.062385952
140.726474797
140.378555807
140.017892338
139.643753809
139.255409131
138.852127525
138.433170791
137.997793983
137.545243744
137.074757695
136.585563398
136.076879066
135.547912597
134.997862337
134.425916952
133.831255955
133.213050174
132.570462272
131.902647668
131.208754848
130.487924132
129.739292481
128.961991656
128.155149262
127.317889482
126.449333883
125.54860229
124.614813485
123.647085903
122.644538284
121.606290259
120.531462875
119.419179186
118.268563922
117.07874436
115.848848982
114.578007875
113.265351442
111.910011877
110.511120147
109.067804791
107.579191925
106.044405604
104.462569052
102.832809191
101.154265786
99.4261082886
97.6475656483
95.8179750556
93.9368638499
92.0040773443
90.0199824112
87.9857740731
85.9039436138
83.7789371606
81.6180498968
79.4325317417
77.2387939194
75.0588795342
72.9189668324
145.966082788
145.816205131
145.644242598
145.446307827
145.221747411
144.97962939
144.727495318
144.469987425
144.209661223
143.947500815
143.683410932
143.416675835
143.146285917
142.871133683
142.590118426
142.302193882
142.006382919
141.701775072
141.387516573
141.062798101
140.726842892
140.37889636
140.018217603
139.644072707
139.255729181
138.852453577
138.433506738
137.99814302
137.545608635
137.075141045
136.585967902
136.077307535
135.54836831
134.998349064
134.426439214
133.831819234
133.213661133
132.571128853
131.903379044
131.209561542
130.488821029
129.74029688
128.963124164
128.156434749
127.319358143
126.451022437
125.550555328
124.617085147
123.649741913
122.647658439
121.609971473
120.535822859
119.424360859
118.274740894
117.086127432
115.857694467
114.588627507
113.278124346
111.925398109
110.529679261
109.090215863
107.606281296
106.077179038
104.502251177
102.880891867
101.212566988
99.4968438807
97.7334361536
95.9222692592
94.0635810084
92.1580636706
90.2070864933
88.2129892729
86.1795253649
84.1124022313
82.0199646509
79.9139357144
77.8100691811
75.7280541914
73.6898140045
145.966085819
145.816221611
145.644269947
145.44634431
145.22179227
144.979681761
144.727554335
144.470052292
144.209731268
143.947575481
143.683489758
143.416758442
143.14637201
142.87122304
142.590210905
142.302289432
142.006481548
141.701876863
141.387621673
141.062906719
140.726955301
140.379012892
140.018338673
139.644198826
139.25586103
138.852591818
138.433652254
137.998296851
137.545772276
137.075315988
136.586156207
136.077511604
135.548591146
134.99859428
134.426711194
133.832123274
133.214003613
132.57151751
131.903823415
131.210073607
130.489414861
129.740989521
128.963936379
128.157391798
127.320490675
126.452367676
125.55215847
124.619001058
123.652037198
122.650413963
121.613285381
120.539814302
119.429174338
118.28055205
117.093149139
115.866184746
114.598899257
113.290558385
111.94045505
110.547919868
109.112318874
107.63307008
106.109652273
104.541619498
102.928621845
101.270432255
99.5669838062
97.8184260879
96.0252047448
94.1881699379
92.3087495039
90.3892460404
88.4327737584
86.443953545
84.4293006699
82.3977164791
80.3609867432
78.3341285035
76.3350436422
74.3828245972
145.985367931
145.835961134
145.659578835
145.455868864
145.226362316
144.980677485
144.726338309
144.467718282
144.207027719
143.944947917
143.681163288
143.414816245
143.144815506
142.870012642
142.589291093
142.301602831
142.005975939
141.701507985
141.387353721
141.062711694
140.726811884
140.37890523
140.018255289
139.644131804
139.255804088
138.852541505
138.433606464
137.99825444
137.545733086
137.075280657
136.586126123
136.077488691
135.548578002
134.998594222
134.426728384
133.832162844
133.214071816
132.571622155
131.903973867
131.210281213
130.489693494
129.741356072
128.964411365
128.158000137
127.321262628
126.453339998
125.553375791
124.620517532
123.65391852
122.652739887
121.616152647
120.543340383
119.433501616
118.285853371
117.099633859
115.874107207
114.608567801
113.302346038
111.954814065
110.56539462
109.133573877
107.658905425
106.141033109
104.579708799
102.97481796
101.326416324
99.6347894137
97.9005232488
96.1245071661
94.30811621
92.4533279795
90.5628246655
88.6405825169
86.6918605279
84.7236500201
82.7451037295
80.7678947004
78.8064266933
76.8774158864
74.9983017651
146.027650151
145.877709063
145.691009179
145.474950508
145.235287169
144.982504049
144.723900348
144.463191434
144.20185049
143.939951681
143.676754683
143.411136548
143.141857188
142.867695747
142.587509042
142.30024753
142.004949966
141.700729237
141.386755992
141.062243278
140.726433392
140.378587289
140.017976286
139.643875585
139.25556162
138.852304527
138.433370051
137.998015766
137.545490746
137.075034348
136.585876497
136.077237208
135.548326867
134.998346408
134.426487714
133.831934153
133.213861032
132.571436579
131.903822504
131.210174992
130.489645737
129.741382981
128.964532665
128.158239765
127.321649709
126.453909909
125.554171476
124.621591115
123.655333225
122.654572479
121.61849619
120.546307763
119.437229784
118.290508359
117.105416593
115.881261481
114.617388472
113.313189828
111.968111101
110.581666236
109.153445548
107.683136054
106.170537481
104.615589627
103.018406653
101.379303364
99.69883505
97.9778596643
96.2176975855
94.4201639049
92.5877135848
90.7236079285
88.8321553935
86.9189576389
84.9912331703
83.0581535049
81.1311593321
79.224196075
77.3533950663
75.5356696305
146.101736046
145.946227378
145.740004707
145.503508129
145.248092308
144.98486534
144.72029778
144.45682891
144.194730436
143.933175356
143.670830409
143.406219776
143.137914286
142.864605933
142.585123028
142.298418417
142.003547541
141.699644886
141.385902725
141.061553447
140.725855594
140.378083215
140.017517971
139.643443012
139.255140057
138.851884395
138.432944798
137.997581312
137.545044753
137.074575904
136.58540572
136.076755119
135.547835277
134.99784792
134.425985718
133.831432959
133.213366102
132.570954622
131.903361851
131.209745863
130.489260619
129.741057
128.964284282
128.158091385
127.321628586
126.454049156
125.55451128
124.622180249
123.656230896
122.655850523
121.620241787
120.548626497
119.440249711
118.294384619
117.110337247
115.887453846
114.62512761
113.322808119
111.980011455
110.596331996
109.171461109
107.705202737
106.19749567
104.648439912
103.05832747
101.427696974
99.7573835239
98.0485708426
96.3028705034
94.5224243533
92.7100303143
90.8692880433
89.0047789443
87.1222768191
85.2290108714
83.3339643954
81.4482166688
79.5853363468
77.7613330369
75.9936150449
146.224859703
146.049089585
145.807998896
145.540758095
145.263647195
144.987075446
144.715443062
144.448990925
144.186268799
143.925297738
143.664043843
143.400640945
143.133464356
142.861123925
142.582427365
142.296337498
142.001932715
141.698373977
141.384878837
141.060701748
140.725119518
140.377420758
140.016898552
139.642844441
139.254546513
138.851285244
138.432332767
137.996951758
137.54439484
137.073904295
136.584712166
136.076040281
135.547100592
134.997095602
134.42521881
133.830655281
133.212582461
132.570170963
131.902585513
131.208985873
130.488528125
129.740365671
128.963650833
128.157536221
127.321176505
126.453730259
125.55436209
124.622245036
123.656563446
122.656516001
121.621319317
120.550211845
119.442458905
118.297357818
117.114244565
115.892500461
114.63156177
113.3309293
111.990180892
110.608985791
109.187121629
107.724495201
106.221167944
104.677386349
103.093617229
101.470589365
99.809345962
98.1113085428
96.378352017
94.6128895117
92.8179759118
90.9974283022
89.1559701486
87.2993919295
85.434754833
83.5706522373
81.717598402
79.8886735426
78.099907975
76.3699748955
146.42825973
146.196633364
145.895351637
145.584479626
145.279732959
144.987789958
144.708883192
144.439816434
144.176907833
143.916868701
143.656939879
143.394885033
143.128912596
142.85757434
142.579674338
142.294196293
142.000248108
141.697020931
141.383759574
141.059741586
140.724262483
140.376625426
140.016134899
139.642091613
139.253788826
138.850512091
138.431536963
137.996128664
137.543541576
137.073019322
136.583794934
136.075091081
135.546120461
134.996086259
134.424182765
133.829595907
133.211504122
132.569079165
131.901486983
131.207888686
130.487441842
129.739302017
128.962624025
128.156563697
127.320279594
126.452935009
125.553700259
124.621755209
123.656292529
122.656520873
121.621669146
120.550990432
119.443768008
118.299320216
117.117009227
115.896247311
114.636507106
113.337333561
111.998357486
110.619311361
109.200048289
107.740564689
106.241026813
104.701802396
103.123497953
101.507003115
99.8535414039
98.1647293039
96.4426457203
94.6899084901
92.9097591689
91.1061554522
89.2838713683
87.4486038805
85.6071044791
83.7673674267
81.9390144284
80.1341999785
78.3684397089
76.6615888124
146.762315207
146.399143821
145.999401985
145.630534698
145.293025032
144.985013789
144.699727585
144.429089545
144.16677454
143.908157383
143.649821552
143.389236798
143.124504442
142.854158277
142.57702327
142.292117946
141.998587037
141.695655317
141.38259609
141.058710262
140.723312021
140.375717687
140.015243087
139.641195537
139.252874716
138.849570466
138.430561445
137.995115163
137.542487546
137.071923285
136.582656171
136.073909525
135.544896565
134.994820881
134.422877178
133.828252029
133.210124761
132.567668193
131.90004936
131.206431106
130.485972984
129.737832151
128.961165609
128.155131824
127.318892479
126.451614624
125.552473195
124.620653724
123.655355803
122.655796442
121.621214445
120.55087485
119.444075438
118.300152035
117.118487638
115.898520054
114.639753825
113.341771169
112.004246707
110.626965191
109.209841581
107.752944945
106.256526411
104.721052132
103.147241377
101.536110901
99.8890256137
98.2077555002
96.4945383349
94.7521463914
92.9839552857
91.194011638
89.3870915306
87.5687466009
85.7453412724
83.9240929113
82.1133046439
80.3233582402
78.5674696627
76.8642926471
147.312088712
146.658148432
146.105970282
145.668489147
145.296982289
144.974978532
144.685960493
144.415795833
144.155392188
143.898962713
143.642624068
143.383695901
143.120267289
142.850912221
142.574510493
142.290134402
141.996975591
141.694297548
141.381404295
141.057620297
140.722277249
140.374704906
140.014224159
139.640154773
139.251801212
138.84845652
138.429401962
137.993906902
137.541228739
137.070613146
136.581294627
136.072497107
135.543434358
134.993310545
134.42132087
133.826652094
133.208482669
132.565986646
131.898331922
131.204681864
130.484196778
129.7360359
128.959358182
128.153324203
127.317098204
126.449850324
125.550759178
124.619014767
123.653821775
122.65440375
121.620007306
120.549907326
119.443412512
118.299873191
117.118688392
115.899315618
114.641281466
113.344196311
112.007768449
110.631822244
109.216319591
107.761384901
106.267334188
104.734708877
103.164314573
101.557265122
99.9150321848
98.2394995938
96.5330206811
94.7984812458
93.0393546697
91.2597510219
89.4644430443
87.6588598633
85.8490189037
84.0413083837
82.2423897294
80.4598230085
78.7007230874
76.973786972
148.307326598
146.949510689
146.158763832
145.658921168
145.268081454
144.944326666
144.659916267
144.395411626
144.140011025
143.887568126
143.634257217
143.377565917
143.115757995
142.84755742
142.57196381
142.288142003
141.995353734
141.692914429
141.380166779
141.056462171
140.721140643
140.373552928
140.013046989
139.638939316
139.250538179
138.84713996
138.428027595
137.992469473
137.539724663
137.069040323
136.579651581
136.07078269
135.541647651
134.991450933
134.419388123
133.824646885
133.206408604
132.563846183
131.896127744
131.202417479
130.481876815
129.733665574
128.956943739
128.150873263
127.314620084
126.447356446
125.548263481
124.616534332
123.651377319
122.652020638
121.617715811
120.54774439
119.44142248
118.298109772
117.117216473
115.898213857
114.640645911
113.344141541
112.008431825
110.633368411
109.218945474
107.765325078
106.272866815
104.74216194
103.174072574
101.569776026
99.9308139101
98.2591440677
96.5571931691
94.8279355222
93.0749188747
91.3023116343
89.5149185071
87.7181570163
85.9179244368
84.1200876949
82.3301768067
80.5529550661
78.7832259947
76.9914870436
150.100435297
147.172337462
146.058809391
145.531738617
145.164639111
144.870066341
144.608609601
144.360244643
144.115889788
143.870978144
143.62281482
143.369647089
143.110244813
142.843674342
142.569170859
142.286063074
141.99372716
141.691558415
141.37895414
141.055306781
140.720011434
140.372427587
140.011886379
139.637722501
139.249253795
138.845781052
138.426590434
137.990957074
137.538138813
137.067381293
136.577919649
136.068978282
135.539771237
134.989503022
134.41736926
133.82255735
133.204247505
132.561613646
131.893824453
131.200044554
130.479435725
129.731158425
128.954373353
128.148243252
127.311934975
126.444621904
125.545486546
124.613723673
123.648543415
122.64917612
121.614876174
120.544928626
119.438653665
118.295415521
117.114630155
115.895775408
114.638402849
113.342151454
112.006763951
110.632105686
109.218187029
107.765189181
106.273494278
104.743720007
103.176759177
101.573824271
99.9364967811
98.2667840104
96.5671829647
94.8406992266
93.0909377687
91.3221357251
89.539182158
87.7475958522
85.9534229554
84.1631604791
82.383229386
80.6184128231
78.8482511672
76.9482935316
56.9013991136
53.3492581294
50.9578148125
49.0003920754
47.3283466815
45.8715053553
44.5858820982
43.441769755
42.4174954529
41.4963129649
40.6648164323
39.9120011785
39.2286661521
38.6070130349
38.0403627637
37.5229464147
37.0497473585
36.616377547
36.2189800064
35.8541497283
35.5188695199
35.2104563333
34.9265171409
34.6649112506
34.4237184154
34.2012117724
33.9958346681
33.8061804603
33.6309751509
33.4690627109
33.3193918209
33.1810043508
33.0530255121
32.9346551489
32.8251593882
32.7238643365
32.6301496447
32.5434433571
32.4632173858
32.3889833393
32.3202877062
32.2567075157
32.1978470268
32.1433294036
32.0927977653
32.0459740663
32.0028497356
31.9630898514
31.9263490391
31.8923623707
31.8608605162
31.8316554428
31.8045750202
31.7794585319
31.7561583845
31.7345616602
31.7145145843
31.6958836167
31.6785535814
31.6624223404
31.6473989989
31.633378383
31.6202705118
31.6079970166
31.5964838903
31.5856681306
31.5754877887
31.5658918599
31.5568218403
31.5482233291
31.5400631582
31.5322958809
31.5248900164
31.5178007681
31.5110059936
31.5044736615
31.4981779947
31.492092728
31.486196571
31.480471051
31.4748965073
31.4694597364
31.4641491917
31.4589528368
31.4538563636
31.4488471573
31.4439188663
31.4390522176
31.4342471076
31.429490528
31.4247999546
31.4201529016
31.4155341029
31.4109372167
31.40635666
31.4017877458
31.3972259324
31.3926662054
31.3881051705
31.3835391985
31.3789646011
31.3743780421
31.3697762955
31.3651564556
31.3605156142
31.3558509619
31.3511593664
31.3464375056
31.3416821097
31.3368900979
31.3320589464
31.3271864792
31.3222708642
31.3173104307
31.3123039028
31.3072501599
31.3021484768
31.2969980105
31.2917984109
31.2865496062
31.2812515291
31.2759039774
31.2705053341
31.2650451414
31.2595022242
31.2538047573
31.2484119194
31.2433342394
31.2381620077
31.2329702039
31.2278514701
31.2228711221
31.2180805233
31.2135388088
31.2093051426
31.2054394878
31.2019940845
31.1990125881
31.1965044786
31.1944490615
31.1930562383
31.1918755317
31.1909630528
31.189666778
31.1863384452
31.1767625784
31.1508601478
31.0869375626
30.9437072142
30.6505975116
30.1023674803
29.1662037227
27.709477205
25.6394728722
22.9302009184
19.6377993037
15.8808469612
11.6275956397
6.60283568681
1.57029284647
60.0827627149
56.0299311146
53.3179379756
51.1655722419
49.3636155342
47.8136571331
46.457482314
45.2578555733
44.1886024945
43.2300898722
42.3669795341
41.5869276122
40.8797808971
40.2370496869
39.651544083
39.117112312
38.6284460172
38.1809327099
37.7705398619
37.3937231476
37.047353489
36.728656647
36.4351638984
36.1646709536
35.9152034403
35.6849873888
35.472425055
35.2760731241
35.0946248457
34.9268945211
34.771803724
34.6283694518
34.4956938601
34.37295571
34.2594015466
34.1543390847
34.0571314095
33.9671917422
33.8839794198
33.8069955344
33.7357795856
33.6699067954
33.60898701
33.5526628991
33.5006094024
33.4525000221
33.4079160433
33.3666569829
33.3284558338
33.2931067621
33.2604014938
33.2301377554
33.2021226903
33.1761778861
33.152135476
33.1298353211
33.1091407981
33.0899204109
33.0720441952
33.0554047387
33.0398955563
33.0254301197
33.0119182348
32.9992786066
32.9874358232
32.9763228172
32.9658748553
32.9560413114
32.9467565257
32.9379639156
32.9296338911
32.9217107174
32.9141673143
32.9069534512
32.9000508989
32.8934229425
32.8870410799
32.8808822733
32.8749215898
32.8691405619
32.8635213869
32.8580448977
32.8526894071
32.8474414885
32.8422900165
32.8372200033
32.8322307262
32.8273069818
32.8224388839
32.8176175903
32.8128314546
32.8080764425
32.8033500742
32.798647218
32.7939626448
32.7892920862
32.7846304794
32.7799735161
32.7753171506
32.7706580089
32.7659925607
32.7613171847
32.7566288571
32.7519242642
32.7472008166
32.7424556231
32.737685249
32.7328865028
32.7280559218
32.7231904034
32.7182872491
32.7133442341
32.7083593921
32.7033309753
32.6982576707
32.6931383912
32.6879727009
32.6827601328
32.6775010372
32.6721965038
32.6668484728
32.6614603134
32.6560372571
32.6505865773
32.6451306915
32.6396769295
32.6342708169
32.6287778421
32.623347736
32.6181433975
32.6130367202
32.6081096991
32.6034268991
32.5990529051
32.59505831
32.5915178184
32.5885006632
32.5860652129
32.5842234694
32.5830552091
32.5825239609
32.5825057043
32.5827295497
32.5823748708
32.5792738337
32.5682266279
32.5371731917
32.4611606952
32.2939401036
31.9586194936
31.3438469813
30.3138140748
28.738988062
26.5364711975
23.6921597262
20.266690668
16.3766380082
12.0055220962
6.89190776749
1.70382676036
62.2901988505
58.3567415446
55.4895790956
53.2056378703
51.3036597846
49.6771663216
48.2611242168
47.0135174887
45.9049236299
44.9134815732
44.0222957482
43.2179138994
42.4893808854
41.8276191164
41.2250023335
40.6750508042
40.1722072948
39.7116678374
39.2892508342
38.9012943576
38.544575336
38.2162430762
37.9137655785
37.6348855303
37.377583273
37.1400456395
36.9206401593
36.7178926764
36.530468611
36.3571567932
36.1968553476
36.0485596175
35.9113515359
35.7843909546
35.6669066811
35.558189568
35.4575869222
35.3644972763
35.2783657586
35.1986795533
35.1249644256
35.0567806163
34.9937216246
34.9354081844
34.88149192
34.8316549954
34.7855847416
34.7428210824
34.7032297491
34.6666362543
34.6327947198
34.6014837554
34.572503451
34.5456703293
34.5208155895
34.4977804617
34.4764205408
34.456594239
34.4381744567
34.4210461888
34.4050937618
34.3902262988
34.3763483163
34.3633758169
34.3512290622
34.3398419908
34.3291427235
34.3190762583
34.3095755982
34.3005956144
34.2920877853
34.2839961279
34.2762991237
34.2689493725
34.261922741
34.2551758208
34.2486883287
34.2424314781
34.2363800568
34.2305138461
34.2248044936
34.2192403275
34.2138093481
34.2085022115
34.2032993271
34.1981851759
34.1931565017
34.1881963371
34.1832968177
34.1784501832
34.1736472798
34.168880365
34.1641440044
34.1594308009
34.1547344304
34.1500509264
34.1453755355
34.1407031185
34.1360293985
34.1313512144
34.1266649219
34.1219665943
34.1172530285
34.1125209948
34.1077677318
34.102990263
34.0981852787
34.0933495335
34.088479641
34.0835727517
34.0786262697
34.0736378648
34.0686055905
34.0635277933
34.0584034474
34.0532314716
34.0480116114
34.04274381
34.0374289012
34.0320686869
34.0266659145
34.0212249445
34.0157527223
34.0102587207
34.004761885
33.9992655685
33.9937864026
33.9883593729
33.9830402556
33.9778020642
33.9726055542
33.9676647256
33.9630460788
33.9588096025
33.9550186678
33.9517662763
33.9491377367
33.9472078015
33.9459823248
33.9455076891
33.9458205057
33.9467303814
33.947862751
33.9481454634
33.9448336465
33.9316818611
33.8946244778
33.8054424448
33.6131318279
33.2349662937
32.5543220383
31.4333507432
29.7460704029
27.4186844811
24.4472065043
20.8949605263
16.8752056952
12.3859679659
7.18057529172
1.83514356747
64.0943778803
60.3696478203
57.4656473108
55.1104548184
53.1403481839
51.4559867029
49.9922066022
48.7051263097
47.5634976556
46.5439950005
45.6286056923
44.8030410893