/*--------------------------------*- C++ -*----------------------------------*\
| =========                 |                                                 |
| \\      /  F ield         | OpenFOAM: The Open Source CFD Toolbox           |
|  \\    /   O peration     | Version:  2106                                  |
|   \\  /    A nd           | Website:  www.openfoam.com                      |
|    \\/     M anipulation  |                                                 |
\*---------------------------------------------------------------------------*/
FoamFile
{
    version     2.0;
    format      ascii;
    arch        "LSB;label=32;scalar=64";
    class       volVectorField;
    location    "0.15";
    object      U;
}
// * * * * * * * * * * * * * * * * * * * * * * * * * * * * * * * * * * * * * //

dimensions      [0 1 -1 0 0 0 0];

internalField   nonuniform List<vector> 
11200
(
(0.662462404747 0.150569441927 0)
(0.55894868008 0.103243388491 0)
(0.383850752659 0.0513512244983 0)
(0.283747617815 0.0248708555242 0)
(0.232075299981 0.0124170454235 0)
(0.2019086241 0.0066228169548 0)
(0.183197977711 0.00380291448721 0)
(0.171276540418 0.00231587010268 0)
(0.163510364726 0.00146450657973 0)
(0.158388834107 0.000944892438411 0)
(0.15500670101 0.000615176905395 0)
(0.152786751173 0.00040223378214 0)
(0.151346605951 0.000264232115897 0)
(0.150428373829 0.000175249905498 0)
(0.149856774787 0.000118360190898 0)
(0.14951257937 8.21591130009e-05 0)
(0.149315025811 5.88644044796e-05 0)
(0.149209672157 4.33132270904e-05 0)
(0.149159822188 3.29310348568e-05 0)
(0.149142593687 2.81824423062e-05 0)
(0.149144764163 2.76797088271e-05 0)
(0.149157056128 2.98884293483e-05 0)
(0.149172695784 3.30494925115e-05 0)
(0.149188265086 3.59649857319e-05 0)
(0.14920249952 3.86007053262e-05 0)
(0.149214798869 4.10403024087e-05 0)
(0.149224995098 4.33182531531e-05 0)
(0.149233194528 4.54654897147e-05 0)
(0.149239633122 4.75207836897e-05 0)
(0.149244591774 4.95299310766e-05 0)
(0.149248353802 5.15523038118e-05 0)
(0.149251187517 5.36771511518e-05 0)
(0.149253288134 5.59997514563e-05 0)
(0.149254822752 5.83814014621e-05 0)
(0.149255927984 6.07457105142e-05 0)
(0.149256690362 6.30717909014e-05 0)
(0.149257200562 6.5368413801e-05 0)
(0.149257541794 6.76464119644e-05 0)
(0.149257770473 6.99181797827e-05 0)
(0.149257916341 7.2190465044e-05 0)
(0.149258000189 7.44645052821e-05 0)
(0.14925803937 7.674121092e-05 0)
(0.149258046299 7.90203450978e-05 0)
(0.149258030133 8.13007654319e-05 0)
(0.149257997613 8.35808257093e-05 0)
(0.149257953712 8.58582393253e-05 0)
(0.149257902689 8.81302183475e-05 0)
(0.149257848746 9.03937116279e-05 0)
(0.149257796122 9.26457316947e-05 0)
(0.149257749929 9.48831452063e-05 0)
(0.149257717269 9.71029951597e-05 0)
(0.149257707718 9.93024399215e-05 0)
(0.14925773418 0.000101478573716 0)
(0.149257814337 0.00010362824916 0)
(0.149257972871 0.000105747637733 0)
(0.149258244866 0.000107831542269 0)
(0.149258680206 0.000109873068325 0)
(0.1492593508 0.000111862881757 0)
(0.14926036313 0.000113787427993 0)
(0.149261873949 0.000115622706588 0)
(0.149264123157 0.000117316035183 0)
(0.149267515451 0.000118780141298 0)
(0.149272534404 0.000120044591472 0)
(0.149279823859 0.000121294572748 0)
(0.149290411378 0.000122982284692 0)
(0.149305819616 0.000125341383104 0)
(0.149328436614 0.00012812713188 0)
(0.149361976241 0.000131102067255 0)
(0.149412060714 0.000134044433266 0)
(0.149486962542 0.000136841365855 0)
(0.149598679933 0.000140796042259 0)
(0.149770222323 0.000151796695965 0)
(0.150039541551 0.00017265797737 0)
(0.150470011539 0.000203092390138 0)
(0.151197901947 0.000233284656703 0)
(0.152501969774 0.000192518054309 0)
(0.155040495278 -0.000218122569597 0)
(0.162413983244 -0.00212417081928 0)
(0.18784274255 -0.0108664796569 0)
(0.20493631164 -0.0501115851746 0)
(0.965408256221 0.289214706047 0)
(0.961962868355 0.252656040311 0)
(0.823574408982 0.159021442404 0)
(0.698139392285 0.0959957322886 0)
(0.610225492781 0.0582481154092 0)
(0.548971525516 0.0362148545425 0)
(0.506588926722 0.0231612865221 0)
(0.477567310107 0.0151375167327 0)
(0.457745535672 0.0100177565761 0)
(0.4442285072 0.00665814255978 0)
(0.435053347695 0.00441555750109 0)
(0.428873170276 0.00290686671485 0)
(0.424754257673 0.00189105862104 0)
(0.422046712624 0.00121004449034 0)
(0.420297882372 0.00075716103413 0)
(0.419193282994 0.000459251360289 0)
(0.418515691357 0.000265847461798 0)
(0.418116562841 0.000142388784879 0)
(0.417895983932 6.60949573423e-05 0)
(0.417786965169 2.30749293468e-05 0)
(0.417745596444 1.38617432768e-06 0)
(0.417742371555 -1.01950481624e-05 0)
(0.417757026579 -1.37530744958e-05 0)
(0.417779055594 -1.33137050839e-05 0)
(0.417803432162 -1.08892607781e-05 0)
(0.417826895264 -7.55375908954e-06 0)
(0.417847750364 -3.94426505602e-06 0)
(0.417865397076 -4.30283894579e-07 0)
(0.417879836608 2.78775199296e-06 0)
(0.417891379984 5.60792233008e-06 0)
(0.417900495019 7.97022074242e-06 0)
(0.417907688541 9.79481885613e-06 0)
(0.417913159352 1.09788563425e-05 0)
(0.417917123816 1.18363310636e-05 0)
(0.417919965238 1.26468543655e-05 0)
(0.417921959302 1.34021059084e-05 0)
(0.417923336579 1.40809995514e-05 0)
(0.417924288515 1.46991339763e-05 0)
(0.417924947827 1.52875014344e-05 0)
(0.417925387136 1.58603056999e-05 0)
(0.417925658676 1.64179743794e-05 0)
(0.417925806028 1.69652379332e-05 0)
(0.41792586047 1.75056508867e-05 0)
(0.417925845386 1.80420333587e-05 0)
(0.417925778117 1.85775352944e-05 0)
(0.41792567155 1.91146421452e-05 0)
(0.417925536717 1.96554765086e-05 0)
(0.417925384588 2.02022768908e-05 0)
(0.417925226389 2.07576158793e-05 0)
(0.417925075598 2.1322293058e-05 0)
(0.417924950537 2.18967296162e-05 0)
(0.417924875649 2.24814479965e-05 0)
(0.417924883825 2.30767168006e-05 0)
(0.417925020077 2.36822596604e-05 0)
(0.41792534699 2.42970362182e-05 0)
(0.417925953717 2.49192667507e-05 0)
(0.417926968142 2.55468012036e-05 0)
(0.417928575397 2.61719674714e-05 0)
(0.417931046069 2.67750330622e-05 0)
(0.417934767431 2.73251272069e-05 0)
(0.417940324514 2.77776381821e-05 0)
(0.417948798808 2.80651487635e-05 0)
(0.417961700504 2.83327148607e-05 0)
(0.417981163197 2.79321840767e-05 0)
(0.418009995429 2.5431733979e-05 0)
(0.418051812974 1.96564203872e-05 0)
(0.4181127722 9.80165408209e-06 0)
(0.418203045688 -5.66454022637e-06 0)
(0.41833833954 -2.92839942299e-05 0)
(0.418543728559 -6.47690406028e-05 0)
(0.41886142114 -0.000116347889139 0)
(0.419361490272 -0.00018904472062 0)
(0.420158242381 -0.000309858869957 0)
(0.421456904203 -0.000536693888458 0)
(0.42365204578 -0.00100722837908 0)
(0.427468393564 -0.00210577635607 0)
(0.434340984262 -0.00489227336172 0)
(0.448473873342 -0.0123486593202 0)
(0.475093971106 -0.0345158610244 0)
(0.479118095572 -0.0996721208473 0)
(1.02222096752 0.238416187253 0)
(1.08213753893 0.295926653105 0)
(1.03447724389 0.239503067528 0)
(0.954615433247 0.174290166298 0)
(0.879992085498 0.121345470853 0)
(0.818614470698 0.0830993869746 0)
(0.771410890543 0.0567316702221 0)
(0.736634435406 0.0387409717455 0)
(0.711624482196 0.0264327901772 0)
(0.693916675559 0.0179731076049 0)
(0.681541471442 0.012142450253 0)
(0.673000185255 0.00812490940594 0)
(0.667180727462 0.00536632045234 0)
(0.663271766392 0.0034844414372 0)
(0.660688606546 0.00221255429155 0)
(0.659014297155 0.00136336928354 0)
(0.657954636034 0.000805224373947 0)
(0.657304369291 0.000445888717955 0)
(0.656921985075 0.000221030678971 0)
(0.656710463278 8.55321433513e-05 0)
(0.65660365092 8.29563668025e-06 0)
(0.656562168188 -3.38075882654e-05 0)
(0.656558348976 -5.69707415974e-05 0)
(0.656571915576 -6.70100087449e-05 0)
(0.656593550146 -6.86371958344e-05 0)
(0.656617488691 -6.57365972256e-05 0)
(0.656640422414 -6.07466478853e-05 0)
(0.65666074304 -5.50771426786e-05 0)
(0.656677864042 -4.95116534619e-05 0)
(0.656691762594 -4.44556969975e-05 0)
(0.656702683256 -4.01005386879e-05 0)
(0.656710991312 -3.65593076969e-05 0)
(0.656717371357 -3.39528780295e-05 0)
(0.656722519423 -3.21049461873e-05 0)
(0.656726510544 -3.10248583246e-05 0)
(0.65672936019 -3.04925880192e-05 0)
(0.656731339909 -3.03919303403e-05 0)
(0.656732730652 -3.06739483942e-05 0)
(0.656733711413 -3.11805000839e-05 0)
(0.656734372548 -3.18221628471e-05 0)
(0.656734787794 -3.25696502568e-05 0)
(0.656735022654 -3.3389240379e-05 0)
(0.656735122742 -3.42558622901e-05 0)
(0.656735123188 -3.51508964396e-05 0)
(0.656735050416 -3.60583865709e-05 0)
(0.656734924087 -3.69670548178e-05 0)
(0.656734761244 -3.78692422061e-05 0)
(0.656734578569 -3.87593392395e-05 0)
(0.656734391444 -3.9631206779e-05 0)
(0.656734217734 -4.04804375945e-05 0)
(0.656734083165 -4.13019222469e-05 0)
(0.656734022617 -4.20911855273e-05 0)
(0.656734083206 -4.28459279737e-05 0)
(0.656734330104 -4.35675783737e-05 0)
(0.656734855394 -4.42655930789e-05 0)
(0.656735791602 -4.49661436322e-05 0)
(0.656737325688 -4.57211290032e-05 0)
(0.656739722468 -4.66206324949e-05 0)
(0.656743376921 -4.78014880836e-05 0)
(0.65674888372 -4.94782952848e-05 0)
(0.656757142852 -5.21231714718e-05 0)
(0.656769779431 -5.67982982761e-05 0)
(0.656788235459 -6.42925506196e-05 0)
(0.656813943118 -7.55440714208e-05 0)
(0.656850585647 -9.21879448537e-05 0)
(0.656904897412 -0.000116682572799 0)
(0.656986375192 -0.00015224426711 0)
(0.657108887025 -0.000204199123638 0)
(0.657294385039 -0.000281151979033 0)
(0.657578522867 -0.000397126354787 0)
(0.658019894732 -0.000576727416874 0)
(0.658708479773 -0.000867660628977 0)
(0.659792746374 -0.00136077035438 0)
(0.661532796604 -0.00223067903436 0)
(0.664375438302 -0.00384307281171 0)
(0.669025085588 -0.00700391650466 0)
(0.676523399286 -0.0134692682658 0)
(0.688905659095 -0.0270931231532 0)
(0.705776604957 -0.0568819793958 0)
(0.701404563315 -0.114397593076 0)
(1.0225147567 0.17080715293 0)
(1.10138976624 0.276496479279 0)
(1.11752427792 0.266664800843 0)
(1.0921466285 0.219901701692 0)
(1.0518781843 0.168168851258 0)
(1.01020825703 0.123567400889 0)
(0.973494726985 0.088837526053 0)
(0.943864595297 0.0630063761116 0)
(0.921142841837 0.044223208466 0)
(0.904284118111 0.0307423965768 0)
(0.892074917894 0.0211562968599 0)
(0.883404564424 0.0143954693436 0)
(0.877352730553 0.00966794590595 0)
(0.873197775848 0.00639383015989 0)
(0.870393010108 0.00415115098169 0)
(0.868534136111 0.00263446773274 0)
(0.867327758928 0.00162398198398 0)
(0.866564381767 0.000962625264513 0)
(0.866096658221 0.00053905311076 0)
(0.865822459021 0.000275062337083 0)
(0.865671665797 0.00011695202633 0)
(0.865595473731 2.86505370317e-05 0)
(0.865564496713 -1.94956370525e-05 0)
(0.865561786863 -4.14638958122e-05 0)
(0.865573235017 -4.78974447486e-05 0)
(0.865590356819 -4.57839918454e-05 0)
(0.865608793735 -3.9438907718e-05 0)
(0.865626269876 -3.14486820306e-05 0)
(0.865641698854 -2.32835581789e-05 0)
(0.865654710897 -1.57107397312e-05 0)
(0.865665335996 -9.05996299263e-06 0)
(0.86567377581 -3.38453912799e-06 0)
(0.865680285827 1.41086221678e-06 0)
(0.865685079956 5.18346657259e-06 0)
(0.865688548487 7.82254171438e-06 0)
(0.865691088232 9.62965137061e-06 0)
(0.865692835707 1.09882328372e-05 0)
(0.865694072199 1.2152870884e-05 0)
(0.865695012958 1.31399367259e-05 0)
(0.8656956714 1.40389010355e-05 0)
(0.865696088582 1.48524535134e-05 0)
(0.865696329609 1.56004372771e-05 0)
(0.865696434206 1.62964811328e-05 0)
(0.865696434687 1.69541353502e-05 0)
(0.865696355317 1.75882163987e-05 0)
(0.865696212775 1.82091288835e-05 0)
(0.865696022418 1.88253006892e-05 0)
(0.865695802355 1.94464474402e-05 0)
(0.865695571332 2.00865919408e-05 0)
(0.865695352092 2.0740118634e-05 0)
(0.865695175938 2.13974448131e-05 0)
(0.865695082609 2.20493766965e-05 0)
(0.86569512462 2.26814857161e-05 0)
(0.865695371843 2.32696693294e-05 0)
(0.865695915832 2.37759281191e-05 0)
(0.865696881977 2.41496312348e-05 0)
(0.865698448464 2.43455513727e-05 0)
(0.865700881014 2.4290478143e-05 0)
(0.865704572304 2.38124850602e-05 0)
(0.865709972164 2.25412855398e-05 0)
(0.865717469268 1.98562273372e-05 0)
(0.865728648679 1.51235913745e-05 0)
(0.865746118439 6.55755079798e-06 0)
(0.865772872455 -7.61115129281e-06 0)
(0.865812842027 -2.93894591471e-05 0)
(0.865871916843 -6.26879771303e-05 0)
(0.865959448174 -0.000114442969139 0)
(0.866090008709 -0.000195522818353 0)
(0.866286283971 -0.000323362311371 0)
(0.866583355907 -0.000526731382123 0)
(0.867035319342 -0.00085507886673 0)
(0.867728085556 -0.00139618688863 0)
(0.868799482427 -0.00230034871424 0)
(0.870465376708 -0.00384503405601 0)
(0.873049181059 -0.00656006148878 0)
(0.876957440452 -0.0114661227397 0)
(0.882524666843 -0.0204558024863 0)
(0.889950374106 -0.0368484377751 0)
(0.896804513229 -0.0662725831596 0)
(0.887188948328 -0.111576647961 0)
(1.01287875291 0.118961024112 0)
(1.0882067159 0.231806938138 0)
(1.13741368626 0.253106767117 0)
(1.15409088804 0.228992757583 0)
(1.14994213448 0.188368364227 0)
(1.1353846846 0.14657985022 0)
(1.11758898195 0.110150972272 0)
(1.1005950399 0.0808162286139 0)
(1.08612461316 0.0582265824396 0)
(1.07459097081 0.0413189900811 0)
(1.06579151781 0.0289160236238 0)
(1.05928804549 0.0199601005917 0)
(1.0545998267 0.013581556341 0)
(1.05129083627 0.00909743286362 0)
(1.0489999281 0.00598613437082 0)
(1.04744349722 0.0038569342359 0)
(1.04640663958 0.00242154934006 0)
(1.0457307445 0.00147008095399 0)
(1.04530121473 0.000851607874727 0)
(1.04503674958 0.00045889304472 0)
(1.04488042589 0.000216600465383 0)
(1.0447928589 7.28287509633e-05 0)
(1.04474905129 -5.721962904e-06 0)
(1.04473221805 -4.42656701239e-05 0)
(1.04473004615 -5.96802586614e-05 0)
(1.04473561743 -6.20471342603e-05 0)
(1.04474466099 -5.76011840026e-05 0)
(1.04475464853 -5.01793844275e-05 0)
(1.04476419963 -4.20311261303e-05 0)
(1.04477264308 -3.43759946728e-05 0)
(1.04477972727 -2.77993305649e-05 0)
(1.044785436 -2.25059034719e-05 0)
(1.04478991053 -1.84531945421e-05 0)
(1.04479335948 -1.54398899734e-05 0)
(1.04479602449 -1.31018704334e-05 0)
(1.04479817992 -1.12957713192e-05 0)
(1.0447999834 -9.82572844621e-06 0)
(1.04480138886 -8.52527603247e-06 0)
(1.0448024254 -7.46489637392e-06 0)
(1.04480316625 -6.72515005049e-06 0)
(1.04480363291 -6.29529658277e-06 0)
(1.0448039014 -6.04715768856e-06 0)
(1.04480401663 -5.9217906485e-06 0)
(1.04480401912 -5.87711815752e-06 0)
(1.0448039371 -5.86830913194e-06 0)
(1.04480378939 -5.87280206163e-06 0)
(1.04480359657 -5.88093853236e-06 0)
(1.0448033843 -5.89181410479e-06 0)
(1.04480316018 -5.91677390432e-06 0)
(1.04480292929 -5.94503423532e-06 0)
(1.04480272216 -5.96517365261e-06 0)
(1.04480258052 -5.97793428326e-06 0)
(1.04480255485 -5.98941904433e-06 0)
(1.04480271315 -6.01251390546e-06 0)
(1.0448031573 -6.07552259459e-06 0)
(1.04480405938 -6.25165295458e-06 0)
(1.04480565358 -6.74555150645e-06 0)
(1.04480819802 -7.91601493956e-06 0)
(1.04481198845 -1.02029258472e-05 0)
(1.04481746324 -1.39530297245e-05 0)
(1.04482561869 -1.89178360535e-05 0)
(1.04483765961 -2.50760709412e-05 0)
(1.04485480288 -3.47014730917e-05 0)
(1.0448793106 -5.07803485094e-05 0)
(1.04491466811 -7.76149215721e-05 0)
(1.04496602365 -0.000121520745105 0)
(1.04504099689 -0.000192360321905 0)
(1.04515097029 -0.00030585046511 0)
(1.04531316832 -0.000487401489492 0)
(1.0455536266 -0.000778461499514 0)
(1.04591138454 -0.00124707657197 0)
(1.04644491126 -0.00200608983575 0)
(1.04723936891 -0.0032482249608 0)
(1.04840952679 -0.00530820710905 0)
(1.05008567211 -0.00877007985038 0)
(1.05232891888 -0.0146409934004 0)
(1.05490083793 -0.0245530677738 0)
(1.05701590935 -0.0408620246933 0)
(1.05596174456 -0.0664856016268 0)
(1.04239322816 -0.10104519706 0)
(1.00447483639 0.0814039983475 0)
(1.06917238084 0.181288540474 0)
(1.13080570149 0.216950421603 0)
(1.17375002467 0.210789159985 0)
(1.19865267874 0.183690082659 0)
(1.21019991286 0.149751689952 0)
(1.21350259611 0.116779150999 0)
(1.21251728475 0.0882206845485 0)
(1.20973103285 0.0650481568965 0)
(1.2065112517 0.0470209136125 0)
(1.20351919435 0.0334068111891 0)
(1.20101151919 0.0233557319172 0)
(1.19903452484 0.0160720081608 0)
(1.19753885968 0.0108795005612 0)
(1.19644140183 0.00723416432362 0)
(1.19565568043 0.00471348042086 0)
(1.19510499295 0.00299757239974 0)
(1.19472658959 0.00184908084512 0)
(1.19447161987 0.00109485225463 0)
(1.19430332284 0.000610470307329 0)
(1.19419469912 0.000307808366585 0)
(1.19412643387 0.000125550291367 0)
(1.1940854052 2.19599244953e-05 0)
(1.19406217111 -3.27602024365e-05 0)
(1.19404990075 -5.76189894249e-05 0)
(1.19404443391 -6.49835290737e-05 0)
(1.19404297108 -6.27968753438e-05 0)
(1.19404369378 -5.5971462258e-05 0)
(1.19404548549 -4.74165597249e-05 0)
(1.19404768717 -3.87457045476e-05 0)
(1.1940499255 -3.07609821282e-05 0)
(1.19405200661 -2.37696075321e-05 0)
(1.19405385871 -1.77954085455e-05 0)
(1.19405547661 -1.27620747806e-05 0)
(1.19405687672 -8.56168744441e-06 0)
(1.19405807755 -5.12790196733e-06 0)
(1.194059065 -2.44534559214e-06 0)
(1.19405979325 -4.85262409964e-07 0)
(1.19406021511 9.07232136139e-07 0)
(1.19406035952 1.82019499839e-06 0)
(1.1940604082 2.53623975669e-06 0)
(1.19406044361 3.17227859589e-06 0)
(1.19406042556 3.73461559255e-06 0)
(1.19406036743 4.23528654396e-06 0)
(1.19406027326 4.67900963583e-06 0)
(1.19406012966 5.08011476536e-06 0)
(1.19405993387 5.45024208279e-06 0)
(1.19405968739 5.78961992131e-06 0)
(1.19405941745 6.08290404672e-06 0)
(1.19405916751 6.3434853475e-06 0)
(1.1940589634 6.58983980604e-06 0)
(1.19405883626 6.81159793636e-06 0)
(1.194058837 6.98340448807e-06 0)
(1.19405902992 7.06631330657e-06 0)
(1.19405947657 7.00315002956e-06 0)
(1.19406018773 6.7117467863e-06 0)
(1.19406114882 6.05165909311e-06 0)
(1.19406248569 4.71725535773e-06 0)
(1.19406467045 2.14581685088e-06 0)
(1.19406882276 -1.87766680564e-06 0)
(1.19407579967 -8.11709481474e-06 0)
(1.19408540765 -1.79791928184e-05 0)
(1.19409826399 -3.34952613067e-05 0)
(1.19411632067 -5.75643908256e-05 0)
(1.19414171387 -9.47895547571e-05 0)
(1.19417723912 -0.00015253277326 0)
(1.19422686364 -0.000242536953554 0)
(1.19429619484 -0.00038343786817 0)
(1.19439309314 -0.000604988121234 0)
(1.19452834303 -0.000955036970699 0)
(1.1947161115 -0.00151098354561 0)
(1.19497334366 -0.00239847762592 0)
(1.19531509781 -0.00382329099191 0)
(1.1957391084 -0.00612281346912 0)
(1.19618567219 -0.00984364627323 0)
(1.1964353946 -0.0158431731639 0)
(1.19590008825 -0.0253557439734 0)
(1.19341855787 -0.0398759887268 0)
(1.18663479041 -0.0607067590637 0)
(1.16997490183 -0.0866173550027 0)
(0.998962327315 0.0544316261896 0)
(1.05310957587 0.133401609307 0)
(1.11628269678 0.170777561161 0)
(1.17301274063 0.175143876513 0)
(1.21791249026 0.159583612145 0)
(1.25049861342 0.134951026738 0)
(1.27288495253 0.108411663755 0)
(1.28776726895 0.0838849785448 0)
(1.29745273415 0.0630565784154 0)
(1.30366081114 0.0462999262477 0)
(1.30759241074 0.0333205177045 0)
(1.31005377494 0.0235495237235 0)
(1.31157370485 0.0163599025104 0)
(1.31249501284 0.0111713024997 0)
(1.31303871005 0.00749148353966 0)
(1.3133468044 0.00492444844748 0)
(1.3135102191 0.00316289911491 0)
(1.31358684742 0.0019746723655 0)
(1.3136132193 0.0011880891819 0)
(1.31361206206 0.000678488716498 0)
(1.31359721296 0.000356830844356 0)
(1.31357687638 0.000160535998618 0)
(1.31355586122 4.62060026232e-05 0)
(1.3135365454 -1.61801457355e-05 0)
(1.31351986401 -4.64073506903e-05 0)
(1.31350614335 -5.74562474978e-05 0)
(1.31349520436 -5.77469309959e-05 0)
(1.3134867107 -5.25388191929e-05 0)
(1.31348027413 -4.49995348304e-05 0)
(1.31347551005 -3.69520977028e-05 0)
(1.31347206815 -2.93686507787e-05 0)
(1.31346964623 -2.27019357585e-05 0)
(1.31346798787 -1.71020218629e-05 0)
(1.31346686743 -1.25731829552e-05 0)
(1.31346611674 -9.05026019996e-06 0)
(1.31346563617 -6.4330231208e-06 0)
(1.31346533268 -4.58972806443e-06 0)
(1.31346511159 -3.33498075785e-06 0)
(1.3134649443 -2.44620345448e-06 0)
(1.31346493177 -1.72212700035e-06 0)
(1.31346506706 -1.10322283561e-06 0)
(1.31346516484 -6.45549230934e-07 0)
(1.31346516208 -2.55771185309e-07 0)
(1.3134650807 1.15796426917e-07 0)
(1.31346493904 4.64732318375e-07 0)
(1.31346475428 7.96652528585e-07 0)
(1.31346453103 1.12442958624e-06 0)
(1.31346427042 1.46346319008e-06 0)
(1.31346398965 1.83171994178e-06 0)
(1.31346371992 2.20912411535e-06 0)
(1.31346347274 2.55395957698e-06 0)
(1.3134632564 2.83583465146e-06 0)
(1.31346310131 3.01408197024e-06 0)
(1.31346305451 3.02692433521e-06 0)
(1.31346318982 2.78572043063e-06 0)
(1.31346362224 2.17913601628e-06 0)
(1.31346442229 1.11227254071e-06 0)
(1.3134655289 -5.29152649498e-07 0)
(1.31346734191 -2.91619489735e-06 0)
(1.31347018361 -6.6577996431e-06 0)
(1.31347415156 -1.31362865869e-05 0)
(1.31347950243 -2.39950202598e-05 0)
(1.31348647952 -4.08271085751e-05 0)
(1.31349553096 -6.67757654357e-05 0)
(1.31350694277 -0.0001068858112 0)
(1.31352074253 -0.000168951778948 0)
(1.31353649215 -0.000265150563501 0)
(1.31355278536 -0.000414566266226 0)
(1.31356627445 -0.00064730040205 0)
(1.3135698442 -0.00101109346989 0)
(1.31354929507 -0.00158186767393 0)
(1.31347682656 -0.0024798815974 0)
(1.31329746624 -0.00389486922951 0)
(1.31290259596 -0.0061234423146 0)
(1.31208037042 -0.00961719658589 0)
(1.31042181568 -0.0150295571547 0)
(1.30716628971 -0.0232082012487 0)
(1.30108963694 -0.0350236758692 0)
(1.29029503094 -0.050956285822 0)
(1.27125399973 -0.069831461289 0)
(0.995736075846 0.0346338606659 0)
(1.04179515205 0.0905689226547 0)
(1.10222840409 0.121549567593 0)
(1.16491414166 0.129605838141 0)
(1.22202569695 0.122009273752 0)
(1.26951896242 0.106019944443 0)
(1.30680228845 0.0870975623157 0)
(1.33499541286 0.06863668721 0)
(1.35574484271 0.0523698445537 0)
(1.37069624448 0.038925622376 0)
(1.38128284043 0.0282980760395 0)
(1.38866276949 0.0201712770537 0)
(1.39373043153 0.0141175060859 0)
(1.39715670921 0.00970532550387 0)
(1.39943445152 0.00655057598006 0)
(1.40091977032 0.00433442350524 0)
(1.40186630863 0.00280409825335 0)
(1.40245231511 0.00176567697209 0)
(1.40280139139 0.00107410543725 0)
(1.40299805837 0.000623117823497 0)
(1.40309923998 0.000336260970201 0)
(1.4031426424 0.000159441270376 0)
(1.40315283808 5.49482230024e-05 0)
(1.4031452819 -3.24288039573e-06 0)
(1.40312944464 -3.24110982874e-05 0)
(1.4031109451 -4.42165989248e-05 0)
(1.40309280202 -4.61187156621e-05 0)
(1.40307654099 -4.28031040978e-05 0)
(1.40306276454 -3.71321043217e-05 0)
(1.40305154837 -3.07811919953e-05 0)
(1.40304269317 -2.46641456397e-05 0)
(1.40303587624 -1.92273568525e-05 0)
(1.40303073975 -1.46390654755e-05 0)
(1.40302693632 -1.09042196665e-05 0)
(1.40302416775 -7.92510882273e-06 0)
(1.40302220023 -5.57730459466e-06 0)
(1.4030208567 -3.73913496967e-06 0)
(1.40301999268 -2.2753399044e-06 0)
(1.40301945155 -1.06889703738e-06 0)
(1.40301904541 -9.29921901339e-08 0)
(1.40301868065 6.69181306736e-07 0)
(1.4030184225 1.21199635466e-06 0)
(1.40301828595 1.62578761603e-06 0)
(1.40301818424 1.97717231054e-06 0)
(1.4030180712 2.31126282606e-06 0)
(1.40301793664 2.64941156781e-06 0)
(1.40301777821 3.00222858315e-06 0)
(1.40301759619 3.37592915497e-06 0)
(1.40301738653 3.77389873271e-06 0)
(1.40301714205 4.17802548428e-06 0)
(1.40301687817 4.55218488534e-06 0)
(1.40301662577 4.86989916703e-06 0)
(1.40301640995 5.09535095302e-06 0)
(1.40301625665 5.17370764704e-06 0)
(1.40301618881 5.02232969217e-06 0)
(1.40301621352 4.51038903708e-06 0)
(1.40301631225 3.43707724153e-06 0)
(1.40301654207 1.62208006387e-06 0)
(1.40301697338 -1.1559998705e-06 0)
(1.40301773874 -5.81761484065e-06 0)
(1.40301887219 -1.31200360074e-05 0)
(1.40301999498 -2.43770216546e-05 0)
(1.40302056457 -4.14295049797e-05 0)
(1.40301979052 -6.7246115035e-05 0)
(1.40301613129 -0.000106417688666 0)
(1.40300676367 -0.000166009045667 0)
(1.40298680239 -0.000256976253985 0)
(1.40294789988 -0.000396239373584 0)
(1.40287580822 -0.00061008300877 0)
(1.40274635684 -0.000939556278984 0)
(1.40251917416 -0.00144886845399 0)
(1.40212702342 -0.00223717252202 0)
(1.40145655551 -0.00345566324329 0)
(1.40031694089 -0.00533157236765 0)
(1.39839079929 -0.00819336529925 0)
(1.39515793501 -0.0124850356029 0)
(1.38979318355 -0.0187319921975 0)
(1.38112800556 -0.0273933969094 0)
(1.36763193625 -0.0385799280231 0)
(1.34685600247 -0.051432412978 0)
(0.994011533043 0.0192358068053 0)
(1.03484764407 0.052333841302 0)
(1.09199264352 0.0723631292158 0)
(1.15662422446 0.0791292349292 0)
(1.2203211966 0.0761045502998 0)
(1.27701949503 0.0673339759871 0)
(1.32424424082 0.0561509082071 0)
(1.36181579741 0.0447990155277 0)
(1.39068537889 0.0345303816813 0)
(1.41226083003 0.0258814358359 0)
(1.42801830965 0.0189465262779 0)
(1.43929893532 0.0135849826785 0)
(1.4472281731 0.00955653225921 0)
(1.45270423053 0.00660010949027 0)
(1.45641905347 0.00447417872703 0)
(1.45889153191 0.00297349443231 0)
(1.46050238251 0.00193273973737 0)
(1.46152575644 0.00122365230258 0)
(1.46215573858 0.000749493767546 0)
(1.46252751704 0.000438942948935 0)
(1.46273373352 0.000240425831789 0)
(1.46283680076 0.000117294233313 0)
(1.46287801388 4.39091132939e-05 0)
(1.46288413688 2.53174060938e-06 0)
(1.46287187783 -1.86339950836e-05 0)
(1.46285138493 -2.76543935837e-05 0)
(1.4628286749 -2.96766762313e-05 0)
(1.46280696382 -2.79453476148e-05 0)
(1.46278778343 -2.44574526247e-05 0)
(1.46277168151 -2.03933823209e-05 0)
(1.46275865301 -1.64013041335e-05 0)
(1.46274840754 -1.28036763789e-05 0)
(1.46274053842 -9.72719234948e-06 0)
(1.46273461683 -7.18414695914e-06 0)
(1.46273024622 -5.12177608079e-06 0)
(1.46272708604 -3.47028244607e-06 0)
(1.46272485186 -2.1648258493e-06 0)
(1.46272329326 -1.1635028863e-06 0)
(1.46272218209 -4.2850880418e-07 0)
(1.46272145836 1.29660429884e-07 0)
(1.46272102743 6.29167091988e-07 0)
(1.46272072416 1.12954116889e-06 0)
(1.46272051065 1.58920747007e-06 0)
(1.46272035036 2.0039758291e-06 0)
(1.46272021092 2.39378570832e-06 0)
(1.46272007135 2.77329253275e-06 0)
(1.46271991663 3.14908786791e-06 0)
(1.46271973651 3.52024984583e-06 0)
(1.46271952452 3.87929978738e-06 0)
(1.46271927695 4.21985819678e-06 0)
(1.4627189961 4.53490459216e-06 0)
(1.46271868766 4.79387964216e-06 0)
(1.46271835632 4.9489078028e-06 0)
(1.46271800829 4.93343969289e-06 0)
(1.4627176527 4.65834054648e-06 0)
(1.46271730537 4.0111821171e-06 0)
(1.46271698907 2.86739354559e-06 0)
(1.46271660579 1.128593655e-06 0)
(1.46271592714 -1.49502499196e-06 0)
(1.46271480356 -5.69921816334e-06 0)
(1.46271298039 -1.23133766501e-05 0)
(1.46270978174 -2.24615363027e-05 0)
(1.46270406216 -3.76684176021e-05 0)
(1.46269396808 -6.02947060633e-05 0)
(1.46267636688 -9.39177262708e-05 0)
(1.46264600124 -0.000143942081409 0)
(1.46259429839 -0.000218617005986 0)
(1.46250729857 -0.000330305429236 0)
(1.46236207995 -0.000497730343849 0)
(1.46212107889 -0.000749637476073 0)
(1.46172399036 -0.00113080254538 0)
(1.46107494187 -0.00170825704904 0)
(1.4600200472 -0.00257947919913 0)
(1.45831483519 -0.00388637503775 0)
(1.45557967476 -0.00582482499251 0)
(1.45123971562 -0.00864357667361 0)
(1.44445930056 -0.0126114780227 0)
(1.43414530893 -0.0179215279558 0)
(1.41900081078 -0.0245384151772 0)
(1.39712283484 -0.0319344306776 0)
(0.993269669015 0.00617015063628 0)
(1.03158100809 0.0171020464808 0)
(1.08672183465 0.0239906496466 0)
(1.15174556919 0.0265606676929 0)
(1.21823539617 0.0258180614729 0)
(1.27925778389 0.0230488892782 0)
(1.33140141169 0.0193656346666 0)
(1.37377604911 0.015546860942 0)
(1.4069106055 0.0120449328474 0)
(1.43203321511 0.00906640200108 0)
(1.450602238 0.00666059667673 0)
(1.46402995331 0.00479009305542 0)
(1.47355026005 0.00337842948545 0)
(1.48017573431 0.0023387386885 0)
(1.48470238508 0.00158891352133 0)
(1.48773629271 0.00105828663901 0)
(1.48972741346 0.000689457820511 0)
(1.49100281633 0.000437629842599 0)
(1.49179585667 0.000268872510023 0)
(1.49227017272 0.000158092070288 0)
(1.49253859317 8.70986239732e-05 0)
(1.49267757967 4.29404728311e-05 0)
(1.49273800356 1.65391462503e-05 0)
(1.49275304527 1.60090627415e-06 0)
(1.49274365513 -6.13406835397e-06 0)
(1.49272269575 -9.48588340826e-06 0)
(1.4926978618 -1.03006874694e-05 0)
(1.49267338403 -9.74533325423e-06 0)
(1.49265136349 -8.53782636803e-06 0)
(1.49263264546 -7.09569990969e-06 0)
(1.49261735705 -5.65852324553e-06 0)
(1.49260524073 -4.34617686216e-06 0)
(1.49259587153 -3.20606130174e-06 0)
(1.49258877809 -2.24463836501e-06 0)
(1.49258350975 -1.44586399756e-06 0)
(1.49257966876 -7.87668256375e-07 0)
(1.49257692065 -2.48435051346e-07 0)
(1.49257499537 1.91089813572e-07 0)
(1.49257369665 5.70067766287e-07 0)
(1.49257284436 9.61850252507e-07 0)
(1.49257227577 1.29061987874e-06 0)
(1.49257190061 1.59444794653e-06 0)
(1.49257166008 1.89613035858e-06 0)
(1.49257150091 2.20568291392e-06 0)
(1.49257138106 2.53111511141e-06 0)
(1.4925712717 2.87627935834e-06 0)
(1.49257115231 3.24149707111e-06 0)
(1.49257100758 3.62380369006e-06 0)
(1.49257082552 4.0159691341e-06 0)
(1.49257059626 4.40592762536e-06 0)
(1.4925703131 4.77539200024e-06 0)
(1.49256997081 5.09437201247e-06 0)
(1.49256956173 5.32087423982e-06 0)
(1.49256907395 5.39699597842e-06 0)
(1.49256848767 5.24268617737e-06 0)
(1.49256777375 4.74630527877e-06 0)
(1.49256691242 3.75013325317e-06 0)
(1.49256580206 2.06062041616e-06 0)
(1.49256398336 -4.25170940677e-07 0)
(1.49256110448 -4.02927107804e-06 0)
(1.49255679726 -9.61627040755e-06 0)
(1.4925500419 -1.79278813878e-05 0)
(1.49253919897 -2.9972814565e-05 0)
(1.4925216838 -4.72709023642e-05 0)
(1.49249330841 -7.19409104982e-05 0)
(1.4924472189 -0.000106972914972 0)
(1.49237255952 -0.00015683503964 0)
(1.49225207589 -0.000227630056829 0)
(1.49205775686 -0.000327905220209 0)
(1.49174380523 -0.000470723891904 0)
(1.49123835544 -0.000678276601827 0)
(1.49043129728 -0.000979981019835 0)
(1.48914912513 -0.0014099331806 0)
(1.48712224019 -0.00201692410415 0)
(1.48394580068 -0.00286330726243 0)
(1.47902929676 -0.00401812811847 0)
(1.4715489885 -0.00553818957593 0)
(1.46046547989 -0.00742873337985 0)
(1.4445925241 -0.00960066102878 0)
(1.42226288538 -0.0118106491099 0)
(0.993270466812 -0.0061684018662 0)
(1.03158099065 -0.0171003760779 0)
(1.08672176825 -0.0239897616833 0)
(1.15174560674 -0.0265602465498 0)
(1.21823547407 -0.0258179924308 0)
(1.27925788605 -0.0230491092308 0)