/*--------------------------------*- C++ -*----------------------------------*\
| =========                 |                                                 |
| \\      /  F ield         | OpenFOAM: The Open Source CFD Toolbox           |
|  \\    /   O peration     | Version:  2106                                  |
|   \\  /    A nd           | Website:  www.openfoam.com                      |
|    \\/     M anipulation  |                                                 |
\*---------------------------------------------------------------------------*/
FoamFile
{
    version     2.0;
    format      ascii;
    arch        "LSB;label=32;scalar=64";
    class       volScalarField;
    location    "0.47";
    object      p;
}
// * * * * * * * * * * * * * * * * * * * * * * * * * * * * * * * * * * * * * //

dimensions      [0 2 -2 0 0 0 0];

internalField   nonuniform List<scalar> 
9600
(
2.2733451191
-0.624666433839
-1.52889660817
-1.9145063414
-2.13383874021
-2.27378053497
-2.37768569585
-2.46523511271
-2.5447344958
-2.62012501369
-2.69349938962
-2.76600845929
-2.83828186057
-2.91065032858
-2.98327050785
-3.0561983338
-3.12943391609
-3.20294898443
-3.27670329606
-3.35065398323
-3.42476027359
-3.498987656
-3.57330556485
-3.64768976865
-3.72212102355
-3.79658428202
-3.87106793759
-3.94556312225
-4.02006306779
-4.09456252911
-4.16905735578
-4.24354419439
-4.31802028476
-4.39248331376
-4.46693126612
-4.54136227186
-4.61577447236
-4.69016594157
-4.76453464016
-4.83887838555
-4.91319484647
-4.9874815543
-5.06173594729
-5.13595522936
-5.21013634488
-5.28427602136
-5.35837072178
-5.43241662443
-5.50640964588
-5.58034542291
-5.65421926617
-5.72802613214
-5.8017605764
-5.87541674906
-5.9489884
-6.02246885106
-6.09585096099
-6.16912712089
-6.24228918123
-6.31532840136
-6.38823546763
-6.46100046696
-6.53361285523
-6.60606144484
-6.67833435707
-6.75041898272
-6.82230193347
-6.8939689723
-6.96540495741
-7.03659382147
-7.10751854962
-7.17816117267
-7.24850274253
-7.31852328785
-7.38820176949
-7.4575159945
-7.52644250878
-7.59495652065
-7.66303191307
-7.73064130574
-7.79775605393
-7.86434614396
-7.93038007355
-7.9958248084
-8.06064576504
-8.124806738
-8.18826980672
-8.25099532883
-8.31294201786
-8.37406694668
-8.43432540899
-8.49367079289
-8.55205459521
-8.60942648022
-8.66573424192
-8.72092370899
-8.77493868813
-8.82772099546
-8.87921053844
-8.92934530748
-8.97806127514
-9.02529233683
-9.07097034534
-9.11502520043
-9.15738485887
-9.19797535282
-9.2367206996
-9.27354300475
-9.3083625331
-9.34109778435
-9.37166547906
-9.39998063671
-9.42595665586
-9.44950529558
-9.47053672217
-9.48895960003
-9.50468125421
-9.51760770529
-9.52764377463
-9.5346932589
-9.5386590404
-9.53944317208
-9.53694687184
-9.53107047976
-9.52171379645
-9.50877695603
-9.49215832631
-9.47175608746
-9.4474683641
-9.41919289455
-9.38682712958
-9.35026822871
-9.30941286129
-9.26415695404
-9.21439553564
-9.16002244248
-9.10092975112
-9.03700706479
-8.96814087569
-8.89421364278
-8.81510227367
-8.73067626496
-8.64079542505
-8.54530689819
-8.44404112652
-8.33680685402
-8.22338438482
-8.10351587261
-7.97689239622
-7.84313523244
-7.70176751973
-7.55216991695
-7.39350753267
-7.22460381415
-7.04372540802
-6.8482676549
-6.63426893522
-6.39590154662
-6.13378678037
-5.90763477201
0.361804946978
-0.820551234336
-1.42922533183
-1.78324793155
-2.0258655796
-2.19642785071
-2.32449953972
-2.42900208608
-2.52007779312
-2.60335669128
-2.68213014078
-2.7583475474
-2.83316830579
-2.90728054552
-2.98108634561
-3.05481249685
-3.1285788533
-3.20244120702
-3.27641821154
-3.35050809865
-3.42469921828
-3.49897501871
-3.57331876672
-3.64771508534
-3.72215038159
-3.79661322881
-3.8710942689
-3.94558598766
-4.02008239688
-4.0945786439
-4.16907073327
-4.24355535374
-4.31802974406
-4.39249156502
-4.4669387425
-4.54136932805
-4.61578139415
-4.69017295271
-4.76454191241
-4.83888606238
-4.91320307088
-4.98749045718
-5.06174558381
-5.1359656841
-5.2101477077
-5.28428834816
-5.3583840633
-5.43243104353
-5.5064252293
-5.58036226603
-5.65423748316
-5.72804583227
-5.8017818724
-5.8754397483
-5.94901320585
-6.02249557321
-6.09587973277
-6.16915807465
-6.2423224546
-6.31536415031
-6.38827386354
-6.46104169331
-6.53365710623
-6.60610891446
-6.67838524361
-6.75047349703
-6.82236029419
-6.89403139378
-6.96547165206
-7.03666502681
-7.1075945255
-7.17824218631
-7.24858907247
-7.31861523876
-7.38829966809
-7.45762016856
-7.52655326782
-7.59507417263
-7.66315679957
-7.73077380737
-7.79789656353
-7.86449505025
-7.9305377739
-7.99599171913
-8.06082230245
-8.1249932968
-8.1884667782
-8.25120314325
-8.31316115803
-8.37429791772
-8.4345687001
-8.49392687461
-8.55232395242
-8.60970963372
-8.66603171829
-8.72123599531
-8.77526624888
-8.82806433855
-8.87957023469
-8.92972193924
-8.97845539528
-9.02570444862
-9.07140095658
-9.11547487148
-9.15785414978
-9.19846477446
-9.23723075528
-9.2740742084
-9.30891540777
-9.34167280533
-9.37226300604
-9.40060084148
-9.42659987424
-9.45017193308
-9.4712271777
-9.48967422784
-9.50542038084
-9.51837168966
-9.52843301926
-9.53550819923
-9.53950017081
-9.54031103133
-9.5378420102
-9.53199350675
-9.5226650809
-9.5097553898
-9.4931640351
-9.47279008666
-9.44853215758
-9.42028845802
-9.38795700679
-9.35143568649
-9.31062206687
-9.26541326832
-9.2157057706
-9.16139510744
-9.10237544844
-9.03853907938
-8.96977590164
-8.89597255053
-8.81701104178
-8.73276743211
-8.64310995235
-8.54789641006
-8.44697102264
-8.34016051026
-8.22726882542
-8.10806994437
-7.98229890195
-7.84963910832
-7.70970531522
-7.56202121143
-7.40598867924
-7.24085079861
-7.06565823812
-6.87931371762
-6.68076443262
-6.46878374047
-6.24319702792
-6.02465762009
-0.614037232707
-1.09540575915
-1.48666573371
-1.77827977805
-1.99985437916
-2.1677895422
-2.29989121438
-2.40967984372
-2.50553865691
-2.59268365799
-2.67442626855
-2.75286101515
-2.82930818452
-2.90459746251
-2.97924514791
-3.05356664774
-3.1277491447
-3.20189881754
-3.27607154937
-3.35029276184
-3.42457024597
-3.49890189265
-3.57328086044
-3.64769870452
-3.72214660131
-3.79661634628
-3.8711007581
-3.9455937542
-4.02009025968
-4.09458600288
-4.16907735576
-4.24356122951
-4.31803498793
-4.39249633959
-4.46694320024
-4.54137358647
-4.61578553632
-4.69017703452
-4.76454596644
-4.83889011048
-4.91320715714
-4.98749466669
-5.06175002247
-5.1359704326
-5.21015282132
-5.28429385931
-5.35839001004
-5.43243750439
-5.50643226519
-5.58036991581
-5.65424579311
-5.7280548436
-5.80179162487
-5.87545027383
-5.94902453352
-6.02250773052
-6.09589276142
-6.16917203161
-6.24233740837
-6.31538019269
-6.3882911017
-6.4610602405
-6.53367707189
-6.60613039345
-6.67840831883
-6.75049824144
-6.82238677449
-6.89405967534
-6.96550180142
-7.03669714665
-7.1076287558
-7.17827867757
-7.24862796698
-7.31865667421
-7.38834378444
-7.45766709522
-7.52660311766
-7.59512707114
-7.66321291979
-7.73083336249
-7.79795976035
-7.86456206281
-7.93060876271
-7.99606684848
-8.06090172375
-8.12507713635
-8.18855517317
-8.25129629323
-8.31325931939
-8.37440134406
-8.43467760763
-8.49404146485
-8.55244444168
-8.60983624536
-8.66616465
-8.72137541245
-8.77541232575
-8.82821729905
-8.87973032753
-8.92988934943
-8.97863023578
-9.02588684662
-9.07159107385
-9.11567288441
-9.1580602508
-9.19867913426
-9.2374535601
-9.27430564941
-9.30915569788
-9.34192219369
-9.37252188926
-9.40086994372
-9.42687958913
-9.45046257975
-9.47152908453
-9.48998775011
-9.50574590074
-9.5187096591
-9.52878399345
-9.53587283931
-9.53987922475
-9.54070527878
-9.53825228676
-9.53242087031
-9.52311112513
-9.51022284848
-9.49365537781
-9.47330761956
-9.44907837901
-9.42086640047
-9.38857031101
-9.35208860112
-9.311319683
-9.2661618354
-9.2165129831
-9.16227037701
-9.10333031169
-9.03958783663
-8.97093627234
-8.89726640728
-8.81846553926
-8.73441645919
-8.64499577498
-8.55007194364
-8.44950303077
-8.34313355995
-8.23079084015
-8.1122802794
-7.98737948867
-7.8558308802
-7.71733356724
-7.57153531071
-7.41802592153
-7.2563417136
-7.08599351604
-6.90657217107
-6.7180163604
-6.52071380636
-6.31558414578
-6.1107240175
-1.16549824855
-1.35184325826
-1.59429275964
-1.81675875272
-2.00395027591
-2.15797759933
-2.28641496734
-2.39670564969
-2.494500428
-2.58386078226
-2.66763213035
-2.74775890937
-2.82554861731
-2.90187047176
-2.97729497583
-3.05219080696
-3.12679165772
-3.20124193602
-3.2756278211
-3.34999815347
-3.42437841039
-3.49877985224
-3.5732059274
-3.64765455635
-3.72212225522
-3.79660439542
-3.87109628733
-3.94559357236
-4.0200923428
-4.09458912123
-4.16908081783
-4.24356469778
-4.31803833461
-4.39249953864
-4.46694626409
-4.54137653213
-4.61578837038
-4.69017975961
-4.76454860528
-4.83889271575
-4.91320979983
-4.98749743623
-5.06175299822
-5.1359736428
-5.21015626941
-5.28429754305
-5.35839392042
-5.43244163587
-5.50643665562
-5.58037464948
-5.65425091356
-5.72806039365
-5.8017976408
-5.875456769
-5.94903151821
-6.02251521672
-6.09590076407
-6.16918056279
-6.24234650431
-6.3153899224
-6.3883015664
-6.4610715466
-6.53368931165
-6.60614364173
-6.67842261625
-6.75051358907
-6.82240314088
-6.8940770443
-6.96552023749
-7.03671673268
-7.10764959649
-7.17830088587
-7.24865164319
-7.31868189958
-7.38837062237
-7.45769559791
-7.52663334357
-7.59515910812
-7.66324689481
-7.73086942513
-7.79799805109
-7.86460269279
-7.93065181492
-7.9961123827
-8.06094978332
-8.12512777466
-8.18860849515
-8.2513524676
-8.31331853496
-8.37446375947
-8.43474335722
-8.49411069578
-8.55251731267
-8.60991288735
-8.66624516129
-8.72145991487
-8.77550100092
-8.82831035582
-8.87982797057
-8.92999181303
-8.97873771665
-9.02599955314
-9.07170926586
-9.11579678168
-9.15819006356
-9.19881510449
-9.2375959748
-9.27445479032
-9.30931177629
-9.34208537021
-9.37269228652
-9.40104755936
-9.42706457895
-9.45065510777
-9.47172932239
-9.49019594096
-9.50596236878
-9.51893478268
-9.52901822592
-9.5361167555
-9.54013349209
-9.54097062712
-9.53852952334
-9.5327109111
-9.52341506017
-9.51054191711
-9.49399125591
-9.47366250015
-9.44945500973
-9.42126818938
-9.3890014346
-9.35255412289
-9.31182573875
-9.26671591101
-9.21712421633
-9.16294989366
-9.10409173508
-9.04044787335
-8.97191529479
-8.89838939583
-8.81976340821
-8.735927429
-8.64676708961
-8.55216232543
-8.45198587008
-8.34610100182
-8.23435949795
-8.11659893325
-7.9926394044
-7.86228095885
-7.72530187645
-7.58145969894
-7.43049785368
-7.27216488465
-7.10625417344
-6.93268579391
-6.75166361556
-6.56373456845
-6.36969032338
-6.172597618
-1.50284419104
-1.55460491704
-1.69850262123
-1.86279404865
-2.01712764853
-2.15518507618
-2.27733880832
-2.38612737951
-2.48457162726
-2.5754019769
-2.66080974376
-2.74244771459
-2.82151758092
-2.89887129143
-2.97510062721
-3.05060929436
-3.12566791771
-3.2004545632
-3.27508396684
-3.34962817073
-3.42413093524
-3.49861762641
-3.57310203918
-3.6475898717
-3.72208354157
-3.79658254224
-3.87108508708
-3.94558887853
-4.02009145
-4.09459032045
-4.1690830829
-4.24356745555
-4.31804128057
-4.39250251182
-4.46694918283
-4.54137936132
-4.6157910969
-4.69018237709
-4.76455113497
-4.83889522705
-4.91321238588
-4.98750018018
-5.06175595625
-5.1359768358
-5.21015970553
-5.28430124916
-5.35839794519
-5.4324460452
-5.5064415127
-5.58037998633
-5.65425673985
-5.72806672333
-5.80180446895
-5.87546410702
-5.94903938236
-6.0225236397
-6.09590976698
-6.1691901863
-6.24235680396
-6.31540097411
-6.38831346129
-6.46108437468
-6.53370314763
-6.60615854152
-6.67843862522
-6.75053074272
-6.82242146658
-6.8940965842
-6.96554105497
-7.0367389177
-7.10767324696
-7.17832610411
-7.24867853161
-7.31871055203
-7.38840111739
-7.4577280092
-7.52666775728
-7.59519562937
-7.66328564527
-7.73091053773
-7.79804166365
-7.8646489399
-7.93070081781
-7.99616424142
-8.06100458183
-8.12518560169
-8.18866946674
-8.25141672838
-8.31338623224
-8.37453502405
-8.43481831834
-8.49418950052
-8.55260010847
-8.60999978578
-8.66633624377
-8.72155528362
-8.77560080308
-8.82841473868
-8.87993702946
-8.93010559092
-8.97885626466
-9.02612295319
-9.07183763144
-9.11593022331
-9.15832867855
-9.19895902303
-9.23774533669
-9.27460974727
-9.30947245599
-9.34225192199
-9.37286496708
-9.40122667317
-9.42725037328
-9.45084775212
-9.47192899697
-9.49040293184
-9.50617707015
-9.51915763567
-9.52924973084
-9.53635751707
-9.54038421627
-9.54123212399
-9.53880270835
-9.5329969047
-9.52371528449
-9.5108580681
-9.49432534138
-9.47401701371
-9.44983300995
-9.42167334286
-9.38943816378
-9.35302782548
-9.31234303674
-9.2672849311
-9.21775486944
-9.16365426601
-9.10488461488
-9.0413473095
-8.97294331339
-8.89957303361
-8.82113587586
-8.73752945727
-8.64864887419
-8.55438594747
-8.45462826777
-8.34925797154
-8.23815092271
-8.12117559195
-7.99819209264
-7.86905278597
-7.73360405888
-7.59169213384
-7.44317516072
-7.28794337682
-7.12595208235
-6.95727069305
-6.78214244589
-6.60095271023
-6.41401830413
-6.22202734474
-1.70691893355
-1.70193703495
-1.78591525843
-1.90670282685
-2.03334645024
-2.15602604076
-2.27092291425
-2.37711937185
-2.47540260506
-2.56719190345
-2.65395282267
-2.73696787861
-2.81727183885
-2.89565848231
-2.9727158612
-3.04886845782
-3.12441631618
-3.1995676364
-3.27446441356
-3.34920174756
-3.4238420687
-3.49842535976
-3.57297637083
-3.64751020399
-3.72203446952
-3.79655361105
-3.87106913014
-3.94558104805
-4.02008853846
-4.09459026298
-4.16908459895
-4.24356978115
-4.31804397067
-4.39250530862
-4.46695194081
-4.54138200525
-4.61579360217
-4.69018475762
-4.76455342893
-4.83889750817
-4.91321474402
-4.98750267653
-5.06175860991
-5.13597964199
-5.21016266431
-5.28430437866
-5.35840127438
-5.4324495947
-5.5064453061
-5.58038405411
-5.65426111294
-5.72807142447
-5.80180953425
-5.8754695666
-5.94904526126
-6.02252995939
-6.09591655551
-6.1691974743
-6.24236462291
-6.31540937036
-6.38832249928
-6.46109412531
-6.53371366637
-6.6061698583
-6.67845075401
-6.75054368981
-6.82243523681
-6.89411119981
-6.96555658343
-7.03675547245
-7.1076909352
-7.17834500217
-7.2486986963
-7.31873202837
-7.38842393315
-7.45775218619
-7.52669334562
-7.59522272866
-7.66331438507
-7.73094104111
-7.79807402822
-7.86468323408
-7.93073708399
-7.99620251491
-8.06104492774
-8.12522814232
-8.18871436691
-8.25146414759
-8.31343628976
-8.37458780966
-8.43487392806
-8.49424804453
-8.55266168974
-8.61006450155
-8.6664042146
-8.7216266704
-8.77567579101
-8.82849349295
-8.88001966343
-8.93019223051
-8.97894711984
-9.02621822773
-9.07193748765
-9.11603482177
-9.15843817388
-9.19907357154
-9.23786507337
-9.2747348234
-9.30960304808
-9.3423882
-9.37300710901
-9.40137487828
-9.42740483184
-9.45100864948
-9.47209656468
-9.49057748691
-9.50635901728
-9.51934746943
-9.52944802139
-9.53656491362
-9.54060147168
-9.54146009817
-9.53904242055
-9.53324958861
-9.52398248526
-9.51114166024
-9.494627567
-9.47434061445
-9.45018128991
-9.42205023089
-9.38984837344
-9.35347712217
-9.3128384755
-9.2678350487
-9.21836998258
-9.16434693884
-9.1056701446
-9.04224428338
-8.97397439542
-8.90076586033
-8.82252405902
-8.73915401232
-8.65056012742
-8.55664562338
-8.45731217795
-8.35245962141
-8.24198571062
-8.12578637174
-8.00375657461
-7.87579218688
-7.74179330388
-7.60167158638
-7.45536240511
-7.30284101822
-7.14414326526
-6.97938886276
-6.80879046358
-6.63258523592
-6.45083099556
-6.263427253
-1.83004826079
-1.80458795298
-1.85395034088
-1.94410848068
-2.04903368526
-2.15835594006
-2.26619289313
-2.36941685184
-2.46709086294
-2.55948140037
-2.64735276227
-2.73159657186
-2.81305173871
-2.89242966148
-2.97029755911
-3.04708967614
-3.12312886923
-3.19864973487
-3.27381951342
-3.34875534716
-3.42353788562
-3.4982216385
-3.57284264953
-3.64742445981
-3.72198094698
-3.7965214996
-3.87105093572
-3.94557167591
-4.02008459487
-4.09458953476
-4.16908567601
-4.24357178459
-4.31804636932
-4.39250780218
-4.46695437734
-4.54138431071
-4.61579575559
-4.6901867914
-4.7645554076
-4.83889950213
-4.91321681652
-4.98750486242
-5.06176090511
-5.13598203095
-5.21016515152
-5.28430700107
-5.35840408284
-5.43245262663
-5.50644859153
-5.58038763557
-5.6542650294
-5.72807566687
-5.80181409372
-5.87547445063
-5.94905049311
-6.02253557076
-6.09592257975
-6.16920394247
-6.24237157183
-6.31541684131
-6.38833053125
-6.46110275941
-6.53372294221
-6.60617980809
-6.67846139723
-6.75055503911
-6.82244731989
-6.89412406399
-6.96557030226
-7.03677013969
-7.10770663441
-7.17836178962
-7.24871661007
-7.31875110127
-7.38844419456
-7.45777366759
-7.52671609991
-7.59524684307
-7.66333996492
-7.73096817832
-7.79810278934
-7.86471367297
-7.9307692594
-7.99623650236
-8.06108082325
-8.1252660543
-8.18875439845
-8.25150638312
-8.31348079665
-8.37463464727
-8.43492315225
-8.49429970914
-8.5527158522
-8.61012124174
-8.66646364573
-8.72168891444
-8.7757409468
-8.82856163617
-8.88009085793
-8.93026655337
-8.97902469712
-9.0262991925
-9.07202194112
-9.11612286456
-9.15852994932
-9.19916922935
-9.23796474263
-9.27483861488
-9.30971114377
-9.34250082694
-9.3731244654
-9.4014971363
-9.4275321726
-9.45114132073
-9.47223489607
-9.49072184123
-9.50650978252
-9.51950512626
-9.52961315823
-9.53673820832
-9.54078368545
-9.54165210415
-9.53924528705
-9.53346462618
-9.52421129579
-9.51138620149
-9.49489019484
-9.47462415992
-9.45048913694
-9.42238640431
-9.39021772689
-9.35388563582
-9.31329342761
-9.26834512501
-9.21894561348
-9.16500078063
-9.1064175148
-9.04310373248
-8.97496844482
-8.90192175423
-8.82387476357
-8.74073959797
-8.65242931783
-8.55885754942
-8.45993883054
-8.35558891526
-8.24572475954
-8.13026571262
-8.00913541045
-7.88226412619
-7.74959284088
-7.6110797753
-7.46671027738
-7.31650922129
-7.16055168026
-6.99897020859
-6.83194799757
-6.65965913194
-6.48213525631
-6.29924461991
-1.9040905776
-1.87303657015
-1.9029699902
-1.97274105097
-2.06190947675
-2.16078628472
-2.2626655996
-2.36313819303
-2.46006497382
-2.55281132247
-2.64154839732
-2.72681463113
-2.80925958335
-2.88950730113
-2.96809631558
-3.04546311633
-3.12194712367
-3.19780445137
-3.27322390567
-3.34834195378
-3.42325545107
-3.49803194554
-3.572717724
-3.64734419697
-3.72193055095
-3.79649103974
-3.87103349064
-3.94556254208
-4.02008062331
-4.09458864509
-4.16908651122
-4.24357347952
-4.31804839949
-4.39250987848
-4.46695636842
-4.54138617824
-4.61579750536
-4.69018846636
-4.76455707354
-4.83890121392
-4.91321859654
-4.98750670912
-5.06176280741
-5.13598397901
-5.21016715921
-5.28430910577
-5.35840633639
-5.43245507115
-5.50645124256
-5.58039049148
-5.65426809268
-5.72807893074
-5.80181755895
-5.8754781578
-5.94905450357
-6.02253993316
-6.09592731624
-6.16920906214
-6.24237709677
-6.31542279065
-6.38833690765
-6.46110956563
-6.53373019881
-6.60618755209
-6.67846966215
-6.75056384737
-6.82245670245
-6.8941340742
-6.9655810031
-7.03678159305
-7.10771889399
-7.17837489072
-7.24873056772
-7.318765923
-7.38845989566
-7.45779028082
-7.52673368177
-7.59526547005
-7.66335971201
-7.73098909468
-7.79812489915
-7.86473700527
-7.93079387952
-7.99626251668
-8.061108355
-8.12529520876
-8.18878523986
-8.25153894128
-8.31351509634
-8.37467072591
-8.43496105149
-8.49433947312
-8.5527575485
-8.61016497767
-8.66650955241
-8.72173711076
-8.77579150667
-8.82861460167
-8.88014629859
-8.93032456575
-8.9790853813
-9.02636263143
-9.07208821406
-9.11619205615
-9.15860215556
-9.19924453776
-9.2380432464
-9.27492040111
-9.30979635041
-9.3425896623
-9.37321712427
-9.40159376011
-9.4276329305
-9.45124647813
-9.47234480328
-9.49083686236
-9.50663028084
-9.51963153728
-9.52974604666
-9.53687825733
-9.54093165548
-9.54180886953
-9.53941192685
-9.53364249572
-9.52440206123
-9.51159187302
-9.49511314623
-9.4748672138
-9.45075567796
-9.42268051969
-9.39054438254
-9.35425083488
-9.31370435555
-9.26881039683
-9.21947565877
-9.1656081822
-9.10711733823
-9.04391409976
-8.97591124799
-8.90302340155
-8.82516712546
-8.74226109211
-8.65422616379
-8.56098545469
-8.46246504319
-8.35859453366
-8.24930751509
-8.13454320034
-8.01424845641
-7.88838060826
-7.75691184441
-7.6198345409
-7.47716848945
-7.32897060254
-7.17534145475
-7.01642647358
-6.85240898352
-6.68347555334
-6.50975182436
-6.33131800587
-1.9463238012
-1.91475561318
-1.93440309496
-1.99184784227
-2.07086113719
-2.16263982761
-2.26025758483
-2.35864546284
-2.45492719134
-2.54786109495
-2.63719351552
-2.72319734503
-2.8063731292
-2.88727228899
-2.96640659029
-3.04421090801
-3.12103525131
-3.19715098809
-3.27276276145
-3.34802148062
-3.42303623946
-3.49788450323
-3.57262026643
-3.64728035487
-3.7218910095
-3.79646717876
-3.87101978624
-3.94555535995
-4.02007751232
-4.09458795922
-4.16908715558
-4.24357475452
-4.31804990011
-4.39251139536
-4.4669578119
-4.54138753512
-4.61579880364
-4.69018974792
-4.76455838593
-4.838902589
-4.91322002339
-4.98750815738
-5.06176426072
-5.1359854445
-5.2101686646
-5.28431068488
-5.35840802461
-5.43245691295
-5.50645326356
-5.58039268116
-5.65427043113
-5.72808140941
-5.80182017638
-5.87548094345
-5.94905751867
-6.0225432345
-6.09593093385
-6.16921299438
-6.24238133269
-6.31542731795
-6.38834171325
-6.46111464947
-6.53373559072
-6.60619330459
-6.67847582107
-6.75057043476
-6.82246373801
-6.89414159816
-6.96558905899
-7.03679020626
-7.10772808042
-7.17838467471
-7.24874097807
-7.31877698036
-7.38847161714
-7.45780269636
-7.52674683572
-7.59527940325
-7.663374446
-7.73100463825
-7.79814127273
-7.86475426273
-7.93081210764
-7.9962818119
-8.06112879971
-8.12531686262
-8.18880813595
-8.25156308349
-8.31354047132
-8.37469732649
-8.43498889259
-8.49436860145
-8.55278805165
-8.61019697123
-8.66654313918
-8.72177235054
-8.77582842732
-8.82865322688
-8.88018668629
-8.93036679258
-8.97912950189
-9.02640870413
-9.07213631291
-9.11624226947
-9.15865456409
-9.19929920997
-9.23810025586
-9.27497985933
-9.30985839087
-9.34265443085
-9.37328477469
-9.40166444662
-9.42770686102
-9.45132392198
-9.4724260603
-9.49092225273
-9.50672015928
-9.51972634353
-9.52984634842
-9.53698472177
-9.54104502737
-9.54193002558
-9.53954198284
-9.53378284023
-9.52455437071
-9.51175814494
-9.49529574769
-9.47506896522
-9.45097996073
-9.42293144744
-9.3908269497
-9.35457097919
-9.31406914647
-9.26922836933
-9.21995710696
-9.16616541184
-9.10776505795
-9.04466997252
-8.97679647409
-8.90406342789
-8.82639252213
-8.74370842831
-8.65593916494
-8.56301659695
-8.46487707666
-8.36146216419
-8.25271985773
-8.13860641742
-8.01908819793
-7.8941446602
-7.76377282301
-7.6279920683
-7.48685003362
-7.34043035325
-7.18885874284
-7.03230512542
-6.8709816226
-6.70513245403
-6.53501539296
-6.36094305689
-1.9655723764
-1.93447202421
-1.94969788404
-2.0013646741
-2.07542202301
-2.16362345277
-2.25902760569
-2.35629655547
-2.45220873033
-2.54521952328
-2.63485474339
-2.72124522273
-2.80480962003
-2.88605821761
-2.96548673785
-3.04352808776
-3.12053735371
-3.19679382923
-3.27251055122
-3.34784614001
-3.42291627171
-3.49780379083
-3.57256702156
-3.64724627243
-3.72186939489
-3.79645405124
-3.87101228175
-3.94555149369
-4.02007591821
-4.09458769911
-4.16908759507
-4.24357549224
-4.31805072861
-4.39251223364
-4.46695863614
-4.54138834408
-4.61579961905
-4.69019060187
-4.76455929474
-4.83890354797
-4.91322100249
-4.98750912373
-5.06176519653
-5.13598636503
-5.21016960931
-5.2843117035
-5.35840915781
-5.43245818758
-5.50645468547
-5.58039422376
-5.65427204055
-5.72808305789
-5.8018218847
-5.87548276731
-5.94905952064
-6.02254545468
-6.0959333811
-6.16921566078
-6.24238419499
-6.31543035131
-6.38834490077
-6.46111799517
-6.53373913362
-6.60619709473
-6.67847988974
-6.7505747925
-6.82246839529
-6.89414658349
-6.96559440251
-7.03679591341
-7.10773413532
-7.17839107287
-7.24874774168
-7.3187841464
-7.38847922508
-7.45781078444
-7.52675543029
-7.59528850292
-7.66338402137
-7.73101466438
-7.79815176701
-7.86476529384
-7.93082376759
-7.99629417569
-8.06114190758
-8.12533073326
-8.18882278203
-8.25157850513
-8.31355664365
-8.37471421753
-8.43500650455
-8.49438699046
-8.55280731229
-8.61021719436
-8.66656437575
-8.72179460353
-8.77585169394
-8.82867752688
-8.88021204173
-8.9303932355
-8.97915706803
-9.02643745192
-9.0721663128
-9.11627358768
-9.15868725518
-9.19933331974
-9.23813583998
-9.27501703335
-9.30989728196
-9.34269514584
-9.3733274155
-9.40170917033
-9.4277538942
-9.45137352194
-9.47247847127
-9.49097774099
-9.50677908557
-9.51978918897
-9.52991369286
-9.5370571799
-9.54112329919
-9.54201500839
-9.53963486242
-9.53388505269
-9.52466757474
-9.51188430127
-9.49543720173
-9.4752285364
-9.4511610418
-9.42313813925
-9.39106416792
-9.35484458305
-9.31438620179
-9.26959738689
-9.22038816539
-9.16667048057
-9.10835856129
-9.04536927126
-8.97762225616
-8.9050403404
-8.82755001835
-8.74508160417
-8.65756982808
-8.56495457493
-8.46718150727
-8.36420303825
-8.25597997754
-8.14248359426
-8.02369742162
-7.89962034537
-7.77027105969
-7.63569254348
-7.49595831153
-7.35117890191
-7.20150914681
-7.04715406915
-6.88837161598
-6.72547948933
-6.55886050697
-6.38900737077
-1.96557233093
-1.93447234152
-1.94969772142
-2.0013647624
-2.07542195466
-2.16362345412
-2.25902765723
-2.35629660262
-2.45220877332
-2.54521957144
-2.63485480224
-2.72124529083
-2.80480969207
-2.88605827455
-2.96548676234
-3.04352808212
-3.12053734144
-3.19679385569
-3.27251064836
-3.34784629753
-3.42291645284
-3.49780394565
-3.57256710832
-3.64724627956
-3.72186935854
-3.79645404608
-3.87101237548
-3.94555169962
-4.02007619309
-4.09458797752
-4.1690878261
-4.24357565756
-4.31805084156
-4.39251234628
-4.4669587989
-4.54138857248
-4.61579991351
-4.69019097061
-4.76455972966
-4.83890401585
-4.91322147187
-4.98750956045
-5.06176559926
-5.13598675394
-5.21017001409
-5.28431216271
-5.35840971669
-5.43245886861
-5.50645547892
-5.58039508539
-5.65427291538
-5.72808391989
-5.8018227577
-5.87548369718
-5.94906054186
-6.02254658778
-6.09593463069
-6.16921701966
-6.24238563726
-6.31543184866
-6.38834644573
-6.46111961149
-6.53374086289
-6.60619896493
-6.67848189832
-6.75057692999
-6.82247067005
-6.89414901222
-6.96559699253
-7.03679865287
-7.10773701061
-7.17839408352
-7.24875090305
-7.3187874847
-7.38848277117
-7.45781456318
-7.52675944314
-7.59529271569
-7.66338838846
-7.73101916744
-7.79815643499
-7.86477018228
-7.93082892315
-7.99629962609
-8.06114766984
-8.12533681049
-8.18882915636
-8.25158514904
-8.31356353013
-8.37472133121
-8.43501386668
-8.49439466293
-8.55281535484
-8.6102256291
-8.66657319605
-8.72180379603
-8.77586124613
-8.82868743787
-8.88022230352
-8.93040385149
-8.97916805448
-9.02644886097
-9.07217820193
-9.11628599557
-9.15870020735
-9.1993468599
-9.23815003542
-9.27503197319
-9.30991304665
-9.34271180565
-9.37334505834
-9.40172794061
-9.42777397863
-9.4513951315
-9.4725018326
-9.49100312616
-9.50680687421
-9.51981986759
-9.52994778903
-9.53709528087
-9.54116613907
-9.54206354733
-9.53969030564
-9.53394880768
-9.52474126029
-9.51196987917
-9.49553704594
-9.47534546391
-9.45129839543
-9.42329995874
-9.39125534879
-9.35507101023
-9.31465492912
-9.26991682461
-9.22076827742
-9.16712318004
-9.10889817631
-9.04601291939
-8.97839031792
-8.90595711709
-8.82864441753
-8.74638790373
-8.65912868609
-8.56681413058
-8.46939872133
-8.36684530017
-8.25912664893
-8.14622788061
-8.02814840106
-7.90490521652
-7.7765376378
-7.64311120726
-7.50472509569
-7.36151846205
-7.21367835308
-7.06144998725
-6.90514193718
-6.74514121479
-6.58192780748
-6.41611016471
-1.94632367752
-1.91475654196
-1.93440256166
-1.99184811688
-2.07086100587
-2.16263985123
-2.2602577185
-2.35864557615
-2.4549272957
-2.54786119784
-2.63719362141
-2.72319747989
-2.80637330464
-2.88727245826
-2.96640669153
-3.04421093063
-3.12103525471
-3.19715109744
-3.27276306741
-3.3480219582
-3.42303677364
-3.49788494092
-3.57262049639
-3.64728036345
-3.72189090996
-3.7964671783
-3.87102006268
-3.94555594981
-4.02007830075
-4.09458876768
-4.16908784368
-4.24357527147
-4.3180502916
-4.392511783
-4.46695832226
-4.54138822495
-4.61579967834
-4.69019081802
-4.76455963468
-4.83890394868
-4.91322140016
-4.98750945867
-5.06176546881
-5.13598662515
-5.21016991917
-5.28431211759
-5.35840974509
-5.43245898
-5.50645564607
-5.58039525398
-5.65427303918
-5.72808398649
-5.80182278944
-5.87548371786
-5.94906056132
-6.0225466063
-6.09593465717
-6.16921705587
-6.24238566177
-6.31543183402
-6.38834639235
-6.46111954703
-6.53374081001
-6.60619891886
-6.67848183485
-6.75057683625
-6.82247055944
-6.89414889495
-6.96559684415
-7.03679843102
-7.10773669136
-7.17839367721
-7.24875043858
-7.31878698917
-7.38848226275
-7.45781404477
-7.52675888867
-7.59529207012
-7.66338759236
-7.73101819377
-7.79815529951
-7.86476891358
-7.93082753259
-7.99629811632
-8.06114605221
-8.12533508404
-8.18882727872
-8.25158305236
-8.31356117073
-8.37471871634
-8.43501104264
-8.49439167337
-8.55281219742
-8.61022226101
-8.66656957408
-8.72179989556
-8.77585704302
-8.82868291596
-8.88021744306
-8.93039864468
-8.97916249707
-9.02644294485
-9.07217194786
-9.11627945348
-9.15869341482
-9.19933985562
-9.23814287514
-9.27502468282
-9.30990565431
-9.34270435425
-9.37333762714
-9.40172065209
-9.42776698612
-9.45138861792
-9.47249602932
-9.49099832695
-9.50680344293
-9.51981824237
-9.5299484468
-9.53709880853
-9.54117334284
-9.54207544982
-9.53970810608
-9.53397386874
-9.52477515379
-9.51201455329
-9.49559489493
-9.47541929129
-9.45139152463
-9.42341643714
-9.39140011324
-9.35524998274
-9.31487512975
-9.27018661071
-9.22109768485
-9.16752427304
-9.10938532114
-9.04660317554
-8.97910409403
-8.90681876026
-8.82968272833
-8.74763697004
-8.66062896204
-8.56861346106
-8.4715535735
-8.36942234095
-8.26220426233
-8.1498979012
-8.0325181655
-7.91009950562
-7.78270166289
-7.65041288268
-7.51335793085
-7.37170528839
-7.2256745647
-7.07555034861
-6.92168745426
-6.764527564
-6.60461410239
-6.44261556837
-1.90409040803
-1.87303809792
-1.90296916856
-1.97274155971
-2.06190936279
-2.16078635989
-2.26266581866
-2.36313833549
-2.46006506641
-2.55281138892
-2.6415484718
-2.72681479389
-2.80925986661
-2.88950762127
-2.9680965543
-3.04546324247
-3.12194721807
-3.19780468517
-3.27322440605
-3.34834269446
-3.42325625881
-3.49803258573
-3.57271804828
-3.64734422085
-3.72193045912
-3.79649112275
-3.87103397982
-3.94556348106
-4.02008185465
-4.0945899179
-4.16908763077
-4.24357439028
-4.31804917581
-4.39251065581
-4.46695728825