/*--------------------------------*- C++ -*----------------------------------*\
| =========                 |                                                 |
| \\      /  F ield         | OpenFOAM: The Open Source CFD Toolbox           |
|  \\    /   O peration     | Version:  2106                                  |
|   \\  /    A nd           | Website:  www.openfoam.com                      |
|    \\/     M anipulation  |                                                 |
\*---------------------------------------------------------------------------*/
FoamFile
{
    version     2.0;
    format      ascii;
    arch        "LSB;label=32;scalar=64";
    class       surfaceScalarField;
    location    "0.45";
    object      phi;
}
// * * * * * * * * * * * * * * * * * * * * * * * * * * * * * * * * * * * * * //

dimensions      [0 3 -1 0 0 0 0];

oriented        oriented;

internalField   nonuniform List<scalar> 
22100
(
3.38461204637e-05
1.61538795332e-05
2.24572102506e-05
1.13889103113e-05
1.62585536242e-05
6.19865674216e-06
1.27977769306e-05
3.46077684657e-06
1.08046433725e-05
1.99313375099e-06
9.60459068952e-06
1.2000529221e-06
8.85132326507e-06
7.53267684831e-07
8.36435475236e-06
4.86968763007e-07
8.04433713159e-06
3.2001783719e-07
7.83284257087e-06
2.11494743003e-07
7.69339964458e-06
1.39443093822e-07
7.60224302357e-06
9.11567992533e-08
7.54348054871e-06
5.8762687436e-08
7.50634397556e-06
3.71368317207e-08
7.48350481745e-06
2.28394554609e-08
7.46998431924e-06
1.35208095016e-08
7.46241996672e-06
7.56464782221e-09
7.45855214399e-06
3.86808474374e-09
7.45683333926e-06
1.71904210755e-09
7.45642692044e-06
4.066619438e-10
7.45677697631e-06
-3.49825144543e-10
7.45746345986e-06
-6.86216065055e-10
7.45822218367e-06
-7.58373832353e-10
7.45894791353e-06
-7.25327812592e-10
7.45959266054e-06
-6.44319847459e-10
7.46013700978e-06
-5.4393461851e-10
7.46057950124e-06
-4.42123847471e-10
7.46092860157e-06
-3.4879407467e-10
7.46119725093e-06
-2.68392984565e-10
7.46139957438e-06
-2.02083108784e-10
7.46154897864e-06
-1.49132815104e-10
7.46165717178e-06
-1.07858196138e-10
7.46173384776e-06
-7.63281594408e-11
7.46178711165e-06
-5.28806086931e-11
7.46182088024e-06
-3.33635099191e-11
7.46184012142e-06
-1.88345626246e-11
7.46184955836e-06
-9.10359005002e-12
7.46185268106e-06
-2.83681902108e-12
7.46185149239e-06
1.45088663812e-12
7.46184715916e-06
4.59077141261e-12
7.46184064537e-06
6.79798284521e-12
7.46183257518e-06
8.42872774246e-12
7.46182329089e-06
9.72890113528e-12
7.46181291872e-06
1.08745254949e-11
7.461801433e-06
1.20038733931e-11
7.46178869588e-06
1.32253940458e-11
7.4617744914e-06
1.46350687365e-11
7.46175853559e-06
1.63337053509e-11
7.46174045778e-06
1.84329888022e-11
7.46171975355e-06
2.1081126326e-11
7.46169582932e-06
2.43672720201e-11
7.46166796691e-06
2.83871025846e-11
7.46163533249e-06
3.3217569399e-11
7.46159701964e-06
3.88960876749e-11
7.46155213108e-06
4.5417165623e-11
7.46149983995e-06
5.27351064824e-11
7.46143955582e-06
6.06623631536e-11
7.46137131836e-06
6.8630766582e-11
7.46129583214e-06
7.58894208335e-11
7.46121559597e-06
8.06902986817e-11
7.46113711056e-06
7.90555476811e-11
7.4610723269e-06
6.5421795623e-11
7.46102860978e-06
4.42474726933e-11
7.46102541605e-06
3.51795349116e-12
7.46109892532e-06
-7.32341207972e-11
7.46130744193e-06
-2.08414430434e-10
7.46174559408e-06
-4.38041154306e-10
7.46256353825e-06
-8.17774160273e-10
7.46399660727e-06
-1.43279255941e-09
7.46640018994e-06
-2.40322905908e-09
7.47022327702e-06
-3.82267900654e-09
7.47667852537e-06
-6.45476808343e-09
7.48745511022e-06
-1.07760718413e-08
7.50563532503e-06
-1.81797779196e-08
7.53882472428e-06
-3.31890876881e-08
7.6080394752e-06
-6.92145477647e-08
7.77469015142e-06
-1.66650516382e-07
8.2295568144e-06
-4.54866460445e-07
9.6970295391e-06
-1.46747236487e-06
-5.45079986328e-06
1.51478295568e-05
5.02175950155e-05
1.59362846635e-05
4.42441120699e-05
1.73623935044e-05
3.77795022468e-05
1.26632668533e-05
3.26461451014e-05
8.59413435247e-06
2.89380933489e-05
5.70118592185e-06
2.63596233296e-05
3.77852339096e-06
2.45875192833e-05
2.52537216376e-06
2.3373477553e-05
1.70101087907e-06
2.25435287968e-05
1.14996693131e-06
2.19782203942e-05
7.76803462505e-07
2.15955181753e-05
5.22145651471e-07
2.13387419757e-05
3.4793339416e-07
2.11685008869e-05
2.29004241053e-07
2.105734377e-05
1.48294467802e-07
2.0986156378e-05
9.40273811408e-08
2.09416845108e-05
5.79931757477e-08
2.09148031661e-05
3.44464236488e-08
2.08993044817e-05
1.93671261497e-08
2.08910811287e-05
9.94278054024e-09
2.08872812731e-05
4.2069509802e-09
2.08862127223e-05
7.19251268759e-10
2.08864589618e-05
-9.31831834647e-10
2.08873309609e-05
-1.62969586098e-09
2.08884710531e-05
-1.86471568361e-09
2.08896449591e-05
-1.81755888777e-09
2.08907284745e-05
-1.62686527273e-09
2.08916665269e-05
-1.37968417363e-09
2.08924444591e-05
-1.12630003782e-09
2.08930700758e-05
-8.93598099507e-10
2.08935626366e-05
-6.94195055145e-10
2.08939469356e-05
-5.32916318847e-10
2.08942490049e-05
-4.0929077401e-10
2.08944605635e-05
-2.87143153515e-10
2.08946082226e-05
-1.99806722827e-10
2.08947091354e-05
-1.33563136293e-10
2.08947750151e-05
-8.40680594484e-11
2.08948159902e-05
-4.95405657034e-11
2.08948402824e-05
-2.66421514335e-11
2.08948527797e-05
-1.052639964e-11
2.089485644e-05
1.51917992156e-12
2.08948537213e-05
1.02195586333e-11
2.08948462916e-05
1.66796972428e-11
2.08948352466e-05
2.16566957183e-11
2.0894821247e-05
2.5743494868e-11
2.08948046384e-05
2.94269959895e-11
2.08947855457e-05
3.30640306918e-11
2.08947639674e-05
3.69097290771e-11
2.08947398189e-05
4.11741019138e-11
2.089471296e-05
4.60487379734e-11
2.08946831492e-05
5.17620294393e-11
2.08946501797e-05
5.8324719208e-11
2.08946138826e-05
6.57364993113e-11
2.08945742214e-05
7.39208222455e-11
2.08945314689e-05
8.26195610735e-11
2.08944864935e-05
9.12833465804e-11
2.0894441134e-05
9.89419899503e-11
2.08943988111e-05
1.03817351253e-10
2.08943657258e-05
1.02671636926e-10
2.08943513807e-05
9.12736039244e-11
2.08943711612e-05
6.1963958371e-11
2.08944523618e-05
-1.08638399875e-12
2.08946433684e-05
-1.24524048888e-10
2.08950126254e-05
-3.24178290873e-10
2.08956791363e-05
-6.62622211297e-10
2.08967492249e-05
-1.1429607793e-09
2.08984020317e-05
-1.86074837297e-09
2.09009952905e-05
-3.03087621083e-09
2.09050770419e-05
-4.89905322876e-09
2.09115165841e-05
-7.87171448758e-09
2.09217375814e-05
-1.26234643466e-08
2.09382301888e-05
-2.03144773689e-08
2.09651378899e-05
-3.33616986968e-08
2.10094002537e-05
-5.50377834074e-08
2.10841869673e-05
-9.29660100666e-08
2.12154183497e-05
-1.6442011459e-07
2.14559901329e-05
-3.09786022157e-07
2.19137321516e-05
-6.24392290308e-07
2.28005018701e-05
-1.34163620941e-06
2.44440117827e-05
-3.1109823847e-06
-7.03660146086e-06
2.60298174055e-05
5.35171054738e-05
1.24191793018e-05
5.29349687221e-05
1.79445304617e-05
4.96538408026e-05
1.59443950202e-05
4.58401824447e-05
1.24077930251e-05
4.24400937751e-05
9.10127495882e-06
3.97291741605e-05
6.48944340033e-06
3.76873080075e-05
4.56723869408e-06
3.61976654601e-05
3.1906537561e-06
3.51326150641e-05
2.21501760941e-06
3.43823702353e-05
1.5270485538e-06
3.38606294996e-05
1.04388667028e-06
3.35023495604e-05
7.06213669724e-07
3.32596050311e-05
4.71749175591e-07
3.30975951601e-05
3.10304803771e-07
3.29913395484e-05
2.00283484267e-07
3.29230981195e-05
1.26235082031e-07
3.28804105716e-05
7.71344118505e-08
3.28546257936e-05
4.51523171333e-08
3.28397990246e-05
2.47699210867e-08
3.28318728609e-05
1.21335035867e-08
3.28280037998e-05
4.58878255243e-09
3.28270056284e-05
6.68937349439e-11
3.28271869406e-05
-1.81039041874e-09
3.28280359163e-05
-2.71304355308e-09
3.28291522257e-05
-2.93324155115e-09
3.28302999443e-05
-2.77402625032e-09
3.28313563099e-05
-2.43557776071e-09
3.28322670319e-05
-2.0366153069e-09
3.28330173008e-05
-1.64347711794e-09
3.28336132516e-05
-1.28972274583e-09
3.28340698346e-05
-9.89057393901e-10
3.28344051682e-05
-7.44104551977e-10
3.28346719352e-05
-5.53280068383e-10
3.28348886607e-05
-4.15870608549e-10
3.28350362149e-05
-2.8053474641e-10
3.28351357313e-05
-1.83036611692e-10
3.28352018257e-05
-1.15122663531e-10
3.2835243956e-05
-6.83528649486e-11
3.28352690896e-05
-3.52171882819e-11
3.28352812032e-05
-1.0099913022e-11
3.28352839102e-05
8.12853912474e-12
3.28352796902e-05
2.16362078563e-11
3.28352703126e-05
3.18292170269e-11
3.28352569495e-05
3.98893764867e-11
3.28352403454e-05
4.6774300256e-11
3.2835220946e-05
5.31286529526e-11
3.28351990743e-05
5.93885200697e-11
3.28351749833e-05
6.58589937084e-11
3.28351488699e-05
7.28145985016e-11
3.28351207476e-05
8.06359725403e-11
3.28350909295e-05
8.90020162689e-11
3.28350599955e-05
9.76055748873e-11
3.28350289367e-05
1.0590497721e-10
3.28349995204e-05
1.12870566685e-10
3.28349747628e-05
1.16745256935e-10
3.28349593489e-05
1.1496191191e-10
3.28349604565e-05
1.03188498989e-10
3.28349899218e-05
7.37838449723e-11
3.28350651173e-05
1.67871607953e-11
3.28352159739e-05
-8.81081395129e-11
3.28354940527e-05
-2.78264139229e-10
3.28359888562e-05
-6.1820660076e-10
3.28367109891e-05
-1.04531801979e-09
3.28377592448e-05
-1.71009816773e-09
3.28393936746e-05
-2.7768945654e-09
3.28419880481e-05
-4.45473935142e-09
3.28460467684e-05
-7.08928840379e-09
3.28523845921e-05
-1.12365177817e-08
3.28623146241e-05
-1.7801242209e-08
3.2878000983e-05
-2.83091499436e-08
3.29031031697e-05
-4.54158742115e-08
3.2942969999e-05
-7.32277491564e-08
3.30074279771e-05
-1.19495100028e-07
3.31134520925e-05
-1.98989635494e-07
3.32900425283e-05
-3.41010187302e-07
3.35853805082e-05
-6.05123660428e-07
3.40705071877e-05
-1.10951853477e-06
3.4811499153e-05
-2.08262790112e-06
3.56720921418e-05
-3.97157729253e-06
-7.10446674432e-06
3.57399503916e-05
5.35105665977e-05
8.90861280767e-06
5.5574222638e-05
1.58808746302e-05
5.52424832204e-05
1.62761346869e-05
5.35977870244e-05
1.40524895349e-05
5.15418491525e-05
1.11572131908e-05
4.95802817809e-05
8.45101114859e-06
4.79243531273e-05
6.22316769848e-06
4.66181415746e-05
4.49686561137e-06
4.56304690531e-05
3.20269038998e-06
4.49051203725e-05
2.25239747955e-06
4.4384093476e-05
1.56491383776e-06
4.40166976735e-05
1.07360980197e-06
4.3761971595e-05
7.26475656879e-07
4.35882734595e-05
4.84003402805e-07
4.34718745948e-05
3.16682838359e-07
4.33953650063e-05
2.02745147575e-07
4.33461951717e-05
1.26304677324e-07
4.33154579699e-05
7.58899077607e-08
4.32969219992e-05
4.33062591234e-08
4.3286296358e-05
2.2759542953e-08
4.32806940053e-05
1.01915857162e-08
4.32778869085e-05
2.87453074908e-09
4.32770597377e-05
-9.82613920797e-10
4.32772782939e-05
-2.93097049804e-09
4.3277966478e-05
-3.62082803913e-09
4.3278830124e-05
-3.63714702774e-09
4.32797034497e-05
-3.30846210158e-09
4.3280501353e-05
-2.83413937617e-09
4.32811875179e-05
-2.32927426175e-09
4.3281753772e-05
-1.85555778335e-09
4.328220697e-05
-1.44174370557e-09
4.32825597979e-05
-1.09637461978e-09
4.32828220664e-05
-8.14878331619e-10
4.32829979575e-05
-5.91126465012e-10
4.32831313999e-05
-4.13489449488e-10
4.32832171956e-05
-2.68488948465e-10
4.32832715058e-05
-1.69138426198e-10
4.32833117028e-05
-1.08197996291e-10
4.32833365829e-05
-5.96693996388e-11
4.32833491752e-05
-2.22011842437e-11
4.32833529562e-05
4.9848506365e-12
4.32833498368e-05
2.54907948369e-11
4.32833414625e-05
4.09615324202e-11
4.32833289423e-05
5.31149563601e-11
4.32833129456e-05
6.34374125743e-11
4.32832939035e-05
7.27774660729e-11
4.32832721987e-05
8.16720421346e-11
4.32832481835e-05
9.04860238495e-11
4.32832222429e-05
9.94665627427e-11
4.32831949968e-05
1.08689335863e-10
4.3283167085e-05
1.17782390149e-10
4.32831394477e-05
1.26164826643e-10
4.32831134917e-05
1.32744054491e-10
4.32830912748e-05
1.3584919369e-10
4.32830757278e-05
1.32892155911e-10
4.32830715102e-05
1.19693802652e-10
4.32830867063e-05
8.82825147899e-11
4.32831336544e-05
2.72612282617e-11
4.3283231729e-05
-8.06343855411e-11
4.32833965157e-05
-2.52086894475e-10
4.32836458692e-05
-5.26786522924e-10
4.32840949518e-05
-1.06704338944e-09
4.32848754869e-05
-1.82544817895e-09
4.32861385091e-05
-2.97258530849e-09
4.32880925033e-05
-4.73051644675e-09
4.32910881333e-05
-7.45010770702e-09
4.32956854488e-05
-1.16863341181e-08
4.33027633854e-05
-1.83140690989e-08
4.33137042014e-05
-2.87415147479e-08
4.33306655787e-05
-4.52698297896e-08
4.33569558394e-05
-7.17053338238e-08
4.33981431406e-05
-1.14414269389e-07
4.34630745389e-05
-1.84425850614e-07
4.35654657564e-05
-3.013803715e-07
4.37252559082e-05
-5.00799988109e-07
4.3967014521e-05
-8.46881979465e-07
4.43073646451e-05
-1.44986811584e-06
4.4707546477e-05
-2.48280823564e-06
4.49265932692e-05
-4.19062210742e-06
-6.5749721197e-06
4.43970954907e-05
5.27351381337e-05
6.1734747842e-06
5.57309348373e-05
1.28850781487e-05
5.73114749694e-05
1.46955948138e-05
5.76109928311e-05
1.37529719885e-05
5.71335240812e-05
1.16346822927e-05
5.63194700209e-05
9.26506556906e-06
5.54489903162e-05
7.09364773381e-06
5.4662980197e-05
5.28287601465e-06
5.40136850488e-05
3.85198578389e-06
5.35061541279e-05
2.75992863828e-06
5.31242586586e-05
1.94680957624e-06
5.28449896335e-05
1.35287915905e-06
5.26454439888e-05
9.26021707582e-07
5.25057204113e-05
6.23727443443e-07
5.24097263394e-05
4.12677394454e-07
5.23450210169e-05
2.67450934095e-07
5.23022838457e-05
1.69042268884e-07
5.22746972961e-05
1.03476838727e-07
5.22573733419e-05
6.0630584423e-08
5.22468652528e-05
3.32680364658e-08
5.2240766163e-05
1.62911407592e-08
5.22374579107e-05
6.18332609778e-09
5.22359598558e-05
5.16046736233e-10
5.22354524707e-05
-2.42296190294e-09
5.22355179105e-05
-3.68567347307e-09
5.2235863767e-05
-3.98247009122e-09
5.22363183202e-05
-3.76255040034e-09
5.22367849533e-05
-3.30035517483e-09
5.22372125986e-05
-2.75650905308e-09
5.22375785726e-05
-2.22107402903e-09
5.22378762188e-05
-1.73884180305e-09
5.2238108284e-05
-1.32786524043e-09
5.22382850613e-05
-9.91063367058e-10
5.22384183745e-05
-7.23866713314e-10
5.22385191233e-05
-5.13725469097e-10
5.22386040031e-05
-3.5298643333e-10
5.22386698829e-05
-2.34681508822e-10
5.22387125133e-05
-1.50500632634e-10
5.22387457295e-05
-9.2540660536e-11
5.22387617356e-05
-3.77065930142e-11
5.22387677088e-05
-3.1063283912e-13
5.22387661596e-05
2.77800513089e-11
5.22387589971e-05
4.89010649293e-11
5.22387475248e-05
6.52570599715e-11
5.22387325886e-05
7.89872241849e-11
5.22387147722e-05
9.11746417304e-11
5.22386945922e-05
1.02449015183e-10
5.2238672737e-05
1.13014969648e-10
5.22386505412e-05
1.22467056264e-10
5.22386257923e-05
1.34388635394e-10
5.22386002463e-05
1.44335900167e-10
5.22385749624e-05
1.52340993152e-10
5.22385515052e-05
1.56876459738e-10
5.22385325701e-05
1.55196287253e-10
5.22385240697e-05
1.41546533654e-10
5.22385340551e-05
1.09852505356e-10
5.22385670053e-05
5.53690619905e-11
5.22386464565e-05
-5.1990556597e-11
5.22387690591e-05
-2.02676141158e-10
5.22389686709e-05
-4.50582245533e-10
5.22393096208e-05
-8.66729948444e-10
5.22398331291e-05
-1.5896794462e-09
5.22406127865e-05
-2.60450917734e-09
5.22417817065e-05
-4.14107224254e-09
5.22435434745e-05
-6.49198398302e-09
5.22461996336e-05
-1.01060093785e-08
5.22502025072e-05
-1.56888761079e-08
5.22562436801e-05
-2.43547680006e-08
5.22653823702e-05
-3.78795650251e-08
5.22792361888e-05
-5.91228642624e-08
5.23002628626e-05
-9.27311527976e-08
5.23321775675e-05
-1.46328174187e-07
5.23803225357e-05
-2.32570166e-07
5.24516212222e-05
-3.72678554715e-07
5.25529324727e-05
-6.02110856633e-07
5.26847942492e-05
-9.78743529624e-07
5.28249734058e-05
-1.5900471367e-06
5.28919838768e-05
-2.54981801501e-06
5.26733902308e-05
-3.97202619898e-06
-5.76613411048e-06
5.18645509512e-05
5.19834866034e-05
4.18998830327e-06
5.50586643725e-05
9.809900614e-06
5.76386139047e-05
1.21156455461e-05
5.93259042004e-05
1.20656820055e-05
6.02280166181e-05
1.07325702156e-05
6.05929281917e-05
8.90015433933e-06
6.06482854726e-05
7.03829076731e-06
6.05531913286e-05
5.37797043044e-06
6.04029570283e-05
4.00222032258e-06
6.02479167846e-05
2.91496911706e-06
6.0110791542e-05
2.08393508795e-06
5.99990323586e-05
1.46463867505e-06
5.99125175843e-05
1.01253688519e-06
5.98479261381e-05
6.88319345737e-07
5.98010230284e-05
4.59580977679e-07
5.97677388116e-05
3.00735605507e-07
5.97445978486e-05
1.92183647559e-07
5.97288196603e-05
1.19255409701e-07
5.97182718621e-05
7.11787622208e-08
5.97113660548e-05
4.01742597427e-08
5.97069471524e-05
2.07105229132e-08
5.97042137746e-05
8.91725707729e-09
5.9702605314e-05
2.12511325782e-09
5.97017013669e-05
-1.51839322115e-09
5.97012436365e-05
-3.22734060416e-09
5.97010546329e-05
-3.79290640616e-09
5.97010188203e-05
-3.72621967662e-09
5.97010635585e-05
-3.34459641455e-09
5.97011451517e-05
-2.83760280319e-09
5.97012379513e-05
-2.31334750321e-09
5.97013281396e-05
-1.82842148841e-09
5.97014090142e-05
-1.40817939546e-09
5.97014791494e-05
-1.06070097724e-09
5.97015391069e-05
-7.83417374852e-10
5.97015896648e-05
-5.63969649722e-10
5.97016297571e-05
-3.92758418664e-10
5.97016578677e-05
-2.62477902202e-10
5.97016735588e-05
-1.65896047242e-10
5.97016724125e-05
-9.09894272657e-11
5.9701665011e-05
-2.97019991352e-11
5.97016592101e-05
6.2156228713e-12
5.97016508551e-05
3.68571460357e-11
5.97016412619e-05
5.93114707396e-11
5.97016305649e-05
7.68232168063e-11
5.97016175852e-05
9.27305486883e-11
5.97016022395e-05
1.07229792324e-10
5.97015846763e-05
1.20727360069e-10
5.97015649974e-05
1.33450966561e-10
5.97015428739e-05
1.45417066044e-10
5.97015218447e-05
1.56369869136e-10
5.97015017483e-05
1.6543048175e-10
5.97014837344e-05
1.71264730279e-10
5.97014694059e-05
1.71935210209e-10
5.9701460194e-05
1.64922500502e-10
5.97014545222e-05
1.47426403899e-10
5.97014467024e-05
1.18006556125e-10
5.97014537813e-05
4.8812329785e-11
5.97014666957e-05
-6.47974508347e-11
5.97015565015e-05
-2.92153132895e-10
5.9701749627e-05
-6.43659903856e-10
5.97020531686e-05
-1.16997490555e-09
5.97024449296e-05
-1.9809221505e-09
5.97030293729e-05
-3.18851267306e-09
5.97038888819e-05
-5.00022971093e-09
5.97051377107e-05
-7.74050870924e-09
5.97069412261e-05
-1.19091998225e-08
5.97095378682e-05
-1.82850762895e-08
5.97132720402e-05
-2.80883451774e-08
5.97186338534e-05
-4.32406346014e-08
5.972630433e-05
-6.67924862679e-08
5.97371849693e-05
-1.03610906827e-07
5.9752338238e-05
-1.61480638718e-07
5.97726016139e-05
-2.52832881081e-07
5.97973829722e-05
-3.97459369548e-07
5.98215252067e-05
-6.26252604492e-07
5.98281540844e-05
-9.85371981588e-07
5.97752346479e-05
-1.53712742865e-06
5.95748640022e-05
-2.34944713166e-06
5.90692646525e-05
-3.46642507662e-06
-4.79518081491e-06
5.80983110352e-05
5.1437305509e-05
2.75268292358e-06
5.4265820981e-05
6.98138538575e-06
5.72496439339e-05
9.1318228602e-06
5.97900286165e-05
9.52529763141e-06
6.17201294611e-05
8.80246970183e-06
6.30883047652e-05
7.53197936824e-06
6.40167186572e-05
6.10987718167e-06
6.46292387499e-05
4.76545060637e-06
6.50258059711e-05
3.60565334052e-06
6.52790808041e-05
2.66169452404e-06
6.54389761378e-05
1.92404003017e-06
6.55386933074e-05
1.36492184288e-06
6.55999322477e-05
9.51298348335e-07
6.56367475153e-05
6.51504528969e-07
6.56581990876e-05
4.38129871566e-07
6.56701077719e-05
2.88827369746e-07
6.56761974466e-05
1.86094387396e-07
6.56788341712e-05
1.16619071958e-07
6.56795050349e-05
7.05082863167e-08
6.5679129296e-05
4.05504222834e-08
6.56782624317e-05
2.15778719865e-08
6.56772321143e-05
9.94812420823e-09
6.56762235114e-05
3.13431205643e-09
6.56753148882e-05
-6.09160517891e-10
6.56745468379e-05
-2.45869574424e-09
6.56739190873e-05
-3.1645957801e-09
6.56734207661e-05
-3.22736018586e-09
6.56730344264e-05
-2.95772131168e-09
6.56727411025e-05
-2.54373578979e-09
6.56725226285e-05
-2.09433246325e-09
6.5672362944e-05
-1.66813859576e-09
6.56722483075e-05
-1.29297557892e-09
6.56721665632e-05
-9.78452308443e-10
6.5672107079e-05
-7.2349376409e-10
6.56720640567e-05
-5.20599683707e-10
6.5672033302e-05
-3.61719055849e-10
6.56720087035e-05
-2.37675353216e-10
6.567198766e-05
-1.44564800308e-10
6.56719732879e-05
-7.61379769191e-11
6.56719722556e-05
-2.80344300338e-11
6.56719715187e-05
7.63305724492e-12
6.56719650008e-05
4.40578881049e-11
6.56719558628e-05
6.91192189048e-11
6.56719442196e-05
8.91482228381e-11
6.56719309769e-05
1.06620620803e-10
6.56719162147e-05
1.22646899564e-10
6.56718998608e-05
1.37808386875e-10
6.56718819009e-05
1.52251417884e-10
6.56718628234e-05
1.65426800798e-10
6.56718447001e-05
1.75402812098e-10
6.56718264138e-05
1.84515328267e-10
6.56718083862e-05
1.89909723365e-10
6.56717917575e-05
1.89017001446e-10
6.56717785234e-05
1.78493528014e-10
6.56717724533e-05
1.53663127112e-10
6.56717815471e-05
1.09180413932e-10
6.56717877322e-05
4.314572192e-11
6.56718254487e-05
-1.0208747027e-10
6.56718947267e-05
-3.6097144038e-10
6.56719961855e-05
-7.44835988644e-10
6.56721502784e-05
-1.32373039981e-09
6.56723641734e-05
-2.19439122781e-09
6.56726545824e-05
-3.47851011252e-09
6.56730382501e-05
-5.38350826037e-09
6.56735263992e-05
-8.22828719785e-09
6.56741170977e-05
-1.24994901165e-08
6.56747806857e-05
-1.89481444094e-08
6.56754322446e-05
-2.87392439063e-08
6.5675871717e-05
-4.36793137779e-08
6.56756725615e-05
-6.65924499304e-08
6.56739666212e-05
-1.01904084379e-07
6.56690220441e-05
-1.56535274861e-07
6.56573079099e-05
-2.41118094923e-07
6.56317005192e-05
-3.71851433893e-07
6.55780570869e-05
-5.72608671465e-07
6.546915954e-05
-8.76473882719e-07
6.52558677793e-05
-1.32383513849e-06
6.48581848461e-05
-1.95176397424e-06
6.4163728548e-05
-2.77196752194e-06
-3.71388533622e-06
6.30824332136e-05
5.10850425035e-05
1.6676405541e-06
5.36118449766e-05
4.45458316532e-06
5.66873171921e-05
6.056350915e-06
5.96894475391e-05
6.52316759118e-06
6.22997285097e-05
6.1921890585e-06
6.44136904435e-05
5.41801776534e-06
6.60471869391e-05
4.47638099206e-06
6.72686188117e-05
3.54401900462e-06
6.81598981589e-05
2.71437424043e-06
6.87977650809e-05
2.0238278517e-06
6.92467498272e-05
1.47505556777e-06
6.95579691017e-05
1.05370290892e-06
6.97704362971e-05
7.38831554389e-07
6.9913179949e-05
5.08761321379e-07
7.00073916955e-05
3.43918580854e-07
7.00683019205e-05
2.27917581464e-07
7.01067046181e-05
1.47692096141e-07
7.01301475912e-05
9.31764820286e-08
7.01438373998e-05
5.68188637674e-08
7.01513142204e-05
3.3074021728e-08
7.01549474684e-05
1.79450996367e-08
7.01562960711e-05
8.60005609505e-09
7.0156368815e-05
3.06214583628e-09
7.01557776299e-05
-1.73868850896e-11
7.01549175881e-05
-1.59808299736e-09
7.01539947753e-05
-2.24123573484e-09
7.01531269086e-05
-2.35895999135e-09
7.01523676623e-05
-2.19793817044e-09
7.01517342664e-05
-1.90977006542e-09
7.01512238542e-05
-1.58334619708e-09
7.01508235203e-05
-1.26720568073e-09
7.01505162741e-05
-9.8515255866e-10
7.01502844471e-05
-7.46109245512e-10
7.01501118554e-05
-5.50473695622e-10
7.01499854951e-05
-3.93909123723e-10
7.01498947434e-05
-2.70704659477e-10
7.01498325331e-05
-1.75203084099e-10
7.01497915099e-05
-1.03133295458e-10
7.01497636586e-05
-4.77159216778e-11
7.01497345472e-05
1.78939707103e-12
7.01497119719e-05
3.09756716547e-11
7.01496997984e-05
5.71203570163e-11
7.01496901771e-05
7.95495717567e-11
7.01496811069e-05
9.89496863141e-11
7.01496718455e-05
1.16541237657e-10
7.01496620666e-05
1.33072606869e-10
7.0149651703e-05
1.48885063116e-10
7.01496408429e-05
1.63944971492e-10
7.01496293577e-05
1.77845182539e-10
7.01496157727e-05
1.89936111501e-10
7.01496019174e-05
1.99249140533e-10
7.01495885944e-05
2.03980557928e-10
7.01495765569e-05
2.01703530904e-10
7.014956635e-05
1.89325088531e-10
7.01495574912e-05
1.63224463885e-10
7.01495471831e-05
1.19753091187e-10
7.01495429115e-05
4.78598480532e-11
7.01495315329e-05
-9.05127788528e-11
7.01495455352e-05
-3.74705317017e-10
7.01495710703e-05
-7.69956271816e-10
7.01495968965e-05
-1.34911451225e-09
7.01496018711e-05
-2.19896718001e-09
7.01495593927e-05
-3.43559606996e-09
7.01494163421e-05
-5.24000093063e-09
7.01490739717e-05
-7.88547405879e-09
7.01483575042e-05
-1.17825523045e-08
7.01469656688e-05
-1.75557507709e-08
7.01443876097e-05
-2.61605044516e-08
7.01397502002e-05
-3.90411061427e-08
7.01315735359e-05
-5.84149139607e-08
7.01173693342e-05
-8.76990301221e-08
7.00929860087e-05
-1.3215120078e-07
7.00513395136e-05
-1.99470971832e-07
6.99804644555e-05
-3.00975838242e-07
6.9860408771e-05
-4.52552500436e-07
6.96587508772e-05
-6.74815411456e-07
6.93256149232e-05
-9.90698537377e-07
6.87915113465e-05
-1.41766004393e-06
6.79739446433e-05
-1.95439985531e-06
-2.55489805231e-06
6.6814957749e-05
5.08804133415e-05
7.87227352347e-07
5.31704666125e-05
2.16453015708e-06
5.62177504662e-05
3.00906733696e-06
5.9438270802e-05
3.30264756543e-06
6.24449709717e-05
3.18548921981e-06
6.50382547451e-05
2.82473432711e-06
6.71548686475e-05
2.35976740061e-06
6.88135674417e-05
1.88532049144e-06
7.00731737155e-05
1.45476822629e-06
7.10056709464e-05
1.09133088268e-06
7.16812675304e-05
7.99459276015e-07
7.21614272255e-05
5.73543555587e-07
7.24966085445e-05
4.03650628543e-07
7.27264855308e-05
2.78884763803e-07
7.2881284877e-05
1.89119671873e-07
7.29834750683e-05
1.25727805985e-07
7.30494192708e-05
8.17482836149e-08
7.30908217896e-05
5.17743351791e-08
7.31159161573e-05
3.17248737239e-08
7.31304011334e-05
1.85894565113e-08
7.31381563596e-05
1.01903350481e-08
7.31417773539e-05
4.97957591538e-09
7.31429656537e-05
1.87440049554e-09
7.31428198719e-05
1.28961861839e-10
7.31419972314e-05
-7.74886106738e-10
7.3140914894e-05
-1.1583575813e-09
7.31398005806e-05
-1.24411482627e-09
7.31387737183e-05
-1.17052883209e-09
7.31378867803e-05
-1.0222442261e-09
7.31371536586e-05
-8.49631633554e-10
7.31365669671e-05
-6.79947021106e-10
7.31361093154e-05
-5.26943442822e-10
7.31357597892e-05
-3.96095695839e-10
7.31354977425e-05
-2.88036174559e-10
7.31353048392e-05
-2.00695796312e-10
7.31351654851e-05
-1.31069299251e-10
7.31350664863e-05
-7.58750989831e-11
7.31349954278e-05
-3.16159717259e-11
7.31349428175e-05
5.41121204409e-12
7.31349137417e-05
3.14586407476e-11
7.3134891426e-05
5.3992435573e-11
7.31348754311e-05
7.38809505586e-11
7.31348638252e-05
9.18669431232e-11
7.31348547913e-05
1.08611288791e-10
7.31348470883e-05
1.24816578147e-10
7.31348398947e-05
1.40850706336e-10
7.31348326608e-05
1.56784831857e-10
7.3134825005e-05
1.72397162087e-10
7.3134816644e-05
1.87114669454e-10
7.31348074888e-05
2.00040730867e-10
7.31347975448e-05
2.10118040213e-10
7.31347868557e-05
2.15538428879e-10
7.31347755418e-05
2.13801007323e-10
7.31347639352e-05
2.01646942235e-10
7.31347528263e-05
1.75034931544e-10
7.31347433495e-05
1.29589050076e-10
7.31347271407e-05
6.47246449428e-11
7.31347058335e-05
-6.87482663117e-11
7.31346660776e-05
-3.34544088281e-10
7.31346020259e-05
-7.05383960373e-10
7.31344899797e-05
-1.23655508466e-09
7.31342867848e-05
-1.99532103793e-09
7.31339246142e-05
-3.07294249584e-09
7.31332886641e-05
-4.60354296889e-09
7.31321861262e-05
-6.78243150498e-09
7.31302956067e-05
-9.89150371015e-09
7.31270896929e-05
-1.43492399604e-08
7.31217139413e-05
-2.07840485104e-08
7.3112756838e-05
-3.00832061673e-08
7.30979147996e-05
-4.35720282937e-08
7.30734809195e-05
-6.32643442489e-08
7.30335604888e-05
-9.2230088159e-08
7.29686448417e-05
-1.34554759423e-07
7.2863722751e-05
-1.9605325546e-07
7.26956375351e-05
-2.84466830061e-07
7.24299039091e-05
-4.09081221094e-07
7.20181833329e-05
-5.78977240662e-07
7.13993123038e-05
-7.98788491175e-07
7.0507788747e-05
-1.06287543827e-06
-1.34615970436e-06
6.92990509312e-05
5.07871727542e-05
5.47447805203e-11
5.29516503005e-05
5.28835820026e-11
5.59606892125e-05
2.87079678441e-11
5.92633229947e-05
1.41000693727e-11
6.24488098807e-05
2.66924091157e-12
6.52735507241e-05
-6.17896189586e-12
6.76333305175e-05
-1.20715024153e-11
6.9518666308e-05
-1.50038854458e-11
7.0973450225e-05
-1.54163461609e-11
7.20647952844e-05
-1.39023057742e-11
7.28642659526e-05
-1.10943451393e-11
7.34378174991e-05
-7.65237343951e-12
7.3841472752e-05
-4.24419241055e-12
7.41203594492e-05
-1.52650634154e-12
7.43094796147e-05
-7.96628400507e-14
7.44352081314e-05
-3.09121705251e-13
7.45169592614e-05
-2.46934361554e-12
7.45687402643e-05
-6.30293051496e-12
7.46004766759e-05
-1.11632877676e-11
7.46190826049e-05
-1.60657974287e-11
7.46292932757e-05
-1.98850560472e-11
7.46342948784e-05
-2.1534405906e-11
7.46361903548e-05
-2.05563567308e-11
7.46363380851e-05
-1.8232832574e-11
7.46355794664e-05
-1.57375834745e-11
7.46344342682e-05
-1.26354926747e-11
7.46331997619e-05
-9.08449830335e-12
7.46320349165e-05
-5.13707232419e-12
7.46310135378e-05
-2.84198182706e-13
7.46301607003e-05
3.7856863206e-12
7.46294728765e-05
8.43145850806e-12
7.46289330676e-05
1.33922625615e-11
7.46285188375e-05
1.8591619544e-11
7.46282070879e-05
2.4094833285e-11
7.4627976623e-05
3.01006792858e-11
7.46278091343e-05
3.67529858692e-11
7.46276895022e-05
4.41586937255e-11
7.46276061203e-05
5.23316142898e-11
7.46275509134e-05
6.12144091727e-11
7.46275125504e-05
7.04961425301e-11
7.462748714e-05
8.0135588536e-11
7.46274707633e-05
9.09885363417e-11
7.4627460369e-05
1.02913814606e-10
7.46274537145e-05
1.15822665179e-10
7.46274492981e-05
1.29738380626e-10
7.46274461138e-05
1.44568987605e-10
7.46274434685e-05
1.60062134747e-10
7.46274408557e-05
1.75774970201e-10
7.46274378258e-05
1.91011002571e-10
7.46274339707e-05
2.04798273876e-10
7.46274290571e-05
2.15911698187e-10
7.46274228603e-05
2.22574915171e-10
7.46274149681e-05
2.2243257245e-10
7.46274047165e-05
2.12524673734e-10
7.46273910809e-05
1.89283629793e-10
7.46273719957e-05
1.48971446015e-10
7.46273474681e-05
8.97554292427e-11
7.46273027936e-05
-2.32209700957e-11
7.46272160273e-05
-2.46962483494e-10
7.46270818176e-05
-5.70484687689e-10
7.46268604158e-05
-1.01456423629e-09
7.46264912317e-05
-1.62556999792e-09
7.46258781381e-05
-2.45929157878e-09
7.46248645486e-05
-3.58939647709e-09
7.46231955892e-05
-5.11290668398e-09
7.46204551082e-05
-7.15042006196e-09
7.46159760239e-05
-9.8695033383e-09
7.46087014013e-05
-1.35086887787e-08
7.45968965084e-05
-1.82775161097e-08
7.45777621836e-05
-2.44368978525e-08
7.45468797932e-05
-3.23812201966e-08
7.44975249497e-05
-4.28746777505e-08
7.44189688775e-05
-5.59982250251e-08
7.42948230315e-05
-7.19069643404e-08
7.41007234106e-05
-9.03667469428e-08
7.38018753791e-05
-1.10232621341e-07
7.33516500741e-05
-1.28751149939e-07
7.26936200236e-05
-1.40757745614e-07
7.17698157447e-05
-1.39070297281e-07
-1.15207130026e-07
7.05388637865e-05
5.07871717242e-05
-7.87116826468e-07