/*--------------------------------*- C++ -*----------------------------------*\
| =========                 |                                                 |
| \\      /  F ield         | OpenFOAM: The Open Source CFD Toolbox           |
|  \\    /   O peration     | Version:  2106                                  |
|   \\  /    A nd           | Website:  www.openfoam.com                      |
|    \\/     M anipulation  |                                                 |
\*---------------------------------------------------------------------------*/
FoamFile
{
    version     2.0;
    format      ascii;
    arch        "LSB;label=32;scalar=64";
    class       surfaceScalarField;
    location    "0.136";
    object      phi;
}
// * * * * * * * * * * * * * * * * * * * * * * * * * * * * * * * * * * * * * //

dimensions      [0 3 -1 0 0 0 0];

oriented        oriented;

internalField   nonuniform List<scalar> 
799
(
1.62275e-32
4.24472e-32
5.40314e-32
4.1579e-32
1.47289e-32
-5.37018e-32
-1.14866e-31
-1.62518e-31
-1.74339e-31
-1.3834e-31
-8.43016e-32
-2.37786e-32
1.29459e-32
2.09419e-32
-2.38682e-33
-4.33536e-32
-9.5979e-32
-1.50062e-31
-1.91758e-31
-2.21094e-31
-2.14275e-31
-1.79478e-31
-1.19591e-31
-5.00877e-32
-1.07536e-32
-2.89736e-33
-4.57935e-32
-1.17638e-31
-1.85149e-31
-2.38949e-31
-2.42995e-31
-2.16884e-31
-1.71726e-31
-1.17844e-31
-9.41108e-32
-8.41765e-32
-1.02507e-31
-1.41526e-31
-1.72511e-31
-2.103e-31
-2.20346e-31
-2.08927e-31
-1.86505e-31
-1.40813e-31
-1.16568e-31
-1.07242e-31
-1.24098e-31
-1.73982e-31
-2.14839e-31
-2.52008e-31
-2.54794e-31
-2.21784e-31
-1.79411e-31
-1.25888e-31
-1.02227e-31
-1.0911e-31
-1.42912e-31
-2.02679e-31
-2.48735e-31
-2.7451e-31
-2.61943e-31
-2.09368e-31
-1.47818e-31
-9.34174e-32
-8.11117e-32
-1.2234e-31
-1.96598e-31
-2.80558e-31
-3.26401e-31
-3.09277e-31
-2.38265e-31
-1.3686e-31
-6.07349e-32
-4.44905e-32
-9.18262e-32
-1.85831e-31
-2.72537e-31
-3.17342e-31
-3.05981e-31
-2.46849e-31
-1.80697e-31
-1.3176e-31
-1.16442e-31
-1.31476e-31
-1.55602e-31
-1.81534e-31
-2.01081e-31
-2.19172e-31
-2.39416e-31
-2.51603e-31
-2.49546e-31
-2.18324e-31
-1.65657e-31
-1.1213e-31
-7.93393e-32
-9.80945e-32
-1.56542e-31
-2.38166e-31
-3.07363e-31
-3.20557e-31
-2.851e-31
-1.9914e-31
-1.08115e-31
-5.46738e-32
-4.54249e-32
-1.03153e-31
-1.82193e-31
-2.55747e-31
-2.99433e-31
-2.82186e-31
-2.38096e-31
-1.75077e-31
-1.28174e-31
-1.19329e-31
-1.30506e-31
-1.60863e-31
-1.77438e-31
-1.74668e-31
-1.61656e-31
-1.47488e-31
-1.5713e-31
-1.8734e-31
-2.28587e-31
-2.59117e-31
-2.57404e-31
-2.22431e-31
-1.6276e-31
-1.02994e-31
-6.48701e-32
-5.91992e-32
-8.88326e-32
-1.40894e-31
-2.01537e-31
-2.56541e-31
-2.88086e-31
-2.90496e-31
-2.56451e-31
-1.91977e-31
-1.17898e-31
-5.27759e-32
-2.71402e-32
-4.93505e-32
-1.12199e-31
-1.9603e-31
-2.60503e-31
-2.86624e-31
-2.62748e-31
-2.02117e-31
-1.3899e-31
-9.52809e-32
-9.40878e-32
-1.28237e-31
-1.74811e-31
-2.11461e-31
-2.11533e-31
-1.7817e-31
-1.2689e-31
-8.46702e-32
-8.13389e-32
-1.20842e-31
-1.91393e-31
-2.57651e-31
-2.83986e-31
-2.52452e-31
-1.71598e-31
-8.15571e-32
-2.27613e-32
-2.99429e-32
-9.56826e-32
-1.84844e-31
-2.54776e-31
-2.608e-31
-2.13501e-31
-1.35076e-31
-7.13918e-32
-6.39288e-32
-9.87972e-32
-1.66521e-31
-2.14919e-31
-2.15825e-31
-1.7826e-31
-1.05911e-31
-5.50079e-32
-4.00529e-32
-6.754e-32
-1.33246e-31
-1.87464e-31
-2.22088e-31
-2.12484e-31
-1.63412e-31
-1.05962e-31
-4.78277e-32
-2.24988e-32
-2.8632e-32
-5.76688e-32
-1.03586e-31
-1.38446e-31
-1.59804e-31
-1.60583e-31
-1.39839e-31
-1.10113e-31
-7.12624e-32
-3.40252e-32
-7.8775e-33
3.15446e-33
-1.1383e-32
-4.62064e-32
-8.74598e-32
-1.18683e-31
-1.16146e-31
-7.61946e-32
-1.18603e-32
5.18993e-32
7.98132e-32
5.85517e-32
-1.67917e-33
-6.9004e-32
-9.79095e-32
-6.31494e-32
2.86362e-32
1.41209e-31
2.18091e-31
2.18855e-31
1.43513e-31
2.61411e-32
-6.63092e-32
-7.84004e-32
2.05608e-33
1.52351e-31
3.01045e-31
3.84859e-31
3.75882e-31
2.792e-31
1.60225e-31
7.85638e-32
7.61961e-32
1.65658e-31
2.98767e-31
4.29699e-31
5.09936e-31
5.15259e-31
4.70301e-31
4.04137e-31
3.6191e-31
3.72351e-31
4.32721e-31
5.26023e-31
6.17978e-31
6.79604e-31
7.01518e-31
6.97999e-31
6.93248e-31
7.1781e-31
7.82454e-31
8.68403e-31
9.53699e-31
1.00228e-30
1.00674e-30
9.91691e-31
9.8492e-31
1.03005e-30
1.13487e-30
1.27358e-30
1.41364e-30
1.50827e-30
1.54518e-30
1.54688e-30
1.54103e-30
1.56973e-30
1.6474e-30
1.75641e-30
1.88425e-30
2.00025e-30
2.0976e-30
2.19039e-30
2.27592e-30
2.37247e-30
2.47311e-30
2.5682e-30
2.668e-30
2.76474e-30
2.87489e-30
3.00025e-30
3.12952e-30
3.26179e-30
3.38383e-30
3.50662e-30
3.64664e-30
3.81573e-30
4.01568e-30
4.22287e-30
4.4062e-30
4.54133e-30
4.63593e-30
4.72191e-30
4.851e-30
5.05821e-30
5.33716e-30
5.65439e-30
5.94376e-30
6.16707e-30
6.32188e-30
6.44049e-30
6.59042e-30
6.80618e-30
7.09963e-30
7.44015e-30
7.77215e-30
8.06959e-30
8.3187e-30
8.55044e-30
8.80411e-30
9.09771e-30
9.44019e-30
9.79969e-30
1.0151e-29
1.04821e-29
1.07925e-29
1.11161e-29
1.14706e-29
1.18673e-29
1.23001e-29
1.27342e-29
1.31555e-29
1.35498e-29
1.39287e-29
1.43273e-29
1.47602e-29
1.52498e-29
1.57801e-29
1.63191e-29
1.68469e-29
1.73314e-29
1.77904e-29
1.82487e-29
1.87368e-29
1.92971e-29
1.99173e-29
2.05844e-29
2.12548e-29
2.18757e-29
2.24325e-29
2.29277e-29
2.33645e-29
2.39616e-29
2.46681e-29
2.62015e-29
2.87984e-29
3.25879e-29
3.96384e-29
4.24954e-29
4.54565e-29
2.85584e-29
-1.4019e-29
-6.52181e-29
-1.70634e-28
-1.61094e-28
-1.00121e-28
1.88082e-28
8.32499e-28
1.19805e-27
1.84073e-27
1.07931e-27
-7.38367e-28
-3.01347e-27
-7.51967e-27
-7.18987e-27
-5.90735e-27
1.7722e-27
1.69004e-26
2.26922e-26
3.30732e-26
1.66728e-26
-1.35864e-26
-4.09825e-26
-9.04707e-26
-7.12974e-26
-4.21696e-26
3.15955e-26
1.5465e-25
1.62761e-25
1.92023e-25
5.4337e-26
-1.45574e-25
-2.41536e-25
-4.15685e-25
-2.36498e-25
-3.16171e-26
2.1918e-25
5.89222e-25
4.55183e-25
3.83061e-25
-3.70575e-26
-5.43975e-25
-5.80023e-25
-7.54225e-25
-2.54551e-25
2.23655e-25
5.06875e-25
9.15319e-25
5.06885e-25
2.2367e-25
-2.54538e-25
-7.5422e-25
-5.80028e-25
-5.43988e-25
-3.70716e-26
3.83052e-25
4.55181e-25
5.89226e-25
2.19188e-25
-3.16114e-26
-2.36496e-25
-4.15687e-25
-2.41542e-25
-1.45579e-25
5.43333e-26
1.92022e-25
1.62761e-25
1.5465e-25
3.15958e-26
-4.217e-26
-7.12981e-26
-9.04714e-26
-4.09835e-26
-1.35873e-26
1.66718e-26
3.30721e-26
2.26912e-26
1.68994e-26
1.77138e-27
-5.90808e-27
-7.19052e-27
-7.52026e-27
-3.01409e-27
-7.39006e-28
1.07862e-27
1.84e-27
1.19731e-27
8.31776e-28
1.87432e-28
-1.00691e-28
-1.61564e-28
-1.71036e-28
-6.56198e-29
-1.44651e-29
2.80066e-29
4.48225e-29
4.18293e-29
3.90138e-29
3.20916e-29
2.84391e-29
2.59629e-29
2.44776e-29
2.37311e-29
2.30502e-29
2.25035e-29
2.1933e-29
2.13614e-29
2.07799e-29
2.02081e-29
1.96553e-29
1.91354e-29
1.8641e-29
1.81486e-29
1.76371e-29
1.70924e-29
1.65235e-29
1.59659e-29
1.54467e-29
1.49927e-29
1.45969e-29
1.423e-29
1.38661e-29
1.34695e-29
1.30422e-29
1.25919e-29
1.21391e-29
1.17153e-29
1.13265e-29
1.09864e-29
1.06837e-29
1.03984e-29
1.01136e-29
9.80215e-30
9.45942e-30
9.09533e-30
8.7324e-30
8.40491e-30
8.13531e-30
7.91734e-30
7.73238e-30
7.53721e-30
7.29681e-30
7.01218e-30
6.69e-30
6.38147e-30
6.12277e-30
5.92437e-30
5.79092e-30
5.67048e-30
5.53221e-30
5.34872e-30
5.10694e-30
4.84635e-30
4.59248e-30
4.3869e-30
4.25123e-30
4.16728e-30
4.11089e-30
4.03268e-30
3.89577e-30
3.69476e-30
3.44975e-30
3.21094e-30
3.03332e-30
2.94154e-30
2.92743e-30
2.94391e-30
2.92579e-30
2.83378e-30
2.65845e-30
2.43826e-30
2.23083e-30
2.08402e-30
2.01867e-30
2.01196e-30
2.02637e-30
2.01374e-30
1.95421e-30
1.84849e-30
1.71482e-30
1.58934e-30
1.48343e-30
1.41652e-30
1.37832e-30
1.35395e-30
1.33496e-30
1.29221e-30
1.2361e-30
1.16001e-30
1.08058e-30
1.0235e-30
9.79056e-31
9.64892e-31
9.4907e-31
9.15445e-31
8.65396e-31
7.83114e-31
7.12036e-31
6.61185e-31
6.42418e-31
6.62588e-31
6.77669e-31
6.80458e-31
6.4877e-31
5.83726e-31
5.18889e-31
4.58847e-31
4.24619e-31
4.08118e-31
3.89215e-31
3.72269e-31
3.50515e-31
3.44716e-31
3.682e-31
4.04253e-31
4.38292e-31
4.25848e-31
3.48307e-31
2.26775e-31
9.33677e-32
2.19481e-32
4.58251e-32
1.56311e-31
3.1537e-31
4.26526e-31
4.39396e-31
3.34102e-31
1.41412e-31
-3.74323e-32
-1.39549e-31
-1.10444e-31
3.51136e-32
2.11098e-31
3.50025e-31
3.68963e-31
2.64606e-31
9.34505e-32
-8.07717e-32
-1.62377e-31
-1.34042e-31
-1.8147e-32
1.32378e-31
2.28463e-31
2.46694e-31
1.79744e-31
6.48437e-32
-3.33577e-32
-9.50115e-32
-9.47255e-32
-5.35928e-32
-1.12396e-33
5.34457e-32
8.31295e-32
9.80088e-32
9.46655e-32
7.16613e-32
4.17242e-32
-1.60996e-33
-3.94288e-32
-6.71706e-32
-7.8072e-32
-6.60229e-32
-4.13232e-32
-3.44862e-33
3.25572e-32
6.36689e-32
7.77801e-32
6.8691e-32
3.99946e-32
-1.13845e-32
-5.83399e-32
-9.62393e-32
-1.06784e-31
-8.37125e-32
-4.88344e-32
1.80556e-33
3.6584e-32
5.35634e-32
5.52321e-32
2.90078e-32
9.55442e-34
-3.71343e-32
-7.09637e-32
-8.58528e-32
-8.94354e-32
-6.39409e-32
-2.72451e-32
1.16489e-32
4.29573e-32
4.59447e-32
2.99287e-32
-5.47987e-33
-4.43927e-32
-7.11022e-32
-8.2341e-32
-7.05506e-32
-4.45898e-32
-1.21737e-32
1.5585e-32
2.8901e-32
2.3135e-32
2.93704e-33
-2.18066e-32
-4.0762e-32
-4.08643e-32
-3.21681e-32
-1.82416e-32
-1.36788e-32
-2.65041e-32
-3.73841e-32
-4.40647e-32
-2.3719e-32
1.58861e-32
4.94633e-32
6.3834e-32
2.94803e-32
-3.16591e-32
-9.36453e-32
-1.23499e-31
-9.10506e-32
-1.99108e-32
6.51656e-32
1.13877e-31
9.99649e-32
3.60284e-32
-5.31512e-32
-1.1147e-31
-1.16549e-31
-6.58758e-32
1.46611e-32
7.46253e-32
9.28042e-32
5.57144e-32
-1.0066e-32
-6.46134e-32
-8.48848e-32
-5.24906e-32
7.08969e-33
6.28666e-32
8.7832e-32
6.09203e-32
3.20694e-33
-6.06772e-32
-9.97965e-32
-8.84401e-32
-3.87047e-32
3.29936e-32
9.58782e-32
1.18612e-31
1.01175e-31
4.54369e-32
-2.59248e-32
-8.17738e-32
-1.12539e-31
-1.01162e-31
-5.49198e-32
7.9999e-33
7.75367e-32
1.23062e-31
1.35516e-31
1.0851e-31
4.1728e-32
-3.61518e-32
-1.06295e-31
-1.37059e-31
-1.11362e-31
-3.97434e-32
5.91607e-32
1.40274e-31
1.70556e-31
1.36573e-31
4.82063e-32
-5.14645e-32
-1.19775e-31
-1.25495e-31
-6.50846e-32
2.92973e-32
1.13957e-31
1.49996e-31
1.19662e-31
4.39721e-32
-4.05303e-32
-9.30751e-32
-8.41067e-32
-2.67817e-32
5.57316e-32
1.21107e-31
1.33319e-31
9.92019e-32
2.52921e-32
-4.31132e-32
-7.15543e-32
-5.88432e-32
3.51482e-33
6.85645e-32
1.11508e-31
1.20104e-31
7.77301e-32
2.66079e-32
-2.16667e-32
-4.40286e-32
-2.44292e-32
8.69001e-33
5.37876e-32
8.45461e-32
9.0129e-32
8.1998e-32
5.75902e-32
3.5571e-32
2.24732e-32
1.52133e-32
1.72171e-32
1.96217e-32
1.77697e-32
1.88945e-32
1.89531e-32
2.87036e-32
5.14735e-32
7.5334e-32
1.04437e-31
1.12944e-31
9.89147e-32
6.37287e-32
5.5978e-33
-3.81244e-32
-6.40123e-32
-4.92258e-32
4.19943e-33
6.82784e-32
1.3151e-31
1.54994e-31
1.39729e-31
8.78472e-32
2.41238e-32
-2.49684e-32
-4.55716e-32
-2.43751e-32
6.24498e-33
5.49462e-32
7.52677e-32
7.5838e-32
6.87527e-32
2.38728e-32
1.44099e-32
-1.81323e-32
-2.44085e-32
-4.55803e-33
)
;

boundaryField
{
    left
    {
        type            calculated;
        value           uniform 0;
    }
    right
    {
        type            calculated;
        value           uniform 0;
    }
    empty
    {
        type            empty;
        value           nonuniform List<scalar> 0();
    }
}


// ************************************************************************* //
