/*--------------------------------*- C++ -*----------------------------------*\
| =========                 |                                                 |
| \\      /  F ield         | OpenFOAM: The Open Source CFD Toolbox           |
|  \\    /   O peration     | Version:  2106                                  |
|   \\  /    A nd           | Website:  www.openfoam.com                      |
|    \\/     M anipulation  |                                                 |
\*---------------------------------------------------------------------------*/
FoamFile
{
    version     2.0;
    format      ascii;
    arch        "LSB;label=32;scalar=64";
    class       volVectorField;
    location    "0.136";
    object      U;
}
// * * * * * * * * * * * * * * * * * * * * * * * * * * * * * * * * * * * * * //

dimensions      [0 1 -1 0 0 0 0];

internalField   nonuniform List<vector> 
800
(
(-3.61869e-22 0 0)
(1.80768e-20 0 0)
(-1.72117e-20 0 0)
(-1.45062e-20 0 0)
(4.0842e-20 0 0)
(-3.39207e-20 0 0)
(-2.33931e-21 0 0)
(1.43852e-20 0 0)
(1.2869e-20 0 0)
(-1.9483e-20 0 0)
(2.2317e-21 0 0)
(2.47951e-21 0 0)
(1.95926e-22 0 0)
(-4.56809e-22 0 0)
(-1.45563e-22 0 0)
(2.18931e-21 0 0)
(4.72471e-21 0 0)
(-1.2278e-20 0 0)
(2.11001e-21 0 0)
(-4.51773e-21 0 0)
(9.97271e-21 0 0)
(1.22318e-20 0 0)
(-1.702e-20 0 0)
(6.88309e-21 0 0)
(-9.70985e-21 0 0)
(4.25552e-21 0 0)
(-2.38212e-21 0 0)
(-4.23332e-21 0 0)
(3.35755e-20 0 0)
(-3.83135e-20 0 0)
(-2.13267e-21 0 0)
(3.39207e-20 0 0)
(-2.10346e-20 0 0)
(-2.82781e-22 0 0)
(2.19831e-21 0 0)
(6.23583e-22 0 0)
(-2.66917e-22 0 0)
(-2.09026e-21 0 0)
(-2.4625e-21 0 0)
(1.48202e-20 0 0)
(-1.90371e-20 0 0)
(1.90558e-20 0 0)
(-1.69704e-20 0 0)
(1.62946e-22 0 0)
(1.90115e-20 0 0)
(-1.6603e-20 0 0)
(2.14202e-21 0 0)
(6.91411e-24 0 0)
(-4.23484e-21 0 0)
(1.23482e-20 0 0)
(-4.47237e-21 0 0)
(-2.12518e-21 0 0)
(1.55994e-23 0 0)
(-9.93491e-24 0 0)
(4.61508e-23 0 0)
(2.34803e-21 0 0)
(4.19908e-21 0 0)
(-1.49799e-20 0 0)
(2.0883e-21 0 0)
(2.12477e-20 0 0)
(-1.25465e-20 0 0)
(-1.02464e-20 0 0)
(6.60125e-21 0 0)
(-6.31661e-23 0 0)
(-4.69624e-21 0 0)
(1.46881e-20 0 0)
(2.2201e-22 0 0)
(-1.69883e-20 0 0)
(-2.12429e-21 0 0)
(1.26125e-20 0 0)
(1.22693e-20 0 0)
(-1.94576e-20 0 0)
(4.51905e-21 0 0)
(7.37355e-21 0 0)
(-1.2239e-20 0 0)
(-3.2879e-22 0 0)
(-6.81752e-21 0 0)
(2.71903e-20 0 0)
(-4.64074e-21 0 0)
(-1.69348e-20 0 0)
(4.34696e-21 0 0)
(2.79227e-21 0 0)
(2.27498e-21 0 0)
(2.256e-21 0 0)
(-1.70002e-20 0 0)
(1.45862e-20 0 0)
(-6.75516e-21 0 0)
(1.25383e-20 0 0)
(2.28742e-23 0 0)
(-1.46556e-20 0 0)
(2.29178e-21 0 0)
(-1.30933e-22 0 0)
(1.68752e-20 0 0)
(-1.50901e-20 0 0)
(6.68118e-21 0 0)
(-1.00222e-20 0 0)
(4.86628e-21 0 0)
(-3.70595e-22 0 0)
(-6.7407e-21 0 0)
(9.97935e-21 0 0)
(1.23693e-20 0 0)
(-1.87768e-20 0 0)
(4.23101e-21 0 0)
(2.82225e-21 0 0)
(-1.71995e-20 0 0)
(3.40062e-20 0 0)
(-3.61347e-20 0 0)
(3.61701e-20 0 0)
(-3.62122e-20 0 0)
(1.47104e-20 0 0)
(1.42949e-20 0 0)
(-1.8942e-20 0 0)
(2.35778e-20 0 0)
(-2.71007e-20 0 0)
(4.78627e-21 0 0)
(-2.67297e-22 0 0)
(1.26013e-20 0 0)
(-4.84009e-21 0 0)
(-2.2362e-21 0 0)
(9.46365e-24 0 0)
(9.94876e-23 0 0)
(4.72021e-22 0 0)
(2.2043e-21 0 0)
(-1.22101e-22 0 0)
(-2.14426e-20 0 0)
(3.16613e-20 0 0)
(-2.25553e-21 0 0)
(-1.69424e-20 0 0)
(4.04675e-21 0 0)
(2.56719e-21 0 0)
(2.42651e-21 0 0)
(4.21706e-21 0 0)
(-1.47434e-20 0 0)
(1.73302e-23 0 0)
(1.46984e-20 0 0)
(-4.48034e-21 0 0)
(-2.38888e-21 0 0)
(1.62499e-23 0 0)
(2.62175e-22 0 0)
(6.44395e-23 0 0)
(-7.14901e-23 0 0)
(-2.79276e-22 0 0)
(2.3053e-23 0 0)
(2.63145e-21 0 0)
(4.54531e-21 0 0)
(-1.68985e-20 0 0)
(-4.62127e-21 0 0)
(2.74237e-20 0 0)
(-6.67105e-21 0 0)
(-2.36771e-21 0 0)
(-1.73341e-20 0 0)
(1.7632e-20 0 0)
(2.37373e-21 0 0)
(4.29337e-21 0 0)
(-3.19413e-20 0 0)
(1.90769e-20 0 0)
(1.68355e-20 0 0)
(-1.71076e-20 0 0)
(6.30336e-21 0 0)
(-9.89043e-21 0 0)
(4.91278e-21 0 0)
(-3.3373e-22 0 0)
(-6.49057e-21 0 0)
(1.00722e-20 0 0)
(1.00808e-20 0 0)
(-2.38183e-20 0 0)
(1.69678e-20 0 0)
(4.65255e-21 0 0)
(-9.92377e-21 0 0)
(-8.61912e-21 0 0)
(4.94781e-21 0 0)
(2.19778e-21 0 0)
(1.69919e-20 0 0)
(-3.88682e-20 0 0)
(2.93481e-20 0 0)
(-6.55873e-21 0 0)
(1.50068e-20 0 0)
(-1.50016e-20 0 0)
(-1.43695e-20 0 0)
(1.90709e-20 0 0)
(-1.95079e-21 0 0)
(-1.81177e-22 0 0)
(2.26788e-21 0 0)
(-1.66249e-20 0 0)
(1.50487e-20 0 0)
(-7.10315e-21 0 0)
(7.95602e-21 0 0)
(-5.11208e-21 0 0)
(1.97385e-20 0 0)
(-2.51648e-20 0 0)
(1.16606e-20 0 0)
(-2.73859e-20 0 0)
(3.61096e-20 0 0)
(-2.17694e-20 0 0)
(1.4655e-20 0 0)
(-3.35041e-22 0 0)
(-1.87022e-20 0 0)
(1.70256e-20 0 0)
(-2.41913e-21 0 0)
(-3.99692e-21 0 0)
(-4.38076e-22 0 0)
(1.72291e-20 0 0)
(-3.61246e-20 0 0)
(3.61359e-20 0 0)
(-1.73083e-20 0 0)
(2.68239e-22 0 0)
(4.46045e-21 0 0)
(4.87486e-21 0 0)
(-1.701e-20 0 0)
(-4.72698e-21 0 0)
(2.71572e-20 0 0)
(-6.69962e-21 0 0)
(1.40637e-22 0 0)
(-1.24591e-20 0 0)
(2.50801e-21 0 0)
(-2.1903e-21 0 0)
(1.48695e-20 0 0)
(-2.71838e-22 0 0)
(-1.73494e-20 0 0)
(-5.10327e-23 0 0)
(1.92004e-20 0 0)
(4.48432e-21 0 0)
(-2.70105e-20 0 0)
(8.97661e-21 0 0)
(2.70805e-22 0 0)
(-8.95196e-21 0 0)
(2.43518e-20 0 0)
(-8.98974e-21 0 0)
(-2.11601e-21 0 0)
(4.54295e-21 0 0)
(-1.20852e-20 0 0)
(4.54674e-21 0 0)
(2.36952e-21 0 0)
(-5.2773e-23 0 0)
(-2.62208e-21 0 0)
(-4.52413e-21 0 0)
(1.46975e-20 0 0)
(5.59002e-23 0 0)
(-1.45113e-20 0 0)
(4.33756e-21 0 0)
(4.24154e-22 0 0)
(-2.21678e-21 0 0)
(1.45113e-20 0 0)
(-2.16878e-20 0 0)
(1.48206e-20 0 0)
(2.03217e-22 0 0)
(2.4804e-21 0 0)
(-1.51313e-20 0 0)
(-9.18272e-23 0 0)
(1.71089e-20 0 0)
(2.39306e-21 0 0)
(-1.25772e-20 0 0)
(-1.47754e-20 0 0)
(1.45092e-20 0 0)
(1.04472e-20 0 0)
(-2.39377e-21 0 0)
(3.92324e-21 0 0)
(-3.12196e-20 0 0)
(2.18715e-20 0 0)
(1.92345e-20 0 0)
(-3.8442e-20 0 0)
(1.39007e-20 0 0)
(1.24848e-20 0 0)
(-1.98892e-21 0 0)
(6.80692e-21 0 0)
(-2.48171e-20 0 0)
(4.61187e-21 0 0)
(-4.55806e-21 0 0)
(2.71019e-20 0 0)
(-4.95254e-21 0 0)
(-1.70966e-20 0 0)
(4.70518e-21 0 0)
(4.59123e-21 0 0)
(2.27898e-21 0 0)
(-1.48475e-20 0 0)
(2.13815e-20 0 0)
(-1.69625e-20 0 0)
(-2.15847e-21 0 0)
(1.47517e-20 0 0)
(-4.21834e-21 0 0)
(-4.53052e-21 0 0)
(-4.6047e-21 0 0)
(1.29074e-20 0 0)
(-2.36981e-21 0 0)
(2.84988e-22 0 0)
(-1.47013e-20 0 0)
(1.94894e-20 0 0)
(-1.92352e-20 0 0)
(1.45041e-20 0 0)
(-2.51599e-21 0 0)
(1.34374e-22 0 0)
(4.28304e-21 0 0)
(-1.23137e-20 0 0)
(4.71581e-21 0 0)
(2.22263e-21 0 0)
(-2.23439e-21 0 0)
(-4.94971e-21 0 0)
(1.2174e-20 0 0)
(-2.23533e-21 0 0)
(4.9025e-21 0 0)
(-7.93296e-21 0 0)
(-1.21466e-20 0 0)
(-2.31224e-21 0 0)
(2.66843e-20 0 0)
(-9.25822e-21 0 0)
(-2.81521e-22 0 0)
(8.9221e-21 0 0)
(-2.45413e-20 0 0)
(9.16943e-21 0 0)
(4.32211e-21 0 0)
(-2.27698e-21 0 0)
(-4.89482e-21 0 0)
(1.24549e-20 0 0)
(-4.40702e-21 0 0)
(-2.09779e-21 0 0)
(2.90304e-22 0 0)
(2.89527e-22 0 0)
(-2.11253e-21 0 0)
(-4.44195e-21 0 0)
(1.25302e-20 0 0)
(-4.4237e-21 0 0)
(-2.14276e-21 0 0)
(6.48548e-23 0 0)
(1.7975e-22 0 0)
(-1.50874e-22 0 0)
(1.73225e-22 0 0)
(2.14983e-21 0 0)
(2.08592e-21 0 0)
(-1.68292e-20 0 0)
(1.89979e-20 0 0)
(1.42527e-22 0 0)
(-1.72713e-20 0 0)
(1.88572e-20 0 0)
(-1.64528e-20 0 0)
(2.13935e-20 0 0)
(-1.5255e-20 0 0)
(-1.86524e-20 0 0)
(3.57074e-20 0 0)
(-2.13152e-21 0 0)
(-3.64422e-20 0 0)
(3.84981e-20 0 0)
(-1.48862e-20 0 0)
(2.16701e-22 0 0)
(-1.4822e-20 0 0)
(3.86963e-20 0 0)
(-3.66231e-20 0 0)
(-4.34741e-21 0 0)
(3.34169e-20 0 0)
(-1.63456e-21 0 0)
(-3.19539e-20 0 0)
(2.3619e-20 0 0)
(-1.68538e-20 0 0)
(1.47739e-20 0 0)
(-2.78056e-22 0 0)
(2.54501e-21 0 0)
(-1.51167e-20 0 0)
(-1.62465e-21 0 0)
(1.45083e-20 0 0)
(1.24846e-20 0 0)
(-3.8857e-20 0 0)
(3.62483e-20 0 0)
(-1.41946e-20 0 0)
(4.65166e-21 0 0)
(-1.49526e-20 0 0)
(-2.28148e-21 0 0)
(2.96833e-20 0 0)
(-2.17645e-20 0 0)
(1.69724e-20 0 0)
(-3.37067e-20 0 0)
(3.65948e-20 0 0)
(-1.9757e-20 0 0)
(-4.1247e-21 0 0)
(1.86612e-20 0 0)
(2.46122e-21 0 0)
(-3.14035e-20 0 0)
(2.34167e-20 0 0)
(1.84988e-22 0 0)
(-2.15114e-20 0 0)
(3.33628e-20 0 0)
(-1.87643e-20 0 0)
(1.96928e-21 0 0)
(2.26479e-21 0 0)
(-1.66626e-20 0 0)
(3.61224e-20 0 0)
(-3.61227e-20 0 0)
(1.66626e-20 0 0)
(-2.26655e-21 0 0)
(-1.9776e-21 0 0)
(1.87627e-20 0 0)
(-3.32858e-20 0 0)
(2.167e-20 0 0)
(-6.24101e-22 0 0)
(-2.57165e-20 0 0)
(3.14422e-20 0 0)
(1.95793e-20 0 0)
(-4.85221e-20 0 0)
(3.91938e-21 0 0)
(1.50401e-20 0 0)
(1.30308e-20 0 0)
(1.41006e-21 0 0)
(-3.19305e-20 0 0)
(2.46294e-21 0 0)
(3.64791e-20 0 0)
(-1.69349e-20 0 0)
(-1.48605e-20 0 0)
(1.94675e-21 0 0)
(1.27473e-20 0 0)
(-6.77026e-21 0 0)
(1.65128e-20 0 0)
(-1.44984e-20 0 0)
(-1.22375e-20 0 0)
(2.15371e-20 0 0)
(-1.88306e-20 0 0)
(1.45494e-20 0 0)
(-4.84233e-21 0 0)
(-6.21637e-21 0 0)
(1.45244e-20 0 0)
(-2.41429e-21 0 0)
(-1.88863e-20 0 0)
(2.16381e-20 0 0)
(4.62241e-21 0 0)
(-3.43243e-20 0 0)
(1.66806e-20 0 0)
(1.72658e-20 0 0)
(2.62067e-21 0 0)
(-3.03439e-20 0 0)
(3.44132e-22 0 0)
(1.45468e-20 0 0)
(3.17327e-20 0 0)
(-5.09699e-20 0 0)
(2.58165e-20 0 0)
(-1.42494e-20 0 0)
(-4.00234e-21 0 0)
(2.89257e-20 0 0)
(-2.58296e-20 0 0)
(1.22732e-20 0 0)
(-2.24847e-21 0 0)
(3.52592e-22 0 0)
(4.17699e-21 0 0)
(-1.19421e-20 0 0)
(6.68856e-21 0 0)
(2.02143e-21 0 0)
(-2.15149e-20 0 0)
(3.1464e-20 0 0)
(-2.12435e-21 0 0)
(-1.6995e-20 0 0)
(2.30744e-21 0 0)
(7.40515e-23 0 0)
(1.4597e-20 0 0)
(-1.93255e-20 0 0)
(2.13861e-20 0 0)
(-1.2408e-20 0 0)
(-1.43697e-20 0 0)
(1.86607e-20 0 0)
(-3.96156e-21 0 0)
(-2.69448e-21 0 0)
(1.65288e-20 0 0)
(-3.59703e-20 0 0)
(3.88996e-20 0 0)
(-1.2468e-20 0 0)
(-1.66788e-20 0 0)
(-3.07465e-21 0 0)
(2.74139e-20 0 0)
(-4.70412e-21 0 0)
(4.53759e-21 0 0)
(-2.47589e-20 0 0)
(7.06189e-21 0 0)
(-2.06318e-21 0 0)
(9.97709e-21 0 0)
(1.00798e-20 0 0)
(-2.14107e-20 0 0)
(1.71763e-20 0 0)
(-1.89138e-20 0 0)
(1.50645e-20 0 0)
(-2.52592e-21 0 0)
(-2.5341e-21 0 0)
(-1.55069e-22 0 0)
(4.91444e-21 0 0)
(8.8373e-21 0 0)
(-2.92459e-20 0 0)
(1.89708e-21 0 0)
(3.14571e-20 0 0)
(-2.33856e-20 0 0)
(1.86424e-20 0 0)
(-1.47868e-20 0 0)
(-1.66702e-20 0 0)
(3.642e-20 0 0)
(-1.68407e-20 0 0)
(-1.01256e-22 0 0)
(-1.98415e-20 0 0)
(3.00061e-20 0 0)
(-2.49038e-21 0 0)
(2.32077e-21 0 0)
(-2.93788e-20 0 0)
(2.18257e-20 0 0)
(-2.37354e-21 0 0)
(-6.52647e-21 0 0)
(1.43236e-20 0 0)
(-2.04974e-21 0 0)
(-1.92374e-20 0 0)
(1.71963e-20 0 0)
(1.76798e-22 0 0)
(1.31868e-22 0 0)
(-1.72631e-20 0 0)
(1.67013e-20 0 0)
(-2.04635e-21 0 0)
(2.40268e-21 0 0)
(6.54566e-21 0 0)
(-3.17295e-20 0 0)
(1.67139e-20 0 0)
(1.44672e-20 0 0)
(-4.27099e-23 0 0)
(-1.02107e-20 0 0)
(-7.77389e-21 0 0)
(2.61769e-21 0 0)
(-6.79332e-21 0 0)
(2.42884e-20 0 0)
(-9.25872e-21 0 0)
(-4.95836e-23 0 0)
(9.0802e-21 0 0)
(-2.41496e-20 0 0)
(8.83634e-21 0 0)
(-1.77381e-22 0 0)
(-7.31958e-21 0 0)
(2.89569e-20 0 0)
(-1.68594e-20 0 0)
(9.1952e-21 0 0)
(-2.5338e-20 0 0)
(2.86308e-21 0 0)
(1.68002e-20 0 0)
(1.44874e-20 0 0)
(-3.85744e-20 0 0)
(1.68813e-20 0 0)
(1.53474e-20 0 0)
(-2.15876e-20 0 0)
(1.44656e-20 0 0)
(-1.89345e-20 0 0)
(3.65076e-20 0 0)
(-3.40655e-20 0 0)
(1.80524e-22 0 0)
(1.66321e-20 0 0)
(-3.79078e-21 0 0)
(-6.97831e-22 0 0)
(2.06772e-22 0 0)
(-1.68218e-20 0 0)
(3.60728e-20 0 0)
(-3.60811e-20 0 0)
(1.89821e-20 0 0)
(2.01999e-21 0 0)
(-1.64598e-20 0 0)
(2.09257e-20 0 0)
(-1.66594e-20 0 0)
(4.0115e-23 0 0)
(1.68185e-20 0 0)
(-2.10087e-20 0 0)
(1.47043e-20 0 0)
(-4.46366e-21 0 0)
(-6.63885e-21 0 0)
(1.23871e-20 0 0)
(-1.85775e-21 0 0)
(2.37692e-21 0 0)
(-1.46445e-20 0 0)
(2.28169e-22 0 0)
(1.47347e-20 0 0)
(-4.47809e-21 0 0)
(-2.42475e-21 0 0)
(-2.16245e-22 0 0)
(1.2407e-22 0 0)
(2.03919e-21 0 0)
(4.82993e-21 0 0)
(-1.02676e-20 0 0)
(4.50869e-21 0 0)
(-1.94636e-20 0 0)
(2.93987e-20 0 0)
(-4.83785e-21 0 0)
(-1.53503e-22 0 0)
(-1.24455e-20 0 0)
(6.95869e-21 0 0)
(4.12485e-21 0 0)
(-1.66856e-20 0 0)
(2.1132e-20 0 0)
(2.24433e-21 0 0)
(-3.61605e-20 0 0)
(3.35743e-20 0 0)
(-4.22361e-21 0 0)
(-2.42198e-21 0 0)
(1.92332e-21 0 0)
(-1.39551e-20 0 0)
(2.16253e-20 0 0)
(-1.9097e-20 0 0)
(-6.7244e-21 0 0)
(2.65599e-20 0 0)
(-8.84438e-21 0 0)
(-8.36479e-23 0 0)
(9.34276e-21 0 0)
(-2.47266e-20 0 0)
(4.57408e-21 0 0)
(-2.37207e-21 0 0)
(2.94969e-20 0 0)
(-2.21885e-20 0 0)
(-1.71967e-21 0 0)
(2.25618e-21 0 0)
(1.7224e-20 0 0)
(-3.87535e-20 0 0)
(3.40406e-20 0 0)
(2.0858e-21 0 0)
(-1.46323e-20 0 0)
(-1.26767e-20 0 0)
(2.17116e-20 0 0)
(6.15001e-23 0 0)
(-1.95471e-20 0 0)
(1.63906e-20 0 0)
(-1.50306e-21 0 0)
(2.09885e-21 0 0)
(2.16771e-21 0 0)
(-3.60498e-20 0 0)
(5.0702e-20 0 0)
(-2.15842e-20 0 0)
(4.48995e-23 0 0)
(6.44067e-21 0 0)
(-1.20491e-20 0 0)
(2.55807e-21 0 0)
(-3.34682e-22 0 0)
(1.26001e-20 0 0)
(-2.36767e-20 0 0)
(3.15849e-20 0 0)
(-2.14729e-20 0 0)
(-2.41461e-21 0 0)
(1.91909e-20 0 0)
(-1.20029e-20 0 0)
(8.89608e-21 0 0)
(-2.9549e-20 0 0)
(1.69113e-20 0 0)
(1.21629e-20 0 0)
(-4.6145e-21 0 0)
(1.90285e-21 0 0)
(-1.20238e-20 0 0)
(4.92089e-21 0 0)
(-2.77551e-22 0 0)
(-6.32558e-21 0 0)
(1.199e-20 0 0)
(1.23708e-20 0 0)
(-3.81428e-20 0 0)
(3.8479e-20 0 0)
(-1.45847e-20 0 0)
(-1.68936e-20 0 0)
(1.8994e-20 0 0)
(4.97951e-22 0 0)
(1.98483e-23 0 0)
(-1.94471e-20 0 0)
(1.22982e-20 0 0)
(1.04419e-20 0 0)
(-2.23422e-21 0 0)
(4.5445e-21 0 0)
(-2.9372e-20 0 0)
(1.96784e-20 0 0)
(-2.54414e-21 0 0)
(1.23945e-20 0 0)
(-1.98185e-20 0 0)
(1.98178e-20 0 0)
(-1.24017e-20 0 0)
(2.54228e-21 0 0)
(-1.96106e-20 0 0)
(2.95125e-20 0 0)
(-4.93818e-21 0 0)
(1.80173e-22 0 0)
(-1.04002e-20 0 0)
(7.39804e-21 0 0)
(-1.46815e-20 0 0)
(1.44539e-20 0 0)
(-7.24757e-21 0 0)
(1.23712e-20 0 0)
(2.02967e-21 0 0)
(-9.8243e-21 0 0)
(-7.95524e-21 0 0)
(4.63165e-21 0 0)
(-2.25152e-21 0 0)
(1.24832e-20 0 0)
(-4.68871e-21 0 0)
(-4.56665e-21 0 0)
(-4.41716e-21 0 0)
(1.49715e-20 0 0)
(2.81068e-22 0 0)
(-1.46424e-20 0 0)
(2.26458e-21 0 0)
(-2.23375e-21 0 0)
(1.27097e-20 0 0)
(-2.4604e-21 0 0)
(2.75253e-23 0 0)
(-1.70766e-20 0 0)
(1.73299e-20 0 0)
(-2.25396e-22 0 0)
(2.36282e-22 0 0)
(-1.4926e-20 0 0)
(1.93934e-20 0 0)
(-1.9422e-20 0 0)
(1.46893e-20 0 0)
(-2.44576e-22 0 0)
(2.54738e-21 0 0)
(-1.30479e-20 0 0)
(2.64097e-21 0 0)
(2.32201e-21 0 0)
(1.89801e-20 0 0)
(-3.6319e-20 0 0)
(1.71196e-20 0 0)
(1.67338e-20 0 0)
(-2.11796e-20 0 0)
(-3.61205e-22 0 0)
(1.92549e-20 0 0)
(-1.69712e-20 0 0)
(2.13265e-21 0 0)
(4.68113e-21 0 0)
(4.22751e-21 0 0)
(-1.71198e-20 0 0)
(1.03748e-22 0 0)
(3.64019e-20 0 0)
(-3.60898e-20 0 0)
(-2.53763e-21 0 0)
(1.21893e-20 0 0)
(1.05623e-20 0 0)
(-3.64725e-22 0 0)
(-1.00474e-20 0 0)
(-7.5123e-21 0 0)
(4.76915e-21 0 0)
(-4.45785e-21 0 0)
(7.80458e-21 0 0)
(7.8493e-21 0 0)
(-6.64312e-21 0 0)
(-2.3233e-21 0 0)
(2.89722e-22 0 0)
(2.6769e-21 0 0)
(4.4531e-21 0 0)
(-1.496e-20 0 0)
(1.92704e-24 0 0)
(1.70555e-20 0 0)
(-2.81327e-22 0 0)
(-1.73764e-20 0 0)
(2.16966e-21 0 0)
(2.17072e-20 0 0)
(-1.27537e-20 0 0)
(-1.26965e-20 0 0)
(4.61042e-21 0 0)
(1.95829e-20 0 0)
(-1.95779e-20 0 0)
(-4.90027e-21 0 0)
(1.23673e-20 0 0)
(1.49985e-20 0 0)
(-1.45093e-20 0 0)
(-1.05906e-20 0 0)
(2.76356e-21 0 0)
(-1.97302e-21 0 0)
(3.11354e-20 0 0)
(-4.06592e-20 0 0)
(1.69517e-20 0 0)
(1.90163e-20 0 0)
(-3.57715e-20 0 0)
(2.10237e-20 0 0)
(4.50957e-21 0 0)
(-1.42216e-20 0 0)
(4.28012e-21 0 0)
(-6.67545e-24 0 0)
(-6.37829e-21 0 0)
(1.0092e-20 0 0)
(1.02844e-20 0 0)
(-2.37119e-20 0 0)
(1.50723e-20 0 0)
(1.84671e-22 0 0)
(1.05282e-22 0 0)
(-1.71687e-20 0 0)
(1.92959e-20 0 0)
(2.13738e-21 0 0)
(-1.49599e-20 0 0)
(4.4667e-21 0 0)
(4.73386e-21 0 0)
(2.13235e-21 0 0)
(-1.91806e-20 0 0)
(1.47053e-20 0 0)
(1.25804e-20 0 0)
(-2.3608e-20 0 0)
(1.43489e-20 0 0)
(-2.32217e-21 0 0)
(2.37267e-22 0 0)
(6.61309e-21 0 0)
(-8.13971e-21 0 0)
(-1.02246e-20 0 0)
(4.54777e-21 0 0)
(1.90606e-20 0 0)
(-1.96662e-20 0 0)
(-2.45104e-21 0 0)
(1.71663e-20 0 0)
(4.50117e-22 0 0)
(-1.7221e-20 0 0)
(-2.15954e-21 0 0)
(1.28473e-20 0 0)
(1.23978e-20 0 0)
(-2.13861e-20 0 0)
(-1.18054e-22 0 0)
(1.74065e-20 0 0)
(-1.91764e-20 0 0)
(1.68987e-20 0 0)
)
;

boundaryField
{
    left
    {
        type            noSlip;
    }
    right
    {
        type            noSlip;
    }
    empty
    {
        type            empty;
    }
}


// ************************************************************************* //
