/*--------------------------------*- C++ -*----------------------------------*\
| =========                 |                                                 |
| \\      /  F ield         | OpenFOAM: The Open Source CFD Toolbox           |
|  \\    /   O peration     | Version:  2106                                  |
|   \\  /    A nd           | Website:  www.openfoam.com                      |
|    \\/     M anipulation  |                                                 |
\*---------------------------------------------------------------------------*/
FoamFile
{
    version     2.0;
    format      ascii;
    arch        "LSB;label=32;scalar=64";
    class       surfaceScalarField;
    location    "0.485";
    object      phi;
}
// * * * * * * * * * * * * * * * * * * * * * * * * * * * * * * * * * * * * * //

dimensions      [0 3 -1 0 0 0 0];

oriented        oriented;

internalField   nonuniform List<scalar> 
22100
(
3.38461203748e-05
1.6153879524e-05
2.24572099927e-05
1.1388910335e-05
1.6258553155e-05
6.19865677544e-06
1.27977762219e-05
3.46077688628e-06
1.08046424082e-05
1.99313380462e-06
9.60458944392e-06
1.20005297195e-06
8.85132173044e-06
7.53267713448e-07
8.36435293843e-06
4.869687673e-07
8.04433506017e-06
3.20017830374e-07
7.83284025198e-06
2.11494719619e-07
7.69339706092e-06
1.39443057389e-07
7.60224016132e-06
9.11567564076e-08
7.54347740534e-06
5.87626307189e-08
7.50634054805e-06
3.71367470267e-08
7.48350113691e-06
2.28393450085e-08
7.46998044669e-06
1.35206905701e-08
7.46241601485e-06
7.56452765743e-09
7.45854823569e-06
3.86799105881e-09
7.45682951419e-06
1.71891014018e-09
7.45642322983e-06
4.06557891645e-10
7.45677341806e-06
-3.49974775248e-10
7.45746008177e-06
-6.86351925768e-10
7.45821896274e-06
-7.58561129623e-10
7.45894490135e-06
-7.25565676007e-10
7.45958997479e-06
-6.44605893582e-10
7.46013480098e-06
-5.44253556032e-10
7.4605778874e-06
-4.42446124344e-10
7.46092763915e-06
-3.4909689892e-10
7.46119691884e-06
-2.68629884302e-10
7.46139977819e-06
-2.02234333156e-10
7.46154958022e-06
-1.49289223904e-10
7.46165801871e-06
-1.08093487286e-10
7.46173489306e-06
-7.66233881173e-11
7.46178847678e-06
-5.33149235935e-11
7.46182272362e-06
-3.39745107786e-11
7.46184269577e-06
-1.95163334951e-11
7.46185312938e-06
-9.8989094894e-12
7.46185748433e-06
-3.59436134974e-12
7.46185757892e-06
8.31306922054e-13
7.46185452309e-06
4.12718574405e-12
7.46184904017e-06
6.41015084834e-12
7.46184168547e-06
8.09723230169e-12
7.46183289647e-06
9.4697284104e-12
7.46182279545e-06
1.06358485137e-11
7.46181138412e-06
1.17679784003e-11
7.461798688e-06
1.29739971885e-11
7.46178453909e-06
1.43538804176e-11
7.46176864952e-06
1.60420197253e-11
7.46175070233e-06
1.81031068449e-11
7.46173021399e-06
2.069870158e-11
7.46170653829e-06
2.3949643764e-11
7.46167897718e-06
2.79833444726e-11
7.46164662184e-06
3.28156133062e-11
7.46160857171e-06
3.84802306539e-11
7.4615639635e-06
4.50284388694e-11
7.46151186715e-06
5.24154349195e-11
7.46145159359e-06
6.04201027717e-11
7.46138307177e-06
6.84753401695e-11
7.46130709068e-06
7.57868610412e-11
7.46122609753e-06
8.06160285415e-11
7.4611468007e-06
7.89302194908e-11
7.46108106805e-06
6.52739638478e-11
7.46103661853e-06
4.41339268306e-11
7.46103291003e-06
3.3234731414e-12
7.46110613614e-06
-7.35011496999e-11
7.46131452945e-06
-2.08772976341e-10
7.4617527564e-06
-4.38405186342e-10
7.46257071533e-06
-8.18104904789e-10
7.46400367665e-06
-1.43316898539e-09
7.46640703334e-06
-2.40371400294e-09
7.4702298849e-06
-3.82321689796e-09
7.47668524218e-06
-6.45580225787e-09
7.48746210261e-06
-1.07772155128e-08
7.50564293754e-06
-1.81811118639e-08
7.53883305389e-06
-3.3190755467e-08
7.60804867865e-06
-6.92164035585e-08
7.77470066129e-06
-1.66652108035e-07
8.22956833122e-06
-4.54867468209e-07
9.69704006432e-06
-1.46747164608e-06
-5.45079439435e-06
1.51478352131e-05
5.02175948987e-05
1.59362845778e-05
4.42441116805e-05
1.73623934491e-05
3.77795015522e-05
1.2663266818e-05
3.26461440635e-05
8.59413433444e-06
2.89380919204e-05
5.70118592271e-06
2.63596214676e-05
3.77852339443e-06
2.45875169719e-05
2.52537215204e-06
2.33734747996e-05
1.70101082986e-06
2.2543525604e-05
1.1499668315e-06
2.19782167748e-05
7.76803315225e-07
2.15955141128e-05
5.22145453189e-07
2.13387374429e-05
3.47933155446e-07
2.11684958725e-05
2.29003980964e-07
2.10573382702e-05
1.48294181146e-07
2.09861504162e-05
9.40270854631e-08
2.09416781477e-05
5.7992885229e-08
2.09147965198e-05
3.44461466551e-08
2.08992976221e-05
1.93669184619e-08
2.08910741009e-05
9.94256983974e-09
2.08872741186e-05
4.20678959353e-09
2.08862055456e-05
7.19111463264e-10
2.08864517164e-05
-9.31861262538e-10
2.08873236817e-05
-1.62974961938e-09
2.08884638336e-05
-1.86480777207e-09
2.08896379721e-05
-1.81768031006e-09
2.08907218912e-05
-1.62701729367e-09
2.08916604742e-05
-1.37988632957e-09
2.0892439032e-05
-1.1265519387e-09
2.0893065241e-05
-8.93869591061e-10
2.08935582244e-05
-6.94483413761e-10
2.08939427715e-05
-5.33300853832e-10
2.08942450091e-05
-4.09857194881e-10
2.08944566615e-05
-2.87829478819e-10
2.08946044987e-05
-2.00470744683e-10
2.089470584e-05
-1.34348607629e-10
2.08947722782e-05
-8.48488116875e-11
2.08948141986e-05
-5.02601566851e-11
2.08948396546e-05
-2.72853333663e-11
2.08948533025e-05
-1.10981001217e-11
2.08948580138e-05
1.08516781839e-12
2.08948560891e-05
9.92046778878e-12
2.08948491495e-05
1.64713527693e-11
2.08948383056e-05
2.15287412688e-11
2.08948242466e-05
2.55968934564e-11
2.08948073385e-05
2.92341027318e-11
2.08947878706e-05
3.28690020622e-11
2.08947659964e-05
3.66239314331e-11
2.08947415641e-05
4.07474051142e-11
2.08947144811e-05
4.54872564226e-11
2.08946845927e-05
5.11072001735e-11
2.08946516287e-05
5.75977264035e-11
2.08946153997e-05
6.49590047565e-11
2.0894575821e-05
7.31301901493e-11
2.08945332158e-05
8.18037732179e-11
2.08944884438e-05
9.04456271627e-11
2.08944431811e-05
9.80835812244e-11
2.08944007596e-05
1.02886434016e-10
2.08943672913e-05
1.01699418156e-10
2.08943524325e-05
9.0325985607e-11
2.08943713752e-05
6.10095123983e-11
2.08944517184e-05
-2.09707137349e-12
2.08946418938e-05
-1.2572694165e-10
2.08950105786e-05
-3.25362207942e-10
2.08956768721e-05
-6.6384710732e-10
2.0896746862e-05
-1.14416729995e-09
2.08984000165e-05
-1.86223425877e-09
2.09009938929e-05
-3.03247430991e-09
2.09050762403e-05
-4.90093019407e-09
2.09115165405e-05
-7.87389632924e-09
2.0921738508e-05
-1.26260236919e-08
2.09382323606e-05
-2.03177034908e-08
2.09651416019e-05
-3.33658241694e-08
2.10094062471e-05
-5.50425244318e-08
2.1084195761e-05
-9.29715414304e-08
2.12154304904e-05
-1.64426554687e-07
2.14560062621e-05
-3.09792978412e-07
2.19137524526e-05
-6.24398816583e-07
2.28005260685e-05
-1.34164124336e-06
2.44440393733e-05
-3.1109850888e-06
-7.03660095429e-06
2.60298443828e-05
5.35171053347e-05
1.24191791472e-05
5.29349683217e-05
1.79445303898e-05
4.96538400916e-05
1.5944394984e-05
4.5840181379e-05
1.24077930255e-05
4.24400922948e-05
9.10127498373e-06
3.97291722174e-05
6.48944342984e-06
3.76873055765e-05
4.56723869895e-06
3.61976625501e-05
3.19065372142e-06
3.51326116864e-05
2.21501750469e-06
3.43823663979e-05
1.52704838162e-06
3.3860625195e-05
1.04388643294e-06
3.35023447656e-05
7.06213380087e-07
3.32595997154e-05
4.71748844981e-07
3.30975893272e-05
3.1030446223e-07
3.29913332145e-05
2.00283142039e-07
3.29230913345e-05
1.26234737312e-07
3.28804034763e-05
7.71342479501e-08
3.28546183742e-05
4.515217797e-08
3.28397914059e-05
2.47698344464e-08
3.2831865064e-05
1.21334747507e-08
3.2827995805e-05
4.58879275487e-09
3.2826997506e-05
6.69543095553e-11
3.28271786978e-05
-1.81031350132e-09
3.28280276652e-05
-2.71299110467e-09
3.28291441194e-05
-2.93322391817e-09
3.28302921445e-05
-2.77406447483e-09
3.28313489584e-05
-2.4356746985e-09
3.28322602479e-05
-2.03676596322e-09
3.28330110528e-05
-1.64372179836e-09
3.28336073522e-05
-1.2900549247e-09
3.28340641294e-05
-9.89469106589e-10
3.28343995464e-05
-7.44719312898e-10
3.28346663153e-05
-5.54088346039e-10
3.28348831147e-05
-4.16810917005e-10
3.28350310309e-05
-2.81430408198e-10
3.28351310415e-05
-1.84032193685e-10
3.28351979625e-05
-1.16139058478e-10
3.28352411268e-05
-6.91260950476e-11
3.28352673132e-05
-3.5708450273e-11
3.28352803259e-05
-1.0375839618e-11
3.28352836586e-05
7.99190564225e-12
3.28352797664e-05
2.15752119548e-11
3.28352703519e-05
3.18346187676e-11
3.28352567206e-05
3.98841870268e-11
3.28352396668e-05
4.66969276701e-11
3.28352197284e-05
5.29995829395e-11
3.28351973235e-05
5.92504649711e-11
3.28351727432e-05
6.56316830401e-11
3.28351462574e-05
7.24406372122e-11
3.28351179205e-05
8.00872838868e-11
3.28350879937e-05
8.83381780064e-11
3.28350570101e-05
9.68673127967e-11
3.28350259199e-05
1.05066641624e-10
3.28349965609e-05
1.11987645824e-10
3.28349719143e-05
1.15850819428e-10
3.28349565058e-05
1.14013853024e-10
3.2834957532e-05
1.02084303314e-10
3.28349866862e-05
7.25215058346e-11
3.28350613406e-05
1.55103664002e-11
3.28352114784e-05
-8.96285171158e-11
3.28354887422e-05
-2.80008961387e-10
3.28359830324e-05
-6.2039898622e-10
3.28367045191e-05
-1.04741237675e-09
3.28377524159e-05
-1.71226093662e-09
3.28393873337e-05
-2.77927010993e-09
3.28419825108e-05
-4.45750211747e-09
3.28460422741e-05
-7.0924963245e-09
3.28523814112e-05
-1.12403143152e-08
3.28623129669e-05
-1.78057857614e-08
3.28780010614e-05
-2.83147191206e-08
3.2903105472e-05
-4.54227944062e-08
3.29429753501e-05
-7.32361366354e-08
3.30074372291e-05
-1.1950503207e-07
3.31134659581e-05
-1.99001344977e-07
3.32900620698e-05
-3.41023630173e-07
3.35854067376e-05
-6.05138261741e-07
3.40705402179e-05
-1.10953268614e-06
3.48115382797e-05
-2.08263907051e-06
3.56721368421e-05
-3.97158171321e-06
-7.10446092273e-06
3.57399997101e-05
5.35105664538e-05
8.90861260602e-06
5.55742222509e-05
1.58808745431e-05
5.52424825402e-05
1.62761346612e-05
5.3597785988e-05
1.40524895612e-05
5.15418476965e-05
1.11572132611e-05
4.95802798501e-05
8.45101122822e-06
4.7924350702e-05
6.22316774945e-06
4.66181386487e-05
4.49686561008e-06
4.56304656573e-05
3.20269032347e-06
4.4905116515e-05
2.25239733297e-06
4.43840891574e-05
1.56491362552e-06
4.40166928711e-05
1.0736095512e-06
4.37619662902e-05
7.26475394672e-07
4.35882676426e-05
4.84003185846e-07
4.34718682752e-05
3.16682657335e-07
4.33953583495e-05
2.02744992086e-07
4.33461881001e-05
1.26304492319e-07
4.33154505828e-05
7.58898269635e-08
4.32969144051e-05
4.33062888254e-08
4.32862885607e-05
2.27596538128e-08
4.3280686005e-05
1.01917709393e-08
4.32778786978e-05
2.874765109e-09
4.32770513963e-05
-9.82375076339e-10
4.32772699074e-05
-2.9307405932e-09
4.32779581939e-05
-3.62064474857e-09
4.32788221133e-05
-3.63703958771e-09
4.32796958614e-05
-3.30844342914e-09
4.32804942781e-05
-2.8342051492e-09
4.32811809408e-05
-2.32947410042e-09
4.3281747511e-05
-1.85590067553e-09
4.32822008256e-05
-1.44219813872e-09
4.32825537877e-05
-1.0970461445e-09
4.32828159906e-05
-8.15804030779e-10
4.32829919191e-05
-5.92038977879e-10
4.32831257487e-05
-4.14314170896e-10
4.32832120801e-05
-2.69096511296e-10
4.32832673344e-05
-1.69809347056e-10
4.32833085311e-05
-1.08620995205e-10
4.32833343808e-05
-5.99017173846e-11
4.32833477938e-05
-2.22455744401e-11
4.32833521515e-05
5.06836961272e-12
4.32833493238e-05
2.56430621439e-11
4.32833408148e-05
4.11468529849e-11
4.32833279813e-05
5.32709443226e-11
4.32833115275e-05
6.35643628964e-11
4.32832919104e-05
7.28845117882e-11
4.32832696254e-05
8.16807707663e-11
4.32832450767e-05
9.03558114724e-11
4.32832187621e-05
9.91360489116e-11
4.32831912723e-05
1.0819084868e-10
4.32831632404e-05
1.17160353945e-10
4.32831355182e-05
1.25385205186e-10
4.32831095278e-05
1.31820320782e-10
4.3283087364e-05
1.34835802338e-10
4.32830718783e-05
1.31827677447e-10
4.32830676683e-05
1.18513048854e-10
4.32830828077e-05
8.71379127892e-11
4.32831295587e-05
2.59437116183e-11
4.32832270368e-05
-8.24028327054e-11
4.32833909116e-05
-2.54047337752e-10
4.32836397632e-05
-5.29481032758e-10
4.32840884703e-05
-1.06966894972e-09
4.32848688032e-05
-1.82837452549e-09
4.32861318421e-05
-2.97585435856e-09
4.32880863673e-05
-4.7340435818e-09
4.32910830344e-05
-7.45412841159e-09
4.32956816385e-05
-1.16911283916e-08
4.33027612343e-05
-1.83198690371e-08
4.33137039401e-05
-2.87487202446e-08
4.33306675e-05
-4.52789279593e-08
4.33569607553e-05
-7.171661911e-08
4.33981520818e-05
-1.14427972682e-07
4.34630883815e-05
-1.84442273646e-07
4.35654855527e-05
-3.01399618974e-07
4.37252831576e-05
-5.00821960589e-07
4.39670509066e-05
-8.46906191077e-07
4.43074108448e-05
-1.44989331137e-06
4.47076023872e-05
-2.48283153733e-06
4.49266581139e-05
-4.19063832178e-06
-6.57497343389e-06
4.4397171147e-05
5.2735137983e-05
6.17347457621e-06
5.57309344708e-05
1.28850780841e-05
5.73114743269e-05
1.46955948334e-05
5.76109918378e-05
1.37529720548e-05
5.71335226576e-05
1.16346823946e-05
5.63194681076e-05
9.26506567765e-06
5.54489878984e-05
7.09364782074e-06
5.46629772714e-05
5.28287602297e-06
5.40136816438e-05
3.85198570916e-06
5.35061502708e-05
2.75992846209e-06
5.312425436e-05
1.94680930381e-06
5.28449848727e-05
1.35287878789e-06
5.26454387669e-05
9.26021280748e-07
5.25057146793e-05
6.23727012895e-07
5.24097201057e-05
4.12676979177e-07
5.23450144172e-05
2.67450645688e-07
5.23022769204e-05
1.69042093771e-07
5.22746900601e-05
1.03476792066e-07
5.2257365882e-05
6.06306986466e-08
5.22468575897e-05
3.32682834506e-08
5.22407582796e-05
1.62914725353e-08
5.22374498166e-05
6.1836983212e-09
5.22359515927e-05
5.16412482074e-10
5.22354441481e-05
-2.42263302536e-09
5.22355096722e-05
-3.68541652564e-09
5.22358557918e-05
-3.98230420976e-09
5.22363107654e-05
-3.76249913603e-09
5.22367778707e-05
-3.30041152633e-09
5.22372060064e-05
-2.75670749254e-09
5.22375723211e-05
-2.2214908851e-09
5.22378700363e-05
-1.7394990853e-09
5.22381022149e-05
-1.32862911082e-09
5.22382790119e-05
-9.92004928814e-10
5.22384124545e-05
-7.24838404842e-10
5.22385135846e-05
-5.14566920088e-10
5.22385992271e-05
-3.53546618743e-10
5.22386659491e-05
-2.35120123947e-10
5.22387096129e-05
-1.50724544447e-10
5.2238743783e-05
-9.24820070187e-11
5.22387605848e-05
-3.74786098652e-11
5.22387670919e-05
8.72502217701e-15
5.22387658092e-05
2.80933588839e-11
5.223875856e-05
4.91143541973e-11
5.22387467667e-05
6.54823589987e-11
5.22387314001e-05
7.91050394868e-11
5.22387129756e-05
9.11869450406e-11
5.22386922058e-05
1.02394931327e-10
5.22386697899e-05
1.12893174009e-10
5.22386471412e-05
1.22270051598e-10
5.22386223087e-05
1.33768876716e-10
5.22385966423e-05
1.43809609612e-10
5.2238571297e-05
1.51795497762e-10
5.22385478785e-05
1.56296222165e-10
5.2238529083e-05
1.54601374744e-10
5.22385208004e-05
1.40864887969e-10
5.22385308376e-05
1.09141288184e-10
5.22385637033e-05
5.44484111496e-11
5.22386429306e-05
-5.35189703496e-11
5.22387649386e-05
-2.04569313426e-10
5.22389640423e-05
-4.5334263676e-10
5.22393043048e-05
-8.69978677189e-10
5.2239827474e-05
-1.59311361007e-09
5.22406068439e-05
-2.60832317471e-09
5.22417759088e-05
-4.14529167836e-09
5.22435382801e-05
-6.49663786286e-09
5.22461955611e-05
-1.01113644259e-08
5.2250199868e-05
-1.56953595947e-08
5.22562427639e-05
-2.43628159497e-08
5.22653834052e-05
-3.78897454343e-08
5.22792396699e-05
-5.91357193046e-08
5.23002697266e-05
-9.2747099373e-08
5.23321888722e-05
-1.46347685536e-07
5.23803393854e-05
-2.32593762359e-07
5.24516448866e-05
-3.72706520006e-07
5.25529647341e-05
-6.02143121021e-07
5.26848373218e-05
-9.7877945368e-07
5.28250289808e-05
-1.59008574355e-06
5.28920532631e-05
-2.54985606393e-06
5.26734743257e-05
-3.97205850566e-06
-5.76615237047e-06
5.18646536473e-05
5.19834864446e-05
4.18998809873e-06
5.50586640309e-05
9.80990058684e-06
5.76386132938e-05
1.21156456163e-05
5.93259032444e-05
1.20656821375e-05
6.02280152249e-05
1.07325703767e-05
6.05929262998e-05
8.9001544861e-06
6.06482830451e-05
7.0382908909e-06
6.05531883928e-05
5.37797048245e-06
6.04029536029e-05
4.00222026571e-06
6.02479129129e-05
2.91496893965e-06
6.0110787231e-05
2.08393479348e-06
5.99990276174e-05
1.46463826484e-06
5.99125124195e-05
1.01253642137e-06
5.98479204827e-05
6.88318835377e-07
5.98010169534e-05
4.59580544056e-07
5.976773237e-05
3.00735295022e-07
5.97445910962e-05
1.92183480924e-07
5.97288126216e-05
1.19255408807e-07
5.97182645884e-05
7.11789312194e-08
5.97113585582e-05
4.01745732591e-08
5.97069394181e-05
2.07109244598e-08
5.97042058106e-05
8.91769963151e-09
5.97025971719e-05
2.12555407048e-09
5.97016931555e-05
-1.51799259742e-09
5.97012355093e-05
-3.22702943016e-09
5.97010467636e-05
-3.79271430127e-09
5.97010113843e-05
-3.72614464276e-09
5.97010565799e-05
-3.34465679747e-09
5.97011386231e-05
-2.83779148488e-09
5.97012317676e-05
-2.31373421503e-09
5.970132212e-05
-1.82897525991e-09
5.97014030725e-05
-1.40890074113e-09
5.97014733456e-05
-1.06149508154e-09
5.97015335425e-05
-7.84160531067e-10
5.97015846196e-05
-5.64592344237e-10
5.97016254949e-05
-3.93183560602e-10
5.97016544609e-05
-2.62716376871e-10
5.97016710928e-05
-1.65871641845e-10
5.97016709575e-05
-9.07594089891e-11
5.97016643503e-05
-2.93626188699e-11
5.9701659048e-05
6.50264678954e-12
5.97016509863e-05
3.70211987678e-11
5.97016412657e-05
5.95955625859e-11
5.97016302529e-05
7.70306552189e-11
5.97016168551e-05
9.28183364444e-11
5.97016009599e-05
1.07182319208e-10
5.97015828438e-05
1.20596446218e-10
5.97015627253e-05
1.33219321622e-10
5.97015403768e-05
1.45037096662e-10
5.97015189828e-05
1.55826101691e-10
5.97014987499e-05
1.64767103958e-10
5.97014807123e-05
1.70544960911e-10
5.97014664751e-05
1.71262746037e-10
5.97014573913e-05
1.64355696532e-10
5.97014518124e-05
1.47088183099e-10
5.9701443886e-05
1.17403247065e-10
5.97014507267e-05
4.79116787308e-11
5.97014632242e-05
-6.61678457944e-11
5.97015528861e-05
-2.94680738918e-10
5.97017458389e-05
-6.46529306475e-10
5.97020488809e-05
-1.17344034496e-09
5.97024401338e-05
-1.98491040376e-09
5.97030243883e-05
-3.19305701757e-09
5.97038841048e-05
-5.0052927739e-09
5.97051334544e-05
-7.74632726822e-09
5.97069379003e-05
-1.19161282929e-08
5.97095358071e-05
-1.82935480814e-08
5.97132714703e-05
-2.80989434721e-08
5.97186350494e-05
-4.32540295773e-08
5.9726307914e-05
-6.68092617128e-08
5.973719188e-05
-1.03631557489e-07
5.97523495473e-05
-1.61505880161e-07
5.97726186367e-05
-2.52863442402e-07
5.97974072288e-05
-3.97495796148e-07
5.98215588264e-05
-6.26294822183e-07
5.9828199472e-05
-9.85419972274e-07
5.97752949441e-05
-1.53718076616e-06
5.95749417784e-05
-2.34950369932e-06
5.90693628883e-05
-3.46647963416e-06
-4.79522556621e-06
5.80984366076e-05
5.14373053496e-05
2.75268276374e-06
5.42658206636e-05
6.9813854338e-06
5.72496433606e-05
9.13182301011e-06
5.97900276902e-05
9.52529782548e-06
6.17201280793e-05
8.80246992727e-06
6.30883028854e-05
7.53197958648e-06
6.4016716215e-05
6.10987734854e-06
6.46292357779e-05
4.76545070332e-06
6.50258025037e-05
3.60565332527e-06
6.5279076895e-05
2.66169438864e-06
6.54389717929e-05
1.92403975397e-06
6.55386885756e-05
1.36492144046e-06
6.55999271032e-05
9.51297861123e-07
6.56367419667e-05
6.51504034826e-07
6.56581931534e-05
4.38129439577e-07
6.56701014868e-05
2.88827062378e-07
6.56761908664e-05
1.86094251946e-07
6.56788273109e-05
1.16619115094e-07
6.5679497931e-05
7.05085145176e-08
6.56791219446e-05
4.05507986869e-08
6.56782548234e-05
2.15783467423e-08
6.56772242591e-05
9.94864339484e-09
6.5676215467e-05
3.13482731282e-09
6.567530676e-05
-6.08702385839e-10
6.56745387946e-05
-2.45831391255e-09
6.56739113175e-05
-3.16431670969e-09
6.56734134258e-05
-3.22721327336e-09
6.56730275557e-05
-2.95774624458e-09
6.56727346446e-05
-2.54389643781e-09
6.56725165421e-05
-2.09473215699e-09
6.56723570381e-05
-1.66872051871e-09
6.56722425574e-05
-1.29364507876e-09
6.56721610469e-05
-9.79184069985e-10
6.56721018741e-05
-7.24195014807e-10
6.56720594561e-05
-5.21093825744e-10
6.56720294935e-05
-3.61949836939e-10
6.56720057939e-05
-2.3766076607e-10
6.56719857053e-05
-1.44292230426e-10
6.5671972254e-05
-7.57154217824e-11
6.56719719602e-05
-2.75372185058e-11
6.56719716912e-05
8.02894510407e-12
6.56719653382e-05
4.42734990673e-11
6.56719561725e-05
6.91731571385e-11
6.56719442619e-05
8.91200477466e-11
6.56719306111e-05
1.06487105802e-10
6.56719153689e-05
1.22422313387e-10
6.56718985016e-05
1.37497285166e-10
6.56718801065e-05
1.51935969103e-10
6.56718606624e-05
1.6513922635e-10
6.56718422915e-05
1.75097938708e-10
6.56718239149e-05
1.84196999249e-10
6.56718059214e-05
1.89644022309e-10
6.56717894301e-05
1.88810877312e-10
6.56717763723e-05
1.78296924779e-10
6.56717705506e-05
1.53375139807e-10
6.56717796453e-05
1.08682867315e-10
6.56717850352e-05
4.24544530035e-11
6.56718228065e-05
-1.04181801146e-10
6.56718914013e-05
-3.63529528778e-10
6.56719925804e-05
-7.47886575572e-10
6.56721462941e-05
-1.32749702358e-09
6.56723597023e-05
-2.19884656506e-09
6.56726499821e-05
-3.48366328392e-09
6.56730337453e-05
-5.38943376534e-09
6.56735222252e-05
-8.23535407057e-09
6.56741136016e-05
-1.25080957067e-08
6.56747780965e-05
-1.89586956873e-08
6.56754307448e-05
-2.87522850981e-08
6.56758716454e-05
-4.3695555009e-08
6.56756745762e-05
-6.66126888235e-08
6.56739715311e-05
-1.01929022108e-07
6.56690309204e-05
-1.56565701773e-07
6.56573221562e-05
-2.4115511456e-07
6.56317220293e-05
-3.71896252621e-07
6.55780879579e-05
-5.72661842053e-07
6.54692023843e-05
-8.76535571645e-07
6.52559267655e-05
-1.32390501176e-06
6.48582645539e-05
-1.95184143009e-06
6.41638337184e-05
-2.7720492084e-06
-3.71396485234e-06
6.30825734991e-05
5.10850423524e-05
1.66764046911e-06
5.36118446774e-05
4.45458329218e-06
5.66873166397e-05
6.05635115033e-06
5.9689446638e-05
6.52316784737e-06
6.22997271352e-05
6.1921892974e-06
6.44136885454e-05
5.41801797799e-06
6.60471844692e-05
4.47638110666e-06
6.72686157887e-05
3.54401900332e-06
6.81598946382e-05
2.7143740957e-06
6.87977611066e-05
2.02382757582e-06
6.92467454267e-05
1.47505516209e-06
6.95579643397e-05
1.05370245521e-06
6.9770431172e-05
7.38831027795e-07
6.99131744655e-05
5.08760773462e-07
7.00073858677e-05
3.43918101181e-07
7.00682957721e-05
2.2791724255e-07
7.01066981801e-05
1.47691952958e-07
7.01301408815e-05
9.31765381289e-08
7.01438304297e-05
5.68191013175e-08
7.01513069786e-05
3.30744010637e-08
7.01549399422e-05
1.7945570497e-08
7.01562882753e-05
8.60056635702e-09
7.01563608085e-05
3.06263073968e-09
7.01557695428e-05
-1.69699771045e-11
7.01549095861e-05
-1.59775168607e-09
7.01539870412e-05
-2.24099406637e-09
7.01531195853e-05
-2.35885488532e-09
7.01523608335e-05
-2.19801138314e-09
7.01517277968e-05
-1.91004728214e-09
7.01512178093e-05
-1.58374987236e-09
7.01508177241e-05
-1.26778301431e-09
7.01505106591e-05
-9.85778212773e-10
7.01502791395e-05
-7.46692993988e-10
7.01501069944e-05
-5.5098085072e-10
7.01499812967e-05
-3.94242750709e-10
7.01498913434e-05
-2.70853153864e-10
7.0149830048e-05
-1.75168986371e-10
7.01497899537e-05
-1.02921009254e-10
7.01497629442e-05
-4.74005929446e-11
7.01497345349e-05
2.16815594611e-12
7.01497123947e-05
3.13096300464e-11
7.0149700392e-05
5.73093012452e-11
7.01496907356e-05
7.95880310106e-11
7.01496814138e-05
9.87721068212e-11
7.01496717595e-05
1.16202404066e-10
7.01496615098e-05
1.32630174992e-10
7.01496506874e-05
1.48413453551e-10
7.01496394082e-05
1.63453409579e-10
7.01496275883e-05
1.77360611979e-10
7.01496138232e-05
1.89470873423e-10
7.01495999116e-05
1.98838353334e-10
7.01495866338e-05
2.03673354506e-10
7.01495746841e-05
2.01453925162e-10
7.0149564572e-05
1.89196605467e-10
7.01495556722e-05
1.62956651754e-10
7.01495450018e-05
1.19406720639e-10
7.01495407924e-05
4.66742888455e-11
7.01495285257e-05
-9.22237040524e-11
7.01495423408e-05
-3.77567019745e-10
7.01495674843e-05
-7.7328854664e-10
7.01495928984e-05
-1.3532264753e-09
7.0149597354e-05
-2.20386039367e-09
7.01495546687e-05
-3.44129138151e-09
7.01494114361e-05
-5.24679753224e-09
7.01490690831e-05
-7.89371093947e-09
7.01483529695e-05
-1.17925208226e-08
7.01469616277e-05
-1.75678385178e-08
7.01443841297e-05
-2.61753641864e-08
7.01397475527e-05
-3.90597212635e-08
7.01315723598e-05
-5.84381878912e-08
7.01173703796e-05
-8.7727688978e-08
7.00929901671e-05
-1.32186161907e-07
7.0051348048e-05
-1.9951384716e-07
6.99804795914e-05
-3.01027821414e-07
6.98604327739e-05
-4.52615148354e-07
6.9658786609e-05
-6.74890114273e-07
6.93256666678e-05
-9.90785709509e-07
6.87915854372e-05
-1.41775987402e-06
6.79740478869e-05
-1.95451177024e-06
-2.5550186681e-06
6.68151018012e-05
5.08804131941e-05
7.87227374996e-07
5.31704663295e-05
2.16453039257e-06
5.62177499167e-05
3.00906766237e-06
5.94382698905e-05
3.30264791896e-06
6.24449695831e-05
3.18548953073e-06
6.50382527892e-05
2.82473457198e-06
6.71548661096e-05
2.35976753121e-06
6.88135643341e-05
1.88532046145e-06
7.00731701183e-05
1.45476802989e-06
7.10056668947e-05
1.09133050829e-06
7.16812631023e-05
7.99458753065e-07
7.21614224188e-05
5.73542916568e-07
7.24966034088e-05
4.03649961688e-07
7.27264800938e-05
2.78884139289e-07
7.28812791405e-05
1.89119154858e-07
7.29834690446e-05
1.25727472281e-07
7.304941296e-05
8.17481566492e-08
7.30908151995e-05
5.17744198297e-08
7.31159092862e-05
3.17251417086e-08
7.31303939609e-05
1.85898538183e-08
7.31381488722e-05
1.01908105846e-08
7.31417695636e-05
4.9800815153e-09
7.31429576428e-05
1.87489118311e-09
7.3142811773e-05
1.2938716075e-10
7.31419892336e-05
-7.74525871404e-10
7.31409071459e-05
-1.15807273452e-09
7.31397932268e-05
-1.24393143042e-09
7.31387668512e-05
-1.17044484322e-09
7.3137880326e-05
-1.02232519668e-09
7.31371476058e-05
-8.49838753822e-10
7.31365612491e-05
-6.80285111412e-10
7.31361038411e-05
-5.27336478322e-10
7.31357546539e-05
-3.96470707291e-10
7.31354931305e-05
-2.88355492151e-10
7.31353009096e-05
-2.00885077444e-10
7.31351623598e-05
-1.31076897454e-10
7.31350642786e-05
-7.5694861426e-11
7.31349941115e-05
-3.13140595196e-11
7.31349422838e-05
5.76022234604e-12
7.31349138766e-05
3.16473511792e-11
7.31348919859e-05
5.40891275477e-11
7.31348760869e-05
7.37930208811e-11
7.31348644367e-05
9.1606985694e-11
7.31348552018e-05
1.08171319187e-10
7.31348471478e-05
1.24255721692e-10
7.31348395267e-05
1.40207277488e-10
7.31348318586e-05
1.56126767752e-10
7.3134823802e-05
1.71788342585e-10
7.31348151015e-05
1.86537285238e-10
7.3134805765e-05
1.99543082418e-10
7.31347957962e-05
2.09760655115e-10
7.31347851336e-05
2.15273944824e-10
7.31347739211e-05
2.13551147028e-10
7.31347621949e-05
2.01134354942e-10
7.31347510831e-05
1.74470621545e-10
7.31347414835e-05
1.29079552947e-10
7.31347245477e-05
6.35078160702e-11
7.31347028484e-05
-7.0686752456e-11
7.31346626752e-05
-3.37647025042e-10
7.31345980569e-05
-7.09010782631e-10
7.313448556e-05
-1.24097682706e-09
7.3134281797e-05
-2.0006948449e-09
7.31339191832e-05
-3.07917067179e-09
7.31332827617e-05
-4.6109946059e-09
7.31321799872e-05
-6.79130314262e-09
7.31302894589e-05
-9.90217188602e-09
7.31270834916e-05
-1.43621835833e-08
7.31217075426e-05
-2.08000830072e-08
7.31127505032e-05
-3.01033562389e-08
7.30979091028e-05
-4.35973401972e-08
7.30734765512e-05
-6.32954477818e-08
7.30335579786e-05
-9.22684019213e-08
7.29686455123e-05
-1.34602325037e-07
7.28637284565e-05
-1.96111797125e-07
7.26956505679e-05
-2.84537914943e-07
7.24299276555e-05
-4.09166961057e-07
7.20182221004e-05
-5.79080310646e-07
7.1399372876e-05
-7.98910843889e-07
7.05078798379e-05
-1.06301899369e-06
-1.34632521626e-06
6.92991862675e-05
5.07871726071e-05
5.48571633396e-11
5.29516500187e-05
5.32221071821e-11
5.59606886694e-05
2.91033394426e-11
5.92633220553e-05
1.44979958954e-11
6.24488084512e-05
3.03330309017e-12
6.52735486955e-05
-5.93143976011e-12
6.76333278771e-05
-1.19769106614e-11
6.95186630937e-05
-1.51205308528e-11
7.09734465126e-05
-1.57412941324e-11
7.20647911336e-05
-1.44404195836e-11
7.28642614437e-05
-1.17555789589e-11
7.34378126683e-05
-8.40216603189e-12
7.38414676385e-05
-5.00746640283e-12
7.41203540758e-05
-2.20651954347e-12
7.43094739861e-05
-6.231906091e-13
7.44352022269e-05
-6.53800812901e-13
7.45169530744e-05
-2.58718131774e-12
7.45687337824e-05
-6.2032600546e-12
7.46004698792e-05
-1.08868334612e-11
7.46190754716e-05
-1.56684327256e-11
7.46292857955e-05
-1.94126898894e-11
7.46342870715e-05
-2.10353217368e-11
7.46361823123e-05
-2.0047622353e-11
7.46363299612e-05
-1.77500619373e-11
7.46355714471e-05
-1.5292916249e-11
7.46344264849e-05
-1.22407802619e-11
7.46331923767e-05
-8.7266098291e-12
7.46320279838e-05
-4.88954791572e-12
7.46310070511e-05
-2.05295464176e-13
7.46301546198e-05
3.71806578923e-12
7.46294671859e-05
8.22120426898e-12
7.46289276738e-05
1.30507226256e-11
7.46285138129e-05
1.82038732955e-11
7.46282026377e-05
2.37900236938e-11
7.46279728892e-05
2.99542054206e-11
7.46278062085e-05
3.67740909723e-11
7.46276874503e-05
4.42918579561e-11
7.46276048567e-05
5.24680664274e-11
7.46275504339e-05
6.14689990504e-11
7.46275127273e-05
7.07243931368e-11
7.46274876818e-05
8.0176624477e-11
7.46274714003e-05
9.08140423183e-11
7.46274609529e-05
1.02551848477e-10
7.46274541243e-05
1.15335834233e-10
7.46274493962e-05
1.2915840647e-10
7.46274458463e-05
1.43988375745e-10
7.46274428082e-05
1.59492606321e-10
7.46274397883e-05
1.75224640337e-10
7.46274364462e-05
1.90537413865e-10
7.46274324418e-05
2.04447456831e-10
7.46274274701e-05
2.1568449142e-10
7.46274211999e-05
2.22344356546e-10
7.46274132554e-05
2.22160781328e-10
7.46274029832e-05
2.12148265582e-10
7.46273891125e-05
1.88733343517e-10
7.4627369856e-05
1.48333923315e-10
7.46273447476e-05
8.86212830006e-11
7.46272994954e-05
-2.52973878675e-11
7.46272121732e-05
-2.5034164813e-10
7.4627077257e-05
-5.74498190322e-10
7.46268552565e-05
-1.01932758552e-09
7.46264855302e-05
-1.63127920995e-09
7.46258716875e-05
-2.46591172085e-09
7.46248574143e-05
-3.59714106494e-09
7.46231878953e-05
-5.12203816412e-09
7.46204469028e-05
-7.16150171928e-09
7.46159670652e-05
-9.88296472116e-09
7.46086914653e-05
-1.35254954156e-08
7.45968857709e-05
-1.82988772625e-08
7.45777512291e-05
-2.44639665076e-08
7.45468688304e-05
-3.24139139282e-08
7.44975141522e-05
-4.29147197455e-08
7.44189595957e-05
-5.60482010516e-08
7.42948170652e-05
-7.19692402469e-08
7.41007225481e-05
-9.04441060316e-08
7.38018825175e-05
-1.10327651948e-07
7.33516698122e-05
-1.28867712047e-07
7.2693658982e-05
-1.40900214062e-07
7.17698831145e-05
-1.39243612579e-07
-1.15417700614e-07
7.05389753712e-05
5.07871715853e-05
-7.87116644762e-07