/*--------------------------------*- C++ -*----------------------------------*\
| =========                 |                                                 |
| \\      /  F ield         | OpenFOAM: The Open Source CFD Toolbox           |
|  \\    /   O peration     | Version:  2106                                  |
|   \\  /    A nd           | Website:  www.openfoam.com                      |
|    \\/     M anipulation  |                                                 |
\*---------------------------------------------------------------------------*/
FoamFile
{
    version     2.0;
    format      ascii;
    arch        "LSB;label=32;scalar=64";
    class       volScalarField;
    location    "0.485";
    object      phiE;
}
// * * * * * * * * * * * * * * * * * * * * * * * * * * * * * * * * * * * * * //

dimensions      [1 2 -3 0 0 -1 0];

internalField   nonuniform List<scalar> 
11200
(
-4.19012481022e-13
-1.25810062071e-12
-2.10130155343e-12
-2.95217779542e-12
-3.81391199389e-12
-4.68968308638e-12
-5.58267885403e-12
-6.4961034071e-12
-7.43318269666e-12
-8.39716911334e-12
-9.39134558389e-12
-1.04190293399e-11
-1.14835754367e-11
-1.25883800554e-11
-1.37368836045e-11
-1.49325736211e-11
-1.61789874715e-11
-1.7479714846e-11
-1.88384000396e-11
-2.02587440141e-11
-2.17445062311e-11
-2.32995062515e-11
-2.4927625093e-11
-2.66328063406e-11
-2.84190570048e-11
-3.02904481234e-11
-3.22511151057e-11
-3.4305257816e-11
-3.64571404007e-11
-3.87110908602e-11
-4.10715003733e-11
-4.35428223831e-11
-4.61295714595e-11
-4.8836321954e-11
-5.1667706474e-11
-5.46284142041e-11
-5.77231891141e-11
-6.09568281019e-11
-6.43341791281e-11
-6.78601394177e-11
-7.15396538152e-11
-7.53777134026e-11
-7.93793545132e-11
-8.35496583001e-11
-8.78937510581e-11
-9.24168055346e-11
-9.71240435223e-11
-1.02020740084e-10
-1.07112229846e-10
-1.12403915877e-10
-1.17901281807e-10
-1.23609907973e-10
-1.29535492552e-10
-1.35683878898e-10
-1.42061090548e-10
-1.48673375758e-10
-1.55527263866e-10
-1.62629636399e-10
-1.699878166e-10
-1.77609682103e-10
-1.85503806832e-10
-1.93679640086e-10
-2.02147733329e-10
-2.10920028797e-10
-2.20010229167e-10
-2.29434275018e-10
-2.39210967924e-10
-2.49362794023e-10
-2.59917029598e-10
-2.70907253332e-10
-2.82375462369e-10
-2.94375115803e-10
-3.06975660987e-10
-3.20269547025e-10
-3.3438365917e-10
-3.49499191453e-10
-3.65889116675e-10
-3.83996632609e-10
-4.04622751064e-10
-4.29453296848e-10
-4.18332047328e-13
-1.25626194519e-12
-2.09854805327e-12
-2.94853244112e-12
-3.80938124646e-12
-4.68426679519e-12
-5.57637347696e-12
-6.48890324655e-12
-7.42508045244e-12
-8.38815616799e-12
-9.38141217177e-12
-1.0408164662e-11
-1.14717677483e-11
-1.2575616741e-11
-1.37231512452e-11
-1.49178580593e-11
-1.61632738744e-11
-1.74629877684e-11
-1.88206434879e-11
-2.02399415098e-11
-2.17246408755e-11
-2.32785607905e-11
-2.49055819816e-11
-2.66096478072e-11
-2.83947651142e-11
-3.02650048387e-11
-3.22245023461e-11
-3.42774575125e-11
-3.64281345455e-11
-3.86808615498e-11
-4.10400298431e-11
-4.35100930313e-11
-4.60955658567e-11
-4.88010228371e-11
-5.1631096718e-11
-5.45904767689e-11
-5.76839069602e-11
-6.09161840665e-11
-6.42921557557e-11
-6.78167187327e-11
-7.14948170251e-11
-7.53314405173e-11
-7.93316238604e-11
-8.35004459166e-11
-8.7843029928e-11
-9.23645446424e-11
-9.70702066795e-11
-1.01965284481e-10
-1.07055104262e-10
-1.12345058484e-10
-1.17840617461e-10
-1.23547344881e-10
-1.29470918172e-10
-1.35617154877e-10
-1.4199204648e-10
-1.48601801444e-10
-1.55452899708e-10
-1.62552161408e-10
-1.69906833374e-10
-1.77524697868e-10
-1.85414209365e-10
-1.93584666852e-10
-2.02046431531e-10
-2.10811203032e-10
-2.19892371893e-10
-2.29305472676e-10
-2.39068771816e-10
-2.49204038838e-10
-2.59737571891e-10
-2.70701583551e-10
-2.82136109348e-10
-2.94091695243e-10
-3.06633280376e-10
-3.19845971841e-10
-3.33843906271e-10
-3.48784257816e-10
-3.64889740838e-10
-3.82483420235e-10
-4.02028910195e-10
-4.24079764669e-10
-4.18081362101e-13
-1.25559911384e-12
-2.0975298335e-12
-2.94718731671e-12
-3.80772317666e-12
-4.68230253947e-12
-5.57410599783e-12
-6.48633330878e-12
-7.42220741669e-12
-8.38497841208e-12
-9.37792733092e-12
-1.0404369776e-11
-1.14676593586e-11
-1.2571190959e-11
-1.37184038031e-11
-1.49127843508e-11
-1.61578689872e-11
-1.74572465117e-11
-1.88145604152e-11
-2.02335109376e-11
-2.17178568985e-11
-2.3271417292e-11
-2.48980726403e-11
-2.66017660979e-11
-2.83865043028e-11
-3.02563579696e-11
-3.22154622207e-11
-3.4268016657e-11
-3.64182851652e-11
-3.8670595468e-11
-4.102933842e-11
-4.34989670594e-11
-4.60839954276e-11
-4.87889971729e-11
-5.16186039603e-11
-5.45775037162e-11
-5.76704387421e-11
-6.09022037418e-11
-6.42776438173e-11
-6.78016524998e-11
-7.14791698986e-11
-7.53151810677e-11
-7.93147147135e-11
-8.34828423923e-11
-8.78246783782e-11
-9.23453804234e-11
-9.7050151677e-11
-1.0194424409e-10
-1.07032963699e-10
-1.12321678282e-10
-1.17815827962e-10
-1.23520939491e-10
-1.2944264509e-10
-1.35586706941e-10
-1.41959048654e-10
-1.48565795372e-10
-1.55413324569e-10
-1.62508330089e-10
-1.69857902666e-10
-1.77469630969e-10
-1.85351728348e-10
-1.93513191931e-10
-2.01964002675e-10
-2.10715377645e-10
-2.19780089457e-10
-2.29172872937e-10
-2.38910946202e-10
-2.49014683636e-10
-2.59508492934e-10
-2.70421969637e-10
-2.81791433034e-10
-2.93661989629e-10
-3.06090324182e-10
-3.19148467787e-10
-3.32928763259e-10
-3.47549856688e-10
-3.63161776312e-10
-3.79941502466e-10
-3.98047266476e-10
-4.17426490277e-10
-4.17886667777e-13
-1.25504662558e-12
-2.09665361738e-12
-2.94601066931e-12
-3.80626026171e-12
-4.68056157237e-12
-5.57209149065e-12
-6.48404741028e-12
-7.41965068697e-12
-8.38215027725e-12
-9.37482635986e-12
-1.04009938568e-11
-1.14640058168e-11
-1.25672566406e-11
-1.37141851364e-11
-1.49082773921e-11
-1.61530694568e-11
-1.74521498217e-11
-1.88091616901e-11
-2.02278050289e-11
-2.17118383929e-11
-2.32650805133e-11
-2.4891411644e-11
-2.65947746574e-11
-2.83791758867e-11
-3.02486857067e-11
-3.22074388527e-11
-3.42596344737e-11
-3.64095359212e-11
-3.86614702746e-11
-4.10198276088e-11
-4.3489060011e-11
-4.60736803572e-11
-4.87782608647e-11
-5.16074314392e-11
-5.45658778434e-11
-5.76583397178e-11
-6.08896084961e-11
-6.42645252647e-11
-6.77879786277e-11
-7.14649026544e-11
-7.53002750014e-11
-7.92991153226e-11
-8.34664841042e-11
-8.78074820921e-11
-9.23272505144e-11
-9.70309723458e-11
-1.01923874912e-10
-1.07011234197e-10
-1.12298381299e-10
-1.17790711569e-10
-1.23493697082e-10
-1.2941290326e-10
-1.35554010594e-10
-1.41922842699e-10
-1.48525402136e-10
-1.55367915853e-10
-1.62456892449e-10
-1.6979919407e-10
-1.7740212639e-10
-1.85273551014e-10
-1.93422025768e-10
-2.0185697977e-10
-2.10588932077e-10
-2.196297651e-10
-2.28993067156e-10
-2.38694562548e-10
-2.48752652548e-10
-2.59189096532e-10
-2.7002986822e-10
-2.81306224631e-10
-2.93056016591e-10
-3.0532522711e-10
-3.18169590006e-10
-3.31655766154e-10
-3.45860556098e-10
-3.60864052531e-10
-3.76726295163e-10
-3.93422940207e-10
-4.106928041e-10
-4.17727587484e-13
-1.25458223378e-12
-2.09590377971e-12
-2.94499248419e-12
-3.80498607491e-12
-4.67903963105e-12
-5.57032700958e-12
-6.48204343631e-12
-7.41740869818e-12
-8.37967058048e-12
-9.37210835446e-12
-1.03980362134e-11
-1.14608066022e-11
-1.25638134079e-11
-1.3710494991e-11
-1.49043370419e-11
-1.61488752496e-11
-1.74476977719e-11
-1.88044474976e-11
-2.02228240888e-11
-2.17065857976e-11
-2.32595510456e-11
-2.48855997603e-11
-2.65886744609e-11
-2.83727810871e-11
-3.02419895656e-11
-3.22004341107e-11
-3.42523132567e-11
-3.64018896207e-11
-3.86534893973e-11
-4.10115015884e-11
-4.34803769742e-11
-4.60646268354e-11
-4.87688214381e-11
-5.15975882997e-11
-5.45556102591e-11
-5.76476233776e-11
-6.08784147093e-11
-6.42528199834e-11
-6.77757212556e-11
-7.14520445944e-11
-7.52867578872e-11
-7.92848688647e-11
-8.34514234683e-11
-8.77915047072e-11
-9.23102321873e-11
-9.70127625291e-11
-1.0190429094e-10
-1.06990054261e-10
-1.12275335879e-10
-1.17765472973e-10
-1.23465866667e-10
-1.29381995785e-10
-1.35519435051e-10
-1.41883878751e-10
-1.48481171115e-10
-1.55317344929e-10
-1.62398670218e-10
-1.69731715267e-10
-1.77323422703e-10
-1.85181204002e-10
-1.93313056472e-10
-2.01727707631e-10
-2.10434792923e-10
-2.19445073753e-10
-2.28770703987e-10
-2.38425553809e-10
-2.48425599721e-10
-2.58789387028e-10
-2.69538563242e-10
-2.8069846111e-10
-2.92298664203e-10
-3.04373386317e-10
-3.16961274176e-10
-3.30103767276e-10
-3.4384015301e-10
-3.58195474692e-10
-3.73153952681e-10
-3.88606224949e-10
-4.04260854418e-10
-4.17595768949e-13
-1.25419284906e-12
-2.09526876473e-12
-2.94412403907e-12
-3.80389432265e-12
-4.67773217986e-12
-5.56880923418e-12
-6.48031890775e-12
-7.4154795674e-12
-8.37753787535e-12
-9.36977219956e-12
-1.03954959914e-11
-1.14580610733e-11
-1.25608607991e-11
-1.37073330638e-11
-1.49009631426e-11
-1.61452863469e-11
-1.74438904828e-11
-1.88004181026e-11
-2.02185685382e-11
-2.17020997066e-11
-2.32548296796e-11
-2.48806380085e-11
-2.65834667962e-11
-2.83673215106e-11
-3.02362715333e-11
-3.21944504388e-11
-3.42460560003e-11
-3.63953499225e-11
-3.8646657298e-11
-4.10043657921e-11
-4.34729245595e-11
-4.6056842899e-11
-4.87606886586e-11
-5.15890864035e-11
-5.45467153674e-11
-5.76383072095e-11
-6.08686436103e-11
-6.42425537417e-11
-6.776491166e-11
-7.14406336803e-11
-7.52746758011e-11
-7.9272031267e-11
-8.34377283735e-11
-8.77768286406e-11
-9.22944255084e-11
-9.69956437411e-11
-1.01885639762e-10
-1.06969603191e-10
-1.12252759912e-10
-1.17740377059e-10
-1.23437770399e-10
-1.29350314685e-10
-1.35483457653e-10
-1.41842738507e-10
-1.48433811854e-10
-1.55262478297e-10
-1.62334723069e-10
-1.69656764381e-10
-1.77235113435e-10
-1.85076648374e-10
-1.93188704736e-10
-2.01579185276e-10
-2.10256692134e-10
-2.19230684196e-10
-2.28511661653e-10
-2.38111377828e-10
-2.48043073915e-10
-2.58321723498e-10
-2.68964256452e-10
-2.79989698566e-10
-2.91419099832e-10
-3.03275004419e-10
-3.15579991648e-10
-3.28353411388e-10
-3.41604742519e-10
-3.55320958831e-10
-3.69444212099e-10
-3.83836782828e-10
-3.98238122377e-10
-4.17487219534e-13
-1.2538705168e-12
-2.09474024563e-12
-2.9433981565e-12
-3.80297926846e-12
-4.67663475392e-12
-5.56753470575e-12
-6.47887113581e-12
-7.41386119438e-12
-8.37575051802e-12
-9.36781661298e-12
-1.03933722025e-11
-1.1455768487e-11
-1.25583982825e-11
-1.37046990108e-11
-1.48981555238e-11
-1.61423027452e-11
-1.74407281176e-11
-1.87970738423e-11
-2.02150389014e-11
-2.16983808525e-11
-2.32509173854e-11
-2.48765276335e-11
-2.6579153231e-11
-2.83627991081e-11
-3.02315340188e-11
-3.21894907953e-11
-3.42408663248e-11
-3.63899212455e-11
-3.86409793612e-11
-4.09984267735e-11
-4.34667107359e-11
-4.60503382324e-11
-4.87538742903e-11
-5.15819400363e-11
-5.45392105121e-11
-5.76304122669e-11
-6.08603207532e-11
-6.42337575538e-11
-6.77555874814e-11
-7.14307155939e-11
-7.52640841853e-11
-7.926066982e-11
-8.34254804961e-11
-8.77635530379e-11
-9.22799508425e-11
-9.69797621275e-11
-1.01868098858e-10
-1.06950096566e-10
-1.12230915321e-10
-1.17715742156e-10
-1.23409795312e-10
-1.29318330743e-10
-1.35446651387e-10
-1.41800119819e-10
-1.4838417499e-10
-1.55204353876e-10
-1.62266318975e-10
-1.69575892719e-10
-1.77139099923e-10
-1.84962219483e-10
-1.93051846428e-10
-2.01414965191e-10
-2.10059034358e-10
-2.18992081917e-10
-2.28222807756e-10
-2.37760686063e-10
-2.47616053041e-10
-2.57800152733e-10
-2.68325091931e-10
-2.79203617505e-10
-2.90448565321e-10
-3.02071722035e-10
-3.14081665695e-10
-3.26479883483e-10
-3.39254110097e-10
-3.52367518616e-10
-3.65742627232e-10
-3.79240889428e-10
-3.92645424418e-10
-4.17399728112e-13
-1.25361011369e-12
-2.09431214427e-12
-2.9428090115e-12
-3.80223583679e-12
-4.6757431252e-12
-5.56649997564e-12
-6.4776973357e-12
-7.41255134414e-12
-8.37430672632e-12
-9.3662401877e-12
-1.03916637544e-11
-1.14539280202e-11
-1.25564252701e-11
-1.37025924558e-11
-1.48959140059e-11
-1.61399244549e-11
-1.74382108774e-11
-1.87944151164e-11
-2.02122357929e-11
-2.16954300881e-11
-2.32478152869e-11
-2.48732700739e-11
-2.65757355736e-11
-2.83592161262e-11
-3.02277797921e-11
-3.2185558579e-11
-3.42367483857e-11
-3.63856086591e-11
-3.86364617611e-11
-4.09936920439e-11
-4.34617446342e-11
-4.60451239288e-11
-4.87483918052e-11
-5.15761655548e-11
-5.45331155486e-11
-5.76239626492e-11
-6.08534753855e-11
-6.42264669142e-11
-6.77477917938e-11
-7.14223426075e-11
-7.52550464756e-11
-7.92508615101e-11
-8.34147732723e-11
-8.77517913085e-11
-9.22669458548e-11
-9.69652848168e-11
-1.01851871154e-10
-1.06931780821e-10
-1.12210101445e-10
-1.17691931961e-10
-1.23382383436e-10
-1.29286581403e-10
-1.35409670009e-10
-1.41756818381e-10
-1.48333229633e-10
-1.55144152959e-10
-1.62194899314e-10
-1.6949086112e-10
-1.77037536382e-10
-1.84840557378e-10
-1.92905723719e-10
-2.01239038856e-10
-2.09846747969e-10
-2.18735373109e-10
-2.27911738247e-10
-2.3738297149e-10
-2.47156463049e-10
-2.5723974364e-10
-2.67640225748e-10
-2.78364715144e-10
-2.89418546015e-10
-3.00804112649e-10
-3.12518459369e-10
-3.24549458176e-10
-3.36870005257e-10
-3.49429768881e-10
-3.62144707687e-10
-3.74886537313e-10
-3.87478236425e-10
-4.17331896719e-13
-1.25340809098e-12
-2.09397985319e-12
-2.9423518092e-12
-3.801659546e-12
-4.67505334248e-12
-5.56570167611e-12
-6.4767946971e-12
-7.41154770697e-12
-8.37320462771e-12
-9.36504142899e-12
-1.03903694791e-11
-1.145253879e-11
-1.25549411321e-11
-1.37010129988e-11
-1.48942384041e-11
-1.61381514995e-11
-1.74363389954e-11
-1.87924423769e-11
-2.02101599008e-11
-2.16932483643e-11
-2.32455246339e-11
-2.48708669258e-11
-2.65732158269e-11
-2.83565750506e-11
-3.02250119158e-11
-3.21826575445e-11
-3.42337067714e-11
-3.63824177579e-11
-3.86331113089e-11
-4.09901698865e-11
-4.34580363209e-11
-4.60412122159e-11
-4.87442560509e-11
-5.15717809832e-11
-5.45284523539e-11
-5.76189849065e-11
-6.0848139727e-11
-6.42207209207e-11
-6.77415720406e-11
-7.14155722913e-11
-7.52476325319e-11
-7.92426911128e-11
-8.34057095822e-11
-8.77416683108e-11
-9.22555620882e-11
-9.69523957561e-11
-1.01837179956e-10
-1.06914927079e-10
-1.12190647519e-10
-1.17669346355e-10
-1.23356020581e-10
-1.2925565704e-10
-1.35373231223e-10
-1.41713707066e-10
-1.48282037924e-10
-1.5508316881e-10
-1.62122039945e-10
-1.69403591526e-10
-1.76932769372e-10
-1.84714530729e-10
-1.92753848887e-10
-2.01055714246e-10
-2.09625127904e-10
-2.18467081387e-10
-2.27586512334e-10
-2.36988220161e-10
-2.4667671685e-10
-2.56655974711e-10
-2.66929013232e-10
-2.77497238687e-10
-2.88359410936e-10
-2.9951006187e-10
-3.10937136567e-10
-3.22618596173e-10
-3.34517773985e-10
-3.46577543585e-10
-3.58714059428e-10
-3.70812206538e-10
-3.82726862469e-10
-4.17282726434e-13
-1.25326177264e-12
-2.09373967415e-12
-2.94202246041e-12
-3.80124636556e-12
-4.67456169406e-12
-5.56513653404e-12
-6.47616041792e-12
-7.41084793686e-12
-8.37244229542e-12
-9.3642187855e-12
-1.03894881581e-11
-1.14515998734e-11
-1.25539452106e-11
-1.36999602246e-11
-1.48931285316e-11
-1.61369839141e-11
-1.74351127301e-11
-1.87911561158e-11
-2.02088119692e-11
-2.16918367055e-11
-2.32440467701e-11
-2.48693199025e-11
-2.6571596139e-11
-2.83548785447e-11
-3.02232336686e-11
-3.21807917096e-11
-3.42317463893e-11
-3.63803545232e-11
-3.8630935284e-11
-4.09878691524e-11
-4.34555965505e-11
-4.60386161544e-11
-4.87414828841e-11
-5.15688055687e-11
-5.4525244287e-11
-5.76155073853e-11
-6.08443481741e-11
-6.42165613095e-11
-6.77369788633e-11
-7.14104660919e-11
-7.5241916912e-11
-7.92362490962e-11
-8.33983992031e-11
-8.77333172578e-11
-9.22459612026e-11
-9.69412911397e-11
-1.01824263389e-10
-1.06899824383e-10
-1.12172904433e-10
-1.17648411368e-10
-1.23331224087e-10
-1.29226186009e-10
-1.353380984e-10
-1.41671713537e-10
-1.4823172757e-10
-1.5502277288e-10
-1.6204940957e-10
-1.69316115498e-10
-1.76827273917e-10
-1.84587157252e-10
-1.92599904777e-10
-2.00869490733e-10
-2.09399677701e-10
-2.18193947403e-10
-2.27255397241e-10
-2.36586585297e-10
-2.46189298344e-10
-2.56064206027e-10
-2.66210348584e-10
-2.76624385017e-10
-2.87299504085e-10
-2.98223876443e-10
-3.09378514659e-10
-3.20734435894e-10
-3.32249141463e-10
-3.4386272081e-10
-3.55494449564e-10
-3.67041598528e-10
-3.78383010147e-10
-4.17251411236e-13
-1.25316893391e-12
-2.09358841099e-12
-2.94181729044e-12
-3.80099254605e-12
-4.67426462776e-12
-5.56480134713e-12
-6.47579171128e-12
-7.41044967283e-12
-8.3720177745e-12
-9.36377067491e-12
-1.0389018545e-11
-1.14511103251e-11
-1.2553436833e-11
-1.36994337112e-11
-1.48925842027e-11
-1.61364217433e-11
-1.74345323583e-11
-1.87905568523e-11
-2.02081927796e-11
-2.16911961843e-11
-2.32433830995e-11
-2.48686307926e-11
-2.65708787492e-11
-2.83541293832e-11
-3.02224484646e-11
-3.21799652553e-11
-3.42308723444e-11
-3.63794251753e-11
-3.86299412552e-11
-4.09867990421e-11
-4.34544364996e-11
-4.6037349316e-11
-4.87400887799e-11
-5.15672593068e-11
-5.45235156129e-11
-5.7613559529e-11
-6.08421364519e-11
-6.4214031426e-11
-6.7734064852e-11
-7.14070878156e-11
-7.52379770302e-11
-7.92316293863e-11
-8.33929560959e-11
-8.77268764216e-11
-9.22383109729e-11
-9.69321745466e-11
-1.01813368486e-10
-1.06886772514e-10
-1.12157235993e-10
-1.1762956854e-10
-1.23308529886e-10
-1.29198818867e-10
-1.35305061336e-10
-1.41631796764e-10
-1.48183463135e-10
-1.54964379675e-10
-1.61978726656e-10
-1.69230521309e-10
-1.76723588397e-10
-1.84461523421e-10
-1.92447645552e-10
-2.00684936156e-10
-2.09175956954e-10
-2.1792273938e-10
-2.26926633074e-10
-2.36188096488e-10
-2.45706405768e-10
-2.5547924906e-10
-2.65502161988e-10
-2.75767746973e-10
-2.86264606539e-10
-2.96975914741e-10
-3.07877563877e-10
-3.18935878579e-10
-3.30105023007e-10
-3.41324485241e-10
-3.52517435217e-10
-3.63591257485e-10
-3.74441874507e-10
-4.17237213614e-13
-1.25312751319e-12
-2.09352305143e-12
-2.94173277743e-12
-3.80089444177e-12
-4.67415865007e-12
-5.5646929391e-12
-6.47568579621e-12
-7.41035054927e-12
-8.37192910126e-12
-9.36369550572e-12
-1.03889593855e-11
-1.14510691951e-11
-1.25534153247e-11
-1.36994330378e-11
-1.48926052362e-11
-1.6136465039e-11
-1.74345981672e-11
-1.87906451196e-11
-2.02083031304e-11
-2.16913278946e-11
-2.32435350516e-11
-2.48688014144e-11
-2.65710659332e-11
-2.83543303837e-11
-3.02226597687e-11
-3.21801824233e-11
-3.42310898139e-11
-3.63796360203e-11
-3.86301368935e-11
-4.09869688785e-11
-4.34545674921e-11
-4.60374254494e-11
-4.8740090426e-11
-5.1567162449e-11
-5.45232909048e-11
-5.76131711528e-11
-6.08415407337e-11
-6.42131751563e-11
-6.77328832488e-11
-7.14055020544e-11
-7.52358912483e-11
-7.92289270492e-11
-8.33894955922e-11
-8.77224857202e-11
-9.22327811443e-11
-9.69252519089e-11
-1.01804745081e-10
-1.06876074565e-10
-1.12144009913e-10
-1.17613263977e-10
-1.23288479186e-10
-1.29174212198e-10
-1.3527491658e-10
-1.41594923076e-10
-1.48138416897e-10
-1.54909411256e-10
-1.61911716175e-10
-1.69148901192e-10
-1.76624250191e-10
-1.84340705913e-10
-1.92300800833e-10
-2.00506569896e-10
-2.0895943893e-10
-2.17660080304e-10
-2.26608224306e-10
-2.35802410687e-10
-2.45239659503e-10
-2.54915033947e-10
-2.64821060406e-10
-2.74946963797e-10
-2.85277671904e-10
-2.95792546584e-10
-3.06463822523e-10
-3.17254792623e-10
-3.28117897342e-10
-3.38993080122e-10
-3.49807072403e-10
-3.60474615731e-10
-3.70902812366e-10
-4.17239367365e-13
-1.25313537139e-12
-2.09354048219e-12
-2.94176530235e-12
-3.80094833088e-12
-4.67424021734e-12
-5.56480810673e-12
-6.47583988209e-12
-7.4105482023e-12
-8.37217432024e-12
-9.36399169783e-12
-1.03893094379e-11
-1.14514755452e-11
-1.25538800218e-11
-1.36999577927e-11
-1.4893191458e-11
-1.61371138585e-11
-1.74353104469e-11
-1.87914214511e-11
-2.02091438177e-11
-2.16922329239e-11
-2.32445040462e-11
-2.48698335723e-11
-2.65721599466e-11
-2.8355484337e-11
-3.0223871011e-11
-3.21814474113e-11
-3.42324039191e-11
-3.63809932947e-11
-3.86315297836e-11
-4.09883878778e-11
-4.34560007202e-11
-4.6038858141e-11
-4.87415043114e-11
-5.15685350037e-11
-5.45245944389e-11
-5.7614371709e-11
-6.08425967499e-11
-6.42140358458e-11
-6.77334866364e-11
-7.14057725958e-11
-7.52357369445e-11
-7.92282359493e-11
-8.33881315533e-11
-8.77202832691e-11
-9.22295392503e-11
-9.69207264376e-11
-1.01798639653e-10
-1.06868029482e-10
-1.12133588751e-10
-1.17599937358e-10
-1.23271605144e-10
-1.29153012442e-10
-1.35248447816e-10
-1.41562042388e-10
-1.48097740011e-10
-1.54859262297e-10
-1.61850067279e-10
-1.69073300111e-10
-1.76531733738e-10
-1.84227696858e-10
-1.92162985678e-10
-2.0033875486e-10
-2.08755381644e-10
-2.17412295225e-10
-2.26307761079e-10
-2.35438606852e-10
-2.44799872779e-10
-2.54384365398e-10
-2.64182089188e-10
-2.74179527693e-10
-2.84358746042e-10
-2.94696294456e-10
-3.05161914152e-10
-3.15717093329e-10
-3.26313606679e-10
-3.36892316651e-10
-3.47382739739e-10
-3.57704194095e-10
-3.67769679761e-10
-4.17256974949e-13
-1.25319003492e-12
-2.09363718636e-12
-2.94191088798e-12
-3.80115023213e-12
-4.67450562868e-12
-5.56514357068e-12
-6.47625115699e-12
-7.41104027907e-12
-8.37275150331e-12
-9.36465770439e-12
-1.03900674935e-11
-1.14523284667e-11
-1.25548302844e-11
-1.37010075817e-11
-1.48943427046e-11
-1.6138368262e-11
-1.74366694829e-11
-1.87928863669e-11
-2.02107156149e-11
-2.16939123273e-11
-2.32462914579e-11
-2.48717290112e-11
-2.65741629694e-11
-2.8357593939e-11
-3.02260855031e-11
-3.21837642694e-11
-3.42348196001e-11
-3.63835030124e-11
-3.86341272372e-11
-4.09910649225e-11
-4.34587469689e-11
-4.60416604811e-11
-4.87443463211e-11
-5.15713962437e-11
-5.4527449597e-11
-5.76171895621e-11
-6.08453389085e-11
-6.42166552326e-11
-6.77359256433e-11
-7.14079608515e-11
-7.52375886096e-11
-7.92296464393e-11
-8.33889735685e-11
-8.77204019854e-11
-9.22287464937e-11
-9.69187936302e-11
-1.01795289272e-10
-1.06862924723e-10
-1.12126321025e-10
-1.17590011171e-10
-1.23258419834e-10
-1.29135840126e-10
-1.352264068e-10
-1.4153406515e-10
-1.48062534699e-10
-1.54815266543e-10
-1.61795392922e-10
-1.6900566726e-10
-1.76448392433e-10
-1.84125334477e-10
-1.92037618207e-10
-2.00185600305e-10
-2.08568714269e-10
-2.17185280226e-10
-2.26032270848e-10
-2.3510502263e-10
-2.44396879597e-10
-2.53898754314e-10
-2.6359858947e-10
-2.73480702962e-10
-2.83525001813e-10
-2.93706057197e-10
-3.03992046936e-10
-3.14343596405e-10
-3.24712589438e-10
-3.35041092005e-10
-3.45260675307e-10
-3.55292749449e-10
-3.65051211808e-10
-4.17288866682e-13
-1.25328835292e-12
-2.09380886737e-12
-2.94216490327e-12
-3.80149571928e-12
-4.67495093223e-12
-5.56569594305e-12
-6.47691679026e-12
-7.41182445745e-12
-8.37365877553e-12
-9.36569203779e-12
-1.03912323995e-11
-1.14536270986e-11
-1.25562655101e-11
-1.37025820365e-11
-1.48960588264e-11
-1.61402283111e-11
-1.74386755487e-11
-1.87950403616e-11
-2.02130192545e-11
-2.16963671008e-11
-2.3248898583e-11
-2.48744893749e-11
-2.65770770529e-11
-2.8360661724e-11
-3.02293063563e-11
-3.21871368015e-11
-3.42383414941e-11
-3.63871708164e-11
-3.86379361132e-11
-4.09950083432e-11
-4.34628163508e-11
-4.6045844742e-11
-4.87486313446e-11
-5.15757642327e-11
-5.45318782908e-11
-5.7621651291e-11
-6.08497994486e-11
-6.42210724204e-11
-6.77402476989e-11
-7.14121243482e-11
-7.52415160154e-11
-7.92332431401e-11
-8.33921242641e-11
-8.77229663253e-11
-9.22305537944e-11
-9.69196364813e-11
-1.01794915801e-10
-1.0686102924e-10
-1.12122532717e-10
-1.17583880444e-10
-1.23249401833e-10
-1.29123274871e-10
-1.35209495277e-10
-1.41511840573e-10
-1.48033828059e-10
-1.54778665397e-10
-1.61749192274e-10
-1.68947811243e-10
-1.76376405433e-10
-1.84036240312e-10
-1.91927846091e-10
-2.00050876598e-10
-2.08403939663e-10
-2.16984393054e-10
-2.2578809899e-10
-2.34809129257e-10
-2.44039412029e-10
-2.53468311102e-10
-2.63082128546e-10
-2.7286352336e-10
-2.8279084192e-10
-2.9283736054e-10
-3.02970444678e-10
-3.13150628481e-10
-3.2333060465e-10
-3.3345408505e-10
-3.43454486244e-10
-3.53253610217e-10
-3.6276153581e-10
-4.17333370747e-13
-1.25342596012e-12
-2.09404992601e-12
-2.94252171416e-12
-3.80197974453e-12
-4.67557186414e-12
-5.56646172846e-12
-6.47783396101e-12
-7.41289848294e-12
-8.3748943514e-12
-9.36709330146e-12
-1.03928030854e-11
-1.14553706481e-11
-1.25581851482e-11
-1.37046808237e-11
-1.48983396913e-11
-1.61426940675e-11
-1.74413288998e-11
-1.87978838916e-11
-2.02160554095e-11
-2.1699598158e-11
-2.32523266076e-11
-2.4878116165e-11
-2.65809040693e-11
-2.83646900034e-11
-3.02335364061e-11
-3.21915684714e-11
-3.42429738218e-11
-3.63920018408e-11
-3.86429626499e-11
-4.1000225714e-11
-4.34682180582e-11
-4.60514220763e-11
-4.8754372911e-11
-5.15816553803e-11
-5.45379004236e-11
-5.76277810354e-11
-6.08560076474e-11
-6.42273229174e-11
-6.77464958678e-11
-7.14183153137e-11
-7.52475825012e-11
-7.92391028641e-11
-8.33976767865e-11
-8.77280892353e-11
-9.22350980958e-11
-9.69234210122e-11
-1.01797720486e-10
-1.06862586936e-10
-1.12122519366e-10
-1.17581903189e-10
-1.23244984698e-10
-1.29115841519e-10
-1.35198348286e-10
-1.4149613659e-10
-1.48012548067e-10
-1.54750579265e-10
-1.61712816641e-10
-1.68901359739e-10
-1.76317730196e-10
-1.83962763832e-10
-1.91836482551e-10
-1.99937942313e-10
-2.08265052848e-10
-2.16814364317e-10
-2.25580815703e-10
-2.34557439597e-10
-2.43735018327e-10
-2.5310168739e-10
-2.62642484174e-10
-2.7233884316e-10
-2.82168042926e-10
-2.92102613496e-10
-3.02109709863e-10
-3.12150436108e-10
-3.22179038324e-10
-3.32141728981e-10
-3.41974621457e-10
-3.51599972978e-10
-3.60920620386e-10
-4.17387896107e-13
-1.25359633953e-12
-2.09435268831e-12
-2.94297428092e-12
-3.80259650738e-12
-4.67636385454e-12
-5.567437381e-12
-6.47899992456e-12
-7.41426022881e-12
-8.37645658433e-12
-9.3688602287e-12
-1.03947785922e-11
-1.14575584122e-11
-1.25605887151e-11
-1.37073036542e-11
-1.49011851889e-11
-1.6145765592e-11
-1.74446297674e-11
-1.88014173652e-11
-2.02198246783e-11
-2.17036063075e-11
-2.32565765794e-11
-2.48826107056e-11
-2.65856456664e-11
-2.8369680809e-11
-3.02387781424e-11
-3.21970623189e-11
-3.42487202846e-11
-3.63980005852e-11
-3.86492123117e-11
-4.1006723667e-11
-4.34749601369e-11
-4.6058402243e-11
-4.87615828558e-11
-5.15890840397e-11
-5.45455334011e-11
-5.76355999025e-11
-6.08639891015e-11
-6.42354377638e-11
-6.77547077916e-11
-7.14265793949e-11
-7.52558434202e-11
-7.92472927319e-11
-8.34057125213e-11
-8.77358693897e-11
-9.2242499022e-11
-9.69302922255e-11
-1.01803879063e-10
-1.06867810752e-10
-1.12126538929e-10
-1.17584391802e-10
-1.23245546607e-10
-1.29113997666e-10
-1.3519351921e-10
-1.41487621955e-10
-1.47999502223e-10
-1.5473198217e-10
-1.61687439433e-10
-1.6886772419e-10
-1.762740613e-10
-1.83906934869e-10
-1.91765952165e-10
-1.99849683534e-10
-2.08155474663e-10
-2.16679227439e-10
-2.25415145817e-10
-2.34355443722e-10
-2.43490013298e-10
-2.5280605412e-10
-2.62287667526e-10
-2.71915425313e-10
-2.81665928148e-10
-2.91511374297e-10
-3.01419157539e-10
-3.11351487961e-10
-3.21264938832e-10
-3.31109565736e-10
-3.4082659781e-10
-3.5034230694e-10
-3.59553714228e-10
-4.17448127141e-13
-1.25378904578e-12
-2.09470625238e-12
-2.94351376458e-12
-3.80333945481e-12
-4.67732215554e-12
-5.56861944337e-12
-6.48041212714e-12
-7.41590778216e-12
-8.37834402907e-12
-9.37099172742e-12
-1.03971581041e-11
-1.14601897999e-11
-1.25634758092e-11
-1.37104502919e-11
-1.49045952346e-11
-1.6149442944e-11
-1.74485783542e-11
-1.8805641133e-11
-2.02243275702e-11
-2.17083922342e-11
-2.32616493824e-11
-2.48879741107e-11
-2.65913032283e-11
-2.83756358441e-11
-3.02450336497e-11
-3.22036208855e-11
-3.4255583974e-11
-3.64051708049e-11
-3.86566896559e-11
-4.10145077297e-11
-4.34830492895e-11
-4.60667933685e-11
-4.87702710309e-11
-5.15980621549e-11
-5.45547917038e-11
-5.7645125449e-11
-6.08737650974e-11
-6.42454427697e-11
-6.77649147656e-11
-7.14369545381e-11
-7.52663447825e-11
-7.92578685292e-11
-8.34162991025e-11
-8.77463887812e-11
-9.22528559614e-11
-9.69403705789e-11
-1.018135375e-10
-1.06876877525e-10
-1.12134805581e-10
-1.17591605588e-10
-1.23251401368e-10
-1.2911812288e-10
-1.35195466862e-10
-1.41486850834e-10
-1.47995359217e-10
-1.54723680052e-10
-1.61674030626e-10
-1.68848069964e-10
-1.76246795895e-10
-1.83870424118e-10
-1.91718246398e-10
-1.99788464876e-10
-2.0807799942e-10
-2.16582265143e-10
-2.25294917855e-10
-2.34207566381e-10
-2.43309452833e-10
-2.52587105233e-10
-2.62023971936e-10
-2.71600054414e-10
-2.8129156436e-10
-2.91070642208e-10
-3.00905183943e-10
-3.10758820736e-10
-3.20591045866e-10
-3.30357266851e-10
-3.40007780403e-10
-3.49482033517e-10
-3.58686410118e-10
-4.17506420483e-13
-1.25398606697e-12
-2.09509486619e-12
-2.94412937594e-12
-3.80420158285e-12
-4.67844216623e-12
-5.57000479145e-12
-6.48206837159e-12
-7.41783955294e-12
-8.38055551347e-12
-9.37348692798e-12
-1.03999409815e-11
-1.14632643539e-11
-1.25668461248e-11
-1.3714120563e-11
-1.49085697738e-11
-1.61537261817e-11
-1.74531748301e-11
-1.88105554803e-11
-2.02295644939e-11
-2.17139564834e-11
-2.32675457163e-11
-2.48942072584e-11
-2.65978778418e-11
-2.83825564428e-11
-3.02523045568e-11
-3.22112461531e-11
-3.42635672968e-11
-3.64135154192e-11
-3.86653982211e-11
-4.10235821903e-11
-4.34924907116e-11
-4.60766017475e-11
-4.87804450635e-11
-5.1608598968e-11
-5.45656865322e-11
-5.76563712501e-11
-6.088535209e-11
-6.42573578819e-11
-6.77771409712e-11
-7.14494700587e-11
-7.52791221281e-11
-7.92708733413e-11
-8.34294887604e-11
-8.77597107211e-11
-9.22662456486e-11
-9.6953749062e-11
-1.01826808462e-10
-1.06889923727e-10
-1.12147484581e-10
-1.17603744583e-10
-1.23262791004e-10
-1.29128509814e-10
-1.35204544861e-10
-1.41494250148e-10
-1.48000633923e-10
-1.54726293064e-10
-1.61673336013e-10
-1.68843292242e-10
-1.76237005984e-10
-1.83854511704e-10
-1.91694888631e-10
-1.99756091547e-10
-2.08034755212e-10
-2.16525970172e-10
-2.25223028659e-10
-2.34117140916e-10
-2.43197124951e-10
-2.52449076903e-10
-2.6185603539e-10
-2.71397662272e-10
-2.81049975335e-10
-2.90785187348e-10
-3.00571734123e-10
-3.10374617524e-10
-3.20156255406e-10
-3.29878108428e-10
-3.39503263491e-10
-3.48998602207e-10
-3.5832402862e-10
-4.17548653641e-13
-1.25415373051e-12
-2.09549618232e-12
-2.94480911862e-12
-3.80517631476e-12
-4.67972002129e-12
-5.5715909834e-12
-6.48396702009e-12
-7.42005439351e-12
-8.38309021114e-12
-9.37634522878e-12
-1.04031267895e-11
-1.146678177e-11
-1.25706994649e-11
-1.37183143627e-11
-1.49131087848e-11
-1.61586153622e-11
-1.74584193298e-11
-1.88161606217e-11
-2.02355357493e-11