/*--------------------------------*- C++ -*----------------------------------*\
| =========                 |                                                 |
| \\      /  F ield         | OpenFOAM: The Open Source CFD Toolbox           |
|  \\    /   O peration     | Version:  2106                                  |
|   \\  /    A nd           | Website:  www.openfoam.com                      |
|    \\/     M anipulation  |                                                 |
\*---------------------------------------------------------------------------*/
FoamFile
{
    version     2.0;
    format      ascii;
    arch        "LSB;label=32;scalar=64";
    class       volScalarField;
    location    "0.28";
    object      p;
}
// * * * * * * * * * * * * * * * * * * * * * * * * * * * * * * * * * * * * * //

dimensions      [0 2 -2 0 0 0 0];

internalField   nonuniform List<scalar> 
9600
(
2.24724457106
-0.650763799627
-1.55499760816
-1.94060748639
-2.15993889412
-2.29988217472
-2.40378739237
-2.49133676766
-2.57083583591
-2.6462256348
-2.71959905865
-2.79210750086
-2.8643807002
-2.9367493788
-3.00937000289
-3.08229823373
-3.15553396865
-3.2290489207
-3.30280287356
-3.37675304927
-3.45085875536
-3.5250856103
-3.59940314571
-3.67378710927
-3.74821822824
-3.82268142924
-3.89716503943
-3.97166011438
-4.04615981213
-4.12065886376
-4.19515318835
-4.26963955181
-4.34411528842
-4.41857808449
-4.49302583269
-4.56745655159
-4.64186829489
-4.71625910522
-4.79062701572
-4.86496997526
-4.93928575024
-5.01357187548
-5.08782561339
-5.16204416417
-5.23622445998
-5.31036326498
-5.38445710457
-5.45850221927
-5.53249449968
-5.60642950025
-5.68030244988
-5.75410825456
-5.82784149292
-5.90149639639
-5.97506678997
-6.04854605352
-6.12192709965
-6.19520231845
-6.26836359265
-6.34140228208
-6.41430911925
-6.48707414283
-6.55968674611
-6.6321357039
-6.70440907081
-6.77649412472
-6.8483774056
-6.92004469901
-6.99148095279
-7.06267021147
-7.13359558284
-7.20423917261
-7.27458201118
-7.34460399259
-7.41428387123
-7.48359932594
-7.55252694848
-7.62104209563
-7.68911877727
-7.75672966601
-7.8238460961
-7.89043798979
-7.9564737824
-8.02192036703
-8.08674303859
-8.15090549118
-8.21436988193
-8.27709679427
-8.33904504284
-8.40017156555
-8.46043150477
-8.51977824285
-8.57816331686
-8.63553638203
-8.69184520601
-8.74703562472
-8.80105148609
-8.85383464906
-8.90532507872
-8.95546081931
-9.00417784212
-9.05141001604
-9.09708918538
-9.14114524274
-9.18350618984
-9.22409801672
-9.26284460076
-9.29966797755
-9.33448851859
-9.36722485478
-9.39779374289
-9.42611015056
-9.45208739751
-9.47563725109
-9.4966698312
-9.51509375134
-9.53081634461
-9.54374372783
-9.55378086901
-9.56083163771
-9.56479870149
-9.5655839601
-9.56308879155
-9.55721362495
-9.5478582475
-9.53492302195
-9.51830594278
-9.49790566814
-9.47361999384
-9.44534696427
-9.41298415313
-9.37642874281
-9.33557753364
-9.2903266252
-9.24057136693
-9.18620569935
-9.12712199372
-9.06321071244
-8.99435890206
-8.92044925404
-8.84135930304
-8.75695955857
-8.6671111062
-8.57166241561
-8.47044606358
-8.36327373962
-8.24992848165
-8.13015617759
-8.00365310593
-7.8700471023
-7.72886924591
-7.57951056102
-7.42115070041
-7.25263043547
-7.07223704121
-6.87738971483
-6.664154915
-6.42670999885
-6.16570909574
-5.94329387245
0.335702323997
-0.84664897823
-1.45532527455
-1.80934950603
-2.05196592561
-2.22252949914
-2.35060144378
-2.45510378271
-2.5461789253
-2.62945704186
-2.7082295591
-2.78444641399
-2.8592671438
-2.93337973228
-3.00718603265
-3.08091257518
-3.15467900427
-3.22854114317
-3.30251772083
-3.37660708529
-3.45079765312
-3.52507294098
-3.59941631694
-3.67381240253
-3.74824756456
-3.8227103563
-3.89719136736
-3.97168299392
-4.04617915308
-4.12067497214
-4.19516655683
-4.26965073457
-4.34412481455
-4.41858641888
-4.4930333569
-4.56746357213
-4.64187509888
-4.7162659734
-4.7906341857
-4.86497762528
-4.93929399727
-5.01358078864
-5.08783530996
-5.16205464201
-5.23623581458
-5.310375607
-5.38447049642
-5.45851670537
-5.53251014077
-5.60644637672
-5.68032064805
-5.75412788709
-5.82786267595
-5.90151925167
-5.97509145052
-6.04857265432
-6.12195578123
-6.19523324032
-6.26839691131
-6.34143812798
-6.41434762638
-6.48711547378
-6.55973107236
-6.63218318875
-6.70445990138
-6.77654853068
-6.84843562151
-6.92010695
-6.9915474857
-7.06274131546
-7.13367154471
-7.20432023948
-7.27466841644
-7.34469600628
-7.41438180479
-7.48370350224
-7.55263769558
-7.62115975364
-7.68924369322
-7.75686219629
-7.82398661568
-7.89058688317
-7.95663143646
-8.02208718729
-8.08691946037
-8.15109196358
-8.21456684948
-8.27730469952
-8.33926432869
-8.4004026548
-8.46067480347
-8.52003421736
-8.57843255398
-8.63581950605
-8.6921427147
-8.74734787808
-8.80137892089
-8.85417789766
-8.90568478982
-8.9558375091
-9.00457200538
-9.05182218686
-9.09751991878
-9.14159503415
-9.18397551814
-9.22458746415
-9.26335479143
-9.30019943699
-9.33504165469
-9.36779999125
-9.398391158
-9.42673023496
-9.4527305859
-9.47630386664
-9.49736019791
-9.51580826396
-9.53155541947
-9.54450773397
-9.55457012782
-9.56164664684
-9.56564011003
-9.56645218479
-9.56398420956
-9.55813687586
-9.5488098387
-9.53590153643
-9.51931195981
-9.49893992249
-9.47468409879
-9.44644304375
-9.41411500779
-9.37759778864
-9.33678915625
-9.2915864358
-9.24188630673
-9.18758442131
-9.12857534053
-9.06475250233
-8.99600665448
-8.92222460794
-8.84328897957
-8.75907701557
-8.66945868081
-8.57429361472
-8.47342825393
-8.36669273406
-8.25389495169
-8.13481365938
-8.00918972534
-7.87671509822
-7.73701608233
-7.58963036771
-7.4339806361
-7.26933795201
-7.09479179481
-6.90930678947
-6.71193642494
-6.50163294595
-6.27846861429
-6.06401516656
-0.640140202488
-1.12150503624
-1.51276513586
-1.80438158795
-2.02595512277
-2.19389111343
-2.32599301825
-2.4357813189
-2.53163937401
-2.61878362473
-2.70052549788
-2.77895983447
-2.85540717172
-2.93069691389
-3.00534505293
-3.07966684048
-3.15384931786
-3.22799869063
-3.30217094568
-3.37639164863
-3.45066864849
-3.52499983504
-3.5993784164
-3.67379596773
-3.74824366929
-3.82271333609
-3.89719774715
-3.97169071359
-4.04618704992
-4.12068244736
-4.19517334874
-4.26965677547
-4.34413015283
-4.41859117574
-4.49303767591
-4.56746758565
-4.64187893975
-4.71626977988
-4.79063807214
-4.8649816557
-4.93929819767
-5.01358517172
-5.08783989
-5.16205948866
-5.23624098295
-5.31038116116
-5.38447651872
-5.4585232416
-5.53251721274
-5.60645400995
-5.68032884251
-5.75413668677
-5.82787215665
-5.90152950062
-5.97510255894
-6.0485846973
-6.12196882235
-6.19524735659
-6.26841217996
-6.3414545809
-6.41436526444
-6.4871343287
-6.55975120354
-6.63220465368
-6.70448278284
-6.77657297026
-6.84846178557
-6.92013498222
-6.99157749931
-7.06277340753
-7.13370581217
-7.204356789
-7.2747073578
-7.34473745788
-7.41442592118
-7.48375045711
-7.55268763295
-7.62121278958
-7.68929995288
-7.75692182898
-7.82404979458
-7.89065380153
-7.95670227945
-8.02216211399
-8.08699865291
-8.15117566383
-8.2146552805
-8.27739799603
-8.33936261546
-8.40050612596
-8.46078366936
-8.52014865927
-8.57855278153
-8.63594580047
-8.69227537084
-8.74748711666
-8.80152490563
-8.85433082642
-8.90584489094
-8.95600493823
-9.00474688173
-9.05200462331
-9.0977101002
-9.1417931909
-9.18418178394
-9.22480189694
-9.26357754749
-9.30043079788
-9.33528189312
-9.36804933299
-9.39865007823
-9.42699925697
-9.45301017205
-9.47659442898
-9.49766211034
-9.51612188936
-9.53188118127
-9.5448461506
-9.55492170308
-9.56201191992
-9.56601983486
-9.56684721331
-9.56439534494
-9.55856514294
-9.54925695791
-9.53637037243
-9.51980483419
-9.49945935986
-9.47523267297
-9.44702362673
-9.41473110682
-9.37825374167
-9.33749022273
-9.29233896006
-9.24269806468
-9.18846508533
-9.1295366232
-9.06580859775
-8.99717536275
-8.923528366
-8.8447556587
-8.76074094409
-8.67136265975
-8.57649165213
-8.47598817525
-8.36970028052
-8.25745999521
-8.13907799428
-8.01433800107
-7.88299139398
-7.74475002634
-7.59927754399
-7.44618677676
-7.28504498328
-7.11540621737
-6.93692818826
-6.74965326747
-6.55413490315
-6.35149773675
-6.15015920766
-1.1916004735
-1.37794409384
-1.62039200262
-1.84286062532
-2.03005141282
-2.18407911824
-2.31251649067
-2.42280679937
-2.52060072777
-2.60996029481
-2.69373118873
-2.77385784981
-2.85164788072
-2.92797022101
-3.0033950871
-3.07829105824
-3.15289176509
-3.22734167849
-3.30172708939
-3.37609695955
-3.45047680257
-3.5248778252
-3.59930347416
-3.6737517259
-3.74821916888
-3.82270122734
-3.89719317037
-3.97169051185
-4.04618921223
-4.12068573293
-4.19517701765
-4.26966041013
-4.34413354297
-4.41859424976
-4.49304046561
-4.56747017821
-4.64188143345
-4.71627227042
-4.79064063527
-4.86498434013
-4.9393010169
-5.01358813122
-5.08784300492
-5.16206279651
-5.23624450489
-5.31038491468
-5.38448051245
-5.45852747294
-5.53252168019
-5.60645867548
-5.68033377086
-5.75414194335
-5.82787782835
-5.90153567671
-5.97510931532
-6.0485920898
-6.1219768799
-6.19525612499
-6.26842169454
-6.34146483308
-6.41437620589
-6.48714592743
-6.55976348515
-6.63221768914
-6.70449667296
-6.77658782635
-6.84847773255
-6.92015212875
-6.99159590098
-7.06279306451
-7.13372674141
-7.20437906808
-7.27473107472
-7.34476268537
-7.41445275398
-7.48377901084
-7.55271798911
-7.62124499868
-7.68933408478
-7.75695797355
-7.82408804235
-7.89069426602
-7.95674510173
-8.02220742284
-8.0870465643
-8.15122631311
-8.21470878566
-8.27745440165
-8.33942194975
-8.40056849813
-8.4608492658
-8.52021767471
-8.57862537524
-8.63602211089
-8.69235557544
-8.74757144534
-8.80161356413
-8.85442396035
-8.90594266468
-8.95610762838
-9.00485465527
-9.05211764427
-9.09782859001
-9.14191744472
-9.18431204597
-9.22493830552
-9.26372029392
-9.30058016778
-9.33543815645
-9.3682126811
-9.39882052898
-9.42717684518
-9.45319506008
-9.47678683545
-9.49786229599
-9.51633013969
-9.53209782158
-9.54507161731
-9.55515647183
-9.56225636194
-9.56627447263
-9.56711286841
-9.56467284199
-9.55885539043
-9.54956101655
-9.5366895948
-9.52014085215
-9.49981449216
-9.47560985791
-9.44742621644
-9.41516315278
-9.37872035203
-9.33799761262
-9.292894534
-9.24331082138
-9.18914636886
-9.13030039446
-9.06667148294
-8.99815761826
-8.92465523871
-8.84605843166
-8.76225798709
-8.67314121305
-8.57859070026
-8.47848161262
-8.37268067515
-8.26104416315
-8.14341514258
-8.019620499
-7.88946880469
-7.75275070822
-7.60923981274
-7.45870106142
-7.30091211053
-7.1357057706
-6.96305749086
-6.78324649946
-6.59692062503
-6.40496109428
-6.2104895471
-1.52894528595
-1.58070699805
-1.72460195696
-1.8888958081
-2.04322897419
-2.1812865694
-2.30344004988
-2.4122281542
-2.51067162414
-2.60150126417
-2.6869087921
-2.76854685786
-2.84761711973
-2.9249712821
-3.00120084997
-3.07670947123
-3.15176782157
-3.22655410184
-3.30118313867
-3.37572700479
-3.45022942559
-3.52471568369
-3.59919958182
-3.67368693541
-3.74818029766
-3.82267923209
-3.89718189847
-3.97168584201
-4.0461884279
-4.12068708683
-4.19517942665
-4.26966323723
-4.34413643138
-4.41859702126
-4.49304308062
-4.56747268469
-4.64188390593
-4.71627477239
-4.7906432104
-4.86498701076
-4.93930379239
-5.0135910213
-5.08784604206
-5.16206603386
-5.23624798947
-5.31038868463
-5.38448460156
-5.45853190232
-5.53252645187
-5.60646382293
-5.68033932865
-5.75414796613
-5.82788438632
-5.90154283502
-5.97511712265
-6.04860058749
-6.12198611079
-6.19526610069
-6.2684324204
-6.34147631642
-6.41438844244
-6.48715891713
-6.55977727585
-6.63223238385
-6.70451239052
-6.77660468211
-6.84849583719
-6.92017157241
-6.99161673001
-7.06281530048
-7.13375042615
-7.20440428201
-7.27475792216
-7.34479127961
-7.41448320799
-7.48381142742
-7.55275246289
-7.62128163019
-7.6893729767
-7.7569992082
-7.82413169669
-7.89074045594
-7.95679398478
-8.0222591458
-8.08710122684
-8.15128401031
-8.21476966109
-8.27751859918
-8.33948953926
-8.40063954708
-8.46092396329
-8.52029626467
-8.57870798543
-8.63610877021
-8.69244638428
-8.74766662851
-8.80171332304
-8.85452836764
-8.90605174429
-8.95622141965
-9.00497325057
-9.05224110724
-9.09795697001
-9.14205085142
-9.18445063506
-9.22508219612
-9.26386956489
-9.30073491088
-9.33559851712
-9.36837893762
-9.39899299316
-9.42735578357
-9.45338066581
-9.47697928366
-9.49806181298
-9.51653704264
-9.53231247837
-9.5452945293
-9.55538822971
-9.56249742004
-9.56652533275
-9.56737430854
-9.56494591841
-9.55914127596
-9.54986117402
-9.53700576287
-9.52047500402
-9.50016907556
-9.47598793662
-9.44783139468
-9.4155997914
-9.37919392729
-9.33851482906
-9.29346340955
-9.24394094432
-9.18984969275
-9.13109192371
-9.0675694227
-8.99918390309
-8.92583662355
-8.84742796654
-8.76385649948
-8.67501860762
-8.58080852562
-8.48111662709
-8.37582833829
-8.26482340102
-8.14797545598
-8.02515125891
-7.89621086655
-7.76101196834
-7.61941518818
-7.47129657716
-7.31657039718
-7.15522209156
-6.98735911455
-6.8132690352
-6.63338162609
-6.44802255954
-6.25781963363
-1.7330188223
-1.72803987425
-1.8120148279
-1.93280446313
-2.05944784147
-2.18212746476
-2.29702390809
-2.40321982246
-2.50150239078
-2.5932911213
-2.68005197836
-2.76306729398
-2.84337164563
-2.92175861237
-2.99881604596
-3.07496843114
-3.15051594974
-3.22566697456
-3.30056354071
-3.37530067669
-3.44994070565
-3.52452352005
-3.59907391964
-3.67360718897
-3.74813111932
-3.82265022355
-3.89716592148
-3.97167804707
-4.04618558441
-4.12068709366
-4.19518096152
-4.26966550614
-4.34413898206
-4.41859961336
-4.49304561493
-4.56747515497
-4.64188633975
-4.71627720149
-4.79064565423
-4.86498947925
-4.93930629707
-5.01359357999
-5.08784868322
-5.16206880699
-5.23625094219
-5.31039183784
-5.38448795215
-5.4585354295
-5.53253014144
-5.60646770631
-5.68034346899
-5.75415245594
-5.82788930511
-5.90154822012
-5.97512298958
-6.04860697698
-6.1219930717
-6.19527364491
-6.26844052832
-6.34148497494
-6.41439764841
-6.48716867536
-6.55978763421
-6.63224344088
-6.70452425642
-6.77661744982
-6.84850956045
-6.92018626284
-6.99163238394
-7.06283194733
-7.13376813139
-7.20442312374
-7.27477798698
-7.34481265473
-7.41450597404
-7.48383566237
-7.5527782317
-7.62130896801
-7.68940191142
-7.75702980402
-7.82416404689
-7.89077464655
-7.95683011279
-8.02229735392
-8.08714165507
-8.15132673049
-8.21481471164
-8.27756604757
-8.33953947848
-8.40069207305
-8.46097920141
-8.52035440967
-8.57876924901
-8.63617329428
-8.69251427114
-8.74773802577
-8.80178841241
-8.85460727478
-8.90613453822
-8.95630821627
-9.00506427411
-9.05233657078
-9.09805699954
-9.14215554302
-9.18456017053
-9.22519679417
-9.2639893873
-9.30086007675
-9.33572916408
-9.36851527251
-9.39913523989
-9.42750411429
-9.45353523555
-9.47714026377
-9.49822945891
-9.51671171153
-9.53249456002
-9.54548449162
-9.55558667449
-9.562705014
-9.56674266957
-9.56760225162
-9.56518556822
-9.55939391303
-9.55012833529
-9.53728938473
-9.52077734084
-9.50049266798
-9.47633593493
-9.44820772859
-9.41600917906
-9.37964203234
-9.33900857998
-9.29401135703
-9.24455331224
-9.19053870903
-9.13187271498
-9.06846063156
-9.00020800962
-8.92702062175
-8.84880488407
-8.76546711199
-8.67691254902
-8.58304632045
-8.48377293397
-8.37899531199
-8.26861470049
-8.15253121894
-8.03064513676
-7.90285892482
-7.7690819936
-7.62923732749
-7.48327392871
-7.33118387473
-7.17302179213
-7.00892839699
-6.8391330424
-6.66387924105
-6.48319327572
-6.29687822484
-1.85614707389
-1.83069100283
-1.8800501339
-1.97020994906
-2.07513510829
-2.18445740364
-2.29229379523
-2.39551711653
-2.49319056775
-2.58558068526
-2.67345206593
-2.75769620734
-2.8391517192
-2.91852978804
-2.99639755121
-3.07318937279
-3.14922828478
-3.22474900518
-3.29991873226
-3.37485446185
-3.44963670421
-3.52431990738
-3.59894021811
-3.67352140948
-3.74807756179
-3.82261810772
-3.89714773836
-3.97166866601
-4.0461815868
-4.12068626121
-4.19518189329
-4.26966734677
-4.34414123841
-4.41860201317
-4.49304802032
-4.5674775094
-4.64188862752
-4.71627942716
-4.79064783308
-4.86499162483
-4.93930842993
-5.01359572734
-5.08785087957
-5.16207110061
-5.23625338036
-5.31039444285
-5.38449072259
-5.45853836222
-5.53253326348
-5.60647108308
-5.68034717644
-5.75415655807
-5.82789383993
-5.90155318833
-5.97512836781
-6.04861275893
-6.12199928065
-6.19528030508
-6.26844764342
-6.34149254795
-6.41440570329
-6.48717725199
-6.55979678489
-6.63225324005
-6.70453479528
-6.77662880228
-6.84852174586
-6.9201992617
-6.99164620296
-7.06284664608
-7.13378377979
-7.20443978044
-7.27479573028
-7.34483158125
-7.41452616227
-7.4838571743
-7.5528011263
-7.62133328103
-7.68942766335
-7.75705705176
-7.82419288256
-7.89080514092
-7.95686231666
-8.02233135486
-8.08717756476
-8.15136461424
-8.21485460031
-8.27760801425
-8.33958364867
-8.40073856317
-8.46102808656
-8.52040576768
-8.57882320025
-8.63622996925
-8.69257375368
-8.74780035338
-8.80185363466
-8.85467546105
-8.90620574127
-8.95638249966
-9.00514176932
-9.05241744819
-9.09814138212
-9.14224349817
-9.18465181262
-9.22529230801
-9.26408895058
-9.30096387735
-9.33583739467
-9.3686281022
-9.3992528248
-9.42762657973
-9.45366272777
-9.47727302417
-9.49836782505
-9.51685609005
-9.53264538015
-9.5456421473
-9.5557517497
-9.56287822159
-9.56692476412
-9.56779411331
-9.56538836621
-9.55960891428
-9.55035704568
-9.53753378386
-9.52103978849
-9.50077574915
-9.47664281213
-9.44854251292
-9.41637682481
-9.38004822853
-9.33946013088
-9.29451691818
-9.24512350265
-9.19118592756
-9.13261179252
-9.06930975254
-9.00118931232
-8.92816075124
-8.85013592745
-8.76702819861
-8.6787513643
-8.58522057456
-8.48635260859
-8.38206573237
-8.27227999644
-8.15691778572
-8.0359063965
-7.90918117124
-7.77668956859
-7.63839737547
-7.49429907397
-7.34442843434
-7.18886822855
-7.02775839667
-6.86127926782
-6.68958824806
-6.51266983352
-6.3302968624
-1.93018858309
-1.89913937916
-1.92907001936
-1.99884244391
-2.0880108684
-2.18688776926
-2.28876651291
-2.38923840652
-2.48616469208
-2.5789107534
-2.66764788063
-2.75291440338
-2.8353595836
-2.91560729427
-2.99419607734
-3.07156259557
-3.14804643432
-3.22390376907
-3.29932329596
-3.3744412763
-3.44935442713
-3.5241302971
-3.59881532738
-3.67344117392
-3.74802721235
-3.82258770144
-3.89713030802
-3.97165945587
-4.04617743024
-4.12068511411
-4.19518246837
-4.2696688509
-4.34414320064
-4.41860416055
-4.49305019389
-4.56747962352
-4.64189064706
-4.71628134981
-4.79064967225
-4.86499339794
-4.9393101599
-5.01359745165
-5.08785264135
-5.16207294195
-5.23625533391
-5.31039651636
-5.38449291028
-5.45854066849
-5.53253572255
-5.6064737598
-5.68035013962
-5.75415984517
-5.8278974525
-5.90155711605
-5.97513259947
-6.04861728579
-6.12200411649
-6.19528547696
-6.26845316336
-6.34149842156
-6.41441196277
-6.48718395234
-6.55980397883
-6.63226097711
-6.70454312675
-6.77663775692
-6.84853131196
-6.92020941832
-6.991656968
-7.06285807657
-7.13379593772
-7.20445272529
-7.27480953397
-7.34484631437
-7.41454186907
-7.48387388453
-7.55281887271
-7.62135208662
-7.68944754426
-7.75707805394
-7.82421508666
-7.89082861641
-7.95688710182
-8.02235749844
-8.08720514646
-8.15139370034
-8.21488522838
-8.27764024095
-8.33961757974
-8.40077432155
-8.4610657524
-8.5204453844
-8.57886484934
-8.63627378251
-8.69261982892
-8.74784869597
-8.80190424122
-8.85472841822
-8.90626116865
-8.95644046731
-9.00520232721
-9.05248070205
-9.09820748212
-9.14231255171
-9.18472389408
-9.22536752349
-9.26416743087
-9.30104577456
-9.33592286513
-9.36871727242
-9.39934581322
-9.42772348292
-9.45376368197
-9.47737829686
-9.49847773736
-9.51697104636
-9.53276580298
-9.54576846196
-9.55588447161
-9.56301807348
-9.56707251116
-9.56795065974
-9.56555490219
-9.55978679039
-9.5505477358
-9.53773912689
-9.52126211537
-9.50101776066
-9.47690771155
-9.44883435724
-9.4167006011
-9.38040974606
-9.33986616112
-9.29497585004
-9.24564575696
-9.19178386515
-9.13329997934
-9.07010563784
-9.00211414677
-8.92924034306
-8.85140100335
-8.76851568768
-8.6805061912
-8.5872967496
-8.48881471732
-8.38499136172
-8.27576257757
-8.16106955682
-8.04086131472
-7.915098185
-7.78375582348
-7.6468303208
-7.5043458243
-7.35636188939
-7.20297772855
-7.0443358043
-6.88060477649
-6.7119427862
-6.53842529909
-6.36005267449
-1.97242137869
-1.94085792564
-1.96050327527
-2.01794925445
-2.09696250128
-2.18874127837
-2.28635852558
-2.38474567432
-2.48102696123
-2.57396069907
-2.66329318877
-2.74929719563
-2.83247305081
-2.91337209575
-2.99250616438
-3.07031029361
-3.14713460162
-3.22325045313
-3.2988623419
-3.37412095772
-3.44913529246
-3.52398288551
-3.59871792124
-3.67337744006
-3.74798780585
-3.82256393726
-3.89711659192
-3.97165211316
-4.04617402788
-4.12068409101
-4.19518284596
-4.26967001584
-4.34414476996
-4.41860589604
-4.49305194314
-4.56748130312
-4.64189222923
-4.71628283934
-4.79065108415
-4.86499474447
-4.93931146116
-5.01359874636
-5.08785397478
-5.16207434555
-5.23625681754
-5.31039806537
-5.3844945174
-5.45854235735
-5.53253754822
-5.60647579642
-5.6803524488
-5.75416243903
-5.82790029661
-5.90156017127
-5.97513584388
-6.04862071482
-6.1220077479
-6.19528934045
-6.26845728042
-6.34150280479
-6.4144166446
-6.48718898556
-6.5598094143
-6.63226684933
-6.7045494488
-6.7766445165
-6.84853849101
-6.9202170207
-6.99166502231
-7.06286662757
-7.13380504431
-7.20446244431
-7.27481990297
-7.34485735827
-7.41455361316
-7.48388635014
-7.55283207855
-7.62136606607
-7.68946234342
-7.75709370718
-7.82423161657
-7.89084605992
-7.95690550643
-8.02237689856
-8.08722557488
-8.15141520786
-8.21490786822
-8.27766404852
-8.33964259607
-8.40080063096
-8.46109344989
-8.5204745237
-8.5788954604
-8.63630590762
-8.69265351693
-8.74788396268
-8.80194108067
-8.85476690005
-8.90630142068
-8.95648256369
-9.00524629044
-9.05252658327
-9.09825540813
-9.14236265088
-9.18477625407
-9.22542223349
-9.26422457782
-9.30110544339
-9.33598517744
-9.36878234447
-9.39941375256
-9.42779440297
-9.45383777193
-9.47745581766
-9.49855897251
-9.51705632087
-9.53285555151
-9.54586316667
-9.55598463481
-9.56312435559
-9.56718572551
-9.56807168002
-9.56568487507
-9.55992710142
-9.5506998752
-9.53790482655
-9.5214436394
-9.50121794331
-9.47712983113
-9.44908228334
-9.41697915059
-9.38072488526
-9.34022485197
-9.29538617301
-9.24611757491
-9.1923292636
-9.13393333836
-9.07084384234
-9.00297747807
-8.93025350556
-8.85259342562
-8.76992227996
-8.68216881612
-8.58926549156
-8.49114932442
-8.38776276328
-8.27905487235
-8.16498281572
-8.04551377238
-7.92062791493
-7.79032292056
-7.65461858868
-7.51356240562
-7.36723530106
-7.21575537143
-7.05928235356
-6.89800878251
-6.73214639887
-6.56190660549
-6.38754008709
-1.9916699571
-1.96057390057
-1.97579818187
-2.02746619821
-2.10152340986
-2.18972476166
-2.28512849793
-2.38239677091
-2.47830854522
-2.57131924342
-2.66095454494
-2.74734513436
-2.83090950929
-2.91215794017
-2.99158625367
-3.06962751002
-3.14663684501
-3.22289346901
-3.2986102547
-3.37394564976
-3.44901528815
-3.52390214178
-3.59866473175
-3.67334352222
-3.74796640378
-3.8225509518
-3.89710906216
-3.97164803814
-4.04617211295
-4.12068352182
-4.19518311103
-4.26967077566
-4.34414579184
-4.41860701778
-4.49305305872
-4.56748236081
-4.64189322156
-4.7162837788
-4.79065198377
-4.86499561416
-4.93931231432
-5.01359961279
-5.0878548896
-5.16207532018
-5.23625783978
-5.31039911199
-5.38449558197
-5.45854347064
-5.53253876657
-5.60647717768
-5.68035403035
-5.75416421649
-5.82790222883
-5.90156221749
-5.97513799017
-6.04862298221
-6.12201014833
-6.19529189021
-6.26845999878
-6.34150571302
-6.41441977045
-6.48719236334
-6.55981307577
-6.63227080873
-6.70455369349
-6.77664901594
-6.84854322967
-6.92022201574
-6.99167031228
-7.06287226109
-7.13381107497
-7.20446889514
-7.27482675806
-7.3448646087
-7.41456128013
-7.48389444916
-7.55284061289
-7.62137507304
-7.68947188959
-7.75710382137
-7.82424228458
-7.89085729342
-7.95691734995
-8.02238936822
-8.08723866647
-8.1514289545
-8.21492232507
-8.27767923584
-8.33965850855
-8.4008173078
-8.46111098352
-8.52049298056
-8.57891483874
-8.63632617353
-8.69267468046
-8.74790607652
-8.80196417366
-8.85479099383
-8.90632657615
-8.95650885862
-9.00527377645
-9.05255528145
-9.09828536062
-9.1423939431
-9.18480896259
-9.22545643171
-9.26426032938
-9.3011427989
-9.33602423657
-9.36882320978
-9.39945650998
-9.42783921567
-9.4538848682
-9.47750544187
-9.4986113574
-9.51711172788
-9.53291442803
-9.54592599673
-9.55605187168
-9.56319664342
-9.56726396372
-9.56815677664
-9.56577780918
-9.56002917179
-9.55081265831
-9.53803010932
-9.52158362444
-9.50137545178
-9.47730821109
-9.44928537171
-9.41721161913
-9.38099265742
-9.34053495681
-9.29574659085
-9.24653784765
-9.19282109879
-9.13451078611
-9.07152349729
-9.00377903792
-8.93120068263
-8.85371453737
-8.7712507181
-8.6837440483
-8.59113451207
-8.49336817285
-8.39039767377
-8.28218354282
-8.16869667233
-8.04992023658
-7.92585174702
-7.79650808848
-7.66192952342
-7.52218631325
-7.37738227224
-7.22766140731
-7.07321290656
-6.914274013
-6.75113212494
-6.58412996294
-6.41371382766
-1.99167019651
-1.96057398675
-1.97579806079
-2.02746629487
-2.10152337908
-2.18972457526
-2.28512841383
-2.3823967967
-2.47830862221
-2.57131937726
-2.66095469857
-2.74734525162
-2.83090958294
-2.91215800402
-2.99158634855
-3.06962765081
-3.1466370109
-3.22289361648
-3.29861035158
-3.37394570556
-3.44901534153
-3.52390223363
-3.59866488934
-3.67334373432
-3.7479666203
-3.82255111131
-3.89710913392
-3.97164804837
-4.04617212464
-4.12068359917
-4.19518329071
-4.2696710513
-4.34414612367
-4.41860736241
-4.4930533899
-4.56748267985
-4.64189354314
-4.71628411258
-4.7906523351
-4.86499598615
-4.93931271404
-5.01360005303
-5.0878553806
-5.16207585698
-5.23625839583
-5.31039966335
-5.38449612439
-5.4585440292
-5.53253938379
-5.60647789036
-5.68035485527
-5.75416514294
-5.82790322343
-5.90156325207
-5.97513906725
-6.04862411562
-6.12201134638
-6.19529315199
-6.26846133985
-6.34150716162
-6.41442134881
-6.48719408269
-6.55981494221
-6.63227282028
-6.70455583051
-6.77665124893
-6.84854554495
-6.92022443512
-6.99167288119
-7.06287502549
-7.13381404502
-7.20447204421
-7.27483004492
-7.34486801907
-7.4145648337
-7.48389816407
-7.55284449459
-7.6213791411
-7.689476181
-7.75710835911
-7.82424707091
-7.89086233504
-7.95692265545
-8.02239492434
-8.08724445706
-8.15143498517
-8.21492860487
-8.27768576584
-8.33966528946
-8.40082435836
-8.46111834378
-8.52050067698
-8.57892285714
-8.63633446908
-8.69268323689
-8.74791496132
-8.80197345875
-8.8548006835
-8.90633666892
-8.95651938769
-9.00528479192
-9.05256679084
-9.09829735596
-9.14240645389
-9.18482202678
-9.22547008657
-9.2642746316
-9.30115780272
-9.33604001665
-9.3688398373
-9.39947408179
-9.42785793701
-9.45390495711
-9.47752710904
-9.49863478435
-9.51713718652
-9.53294231103
-9.54595677838
-9.5560859993
-9.5632347298
-9.56730693056
-9.56820555186
-9.56583329593
-9.56009259571
-9.55088566449
-9.53811459921
-9.52168174525
-9.50148988081
-9.47744233377
-9.44944321448
-9.41739788076
-9.38121302856
-9.34079631717
-9.29605704587
-9.24690700855
-9.19326038883
-9.13503392707
-9.07214706389
-9.00452255392
-8.93208714923
-8.85477145839
-8.77251075085
-8.68524566351
-8.59292310333
-8.49549751555
-8.39293140302
-8.2851962004
-8.17227529099
-8.0541664885
-7.93088406944
-7.80246335266
-7.66896488207
-7.53048200102
-7.38714426334
-7.23912695951
-7.08665752851
-6.93002384529
-6.76958630636
-6.60579186529
-6.43921547593
-1.97242196625
-1.94085819219
-1.96050300154
-2.01794950121
-2.09696237061
-2.18874074502
-2.28635826936
-2.38474571896
-2.48102719094
-2.57396111987
-2.66329365781
-2.74929754496
-2.83247326499
-2.91337227352
-2.99250641955
-3.07031066818
-3.14713504553
-3.22325085927
-3.29886262751
-3.37412113981
-3.44913546677
-3.52398316785
-3.59871839614
-3.67337807517
-3.74798845008
-3.82256441337
-3.89711681804
-3.97165216468
-4.04617408102
-4.12068432298
-4.19518336111
-4.26967079792
-4.34414571509
-4.4186068888
-4.49305291308
-4.56748225055
-4.64189319509
-4.71628385326
-4.79065215546
-4.864995875
-4.93931266782
-5.01360006887
-5.0878554466
-5.16207594765
-5.23625848305
-5.3103997285
-5.38449615706
-5.45854403595
-5.53253938888
-5.60647791479
-5.68035490084
-5.75416519459
-5.82790326242
-5.9015632706
-5.97513907638
-6.04862412969
-6.12201136363
-6.19529315982
-6.26846134293
-6.34150717706
-6.41442138234
-6.48719412706
-6.55981498751
-6.63227285505
-6.7045558368
-6.7766512066
-6.84854545019
-6.92022431341
-6.9916727678
-7.06287492339
-7.13381391962
-7.20447184774
-7.2748297416
-7.34486759128
-7.41456428394
-7.48389751021
-7.552843749
-7.62137829836
-7.68947523829
-7.75710733682
-7.82424599025
-7.89086118669
-7.95692141264
-8.02239356926
-8.08724297118
-8.15143332323
-8.21492671127
-8.27768362516
-8.33966292184
-8.40082176598
-8.4611155021
-8.52049756428
-8.57891947132
-8.6363307882
-8.69267922335
-8.74791064715
-8.80196893599
-8.85479598357
-8.90633175641
-8.95651422293
-9.00527935122
-9.05256105825
-9.09829131598
-9.14240012035
-9.18481539766
-9.2254631541
-9.26426744422
-9.30115041314
-9.33603247182
-9.36883220454
-9.39946649824
-9.42785058032
-9.45389800966
-9.47752072799
-9.49862917685
-9.51713258389
-9.5329390354
-9.54595528728
-9.55608684597
-9.5632385048
-9.56731439354
-9.56821762092
-9.56585096589
-9.56011712554
-9.55091868622
-9.53815802825
-9.52173773119
-9.50156105648
-9.47753211083
-9.44955576548
-9.41753798402
-9.38138624059
-9.34100940541
-9.29631823128
-9.24722606537
-9.19364881057
-9.13550548677
-9.07271839867
-9.00521318583
-8.93292001444
-8.85577399157
-8.7737156047
-8.68669142959
-8.59465518656
-8.49756927284
-8.39540566983
-8.28814696625
-8.17578908801
-8.05834407153
-7.93584297389
-7.80833973488
-7.67591597595
-7.53868885543
-7.39681541168
-7.25050347238
-7.10001997664
-6.94570026462
-6.78796360326
-6.6273275614
-6.46443673804
-1.93018912827
-1.89913983319
-1.92906977093
-1.99884267572
-2.08801055414
-2.18688700196
-2.28876611322
-2.38923841774
-2.48616506689
-2.57891147585
-2.66764866117
-2.75291497827
-2.83535993123
-2.91560755261
-2.99419641529
-3.07156308773
-3.14804703057
-3.22390434448
-3.29932374738
-3.37444161456
-3.44935476701
-3.52413079914
-3.59881611737
-3.6734422013
-3.74802824141
-3.82258847549
-3.89713071555
-3.97165960754
-4.04617757702
-4.12068550623
-4.19518325731
-4.26967002244
-4.34414462159
-4.41860568901