/*--------------------------------*- C++ -*----------------------------------*\
| =========                 |                                                 |
| \\      /  F ield         | OpenFOAM: The Open Source CFD Toolbox           |
|  \\    /   O peration     | Version:  2106                                  |
|   \\  /    A nd           | Website:  www.openfoam.com                      |
|    \\/     M anipulation  |                                                 |
\*---------------------------------------------------------------------------*/
FoamFile
{
    version     2.0;
    format      ascii;
    arch        "LSB;label=32;scalar=64";
    class       surfaceScalarField;
    location    "0.28";
    object      phi;
}
// * * * * * * * * * * * * * * * * * * * * * * * * * * * * * * * * * * * * * //

dimensions      [0 3 -1 0 0 0 0];

oriented        oriented;

internalField   nonuniform List<scalar> 
18840
(
3.37543041101e-05
1.62456958893e-05
2.25359627441e-05
1.12183421524e-05
1.63023782015e-05
6.23358434237e-06
1.28098251834e-05
3.49255284975e-06
1.08065799826e-05
2.0032452417e-06
9.60476919292e-06
1.20181095495e-06
8.85167846015e-06
7.53090527421e-07
8.36503045362e-06
4.86647817621e-07
8.04518586344e-06
3.19844500298e-07
7.83374168703e-06
2.11444046488e-07
7.69428177687e-06
1.39459868103e-07
7.60308017541e-06
9.12016487516e-08
7.54426533827e-06
5.88149252063e-08
7.50707707565e-06
3.71883278008e-08
7.4841890769e-06
2.28879981936e-08
7.47062344864e-06
1.35655696023e-08
7.46302080749e-06
7.60254936912e-09
7.45913794638e-06
3.88272488244e-09
7.45749814323e-06
1.63967377017e-09
7.4571450521e-06
3.53030883095e-10
7.45748244446e-06
-3.37380054256e-10
7.45813356762e-06
-6.51076692915e-10
7.45888561572e-06
-7.52005693921e-10
7.45961934549e-06
-7.33705678428e-10
7.46027583011e-06
-6.56480668311e-10
7.46083230463e-06
-5.56488545916e-10
7.46128647166e-06
-4.5420002487e-10
7.46164664327e-06
-3.60215699455e-10
7.46192575506e-06
-2.79158729429e-10
7.46213788462e-06
-2.1218597151e-10
7.46229638574e-06
-1.58564144064e-10
7.46241300649e-06
-1.1667120746e-10
7.46249758186e-06
-8.46035232794e-11
7.46255806303e-06
-6.0497662305e-11
7.46260071189e-06
-4.26792391065e-11
7.46263036373e-06
-2.97148556617e-11
7.46265069176e-06
-2.04097987487e-11
7.46266443489e-06
-1.38068555374e-11
7.46267359562e-06
-9.18158370269e-12
7.46267960457e-06
-5.99766055923e-12
7.46268348113e-06
-3.85578796693e-12
7.46268598684e-06
-2.47147072915e-12
7.46268758351e-06
-1.55383702723e-12
7.46268855086e-06
-9.11195071915e-13
7.46268918413e-06
-5.55638680561e-13
7.46268963244e-06
-3.55712466691e-13
7.46268998161e-06
-2.60530997882e-13
7.46269027965e-06
-2.31561452614e-13
7.46269055987e-06
-2.45951896811e-13
7.46269085659e-06
-2.86427358002e-13
7.46269120025e-06
-3.35985754917e-13
7.46269160916e-06
-3.80010373395e-13
7.46269208834e-06
-4.20087613495e-13
7.46269263096e-06
-4.57638819169e-13
7.46269322511e-06
-4.90954055315e-13
7.46269386365e-06
-5.15069948578e-13
7.46269454114e-06
-5.26347241819e-13
7.46269525352e-06
-5.27623270244e-13
7.46269599285e-06
-5.33019131766e-13
7.46269674732e-06
-5.56091349517e-13
7.46269751262e-06
-5.94192825191e-13
7.46269829841e-06
-6.3487783241e-13
7.46269912078e-06
-6.71613165079e-13
7.46269997881e-06
-7.12058135523e-13
7.46270085217e-06
-7.61785623656e-13
7.46270172995e-06
-8.11280785458e-13
7.46270263081e-06
-8.53860732865e-13
7.4627035811e-06
-8.97849830153e-13
7.46270457857e-06
-9.42532720884e-13
7.46270561045e-06
-9.66422427996e-13
7.46270667079e-06
-9.66638464005e-13
7.46270775101e-06
-9.71337839963e-13
7.46270883337e-06
-1.00320004765e-12
7.46270991078e-06
-1.05293898047e-12
7.46271100234e-06
-1.10030589082e-12
7.46271214084e-06
-1.1413322454e-12
7.46271334072e-06
-1.18726934344e-12
7.46271459047e-06
-1.2450301185e-12
7.46271588341e-06
-1.30213744014e-12
7.46271723421e-06
-1.33985467414e-12
7.46271865244e-06
-1.36432835252e-12
7.46272011763e-06
-1.40543050679e-12
7.4627215969e-06
-1.47113342435e-12
7.46272308229e-06
-1.53109203597e-12
7.46272459814e-06
-1.56592542248e-12
7.46272616566e-06
-1.59792605385e-12
7.4627277746e-06
-1.64945011337e-12
7.46272940666e-06
-1.70956171618e-12
7.46273107454e-06
-1.76348839814e-12
7.46273282511e-06
-1.8267412954e-12
7.46273469597e-06
-1.9249724995e-12
7.46273667288e-06
-2.03697411949e-12
7.46273872748e-06
-2.10017757737e-12
7.46274086167e-06
-2.10488674721e-12
7.46274308954e-06
-2.13509977383e-12
7.46274542307e-06
-2.27217465991e-12
7.46274785942e-06
-2.47123205686e-12
7.46275042853e-06
-2.61553065892e-12
7.46275319977e-06
-2.7102915894e-12
7.46275618427e-06
-2.87577620646e-12
7.46275938277e-06
-3.14809324539e-12
7.4627628612e-06
-3.46137477369e-12
7.4627667235e-06
-3.79777579121e-12
7.46277108845e-06
-4.21508362507e-12
7.4627760312e-06
-4.77677798775e-12
7.46278157454e-06
-5.47984832501e-12
7.46278784752e-06
-6.30646853482e-12
7.46279512932e-06
-7.29495618299e-12
7.46280376089e-06
-8.55279890106e-12
7.46281404774e-06
-1.02031975184e-11
7.46282630187e-06
-1.2258082705e-11
7.46284102347e-06
-1.4688076165e-11
7.46285886603e-06
-1.76823657489e-11
7.46288050042e-06
-2.14936434664e-11
7.46290676527e-06
-2.6269866311e-11
7.4629388136e-06
-3.21114615682e-11
7.46297814377e-06
-3.92706699685e-11
7.46302652753e-06
-4.82097023374e-11
7.46308603896e-06
-5.94027670769e-11
7.46315926091e-06
-7.32371757314e-11
7.46324954363e-06
-9.02655167739e-11
7.46336103221e-06
-1.11408457338e-10
7.46349893446e-06
-1.37864233691e-10
7.46367054838e-06
-1.71657272787e-10
7.46388596022e-06
-2.15564051806e-10
7.46414854899e-06
-2.62578456559e-10
7.46447274754e-06
-3.2400527237e-10
7.46487383343e-06
-4.00931939477e-10
7.46537041971e-06
-4.96567725022e-10
7.46598546186e-06
-6.15043219251e-10
7.46674718955e-06
-7.61738031828e-10
7.4676906274e-06
-9.43489812366e-10
7.46885920647e-06
-1.16870785952e-09
7.47030688101e-06
-1.44778640155e-09
7.47210061217e-06
-1.79378411193e-09
7.47432352254e-06
-2.22298640858e-09
7.47707892417e-06
-2.75555698397e-09
7.48049519244e-06
-3.41655171515e-09
7.48473221189e-06
-4.23734422474e-09
7.48998956934e-06
-5.25746831236e-09
7.49651650282e-06
-6.52677557545e-09
7.50462473334e-06
-8.10803286155e-09
7.51470550988e-06
-1.00806226629e-08
7.5272517158e-06
-1.25459609989e-08
7.54288646713e-06
-1.56344884829e-08
7.56240156023e-06
-1.95149707693e-08
7.58680958193e-06
-2.44080155141e-08
7.61741564349e-06
-3.06060330072e-08
7.65591865655e-06
-3.85028759976e-08
7.70455753984e-06
-4.86389162562e-08
7.7663347994e-06
-6.17774565299e-08
7.84538407649e-06
-7.90493884844e-08
7.94765068201e-06
-1.02266675635e-07
8.08238072356e-06
-1.34730056459e-07
8.26594942181e-06
-1.83568793867e-07
8.53269630381e-06
-2.66747023521e-07
8.96707210118e-06
-4.34376079914e-07
9.80581010707e-06
-8.38738500969e-07
1.1776846026e-05
-1.97103614042e-06
-5.33918232008e-06
1.71160282433e-05
5.01388814827e-05
1.61068137392e-05
4.41591294981e-05
1.71980946282e-05
3.77598739734e-05
1.26328401789e-05
3.26495146844e-05
8.60291213137e-06
2.89465820451e-05
5.70617756039e-06
2.6367603108e-05
3.7807898844e-06
2.45938850415e-05
2.52680834754e-06
2.33783979028e-05
1.70213460513e-06
2.25473233925e-05
1.15091892181e-06
2.19811564381e-05
7.77611019297e-07
2.15978041456e-05
5.22812258357e-07
2.13405412882e-05
3.48464621952e-07
2.11699438994e-05
2.29412376413e-07
2.10585362259e-05
1.48595987458e-07
2.09871851327e-05
9.42389794514e-08
2.09426215053e-05
5.81289903216e-08
2.09157068656e-05
3.45169868172e-08
2.09002069687e-05
1.93824643408e-08
2.08919194165e-05
9.92712978994e-09
2.08880542508e-05
4.21818137505e-09
2.08867846044e-05
9.32317910662e-10
2.08869496416e-05
-8.16041434851e-10
2.08878279961e-05
-1.63031023556e-09
2.08889865337e-05
-1.89223360908e-09
2.08901799593e-05
-1.8499299252e-09
2.08912805155e-05
-1.65708216963e-09
2.08922319661e-05
-1.40570796935e-09
2.08930195853e-05
-1.14793111122e-09
2.08936510946e-05
-9.10785299346e-10
2.08941448955e-05
-7.06083763567e-10
2.0894523092e-05
-5.36819090973e-10
2.08948076045e-05
-4.01225253635e-10
2.08950182266e-05
-2.95282293065e-10
2.08951718491e-05
-2.142034948e-10
2.08952823253e-05
-1.53262792521e-10
2.0895360695e-05
-1.08192374727e-10
2.08954155497e-05
-7.53436828382e-11
2.08954534207e-05
-5.17218246833e-11
2.08954791879e-05
-3.49523634068e-11
2.08954964339e-05
-2.32124128742e-11
2.0895507728e-05
-1.51115914162e-11
2.08955148944e-05
-9.60477396828e-12
2.08955193492e-05
-5.94359128939e-12
2.08955221208e-05
-3.56871391106e-12
2.08955237874e-05
-2.07345466946e-12
2.08955247256e-05
-1.15443133266e-12
2.08955252174e-05
-6.44579292045e-13
2.08955255376e-05
-4.7460531527e-13
2.08955257668e-05
-4.17991701074e-13
2.08955259621e-05
-4.2555383937e-13
2.08955261782e-05
-4.82854844412e-13
2.08955264464e-05
-5.56150496368e-13
2.08955267776e-05
-6.24245027838e-13
2.08955271704e-05
-6.77524219289e-13
2.08955276246e-05
-7.13174564332e-13
2.08955281313e-05
-7.36593033427e-13
2.0895528672e-05
-7.51879580187e-13
2.08955292384e-05
-7.6298860029e-13
2.08955298244e-05
-7.78778684814e-13
2.08955304213e-05
-8.17616526123e-13
2.08955310323e-05
-8.88445691817e-13
2.08955316696e-05
-9.78605215518e-13
2.08955323373e-05
-1.07598101934e-12
2.08955330304e-05
-1.18281414342e-12
2.0895533743e-05
-1.30049093496e-12
2.08955344597e-05
-1.40939945945e-12
2.08955351804e-05
-1.48813702839e-12
2.08955359397e-05
-1.54047159443e-12
2.08955367552e-05
-1.58938159432e-12
2.08955376015e-05
-1.6449195471e-12
2.0895538451e-05
-1.70270095184e-12
2.0895539299e-05
-1.76200165779e-12
2.08955401486e-05
-1.82968747438e-12
2.08955410041e-05
-1.90874151345e-12
2.08955418726e-05
-1.98620417824e-12
2.08955427685e-05
-2.05001204753e-12
2.08955437128e-05
-2.1127053072e-12
2.08955447211e-05
-2.19626369484e-12
2.08955457888e-05
-2.2989356682e-12
2.08955469003e-05
-2.39646923356e-12
2.08955480512e-05
-2.4770845165e-12
2.08955492488e-05
-2.55948749477e-12
2.08955504866e-05
-2.66934520895e-12
2.08955517403e-05
-2.80340374416e-12
2.08955530079e-05
-2.9308319126e-12
2.0895554319e-05
-3.03790274159e-12
2.08955556891e-05
-3.15151006654e-12
2.08955571117e-05
-3.29787529142e-12
2.08955585966e-05
-3.45861920417e-12
2.08955601919e-05
-3.60303179709e-12
2.08955619688e-05
-3.74858415431e-12
2.08955639483e-05
-3.93754977077e-12
2.08955660807e-05
-4.16892045396e-12
2.089556833e-05
-4.40965325601e-12
2.08955707379e-05
-4.65610078406e-12
2.08955734203e-05
-4.95725763728e-12
2.08955764524e-05
-5.35943606075e-12
2.0895579838e-05
-5.84455838661e-12
2.08955836483e-05
-6.40410610875e-12
2.08955879996e-05
-7.1096808489e-12
2.0895592973e-05
-7.9949130624e-12
2.0895598735e-05
-9.08716621877e-12
2.08956054592e-05
-1.03926516472e-11
2.08956133712e-05
-1.19490462654e-11
2.08956227718e-05
-1.38949018843e-11
2.0895633952e-05
-1.63949071756e-11
2.08956472496e-05
-1.95181585486e-11
2.08956631399e-05
-2.32672522855e-11
2.08956822397e-05
-2.77032581801e-11
2.08957050549e-05
-3.28770386809e-11
2.0895732919e-05
-3.99788935416e-11
2.08957677556e-05
-4.95337935433e-11
2.08958107221e-05
-6.06966060499e-11
2.08958637136e-05
-7.44052899003e-11
2.08959290745e-05
-9.14389199984e-11
2.08960096325e-05
-1.1255874044e-10
2.08961089801e-05
-1.38646788809e-10
2.08962317843e-05
-1.70928508017e-10
2.08963836912e-05
-2.11002222495e-10
2.08965714548e-05
-2.6071196578e-10
2.08968035417e-05
-3.22235530368e-10
2.08970904173e-05
-3.98290372379e-10
2.08974449637e-05
-4.92319601872e-10
2.08978824057e-05
-6.08858754648e-10
2.08984206966e-05
-7.53751247035e-10
2.08990919931e-05
-9.34023200246e-10
2.08999256934e-05
-1.15767530608e-09
2.09009596739e-05
-1.43472634523e-09
2.09022411777e-05
-1.77783502437e-09
2.09038290817e-05
-2.20273269113e-09
2.0905796501e-05
-2.72898285782e-09
2.09082341525e-05
-3.38093586632e-09
2.09112543507e-05
-4.18880839835e-09
2.09149963854e-05
-5.18998571019e-09
2.09196332457e-05
-6.43095288398e-09
2.09253797866e-05
-7.9696707497e-09
2.09325029114e-05
-9.87850995984e-09
2.09413343418e-05
-1.22477869603e-08
2.09522869625e-05
-1.51901738603e-08
2.09658757848e-05
-1.88468069959e-08
2.09827441623e-05
-2.33954722159e-08
2.10036968331e-05
-2.90608132737e-08
2.1029743294e-05
-3.61274202165e-08
2.10621548589e-05
-4.49580348163e-08
2.11025387644e-05
-5.60187884416e-08
2.11529373614e-05
-6.99137739424e-08
2.12159634858e-05
-8.74343462059e-08
2.12949886102e-05
-1.09631733845e-07
2.13944133272e-05
-1.3792791283e-07
2.15200676916e-05
-1.74292873164e-07
2.16798367557e-05
-2.21546034758e-07
2.18847008553e-05
-2.83913070611e-07
2.21505802924e-05
-3.68145864826e-07
2.25018308027e-05
-4.85980667846e-07
2.29782113271e-05
-6.59949469037e-07
2.36490646583e-05
-9.37600572342e-07
2.46402775611e-05
-1.42558924184e-06
2.61716904252e-05
-2.37015104189e-06
2.85456204267e-05
-4.34496614951e-06
-8.50971300763e-06
3.1716151343e-05
5.35844265722e-05
1.25223869609e-05
5.29166008792e-05
1.78659203138e-05
4.96393016034e-05
1.59101396276e-05
4.58382173025e-05
1.24039965787e-05
4.24428745669e-05
9.10151994281e-06
3.97331592107e-05
6.49050514281e-06
3.7691245151e-05
4.5687222878e-06
3.62011666324e-05
3.19221288829e-06
3.51355932116e-05
2.21649229113e-06
3.4384844186e-05
1.52836008468e-06
3.38626587085e-05
1.04499783054e-06
3.35040064428e-05
7.0711700389e-07
3.32609624686e-05
4.72456388381e-07
3.3098720433e-05
3.10837980455e-07
3.29922903886e-05
2.00668915617e-07
3.29239191049e-05
1.26500085681e-07
3.28811290764e-05
7.73068275194e-08
3.28552503929e-05
4.52610292309e-08
3.28403338435e-05
2.48436364827e-08
3.2832353907e-05
1.21981270497e-08
3.28286280314e-05
4.65823106272e-09
3.2827404125e-05
4.07908132623e-10
3.28275635893e-05
-1.78974332794e-09
3.28284096827e-05
-2.73831646347e-09
3.28295258113e-05
-2.96607062614e-09
3.28306754854e-05
-2.80677810238e-09
3.28317356099e-05
-2.46586553757e-09
3.28326520347e-05
-2.0644265881e-09
3.28334106158e-05
-1.66947638277e-09
3.28340188261e-05
-1.31440844393e-09
3.28344944011e-05
-1.0124797948e-09
3.28348586241e-05
-7.65501212674e-10
3.28351325967e-05
-5.69300296219e-10
3.28353353807e-05
-4.17051965477e-10
3.28354832491e-05
-3.01211669032e-10
3.28355895603e-05
-2.14567089222e-10
3.283566495e-05
-1.50753109888e-10
3.28357176652e-05
-1.04423236617e-10
3.28357539809e-05
-7.12433519063e-11
3.28357786118e-05
-4.78040354064e-11
3.2835795033e-05
-3.14918254702e-11
3.28358057905e-05
-2.03211560315e-11
3.28358127122e-05
-1.28076578424e-11
3.28358170837e-05
-7.85811686462e-12
3.28358198e-05
-4.69342512228e-12
3.28358214833e-05
-2.74478778305e-12
3.2835822511e-05
-1.59845541139e-12
3.28358230462e-05
-9.57018294797e-13
3.28358232926e-05
-6.23310482125e-13
3.28358234244e-05
-5.09225459575e-13
3.28358235524e-05
-5.39840473779e-13
3.28358237133e-05
-6.09388937066e-13
3.28358239269e-05
-6.87122693883e-13
3.28358241977e-05
-7.48565169589e-13
3.28358245225e-05
-7.87936677638e-13
3.28358248942e-05
-8.16246690235e-13
3.28358253008e-05
-8.49409909328e-13
3.2835825726e-05
-8.97373465081e-13
3.2835826159e-05
-9.62005931346e-13
3.28358265964e-05
-1.0462258898e-12
3.28358270469e-05
-1.15098412469e-12
3.2835827521e-05
-1.27723030354e-12
3.28358280178e-05
-1.41979453746e-12
3.28358285316e-05
-1.56146501433e-12
3.28358290615e-05
-1.69055135511e-12
3.28358296062e-05
-1.80762626985e-12
3.28358301547e-05
-1.89994683754e-12
3.28358307184e-05
-1.95853609764e-12
3.28358313153e-05
-2.01027534315e-12
3.28358319366e-05
-2.08771219274e-12
3.28358325559e-05
-2.18996059531e-12
3.28358331575e-05
-2.29343013362e-12
3.28358337475e-05
-2.39176870296e-12
3.28358343426e-05
-2.49503440799e-12
3.28358349526e-05
-2.60375228107e-12
3.28358355775e-05
-2.70628635494e-12
3.28358362282e-05
-2.8002247582e-12
3.28358369322e-05
-2.89672926428e-12
3.28358377026e-05
-3.00649005809e-12
3.28358385155e-05
-3.13148513164e-12
3.28358393408e-05
-3.26546078718e-12
3.28358401843e-05
-3.40259529659e-12
3.28358410711e-05
-3.55212036508e-12
3.28358419977e-05
-3.72632108727e-12
3.28358429421e-05
-3.9130869167e-12
3.28358439092e-05
-4.09453473147e-12
3.28358449265e-05
-4.28607631325e-12
3.28358460177e-05
-4.51788129556e-12
3.28358471956e-05
-4.78499748937e-12
3.28358484832e-05
-5.05155821719e-12
3.28358499468e-05
-5.30596320797e-12
3.2835851647e-05
-5.58638437242e-12
3.2835853566e-05
-5.94579883412e-12
3.28358556543e-05
-6.40945959119e-12
3.28358579263e-05
-6.96101101884e-12
3.28358605218e-05
-7.58208342781e-12
3.28358635831e-05
-8.31439987541e-12
3.28358670998e-05
-9.21092263344e-12
3.28358710318e-05
-1.02508667171e-11
3.28358755942e-05
-1.16167110594e-11
3.28358811932e-05
-1.35020661357e-11
3.28358879627e-05
-1.57082024088e-11
3.28358961113e-05
-1.84045298044e-11
3.28359059181e-05
-2.16981559143e-11
3.2835917798e-05
-2.5738420024e-11
3.28359322652e-05
-3.07779869619e-11
3.28359499508e-05
-3.70948808036e-11
3.28359716321e-05
-4.49236378217e-11
3.28359983951e-05
-5.45270200929e-11
3.28360319447e-05
-6.63567740195e-11
3.28360733147e-05
-8.10989522152e-11
3.28361234155e-05
-9.94300084918e-11
3.2836184843e-05
-1.22074281277e-10
3.28362605035e-05
-1.50033138503e-10
3.28363539e-05
-1.84668223807e-10
3.28364691948e-05
-2.27643169892e-10
3.28366114884e-05
-2.80878926603e-10
3.28367872706e-05
-3.46743757377e-10
3.28370046383e-05
-4.28303587497e-10
3.28372734196e-05
-5.29375665364e-10
3.28376057625e-05
-6.54564921124e-10
3.28380168578e-05
-8.09464941585e-10
3.28385255558e-05
-1.00112248426e-09
3.28391554267e-05
-1.23857484638e-09
3.28399351317e-05
-1.53319956891e-09
3.28408996549e-05
-1.89847445791e-09
3.28420934157e-05
-2.35145637401e-09
3.28435715457e-05
-2.91279352864e-09
3.28454019544e-05
-3.60817922912e-09
3.28476687388e-05
-4.46958064191e-09
3.2850476129e-05
-5.53660160192e-09
3.28539534343e-05
-6.85840946046e-09
3.28582608178e-05
-8.49623047067e-09
3.28635967786e-05
-1.05260722659e-08
3.28702077054e-05
-1.30422065741e-08
3.28783994761e-05
-1.61618918542e-08
3.2888552032e-05
-2.003139424e-08
3.29011376309e-05
-2.48333860051e-08
3.29167436807e-05
-3.07960416369e-08
3.29361019142e-05
-3.82049142484e-08
3.29601254775e-05
-4.74188753546e-08
3.29899557254e-05
-5.8890744701e-08
3.30270224127e-05
-7.31938697776e-08
3.3073122435e-05
-9.10580307285e-08
3.31305225156e-05
-1.13418883502e-07
3.32020952947e-05
-1.41486418331e-07
3.32915033214e-05
-1.76842170066e-07
3.34034522537e-05
-2.21580882544e-07
3.35440496141e-05
-2.7852563171e-07
3.37213259032e-05
-3.515691694e-07
3.3946020225e-05
-4.46240265469e-07
3.42328136713e-05
-5.70706313896e-07
3.46023171122e-05
-7.37649233087e-07
3.50843090885e-05
-9.67972710198e-07
3.57227908533e-05
-1.29843136917e-06
3.65827114403e-05
-1.79752177165e-06
3.77542245332e-05
-2.597102814e-06
3.93328135849e-05
-3.94874048097e-06
4.12953725911e-05
-6.30752610251e-06
-1.03279895054e-05
4.31136494103e-05
5.35705200908e-05
8.95186697997e-06
5.55863056959e-05
1.58501344987e-05
5.52410588447e-05
1.62553863939e-05
5.35976160556e-05
1.40474396193e-05
5.15429058756e-05
1.11562297703e-05
4.95819402665e-05
8.45147056043e-06
4.79262509977e-05
6.22441150212e-06
4.66200395042e-05
4.49842423794e-06
4.56322335837e-05
3.20429821911e-06
4.4906687496e-05
2.25390628939e-06
4.43854422257e-05
1.56624320457e-06
4.40178329701e-05
1.07472633446e-06
4.3762912489e-05
7.27376859124e-07
4.35890449568e-05
4.84705431955e-07
4.34725016606e-05
3.17212093795e-07
4.33958685255e-05
2.03133057909e-07
4.33465903772e-05
1.26584817699e-07
4.33157561664e-05
7.60951491108e-08
4.32971346733e-05
4.34651154604e-08
4.32864330644e-05
2.28997622865e-08
4.3280739745e-05
1.03515777633e-08
4.32781170019e-05
3.03066644466e-09
4.32772903359e-05
-9.63062356235e-10
4.32774548813e-05
-2.90283442203e-09
4.32781063258e-05
-3.6174919722e-09
4.32789443553e-05
-3.64481134252e-09
4.32797993146e-05
-3.32086226899e-09
4.32805835926e-05
-2.84878090927e-09
4.32812593126e-05
-2.34530337163e-09
4.32818173359e-05
-1.87254681866e-09
4.32822639413e-05
-1.45918318222e-09
4.32826126371e-05
-1.11426328876e-09
4.32828793354e-05
-8.36044226197e-10
4.32830797005e-05
-6.17459118358e-10
4.32832278319e-05
-4.4938193682e-10
4.32833357316e-05
-3.22487955647e-10
4.32834132268e-05
-2.28231406593e-10
4.32834681109e-05
-1.59265707297e-10
4.32835064226e-05
-1.09520507925e-10
4.32835327697e-05
-7.41357719949e-11
4.32835506055e-05
-4.93211754772e-11
4.32835624739e-05
-3.21793265134e-11
4.32835702267e-05
-2.05323163366e-11
4.3283575189e-05
-1.27752953976e-11
4.32835782922e-05
-7.73464009476e-12
4.32835801757e-05
-4.5524986263e-12
4.32835812721e-05
-2.61715933853e-12
4.32835818949e-05
-1.50823106036e-12
4.32835822671e-05
-9.33089176288e-13
4.32835824888e-05
-6.72949215421e-13
4.32835826352e-05
-6.05315266119e-13
4.32835827731e-05
-6.15464055328e-13
4.32835829264e-05
-6.44492284387e-13
4.32835830985e-05
-6.7603604744e-13
4.32835832902e-05
-7.11115797078e-13
4.32835835014e-05
-7.47695908277e-13
4.32835837278e-05
-7.93403441743e-13
4.32835839547e-05
-8.59614599621e-13
4.32835841647e-05
-9.50326361206e-13
4.32835843563e-05
-1.0606148269e-12
4.32835845496e-05
-1.19072153683e-12
4.32835847682e-05
-1.34497745691e-12
4.32835850143e-05
-1.5116751757e-12
4.32835852768e-05
-1.66488514248e-12
4.32835855534e-05
-1.79374555531e-12
4.32835858333e-05
-1.89926338172e-12
4.32835860981e-05
-1.98433384523e-12
4.3283586346e-05
-2.05158966632e-12
4.32835865998e-05
-2.124872094e-12
4.32835868666e-05
-2.22459652167e-12
4.32835871284e-05
-2.34583467473e-12
4.32835873655e-05
-2.46924102857e-12
4.3283587572e-05
-2.58441147444e-12
4.32835877642e-05
-2.69740766618e-12
4.32835879587e-05
-2.81017223228e-12
4.3283588154e-05
-2.91693871037e-12
4.32835883525e-05
-3.01749994313e-12
4.32835885803e-05
-3.11704205714e-12
4.32835888618e-05
-3.22477540039e-12
4.3283589186e-05
-3.35672056327e-12
4.32835895205e-05
-3.52435340786e-12
4.32835898533e-05
-3.71851735199e-12
4.32835902039e-05
-3.9229511125e-12
4.3283590587e-05
-4.13584817214e-12
4.32835909905e-05
-4.3623798723e-12
4.32835914052e-05
-4.60452993822e-12
4.32835918514e-05
-4.87044295461e-12
4.32835923757e-05
-5.17737188627e-12
4.32835930204e-05
-5.53024077314e-12
4.32835938041e-05
-5.91637815549e-12
4.328359476e-05
-6.32779831642e-12
4.32835959382e-05
-6.77350613202e-12
4.32835973598e-05
-7.29543601376e-12
4.32835990267e-05
-7.97066704429e-12
4.32836009594e-05
-8.83559510228e-12
4.32836032613e-05
-9.85939465676e-12
4.32836061024e-05
-1.10642125254e-11
4.32836095921e-05
-1.2560232621e-11
4.32836138752e-05
-1.44396551916e-11
4.32836190746e-05
-1.67640560735e-11
4.32836252207e-05
-1.95815007912e-11
4.32836327018e-05
-2.30406760779e-11
4.3283641831e-05
-2.733260736e-11
4.32836529077e-05
-3.26486604162e-11
4.32836663718e-05
-3.91976415086e-11
4.32836828416e-05
-4.72778263538e-11
4.32837030812e-05
-5.73092128257e-11
4.32837279683e-05
-6.97697492252e-11
4.3283758568e-05
-8.51520818671e-11
4.3283796312e-05
-1.04077626604e-10
4.32838429827e-05
-1.27565508681e-10
4.32839006353e-05
-1.5680850557e-10
4.32839717481e-05
-1.9302461245e-10
4.32840595235e-05
-2.37769840841e-10
4.32841680127e-05
-2.93096921153e-10
4.32843021644e-05
-3.61625204517e-10
4.32844679566e-05
-4.46526908138e-10
4.32846728703e-05
-5.51632269978e-10
4.32849263268e-05
-6.81727906765e-10
4.32852398658e-05
-8.42859618176e-10
4.32856277839e-05
-1.04242017683e-09
4.32861078224e-05
-1.28949874454e-09
4.32867018953e-05
-1.59531187435e-09
4.32874373033e-05
-1.97402233876e-09
4.32883477358e-05
-2.44342586626e-09
4.32894746711e-05
-3.02523717894e-09
4.32908695974e-05
-3.74627373364e-09
4.32925964634e-05
-4.63954857428e-09
4.32947344168e-05
-5.74607114008e-09
4.32973815641e-05
-7.11675225178e-09
4.33006594183e-05
-8.81461536441e-09
4.33047185767e-05
-1.0917790579e-08
4.33097456658e-05
-1.35234895474e-08
4.3315972043e-05
-1.67525177252e-08
4.33236846732e-05
-2.07548515501e-08
4.33332394892e-05
-2.57168763253e-08
4.3345078325e-05
-3.18706244985e-08
4.33597501756e-05
-3.95055610556e-08
4.33779374016e-05
-4.8983301643e-08
4.34004887323e-05
-6.07562249928e-08
4.3428461479e-05
-7.53917752801e-08
4.34631749275e-05
-9.36043363437e-08
4.35062778833e-05
-1.16296875738e-07
4.35598359343e-05
-1.4461612408e-07
4.36264444687e-05
-1.80027467688e-07
4.37093762542e-05
-2.24418308827e-07
4.38127775436e-05
-2.80243360889e-07
4.39419307912e-05
-3.50733843341e-07
4.41036141681e-05
-4.40208842758e-07
4.43066016514e-05
-5.5455638336e-07
4.45623666508e-05
-7.02004923319e-07
4.48860774131e-05
-8.94416799375e-07
4.52979731878e-05
-1.14954473624e-06
4.58250945176e-05
-1.49509380612e-06
4.65028052039e-05
-1.97614200524e-06
4.73737690696e-05
-2.66848580148e-06
4.84772864212e-05
-3.70062008836e-06
4.98106793884e-05
-5.28213352313e-06
5.12220113045e-05
-7.71885838072e-06
-1.13183077411e-05
5.2212328882e-05
5.27606085659e-05
6.19125859676e-06
5.5740240761e-05
1.28705022251e-05
5.73124118463e-05
1.46832149435e-05
5.76111980648e-05
1.37486536941e-05
5.71338685399e-05
1.16335590725e-05
5.6319983869e-05
9.26535500083e-06
5.5449644745e-05
7.0947505977e-06
5.46637026049e-05
5.28436628878e-06
5.40144127493e-05
3.85358809097e-06
5.3506842291e-05
2.76147687907e-06
5.31248778976e-05
1.94820769838e-06
5.28455239632e-05
1.35408033315e-06
5.26458877925e-05
9.27013003073e-07
5.25060750981e-05
6.24518017361e-07
5.2409997371e-05
4.13289698087e-07
5.23452157475e-05
2.67914560232e-07
5.23024106991e-05
1.6938975742e-07
5.22747657431e-05
1.03740041499e-07
5.22573935215e-05
6.08373264689e-08
5.22468514386e-05
3.34418588837e-08
5.22407551678e-05
1.64478545536e-08
5.223748216e-05
6.30366494311e-09
5.22359409393e-05
5.78154616751e-10
5.22354256852e-05
-2.38754898097e-09
5.22354776804e-05
-3.66943407319e-09
5.22358125771e-05
-3.97968238209e-09
5.22362598529e-05
-3.76817314403e-09
5.22367226449e-05
-3.31166856615e-09
5.22371504048e-05
-2.77318899335e-09
5.22375207501e-05
-2.24301388811e-09
5.22378276489e-05
-1.76618102341e-09
5.22380739173e-05
-1.36060152629e-09
5.22382665944e-05
-1.02876402918e-09
5.22384142169e-05
-7.6509579892e-10
5.22385252951e-05
-5.60445050206e-10
5.22386075334e-05
-4.04687726995e-10
5.2238667515e-05
-2.88159041089e-10
5.22387106414e-05
-2.02332420504e-10
5.22387412048e-05
-1.40043323019e-10
5.2238762552e-05
-9.54714312248e-11
5.22387772429e-05
-6.40222831587e-11
5.22387871973e-05
-4.21524864654e-11
5.22387938376e-05
-2.71873871489e-11
5.22387982011e-05
-1.71371533544e-11
5.22388010343e-05
-1.05388136601e-11
5.22388028613e-05
-6.3183702439e-12
5.22388040175e-05
-3.69369389713e-12
5.22388047038e-05
-2.11743873217e-12
5.22388050633e-05
-1.22113619563e-12
5.22388052319e-05
-7.55421681644e-13
5.22388053084e-05
-5.49743847475e-13
5.22388053719e-05
-4.76000822555e-13
5.22388054635e-05
-4.64261081925e-13
5.22388055797e-05
-4.8695236994e-13
5.22388057025e-05
-5.35846510402e-13
5.223880583e-05
-6.06716122675e-13
5.22388059637e-05
-6.95573610946e-13
5.22388060903e-05
-7.99124813887e-13
5.2238806196e-05
-9.17163377839e-13
5.2238806281e-05
-1.04755713603e-12
5.2238806358e-05
-1.18731565856e-12
5.22388064485e-05
-1.33436140535e-12
5.22388065682e-05
-1.48149952972e-12
5.22388067073e-05
-1.61217512452e-12
5.22388068469e-05
-1.71272990974e-12
5.22388069831e-05
-1.78987439728e-12
5.22388071084e-05
-1.86599774805e-12
5.22388072071e-05
-1.95449546738e-12
5.2238807282e-05
-2.05787073514e-12
5.2238807349e-05
-2.17390860562e-12
5.22388074071e-05
-2.30077487282e-12
5.22388074386e-05
-2.43742158219e-12
5.22388074328e-05
-2.57555179387e-12
5.22388073986e-05
-2.7000630696e-12
5.22388073571e-05
-2.80605456912e-12
5.22388073241e-05
-2.90293751543e-12
5.22388073009e-05
-2.99688327543e-12
5.22388072831e-05
-3.08647019696e-12
5.22388072741e-05
-3.18013456297e-12
5.22388072844e-05
-3.30180578926e-12
5.22388073091e-05
-3.47170064112e-12
5.22388073249e-05
-3.68558784449e-12
5.22388073288e-05
-3.9241477655e-12
5.22388073488e-05
-4.17984717379e-12
5.22388074005e-05
-4.4607865396e-12
5.22388074724e-05
-4.77245894249e-12
5.22388075575e-05
-5.10853348874e-12
5.22388076851e-05
-5.46273675871e-12
5.22388079179e-05
-5.84687249877e-12
5.22388082999e-05
-6.28821596541e-12
5.22388088302e-05
-6.80357363846e-12
5.22388095091e-05
-7.39842706881e-12
5.22388103721e-05
-8.10603711819e-12
5.22388114817e-05
-8.99909877923e-12
5.22388128884e-05
-1.01394165601e-11
5.22388146428e-05
-1.15367623758e-11
5.22388168654e-05
-1.32177268129e-11
5.22388196851e-05
-1.52945055697e-11
5.22388232074e-05
-1.78898855998e-11
5.22388275928e-05
-2.11016226928e-11
5.22388330814e-05
-2.50346670357e-11
5.2238839948e-05
-2.98326979465e-11
5.22388485249e-05
-3.57669983952e-11
5.22388591713e-05
-4.31585811313e-11
5.22388723373e-05
-5.23176574917e-11
5.22388886169e-05
-6.3616887895e-11
5.22389088285e-05
-7.75749523125e-11
5.223893397e-05
-9.48629086344e-11
5.22389651878e-05
-1.16252394223e-10
5.22390038795e-05
-1.42647503492e-10
5.22390517718e-05
-1.75293375014e-10
5.22391109793e-05
-2.15804501159e-10
5.22391841788e-05
-2.66029263826e-10
5.22392746713e-05
-3.28176075241e-10
5.22393866113e-05
-4.05009458375e-10
5.22395251739e-05
-5.00096184612e-10
5.22396966274e-05
-6.17877585417e-10
5.22399087177e-05
-7.63711869194e-10
5.22401711445e-05
-9.44221392313e-10
5.22404959554e-05
-1.16771676923e-09
5.22408980445e-05
-1.4444722432e-09
5.22413958923e-05
-1.78717216137e-09
5.22420121557e-05
-2.21151231195e-09
5.22427750041e-05
-2.73694232033e-09
5.22437194422e-05
-3.3878341436e-09
5.22448886508e-05
-4.19431045205e-09
5.2246335994e-05
-5.19351184623e-09
5.22481276679e-05
-6.43126835429e-09
5.22503457092e-05
-7.96434251103e-09
5.22530918997e-05
-9.86313792388e-09
5.22564922271e-05
-1.22150250886e-08
5.22607025858e-05
-1.51283302909e-08
5.226591618e-05
-1.87374362705e-08
5.22723725604e-05
-2.32092127316e-08
5.22803686887e-05
-2.87510220942e-08
5.22902725619e-05
-3.56206243487e-08
5.23025404379e-05
-4.41385378513e-08
5.2317738632e-05
-5.47039374899e-08
5.23365702569e-05
-6.78149620125e-08
5.23599083459e-05
-8.40942277819e-08
5.23888379109e-05
-1.04321379434e-07
5.24247090492e-05
-1.29475614718e-07
5.24692033955e-05
-1.60791315742e-07
5.25244183624e-05
-1.99831028945e-07
5.25929742942e-05
-2.48583262487e-07
5.26781513559e-05
-3.09595494584e-07
5.27840662418e-05
-3.86158309468e-07
5.29158989395e-05
-4.82566233107e-07
5.30801855425e-05
-6.04495194516e-07
5.32851954899e-05
-7.59565971941e-07
5.35414016817e-05
-9.58210779507e-07
5.3862029162e-05
-1.21504412985e-06
5.42635716591e-05
-1.55108698581e-06