/*--------------------------------*- C++ -*----------------------------------*\
| =========                 |                                                 |
| \\      /  F ield         | OpenFOAM: The Open Source CFD Toolbox           |
|  \\    /   O peration     | Version:  2106                                  |
|   \\  /    A nd           | Website:  www.openfoam.com                      |
|    \\/     M anipulation  |                                                 |
\*---------------------------------------------------------------------------*/
FoamFile
{
    version     2.0;
    format      ascii;
    arch        "LSB;label=32;scalar=64";
    class       volScalarField;
    location    "0.415";
    object      p;
}
// * * * * * * * * * * * * * * * * * * * * * * * * * * * * * * * * * * * * * //

dimensions      [0 2 -2 0 0 0 0];

internalField   nonuniform List<scalar> 
11200
(
150.095904081
147.167301942
146.053450016
145.526117015
145.158784932
144.864003592
144.602356249
144.353813818
144.109291227
143.864219051
143.615900386
143.362580704
143.103028066
142.836306814
142.561649898
142.278383657
141.985882024
141.683538803
141.370755095
141.046942613
140.711477557
140.363710953
140.002984344
139.628629727
139.239961399
138.836277895
138.416862924
137.980986118
137.527903765
137.056859437
136.567084481
136.057798484
135.528209319
134.977513311
134.404895875
133.809532684
133.190589565
132.547222797
131.8785795
131.183798256
130.462009299
129.712334726
128.933888855
128.125777991
127.287100597
126.416946878
125.514398306
124.578526964
123.608394418
122.603050228
121.561529856
120.482851805
119.366013932
118.209988551
117.013716336
115.776098338
114.495986134
113.172169268
111.803359442
110.388170807
108.925094605
107.41246819
105.848434099
104.230891785
102.557431106
100.825246437
99.0310269698
97.1708124853
95.2397986588
93.2320707373
91.1402396546
88.9549459405
86.6639910533
84.2511888328
81.6944534542
78.9621246909
76.0066022842
72.7553086384
69.0545119314
64.2911927913
148.302862514
146.944687913
146.153715361
145.653699276
145.262708623
144.938823031
144.65429819
144.389691737
144.134199378
143.881672952
143.628285399
143.371523289
143.109649632
142.841387865
142.565737355
142.281863031
141.989027238
141.686546911
141.373763549
141.05001524
140.714651706
140.366997418
140.006408611
139.632216974
139.243726347
138.840229548
138.421007465
137.985327907
137.532445888
137.061604012
136.572032654
136.062949854
135.533561595
134.983067819
134.410655906
133.815501506
133.196770199
132.55361817
131.885192588
131.190632094
130.469067102
129.719619949
128.941405256
128.133529774
127.295092525
126.425184422
125.522887903
124.587276253
123.617412549
122.612348266
121.571121238
120.492752942
119.376244929
118.220574124
117.024686884
115.787491342
114.507847833
113.184556731
111.816343271
110.401838537
108.939555279
107.427858407
105.86492414
104.248689354
102.576786199
100.846474007
99.0545368748
97.1971370968
95.2696351161
93.2663461818
91.1802014998
89.0022448387
86.7209289632
84.3211182131
81.7824175508
79.0763187599
76.1620238219
72.9816992812
69.4325566832
65.3197473241
147.307672607
146.653471683
146.101114848
145.66349531
145.291869055
144.969764211
144.680660596
144.410422468
144.14995504
143.893469696
143.637081702
143.378109516
143.114641128
142.845249463
142.56881324
142.284403591
141.991210623
141.688495542
141.375559948
141.051726977
140.716334464
140.368742815
140.008207876
139.63407584
139.245654431
138.842233915
138.423092905
137.987498142
137.534704354
137.063954372
136.574479456
136.065499921
135.536225168
134.985847887
134.413550286
133.818510462
133.199895193
132.556861051
131.888556136
131.194119943
130.472683706
129.723370791
128.945296876
128.137570016
127.299290812
126.429552042
125.527438469
124.592026211
123.62238184
122.61756112
121.576607163
120.498547944
119.382392929
118.227128775
117.031713635
115.795070079
114.516076227
113.193554134
111.826256157
110.412846435
108.951877951
107.441763811
105.880740047
104.266838241
102.597820715
100.871093189
99.0836137718
97.2317835925
95.3112884228
93.3168897813
91.2421382423
89.0789712869
86.8172944188
84.4441921672
81.9429440498
79.2916905192
76.4624589655
73.4236358452
70.1392462076
66.5862722949
146.757911904
146.39453006
145.994630859
145.625638479
145.288019009
144.979912957
144.694545233
144.423836321
144.161459085
143.902786819
143.644401737
143.383772457
143.118999175
142.848614514
142.571442197
142.286499455
141.992929684
141.689956556
141.376852822
141.052918526
140.717462671
140.369795041
140.009274303
139.635177124
139.246792614
138.843412921
138.424316445
137.988768705
137.536023336
137.065322148
136.575895229
136.066961071
135.537727283
134.987392329
134.415146082
133.820162724
133.201610206
132.558645756
131.890416424
131.196062302
130.474715383
129.7255001
128.947533567
128.139925708
127.301779424
126.432190361
125.530246855
124.595029353
123.625609799
122.621050472
121.580402333
120.502702938
119.386973472
118.23221496
117.037403221
115.801482647
114.52335862
113.201886221
111.835858819
110.423990944
108.964901566
107.457091867
105.898901572
104.288471207
102.623699207
100.902186709
99.1211581787
97.2773612569
95.366942759
93.3852929123
91.3268549199
89.1848996718
86.9511959561
84.6157023606
82.1663304783
79.5889827479
76.8689147085
73.9964206231
70.9751009941
67.8421371675
146.423864618
146.192068637
145.890654993
145.579675859
145.27483337
144.982806119
144.703825904
144.434694646
144.171728988
143.911639071
143.651664731
143.389568707
143.123558503
142.852184938
142.57425113
142.288739868
141.99475828
141.691496992
141.378200577
141.054146379
140.718629472
140.370953445
140.010421818
139.636323831
139.24796215
138.844620321
138.425571546
137.990078955
137.537394865
137.066760529
136.577406125
136.068550788
135.539402622
134.989158378
134.41700414
133.822115966
133.203658977
132.560791187
131.89266267
131.198414101
130.47717996
129.72808706
128.950254925
128.142796207
127.30481706
126.435416973
125.53368888
124.598718833
123.629585574
122.625359556
121.585102349
120.507864174
119.392681634
118.238574516
117.044541428
115.809553704
114.532549575
113.212425212
111.848022547
110.438122999
108.981423505
107.476512679
105.921852909
104.315749363
102.656308312
100.941387563
99.168539331
97.334941477
95.4373144254
93.4718240713
91.4339739129
89.3184996982
87.1192933774
84.8294366765
82.4415092742
79.9485023356
77.3462199176
74.6391045726
71.8485173048
69.0251552764
146.220472944
146.044570402
145.80337439
145.536046538
145.258856591
144.982214431
144.710520059
144.444013139
144.181242384
143.920228003
143.65893534
143.395497501
143.128289044
142.855919046
142.577194447
142.291077291
141.996645328
141.693059006
141.379535476
141.055328873
140.71971574
140.371984093
140.011424371
139.637326671
139.248980261
138.845664286
138.426649299
137.991196465
137.538556585
137.067969668
136.578664885
136.069860464
135.540763935
134.990572156
134.418471768
133.82363995
133.205244863
132.562446206
131.89439517
131.200235907
130.479103789
129.730126436
128.952425598
128.145116252
127.307307996
126.438104878
125.536605405
124.601902496
123.633083319
122.629228856
121.58941249
120.512699296
119.39814398
118.244788337
117.051658229
115.817759959
114.542075135
113.223551057
111.861097153
110.45356347
108.999734796
107.498318728
105.947931834
104.347057484
102.6940285
100.986994838
99.2238853331
97.4023661383
95.5197973349
93.5731932704
91.55919805
89.4741003461
87.3139341614
85.0747585905
82.7532890438
80.348174011
77.862481161
75.3083647719
72.712773043
70.1228036182
146.097357116
145.941749028
145.735445991
145.498881895
145.243403944
144.980120978
144.715503619
144.451990415
144.189852405
143.928262043
143.665885553
143.401246583
143.13291538
142.859583311
142.580078055
142.293351804
141.998459427
141.694534946
141.380770228
141.056397279
140.720674185
140.372874391
140.012278891
139.638169967
139.249828606
138.846529052
138.427538983
137.992117415
137.539513666
137.068966891
136.579705833
136.07094869
135.541903155
134.991766835
134.41972755
133.824963349
133.206642951
132.563926669
131.895966711
131.201906481
130.48088132
129.732022517
128.954456229
128.147302226
127.309674463
126.440682265
125.539430527
124.60501997
123.636547262
122.633104841
121.593780237
120.517655892
119.40380773
118.251303418
117.059200004
115.82654009
114.55234794
113.235630286
111.875359569
110.470477371
109.019881784
107.522413002
105.976841857
104.381855381
102.736041567
101.037871019
99.2856791325
97.4776519726
95.611819851
93.6860685063
91.6981839169
89.64596033
87.5274185839
85.3412262492
83.0874522445
80.7688542234
78.3929808902
75.9754305149
73.5430783734
71.1352809531
146.023278524
145.873267975
145.686511172
145.470403909
145.230695239
144.977870726
144.719229766
144.458487358
144.197116345
143.935190621
143.671969574
143.406329925
143.137031177
142.862852008
142.582648753
142.295371369
142.000058163
141.695821656
141.381832173
141.057302435
140.721474359
140.373608451
140.012975584
139.638850034
139.250507894
138.847218477
138.428246772
137.992849749
137.540275365
137.06976201
136.580537953
136.071821317
135.542819939
134.992731596
134.420744306
133.826036528
133.207777892
132.565129202
131.897243612
131.203267477
130.482342725
129.733602326
128.956173029
128.149178126
127.311736434
126.442963082
125.541970071
124.607866697
123.639760017
122.636755215
121.597955888
120.522463283
119.409375997
118.257789485
117.066794813
115.835477133
114.562914362
113.248170669
111.890301339
110.488335904
109.041283351
107.548124637
106.007805047
104.419227393
102.781246983
101.092668144
99.3522451226
97.5586919179
95.7107070908
93.8070258638
91.8465161135
89.8283482103
87.7522765084
85.6191133366
83.4314721843
81.194886375
78.919391987
76.6215934826
74.3261703467
72.0651300809
145.981003331
145.831555253
145.655138538
145.451398555
145.221863446
144.976152028
144.721788451
144.463146142
144.202435359
143.940337367
143.676536512
143.410175075
143.140161541
142.865347187
142.584615125
142.296916985
142.001280546
141.696803121
141.382639225
141.057987153
140.722076608
140.374158197
140.013495082
139.639356493
139.251011206
138.847728441
138.428770155
137.993391602
137.540839762
137.070352455
136.581157649
136.072473414
135.543507791
134.993458904
134.421515309
133.826856371
133.208652739
132.566067074
131.898255011
131.204364802
130.48353709
129.73490891
128.95761183
128.15077336
127.313517422
126.444965353
125.54423671
124.61045009
123.642723844
122.640176801
121.601928838
120.527101341
119.414817515
118.264202599
117.074383439
115.844489027
114.573649653
113.260995434
111.905659063
110.506770666
109.063459311
107.5748515
106.040071139
104.458241092
102.828488005
101.149951175
99.4217997114
97.643262295
95.8136759224
93.9325679267
91.9997836995
90.0156902671
87.981482775
85.8996525227
83.7746458873
81.6137580308
79.4282389129
77.2344997201
75.0545843812
72.9146713518
145.961728126
145.811849874
145.639885754
145.441948463
145.217384617
144.975262439
144.723123655
144.465610763
144.205279607
143.94311459
143.679020683
143.412282287
143.14188983
142.866735764
142.585719287
142.297794047
142.001982809
141.697375042
141.3831169
141.058398962
140.722444335
140.374498275
140.013819731
139.639674616
139.251330371
138.848053554
138.429105228
137.993739901
137.541204154
137.070735673
136.581562378
136.07290248
135.543964366
134.993946715
134.422038766
133.8274209
133.209264929
132.566734866
131.898987346
131.20517252
130.484435035
129.735914284
128.958745226
128.152059594
127.314986644
126.446654213
125.546189723
124.612721354
123.645379078
122.643295842
121.60560871
120.531459835
119.419997739
118.270378017
117.081764925
115.853333048
114.58426812
113.273767533
111.921044314
110.525328632
109.085869437
107.601939998
106.072843809
104.497922671
102.876570356
101.208252256
99.4925353011
97.7291328785
95.91797026
94.0592852549
92.1537702277
90.2027945897
88.2086982798
86.1752345849
84.1081111415
82.0156727453
79.9096425734
77.8057744629
75.7237582858
73.6855175905
145.961731978
145.811867187
145.639913922
145.441985719
145.217430172
144.9753154
144.723183135
144.465675947
144.205349804
143.943189228
143.679099297
143.412364514
143.141975409
142.866824526
142.585811154
142.297888993
142.002080886
141.697476344
141.383221565
141.058507166
140.722556294
140.374614253
140.013940074
139.639799857
139.251461235
138.848190803
138.429249854
137.993893134
137.541367439
137.070910577
136.581750943
136.073107136
135.544188021
134.99419289
134.422311775
133.827725981
133.209608438
132.567124656
131.899432963
131.205685775
130.485030023
129.736608016
128.959558443
128.153017473
127.316119773
126.447999735
125.547792779
124.614636781
123.647673512
122.646050219
121.60892128
120.535449835
119.424809906
118.276187855
117.088785511
115.861822906
114.594539319
113.286200654
111.936100154
110.543568355
109.107971619
107.628728131
106.105316497
104.53729059
102.924300052
101.266117359
99.5626751031
97.8141226761
96.0209056486
94.183874114
92.304456283
90.384954689
88.4284833392
86.4396633209
84.4250099762
82.3934247846
80.3566934884
78.3298333974
76.3307470242
74.378527062
145.981014903
145.831607527
145.655223607
145.451511018
145.222000879
144.97631167
144.721967524
144.463342211
144.202646374
143.940561624
143.676772629
143.410421974
143.140418446
142.865613591
142.58489078
142.297201855
142.001574779
141.697107004
141.382953162
141.058311662
140.722412323
140.374505943
140.013855919
139.639731945
139.251403334
138.848139592
138.429203234
137.993850144
137.541327991
137.070875346
136.581721212
136.073084807
135.544175641
134.994193712
134.422329929
133.827766577
133.209677774
132.567230389
131.899584564
131.205894606
130.485309898
129.736975762
128.960034523
128.153626707
127.316892342
126.448972318
125.549009956
124.61615269
123.649553918
122.648374977
121.611787261
120.538974641
119.429135988
118.281488044
117.095269564
115.869744739
114.604206999
113.297987275
111.950457762
110.561042175
109.12922587
107.654562859
106.136696857
104.575379505
102.970495792
101.322101111
99.6304806883
97.8962201143
96.1202085239
94.3038209658
92.4490349234
90.5585331345
88.6362920618
86.6875704068
84.7193593407
82.7408119525
80.7636011381
78.802131046
76.8731185111
74.99400322
146.023297893
145.873356224
145.686654688
145.470593333
145.230926321
144.978138713
144.719529915
144.458815583
144.197469227
143.935565335
143.672363844
143.406741983
143.137459744
142.863296255
142.583108261
142.295846091
142.000548361
141.696327819
141.382354973
141.05784273
140.722033227
140.37418727
140.013576077
139.639474812
139.251159923
138.84790178
138.428966169
137.993611041
137.541085482
137.070629155
136.581471948
136.072833869
135.543925184
134.99394666
134.422090088
133.827538706
133.209467915
132.567045867
131.899434358
131.205789649
130.485263458
129.73700398
128.96015702
128.153867328
127.317280099
126.449542507
125.549805497
124.617225723
123.650967755
122.650206478
121.614129612
120.541940899
119.432863055
118.286142007
117.101051581
115.876897959
114.613026799
113.308830344
111.963754033
110.577312875
109.14909696
107.678793096
106.166201018
104.611260292
103.014084605
101.374988364
99.6945262889
97.9735562677
96.2133986566
94.4158684656
92.5834207237
90.719316849
88.8278653029
86.914667825
84.9869426302
83.0538616948
81.1268655416
79.2198999316
77.3490969516
75.5313700888
146.097384478
145.941875219
145.735650857
145.499151527
145.243731955
144.980500399
144.715927634
144.452453233
144.190349235
143.928788965
143.666439427
143.401824981
143.133516543
142.860206099
142.580721876
142.294016594
141.999145546
141.695243058
141.381501236
141.057152322
140.721454732
140.373682392
140.013116858
139.639041314
139.250737482
138.847480855
138.42854034
137.993176248
137.54063944
137.070170893
136.581001537
136.072352271
135.543434156
134.993448767
134.421588762
133.827038296
133.208973863
132.566564947
131.898974882
131.205361811
130.484879669
129.736679336
128.959909862
128.153719969
127.317259663
126.449682015
125.550145132
124.617814322
123.651864619
122.651483553
121.615874171
120.544258645
119.435881975
118.29001747
117.105971357
115.883089367
114.620765066
113.318448049
111.975654306
110.5919784
109.167112275
107.700859665
106.193159233
104.644110636
103.054005448
101.423381874
99.753074803
98.0442676128
96.2985717541
94.5181290896
92.7057376779
90.8649972401
89.0004891034
87.1179872133
85.2247204483
83.3296725082
81.4439226674
79.5810398106
77.7570342791
75.9893145113
146.220508717
146.044737989
145.803645566
145.536401944
145.259287219
144.982710797
144.711073121
144.444615373
144.181887651
143.920911331
143.65965278
143.396246015
143.12906643
142.85672387
142.578025959
142.291935392
141.997530408
141.693971789
141.380476917
141.056300093
140.720717987
140.37301915
140.012496571
139.638441841
139.250143161
138.846881056
138.42792788
137.99254646
137.539989541
137.069499494
136.580308338
136.071637868
135.542699957
134.992696986
134.420822411
133.8262613
133.208191065
132.565782303
131.898199701
131.204603087
130.484148495
129.735989299
128.959277583
128.153165745
127.316808185
126.449363307
125.549995717
124.617878589
123.652196428
122.652148203
121.61695085
120.545843159
119.438090309
118.292990067
117.109877946
115.888135337
114.627198607
113.326568665
111.985823409
110.60463215
109.182772905
107.720152402
106.216831867
104.673057488
103.089295631
101.466274615
99.8050374177
98.1070054155
96.3740533786
94.6085943873
92.8136834541
90.9931376919
89.1516805005
87.2951024407
85.430464509
83.5663603033
81.713304223
79.8843766908
78.0956086529
76.3656734336
146.423909193
146.192282191
145.890998681
145.580123786
145.27537323
144.983425493
144.704513382
144.435440969
144.172526737
143.912482315
143.652548806
143.390490063
143.124514599
142.853174182
142.575272792
142.289793997
141.995845545
141.692618404
141.379357225
141.055339392
140.719860328
140.372223126
140.011732217
139.63768828
139.249384794
138.84610734
138.427131716
137.991723201
137.539136314
137.068614718
136.579391426
136.070689063
135.541720237
134.991688105
134.419786886
133.825202547
133.207113521
132.564691489
131.897102334
131.203507112
130.483063497
129.734926808
128.958251777
128.152193994
127.315911752
126.448568201
125.549333689
124.617388313
123.651924871
122.65215241
121.617300009
120.546621131
119.439398769
118.294951926
117.112642121
115.891881778
114.63214359
113.33297257
111.993999735
110.614957684
109.195699726
107.736222219
106.236691187
104.69747397
103.119176711
101.502688618
99.8492329909
98.1604262382
96.4383471369
94.6856134608
92.9054668699
91.1018650198
89.2795819008
87.4443144342
85.6028141685
83.7630754704
81.9347201626
80.1299029553
78.3641399674
76.6572865251
146.757964971
146.394792918
145.995049244
145.626179026
145.288665424
144.980649409
144.695357839
144.424714142
144.162393514
143.903771075
143.645430559
143.384841896
143.12010649
142.849758127
142.572621678
142.287715536
141.994184276
141.691252495
141.37819335
141.05430757
140.718909288
140.371314759
140.010839801
139.636791659
139.248470226
138.845165375
138.426156001
137.990709653
137.53808238
137.067518867
136.578252901
136.069507789
135.540496649
134.990423062
134.418481707
133.823859175
133.205734858
132.563281406
131.895665935
131.202050859
130.481596041
129.733458358
128.956794637
128.150763085
127.31452518
126.447247939
125.5481064
124.616286333
123.650987376
122.651427167
121.616844491
120.546504761
119.439705571
118.295783129
117.114120019
115.894154103
114.635389998
113.337409987
111.999888918
110.622611691
109.205493363
107.74860291
106.25219125
104.716724133
103.142920464
101.531796621
99.884717318
98.2034524911
96.4902397726
94.7478513821
92.9796630078
91.1897212326
89.3828021846
87.5644572344
85.7410510037
83.9198010286
82.1090104443
80.3190612373
78.5631697773
76.859989848
147.307738628
146.653797636
146.101617592
145.664133487
145.292622672
144.970614141
144.681590752
144.411420465
144.151011237
143.894576521
143.638233222
143.379301158
143.11586949
142.846512192
142.570108975
142.285731998
141.992572721
141.689894502
141.37700121
141.053217169
140.717874068
140.370301492
140.009820371
139.635750453
139.24739637
138.84405123
138.424996459
137.989501442
137.536823699
137.066208895
136.576891545
136.068095556
135.539034655
134.988912964
134.416925671
133.82225951
133.204093063
132.56160014
131.893948781
131.200302362
130.479820649
129.731662911
128.954987914
128.148955991
127.312731207
126.445483696
125.546392239
124.61464707
123.649453292
122.650034254
121.615637091
120.545536811
119.439042476
118.295504057
117.114320598
115.894949502
114.636917551
113.339835234
112.003410873
110.627469058
109.211971762
107.757043283
106.262999403
104.730381185
103.159993861
101.552950933
99.9107238914
98.2351965354
96.5287220212
94.7941861646
93.0350623912
91.2554605666
89.460153669
87.6545705158
85.844728671
84.0370166145
82.2380956989
80.4555261743
78.696423315
76.969484021
148.302976541
146.945159847
146.15441104
145.654565381
145.263721712
144.939962179
144.65554648
144.391036273
144.135630153
143.883182074
143.62986656
143.373171389
143.111360411
142.843157578
142.567562425
142.283739662
141.990950855
141.688511299
141.375763546
141.05205873
140.716737154
140.369149238
140.008642905
139.634534734
139.246133125
138.842734566
138.423622113
137.988064107
137.535319747
137.06463621
136.575248639
136.066381261
135.537248105
134.987053588
134.414993275
133.820254847
133.202019508
132.559460316
131.891745205
131.198038452
130.477501152
129.729292995
128.952573768
128.146505211
127.310253117
126.442989709
125.543896266
124.612166057
123.647008024
122.647650304
121.613344922
120.543373299
119.437052027
118.293740332
117.112848485
115.893847666
114.636281961
113.339780554
112.004074515
110.629015659
109.214598163
107.760983979
106.268532455
104.737834557
103.169752051
101.565461897
99.926505576
98.2548409513
96.5528944016
94.8236402897
93.0706264865
91.2980210702
89.510629006
87.7138676226
85.9136342145
84.1157960234
82.3258830415
80.5486586769
78.778926839
76.9871845386
150.09608519
147.167986416
146.054456366
145.52738259
145.160279145
144.865701668
144.604239687
144.355869235
144.111508935
143.866592174
143.618424296
143.365252735
143.105847418
142.839274678
142.564769634
142.281660845
141.989324342
141.687155317
141.374551021
141.050903737
140.715607978
140.368023764
140.007482123
139.633317767
139.244848609
138.841375557
138.422184901
137.986551809
137.533734077
137.062977407
136.573516957
136.064577098
135.535371945
134.985105972
134.412974722
133.818165642
133.199858775
132.55722807
131.889442212
131.195665729
130.475060193
129.726785904
128.950003376
128.143875153
127.307567936
126.440255027
125.541119059
124.609354998
123.644173573
122.64480536
121.610505047
120.540557454
119.434283142
118.291046066
117.110262202
115.891409352
114.63403909
113.33779065
112.002406866
110.627753228
109.213840061
107.760848407
106.269160156
104.739392754
103.172438722
101.569510165
99.9321883761
98.2624807067
96.5628840943
94.8364039147
93.0866452873
91.3178450958
89.5348925672
87.7433064186
85.9491327727
84.1588689638
82.3789360273
80.6141172034
78.8439533575
76.9439927308
56.8971187153
53.3449801452
50.9535369016
48.9961149109
47.3240711749
45.8672328536
44.5816145442
43.4375090507
42.4132429851
41.4920696861
40.6605825823
39.9077760619
39.2244482839
38.6028000434
38.0361516908
37.5187344093
37.0455318935
36.6121568365
36.2147530144
35.8499160356
35.5146286203
35.2062077157
34.9222599696
34.6606444893
34.4194411816
34.196923522
33.991535294
33.8018702521
33.6266546444
33.4647322914
33.3150513042
33.1766527202
33.0486607232
32.9302740145
32.8207583674
32.7194400031
32.6256995692
32.5389666049
32.4587140002
32.3844533058
32.3157301098
32.2521200409
32.1932230179
32.1386582788
32.0880826849
32.04129721
31.9982580782
31.9585554637
31.9218492685
31.8878411542
31.8563200462
31.8271015826
31.80001203
31.774890081
31.7515952851
31.7299938893
31.7099463332
31.6913056103
31.6739813846
31.6578553538
31.6428295638
31.6288065293
31.6156972844
31.6034244005
31.5919123671
31.5810974937
31.5709141916
31.5613106282
31.5522290607
31.543628382
31.5354564721
31.5276820087
31.5202596856
31.5131607952
31.5063519205
31.4998108292
31.4935024217
31.48740741
31.4815058955
31.4757726415
31.470190877
31.4647464606
31.4594238414
31.4542137129
31.4491040325
31.4440787627
31.4391292209
31.4342442831
31.429419321
31.4246410709
31.4199128745
31.4152477537
31.4106155155
31.4060057369
31.4014133292
31.396834307
31.3922648755
31.3877009277
31.3831381998
31.3785721072
31.3739981914
31.3694119317
31.3648093315
31.3601870143
31.3555420224
31.3508714088
31.3461721191
31.3414410126
31.3366751433
31.3318719206
31.3270292063
31.3221453956
31.3172192296
31.3122494442
31.3072348216
31.3021739533
31.2970653602
31.2919077697
31.2867000408
31.2814413367
31.2761309958
31.2707679672
31.265348891
31.259858374
31.2542581426
31.2484427736
31.2432211431
31.2381662804
31.2329468626
31.227720114
31.2225733744
31.2175633225
31.2127341818
31.2081477093
31.2038624891
31.1999374189
31.19642436
31.1933662599
31.1907719875
31.1886227541
31.1871244754
31.185824057
31.1847781973
31.183338556
31.1798641694
31.170151823
31.1441555232
31.0802065888
30.9370517095
30.6441417275
30.0962525412
29.1605753031
27.704458047
25.6351271572
22.9265328828
19.6347805088
15.8784619571
11.6259026882
6.60190550229
1.56999373628
60.0784771478
56.0256497835
53.3136570068
51.1612932254
49.3593396387
47.8093853524
46.4532166109
45.2535977416
44.1843539372
43.2258510585
42.3627503364
41.5827070883
40.8755673627
40.2328406117
39.6473361873
39.1129028051
38.6242323278
38.1767130985
37.7663132075
37.389489113
37.0431118067
36.7244068078
36.4309053108
36.1604027474
35.9109247973
35.6806980718
35.4681250484
35.2717629579
35.090305144
34.9225655824
34.7674655902
34.6240209395
34.4913331272
34.368579452
34.2550062031
34.1499216395
34.0526903255
33.962727244
33.879492921
33.8024895932
33.7312582642
33.6653758346
33.6044533363
33.5481357656
33.4960927654
33.4479803121
33.4033767619
33.3620757911
33.3238640793
33.2885198725
33.2558252106
33.2255718996
33.1975646783
33.1716246607
33.1475856923
33.1252872329
33.1045870071
33.085358989
33.067482287
33.0508381235
33.0353268603
33.0208579487
33.0073443724
32.9947038868
32.9828609594
32.9717471643
32.9612928079
32.9514473284
32.9421517031
32.9333544531
32.9250120348
32.9170807043
32.909524168
32.9023051394
32.8953877403
32.8887490235
32.8823602647
32.8761901499
32.8702227642
32.8644342182
32.858805417
32.8533204737
32.8479625109
32.8427102487
32.8375486496
32.8324696264
32.8274645124
32.8225239202
32.8176394895
32.8128040027
32.8080080462
32.8032413743
32.798500984
32.7937836999
32.7890854486
32.7844024409
32.7797309586
32.7750668507
32.7704063148
32.765744391
32.7610768038
32.7563988219
32.7517070395
32.7469975113
32.7422676555
32.7375139435
32.7327337178
32.7279233764
32.7230802957
32.7182013758
32.7132847908
32.7083286445
32.7033318924
32.6982931067
32.6932111406
32.6880843057
32.6829120391
32.6776934365
32.6724276439
32.6671143283
32.6617550571
32.6563543515
32.6509188484
32.6454569434
32.6399956181
32.6345396179
32.6291286642
32.6235481972
32.6181372137
32.6129138276
32.6077624956
32.6028048611
32.5980813875
32.5936606856
32.5896125831
32.5860100624
32.5829219616
32.5804053848
32.5784685271
32.5771973222
32.5765499215
32.5763999692
32.5764760955
32.575958933
32.572688194
32.5614787126
32.5303049607
32.4542395111
32.2870663843
31.9519224445
31.3374767875
30.307925079
28.7337114802
26.5318822062
23.6882657422
20.263470745
16.3740872259
12.0036982317
6.89088331386
1.7034919194
62.2859106722
58.3524570211
55.485296058
53.2013575633
51.2993838937
49.6728960611
48.2568614358
47.0092636877
45.9006798163
44.9092479415
44.0180720936
43.2136987567
42.4851723442
41.823414562
41.2207984306
40.6708448386
40.1679967516
39.7074508845
39.2850263201
38.8970619644
38.5403346757
38.2119936778
37.9095070662
37.6306172803
37.37330468
37.1357565582
36.9163406958
36.7135834029
36.5261501459
36.352829381
36.1925189831
36.0442130798
35.9069930051
35.7800172966
35.6625145662
35.5537764825
35.4531518768
35.3600408426
35.2738897256
35.1941866677
35.1204579058
35.0522649758
34.9892006369
34.9308860309
34.8769744551
34.8271428982
34.7809838673
34.7381970205
34.6986341508
34.6620555451
34.6282240612
34.5969218191
34.5679480505
34.5411199462
34.5162697389
34.4932356604
34.4718757063
34.4520464499
34.4336282761
34.4164959276
34.4005421651
34.3856696909
34.371788285
34.3588120207
34.3466626345
34.3352683085
34.3245597779
34.3144785764
34.3049670917
34.2959785498
34.2874561666
34.2793700844
34.2716582852
34.2643024826
34.2572636752
34.2505130821
34.2440206381
34.2377542097
34.2316995788
34.2258281971
34.220118919
34.2145479527
34.2091087551
34.2037875937
34.1985706396
34.1934449035
34.1883987067
34.1834205276
34.1785038359
34.1736395037
34.1688195558
34.1640378799
34.159287076
34.1545601896
34.1498518209
34.1451575143
34.1404733279
34.1357949267
34.1311181573
34.1264377292
34.1217496625
34.1170492903
34.1123329988
34.1075966439
34.1028375871
34.0980522531
34.0932380061
34.088391209
34.0835092797
34.0785893162
34.0736295996
34.068628317
34.0635844877
34.0584967411
34.0533641868
34.04818525
34.0429593438
34.0376859376
34.0323651583
34.0269975832
34.0215852201
34.0161330123
34.0106481935
34.0051425208
33.9996360053
33.9941264288
33.9886278653
33.9831861859
33.9778331877
33.9726627
33.9673336953
33.9623592786
33.9577025165
33.9534206561
33.9495745935
33.9462553718
33.9435525835
33.9415404173
33.9402159957
33.9396289927
33.9398147471
33.9405806265
33.9415504599
33.9416534406
33.938152676
33.9248168149
33.8876160711
33.7983570176
33.6060698011
33.2280602333
32.5477288952
31.4272326844
29.7405657884
27.4138747793
24.4431059712
20.8915583349
16.8725069672
12.3840288683
7.17946689102
1.83477905521
64.090088138
60.3653611478
57.4613630928
55.1061742915
53.1360733934
51.4517190225
49.9879477599
48.7008775846
47.5592597433
46.5397676416
45.6243885971
44.7988323233
44.0515196574
43.3729067209