/*--------------------------------*- C++ -*----------------------------------*\
| =========                 |                                                 |
| \\      /  F ield         | OpenFOAM: The Open Source CFD Toolbox           |
|  \\    /   O peration     | Version:  2106                                  |
|   \\  /    A nd           | Website:  www.openfoam.com                      |
|    \\/     M anipulation  |                                                 |
\*---------------------------------------------------------------------------*/
FoamFile
{
    version     2.0;
    format      ascii;
    arch        "LSB;label=32;scalar=64";
    class       surfaceScalarField;
    location    "0.415";
    object      phi;
}
// * * * * * * * * * * * * * * * * * * * * * * * * * * * * * * * * * * * * * //

dimensions      [0 3 -1 0 0 0 0];

oriented        oriented;

internalField   nonuniform List<scalar> 
22100
(
3.38461211025e-05
1.61538788857e-05
2.24572124321e-05
1.13889097762e-05
1.62585571909e-05
6.19865623427e-06
1.27977818277e-05
3.46077635634e-06
1.08046495689e-05
1.99313330353e-06
9.60459815005e-06
1.20005251918e-06
8.85133191412e-06
7.53267320127e-07
8.36436451948e-06
4.86968440364e-07
8.04434794212e-06
3.200175603e-07
7.83285432792e-06
2.11494513644e-07
7.69341224249e-06
1.39442908713e-07
7.60225635204e-06
9.11566486981e-08
7.54349452174e-06
5.87625561268e-08
7.5063585442e-06
3.71366992819e-08
7.48351998106e-06
2.28393025242e-08
7.4700001258e-06
1.35206159277e-08
7.46243649876e-06
7.56440705688e-09
7.45856946636e-06
3.86786114646e-09
7.45685155612e-06
1.71882795989e-09
7.4564460152e-06
4.06412616476e-10
7.45679692459e-06
-3.50079220561e-10
7.45748420532e-06
-6.86431570455e-10
7.45824366991e-06
-7.58590092493e-10
7.45897008843e-06
-7.25544268272e-10
7.45961552063e-06
-6.44518587298e-10
7.46016055935e-06
-5.44099328354e-10
7.46060371375e-06
-4.42231440896e-10
7.46095340036e-06
-3.48816413134e-10
7.46122249209e-06
-2.68315960563e-10
7.46142507335e-06
-2.01920559451e-10
7.46157451438e-06
-1.48941397319e-10
7.46168254579e-06
-1.07710956691e-10
7.46175893894e-06
-7.62353391574e-11
7.46181188375e-06
-5.2890613344e-11
7.46184539846e-06
-3.34679086915e-11
7.46186451313e-06
-1.90236283139e-11
7.46187400046e-06
-9.34397914729e-12
7.46187731047e-06
-3.06067684756e-12
7.46187631349e-06
1.28385921893e-12
7.46187214961e-06
4.51758534865e-12
7.46186574518e-06
6.80736954347e-12
7.46185762247e-06
8.46518978036e-12
7.46184821921e-06
9.7408614642e-12
7.46183765031e-06
1.08120599927e-11
7.46182598247e-06
1.18761557971e-11
7.46181313528e-06
1.30789770894e-11
7.46179888616e-06
1.45159495185e-11
7.46178293905e-06
1.62907933273e-11
7.46176483651e-06
1.8496635523e-11
7.46174402325e-06
2.12528445797e-11
7.46171988766e-06
2.46297644127e-11
7.46169171636e-06
2.87124219767e-11
7.46165872573e-06
3.35816887769e-11
7.46162002111e-06
3.92824686865e-11
7.46157475111e-06
4.5838752858e-11
7.46152207552e-06
5.31984020049e-11
7.46146138824e-06
6.11610063205e-11
7.46139262062e-06
6.92040441678e-11
7.46131643254e-06
7.65196912777e-11
7.46123544455e-06
8.12964248962e-11
7.46115589234e-06
7.95882083204e-11
7.46109006628e-06
6.58894023771e-11
7.46104542106e-06
4.46037149536e-11
7.46104159203e-06
3.91500922175e-12
7.46111458333e-06
-7.27404482378e-11
7.461322662e-06
-2.07742838961e-10
7.46176027617e-06
-4.37304545422e-10
7.4625774717e-06
-8.169367308e-10
7.46400946268e-06
-1.43182991716e-09
7.46641167805e-06
-2.40210583877e-09
7.47023327152e-06
-3.82147537951e-09
7.47668636431e-06
-6.45301703063e-09
7.48746071414e-06
-1.07743310732e-08
7.50563853001e-06
-1.81778303878e-08
7.53882541594e-06
-3.31869343613e-08
7.60803774978e-06
-6.92124270371e-08
7.77468680857e-06
-1.6664918902e-07
8.22955459038e-06
-4.54867922646e-07
9.69703644008e-06
-1.46748203197e-06
-5.45083486589e-06
1.51478710352e-05
5.02175958271e-05
1.59362842639e-05
4.4244114448e-05
1.73623930829e-05
3.77795061145e-05
1.26632664172e-05
3.26461504494e-05
8.59413392631e-06
2.89381001507e-05
5.70118553382e-06
2.63596315621e-05
3.77852305374e-06
2.4587528889e-05
2.52537187426e-06
2.33734884676e-05
1.70101063428e-06
2.25435409441e-05
1.14996672577e-06
2.19782336656e-05
7.76803290541e-07
2.15955324506e-05
5.22145510834e-07
2.13387571311e-05
3.47933276451e-07
2.11685168239e-05
2.29004139496e-07
2.10573604318e-05
1.48294376272e-07
2.09861737538e-05
9.40272910698e-08
2.09417026436e-05
5.79930741313e-08
2.09148221583e-05
3.44463069843e-08
2.08993244226e-05
1.93669935169e-08
2.08911020007e-05
9.94258484969e-09
2.08873030954e-05
4.20672491219e-09
2.08862355293e-05
7.18902239888e-10
2.08864825561e-05
-9.32045400939e-10
2.08873553352e-05
-1.62993168271e-09
2.08884961888e-05
-1.86492287444e-09
2.08896708707e-05
-1.81770087689e-09
2.08907551924e-05
-1.6269114515e-09
2.08916940481e-05
-1.37962548254e-09
2.08924727159e-05
-1.12613678124e-09
2.08930989083e-05
-8.93348878214e-10
2.08935918255e-05
-6.93896303752e-10
2.08939762445e-05
-5.32654199076e-10
2.08942782347e-05
-4.0918331741e-10
2.08944895724e-05
-2.87193901529e-10
2.08946369908e-05
-1.99975124158e-10
2.08947377513e-05
-1.33828761482e-10
2.08948035946e-05
-8.43585444012e-11
2.08948447404e-05
-4.98629097902e-11
2.08948693049e-05
-2.69083140083e-11
2.08948820694e-05
-1.07084979561e-11
2.08948859263e-05
1.4013827587e-12
2.089488329e-05
1.01910117002e-11
2.08948757549e-05
1.66487483186e-11
2.08948645081e-05
2.1570913551e-11
2.08948502369e-05
2.55841951167e-11
2.08948333861e-05
2.92100082017e-11
2.08948141275e-05
3.28379113694e-11
2.08947924496e-05
3.67337302965e-11
2.08947682599e-05
4.11164035043e-11
2.08947413409e-05
4.61355515776e-11
2.08947113979e-05
5.19806627742e-11
2.08946781936e-05
5.86563739034e-11
2.08946415526e-05
6.61470592679e-11
2.08946014969e-05
7.43913429786e-11
2.08945583341e-05
8.31081905221e-11
2.08945129464e-05
9.17882630488e-11
2.08944671338e-05
9.9484966444e-11
2.08944243211e-05
1.04335074183e-10
2.08943905209e-05
1.03266859483e-10
2.08943751877e-05
9.19147150495e-11
2.08943938747e-05
6.27188127614e-11
2.08944736193e-05
-2.19301322106e-13
2.08946630905e-05
-1.2349263536e-10
2.089503086e-05
-3.22991746119e-10
2.08956960529e-05
-6.61008565904e-10
2.08967650335e-05
-1.14147524426e-09
2.08984165031e-05
-1.85891533538e-09
2.09010082056e-05
-3.02867058045e-09
2.09050879936e-05
-4.89636188047e-09
2.0911525004e-05
-7.86844374801e-09
2.09217428257e-05
-1.26195340176e-08
2.09382315502e-05
-2.03098080868e-08
2.09651350217e-05
-3.33561947461e-08
2.10093924923e-05
-5.50316313185e-08
2.10841738891e-05
-9.29591766817e-08
2.12153997717e-05
-1.64412906556e-07
2.14559665152e-05
-3.09779349699e-07
2.19137055328e-05
-6.24388345561e-07
2.28004778805e-05
-1.34164028277e-06
2.44440031384e-05
-3.11100749979e-06
-7.03667595945e-06
2.60298433123e-05
5.3517106307e-05
1.24191789656e-05
5.29349710464e-05
1.79445300549e-05
4.9653844524e-05
1.59443945673e-05
4.58401875607e-05
1.24077925716e-05
4.24401002662e-05
9.10127453577e-06
3.97291820099e-05
6.48944301968e-06
3.76873171721e-05
4.56723835717e-06
3.61976758853e-05
3.19065346424e-06
3.51326266788e-05
2.21501736394e-06
3.43823829345e-05
1.52704835132e-06
3.38606431609e-05
1.04388650835e-06
3.35023640655e-05
7.06213540221e-07
3.32596202886e-05
4.71749069685e-07
3.30976111173e-05
3.10304710237e-07
3.29913561945e-05
2.0028338438e-07
3.29231155008e-05
1.26234958778e-07
3.28804287865e-05
7.71342799728e-08
3.28546448943e-05
4.51521388735e-08
3.28398190344e-05
2.47697011586e-08
3.28318937976e-05
1.21332560771e-08
3.28280255278e-05
4.5884850059e-09
3.28270282049e-05
6.66303942395e-11
3.28272102609e-05
-1.81060289357e-09
3.2828059977e-05
-2.71321006257e-09
3.28291770499e-05
-2.93331302652e-09
3.28303255509e-05
-2.77397831492e-09
3.28313826901e-05
-2.43541627849e-09
3.28322941133e-05
-2.03636182054e-09
3.2833044941e-05
-1.643181599e-09
3.28336412236e-05
-1.28943497219e-09
3.28340979102e-05
-9.88830345139e-10
3.28344331324e-05
-7.44058757764e-10
3.2834699675e-05
-5.53422974121e-10
3.28349162563e-05
-4.16234420539e-10
3.28350636524e-05
-2.80859325653e-10
3.28351631273e-05
-1.83384600444e-10
3.28352294493e-05
-1.15565255929e-10
3.28352718765e-05
-6.87726640631e-11
3.28352972785e-05
-3.55023072132e-11
3.2835309617e-05
-1.03096041468e-11
3.28353123643e-05
7.99061058249e-12
3.28353080187e-05
2.148213441e-11
3.28352984245e-05
3.16019085449e-11
3.28352847896e-05
3.95868102642e-11
3.28352679571e-05
4.6450394739e-11
3.28352484057e-05
5.28670923648e-11
3.28352264617e-05
5.92520847033e-11
3.2835202326e-05
6.59147799714e-11
3.28351761247e-05
7.3058753184e-11
3.28351478399e-05
8.10245733988e-11
3.28351177542e-05
8.94832985879e-11
3.28350864513e-05
9.81246447354e-11
3.28350549434e-05
1.06439589714e-10
3.2835025071e-05
1.13427932068e-10
3.28349998662e-05
1.17355059577e-10
3.28349839153e-05
1.15710237168e-10
3.28349845468e-05
1.03956844834e-10
3.28350131855e-05
7.4698032147e-11
3.28350872649e-05
1.7891600197e-11
3.28352367666e-05
-8.67444061998e-11
3.28355132944e-05
-2.76738690542e-10
3.28360062214e-05
-6.16627691873e-10
3.28367269025e-05
-1.04384517555e-09
3.28377736673e-05
-1.70780412942e-09
3.28394061977e-05
-2.77397487293e-09
3.28419985323e-05
-4.45106240726e-09
3.28460549716e-05
-7.08468574746e-09
3.28523899679e-05
-1.12308972061e-08
3.28623164148e-05
-1.77944984105e-08
3.28779983592e-05
-2.83011409628e-08
3.29030952706e-05
-4.5406477469e-08
3.29429560752e-05
-7.32168151046e-08
3.30074071923e-05
-1.19482617483e-07
3.311342382e-05
-1.98975773837e-07
3.32900064733e-05
-3.40995671632e-07
3.35853371562e-05
-6.05110283233e-07
3.40704584407e-05
-1.10950998647e-06
3.48114493442e-05
-2.0826315551e-06
3.56720506173e-05
-3.9716085111e-06
-7.10455624356e-06
3.57399324758e-05
5.35105674353e-05
8.90861248997e-06
5.55742249276e-05
1.58808742465e-05
5.52424868396e-05
1.62761342511e-05
5.35977919629e-05
1.40524890951e-05
5.15418553879e-05
1.11572127763e-05
4.95802892955e-05
8.45101077121e-06
4.79243618826e-05
6.22316736608e-06
4.6618151519e-05
4.49686532791e-06
4.5630480114e-05
3.2026901592e-06
4.49051324458e-05
2.25239730069e-06
4.43841064379e-05
1.56491370524e-06
4.40167114093e-05
1.07360970838e-06
4.37619860174e-05
7.26475595183e-07
4.35882885169e-05
4.84003363888e-07
4.34718902835e-05
3.1668280588e-07
4.33953813958e-05
2.02745102764e-07
4.33462123238e-05
1.26304597025e-07
4.33154759572e-05
7.58897934948e-08
4.32969408461e-05
4.33061054184e-08
4.32863160558e-05
2.2759353097e-08
4.32807144789e-05
1.01913544965e-08
4.32779081008e-05
2.87432305774e-09
4.32770816699e-05
-9.82815561638e-10
4.32773009249e-05
-2.9310783718e-09
4.32779898261e-05
-3.62082338163e-09
4.32788541935e-05
-3.63700527323e-09
4.32797282273e-05
-3.30819359308e-09
4.32805267527e-05
-2.83378370233e-09
4.32812134047e-05
-2.32889791083e-09
4.32817799302e-05
-1.85524672883e-09
4.3282233171e-05
-1.44158345433e-09
4.32825858758e-05
-1.09646163132e-09
4.32828478893e-05
-8.15249218709e-10
4.32830234714e-05
-5.91654878375e-10
4.32831569051e-05
-4.14058592575e-10
4.32832426169e-05
-2.68943536206e-10
4.32832971838e-05
-1.69812654696e-10
4.32833377187e-05
-1.08766210197e-10
4.32833628117e-05
-6.00478301835e-11
4.32833756073e-05
-2.24065512875e-11
4.32833793675e-05
4.85580073566e-12
4.32833760772e-05
2.52856568887e-11
4.32833674724e-05
4.06432899385e-11
4.32833547211e-05
5.27352147377e-11
4.32833385297e-05
6.30442198676e-11
4.32833193382e-05
7.24677530615e-11
4.32832975531e-05
8.15594004879e-11
4.32832734543e-05
9.06229028863e-11
4.32832473721e-05
9.98134956128e-11
4.32832199044e-05
1.09193745468e-10
4.32831916426e-05
1.18376831623e-10
4.32831635633e-05
1.26763400336e-10
4.32831371207e-05
1.33315587263e-10
4.32831144502e-05
1.36429348061e-10
4.32830985215e-05
1.33524572755e-10
4.32830936428e-05
1.2066703821e-10
4.32831083525e-05
8.95758574238e-11
4.32831545057e-05
2.8616439885e-11
4.32832514365e-05
-7.88883523867e-11
4.32834148782e-05
-2.50171938124e-10
4.32836621659e-05
-5.23913470219e-10
4.32841097153e-05
-1.06407113125e-09
4.32848881616e-05
-1.82227497011e-09
4.32861491469e-05
-2.96874360524e-09
4.32881010694e-05
-4.72575004839e-09
4.32910943924e-05
-7.44415606288e-09
4.32956889938e-05
-1.16789470066e-08
4.33027635655e-05
-1.83050653369e-08
4.33137001618e-05
-2.87307124972e-08
4.333065636e-05
-4.52569921313e-08
4.33569403989e-05
-7.16902333775e-08
4.33981204597e-05
-1.1439665944e-07
4.34630435908e-05
-1.84405593349e-07
4.35654255697e-05
-3.01357661416e-07
4.37252057488e-05
-5.00775826744e-07
4.39669543078e-05
-8.46858825043e-07
4.430729522e-05
-1.44985097195e-06
4.47074693869e-05
-2.48280640948e-06
4.49265120286e-05
-4.1906519253e-06
-6.57506301525e-06
4.43970191726e-05
5.27351389777e-05
6.17347445584e-06
5.57309371283e-05
1.28850777819e-05
5.7311478563e-05
1.4695594403e-05
5.76109977084e-05
1.37529715825e-05
5.71335302139e-05
1.16346819199e-05
5.63194773882e-05
9.26506524008e-06
5.54489988741e-05
7.09364745808e-06
5.46629898913e-05
5.28287579811e-06
5.4013695804e-05
3.85198562753e-06
5.35061658381e-05
2.7599285397e-06
5.31242712012e-05
1.94680952515e-06
5.28450028964e-05
1.35287914278e-06
5.26454578865e-05
9.26021714104e-07
5.25057348935e-05
6.23727457621e-07
5.24097414061e-05
4.12677395718e-07
5.23450367373e-05
2.67450929471e-07
5.23023002958e-05
1.69042247977e-07
5.22747145408e-05
1.03476789833e-07
5.22573914036e-05
6.06304957373e-08
5.2246884111e-05
3.32679099853e-08
5.22407857717e-05
1.62909851945e-08
5.22374782384e-05
6.18317271447e-09
5.22359808511e-05
5.15929445074e-10
5.22354741499e-05
-2.42298382146e-09
5.22355402802e-05
-3.68556947412e-09
5.22358868111e-05
-3.98223270173e-09
5.22363420114e-05
-3.76217283135e-09
5.22368091931e-05
-3.29990231906e-09
5.22372372377e-05
-2.75606498199e-09
5.22376034037e-05
-2.22074077605e-09
5.22379010115e-05
-1.73869602591e-09
5.22381329093e-05
-1.32794848335e-09
5.22383094195e-05
-9.91367659294e-10
5.22384424965e-05
-7.24314962492e-10
5.22385431965e-05
-5.14172629598e-10
5.22386282865e-05
-3.53397236642e-10
5.223869424e-05
-2.35146228583e-10
5.2238737315e-05
-1.50946774641e-10
5.22387707094e-05
-9.26106335042e-11
5.22387868595e-05
-3.78106016522e-11
5.22387927068e-05
-4.70315919413e-13
5.22387909381e-05
2.75321657266e-11
5.2238783586e-05
4.83904428187e-11
5.22387718593e-05
6.47351857667e-11
5.22387567719e-05
7.84935940004e-11
5.22387388798e-05
9.08033245463e-11
5.22387186542e-05
1.02314631489e-10
5.2238696695e-05
1.13166257827e-10
5.22386743098e-05
1.22852859714e-10
5.22386492682e-05
1.35023907331e-10
5.22386233094e-05
1.45223759667e-10
5.22385975421e-05
1.53482274952e-10
5.22385735826e-05
1.58296754049e-10
5.22385541463e-05
1.56960168997e-10
5.22385452228e-05
1.43676305916e-10
5.22385545701e-05
1.12104376395e-10
5.22385868204e-05
5.77834232759e-11
5.22386654407e-05
-4.96106869712e-11
5.22387868966e-05
-2.00534963137e-10
5.22389846773e-05
-4.48463263989e-10
5.22393242186e-05
-8.63739096356e-10
5.22398458657e-05
-1.5859482029e-09
5.22406237088e-05
-2.60005408204e-09
5.22417906082e-05
-4.135585872e-09
5.22435501764e-05
-6.4851539048e-09
5.22462038681e-05
-1.00975538184e-08
5.22502037698e-05
-1.56785096549e-08
5.22562412649e-05
-2.43421945758e-08
5.22653753924e-05
-3.78644589947e-08
5.2279223621e-05
-5.91048658538e-08
5.23002435934e-05
-9.27098961082e-08
5.23321504254e-05
-1.46303242708e-07
5.23802862154e-05
-2.32541219259e-07
5.24515742675e-05
-3.72645666078e-07
5.25528734065e-05
-6.02075005487e-07
5.2684721803e-05
-9.7870728633e-07
5.28248865131e-05
-1.59001580706e-06
5.28918809721e-05
-2.54980140946e-06
5.26732686996e-05
-3.97204035689e-06
-5.76620571243e-06
5.18644114642e-05
5.19834874545e-05
4.18998794336e-06
5.50586666868e-05
9.80990025491e-06
5.76386175283e-05
1.21156451601e-05
5.93259091064e-05
1.20656816374e-05
6.02280227702e-05
1.07325698951e-05
6.05929355629e-05
8.90015407794e-06
6.06482940106e-05
7.03829057248e-06
6.05532009723e-05
5.37797030824e-06
6.04029677003e-05
4.00222027126e-06
6.02479283765e-05
2.91496912612e-06
6.01108039321e-05
2.08393513901e-06
5.99990454362e-05
1.46463874711e-06
5.99125312632e-05
1.01253696471e-06
5.98479403679e-05
6.88319426581e-07
5.98010378313e-05
4.59581053776e-07
5.97677542471e-05
3.00735671684e-07
5.97446139899e-05
1.92183700302e-07
5.97288365678e-05
1.19255439358e-07
5.97182895643e-05
7.11787601912e-08
5.97113845326e-05
4.01742245001e-08
5.97069663692e-05
2.0710469442e-08
5.97042337006e-05
8.91721671788e-09
5.97026259182e-05
2.12512194312e-09
5.97017226477e-05
-1.5182974277e-09
5.97012655906e-05
-3.22712107382e-09
5.97010772479e-05
-3.79258506426e-09
5.97010420262e-05
-3.72579475673e-09
5.97010872468e-05
-3.34411285901e-09
5.97011691658e-05
-2.83714157806e-09
5.97012621058e-05
-2.31301785887e-09
5.9701352227e-05
-1.82828912829e-09
5.97014329252e-05
-1.40827973823e-09
5.9701502856e-05
-1.06100270588e-09
5.9701562681e-05
-7.83873110276e-10
5.97016132275e-05
-5.64518641905e-10
5.97016535369e-05
-3.93317306729e-10
5.97016818545e-05
-2.63077145136e-10
5.97016976988e-05
-1.66323377833e-10
5.97016967875e-05
-9.11499352995e-11
5.97016895239e-05
-3.00199832157e-11
5.9701683569e-05
5.85784955182e-12
5.97016749257e-05
3.6632602626e-11
5.97016652704e-05
5.87302998353e-11
5.970165437e-05
7.63629042999e-11
5.97016412869e-05
9.23155638959e-11
5.9701625909e-05
1.06960696335e-10
5.97016083208e-05
1.20668744472e-10
5.97015885587e-05
1.33635386933e-10
5.97015662512e-05
1.45758904667e-10
5.97015448951e-05
1.56772841643e-10
5.9701524351e-05
1.65929384724e-10
5.97015058472e-05
1.71907390149e-10
5.97014910368e-05
1.72818546516e-10
5.97014813304e-05
1.66162382598e-10
5.97014753371e-05
1.49096414545e-10
5.97014666997e-05
1.20392574845e-10
5.97014729903e-05
5.15759803216e-11
5.97014855523e-05
-6.16110171116e-11
5.97015735191e-05
-2.8838920043e-10
5.97017651686e-05
-6.39837456809e-10
5.97020672454e-05
-1.16561264338e-09
5.9702457209e-05
-1.97599158867e-09
5.97030398887e-05
-3.18262128707e-09
5.97038974931e-05
-4.99307258687e-09
5.97051442175e-05
-7.7317076093e-09
5.97069453415e-05
-1.18983751614e-08
5.9709539073e-05
-1.82718798794e-08
5.97132696046e-05
-2.80723710483e-08
5.97186268746e-05
-4.32213774393e-08
5.97262917564e-05
-6.67694103956e-08
5.97371656734e-05
-1.03583484044e-07
5.97523109555e-05
-1.61448222834e-07
5.977256476e-05
-2.5279482253e-07
5.97973345566e-05
-3.97415426696e-07
5.98214628764e-05
-6.26203342377e-07
5.98280751087e-05
-9.85319451031e-07
5.97751355798e-05
-1.53707629067e-06
5.95747400481e-05
-2.34940618228e-06
5.90691074668e-05
-3.46640861495e-06
-4.7952111714e-06
5.80981126886e-05
5.1437306368e-05
2.75268252169e-06
5.42658233284e-05
6.98138501865e-06
5.72496476126e-05
9.1318224878e-06
5.97900335938e-05
9.52529729323e-06
6.17201356928e-05
8.80246942681e-06
6.30883122156e-05
7.53197916779e-06
6.40167272661e-05
6.10987706477e-06
6.46292484483e-05
4.76545057464e-06
6.50258166775e-05
3.60565339128e-06
6.52790924082e-05
2.66169464206e-06
6.54389885176e-05
1.92404019232e-06
6.55387063568e-05
1.36492202568e-06
6.55999458852e-05
9.51298534452e-07
6.56367616919e-05
6.51504705426e-07
6.56582138282e-05
4.38130039468e-07
6.56701231374e-05
2.88827522619e-07
6.5676213505e-05
1.86094520912e-07
6.56788509807e-05
1.16619180698e-07
6.56795226265e-05
7.05083716059e-08
6.56791476602e-05
4.05504879692e-08
6.56782815398e-05
2.15779322258e-08
6.56772519392e-05
9.94820813462e-09
6.56762440284e-05
3.13444641824e-09
6.56753360975e-05
-6.08974348746e-10
6.56745686996e-05
-2.45840642875e-09
6.56739416056e-05
-3.16418782573e-09
6.56734438429e-05
-3.22688649706e-09
6.56730579335e-05
-2.95723811412e-09
6.56727648713e-05
-2.54329979648e-09
6.56725465002e-05
-2.09404468752e-09
6.56723867281e-05
-1.66805844971e-09
6.56722719336e-05
-1.29310333308e-09
6.56721900208e-05
-9.78759465521e-10
6.56721304413e-05
-7.23910901036e-10
6.56720874564e-05
-5.21057487863e-10
6.56720568912e-05
-3.62095043656e-10
6.56720326113e-05
-2.37918048392e-10
6.56720117911e-05
-1.44673347053e-10
6.56719976323e-05
-7.62056271683e-11
6.56719966965e-05
-2.83217237155e-11
6.56719959241e-05
7.26003095128e-12
6.56719892053e-05
4.35033953167e-11
6.5671979658e-05
6.82956539725e-11
6.56719678952e-05
8.83795479022e-11
6.56719546346e-05
1.05988303484e-10
6.56719398891e-05
1.2222922703e-10
6.56719235301e-05
1.37644249031e-10
6.56719054894e-05
1.52377327077e-10
6.5671886217e-05
1.65856344589e-10
6.56718677606e-05
1.76139827138e-10
6.56718490755e-05
1.85607258277e-10
6.56718306268e-05
1.9138835787e-10
6.56718135443e-05
1.90940244688e-10
6.56717998286e-05
1.80900363022e-10
6.56717932049e-05
1.56473435002e-10
6.56718020913e-05
1.12140356629e-10
6.56718074099e-05
4.61713032045e-11
6.56718436092e-05
-9.83888882918e-11
6.56719119475e-05
-3.57111246162e-10
6.56720122717e-05
-7.40220565803e-10
6.56721648624e-05
-1.31843118701e-09
6.56723771511e-05
-2.18837074856e-09
6.5672665942e-05
-3.47132712076e-09
6.56730479036e-05
-5.37479206413e-09
6.56735341754e-05
-8.21767395346e-09
6.56741226911e-05
-1.24865401463e-08
6.56747836097e-05
-1.89324381778e-08
6.56754318314e-05
-2.87202324811e-08
6.56758670912e-05
-4.36563042278e-08
6.56756626919e-05
-6.65647074581e-08
6.56739504405e-05
-1.0187091155e-07
6.56689982714e-05
-1.5649571195e-07
6.56572747382e-05
-2.41071023484e-07
6.56316555151e-05
-3.7179608051e-07
6.55779970608e-05
-5.72544919365e-07
6.54690802818e-05
-8.76402721362e-07
6.52557634862e-05
-1.32375964696e-06
6.48580475935e-05
-1.95169052291e-06
6.41635452675e-05
-2.771907093e-06
-3.71385472488e-06
6.30821883276e-05
5.10850433688e-05
1.66764011746e-06
5.36118473601e-05
4.45458278909e-06
5.66873209327e-05
6.05635055058e-06
5.96894525983e-05
6.52316727888e-06
6.22997348351e-05
6.19218882958e-06
6.44136979932e-05
5.4180176262e-06
6.60471956442e-05
4.47638095487e-06
6.72686285996e-05
3.54401906411e-06
6.81599089417e-05
2.71437438501e-06
6.87977767459e-05
2.02382806274e-06
6.92467622532e-05
1.47505581975e-06
6.95579821854e-05
1.05370317797e-06
6.97704499589e-05
7.38831822846e-07
6.99131941478e-05
5.08761577315e-07
7.00074064512e-05
3.43918825695e-07
7.00683172952e-05
2.27917814213e-07
7.01067206787e-05
1.47692315599e-07
7.01301643997e-05
9.31766811171e-08
7.01438549875e-05
5.68190412555e-08
7.0151332584e-05
3.30741870132e-08
7.01549665883e-05
1.79452732562e-08
7.01563159213e-05
8.60026313798e-09
7.0156389354e-05
3.0624139082e-09
7.01557988904e-05
-1.70774563956e-11
7.01549395143e-05
-1.59767387513e-09
7.01540173294e-05
-2.24076731366e-09
7.01531499874e-05
-2.35846135644e-09
7.01523911355e-05
-2.19745989578e-09
7.01517579445e-05
-1.9093795765e-09
7.01512476064e-05
-1.58310412683e-09
7.01508471856e-05
-1.26716542592e-09
7.01505397956e-05
-9.8527509566e-10
7.01503078458e-05
-7.46363915295e-10
7.0150135211e-05
-5.50791362447e-10
7.01500089845e-05
-3.94206303305e-10
7.01499184777e-05
-2.70960408081e-10
7.01498566202e-05
-1.75376730367e-10
7.01498158305e-05
-1.03309898407e-10
7.01497881452e-05
-4.80318205103e-11
7.01497587901e-05
1.34922073657e-12
7.01497362348e-05
3.05325769878e-11
7.01497240062e-05
5.66094119384e-11
7.01497141498e-05
7.88699918289e-11
7.0149704998e-05
9.82732699565e-11
7.0149695752e-05
1.15983815609e-10
7.01496860155e-05
1.3271297109e-10
7.01496756824e-05
1.4879429022e-10
7.01496647786e-05
1.64142394903e-10
7.01496531116e-05
1.78321885848e-10
7.01496392255e-05
1.90704854547e-10
7.01496250053e-05
2.00356692018e-10
7.01496113022e-05
2.05448032663e-10
7.0149598809e-05
2.03476335472e-10
7.01495880666e-05
1.91347117267e-10
7.01495787535e-05
1.65763180908e-10
7.01495679162e-05
1.23232863127e-10
7.01495629426e-05
5.08950462317e-11
7.01495506354e-05
-8.71117996633e-11
7.01495634741e-05
-3.70113318621e-10
7.01495878121e-05
-7.64711376776e-10
7.01496122537e-05
-1.34322079024e-09
7.0149615948e-05
-2.1920912184e-09
7.01495721346e-05
-3.42742197195e-09
7.01494276688e-05
-5.23008871026e-09
7.01490837636e-05
-7.87341532607e-09
7.01483654842e-05
-1.17678776042e-08
7.01469714369e-05
-1.75379994807e-08
7.01443905951e-05
-2.61390027572e-08
7.01397495861e-05
-3.90149601941e-08
7.01315683542e-05
-5.83831763333e-08
7.01173586809e-05
-8.76609100704e-08
7.0092968701e-05
-1.32105362821e-07
7.00513136275e-05
-1.99415632768e-07
6.99804272385e-05
-3.0090948726e-07
6.98603564405e-05
-4.52474020914e-07
6.96586780466e-05
-6.74724349801e-07
6.93255138812e-05
-9.90595686157e-07
6.87913714079e-05
-1.4175483344e-06
6.7973749101e-05
-1.95428549322e-06
-2.55479118845e-06
6.68146849207e-05
5.08804142112e-05
7.87226888385e-07
5.31704690314e-05
2.16452977354e-06
5.62177542691e-05
3.0090669778e-06
5.94382759426e-05
3.30264727341e-06
6.24449773849e-05
3.18548903667e-06
6.50382623912e-05
2.82473424652e-06
6.7154877445e-05
2.35976742729e-06
6.88135773149e-05
1.88532062256e-06
7.00731845743e-05
1.45476844173e-06
7.10056826746e-05
1.0913311584e-06
7.1681280007e-05
7.99459589324e-07
7.21614403494e-05
5.7354388895e-07
7.24966222388e-05
4.03650967103e-07
7.27264997628e-05
2.78885098462e-07
7.2881299663e-05
1.89120003565e-07
7.29834904693e-05
1.25728137905e-07
7.30494353495e-05
8.17486057089e-08
7.30908386118e-05
5.17746493132e-08
7.31159337607e-05
3.17251771614e-08
7.31304195221e-05
1.85897517581e-08
7.31381755185e-05
1.01906368548e-08
7.31417972612e-05
4.97990301474e-09
7.31429862875e-05
1.87474811325e-09
7.31428411693e-05
1.29360985524e-10
7.31420192216e-05
-7.74414578168e-10
7.31409374955e-05
-1.15783396552e-09
7.31398236814e-05
-1.24359155721e-09
7.31387971763e-05
-1.17005185544e-09
7.31379104059e-05
-1.02188425854e-09
7.31371773348e-05
-8.49434679562e-10
7.31365905809e-05
-6.79941921266e-10
7.31361328027e-05
-5.27104569642e-10
7.31357832039e-05
-3.96358640969e-10
7.3135521181e-05
-2.88343417254e-10
7.31353284386e-05
-2.00956491928e-10
7.31351893664e-05
-1.3126641105e-10
7.31350906681e-05
-7.60018674791e-11
7.3135019695e-05
-3.16775183732e-11
7.31349673499e-05
5.21515474225e-12
7.31349382411e-05
3.119489955e-11
7.31349157408e-05
5.35125220528e-11
7.31348996243e-05
7.32690308232e-11
7.31348879042e-05
9.11464564427e-11
7.31348788757e-05
1.07890155896e-10
7.31348712572e-05
1.24191731365e-10
7.31348641695e-05
1.40403085138e-10
7.31348569928e-05
1.56581901951e-10
7.31348492948e-05
1.72452780654e-10
7.31348407715e-05
1.87425807873e-10
7.31348313591e-05
2.00634113125e-10
7.31348210646e-05
2.11022190828e-10
7.31348099635e-05
2.16799870213e-10
7.3134798162e-05
2.15365290227e-10
7.31347861775e-05
2.03667948401e-10
7.31347746316e-05
1.77691971567e-10
7.31347643624e-05
1.33140513846e-10
7.31347478974e-05
6.75457377084e-11
7.313472543e-05
-6.48951281696e-11
7.31346848864e-05
-3.29588287916e-10
7.31346196619e-05
-6.99883534213e-10
7.31345064659e-05
-1.23039463872e-09
7.31343022349e-05
-1.98803192291e-09
7.31339390674e-05
-3.06417627426e-09
7.31333020467e-05
-4.59291012249e-09
7.31321983724e-05
-6.76947096047e-09
7.31303064956e-05
-9.87567205831e-09
7.31270989746e-05
-1.4330112764e-08
7.31217211957e-05
-2.07608470654e-08
7.3112761347e-05
-3.00547821146e-08
7.30979157444e-05
-4.35372351255e-08
7.3073477668e-05
-6.32224373237e-08
7.30335520479e-05
-9.21793130048e-08
7.29686293551e-05
-1.34492500666e-07
7.28636973741e-05
-1.95977206897e-07
7.26955981837e-05
-2.84374661083e-07
7.24298445575e-05
-4.08970704582e-07
7.20180950883e-05
-5.7884639195e-07
7.13991825123e-05
-7.98636085467e-07
7.05075981157e-05
-1.0627017308e-06
-1.34596673502e-06
6.92987729425e-05
5.07871736286e-05
5.42641094561e-11
5.29516527535e-05
5.24948166834e-11
5.59606930751e-05
2.83552860684e-11
5.92633282157e-05
1.382352505e-11
6.24488163689e-05
2.52437228316e-12
6.5273558448e-05
-6.22117906929e-12
6.76333393915e-05
-1.19782756884e-11
6.95186762481e-05
-1.48032939312e-11
7.09734611395e-05
-1.51322137562e-11
7.20648070578e-05
-1.35612113392e-11
7.28642784659e-05
-1.0717266073e-11
7.34378306516e-05
-7.25216866378e-12
7.38414864695e-05
-3.83015504023e-12
7.41203737052e-05
-1.10540119798e-12
7.43094944245e-05
3.39939475868e-13
7.44352235452e-05
1.19099232428e-13
7.45169753492e-05
-2.03552484293e-12
7.45687570894e-05
-5.86421503385e-12
7.46004942798e-05
-1.0723804297e-11
7.46191010005e-05
-1.56296543202e-11
7.46293124528e-05
-1.94499071807e-11
7.46343148015e-05
-2.10786143785e-11
7.46362110262e-05
-2.00527635456e-11
7.46363594473e-05
-1.76983149119e-11
7.4635601507e-05
-1.51861073093e-11
7.46344568887e-05
-1.20665552662e-11
7.46332228569e-05
-8.53667776841e-12
7.46320583324e-05
-4.6800288469e-12
7.46310370945e-05
3.16921220644e-14
7.46301842884e-05
3.95414915479e-12
7.4629496416e-05
8.44733207143e-12
7.46289565205e-05
1.32740894572e-11
7.46285422563e-05
1.84137596278e-11
7.46282305961e-05
2.3925155023e-11
7.46280003122e-05
2.99767024536e-11
7.46278331173e-05
3.66832271155e-11
7.46277137861e-05
4.4108835891e-11
7.46276305895e-05
5.21256033712e-11
7.46275753437e-05
6.09113583493e-11
7.46275369798e-05
7.01460729402e-11
7.4627511436e-05
7.96252486655e-11
7.46274949469e-05
9.03304458621e-11
7.4627484501e-05
1.02168935193e-10
7.46274779116e-05
1.1509761205e-10
7.46274736341e-05
1.29125390461e-10
7.46274706092e-05
1.44148099678e-10
7.46274680441e-05
1.59866486792e-10
7.46274654e-05
1.75805002841e-10
7.46274622378e-05
1.91264462131e-10
7.4627458149e-05
2.05291751035e-10
7.46274529199e-05
2.16662991632e-10
7.46274462787e-05
2.23636147306e-10
7.46274380159e-05
2.23793062219e-10
7.46274275294e-05
2.14312170702e-10
7.46274134499e-05
1.91609079374e-10
7.46273937078e-05
1.51837511501e-10
7.46273683708e-05
9.24082936491e-11
7.46273231049e-05
-1.93669933036e-11
7.46272355613e-05
-2.42113293067e-10
7.46271002535e-05
-5.65072541678e-10
7.46268780561e-05
-1.00835527226e-09
7.46265081343e-05
-1.6182949239e-09
7.4625894382e-05
-2.45045915987e-09
7.46248801249e-05
-3.57859529437e-09
7.46232104844e-05
-5.09966475963e-09
7.46204691654e-05
-7.13407149517e-09
7.461598919e-05
-9.849805011e-09
7.46087134479e-05
-1.34847517433e-08
7.45969068148e-05
-1.82478348975e-08
7.45777699975e-05
-2.44000729602e-08
7.45468851012e-05
-3.23371293441e-08
7.44975272373e-05
-4.28210934639e-08
7.44189663653e-05
-5.59312225398e-08
7.42948130855e-05
-7.18235241522e-08
7.41007020275e-05
-9.02633662542e-08
7.38018365618e-05
-1.10105151644e-07
7.33515846893e-05
-1.285946404e-07
7.26935147308e-05
-1.40566478984e-07
7.17696504644e-05
-1.38838064479e-07
-1.14925396922e-07
7.05386083676e-05
5.07871726026e-05
-7.87117302051e-07