/*--------------------------------*- C++ -*----------------------------------*\
| =========                 |                                                 |
| \\      /  F ield         | OpenFOAM: The Open Source CFD Toolbox           |
|  \\    /   O peration     | Version:  2106                                  |
|   \\  /    A nd           | Website:  www.openfoam.com                      |
|    \\/     M anipulation  |                                                 |
\*---------------------------------------------------------------------------*/
FoamFile
{
    version     2.0;
    format      ascii;
    arch        "LSB;label=32;scalar=64";
    class       volVectorField;
    location    "0.47";
    object      U;
}
// * * * * * * * * * * * * * * * * * * * * * * * * * * * * * * * * * * * * * //

dimensions      [0 1 -1 0 0 0 0];

internalField   nonuniform List<vector> 
9600
(
(0.675396185229 0.157677433281 0)
(0.563826158074 0.102430803286 0)
(0.381538924228 0.0510646950357 0)
(0.28385318722 0.0244589885425 0)
(0.232281028898 0.0119348218279 0)
(0.201907708275 0.0062303577344 0)
(0.183178408935 0.00352192643386 0)
(0.171271990049 0.00212007549864 0)
(0.163512246282 0.00132523612448 0)
(0.158392666111 0.000841457036674 0)
(0.155010703332 0.000534136125477 0)
(0.152789983541 0.000335039692616 0)
(0.151348693775 0.000205521072499 0)
(0.150429244728 0.000121791872699 0)
(0.149856456545 6.84334324866e-05 0)
(0.149511120094 3.51725931356e-05 0)
(0.149312511446 1.50861223507e-05 0)
(0.149206462643 3.50354640268e-06 0)
(0.149157083119 -2.70684401041e-06 0)
(0.149140974038 -5.61131853501e-06 0)
(0.149143257543 -6.52707157522e-06 0)
(0.149154653766 -6.4178968496e-06 0)
(0.149169592539 -5.7820106367e-06 0)
(0.149184964175 -4.92838038061e-06 0)
(0.149199134864 -4.04294169307e-06 0)
(0.149211383458 -3.22399594105e-06 0)
(0.14922152216 -2.51514492707e-06 0)
(0.149229651122 -1.92828399939e-06 0)
(0.14923600713 -1.45817744563e-06 0)
(0.149240874292 -1.0913619676e-06 0)
(0.149244534594 -8.1140548608e-07 0)
(0.149247243035 -6.01870128419e-07 0)
(0.149249217366 -4.47765544333e-07 0)
(0.149250636267 -3.36148313186e-07 0)
(0.149251641983 -2.563121441e-07 0)
(0.149252345004 -1.99704965498e-07 0)
(0.149252829358 -1.59643434764e-07 0)
(0.149253157768 -1.31038223665e-07 0)
(0.149253376342 -1.10162610511e-07 0)
(0.149253518621 -9.43886582818e-08 0)
(0.149253608953 -8.21486707756e-08 0)
(0.149253665156 -7.33630665814e-08 0)
(0.149253698802 -6.97462680545e-08 0)
(0.149253716798 -7.05864520798e-08 0)
(0.149253724731 -7.35561689948e-08 0)
(0.149253726889 -7.79555402166e-08 0)
(0.149253725807 -8.39691400492e-08 0)
(0.14925372312 -9.16059767374e-08 0)
(0.149253719804 -1.00095856341e-07 0)
(0.14925371639 -1.09029121473e-07 0)
(0.149253713132 -1.18320622757e-07 0)
(0.149253709943 -1.28062148923e-07 0)
(0.149253706636 -1.3834596304e-07 0)
(0.149253703185 -1.4927168217e-07 0)
(0.149253699677 -1.60950611811e-07 0)
(0.149253696129 -1.73444325256e-07 0)
(0.149253692604 -1.86778228926e-07 0)
(0.14925368919 -2.01004786837e-07 0)
(0.149253685837 -2.1619429326e-07 0)
(0.149253682451 -2.32374291735e-07 0)
(0.149253678947 -2.49571398461e-07 0)
(0.149253675258 -2.67829794264e-07 0)
(0.14925367139 -2.87212327914e-07 0)
(0.149253667343 -3.07798350764e-07 0)
(0.149253663068 -3.29678046523e-07 0)
(0.149253658551 -3.52953982428e-07 0)
(0.149253653807 -3.77710163328e-07 0)
(0.149253648818 -4.04006678052e-07 0)
(0.149253643581 -4.31888443883e-07 0)
(0.149253638127 -4.61380805544e-07 0)
(0.149253632537 -4.92544386593e-07 0)
(0.149253626909 -5.25419721394e-07 0)
(0.149253621308 -5.60026963017e-07 0)
(0.149253615766 -5.96430772896e-07 0)
(0.149253610209 -6.3475779368e-07 0)
(0.14925360438 -6.75126512255e-07 0)
(0.149253597944 -7.17631395092e-07 0)
(0.149253590721 -7.62379368511e-07 0)
(0.149253582838 -8.09467776104e-07 0)
(0.149253574682 -8.58924033135e-07 0)
(0.149253566697 -9.10718194726e-07 0)
(0.14925355916 -9.64852051576e-07 0)
(0.149253552077 -1.02141205416e-06 0)
(0.149253545221 -1.08053895692e-06 0)
(0.149253538276 -1.14237363376e-06 0)
(0.149253531018 -1.20701916326e-06 0)
(0.149253523425 -1.27451735083e-06 0)
(0.149253515671 -1.34485993265e-06 0)
(0.149253508027 -1.41804192724e-06 0)
(0.149253500706 -1.49409433137e-06 0)
(0.149253493837 -1.57304557711e-06 0)
(0.149253487574 -1.65488296321e-06 0)
(0.14925348218 -1.73959806345e-06 0)
(0.149253477884 -1.82724353818e-06 0)
(0.14925347478 -1.9179001332e-06 0)
(0.149253472946 -2.01159319744e-06 0)
(0.149253472628 -2.10825324965e-06 0)
(0.149253474323 -2.20772013472e-06 0)
(0.14925347864 -2.30967587495e-06 0)
(0.149253486211 -2.41362498035e-06 0)
(0.149253498097 -2.51919518145e-06 0)
(0.149253515473 -2.62645261113e-06 0)
(0.149253539414 -2.7356806016e-06 0)
(0.149253571332 -2.8469867129e-06 0)
(0.149253613221 -2.96031572247e-06 0)
(0.149253667557 -3.07560876234e-06 0)
(0.149253737297 -3.19292076931e-06 0)
(0.149253825935 -3.31261832252e-06 0)
(0.149253937671 -3.43556147325e-06 0)
(0.14925407756 -3.56420525806e-06 0)
(0.149254251645 -3.70428055918e-06 0)
(0.149254469566 -3.86190707741e-06 0)
(0.149254742469 -4.03147368265e-06 0)
(0.149255082259 -4.21070770311e-06 0)
(0.14925550433 -4.39975858036e-06 0)
(0.149256027947 -4.59941306466e-06 0)
(0.149256677112 -4.81074353481e-06 0)
(0.149257481552 -5.03498549055e-06 0)
(0.149258478125 -5.27351403759e-06 0)
(0.149259712418 -5.52796547002e-06 0)
(0.149261240639 -5.8004748618e-06 0)
(0.149263132003 -6.09419733653e-06 0)
(0.149265472844 -6.41457792355e-06 0)
(0.149268379279 -6.77636411681e-06 0)
(0.149272016995 -7.23245820626e-06 0)
(0.14927652336 -7.90523075477e-06 0)
(0.149282060261 -8.75071307493e-06 0)
(0.149288895933 -9.72522480744e-06 0)
(0.149297357338 -1.08218805595e-05 0)
(0.149307835997 -1.20511680681e-05 0)
(0.149320813045 -1.34316065344e-05 0)
(0.149336884069 -1.49878686008e-05 0)
(0.149356787301 -1.67511470929e-05 0)
(0.149381438276 -1.87603685699e-05 0)
(0.149411972909 -2.10642579062e-05 0)
(0.149449801391 -2.37241698846e-05 0)
(0.149496675429 -2.68177772858e-05 0)
(0.149554772473 -3.04434242447e-05 0)
(0.149626801989 -3.47253699014e-05 0)
(0.149716139471 -3.98211305429e-05 0)
(0.149826995961 -4.59310483382e-05 0)
(0.149964634469 -5.33100365634e-05 0)
(0.150135647797 -6.22833296304e-05 0)
(0.150348317739 -7.32678826832e-05 0)
(0.150613085031 -8.68003692676e-05 0)
(0.15094317042 -0.000103575188065 0)
(0.151355405496 -0.000124497110838 0)
(0.151871361739 -0.000150751973684 0)
(0.152518912592 -0.000183903926865 0)
(0.153334445302 -0.000226032634646 0)
(0.154366102168 -0.000279940186563 0)
(0.155678793103 -0.000349559040604 0)
(0.157362731342 -0.000441121413773 0)
(0.159550767515 -0.000567466188145 0)
(0.162460002259 -0.000764633194578 0)
(0.166497044815 -0.00115276126895 0)
(0.172586384916 -0.00215755529628 0)
(0.183498814598 -0.00535951962501 0)
(0.207565990943 -0.0167169029228 0)
(0.260569658733 -0.0580848066031 0)
(0.977201175793 0.296997119942 0)
(0.962687464237 0.250387264653 0)
(0.820646026611 0.158581013147 0)
(0.697824892331 0.0957993461318 0)
(0.610491667331 0.0579132744761 0)
(0.549133314673 0.0359038513247 0)
(0.506705988606 0.0229309364566 0)
(0.477662025615 0.0149788797904 0)
(0.457815306843 0.00990973320093 0)
(0.444277683397 0.00658331076846 0)
(0.435087233365 0.00436198798804 0)
(0.42889556069 0.00286682707673 0)
(0.424768040215 0.0018597201105 0)
(0.422054228899 0.00118457120308 0)
(0.420301046067 0.000736109097255 0)
(0.419193673319 0.000442157610894 0)
(0.418514605353 0.000252858739567 0)
(0.4181148309 0.000133738604 0)
(0.417893373644 6.1052472613e-05 0)
(0.417782731084 1.8578081025e-05 0)
(0.417738472869 -4.63401715211e-06 0)
(0.4177319345 -1.60099692722e-05 0)
(0.417745149343 -2.03063482627e-05 0)
(0.417767171778 -2.06092145464e-05 0)
(0.417791620483 -1.88559058805e-05 0)
(0.417815034494 -1.62211325928e-05 0)
(0.417835754256 -1.33833296752e-05 0)
(0.417853187267 -1.07055712497e-05 0)
(0.417867337152 -8.35725426056e-06 0)
(0.417878509648 -6.39379299294e-06 0)
(0.417887135665 -4.80755096921e-06 0)
(0.417893669943 -3.55961441105e-06 0)
(0.417898537276 -2.59876537811e-06 0)
(0.417902107883 -1.87225214118e-06 0)
(0.417904689876 -1.33147472298e-06 0)
(0.417906531222 -9.34535118006e-07 0)
(0.417907826282 -6.46887873888e-07 0)
(0.417908724056 -4.40985123203e-07 0)
(0.4179093367 -2.9543017197e-07 0)
(0.417909747318 -1.93891786805e-07 0)
(0.417910016403 -1.24178886416e-07 0)
(0.417910187157 -7.7776285622e-08 0)
(0.417910291212 -4.95041288968e-08 0)
(0.417910351926 -3.4013659142e-08 0)
(0.41791038465 -2.60630385786e-08 0)
(0.417910398914 -2.24021678167e-08 0)
(0.417910401565 -2.06140904494e-08 0)
(0.417910398246 -1.92166444604e-08 0)
(0.417910392291 -1.84930244071e-08 0)
(0.417910384954 -1.88392182946e-08 0)
(0.417910376868 -1.98441219867e-08 0)
(0.41791036824 -2.13566056754e-08 0)
(0.417910359109 -2.32588129747e-08 0)
(0.417910349543 -2.54756012203e-08 0)
(0.417910339702 -2.80158253803e-08 0)
(0.417910329706 -3.08655343356e-08 0)
(0.417910319654 -3.38632971083e-08 0)
(0.417910309591 -3.68995598162e-08 0)
(0.417910299455 -3.99318578936e-08 0)
(0.417910289136 -4.29129901846e-08 0)
(0.417910278484 -4.58087399799e-08 0)
(0.41791026735 -4.86159568763e-08 0)
(0.417910255665 -5.13910962349e-08 0)
(0.417910243374 -5.42787514704e-08 0)
(0.417910230386 -5.74201851048e-08 0)
(0.417910216672 -6.08907901133e-08 0)
(0.417910202279 -6.47181842198e-08 0)
(0.417910187244 -6.89217597071e-08 0)
(0.417910171609 -7.35005819639e-08 0)
(0.417910155399 -7.82551835372e-08 0)
(0.41791013868 -8.30935017333e-08 0)
(0.417910121581 -8.80064955169e-08 0)
(0.417910104136 -9.30090878262e-08 0)
(0.417910086272 -9.81648865885e-08 0)
(0.417910067843 -1.03600081717e-07 0)
(0.41791004861 -1.09419309471e-07 0)
(0.417910028259 -1.15651644629e-07 0)
(0.417910006623 -1.22267334656e-07 0)
(0.417909983905 -1.29188999455e-07 0)
(0.417909960621 -1.36292558667e-07 0)
(0.41790993729 -1.43470208099e-07 0)
(0.417909914157 -1.50742080791e-07 0)
(0.417909891156 -1.58288946229e-07 0)
(0.417909868023 -1.66341742933e-07 0)
(0.417909844492 -1.75034139076e-07 0)
(0.417909820476 -1.84364937195e-07 0)
(0.417909796114 -1.9425948112e-07 0)
(0.417909771688 -2.04632328442e-07 0)
(0.417909747534 -2.15429806063e-07 0)
(0.417909724026 -2.26660467274e-07 0)
(0.417909701573 -2.38384380041e-07 0)
(0.4179096806 -2.50688594287e-07 0)
(0.417909661533 -2.63714791057e-07 0)
(0.417909644781 -2.77682104238e-07 0)
(0.417909630796 -2.92825744703e-07 0)
(0.417909620221 -3.09324932299e-07 0)
(0.417909614014 -3.27304604917e-07 0)
(0.417909613546 -3.46940238043e-07 0)
(0.417909620466 -3.68644270207e-07 0)
(0.417909636432 -3.93493136009e-07 0)
(0.417909663559 -4.23248948981e-07 0)
(0.417909704285 -4.57217780023e-07 0)
(0.417909761596 -4.95466896339e-07 0)
(0.417909839573 -5.38346115267e-07 0)
(0.417909943388 -5.86309348375e-07 0)
(0.417910079203 -6.40024326025e-07 0)
(0.41791025423 -7.00265403039e-07 0)
(0.417910476913 -7.67997560269e-07 0)
(0.41791075664 -8.43683980232e-07 0)
(0.417911102874 -9.26421539619e-07 0)
(0.417911529061 -1.01129774982e-06 0)
(0.417912068345 -1.09200439683e-06 0)
(0.417912755363 -1.18044781284e-06 0)
(0.417913617551 -1.28369856845e-06 0)
(0.417914692797 -1.40697540139e-06 0)
(0.417916030632 -1.55608408703e-06 0)
(0.417917693133 -1.73811992394e-06 0)
(0.417919757381 -1.96177277304e-06 0)
(0.417922318798 -2.23782676524e-06 0)
(0.417925495283 -2.5797816959e-06 0)
(0.417929432243 -3.00452653018e-06 0)
(0.417934308759 -3.53346212468e-06 0)
(0.417940344024 -4.19408012472e-06 0)
(0.417947800456 -5.02541059555e-06 0)
(0.41795699113 -6.10128343063e-06 0)
(0.417968373679 -7.5616170902e-06 0)
(0.417982535332 -9.44293077189e-06 0)
(0.418000123413 -1.17952063276e-05 0)
(0.418021934425 -1.47114551048e-05 0)
(0.418048966992 -1.83191481966e-05 0)
(0.418082463188 -2.27796546664e-05 0)
(0.418123963575 -2.82935172167e-05 0)
(0.418175378369 -3.51088512299e-05 0)
(0.418239076315 -4.35326627139e-05 0)
(0.418317995614 -5.3945264234e-05 0)
(0.418415782899 -6.68189132832e-05 0)
(0.418536966985 -8.27416906501e-05 0)
(0.418687176656 -0.000102447066932 0)
(0.418873414643 -0.000126851750066 0)
(0.419104403264 -0.000157105514905 0)
(0.419391022658 -0.000194655339883 0)
(0.419746869556 -0.000241329069955 0)
(0.420188974399 -0.000299447590994 0)
(0.420738730418 -0.00037197545681 0)
(0.4214231096 -0.000462725530693 0)
(0.422276272848 -0.00057664465597 0)
(0.423341738096 -0.000720221167676 0)
(0.424675355893 -0.000902080142827 0)
(0.426349493629 -0.00113388779717 0)
(0.428459120129 -0.00143179549205 0)
(0.431131040965 -0.00181891754249 0)
(0.434538684168 -0.00233003564182 0)
(0.438927329705 -0.00302164580408 0)
(0.444660802717 -0.00399626105889 0)
(0.4523139719 -0.00546710832872 0)
(0.462849942506 -0.00793648882435 0)
(0.477954826668 -0.0126891970154 0)
(0.500891704461 -0.0232116224909 0)
(0.53798529848 -0.0491902665431 0)
(0.5931646928 -0.113760004642 0)
(1.03387038794 0.239240963855 0)
(1.08314081934 0.293634374126 0)
(1.03294437296 0.239131933369 0)
(0.954408203552 0.174539018332 0)
(0.880112583834 0.121551462129 0)
(0.818677615006 0.0832335937085 0)
(0.771466794332 0.0568258132348 0)
(0.736691576151 0.0388125742972 0)
(0.711672104824 0.0264913194341 0)
(0.693953132337 0.0180235778623 0)
(0.681568204226 0.012187620632 0)
(0.673018600783 0.00816650274951 0)
(0.667192229186 0.00540556418109 0)
(0.663277744413 0.00352226056987 0)
(0.66069030565 0.00224960991206 0)
(0.659012731435 0.00140002669138 0)
(0.657950524776 0.000841455810687 0)
(0.657298072329 0.00048112399983 0)
(0.656913529226 0.000254195891078 0)
(0.656700338413 0.000115712905451 0)
(0.65659372979 3.47984338832e-05 0)
(0.656551015132 -9.46338863323e-06 0)
(0.656544670815 -3.10077787985e-05 0)
(0.656557367201 -3.90715446016e-05 0)
(0.656578549414 -3.95438684739e-05 0)
(0.656602072274 -3.61162010319e-05 0)
(0.656624602092 -3.10268046957e-05 0)
(0.656644540286 -2.55657031117e-05 0)
(0.656661315799 -2.04216101955e-05 0)
(0.656674931673 -1.59145405145e-05 0)
(0.656685682127 -1.21477938482e-05 0)
(0.656693982032 -9.1051700931e-06 0)
(0.656700269131 -6.71139695234e-06 0)
(0.656704952183 -4.86828248026e-06 0)
(0.656708387254 -3.47516939176e-06 0)
(0.656710870572 -2.43954620143e-06 0)
(0.656712640465 -1.68168900714e-06 0)
(0.656713883731 -1.13571366173e-06 0)
(0.65671474382 -7.48694386238e-07 0)
(0.656715329074 -4.79068145909e-07 0)
(0.656715720043 -2.94786166913e-07 0)
(0.656715975653 -1.71348638396e-07 0)
(0.65671613841 -9.00344160849e-08 0)
(0.656716238462 -3.77496543057e-08 0)
(0.656716296844 -5.51031564592e-09 0)
(0.656716328443 1.34680030304e-08 0)
(0.656716343366 2.44304989647e-08 0)
(0.656716347188 3.09846701271e-08 0)
(0.6567163433 3.48478089012e-08 0)
(0.656716335352 3.78699234003e-08 0)
(0.656716325672 4.05558349131e-08 0)
(0.656716314903 4.319256673e-08 0)
(0.656716303338 4.59873741168e-08 0)
(0.656716291149 4.89846516864e-08 0)
(0.656716278527 5.22090644803e-08 0)
(0.65671626572 5.56952958313e-08 0)
(0.656716252946 5.94786294151e-08 0)
(0.656716240218 6.35624088696e-08 0)
(0.656716227424 6.80608979105e-08 0)
(0.656716214436 7.31175686971e-08 0)
(0.656716201076 7.88652441821e-08 0)
(0.656716187126 8.53615874625e-08 0)
(0.656716172396 9.25411661374e-08 0)
(0.656716156748 1.00203346356e-07 0)
(0.65671614013 1.08147577406e-07 0)
(0.656716122579 1.16248173875e-07 0)
(0.656716104138 1.24450540756e-07 0)
(0.656716084834 1.32873935864e-07 0)
(0.656716064862 1.41849094969e-07 0)
(0.656716044337 1.51529055945e-07 0)
(0.656716023194 1.62062931609e-07 0)
(0.656716001447 1.73468264913e-07 0)
(0.656715979089 1.85669702536e-07 0)
(0.656715956027 1.9858716055e-07 0)
(0.656715932114 2.12154435223e-07 0)
(0.656715907162 2.26307406273e-07 0)
(0.656715880974 2.41048250237e-07 0)
(0.65671585349 2.56517470373e-07 0)
(0.656715824927 2.72948564401e-07 0)
(0.656715795724 2.90539699877e-07 0)
(0.656715766275 3.09347272334e-07 0)
(0.656715736717 3.29260766904e-07 0)
(0.656715706946 3.50064462553e-07 0)
(0.656715676795 3.71567590174e-07 0)
(0.65671564618 3.93736090249e-07 0)
(0.656715615162 4.16694464431e-07 0)
(0.656715583933 4.40615500701e-07 0)
(0.656715552787 4.65655074684e-07 0)
(0.656715522086 4.91956733357e-07 0)
(0.656715492245 5.19624307954e-07 0)
(0.656715463732 5.48654224255e-07 0)
(0.656715437061 5.7891111927e-07 0)
(0.656715412783 6.10179549497e-07 0)
(0.656715391497 6.42239339709e-07 0)
(0.656715373927 6.7491786431e-07 0)
(0.656715361033 7.08113893418e-07 0)
(0.656715354043 7.41772355982e-07 0)
(0.656715354394 7.75846731672e-07 0)
(0.656715363357 8.10430694466e-07 0)
(0.656715382212 8.46299535751e-07 0)
(0.656715416049 8.84807009735e-07 0)
(0.656715470386 9.2351287364e-07 0)
(0.65671554894 9.60837306584e-07 0)
(0.656715657058 9.95529624278e-07 0)
(0.656715801782 1.02617493335e-06 0)
(0.65671599188 1.0508133241e-06 0)
(0.656716238101 1.0669910844e-06 0)
(0.656716553988 1.07167792351e-06 0)
(0.656716957229 1.06169335966e-06 0)
(0.656717471798 1.03464049331e-06 0)
(0.656718126561 9.91553461816e-07 0)
(0.656718942673 9.34601260493e-07 0)
(0.656719949721 8.47188238687e-07 0)
(0.656721200066 7.15637706031e-07 0)
(0.656722753846 5.26317564946e-07 0)
(0.656724683065 2.62861127035e-07 0)
(0.656727076591 -9.49632910452e-08 0)
(0.656730044462 -5.7234321829e-07 0)
(0.656733722827 -1.20072446264e-06 0)
(0.656738280102 -2.01933121548e-06 0)
(0.656743924491 -3.0769362565e-06 0)
(0.656750913841 -4.4341551185e-06 0)
(0.656759568796 -6.16639514025e-06 0)
(0.65677028721 -8.36660906161e-06 0)
(0.656783555716 -1.11433238114e-05 0)
(0.656799979259 -1.46147152148e-05 0)
(0.656820311241 -1.89829148873e-05 0)
(0.656845481406 -2.4491382736e-05 0)
(0.656876646679 -3.14285596539e-05 0)
(0.656915240648 -4.0148817391e-05 0)
(0.656963037179 -5.1091523689e-05 0)
(0.657022233239 -6.48014983243e-05 0)
(0.657095551581 -8.19543188589e-05 0)
(0.657186367805 -0.000103388148833 0)
(0.657298868354 -0.00013014338194 0)
(0.657438247726 -0.00016351295139 0)
(0.65761095537 -0.000205105940671 0)
(0.657825004446 -0.000256927834952 0)
(0.658090358542 -0.000321483555545 0)
(0.658419419508 -0.000401910286863 0)
(0.658827645251 -0.000502149156175 0)
(0.659334334093 -0.00062717104455 0)
(0.659963628277 -0.000783276656278 0)
(0.660745809424 -0.000978499214944 0)
(0.661718984844 -0.00122315523902 0)
(0.662931308091 -0.00153061340802 0)
(0.664443948744 -0.00191839446993 0)
(0.666335134651 -0.00240979446623 0)
(0.668705778797 -0.0030363687543 0)
(0.671687537585 -0.00384191570212 0)
(0.675454742659 -0.00488926372847 0)
(0.68024274868 -0.00627265091584 0)
(0.686377121276 -0.00814198322494 0)
(0.694321504754 -0.0107535647673 0)
(0.704756972519 -0.0145819199936 0)
(0.718698802591 -0.0205708867925 0)
(0.737612676059 -0.0306758240792 0)
(0.763483882199 -0.0489623387188 0)
(0.798347199547 -0.0836474389102 0)
(0.838465019217 -0.148369633208 0)
(1.03384128031 0.171306949682 0)
(1.1023158501 0.27555674129 0)
(1.11663620721 0.26631237146 0)
(1.09207924324 0.219892602903 0)
(1.05195419843 0.168210315825 0)
(1.01022221463 0.123615336381 0)
(0.973507720414 0.088885060778 0)
(0.943885950643 0.0630494635694 0)
(0.921162804823 0.044260799544 0)
(0.904299828324 0.0307744358912 0)
(0.892086139891 0.0211830158545 0)
(0.883411237064 0.0144172981366 0)
(0.877355064576 0.00968544091965 0)
(0.873196217155 0.00640758618481 0)
(0.870388065496 0.00416172297487 0)
(0.868526261095 0.00264232176018 0)
(0.867317305279 0.0016294780421 0)
(0.866551593459 0.000966026203067 0)
(0.86608166748 0.000540573853279 0)
(0.865805310519 0.000274927455814 0)
(0.86565273558 0.000114791574062 0)
(0.865577102137 2.29558054222e-05 0)
(0.865547488066 -2.57257618199e-05 0)
(0.865543949036 -4.80459778177e-05 0)
(0.865553995579 -5.49257856013e-05 0)
(0.865569998161 -5.33269625837e-05 0)
(0.865587535385 -4.75738360736e-05 0)
(0.865604225606 -4.02467477147e-05 0)
(0.865618939302 -3.28000254894e-05 0)
(0.86563128615 -2.59824990271e-05 0)
(0.86564128731 -2.01158529184e-05 0)
(0.865649170908 -1.52752164445e-05 0)
(0.865655248998 -1.14037142253e-05 0)
(0.865659847306 -8.38282542482e-06 0)
(0.865663268248 -6.07373839179e-06 0)
(0.86566577429 -4.34018799435e-06 0)
(0.865667583281 -3.05980815985e-06 0)
(0.865668870294 -2.12850175496e-06 0)
(0.865669772559 -1.46088482426e-06 0)
(0.865670395376 -9.8893869374e-07 0)
(0.865670818062 -6.59973607138e-07 0)
(0.865671099299 -4.34157787356e-07 0)
(0.865671281777 -2.81871198773e-07 0)
(0.865671396148 -1.81477913201e-07 0)
(0.865671464255 -1.17145383468e-07 0)
(0.865671501591 -7.73501190291e-08 0)
(0.865671519101 -5.41369963274e-08 0)
(0.865671524411 -4.18616771259e-08 0)
(0.865671522896 -3.59460754595e-08 0)
(0.865671517215 -3.33985077218e-08 0)
(0.865671508329 -3.34916904348e-08 0)
(0.865671497243 -3.56867079254e-08 0)
(0.865671484462 -3.94826475109e-08 0)
(0.865671470296 -4.4271613621e-08 0)
(0.865671455133 -4.96005379013e-08 0)
(0.865671439279 -5.51720482007e-08 0)
(0.865671422925 -6.09057535827e-08 0)
(0.865671406261 -6.67296764839e-08 0)
(0.865671389396 -7.25152461876e-08 0)
(0.86567137228 -7.81645111712e-08 0)
(0.865671354699 -8.36554277676e-08 0)
(0.865671336315 -8.90570860883e-08 0)
(0.865671316814 -9.45378308653e-08 0)
(0.865671295987 -1.00353854639e-07 0)
(0.865671273755 -1.06749604274e-07 0)
(0.865671250162 -1.13846743115e-07 0)
(0.86567122543 -1.21643319072e-07 0)
(0.865671199896 -1.29995473474e-07 0)
(0.865671173625 -1.38639792005e-07 0)
(0.865671146492 -1.47514550089e-07 0)
(0.865671118458 -1.56521086454e-07 0)
(0.865671089479 -1.65666170125e-07 0)
(0.865671059517 -1.75109107856e-07 0)
(0.865671028497 -1.85050677775e-07 0)
(0.865670996262 -1.95643111119e-07 0)
(0.865670962627 -2.06976878843e-07 0)
(0.865670927474 -2.19056510316e-07 0)
(0.865670890846 -2.31777319587e-07 0)
(0.865670852988 -2.4497078843e-07 0)
(0.865670814264 -2.58524467684e-07 0)
(0.865670774977 -2.72477246667e-07 0)
(0.865670735212 -2.87004535155e-07 0)
(0.865670694871 -3.02329941835e-07 0)
(0.865670653848 -3.18644212426e-07 0)
(0.865670612174 -3.36075143449e-07 0)
(0.865670570034 -3.54705385224e-07 0)
(0.865670527718 -3.74591546668e-07 0)
(0.865670485577 -3.95759140442e-07 0)
(0.865670444017 -4.18223971725e-07 0)
(0.865670403485 -4.42078114416e-07 0)
(0.865670364482 -4.67585802464e-07 0)
(0.865670327574 -4.9516715109e-07 0)
(0.865670293403 -5.25277300962e-07 0)
(0.865670262744 -5.58377917544e-07 0)
(0.865670236604 -5.94985625004e-07 0)
(0.865670216313 -6.356511441e-07 0)
(0.865670203562 -6.80887460042e-07 0)
(0.865670200642 -7.31129982918e-07 0)
(0.865670210873 -7.86751465942e-07 0)
(0.865670238294 -8.47614318237e-07 0)
(0.86567028434 -9.12910709857e-07 0)
(0.865670351128 -9.8544206776e-07 0)
(0.86567044508 -1.06733742171e-06 0)
(0.865670573526 -1.16075621546e-06 0)
(0.86567074494 -1.26827513883e-06 0)
(0.865670969399 -1.39324817202e-06 0)
(0.865671259112 -1.54007029072e-06 0)
(0.865671629118 -1.71418691034e-06 0)
(0.865672098132 -1.92268641988e-06 0)
(0.865672689744 -2.1753840361e-06 0)
(0.865673434233 -2.48729414463e-06 0)
(0.865674367447 -2.87745884039e-06 0)
(0.865675533294 -3.35559568441e-06 0)
(0.865676987398 -3.93945679197e-06 0)
(0.865678797118 -4.65371083195e-06 0)
(0.865681045849 -5.52908330235e-06 0)
(0.865683837142 -6.60349634195e-06 0)
(0.865687299348 -7.92403928878e-06 0)
(0.865691591433 -9.54915894237e-06 0)
(0.865696910119 -1.15514264853e-05 0)
(0.865703498715 -1.40207779064e-05 0)
(0.865711658443 -1.70686617414e-05 0)
(0.865721763101 -2.08342123986e-05 0)
(0.865734276347 -2.54931247561e-05 0)
(0.865749770485 -3.12669579393e-05 0)
(0.865768954142 -3.84244804648e-05 0)
(0.865792704518 -4.72946370479e-05 0)
(0.865822106395 -5.82776863563e-05 0)
(0.865858506205 -7.18717245442e-05 0)
(0.865903572922 -8.86997042893e-05 0)
(0.865959373588 -0.000109537557466 0)
(0.866028468627 -0.000135349567955 0)
(0.866114030603 -0.000167333576019 0)
(0.866219991961 -0.000206977763767 0)
(0.86635122843 -0.000256132094738 0)
(0.866513787337 -0.000317097992816 0)
(0.866715173034 -0.000392741409921 0)
(0.866964703199 -0.000486636643082 0)
(0.867273954351 -0.00060324930996 0)
(0.867657321494 -0.000748170363429 0)
(0.868132722984 -0.000928419354065 0)
(0.868722491591 -0.00115284105691 0)
(0.869454507807 -0.00143262813289 0)
(0.870363650097 -0.00178202094792 0)
(0.871493664315 -0.00221926022243 0)
(0.872899596019 -0.00276790632492 0)
(0.874650989679 -0.00345871283925 0)
(0.876836155264 -0.0043323638677 0)
(0.879567951183 -0.00544360394736 0)
(0.882991756042 -0.00686772636307 0)
(0.887296648271 -0.00871125919988 0)
(0.892731273364 -0.011130464981 0)
(0.899626260246 -0.0143649770702 0)
(0.908424669368 -0.0188013540059 0)
(0.919718452011 -0.0250960083706 0)
(0.934269781807 -0.0344115740298 0)
(0.952934166776 -0.0488377285868 0)
(0.976323986994 -0.0720089328291 0)
(1.00378220958 -0.109669993498 0)
(1.02954630391 -0.168435502328 0)
(1.02388345501 0.119321986861 0)
(1.08875436399 0.231514420163 0)
(1.13660483261 0.252868939194 0)
(1.1540627247 0.228905047575 0)
(1.15000112534 0.188337385816 0)
(1.1353762381 0.146577292385 0)
(1.11757777915 0.110164821404 0)
(1.10059200009 0.0808376077781 0)
(1.08612241568 0.0582502017817 0)
(1.07458762144 0.0413417862795 0)
(1.06578679778 0.0289362828497 0)
(1.05928156592 0.0199770191556 0)
(1.05459132546 0.0135949286458 0)
(1.05128026667 0.00910742607743 0)
(1.04898736029 0.00599313249802 0)
(1.04742905178 0.00386144164299 0)
(1.04639045988 0.00242413776931 0)
(1.04571299291 0.00147134966372 0)
(1.04528206217 0.000852137240879 0)
(1.04501638048 0.000459263819613 0)
(1.04485925757 0.000217489587907 0)
(1.04477182744 7.47177270535e-05 0)
(1.04472784556 -4.6462718109e-06 0)
(1.04470997859 -4.44456506736e-05 0)
(1.04470705144 -6.05353151159e-05 0)
(1.04471197353 -6.30922539363e-05 0)
(1.04472041364 -5.85427645058e-05 0)
(1.04472985534 -5.08102554793e-05 0)
(1.04473893051 -4.21794155605e-05 0)
(1.04474697822 -3.38924177293e-05 0)
(1.04475375815 -2.65477357681e-05 0)
(1.04475926586 -2.036173251e-05 0)
(1.04476361703 -1.5336868077e-05 0)
(1.04476697757 -1.13668755353e-05 0)
(1.04476952353 -8.30015930824e-06 0)
(1.04477141967 -5.97612401221e-06 0)
(1.04477280976 -4.24440661826e-06 0)
(1.04477381366 -2.97370315114e-06 0)
(1.0447745281 -2.0545259535e-06 0)
(1.04477502895 -1.3985862452e-06 0)
(1.0447753743 -9.36689075314e-07 0)
(1.04477560793 -6.15942165381e-07 0)
(1.04477576227 -3.96504285369e-07 0)
(1.04477586106 -2.48692864019e-07 0)
(1.04477592159 -1.50646198699e-07 0)
(1.04477595643 -8.6512691349e-08 0)
(1.04477597438 -4.51024711736e-08 0)
(1.04477598111 -1.88255256238e-08 0)
(1.0447759801 -2.82198210685e-09 0)
(1.04477597353 5.82291619995e-09 0)
(1.04477596301 9.88571413768e-09 0)
(1.04477594993 1.14228971201e-08 0)
(1.04477593527 1.16316382997e-08 0)
(1.04477591957 1.11945538377e-08 0)
(1.04477590303 1.04391196223e-08 0)
(1.04477588583 9.56443949574e-09 0)
(1.04477586813 8.75552059424e-09 0)
(1.04477585013 8.27731110045e-09 0)
(1.04477583183 8.28688044671e-09 0)
(1.04477581308 8.85464879603e-09 0)
(1.04477579361 9.94800666967e-09 0)
(1.04477577305 1.14506936707e-08 0)
(1.04477575104 1.31905499182e-08 0)
(1.04477572738 1.49657301671e-08 0)
(1.04477570208 1.6613249879e-08 0)
(1.04477567534 1.81180727535e-08 0)
(1.04477564741 1.95897315521e-08 0)
(1.04477561852 2.11436695828e-08 0)
(1.04477558878 2.28483434408e-08 0)
(1.04477555816 2.49331202981e-08 0)
(1.04477552655 2.75042939745e-08 0)
(1.04477549376 3.05226011467e-08 0)
(1.04477545962 3.38355653873e-08 0)
(1.04477542405 3.72585288735e-08 0)
(1.04477538698 4.06519961924e-08 0)
(1.04477534831 4.39801163093e-08 0)
(1.04477530805 4.73379049359e-08 0)
(1.04477526627 5.09168242548e-08 0)
(1.04477522323 5.49047198714e-08 0)
(1.04477517918 5.93711408229e-08 0)
(1.04477513428 6.42382801034e-08 0)
(1.04477508855 6.93517884625e-08 0)
(1.04477504187 7.45668169247e-08 0)
(1.04477499416 7.97826114008e-08 0)
(1.04477494548 8.49370880449e-08 0)
(1.044774896 9.00096016439e-08 0)
(1.04477484606 9.50135838641e-08 0)
(1.04477479606 9.99408120315e-08 0)
(1.04477474637 1.04696004983e-07 0)
(1.04477469735 1.09086612223e-07 0)
(1.04477464936 1.12841368992e-07 0)
(1.04477460294 1.15605498035e-07 0)
(1.04477455883 1.16954829141e-07 0)
(1.04477451781 1.16400200307e-07 0)
(1.04477448087 1.1333272219e-07 0)
(1.04477444935 1.06970980232e-07 0)
(1.04477442503 9.63863902838e-08 0)
(1.04477440997 8.04791784225e-08 0)
(1.0447744066 5.76554638822e-08 0)
(1.04477441802 2.52101519417e-08 0)
(1.04477444802 -2.05978944595e-08 0)
(1.0447745013 -8.1059712654e-08 0)
(1.04477458373 -1.58653779921e-07 0)
(1.04477470234 -2.57040205537e-07 0)
(1.04477486579 -3.81044660901e-07 0)
(1.04477508456 -5.36566731691e-07 0)
(1.04477537152 -7.30858559247e-07 0)
(1.04477574273 -9.72387731536e-07 0)
(1.04477621812 -1.27126837884e-06 0)
(1.04477682243 -1.63964165116e-06 0)
(1.04477758604 -2.09259308527e-06 0)
(1.04477854523 -2.6501100531e-06 0)
(1.0447797451 -3.33638419486e-06 0)
(1.04478124293 -4.18267929565e-06 0)
(1.04478310924 -5.22715528027e-06 0)
(1.04478543114 -6.51617961977e-06 0)
(1.0447883163 -8.10662736326e-06 0)
(1.044791898 -1.00687913516e-05 0)
(1.04479634122 -1.24897654608e-05 0)
(1.04480185015 -1.54774049071e-05 0)
(1.04480867763 -1.91655963688e-05 0)
(1.0448171366 -2.37206513595e-05 0)
(1.04482761481 -2.93491284953e-05 0)
(1.04484059264 -3.63085410559e-05 0)
(1.04485666383 -4.49201338479e-05 0)
(1.0448765634 -5.55806533493e-05 0)
(1.04490120114 -6.87798138783e-05 0)
(1.0449317026 -8.51197724227e-05 0)
(1.04496946293 -0.000105345745773 0)
(1.04501621123 -0.000130382872762 0)
(1.0450740894 -0.000161379508878 0)
(1.04514575034 -0.000199760611997 0)
(1.04523448008 -0.000247294522719 0)
(1.04534434982 -0.000306176823982 0)
(1.04548040482 -0.000379135664128 0)
(1.04564889912 -0.000469563200848 0)
(1.04585758729 -0.000581681269181 0)
(1.04611608806 -0.00072075162386 0)
(1.04643633804 -0.000893342249683 0)
(1.04683315779 -0.00110766761574 0)
(1.04732496002 -0.00137402749379 0)
(1.04793463933 -0.00170537602414 0)
(1.04869069205 -0.00211806745845 0)
(1.04962863079 -0.00263284761926 0)
(1.05079278085 -0.00327618967432 0)
(1.05223857149 -0.0040821242061 0)