/*--------------------------------*- C++ -*----------------------------------*\
| =========                 |                                                 |
| \\      /  F ield         | OpenFOAM: The Open Source CFD Toolbox           |
|  \\    /   O peration     | Version:  2106                                  |
|   \\  /    A nd           | Website:  www.openfoam.com                      |
|    \\/     M anipulation  |                                                 |
\*---------------------------------------------------------------------------*/
FoamFile
{
    version     2.0;
    format      ascii;
    arch        "LSB;label=32;scalar=64";
    class       volScalarField;
    location    "0.2";
    object      p;
}
// * * * * * * * * * * * * * * * * * * * * * * * * * * * * * * * * * * * * * //

dimensions      [0 2 -2 0 0 0 0];

internalField   nonuniform List<scalar> 
9600
(
2.22652610505
-0.671483982821
-1.57571506506
-1.96132596229
-2.18065757995
-2.32059993139
-2.42450514043
-2.51205500746
-2.59155425024
-2.66694460874
-2.74031883013
-2.81282767921
-2.88510092458
-2.95746957787
-3.03009014284
-3.10301835957
-3.17625425583
-3.2497696359
-3.32352416567
-3.39747503331
-3.47158144787
-3.54580889515
-3.62012682867
-3.69451127278
-3.76894296227
-3.84340657883
-3.91789046615
-3.99238583003
-4.0668859545
-4.14138545802
-4.21588018501
-4.29036695509
-4.36484314811
-4.4393064549
-4.51375476131
-4.58818608071
-4.6625984777
-4.73699004075
-4.81135878471
-4.88570259219
-4.96001917833
-5.03430603114
-5.10856060738
-5.18278003518
-5.25696123347
-5.33110093195
-5.40519569829
-5.47924179266
-5.55323507832
-5.62717109678
-5.70104509477
-5.77485201392
-5.84858643426
-5.92224257617
-5.99581431923
-6.06929495342
-6.14267718389
-6.21595336175
-6.28911544703
-6.36215481439
-6.43506212838
-6.50782735647
-6.58043991522
-6.65288877586
-6.72516208601
-6.79724695225
-6.86912988941
-6.94079689937
-7.01223293122
-7.08342173863
-7.15434627217
-7.22498871954
-7.29533021118
-7.36535068195
-7.43502908574
-7.50434322799
-7.5732694986
-7.64178319776
-7.70985841078
-7.77746776907
-7.84458249539
-7.91117250247
-7.97720641972
-8.04265125169
-8.10747234101
-8.17163329092
-8.2350962441
-8.29782181423
-8.35976864
-8.42089376771
-8.48115253931
-8.54049843046
-8.59888275956
-8.65625489973
-8.71256293586
-8.76775294461
-8.82176841299
-8.87455102599
-8.92604115474
-8.97617671325
-9.02489326617
-9.07212460433
-9.11780276936
-9.16185801928
-9.20421800989
-9.24480868551
-9.28355427981
-9.32037675423
-9.35519652721
-9.38793213058
-9.41850016377
-9.44681559022
-9.47279179523
-9.49634045737
-9.51737183589
-9.53579457026
-9.55151577905
-9.56444173451
-9.57447742356
-9.5815268033
-9.58549267119
-9.58627689119
-9.58378068785
-9.57790420581
-9.56854748523
-9.55561148858
-9.53899406045
-9.51859311849
-9.49430718868
-9.46603466166
-9.43367223103
-9.39711745116
-9.35626796862
-9.31101927931
-9.26126692707
-9.20690561072
-9.14782777123
-9.08392348165
-9.0150809224
-8.94118349346
-8.8621091278
-8.77773014495
-8.68790764495
-8.59249181755
-8.49131704766
-8.38419610896
-8.27091523054
-8.15122332808
-8.02482108172
-7.89134177031
-7.75032309286
-7.6011654083
-7.44306059446
-7.27486320908
-7.09487655751
-6.9005412765
-6.68794609815
-6.45126242995
-6.19113408644
-5.97181233912
0.314985083802
-0.867369574629
-1.47604317124
-1.8300674541
-2.0726844989
-2.24324737272
-2.37131899797
-2.47582199245
-2.56689757137
-2.65017611909
-2.72894939936
-2.80516670205
-2.87998739598
-2.95409982563
-3.02790604188
-3.10163266298
-3.17539932772
-3.24926193017
-3.32323906262
-3.3973290334
-3.47152026342
-3.54579626827
-3.62014012411
-3.69453656768
-3.76897221765
-3.84343550056
-3.91791685727
-3.99240870958
-4.06690520781
-4.14140151924
-4.21589360447
-4.2903781958
-4.36485266286
-4.43931470815
-4.51376220782
-4.58819313462
-4.6626054178
-4.73699708168
-4.81136608996
-4.88571028632
-4.96002740626
-5.0343149394
-5.10857018872
-5.1827904433
-5.25697260917
-5.33111335791
-5.40520916319
-5.4792562577
-5.55325062296
-5.62718787698
-5.70106326296
-5.77487173343
-5.8486078084
-5.92226559427
-5.99583901541
-6.06932151473
-6.14270589522
-6.21598441366
-6.28914887763
-6.36219062417
-6.43510047187
-6.50786855538
-6.58048420168
-6.65293622115
-6.7252129382
-6.79730160739
-6.86918847191
-6.9408593409
-7.01229940855
-7.08349270878
-7.15442213217
-7.22506972918
-7.29541666847
-7.36544284597
-7.43512713423
-7.50444746167
-7.57338024769
-7.64190075007
-7.7099831401
-7.77760016211
-7.84472306531
-7.91132159812
-7.97736426171
-8.04281812833
-8.10764868804
-8.17181962474
-8.23529306119
-8.29802964014
-8.35998795557
-8.42112493944
-8.48139586602
-8.54075436675
-8.59915204339
-8.65653813482
-8.71286039965
-8.76806508571
-8.82209603436
-8.87489462874
-8.92640096007
-8.97655328025
-9.0252873576
-9.07253682648
-9.11823353027
-9.16230778891
-9.20468735915
-9.24529817598
-9.28406448765
-9.32090820477
-9.35574963312
-9.38850726626
-9.41909771931
-9.44743588307
-9.47343504609
-9.49700697209
-9.51806194673
-9.53650889784
-9.55225487574
-9.56520583284
-9.57526697768
-9.5823421002
-9.58633407513
-9.58714489797
-9.58467597826
-9.57882762551
-9.56949932988
-9.55658989103
-9.53999974146
-9.51962743123
-9.49537130441
-9.46713103376
-9.43480411288
-9.39828800518
-9.35748174211
-9.3122819691
-9.26258545965
-9.20828895124
-9.14928763448
-9.08547416918
-9.01673983503
-8.94297299062
-8.8640565524
-8.77986981863
-8.69028328372
-8.59515799911
-8.49434302446
-8.38767034368
-8.27495136919
-8.15596867903
-8.03046911595
-7.89815198823
-7.75865212028
-7.6115191036
-7.45619329694
-7.2919704811
-7.11797335158
-6.93322160466
-6.73686476283
-6.52801500503
-6.30696042916
-6.09609356067
-0.66085686067
-1.14222521196
-1.53348361636
-1.82509921572
-2.04667332337
-2.21460913869
-2.3467105981
-2.45649952708
-2.55235831033
-2.63950298098
-2.72124538895
-2.79968012904
-2.87612744091
-2.95141696869
-3.02606498411
-3.10038688876
-3.17456966218
-3.24871957049
-3.32289242047
-3.3971136594
-3.47139116814
-3.54572305283
-3.62010226106
-3.69452022939
-3.76896834761
-3.84343845655
-3.91792325429
-3.99241645331
-4.06691304074
-4.14140886198
-4.21590030005
-4.2903842582
-4.36485811676
-4.43931960171
-4.51376664905
-4.5881972627
-4.66260940709
-4.73700105517
-4.81137010731
-4.8857143604
-4.96003158262
-5.03431925237
-5.10857470192
-5.18279517092
-5.25697764655
-5.33111882996
-5.40521513578
-5.47926279336
-5.55325773082
-5.62719554729
-5.70107151811
-5.77488064441
-5.84861750516
-5.92227615797
-5.99585038625
-6.0693336645
-6.14271890826
-6.21599843157
-6.28916402124
-6.36220691705
-6.43511791055
-6.50788724275
-6.58050428677
-6.65295768987
-6.72523575384
-6.79732599093
-6.86921476384
-6.94088763406
-7.01232960755
-7.08352481404
-7.15445630404
-7.22510613995
-7.29545547403
-7.36548424294
-7.43517124321
-7.50449438826
-7.5734301745
-7.64195378535
-7.71003931593
-7.77765961527
-7.84478610138
-7.91138851432
-7.97743521532
-8.04289315496
-8.10772789509
-8.17190327922
-8.23538134167
-8.29812270938
-8.36008613162
-8.42122854306
-8.48150500327
-8.54086898897
-8.59927239713
-8.65666467983
-8.71299325975
-8.76820425924
-8.82224191816
-8.87504762491
-8.92656111051
-8.97672055529
-9.02546190428
-9.07271900016
-9.11842348773
-9.1625055799
-9.20489327871
-9.24551233134
-9.28428701483
-9.32113945558
-9.35598979309
-9.38875653446
-9.41935668789
-9.44770507385
-9.4737149782
-9.49729794683
-9.51836407957
-9.53682258097
-9.55258061281
-9.56554430391
-9.57561873725
-9.58270771233
-9.58671425839
-9.58754026704
-9.58508716459
-9.57925628747
-9.56994735245
-9.55705991491
-9.54049401581
-9.52014850495
-9.49592149028
-9.4677130296
-9.43542190108
-9.39894596768
-9.35818492374
-9.31303721202
-9.26340062028
-9.20917320066
-9.15025295934
-9.0865353709
-9.01791496216
-8.94428495931
-8.86553334261
-8.7815461396
-8.69220278003
-8.59737515818
-8.49692668828
-8.39070741177
-8.27855308854
-8.16027876771
-8.03567432952
-7.90449974455
-7.76647705614
-7.62128236684
-7.46854697867
-7.30786680684
-7.13883335449
-6.961163066
-6.77499409411
-6.58102771905
-6.38057455818
-6.18234927969
-1.21231711496
-1.39866340629
-1.64111088488
-1.86357827176
-2.05076921171
-2.20479723499
-2.33323428256
-2.44352503582
-2.54131987103
-2.63067996078
-2.71445117433
-2.79457808563
-2.87236809587
-2.94869026332
-3.02411502205
-3.09901113619
-3.17361216275
-3.24806261076
-3.32244863866
-3.39681905313
-3.4711993046
-3.54560091205
-3.6200272618
-3.69447607032
-3.76894393106
-3.84342632899
-3.91791862889
-3.99241625487
-4.06691520429
-4.1414120737
-4.21590385512
-4.29038784068
-4.36486159019
-4.43932291053
-4.51376973076
-4.58820011406
-4.66261210002
-4.73700366863
-4.81137270185
-4.88571698395
-4.96003427042
-5.03432210933
-5.1085777697
-5.18279842441
-5.25698107675
-5.33112247138
-5.40521904742
-5.47926699751
-5.55326222977
-5.62720035969
-5.70107666235
-5.77488609416
-5.84862334785
-5.92228251706
-5.99585732699
-6.06934114971
-6.14272688497
-6.21600696226
-6.28917323249
-6.36221689148
-6.43512858979
-6.50789864748
-6.58051661243
-6.65297103226
-6.7252499474
-6.79734098385
-6.86923076768
-6.94090484933
-7.0123480667
-7.08354452794
-7.15447733842
-7.22512851616
-7.29547921956
-7.3655094902
-7.43519807006
-7.50452283276
-7.57346041591
-7.64198601011
-7.71007356889
-7.77769584068
-7.84482433081
-7.91142894076
-7.97747804946
-8.04293850135
-8.10777582264
-8.17195393874
-8.23543481446
-8.29817900528
-8.36014537053
-8.421290994
-8.48157092386
-8.54093837082
-8.59934523517
-8.65674128322
-8.71307391534
-8.76828890818
-8.82233058527
-8.87514069652
-8.92665887453
-8.97682312094
-9.02556942591
-9.07283186138
-9.11854197522
-9.16262985574
-9.20502358588
-9.24564886729
-9.28442995594
-9.3212890279
-9.35614627321
-9.38892010718
-9.41952725166
-9.44788268668
-9.47389984985
-9.49749045399
-9.51856455244
-9.53703105509
-9.55279738277
-9.56576973227
-9.5758532604
-9.58295190439
-9.58696892557
-9.58780608811
-9.58536480394
-9.5795464633
-9.57025143661
-9.55737918155
-9.54082987759
-9.52050361846
-9.49629885311
-9.46811545482
-9.43585380037
-9.39941254403
-9.35869212545
-9.31359283146
-9.26401406019
-9.20985563646
-9.15101797912
-9.08739984752
-9.01889939399
-8.94541468417
-8.86683968432
-8.78306739856
-8.69398662623
-8.59948098681
-8.49942864373
-8.39369837758
-8.28215051719
-8.16463253367
-8.04097682139
-7.91100067409
-7.77450552941
-7.63127745935
-7.48109847055
-7.32377302015
-7.15916802126
-6.98730795186
-6.8085415537
-6.62360402577
-6.43345941781
-6.24128025206
-1.54966241222
-1.6014254106
-1.74532091717
-1.90961370229
-2.06394648561
-2.20200466947
-2.32415815441
-2.43294651067
-2.53139086006
-2.62222113247
-2.70762886856
-2.78926701701
-2.86833721722
-2.94569127964
-3.02192083884
-3.09742966689
-3.17248834117
-3.24727507152
-3.32190464971
-3.39644908532
-3.47095192533
-3.54543868313
-3.61992328108
-3.69441130905
-3.76890515526
-3.84340435865
-3.91790727938
-3.99241150066
-4.06691439291
-4.14141343471
-4.21590626254
-4.29039067179
-4.36486456117
-4.43932588137
-4.51377262175
-4.58820288615
-4.66261476058
-4.73700624701
-4.81137526944
-4.88571958201
-4.96003690599
-5.03432483678
-5.10858070228
-5.18280162475
-5.25698454216
-5.33112619727
-5.40522308163
-5.47927140395
-5.55326707666
-5.62720570826
-5.70108253601
-5.77489247736
-5.84863015282
-5.92228983989
-5.99586527755
-6.0693497265
-6.14273612572
-6.21601684253
-6.28918374047
-6.36222814576
-6.4351406779
-6.5079115281
-6.58053034828
-6.65298583138
-6.7252658877
-6.79735798166
-6.86924884044
-6.9409241563
-7.0123687333
-7.08356660871
-7.15450093132
-7.22515372151
-7.29550607006
-7.36553808999
-7.43522852234
-7.50455515631
-7.57349470039
-7.64202244632
-7.71011233788
-7.77773700801
-7.84486791186
-7.91147502003
-7.97752679487
-8.04299010108
-8.10783038845
-8.17201159262
-8.23549570328
-8.29824324445
-8.36021301253
-8.42136211301
-8.4816457618
-8.54101711839
-8.59942789118
-8.65682797962
-8.71316494779
-8.76838429707
-8.82243025791
-8.87524486265
-8.92676772483
-8.97693668139
-9.02568769057
-9.07295494567
-9.11867008046
-9.16276297805
-9.20516184311
-9.24579252257
-9.28457904882
-9.32144360834
-9.35630657693
-9.38908636691
-9.41969971426
-9.44806147127
-9.47408505932
-9.49768255721
-9.51876386423
-9.53723783861
-9.55301201124
-9.56599260771
-9.57608476778
-9.58319251949
-9.58721935358
-9.58806738539
-9.58563777957
-9.57983214584
-9.57055137193
-9.55769511825
-9.54116347713
-9.52085745602
-9.49667624195
-9.46851975215
-9.4362894084
-9.39988515675
-9.35920806319
-9.31415999319
-9.2646426672
-9.21055774429
-9.15180810867
-9.08829620614
-9.01992371126
-8.9465937307
-8.86820665063
-8.78466262128
-8.6958599126
-8.6016937314
-8.50205715662
-8.3968375893
-8.28591871271
-8.16917867879
-8.04648912995
-7.91771762198
-7.78273157546
-7.64140353285
-7.49362369539
-7.33932732219
-7.17852638465
-7.01136223893
-6.83816255122
-6.65939245242
-6.4753875421
-6.28671855221
-1.75373674944
-1.74875770763
-1.83273353811
-1.95352271925
-2.08016524635
-2.20284542394
-2.3177423
-2.42393841548
-2.52222166023
-2.61401102503
-2.70077208686
-2.78378738166
-2.86409164361
-2.9424785937
-3.01953610444
-3.09568878685
-3.17123664771
-3.24638800824
-3.32128493697
-3.39602259807
-3.47066313624
-3.54524646574
-3.6197975448
-3.69433153235
-3.76885603863
-3.84337541457
-3.91789125916
-3.99240360035
-4.06691148247
-4.14141346417
-4.21590788649
-4.29039306174
-4.36486723754
-4.43932861161
-4.51377532199
-4.58820551286
-4.66261728277
-4.73700866788
-4.81137764927
-4.88572198476
-4.96003933128
-5.03432729275
-5.10858325454
-5.18280435929
-5.25698749946
-5.3311293781
-5.40522647691
-5.47927501481
-5.55327090689
-5.62720978915
-5.70108693292
-5.7748971874
-5.84863517336
-5.92229520289
-5.99587103962
-6.06935600145
-6.1427429517
-6.21602418335
-6.28919160118
-6.36223661076
-6.43514983885
-6.50792133137
-6.58054073764
-6.65299694546
-6.72527789966
-6.79737088941
-6.8692625903
-6.94093879745
-7.01238436701
-7.08358329396
-7.15451872143
-7.22517268452
-7.29552622139
-7.36555950892
-7.43525135131
-7.50457940444
-7.57352033813
-7.64204956355
-7.71014111579
-7.77776757753
-7.84490031021
-7.91150926587
-7.97756300172
-8.04302842083
-8.10787082519
-8.17205420305
-8.23554069872
-8.29829078326
-8.36026313888
-8.42141485133
-8.48170133619
-8.5410757423
-8.59948951113
-8.6568926309
-8.7132329542
-8.76845585998
-8.82250536072
-8.87532362554
-8.92685042017
-8.97702354891
-9.02577876491
-9.07305036084
-9.11877015864
-9.16286779173
-9.20527146592
-9.24590717721
-9.28469890607
-9.32156881021
-9.35643720862
-9.38922261664
-9.41984187648
-9.44820971244
-9.4742394893
-9.49784335389
-9.51893137038
-9.53741239343
-9.55319407143
-9.56618259846
-9.57628320586
-9.58339993639
-9.58743634455
-9.58829505323
-9.58587731711
-9.58008450251
-9.57081803217
-9.55797820349
-9.54146500914
-9.52117975992
-9.49702295803
-9.468894664
-9.43669702895
-9.40033152527
-9.35969986558
-9.31470541719
-9.26525208232
-9.21124343425
-9.1525849118
-9.0891825279
-9.0209416083
-8.94776995277
-8.8695741431
-8.78626156181
-8.69773934018
-8.60391337973
-8.5046906777
-8.39997567043
-8.28967270745
-8.17368652734
-8.05192198382
-7.92428708886
-7.79069871354
-7.65109004781
-7.50542039111
-7.35369553953
-7.19598685276
-7.03245316484
-6.86334018758
-6.68889100096
-6.50910310977
-6.32368958705
-1.8768657984
-1.85140876888
-1.90076842422
-1.9909284998
-2.09585267178
-2.20517518877
-2.31301231905
-2.41623597019
-2.51390988618
-2.60630053099
-2.6941721199
-2.77841623522
-2.85987167677
-2.93924977483
-3.0171176766
-3.09390983626
-3.16994910533
-3.24547009003
-3.32064000759
-3.39557615558
-3.47035898269
-3.54504280944
-3.61966381589
-3.69424569809
-3.76880244894
-3.84334331482
-3.91787309041
-3.99239419983
-4.06690746511
-4.1414126699
-4.21590893891
-4.29039506406
-4.36486962307
-4.43933108339
-4.51377776807
-4.58820789205
-4.66261957092
-4.73701083939
-4.81137970836
-4.88572401744
-4.9600414203
-5.03432944222
-5.10858546038
-5.18280665717
-5.25698995057
-5.33113202749
-5.40522934918
-5.47927811828
-5.5532742444
-5.62721337774
-5.7010908236
-5.77490144596
-5.84863984015
-5.92230022955
-5.99587642463
-6.06936177988
-6.14274913006
-6.21603081372
-6.2891986625
-6.36224409885
-6.43515789623
-6.5079300324
-6.58054999682
-6.65300674727
-6.72528837757
-6.79738214163
-6.86927462529
-6.94095164105
-7.01239810081
-7.083597973
-7.15453437982
-7.22518938681
-7.29554398407
-7.36557836631
-7.43527143753
-7.50460081438
-7.57354307244
-7.64207361244
-7.7101665694
-7.77779458547
-7.84492896995
-7.9115396229
-7.9775951154
-8.04306241458
-8.10790676445
-8.17209210913
-8.23558063207
-8.29833285559
-8.36030748687
-8.42146150069
-8.48175033786
-8.54112728257
-8.59954366607
-8.65694931468
-8.71329229369
-8.76851811274
-8.82257049486
-8.8753915975
-8.92692141909
-8.97709778036
-9.02585625833
-9.07313114534
-9.11885446108
-9.16295577493
-9.20536316087
-9.24600268006
-9.28479846638
-9.32167257961
-9.35654528589
-9.3893351359
-9.41995898087
-9.44833181313
-9.47436679044
-9.4979760216
-9.51906971158
-9.53755670271
-9.55334472519
-9.56634006913
-9.57644820162
-9.58357303623
-9.58761804419
-9.58848638926
-9.58607957264
-9.58029877922
-9.57104571529
-9.55822151244
-9.54172617049
-9.52146116902
-9.49732810776
-9.46922756394
-9.43706222526
-9.40073493142
-9.36014856369
-9.31520762483
-9.26581790048
-9.21188521302
-9.15331718134
-9.09002325167
-9.02191260346
-8.94889712975
-8.87088903503
-8.78780252941
-8.69955303509
-8.60605603366
-8.5072306203
-8.40299626214
-8.29327481199
-8.17799263597
-8.05708121311
-7.93047960866
-7.79813999492
-7.66003534971
-7.51616621737
-7.36657362748
-7.21134729466
-7.05063125284
-6.88460568047
-6.71340780013
-6.53697652586
-6.35499676581
-1.95090776848
-1.91985759503
-1.94978785766
-2.01956105489
-2.10872877599
-2.20760549122
-2.30948501458
-2.40995742317
-2.50688407012
-2.59963050154
-2.68836780918
-2.77363433384
-2.85607951648
-2.93632735565
-3.01491630891
-3.09228309875
-3.16876722442
-3.24462479747
-3.32004445987
-3.39516275555
-3.47007652358
-3.54485314687
-3.61953893359
-3.69416541554
-3.76875198474
-3.84331284291
-3.91785568009
-3.99238506747
-4.06690340071
-4.14141161167
-4.21590960734
-4.29039666707
-4.36487165558
-4.43933322482
-4.51377987016
-4.58820991371
-4.66262152229
-4.73701269456
-4.81138144237
-4.88572568823
-4.96004311213
-5.03433120816
-5.10858730191
-5.18280856698
-5.25699194685
-5.33113415809
-5.40523165708
-5.47928062849
-5.55327695715
-5.62721624293
-5.70109383564
-5.77490469136
-5.84864334827
-5.92230402527
-5.99588053139
-6.06936617053
-6.14275384527
-6.21603593828
-6.28920417837
-6.36224994288
-6.43516414399
-6.50793681521
-6.58055729934
-6.65301449098
-6.72529659172
-6.79739093207
-6.86928404583
-6.94096170801
-7.01240886412
-7.08360946472
-7.15454660299
-7.22520241018
-7.29555784704
-7.36559303323
-7.43528697669
-7.50461736955
-7.57356069946
-7.64209227114
-7.71018627237
-7.77781544104
-7.84495109895
-7.9115630704
-7.97761986092
-8.04308855234
-8.10793441053
-8.17212128781
-8.2356113754
-8.29836523722
-8.36034163985
-8.42149745608
-8.48178807435
-8.54116698693
-8.59958550598
-8.65699318803
-8.71333821865
-8.76856632667
-8.82262109179
-8.87544455964
-8.92697674895
-8.97715567911
-9.02591692949
-9.07319450815
-9.11892057744
-9.16302486702
-9.2054352928
-9.24607789411
-9.28487685515
-9.32175430126
-9.35663058875
-9.38942403935
-9.42005152695
-9.44842829286
-9.47446752952
-9.49808118239
-9.51917955291
-9.53767154854
-9.55346488673
-9.56646602137
-9.57658056225
-9.58371261708
-9.58776533135
-9.58864210536
-9.5862451486
-9.58047555634
-9.57123500387
-9.55842522658
-9.54194685568
-9.52170129247
-9.4975909376
-9.46951730589
-9.43738331179
-9.40109304715
-9.36055078611
-9.31566203211
-9.26633438944
-9.21247587381
-9.15399611035
-9.09080765677
-9.02282333777
-8.94995909101
-8.87213216873
-8.78926258491
-8.70127342326
-8.60808880528
-8.50963800092
-8.40585347601
-8.29667187997
-8.18203666951
-8.06190013567
-7.93622513834
-7.80498929159
-7.6681921284
-7.52585991065
-7.37805373978
-7.224872356
-7.06645159097
-6.90294943952
-6.73449579608
-6.5611184469
-6.38274341698
-1.99314056758
-1.96157683475
-1.98122088463
-2.03866763311
-2.11768074883
-2.20945914917
-2.30707700297
-2.40546476952
-2.50174638849
-2.59468034482
-2.68401295352
-2.77001699459
-2.85319293867
-2.93409222757
-3.01322649173
-3.0910307969
-3.167855274
-3.24397133929
-3.31958338728
-3.39484229045
-3.46985723788
-3.54470564373
-3.61944150245
-3.69410163173
-3.7687124686
-3.84328896573
-3.91784194449
-3.99237783272
-4.0669001717
-4.14141073557
-4.21591005756
-4.29039783854
-4.36487318268
-4.43933488765
-4.51378151705
-4.58821145519
-4.66262296727
-4.73701409879
-4.8113828136
-4.88572700694
-4.96004440596
-5.0343325395
-5.10858871209
-5.18281005044
-5.25699350126
-5.33113579391
-5.40523339282
-5.47928250283
-5.55327899572
-5.62721843939
-5.70109618699
-5.77490721016
-5.84864608064
-5.92230700674
-5.9958837444
-6.06936960337
-6.14275749614
-6.21603984121
-6.28920838642
-6.36225443064
-6.43516886653
-6.50794185101
-6.58056273862
-6.65302031166
-6.72530276833
-6.7973975081
-6.86929108513
-6.9409692439
-7.01241691183
-7.08361802743
-7.15455567447
-7.22521207235
-7.29556818013
-7.36560399872
-7.43529855642
-7.50462963271
-7.57357373709
-7.64210611998
-7.71020092998
-7.77783093086
-7.8449674879
-7.91158044206
-7.97763823249
-8.04310794988
-8.1079548864
-8.17214289249
-8.23563414221
-8.29838916202
-8.3603668126
-8.42152394412
-8.48181583971
-8.54119611391
-8.59961617279
-8.65702536276
-8.7133717731
-8.76860138938
-8.8226579003
-8.8754831424
-8.92701698595
-8.97719770681
-9.02596097078
-9.07324050503
-9.11896856131
-9.16307499248
-9.20548768136
-9.24613259971
-9.28493383657
-9.32181369666
-9.35669261033
-9.38948888138
-9.42011920581
-9.44849898269
-9.47454146489
-9.4981584638
-9.51926054181
-9.53775657389
-9.5535543814
-9.56656034794
-9.57668013925
-9.58381828797
-9.58787783872
-9.58876210004
-9.58637385677
-9.58061455921
-9.57138555682
-9.55858911888
-9.54212662203
-9.52189946077
-9.49781071183
-9.46976281162
-9.43765909943
-9.40140461389
-9.36090492106
-9.31606674168
-9.26679923991
-9.21301258495
-9.15461847863
-9.09153206468
-9.02366954017
-8.95095081147
-8.8732977789
-8.7906354913
-8.70289386532
-8.61000493436
-8.51190661078
-8.40854233451
-8.29986163377
-8.18582201997
-8.0663921076
-7.94155366181
-7.81130420257
-7.67566344483
-7.5346772335
-7.38842372346
-7.23701547414
-7.08059948532
-6.91935131827
-6.75345311619
-6.58307321152
-6.40840460548
-2.01238866906
-1.98129341829
-1.99651589645
-2.04818418759
-2.12224181077
-2.21044293709
-2.30584703504
-2.40311588741
-2.49902798268
-2.59203879544
-2.68167416171
-2.76806482922
-2.85162933676
-2.93287804843
-3.01230659047
-3.09034797952
-3.16735738025
-3.24361417028
-3.31933119702
-3.39466694043
-3.4697371628
-3.54462478893
-3.61938820684
-3.694067634
-3.76869096377
-3.84327587913
-3.91783438488
-3.99237383544
-4.06689841449
-4.1414103219
-4.21591038395
-4.29039853128
-4.36487407976
-4.43933589408
-4.51378254712
-4.58821242393
-4.66262385238
-4.73701496138
-4.81138370091
-4.88572791159
-4.96004530523
-5.0343334448
-5.10858964707
-5.18281103646
-5.25699455411
-5.3311369182
-5.40523458823
-5.47928376809
-5.5532803574
-5.62721992742
-5.70109779648
-5.7749089302
-5.84864791809
-5.92230897392
-5.99588587733
-6.06937191778
-6.14275993905
-6.21604240242
-6.28921116935
-6.36225745316
-6.43517204553
-6.50794518774
-6.58056632076
-6.65302417907
-6.72530688192
-6.79740185868
-6.86929572919
-6.94097420717
-7.01242219158
-7.08362363429
-7.15456159247
-7.22521833451
-7.29557488145
-7.36561115707
-7.43530612813
-7.50463760342
-7.57358216583
-7.64211506473
-7.71021040437
-7.77784092638
-7.84497802866
-7.91159162286
-7.97765005972
-8.04312039436
-8.10796801223
-8.17215673059
-8.23564867625
-8.29840439457
-8.36038282367
-8.42154082061
-8.48183351513
-8.5412145041
-8.59963545251
-8.6570456766
-8.71339296717
-8.76862342254
-8.82268092605
-8.87550729263
-8.9270422348
-8.97722400343
-9.02598846076
-9.0732692946
-9.11899857449
-9.16310622134
-9.20552029579
-9.24616670556
-9.28496949466
-9.32185088027
-9.35673138763
-9.38952950295
-9.42016179549
-9.44854364485
-9.47458836438
-9.49820779078
-9.51931253861
-9.53781167579
-9.55361294434
-9.56662272808
-9.57674666937
-9.58388976934
-9.58795525059
-9.5888460529
-9.58646537013
-9.58071513946
-9.57149674487
-9.55871261963
-9.54226482666
-9.52205507053
-9.49798672408
-9.46996322436
-9.43788860294
-9.4016685809
-9.36121005735
-9.31642097432
-9.26721174631
-9.21349477589
-9.15518387851
-9.09219654947
-9.0244521423
-8.95187408785
-8.87438885367
-8.79192622358
-8.70442205795
-8.61181579249
-8.51405312259
-8.41108684326
-8.30287803902
-8.18939672971
-8.07062532716
-7.94656164981
-7.81722075159
-7.68264064941
-7.54288651719
-7.3980562758
-7.24828473108
-7.09374645538
-6.93465964339
-6.77128337118
-6.60392451523
-6.43298739349
-2.01238825092
-1.98129361205
-1.99651613389
-2.04818403181
-2.12224179094
-2.2104430362
-2.30584708856
-2.40311591883
-2.49902801851
-2.59203884226
-2.68167421366
-2.76806488157
-2.85162935013
-2.93287802844
-3.01230660555
-3.09034803308
-3.1673574092
-3.24361415392
-3.31933121448
-3.39466701971
-3.46973725104
-3.54462482232
-3.6193882088
-3.69406767307
-3.76869104221
-3.84327596853
-3.91783445524
-3.99237389978
-4.06689851029
-4.1414104769
-4.21591058261
-4.29039874648
-4.36487429129
-4.4393361169
-4.51378282071
-4.58821274581
-4.66262416844
-4.73701526998
-4.81138404643
-4.88572831618
-4.9600457574
-5.03433391319
-5.10859012606
-5.18281153886
-5.25699508886
-5.3311375091
-5.40523524262
-5.47928445391
-5.55328106952
-5.62722069805
-5.70109863508
-5.77490984422
-5.84864889037
-5.92230999985
-5.995886988
-6.06937314556
-6.14276123682
-6.21604370423
-6.28921252953
-6.36225896818
-6.4351736869
-6.5079468769
-6.58056807945
-6.65302606462
-6.72530890222
-6.79740399469
-6.86929797214
-6.94097655951
-7.01242467059
-7.08362628328
-7.15456439283
-7.22522124006
-7.29557793872
-7.36561443652
-7.43530963944
-7.5046412963
-7.57358601063
-7.64211910064
-7.71021467195
-7.77784542972
-7.84498276187
-7.91159661235
-7.97765530113
-8.04312590105
-8.1079737988
-8.17216276067
-8.2356549828
-8.29841096707
-8.36038963265
-8.4215479785
-8.48184103509
-8.54122220724
-8.59964337113
-8.6570540161
-8.71340171537
-8.76863246253
-8.82269023967
-8.87551702135
-8.92705242174
-8.97723450895
-9.02599938822
-9.07328076419
-9.11901052289
-9.16311864744
-9.20553319338
-9.24618020312
-9.28498371536
-9.32186577401
-9.3567469528
-9.38954591718
-9.42017925897
-9.44856219619
-9.47460823704
-9.49822916187
-9.51933560283
-9.53783665686
-9.55364032566
-9.56665301915
-9.576780164
-9.58392702059
-9.58799726947
-9.58889369426
-9.58651938915
-9.58077708622
-9.57156830814
-9.55879536197
-9.54236113079
-9.52216771643
-9.49811869343
-9.47011844354
-9.43807174364
-9.40188499799
-9.36146640391
-9.31672517635
-9.26757289981
-9.21392404634
-9.15569460019
-9.09280443506
-9.02517588813
-8.95273565214
-8.87541475604
-8.79314763146
-8.70587547967
-8.61354481497
-8.51610895239
-8.4135292577
-8.30577731282
-8.19283517698
-8.07469829568
-7.9513795932
-7.82291119362
-7.68934975193
-7.55078160834
-7.40732855203
-7.25915461113
-7.10647151642
-6.94954902001
-6.78872331089
-6.62441325459
-6.45716393352
-1.99313943824
-1.9615773667
-1.98122149114
-2.0386672481
-2.11768073316
-2.20945946513
-2.30707716138
-2.4054648477
-2.50174653264
-2.59468050445
-2.68401307354
-2.77001711004
-2.85319299143
-2.93409220337
-3.01322654021
-3.09103093445
-3.16785537301
-3.24397133538
-3.31958345946
-3.39484249866
-3.46985744405
-3.54470573037
-3.61944154881
-3.69410178461
-3.76871268137
-3.84328918529
-3.91784216155
-3.99237807866
-4.06690050401
-4.14141118097
-4.21591060874
-4.29039845659
-4.36487385171
-4.43933561634
-4.51378235401
-4.58821236951
-4.66262388443
-4.73701505538
-4.81138388624
-4.88572821663
-4.96004571272
-5.03433390382
-5.10859014505
-5.1828115756
-5.25699513578
-5.33113756182
-5.40523531167
-5.47928453452
-5.55328115491
-5.62722078332
-5.70109871274
-5.77490991856
-5.84864898121
-5.92231008976
-5.99588705924
-6.06937323681
-6.14276136673
-6.21604379202
-6.28921253766
-6.36225897206
-6.43517372523
-6.50794689781
-6.58056803756
-6.65302598608
-6.72530882677
-6.79740388797
-6.86929779785
-6.94097632379
-7.01242436722
-7.08362594819
-7.15456404406
-7.22522082135
-7.29557744832
-7.36561390904
-7.435309069
-7.50464064339
-7.5735852739
-7.64211829515
-7.71021378071
-7.77784444894
-7.8449816675
-7.91159539658
-7.97765398716
-8.04312445882
-8.10797217887
-8.17216099114
-8.23565312522
-8.29840891902
-8.36038726722
-8.4215453722
-8.48183829661
-8.54121925188
-8.59964007931
-8.65705044426
-8.71339793259
-8.76862843957
-8.82268587544
-8.87551235278
-8.92704753465
-8.97722930104
-9.02599381452
-9.07327485043
-9.11900433842
-9.16311218718
-9.20552641127
-9.24617310505
-9.28497637198
-9.32185831723
-9.35673931525
-9.38953817952
-9.42017155969
-9.4485546636
-9.47460100816
-9.49822245193
-9.51932960712
-9.53783159311
-9.55363649634
-9.56665103321
-9.57678041885
-9.58392989211
-9.58800374434
-9.58890473634
-9.58653583796
-9.58080032243
-9.57160003944
-9.55883724748
-9.5424153784
-9.52223719295
-9.49820657629
-9.47022853353
-9.43820872657
-9.40205434236
-9.36167460683
-9.31698028061
-9.26788428334
-9.21430280076
-9.15615404458
-9.09336037607
-9.02584720592
-8.95354437665
-8.87638735798
-8.79431548664
-8.70727516211
-8.61521972258
-8.51811030312
-8.41591682851
-8.30862097546
-8.19621705106
-8.07871367596
-7.95613902194
-7.82854291576
-7.69600184641
-7.55862518965
-7.41656103356
-7.27000572487
-7.11921048987
-6.96449463027
-6.80625779529
-6.64499622813
-6.48133431114
-1.95090646998
-1.91985824535
-1.94978846697
-2.01956064496
-2.10872890128
-2.20760589551
-2.30948521529
-2.40995762943
-2.50688435973
-2.59963077124
-2.68836798895
-2.77363448417
-2.85607961108
-2.93632738189
-3.01491639064
-3.09228324702
-3.16876735263
-3.24462487593
-3.3200446476
-3.39516303259
-3.47007676616
-3.54485330972
-3.61953911468
-3.6941656953
-3.76875228358
-3.84331315223
-3.91785605494
-3.99238556663
-4.06690402739
-4.14141233527
-4.21591044686
-4.29039765305
-4.36487279859