/*--------------------------------*- C++ -*----------------------------------*\
| =========                 |                                                 |
| \\      /  F ield         | OpenFOAM: The Open Source CFD Toolbox           |
|  \\    /   O peration     | Version:  2106                                  |
|   \\  /    A nd           | Website:  www.openfoam.com                      |
|    \\/     M anipulation  |                                                 |
\*---------------------------------------------------------------------------*/
FoamFile
{
    version     2.0;
    format      ascii;
    arch        "LSB;label=32;scalar=64";
    class       surfaceScalarField;
    location    "0.2";
    object      phi;
}
// * * * * * * * * * * * * * * * * * * * * * * * * * * * * * * * * * * * * * //

dimensions      [0 3 -1 0 0 0 0];

oriented        oriented;

internalField   nonuniform List<scalar> 
18840
(
3.37543050165e-05
1.62456949817e-05
2.25359622206e-05
1.1218341242e-05
1.63023776592e-05
6.23358496212e-06
1.28098257099e-05
3.492553191e-06
1.08065803048e-05
2.0032449053e-06
9.60476913815e-06
1.20181075281e-06
8.85167862029e-06
7.5309059336e-07
8.36503090283e-06
4.86647877008e-07
8.04518641872e-06
3.19844488568e-07
7.83374218397e-06
2.11444135261e-07
7.69428243697e-06
1.39460002488e-07
7.60308092715e-06
9.12016280758e-08
7.54426606666e-06
5.88148229692e-08
7.50707788046e-06
3.71882600635e-08
7.48419001797e-06
2.28879552685e-08
7.47062448422e-06
1.35655557519e-08
7.46302196102e-06
7.60255840256e-09
7.45913919344e-06
3.88272779622e-09
7.45749945948e-06
1.63965388154e-09
7.45714642361e-06
3.52964407086e-10
7.45748381753e-06
-3.37468374539e-10
7.45813490633e-06
-6.5109014819e-10
7.45888700213e-06
-7.51967248985e-10
7.45962078141e-06
-7.33741133196e-10
7.46027720911e-06
-6.56574356138e-10
7.46083362364e-06
-5.56531588873e-10
7.4612878214e-06
-4.54182547122e-10
7.46164810506e-06
-3.60222042613e-10
7.46192731255e-06
-2.79215646398e-10
7.46213951478e-06
-2.12230432883e-10
7.46229807768e-06
-1.58569890933e-10
7.4624147189e-06
-1.16679063019e-10
7.46249926578e-06
-8.46300465754e-11
7.46255973032e-06
-6.05269695618e-11
7.46260243438e-06
-4.27089958262e-11
7.46263217715e-06
-2.97458088461e-11
7.46265257013e-06
-2.04361086289e-11
7.46266634341e-06
-1.38026729285e-11
7.46267554943e-06
-9.15257194939e-12
7.46268164522e-06
-5.98108541692e-12
7.46268560731e-06
-3.85791147387e-12
7.46268821429e-06
-2.50832827405e-12
7.4626898579e-06
-1.57926300602e-12
7.46269080934e-06
-9.53978133968e-13
7.46269132929e-06
-5.99160239673e-13
7.46269162426e-06
-3.62169998775e-13
7.46269185462e-06
-2.05630841979e-13
7.46269208948e-06
-1.56201648073e-13
7.46269230374e-06
-1.94349845448e-13
7.46269247747e-06
-2.55056747053e-13
7.4626926703e-06
-3.02329815934e-13
7.4626929218e-06
-3.19451153192e-13
7.46269323424e-06
-3.24325479482e-13
7.46269362916e-06
-3.46685602041e-13
7.46269409539e-06
-3.72106510951e-13
7.46269460409e-06
-3.93712903566e-13
7.46269511522e-06
-4.03185994288e-13
7.46269561429e-06
-3.89871992225e-13
7.46269614908e-06
-3.79668151989e-13
7.46269673178e-06
-4.43659418347e-13
7.46269728409e-06
-5.72567047551e-13
7.46269777352e-06
-6.46929165332e-13
7.46269832275e-06
-6.47782135905e-13
7.46269897367e-06
-6.74988106834e-13
7.46269959838e-06
-6.88721517325e-13
7.46270021662e-06
-6.1117438034e-13
7.46270096303e-06
-5.90993472394e-13
7.46270177686e-06
-7.6695132103e-13
7.46270249692e-06
-9.94303096911e-13
7.46270316951e-06
-1.04987556808e-12
7.46270398264e-06
-9.7396590237e-13
7.4627049546e-06
-9.5311504507e-13
7.46270592787e-06
-9.96327973852e-13
7.46270691671e-06
-1.03800090439e-12
7.46270800815e-06
-1.08989496981e-12
7.46270915835e-06
-1.14942532383e-12
7.46271033536e-06
-1.24707798647e-12
7.46271148612e-06
-1.36488033878e-12
7.46271264913e-06
-1.40648811174e-12
7.46271395281e-06
-1.36158016542e-12
7.46271541833e-06
-1.32523715999e-12
7.46271695594e-06
-1.40159295484e-12
7.46271844854e-06
-1.53394169936e-12
7.46271998996e-06
-1.60637887496e-12
7.46272168298e-06
-1.66504968614e-12
7.46272346792e-06
-1.76536974419e-12
7.46272529089e-06
-1.81852842054e-12
7.46272715733e-06
-1.77562752201e-12
7.46272908333e-06
-1.76899527028e-12
7.46273099479e-06
-1.86659992335e-12
7.46273293371e-06
-2.00659073484e-12
7.46273495425e-06
-2.12638923229e-12
7.46273701111e-06
-2.16778809086e-12
7.4627391732e-06
-2.14874205045e-12
7.46274149093e-06
-2.1793145452e-12
7.46274385083e-06
-2.28712544373e-12
7.46274624925e-06
-2.38248601762e-12
7.46274886935e-06
-2.50923537125e-12
7.46275168872e-06
-2.71839286264e-12
7.46275466604e-06
-2.94479547709e-12
7.4627577997e-06
-3.15873277856e-12
7.46276122208e-06
-3.43721497577e-12
7.46276508941e-06
-3.86863429401e-12
7.46276931665e-06
-4.37191103634e-12
7.46277416961e-06
-4.94022340461e-12
7.46277978747e-06
-5.66207041293e-12
7.46278615787e-06
-6.52058876697e-12
7.46279369232e-06
-7.57277911514e-12
7.46280260067e-06
-8.9320985449e-12
7.4628130933e-06
-1.06040545099e-11
7.46282563131e-06
-1.2544358969e-11
7.46284079458e-06
-1.49324675797e-11
7.46285927049e-06
-1.81401838373e-11
7.46288161505e-06
-2.23221208439e-11
7.46290861951e-06
-2.7386556748e-11
7.46294177395e-06
-3.33437158752e-11
7.46298263985e-06
-4.0702554582e-11
7.46303273606e-06
-5.00643914112e-11
7.46309435333e-06
-6.1672043915e-11
7.46317036227e-06
-7.60019292225e-11
7.46326422566e-06
-9.37113379802e-11
7.46338015892e-06
-1.15811641465e-10
7.46352343477e-06
-1.43513360441e-10
7.46370231916e-06
-1.79153572941e-10
7.46392549827e-06
-2.22888316122e-10
7.46419832618e-06
-2.72482240138e-10
7.46453508299e-06
-3.36485585789e-10
7.46495189961e-06
-4.16589027205e-10
7.46546809263e-06
-5.16227284147e-10
7.46610720774e-06
-6.39426530075e-10
7.46689895031e-06
-7.91788334298e-10
7.46787971835e-06
-9.80749988961e-10
7.46909448237e-06
-1.2148060013e-09
7.47059948818e-06
-1.50494127026e-09
7.47246422093e-06
-1.86479581156e-09
7.47477511933e-06
-2.31108319453e-09
7.47763958316e-06
-2.86455073603e-09
7.48119147516e-06
-3.55163371547e-09
7.48559662436e-06
-4.40530378357e-09
7.49106252234e-06
-5.46614486967e-09
7.4978491326e-06
-6.78619364418e-09
7.50628004018e-06
-8.43085814278e-09
7.51676262083e-06
-1.04825112969e-08
7.52980992806e-06
-1.30470564928e-08
7.54607011781e-06
-1.6260252505e-08
7.56636758408e-06
-2.02976998251e-08
7.59175632161e-06
-2.53893122485e-08
7.62359559868e-06
-3.18397518418e-08
7.66365467626e-06
-4.00592753883e-08
7.7142651816e-06
-5.06107478531e-08
7.77855405617e-06
-6.42890347963e-08
7.86082397138e-06
-8.22697322339e-08
7.9672537583e-06
-1.06429723031e-07
8.10742406244e-06
-1.40170472156e-07
8.29822702923e-06
-1.90802411602e-07
8.57491927305e-06
-2.76692172896e-07
9.02396099686e-06
-4.49041840066e-07
9.88755015405e-06
-8.63589248793e-07
1.19121414039e-05
-2.02459119546e-06
-5.49384148955e-06
1.7405984141e-05
5.01388825355e-05
1.61068141128e-05
4.41591298705e-05
1.71980935444e-05
3.77598732601e-05
1.26328399359e-05
3.2649514724e-05
8.60291254539e-06
2.89465824457e-05
5.70617759096e-06
2.63676032299e-05
3.78078975788e-06
2.45938851716e-05
2.52680844003e-06
2.33783982974e-05
1.70213484007e-06
2.25473240309e-05
1.15091902349e-06
2.19811569573e-05
7.77611053378e-07
2.1597804688e-05
5.22812348821e-07
2.13405419901e-05
3.48464678515e-07
2.11699446653e-05
2.29412355665e-07
2.10585370687e-05
1.48595974571e-07
2.09871861253e-05
9.42389851828e-08
2.09426225949e-05
5.81289846434e-08
2.09157080516e-05
3.4516963436e-08
2.09002082271e-05
1.93824208072e-08
2.08919207218e-05
9.92706734613e-09
2.08880556353e-05
4.2180775008e-09
2.08867860687e-05
9.32148626487e-10
2.08869510805e-05
-8.16191182821e-10
2.08878294237e-05
-1.63034323455e-09
2.08889880353e-05
-1.8922194754e-09
2.08901814776e-05
-1.84997931434e-09
2.08912819761e-05
-1.6571866323e-09
2.08922333984e-05
-1.40578972891e-09
2.08930211155e-05
-1.14797948521e-09
2.08936527788e-05
-9.10834858345e-10
2.08941467072e-05
-7.06136099649e-10
2.08945249939e-05
-5.368731574e-10
2.08948095718e-05
-4.01310701106e-10
2.08950202154e-05
-2.95418897195e-10
2.0895173837e-05
-2.14333988951e-10
2.08952843757e-05
-1.5330523015e-10
2.08953628773e-05
-1.0815328048e-10
2.08954178815e-05
-7.52931298362e-11
2.08954558494e-05
-5.17130737592e-11
2.08954816851e-05
-3.49812520895e-11
2.08954990514e-05
-2.32650651943e-11
2.08955105013e-05
-1.51823453553e-11
2.0895517782e-05
-9.69123363027e-12
2.08955223549e-05
-6.03007666794e-12
2.08955251944e-05
-3.70349250538e-12
2.08955268599e-05
-2.27176914503e-12
2.08955277311e-05
-1.37015347828e-12
2.08955280957e-05
-7.36991630625e-13
2.08955283383e-05
-4.57259691211e-13
2.08955285166e-05
-3.39043259706e-13
2.0895528617e-05
-3.6264559263e-13
2.08955286933e-05
-4.31497244845e-13
2.08955288049e-05
-4.85768641604e-13
2.08955289694e-05
-4.92124302738e-13
2.08955292212e-05
-4.52956164933e-13
2.08955295448e-05
-4.33858271125e-13
2.08955299345e-05
-4.77657684454e-13
2.08955303564e-05
-5.96088786592e-13
2.0895530726e-05
-7.30644072306e-13
2.08955310341e-05
-7.97164734347e-13
2.08955313854e-05
-8.27567117182e-13
2.0895531825e-05
-9.0585290303e-13
2.08955322539e-05
-1.00928817323e-12
2.08955326791e-05
-1.06834172258e-12
2.08955332106e-05
-1.16381044886e-12
2.08955337395e-05
-1.3505728728e-12
2.08955341351e-05
-1.47527213208e-12
2.08955345598e-05
-1.43305337389e-12
2.08955351776e-05
-1.3969478999e-12
2.08955358639e-05
-1.52496497428e-12
2.08955364334e-05
-1.7136138825e-12
2.08955369866e-05
-1.80523384059e-12
2.08955377189e-05
-1.85720183762e-12
2.08955385192e-05
-1.96678067966e-12
2.08955392824e-05
-2.06791327413e-12
2.08955401024e-05
-2.11064149895e-12
2.08955410018e-05
-2.12259935384e-12
2.0895541992e-05
-2.17276312632e-12
2.08955429665e-05
-2.32627995658e-12
2.08955438571e-05
-2.50334059018e-12
2.08955448196e-05
-2.56571152052e-12
2.08955459882e-05
-2.52780368997e-12
2.08955473578e-05
-2.56012830415e-12
2.08955487012e-05
-2.72361401478e-12
2.08955499381e-05
-2.91244770273e-12
2.0895551277e-05
-3.06576766973e-12
2.0895552846e-05
-3.20798850522e-12
2.08955545225e-05
-3.3559873343e-12
2.08955561704e-05
-3.46415419586e-12
2.0895557895e-05
-3.53246839048e-12
2.08955596982e-05
-3.61691493941e-12
2.08955615457e-05
-3.75675041591e-12
2.08955635225e-05
-3.98941537762e-12
2.08955656712e-05
-4.23701406613e-12
2.08955680122e-05
-4.40920069909e-12
2.08955705585e-05
-4.64335894571e-12
2.08955732925e-05
-5.05839977829e-12
2.08955762496e-05
-5.51682051007e-12
2.08955796566e-05
-5.95728787361e-12
2.08955835991e-05
-6.48997178195e-12
2.08955880829e-05
-7.22131287983e-12
2.08955931161e-05
-8.16741694113e-12
2.08955988975e-05
-9.28846132914e-12
2.08956057731e-05
-1.07389314389e-11
2.08956137058e-05
-1.25512535421e-11
2.08956231299e-05
-1.46185337229e-11
2.08956345551e-05
-1.7191878901e-11
2.08956481468e-05
-2.03529441602e-11
2.08956645782e-05
-2.40633071687e-11
2.08956844332e-05
-2.85579470125e-11
2.08957078915e-05
-3.38291639419e-11
2.08957368758e-05
-4.16046181437e-11
2.08957728496e-05
-5.11790141702e-11
2.08958174463e-05
-6.25807974082e-11
2.08958726161e-05
-7.70323053925e-11
2.0895940413e-05
-9.50788308289e-11
2.08960238796e-05
-1.17092565639e-10
2.08961270339e-05
-1.44209868966e-10
2.08962545916e-05
-1.77774893503e-10
2.08964124137e-05
-2.19403947498e-10
2.08966076282e-05
-2.70976609256e-10
2.08968488424e-05
-3.3476104459e-10
2.08971471035e-05
-4.13763619346e-10
2.0897515641e-05
-5.11716909257e-10
2.08979696204e-05
-6.32994615239e-10
2.08985302661e-05
-7.83813687344e-10
2.0899228954e-05
-9.71332332014e-10
2.09000961776e-05
-1.2039417427e-09
2.09011714742e-05
-1.4920431332e-09
2.09025044323e-05
-1.8489061767e-09
2.09041560302e-05
-2.29081257014e-09
2.09062024625e-05
-2.83803782575e-09
2.09087381141e-05
-3.51607897337e-09
2.09118795497e-05
-4.35622812334e-09
2.09157719944e-05
-5.39729614452e-09
2.09205953231e-05
-6.68798597562e-09
2.09265730365e-05
-8.28868509594e-09
2.09339824933e-05
-1.02742307841e-08
2.0943169414e-05
-1.27385791501e-08
2.09545635061e-05
-1.57994691017e-08
2.09686999674e-05
-1.96035690772e-08
2.09862491786e-05
-2.43358725245e-08
2.10080484601e-05
-3.02303559652e-08
2.10351485533e-05
-3.75832273388e-08
2.10688733364e-05
-4.67722477452e-08
2.11108960907e-05
-5.82828166848e-08
2.1163343634e-05
-7.27445703176e-08
2.12289367566e-05
-9.09819242479e-08
2.13111868366e-05
-1.14089588517e-07
2.14146765423e-05
-1.43548741903e-07
2.15454757788e-05
-1.81410063512e-07
2.17117912998e-05
-2.30604930241e-07
2.19250423747e-05
-2.95520428237e-07
2.22017624124e-05
-3.83149391611e-07
2.25671965944e-05
-5.0560531341e-07
2.30624647184e-05
-6.86070759005e-07
2.3759133616e-05
-9.73361425638e-07
2.47870151007e-05
-1.47692273603e-06
2.63731261409e-05
-2.44969938401e-06
2.88315564714e-05
-4.48302180106e-06
-8.78356653687e-06
3.21212815141e-05
5.3584426727e-05
1.25223877655e-05
5.29166017798e-05
1.78659198375e-05
4.9639301312e-05
1.59101390125e-05
4.5838217087e-05
1.24039967486e-05
4.2442874866e-05
9.10152013729e-06
3.97331594787e-05
6.49050516317e-06
3.76912453769e-05
4.56872237578e-06
3.62011669407e-05
3.19221313996e-06
3.51355938005e-05
2.21649248661e-06
3.43848447292e-05
1.52836013667e-06
3.38626592109e-05
1.04499786522e-06
3.35040070743e-05
7.07117046246e-07
3.32609632247e-05
4.72456399634e-07
3.30987212903e-05
3.10838011091e-07
3.29922913969e-05
2.00668961922e-07
3.29239202185e-05
1.26500102891e-07
3.28811302847e-05
7.73067879064e-08
3.28552516632e-05
4.5260920172e-08
3.28403351339e-05
2.48434932502e-08
3.28323552602e-05
1.21979819963e-08
3.28286295306e-05
4.65804455278e-09
3.28274056772e-05
4.07681006203e-10
3.28275651071e-05
-1.78989782913e-09
3.28284112238e-05
-2.73835164149e-09
3.28295273873e-05
-2.96608587251e-09
3.28306770567e-05
-2.80686477759e-09
3.28317371545e-05
-2.46599817144e-09
3.28326536482e-05
-2.06455359224e-09
3.28334123835e-05
-1.66960234665e-09
3.28340207348e-05
-1.31454753954e-09
3.28344964012e-05
-1.01262566213e-09
3.28348606986e-05
-7.65657019857e-10
3.283513475e-05
-5.69480529906e-10
3.2835337606e-05
-4.17222342728e-10
3.28354855547e-05
-3.01312232875e-10
3.28355919748e-05
-2.14578691262e-10
3.28356675007e-05
-1.50732991047e-10
3.28357203356e-05
-1.04453411226e-10
3.28357567478e-05
-7.13482738313e-11
3.2835781523e-05
-4.79664167684e-11
3.28357981335e-05
-3.1714813946e-11
3.28358090658e-05
-2.05920642053e-11
3.28358161167e-05
-1.30904792031e-11
3.28358205659e-05
-8.12627017674e-12
3.28358233215e-05
-4.94515774271e-12
3.2835824986e-05
-2.98523533592e-12
3.28358259776e-05
-1.79079730234e-12
3.28358264525e-05
-1.06231321811e-12
3.28358266618e-05
-6.5477966041e-13
3.28358267058e-05
-4.72841565263e-13
3.28358266994e-05
-4.52600803606e-13
3.28358267074e-05
-4.60082139043e-13
3.2835826762e-05
-4.58114676954e-13
3.28358268835e-05
-4.51344363158e-13
3.28358270415e-05
-4.47005026604e-13
3.28358272309e-05
-4.86046522806e-13
3.28358274844e-05
-6.27686742689e-13
3.2835827754e-05
-8.39986352855e-13
3.28358279481e-05
-1.028023231e-12
3.28358281178e-05
-1.14755678243e-12
3.28358283882e-05
-1.2215728721e-12
3.28358286963e-05
-1.31352123608e-12
3.2835828949e-05
-1.37689357936e-12
3.28358292573e-05
-1.43274717516e-12
3.28358296628e-05
-1.63109753805e-12
3.28358300093e-05
-1.91672353845e-12
3.28358302545e-05
-2.06248926448e-12
3.2835830556e-05
-2.04659698024e-12
3.28358310029e-05
-2.0817199387e-12
3.28358314688e-05
-2.23920123682e-12
3.28358318483e-05
-2.34307691223e-12
3.28358322889e-05
-2.39299459305e-12
3.28358328233e-05
-2.51854385123e-12
3.28358333618e-05
-2.68285879382e-12
3.28358339337e-05
-2.83305350129e-12
3.28358345062e-05
-2.92131366998e-12
3.28358351275e-05
-2.94983301545e-12
3.28358358361e-05
-3.0222154918e-12
3.28358365734e-05
-3.17153791706e-12
3.28358373174e-05
-3.3224107583e-12
3.28358380738e-05
-3.40856190748e-12
3.28358389696e-05
-3.48800290812e-12
3.28358399636e-05
-3.67678048326e-12
3.2835840924e-05
-3.93034333434e-12
3.28358419329e-05
-4.11855061648e-12
3.28358431286e-05
-4.25268330105e-12
3.28358444742e-05
-4.44153623154e-12
3.28358458195e-05
-4.67615517296e-12
3.28358472337e-05
-4.89812364889e-12
3.28358487294e-05
-5.12580271089e-12
3.28358502582e-05
-5.37769972318e-12
3.28358519549e-05
-5.68122460477e-12
3.28358539083e-05
-6.0425116542e-12
3.28358560713e-05
-6.43942821705e-12
3.2835858473e-05
-6.93574140645e-12
3.28358612107e-05
-7.66058035536e-12
3.2835864258e-05
-8.57094711376e-12
3.283586775e-05
-9.51468177495e-12
3.2835871745e-05
-1.04988878777e-11
3.28358765482e-05
-1.19885561699e-11
3.28358823154e-05
-1.39478234978e-11
3.28358891074e-05
-1.62712495089e-11
3.28358974364e-05
-1.91535220584e-11
3.28359074706e-05
-2.27066465437e-11
3.2835919555e-05
-2.69441512374e-11
3.28359344867e-05
-3.21695755692e-11
3.28359527406e-05
-3.86652429408e-11
3.2835975155e-05
-4.65882372586e-11
3.28360030162e-05
-5.63299873001e-11
3.28360380622e-05
-6.85521698921e-11
3.28360807216e-05
-8.40021464728e-11
3.28361325096e-05
-1.03130054482e-10
3.28361961226e-05
-1.26616812793e-10
3.28362747556e-05
-1.55729521833e-10
3.28363718332e-05
-1.91897776833e-10
3.28364914795e-05
-2.36677087439e-10
3.28366392906e-05
-2.92027748945e-10
3.28368219945e-05
-3.60542108535e-10
3.28370479816e-05
-4.45369458586e-10
3.28373275459e-05
-5.50480505965e-10
3.28376731095e-05
-6.80539715803e-10
3.28381006365e-05
-8.41411660273e-10
3.28386299848e-05
-1.04067153582e-09
3.28392851503e-05
-1.2878900153e-09
3.28400959633e-05
-1.59443656469e-09
3.28410993615e-05
-1.97451973376e-09
3.28423412721e-05
-2.44593049189e-09
3.28438788621e-05
-3.02994417478e-09
3.28457832926e-05
-3.75325920613e-09
3.28481417626e-05
-4.6493341552e-09
3.28510627379e-05
-5.75925013718e-09
3.28546810113e-05
-7.1343210353e-09
3.28591629523e-05
-8.83816167017e-09
3.28647152353e-05
-1.09497075369e-08
3.28715943375e-05
-1.35672703249e-08
3.28801188583e-05
-1.6813066481e-08
3.28906836324e-05
-2.08392566305e-08
3.29037805197e-05
-2.58356077382e-08
3.29200214809e-05
-3.20398945015e-08
3.29401673474e-05
-3.97495199558e-08
3.29651694847e-05
-4.93378826937e-08
3.29962160772e-05
-6.12766905263e-08
3.30347956618e-05
-7.61628926209e-08
3.30827797896e-05
-9.47564544552e-08
3.31425285088e-05
-1.18032104495e-07
3.32170338247e-05
-1.4725027742e-07
3.33101102911e-05
-1.84058365197e-07
3.3426658566e-05
-2.30637997208e-07
3.35730387851e-05
-2.8992898186e-07
3.37576116666e-05
-3.65982517728e-07
3.3991553124e-05
-4.64546356935e-07
3.42901317412e-05
-5.94099435968e-07
3.46747645003e-05
-7.67781590515e-07
3.51763593357e-05
-1.0072001796e-06
3.5840547664e-05
-1.35025903896e-06
3.67346702294e-05
-1.86748375349e-06
3.79523469153e-05
-2.69459999694e-06
3.9593546986e-05
-4.09090027521e-06
4.16377695215e-05
-6.5272450043e-06
-1.06884193032e-05
4.35426219486e-05
5.35705194473e-05
8.9518675289e-06
5.55863065411e-05
1.58501346801e-05
5.52410590558e-05
1.62553858605e-05
5.35976158547e-05
1.40474395443e-05
5.15429060716e-05
1.11562299536e-05
4.95819405896e-05
8.45147065577e-06
4.79262513333e-05
6.22441154704e-06
4.66200397701e-05
4.49842440924e-06
4.56322340645e-05
3.20429842684e-06
4.49066880024e-05
2.2539063771e-06
4.43854427028e-05
1.56624325158e-06
4.40178335541e-05
1.07472640134e-06
4.37629132394e-05
7.27376898021e-07
4.35890458238e-05
4.84705462865e-07
4.34725026688e-05
3.17212134408e-07
4.33958696298e-05
2.03133070031e-07
4.33465915659e-05
1.26584763927e-07
4.33157574297e-05
7.60949933552e-08
4.32971359658e-05
4.34648774059e-08
4.32864343909e-05
2.28995374135e-08
4.32807412249e-05
1.03513795563e-08
4.32781186215e-05
3.03043403238e-09
4.32772919652e-05
-9.63286131082e-10
4.32774564866e-05
-2.90297286505e-09
4.32781079184e-05
-3.61757390493e-09
4.32789459617e-05
-3.64492396959e-09
4.32798009197e-05
-3.32103372627e-09
4.32805852492e-05
-2.84897067986e-09
4.32812610997e-05
-2.34549614109e-09
4.32818192577e-05
-1.87276290638e-09
4.32822659444e-05
-1.45942298126e-09
4.32826146984e-05
-1.11448931143e-09
4.32828814929e-05
-8.36229454411e-10
4.32830819685e-05
-6.17616839638e-10
4.3283230197e-05
-4.49519062279e-10
4.32833381723e-05
-3.22599515475e-10
4.3283415748e-05
-2.28338733375e-10
4.32834707282e-05
-1.59414343167e-10
4.32835091401e-05
-1.097213892e-10
4.32835356233e-05
-7.43787852474e-11
4.32835536518e-05
-4.9625640675e-11
4.32835657186e-05
-3.25722965369e-11
4.32835736251e-05
-2.09838335369e-11
4.32835786764e-05
-1.32142180421e-11
4.32835818262e-05
-8.10574352741e-12
4.328358373e-05
-4.85386352625e-12
4.32835848074e-05
-2.86411859477e-12
4.32835853502e-05
-1.69245649853e-12
4.32835856058e-05
-1.02038108515e-12
4.32835857172e-05
-6.57983912236e-13
4.32835857153e-05
-4.64515760068e-13
4.3283585709e-05
-3.78920575278e-13
4.32835857065e-05
-3.21394583523e-13
4.32835857412e-05
-3.27898441203e-13
4.32835857821e-05
-3.94960624637e-13
4.32835858009e-05
-4.88496438542e-13
4.32835858449e-05
-6.04346465672e-13
4.328358593e-05
-7.67923952111e-13
4.32835859748e-05
-9.62673248178e-13
4.32835859424e-05
-1.12958950889e-12
4.32835859567e-05
-1.25892069419e-12
4.32835860485e-05
-1.41732898054e-12
4.32835860732e-05
-1.56140441472e-12
4.32835860679e-05
-1.63684298841e-12
4.32835861666e-05
-1.72800267572e-12
4.32835862908e-05
-1.93056074889e-12
4.32835862932e-05
-2.15728154508e-12
4.32835862293e-05
-2.28923750092e-12
4.32835862602e-05
-2.36390275099e-12
4.32835863742e-05
-2.46794602787e-12
4.3283586448e-05
-2.57030667706e-12
4.32835865297e-05
-2.63780595581e-12
4.32835866652e-05
-2.72780263994e-12
4.32835868102e-05
-2.85699100001e-12
4.32835869993e-05
-3.00892133691e-12
4.32835871676e-05
-3.16492761069e-12
4.32835872994e-05
-3.27355089704e-12
4.32835874952e-05
-3.33248130701e-12
4.32835877845e-05
-3.41484385353e-12
4.32835881213e-05
-3.58755214999e-12
4.32835883918e-05
-3.7945605812e-12
4.32835886805e-05
-3.96458622527e-12
4.32835890823e-05
-4.13810921952e-12
4.32835895439e-05
-4.34892121764e-12
4.32835900442e-05
-4.57598496898e-12
4.32835906462e-05
-4.7789212047e-12
4.32835914113e-05
-4.97634945007e-12
4.32835922403e-05
-5.22893611314e-12
4.32835931354e-05
-5.57139782713e-12
4.32835941016e-05
-5.99638457289e-12
4.32835951083e-05
-6.42263659813e-12
4.32835963149e-05
-6.86347781976e-12
4.32835978313e-05
-7.4449802284e-12
4.32835995852e-05
-8.16724469507e-12
4.32836015891e-05
-8.98698146786e-12
4.32836040321e-05
-1.00655788616e-11
4.32836069655e-05
-1.14629960564e-11
4.32836105315e-05
-1.306732973e-11
4.32836149771e-05
-1.49639144429e-11
4.32836203463e-05
-1.73483286676e-11
4.32836267465e-05
-2.03808736114e-11
4.32836342639e-05
-2.40884198433e-11
4.32836435124e-05
-2.8552080044e-11
4.32836548591e-05
-3.40929022547e-11
4.32836685979e-05
-4.08814704462e-11
4.32836856097e-05
-4.91935270436e-11
4.32837065913e-05
-5.95508699174e-11
4.32837323804e-05
-7.23616033408e-11
4.32837641177e-05
-8.81338286972e-11
4.32838032499e-05
-1.07699981236e-10
4.32838517317e-05
-1.3221505459e-10
4.32839115487e-05
-1.62811978761e-10
4.32839852163e-05
-2.00586097186e-10
4.32840764082e-05
-2.4708231483e-10
4.32841892862e-05
-3.0465821441e-10
4.3284328671e-05
-3.75987623366e-10
4.32845009449e-05
-4.643092258e-10
4.32847139835e-05
-5.73634912722e-10
4.32849775623e-05
-7.08931798725e-10
4.32853038817e-05
-8.76525275315e-10
4.32857074851e-05
-1.08409533626e-09
4.32862068456e-05
-1.34094132999e-09
4.32868250392e-05
-1.65900179213e-09
4.32875902745e-05
-2.0531311554e-09
4.32885374657e-05
-2.54162869799e-09
4.32897100593e-05
-3.14706069221e-09
4.32911616359e-05
-3.89742494776e-09
4.3292958548e-05
-4.82688609744e-09
4.32951834999e-05
-5.97812054689e-09
4.3297938464e-05
-7.40428872162e-09
4.3301349768e-05
-9.17080124956e-09
4.33055745617e-05
-1.13590305937e-08
4.33108068348e-05
-1.40703815738e-08
4.33172873142e-05
-1.74304242237e-08
4.33253148099e-05
-2.15950381942e-08
4.33352602566e-05
-2.67584609826e-08
4.33475832324e-05
-3.31624364018e-08
4.33628552365e-05
-4.11079619471e-08
4.33817872958e-05
-5.0971703547e-08
4.34052624396e-05
-6.32247102495e-08
4.34343820633e-05
-7.84575660421e-08
4.34705200714e-05
-9.74144750954e-08
4.35153933204e-05
-1.21035770807e-07
4.35711532576e-05
-1.50515889987e-07
4.36405025353e-05
-1.87381353297e-07
4.3726850102e-05
-2.33597964716e-07
4.38345144678e-05
-2.91722482568e-07
4.39689967224e-05
-3.65120150514e-07
4.41373554243e-05
-4.58287931583e-07
4.43487260676e-05
-5.77352905878e-07
4.46150504603e-05
-7.30870762102e-07
4.49521109251e-05
-9.31160354806e-07
4.53809595486e-05
-1.19662965636e-06
4.59297159636e-05
-1.55595635175e-06
4.66351774498e-05
-2.05572017018e-06
4.75418452994e-05
-2.77415179458e-06
4.86911128033e-05
-3.84386752587e-06
5.0081767207e-05
-5.4815534118e-06
5.15594678099e-05
-8.00494570991e-06
-1.17391927436e-05
5.26102408024e-05
5.2760607701e-05
6.19125861701e-06
5.57402411781e-05
1.28705027106e-05
5.73124123549e-05
1.46832146795e-05
5.76111980279e-05
1.37486535065e-05
5.71338686811e-05
1.16335591379e-05
5.63199841601e-05
9.26535511725e-06
5.54496451544e-05
7.09475064602e-06
5.46637028761e-05
5.28436640009e-06
5.40144131278e-05
3.85358829217e-06
5.35068427416e-05
2.7614770058e-06
5.31248783579e-05
1.94820777426e-06
5.28455245071e-05
1.35408042024e-06
5.26458885267e-05
9.27013076813e-07
5.25060759731e-05
6.245180609e-07
5.24099983738e-05
4.13289706736e-07
5.23452168251e-05
2.67914539833e-07
5.23024118332e-05
1.69389690126e-07
5.22747669573e-05
1.03739875784e-07
5.22573948174e-05
6.08370328221e-08
5.22468527731e-05
3.34415311396e-08
5.22407566203e-05
1.64475973653e-08
5.22374837878e-05
6.30344200775e-09
5.22359426349e-05
5.77925929844e-10
5.22354273484e-05
-2.38776711671e-09
5.22354792776e-05
-3.66962495715e-09
5.22358141638e-05
-3.97988581904e-09
5.2236261451e-05
-3.76841589685e-09
5.22367242851e-05
-3.31190665464e-09
5.22371521379e-05
-2.773401793e-09
5.22375225892e-05
-2.24323525507e-09
5.22378295633e-05
-1.76643362314e-09
5.22380758796e-05
-1.36084144498e-09
5.22382686225e-05
-1.02894794852e-09
5.22384163333e-05
-7.65243407788e-10
5.22385274928e-05
-5.60608581746e-10
5.22386097673e-05
-4.04897674933e-10
5.22386697659e-05
-2.88408137646e-10
5.2238712943e-05
-2.02612620597e-10
5.22387435775e-05
-1.40356124012e-10
5.2238765015e-05
-9.58123052311e-11
5.22387798447e-05
-6.43977466739e-11
5.22387899776e-05
-4.25849444806e-11
5.22387967781e-05
-2.76831041534e-11
5.22388012274e-05
-1.76553426348e-11
5.22388040739e-05
-1.10111703152e-11
5.22388058775e-05
-6.70444711895e-12
5.22388069852e-05
-4.00302849765e-12
5.22388075925e-05
-2.35401136021e-12
5.22388078835e-05
-1.35550132903e-12
5.22388079875e-05
-7.63067130728e-13
5.22388079669e-05
-4.13420475242e-13
5.22388078415e-05
-1.96891173156e-13
5.22388077337e-05
-1.08773026527e-13
5.22388076667e-05
-1.11276454837e-13
5.22388075925e-05
-2.11856207962e-13
5.22388074855e-05
-3.71246975413e-13
5.22388073671e-05
-5.16157446524e-13
5.22388072853e-05
-6.49601476941e-13
5.22388072542e-05
-8.30329502409e-13
5.22388071838e-05
-1.03267058384e-12
5.22388071019e-05
-1.19073456061e-12
5.22388070767e-05
-1.3565361745e-12
5.22388070128e-05
-1.56237105094e-12
5.22388068543e-05
-1.70736084999e-12
5.22388067276e-05
-1.77705058564e-12
5.22388066902e-05
-1.90412632885e-12
5.22388066331e-05
-2.12752882803e-12
5.22388064732e-05
-2.32629172164e-12
5.22388063043e-05
-2.42633293873e-12
5.22388062329e-05
-2.49742496157e-12
5.2238806157e-05
-2.57964651541e-12
5.22388060334e-05
-2.64818003581e-12
5.2238805915e-05
-2.73441102747e-12
5.22388057985e-05
-2.84185000768e-12
5.2238805767e-05
-2.95958727599e-12
5.22388057665e-05
-3.11994414249e-12
5.22388056894e-05
-3.27906666898e-12
5.22388055806e-05
-3.37603047815e-12
5.22388055205e-05
-3.45907094441e-12
5.22388055754e-05
-3.64316428311e-12
5.22388056198e-05
-3.91204069805e-12
5.2238805595e-05
-4.11745651662e-12
5.22388056182e-05
-4.23163772565e-12
5.22388057501e-05
-4.37310768337e-12
5.22388059235e-05
-4.59812686229e-12
5.22388061144e-05
-4.84294443852e-12
5.22388064571e-05
-5.10454948539e-12
5.22388068921e-05
-5.44016287881e-12
5.22388073494e-05
-5.85518364882e-12
5.22388078692e-05
-6.35985538521e-12
5.22388084831e-05
-6.92141224636e-12
5.22388092666e-05
-7.5297097254e-12
5.22388102659e-05
-8.30479581534e-12
5.22388114606e-05
-9.3222462602e-12
5.22388128846e-05
-1.05407644262e-11
5.22388147592e-05
-1.19970398584e-11
5.2238817143e-05
-1.37929732881e-11
5.22388200805e-05
-1.59895378493e-11
5.22388236785e-05
-1.86552942424e-11
5.22388281882e-05
-2.19692092177e-11
5.22388339287e-05
-2.61872823041e-11
5.22388409091e-05
-3.13284384506e-11
5.22388496336e-05
-3.74484310739e-11
5.22388606205e-05
-4.50294501411e-11
5.22388741261e-05
-5.44636035466e-11
5.22388909661e-05
-6.60838903671e-11
5.2238912019e-05
-8.04732860255e-11
5.22389381662e-05
-9.835768628e-11
5.22389705228e-05
-1.20576869436e-10
5.2239010569e-05
-1.48003593666e-10
5.22390602393e-05
-1.81944388039e-10
5.22391217337e-05
-2.24187006738e-10
5.22391976811e-05
-2.76519879175e-10
5.22392916841e-05
-3.41109265346e-10
5.22394081943e-05
-4.21003508987e-10
5.22395522545e-05
-5.20000415567e-10
5.22397304849e-05
-6.42591632216e-10
5.22399510757e-05
-7.94344677598e-10
5.22402240702e-05
-9.82059714761e-10
5.22405622223e-05
-1.21447967377e-09
5.22409807902e-05
-1.50242556204e-09
5.2241498777e-05
-1.85896898097e-09
5.22421401441e-05
-2.30040597483e-09
5.22429341675e-05
-2.84718504563e-09
5.22439170265e-05
-3.5246291104e-09
5.22451338106e-05
-4.36399303168e-09
5.22466403102e-05
-5.40387139129e-09
5.22485051441e-05
-6.69190006698e-09
5.22508139079e-05
-8.28712419384e-09
5.2253672625e-05
-1.02630872518e-08
5.22572121658e-05
-1.27105185344e-08
5.22615951422e-05
-1.57420597693e-08
5.22670226799e-05
-1.94979711246e-08
5.22737441116e-05
-2.41518836936e-08
5.22820684206e-05
-2.99194304909e-08
5.22923791849e-05
-3.70690004126e-08
5.23051514527e-05
-4.59344689629e-08
5.23209745264e-05
-5.69312760706e-08
5.23405812306e-05
-7.05781061367e-08
5.23648802168e-05
-8.75234577676e-08
5.23950015276e-05
-1.0857895758e-07
5.24323515182e-05
-1.34764407599e-07
5.24786812351e-05
-1.67365539392e-07
5.25361752881e-05
-2.08009794908e-07
5.26075626466e-05
-2.58768449287e-07
5.26962599331e-05
-3.22294969237e-07
5.28065547258e-05
-4.02016892713e-07
5.29438412727e-05
-5.0240656175e-07
5.31149263179e-05
-6.29373028046e-07
5.33284210342e-05
-7.90847302962e-07
5.35952297342e-05
-9.97678868855e-07
5.3929122243e-05
-1.26505255687e-06
5.43472775744e-05
-1.61478470743e-06