/*--------------------------------*- C++ -*----------------------------------*\
| =========                 |                                                 |
| \\      /  F ield         | OpenFOAM: The Open Source CFD Toolbox           |
|  \\    /   O peration     | Version:  2106                                  |
|   \\  /    A nd           | Website:  www.openfoam.com                      |
|    \\/     M anipulation  |                                                 |
\*---------------------------------------------------------------------------*/
FoamFile
{
    version     2.0;
    format      ascii;
    arch        "LSB;label=32;scalar=64";
    class       surfaceScalarField;
    location    "0.34";
    object      phi;
}
// * * * * * * * * * * * * * * * * * * * * * * * * * * * * * * * * * * * * * //

dimensions      [0 3 -1 0 0 0 0];

oriented        oriented;

internalField   nonuniform List<scalar> 
18840
(
3.37543049186e-05
1.62456950887e-05
2.25359624755e-05
1.12183409856e-05
1.6302377103e-05
6.23358484822e-06
1.28098256181e-05
3.49255322873e-06
1.08065802194e-05
2.00324482192e-06
9.60476904119e-06
1.20181075907e-06
8.8516785695e-06
7.53090707367e-07
8.36503094091e-06
4.86647865768e-07
8.04518623752e-06
3.19844484236e-07
7.83374195936e-06
2.11444181035e-07
7.69428208068e-06
1.39460000139e-07
7.60308037319e-06
9.12016668838e-08
7.54426540825e-06
5.88148941942e-08
7.50707712267e-06
3.71882877948e-08
7.48418917452e-06
2.28879339124e-08
7.47062364513e-06
1.35654799771e-08
7.46302109543e-06
7.60248235783e-09
7.45913837442e-06
3.88271326604e-09
7.45749868653e-06
1.63969461691e-09
7.45714562348e-06
3.53066380909e-10
7.45748298999e-06
-3.37337901432e-10
7.4581340507e-06
-6.51036114252e-10
7.45888601489e-06
-7.51978545557e-10
7.45961964957e-06
-7.33687577237e-10
7.46027606216e-06
-6.56466274087e-10
7.4608325281e-06
-5.56502040429e-10
7.46128673295e-06
-4.54246972549e-10
7.46164698975e-06
-3.60270723794e-10
7.46192622008e-06
-2.79203978387e-10
7.46213844596e-06
-2.1220805014e-10
7.46229700415e-06
-1.58560923824e-10
7.46241363066e-06
-1.1664585044e-10
7.46249818094e-06
-8.45628082583e-11
7.4625586382e-06
-6.04664842207e-11
7.4626012489e-06
-4.26561325191e-11
7.46263088075e-06
-2.96734470988e-11
7.46265123135e-06
-2.03550312738e-11
7.46266499971e-06
-1.37648196269e-11
7.46267416982e-06
-9.15740209093e-12
7.46268017958e-06
-5.9867191509e-12
7.46268406381e-06
-3.87244945569e-12
7.46268655854e-06
-2.53336815329e-12
7.46268806442e-06
-1.56935382711e-12
7.46268893106e-06
-9.05968547578e-13
7.46268944807e-06
-5.63542929214e-13
7.46268974818e-06
-3.68209881788e-13
7.46268997731e-06
-2.48924205437e-13
7.46269020346e-06
-2.05624270976e-13
7.46269041153e-06
-1.97424516954e-13
7.46269062942e-06
-1.94803913269e-13
7.46269089216e-06
-2.16475176848e-13
7.46269117772e-06
-2.63927132467e-13
7.46269147269e-06
-3.09645637e-13
7.46269179152e-06
-3.38507285849e-13
7.46269214741e-06
-3.71530715455e-13
7.46269253017e-06
-4.12744192287e-13
7.46269291569e-06
-4.43610565257e-13
7.46269333912e-06
-4.68754151139e-13
7.46269381094e-06
-5.19769755268e-13
7.46269432784e-06
-5.76626075846e-13
7.46269490993e-06
-6.15785688358e-13
7.46269557141e-06
-6.40343073645e-13
7.46269629515e-06
-6.65434800575e-13
7.4626970498e-06
-6.92987247322e-13
7.46269782004e-06
-7.20650231688e-13
7.46269862143e-06
-7.59550737598e-13
7.46269945643e-06
-8.09837987529e-13
7.46270030817e-06
-8.48527182668e-13
7.46270120964e-06
-8.8286319229e-13
7.46270218367e-06
-9.39202144185e-13
7.46270320448e-06
-9.91448895285e-13
7.46270428277e-06
-1.01531445648e-12
7.46270543216e-06
-1.04906382422e-12
7.46270663577e-06
-1.11079712179e-12
7.46270788841e-06
-1.16668481164e-12
7.46270920181e-06
-1.19881619462e-12
7.46271057574e-06
-1.2325230172e-12
7.46271198063e-06
-1.2835486763e-12
7.46271341195e-06
-1.33720506136e-12
7.46271490709e-06
-1.3870344617e-12
7.46271647997e-06
-1.4346622713e-12
7.46271810505e-06
-1.47455264205e-12
7.46271975431e-06
-1.50747597924e-12
7.46272143126e-06
-1.55180468644e-12
7.46272315415e-06
-1.62035812099e-12
7.46272492297e-06
-1.69087050098e-12
7.46272674846e-06
-1.74066550232e-12
7.46272864961e-06
-1.78110727447e-12
7.46273061292e-06
-1.819823242e-12
7.46273260666e-06
-1.8437896131e-12
7.462734623e-06
-1.86365960707e-12
7.46273667757e-06
-1.92017839847e-12
7.46273877371e-06
-2.01293906095e-12
7.46274093231e-06
-2.09537160424e-12
7.46274320823e-06
-2.17101563866e-12
7.46274559517e-06
-2.27537713036e-12
7.46274805478e-06
-2.39658187333e-12
7.46275059473e-06
-2.50722228878e-12
7.46275326706e-06
-2.63036101744e-12
7.46275611886e-06
-2.83643596373e-12
7.46275917735e-06
-3.11097358793e-12
7.46276254101e-06
-3.39500797697e-12
7.46276630146e-06
-3.72963072768e-12
7.46277050909e-06
-4.14538531291e-12
7.4627752327e-06
-4.65751797497e-12
7.46278059476e-06
-5.3355552292e-12
7.46278675222e-06
-6.20462220665e-12
7.46279388786e-06
-7.25185416221e-12
7.46280231789e-06
-8.51863313175e-12
7.46281237577e-06
-1.00937521816e-11
7.46282439614e-06
-1.20364027817e-11
7.46283884721e-06
-1.43988559866e-11
7.46285628833e-06
-1.73427765727e-11
7.46287744685e-06
-2.10526442359e-11
7.46290319556e-06
-2.57304658428e-11
7.46293462099e-06
-3.15003745235e-11
7.46297316552e-06
-3.8595014075e-11
7.46302056916e-06
-4.74185323556e-11
7.46307889439e-06
-5.83898307546e-11
7.46315075062e-06
-7.19552140532e-11
7.46323939059e-06
-8.87119341772e-11
7.46334879231e-06
-1.09402355761e-10
7.46348399152e-06
-1.35110558106e-10
7.46365191601e-06
-1.67790147086e-10
7.46386359026e-06
-2.11606432551e-10
7.46412108649e-06
-2.57456969408e-10
7.46443880345e-06
-3.17678410101e-10
7.4648318671e-06
-3.93114753809e-10
7.46531854045e-06
-4.86724061889e-10
7.46592135828e-06
-6.02830398766e-10
7.46666798767e-06
-7.46724955053e-10
7.46759274841e-06
-9.24922371823e-10
7.46873825761e-06
-1.14571547144e-09
7.47015726486e-06
-1.41928609717e-09
7.47191535475e-06
-1.75828580408e-09
7.47409409695e-06
-2.17864119997e-09
7.47679473776e-06
-2.70027370549e-09
7.48014304785e-06
-3.34792879967e-09
7.48429564824e-06
-4.15244015441e-09
7.48944798846e-06
-5.15242966648e-09
7.49584427327e-06
-6.39644971682e-09
7.50379011697e-06
-7.94595100868e-09
7.51366884278e-06
-9.87890567867e-09
7.52596310574e-06
-1.2294561867e-08
7.54128343388e-06
-1.53204664531e-08
7.56040557383e-06
-1.9122019932e-08
7.5843211466e-06
-2.39154488762e-08
7.61430822985e-06
-2.99869778659e-08
7.65203062945e-06
-3.77220278006e-08
7.69968113815e-06
-4.76500048121e-08
7.760200474e-06
-6.0519091033e-08
7.83763828043e-06
-7.74379543879e-08
7.93782421423e-06
-1.00186159197e-07
8.06983887211e-06
-1.32014582214e-07
8.24980209357e-06
-1.79963035721e-07
8.51160084816e-06
-2.61798109425e-07
8.93870082907e-06
-4.27099326986e-07
9.76517791547e-06
-8.26476735014e-07
1.17100455977e-05
-1.9448673283e-06
-5.26463518169e-06
1.69746809067e-05
5.01388819861e-05
1.61068143285e-05
4.41591303004e-05
1.71980934968e-05
3.775987278e-05
1.2632839764e-05
3.26495145887e-05
8.6029125364e-06
2.89465824107e-05
5.70617751497e-06
2.63676031829e-05
3.78078964779e-06
2.45938850642e-05
2.52680847595e-06
2.33783983632e-05
1.70213485011e-06
2.25473238759e-05
1.15091900321e-06
2.19811567163e-05
7.77611090001e-07
2.15978043921e-05
5.22812352572e-07
2.13405414706e-05
3.48464620351e-07
2.11699439653e-05
2.29412288135e-07
2.1058536256e-05
1.48595906295e-07
2.09871852149e-05
9.42389175671e-08
2.0942621715e-05
5.81289452438e-08
2.09157071943e-05
3.45169729513e-08
2.0900207432e-05
1.93825069451e-08
2.08919199856e-05
9.92719895903e-09
2.08880548419e-05
4.21823811514e-09
2.08867851621e-05
9.3234962372e-10
2.08869501243e-05
-8.16024194178e-10
2.08878283895e-05
-1.63030293125e-09
2.08889868295e-05
-1.89224346654e-09
2.08901801655e-05
-1.84994606542e-09
2.08912807039e-05
-1.65709820355e-09
2.08922321999e-05
-1.40572742899e-09
2.08930199095e-05
-1.14794466582e-09
2.08936515421e-05
-9.10790616814e-10
2.08941454393e-05
-7.06081661773e-10
2.08945236922e-05
-5.36804122234e-10
2.08948082103e-05
-4.01190875155e-10
2.08950187955e-05
-2.95217479832e-10
2.08951723984e-05
-2.14121104829e-10
2.08952828602e-05
-1.53181320425e-10
2.08953612157e-05
-1.08099942437e-10
2.08954160824e-05
-7.52416148389e-11
2.08954539749e-05
-5.16426692855e-11
2.08954797548e-05
-3.49227004569e-11
2.08954969992e-05
-2.32231246819e-11
2.08955082948e-05
-1.5150278701e-11
2.08955154392e-05
-9.68961207967e-12
2.08955198135e-05
-6.04997017876e-12
2.08955224602e-05
-3.66889727206e-12
2.08955240017e-05
-2.16570925722e-12
2.08955247956e-05
-1.22252005514e-12
2.089552517e-05
-6.62486055939e-13
2.08955254307e-05
-4.31783873442e-13
2.08955256089e-05
-3.32700673964e-13
2.08955257289e-05
-3.08639352015e-13
2.0895525854e-05
-3.13229139513e-13
2.08955259972e-05
-3.68669768338e-13
2.08955261562e-05
-4.58139343326e-13
2.08955263249e-05
-5.45945155737e-13
2.0895526524e-05
-6.22300523929e-13
2.08955267628e-05
-7.02948956387e-13
2.08955270014e-05
-7.82098013305e-13
2.08955272682e-05
-8.52408181531e-13
2.08955275972e-05
-9.21915096353e-13
2.08955279817e-05
-9.93461412446e-13
2.08955284269e-05
-1.04980449814e-12
2.08955289398e-05
-1.09127873711e-12
2.08955295042e-05
-1.13324764367e-12
2.08955300933e-05
-1.18902882489e-12
2.0895530694e-05
-1.25605883433e-12
2.08955313194e-05
-1.32186504554e-12
2.08955319796e-05
-1.39793197733e-12
2.08955326451e-05
-1.48284655215e-12
2.08955333361e-05
-1.55711719602e-12
2.08955341096e-05
-1.62514010809e-12
2.08955349391e-05
-1.70054606008e-12
2.08955358018e-05
-1.76479385608e-12
2.08955367191e-05
-1.81936933809e-12
2.08955377021e-05
-1.89384681844e-12
2.08955387374e-05
-1.98762350012e-12
2.08955398143e-05
-2.0716461935e-12
2.08955409385e-05
-2.14685301516e-12
2.08955420945e-05
-2.23404549176e-12
2.08955432749e-05
-2.32059618732e-12
2.0895544516e-05
-2.38797777321e-12
2.08955458351e-05
-2.45985647336e-12
2.08955472058e-05
-2.56781310173e-12
2.08955485969e-05
-2.69980303703e-12
2.08955500106e-05
-2.82295112291e-12
2.08955514809e-05
-2.93257304039e-12
2.0895553022e-05
-3.03714745182e-12
2.08955546384e-05
-3.1326720542e-12
2.08955563516e-05
-3.22318570978e-12
2.08955581592e-05
-3.32817636114e-12
2.08955600222e-05
-3.45899489542e-12
2.08955619259e-05
-3.6114932197e-12
2.08955639244e-05
-3.79175028998e-12
2.08955660667e-05
-4.01116145239e-12
2.08955683609e-05
-4.25257160375e-12
2.08955708601e-05
-4.51202248404e-12
2.08955736108e-05
-4.8360102245e-12
2.08955766273e-05
-5.26116672032e-12
2.08955799271e-05
-5.77155366172e-12
2.08955836009e-05
-6.34958476292e-12
2.08955878165e-05
-7.04308602455e-12
2.0895592624e-05
-7.93014565197e-12
2.08955981963e-05
-8.98988415611e-12
2.08956047314e-05
-1.02600082508e-11
2.08956124353e-05
-1.18306026887e-11
2.0895621534e-05
-1.37833666441e-11
2.08956323651e-05
-1.62065548277e-11
2.08956453477e-05
-1.92281576991e-11
2.08956609281e-05
-2.29247736022e-11
2.08956796882e-05
-2.73202527655e-11
2.08957021148e-05
-3.24224159467e-11
2.08957292809e-05
-3.90708293884e-11
2.08957634326e-05
-4.84822061922e-11
2.08958055378e-05
-5.94957662648e-11
2.08958574074e-05
-7.30262840766e-11
2.08959213899e-05
-8.97864567048e-11
2.08960002858e-05
-1.10529868962e-10
2.08960976576e-05
-1.36149631111e-10
2.08962180059e-05
-1.67839359398e-10
2.08963668269e-05
-2.07115807837e-10
2.08965508745e-05
-2.55796208058e-10
2.08967784763e-05
-3.16073642805e-10
2.08970598294e-05
-3.90646454568e-10
2.08974074664e-05
-4.82824865871e-10
2.08978365254e-05
-5.96892771525e-10
2.08983635106e-05
-7.3866704553e-10
2.08990211601e-05
-9.15251035465e-10
2.08998379425e-05
-1.13450503581e-09
2.09008508715e-05
-1.40615876841e-09
2.09021063368e-05
-1.74248111231e-09
2.09036621619e-05
-2.15883124671e-09
2.09055899209e-05
-2.67446048621e-09
2.090797839e-05
-3.31320879875e-09
2.09109377391e-05
-4.10469832574e-09
2.09146044418e-05
-5.08571800276e-09
2.09191478402e-05
-6.30179317598e-09
2.09247783546e-05
-7.80955993521e-09
2.09317574522e-05
-9.67978782772e-09
2.09404101751e-05
-1.20009235147e-08
2.09511411137e-05
-1.48835359847e-08
2.09644546807e-05
-1.8466102516e-08
2.0980980786e-05
-2.29226379834e-08
2.10015078243e-05
-2.84728827855e-08
2.10270249138e-05
-3.53956550638e-08
2.10587769781e-05
-4.40463717761e-08
2.1098337932e-05
-5.48813249937e-08
2.11477080984e-05
-6.84919935479e-08
2.1209446308e-05
-8.56534602914e-08
2.12868543018e-05
-1.07395176795e-07
2.13842416196e-05
-1.35109695743e-07
2.15073187837e-05
-1.70726983741e-07
2.16638117333e-05
-2.17011112366e-07
2.18644834414e-05
-2.78108558028e-07
2.21249509961e-05
-3.60653073496e-07
2.24691323286e-05
-4.76195388364e-07
2.29361188765e-05
-6.46949540009e-07
2.3594167849e-05
-9.19847359706e-07
2.45672631314e-05
-1.40019500608e-06
2.60717916007e-05
-2.33100545995e-06
2.8404455769e-05
-4.2775311062e-06
-8.37728972031e-06
3.15171100573e-05
5.3584425974e-05
1.25223878521e-05
5.29166021614e-05
1.78659198671e-05
4.96393009366e-05
1.59101388893e-05
4.58382169014e-05
1.24039967218e-05
4.24428748034e-05
9.10152009991e-06
3.97331595159e-05
6.49050501555e-06
3.76912452376e-05
4.56872234738e-06
3.62011669864e-05
3.19221313664e-06
3.51355936969e-05
2.21649243308e-06
3.43848444892e-05
1.52836014381e-06
3.38626589059e-05
1.04499786973e-06
3.35040065826e-05
7.07116987576e-07
3.32609625466e-05
4.72456294894e-07
3.30987204782e-05
3.10837884234e-07
3.29922904839e-05
2.00668878456e-07
3.29239193391e-05
1.26500097392e-07
3.28811294476e-05
7.73068667589e-08
3.2855250881e-05
4.52611014182e-08
3.2840334412e-05
2.48437111791e-08
3.28323544863e-05
1.21981693598e-08
3.28286285802e-05
4.65824388307e-09
3.28274046019e-05
4.07909713807e-10
3.28275639725e-05
-1.78974059578e-09
3.28284099748e-05
-2.73831937401e-09
3.28295260161e-05
-2.96607888048e-09
3.28306756666e-05
-2.80678689483e-09
3.28317358391e-05
-2.46587798752e-09
3.28326523535e-05
-2.06443374399e-09
3.28334110564e-05
-1.66946744777e-09
3.28340193649e-05
-1.31437784195e-09
3.2834494998e-05
-1.01242723855e-09
3.28348592318e-05
-7.65435451299e-10
3.28351331599e-05
-5.69212385862e-10
3.28353359145e-05
-4.16932582315e-10
3.28354837799e-05
-3.01078823749e-10
3.2835590081e-05
-2.14438906202e-10
3.28356654661e-05
-1.50642808941e-10
3.28357181884e-05
-1.0435528806e-10
3.2835754523e-05
-7.12459997331e-11
3.28357791569e-05
-4.78764186811e-11
3.28357955702e-05
-3.15991175842e-11
3.28358063207e-05
-2.04517920075e-11
3.28358131777e-05
-1.29601895567e-11
3.28358174198e-05
-8.00283959109e-12
3.28358200132e-05
-4.80348340494e-12
3.28358215812e-05
-2.81175931933e-12
3.28358224941e-05
-1.59814226778e-12
3.28358229581e-05
-8.71580673127e-13
3.28358231445e-05
-4.55137706611e-13
3.28358232118e-05
-3.55347492196e-13
3.28358232299e-05
-3.45500298414e-13
3.28358232462e-05
-3.97140299062e-13
3.28358232779e-05
-5.06687020942e-13
3.28358233221e-05
-6.25596977972e-13
3.28358233812e-05
-7.35269583724e-13
3.2835823479e-05
-8.39714913387e-13
3.28358235968e-05
-9.59362442018e-13
3.28358237293e-05
-1.07576293619e-12
3.28358239105e-05
-1.17338477061e-12
3.28358241599e-05
-1.25732509538e-12
3.28358244727e-05
-1.33059844974e-12
3.28358248341e-05
-1.39249414204e-12
3.28358252316e-05
-1.45679960949e-12
3.28358256526e-05
-1.54183725125e-12
3.28358260713e-05
-1.63587144479e-12
3.28358264923e-05
-1.72418112181e-12
3.28358269441e-05
-1.81400778441e-12
3.28358274061e-05
-1.91204537797e-12
3.2835827884e-05
-2.01766964754e-12
3.28358284252e-05
-2.09595079736e-12
3.28358290286e-05
-2.17714635145e-12
3.28358296537e-05
-2.26719807285e-12
3.28358303047e-05
-2.35830143292e-12
3.28358310145e-05
-2.46030288749e-12
3.2835831786e-05
-2.57877587167e-12
3.28358325899e-05
-2.69490595538e-12
3.28358334195e-05
-2.79432219496e-12
3.2835834279e-05
-2.89299706622e-12
3.28358351631e-05
-3.00245666795e-12
3.28358360874e-05
-3.11556527763e-12
3.28358370708e-05
-3.2400754366e-12
3.28358381076e-05
-3.39854009801e-12
3.2835839174e-05
-3.584774004e-12
3.2835840263e-05
-3.76304758014e-12
3.28358414013e-05
-3.92018845135e-12
3.2835842608e-05
-4.06949900602e-12
3.28358438909e-05
-4.21761161256e-12
3.28358452676e-05
-4.371930176e-12
3.28358467393e-05
-4.55448102689e-12
3.28358482854e-05
-4.78464332231e-12
3.2835849896e-05
-5.0654477963e-12
3.28358516218e-05
-5.39292258983e-12
3.28358535365e-05
-5.77856954928e-12
3.28358556591e-05
-6.23990046385e-12
3.28358580206e-05
-6.78232030289e-12
3.28358606895e-05
-7.42459117965e-12
3.28358637247e-05
-8.20153222849e-12
3.28358671499e-05
-9.1403683262e-12
3.2835870966e-05
-1.02014870834e-11
3.28358753499e-05
-1.14283622309e-11
3.28358807701e-05
-1.32947554965e-11
3.28358872959e-05
-1.54627806194e-11
3.28358951752e-05
-1.8097827066e-11
3.28359047127e-05
-2.13634394288e-11
3.28359162524e-05
-2.5407292767e-11
3.2835930301e-05
-3.03992283821e-11
3.28359475313e-05
-3.65788985041e-11
3.2835968725e-05
-4.42116368925e-11
3.28359949409e-05
-5.35965011434e-11
3.28360277232e-05
-6.51560195051e-11
3.28360683248e-05
-7.95282569869e-11
3.28361174257e-05
-9.74488593128e-11
3.2836177621e-05
-1.19695947602e-10
3.28362517157e-05
-1.47221889337e-10
3.28363431807e-05
-1.81281953377e-10
3.2836456103e-05
-2.23469498869e-10
3.28365955175e-05
-2.75670013343e-10
3.28367677846e-05
-3.40236379629e-10
3.28369807646e-05
-4.20164527172e-10
3.28372441372e-05
-5.19133758044e-10
3.28375699005e-05
-6.41679801396e-10
3.28379728761e-05
-7.93437347681e-10
3.28384714011e-05
-9.81275015012e-10
3.2839088468e-05
-1.21393301169e-09
3.28398524114e-05
-1.50251565844e-09
3.28407974092e-05
-1.86033018983e-09
3.28419669347e-05
-2.30413176039e-09
3.28434149741e-05
-2.85424379114e-09
3.2845208064e-05
-3.53572633932e-09
3.28474287391e-05
-4.37971919521e-09
3.28501791352e-05
-5.42508909802e-09
3.28535857128e-05
-6.72003830683e-09
3.2857805422e-05
-8.3244672744e-09
3.28630328444e-05
-1.03129055094e-08
3.2869509256e-05
-1.27778573591e-08
3.28775341954e-05
-1.58342434217e-08
3.28874797404e-05
-1.96252711662e-08
3.28998083722e-05
-2.43296887912e-08
3.29150955351e-05
-3.01708983501e-08
3.29340580523e-05
-3.74287761649e-08
3.29575900552e-05
-4.64548750887e-08
3.29868092476e-05
-5.76923800094e-08
3.30231161616e-05
-7.17026983772e-08
3.30682705099e-05
-8.92006883536e-08
3.31244917939e-05
-1.11102585826e-07
3.31945931249e-05
-1.3859314731e-07
3.3282161287e-05
-1.73221093093e-07
3.33918046337e-05
-2.17038081957e-07
3.35295044443e-05
-2.72809563064e-07
3.37031266626e-05
-3.44349586395e-07
3.39231937777e-05
-4.37078468747e-07
3.42040958376e-05
-5.59010466692e-07
3.45660456392e-05
-7.22602696653e-07
3.50382653452e-05
-9.48414502796e-07
3.56639568952e-05
-1.27264050417e-06
3.65069026571e-05
-1.76279292791e-06
3.76555743445e-05
-2.54886653006e-06
3.92032941627e-05
-3.87872561289e-06
4.1125715418e-05
-6.19995191014e-06
-1.0152835873e-05
4.29012611842e-05
5.35705186455e-05
8.95186749168e-06
5.55863068148e-05
1.58501347285e-05
5.52410587457e-05
1.62553857561e-05
5.35976156487e-05
1.40474395138e-05
5.15429059209e-05
1.11562300249e-05
4.95819406925e-05
8.45147058294e-06
4.79262511999e-05
6.22441149279e-06
4.66200397875e-05
4.49842441283e-06
4.56322340221e-05
3.20429835292e-06
4.49066877935e-05
2.25390631518e-06
4.43854423947e-05
1.56624319781e-06
4.40178330669e-05
1.07472631868e-06
4.37629125682e-05
7.27376812808e-07
4.358904504e-05
4.84705366375e-07
4.34725017867e-05
3.17212084087e-07
4.33958687777e-05
2.0313311876e-07
4.33465907713e-05
1.26584899327e-07
4.33157566588e-05
7.60952191564e-08
4.32971352243e-05
4.34651577717e-08
4.32864336262e-05
2.289976813e-08
4.3280740285e-05
1.03515534556e-08
4.32781174752e-05
3.03062984868e-09
4.32772907128e-05
-9.6308633912e-10
4.32774551694e-05
-2.90284114321e-09
4.32781065306e-05
-3.61748564627e-09
4.32789445331e-05
-3.64479450974e-09
4.32797995438e-05
-3.32084771824e-09
4.32805839169e-05
-2.84876538657e-09
4.32812597617e-05
-2.34526938694e-09
4.32818178833e-05
-1.87248456368e-09
4.32822645404e-05
-1.45909478463e-09
4.32826132518e-05
-1.11416956555e-09
4.32828799113e-05
-8.35945986692e-10
4.32830802357e-05
-6.17335082545e-10
4.3283228353e-05
-4.49241452454e-10
4.32833362357e-05
-3.223619794e-10
4.32834137127e-05
-2.28146586979e-10
4.32834685884e-05
-1.5923605583e-10
4.32835069216e-05
-1.09554467789e-10
4.32835332959e-05
-7.42373710506e-11
4.32835511334e-05
-4.94645725355e-11
4.3283562999e-05
-3.23414381491e-11
4.32835707098e-05
-2.07098495415e-11
4.32835755623e-05
-1.29376680481e-11
4.32835785463e-05
-7.84345244579e-12
4.32835803186e-05
-4.5982476079e-12
4.32835813021e-05
-2.59340982351e-12
4.32835818382e-05
-1.40366486938e-12
4.3283582173e-05
-7.50599769073e-13
4.32835823228e-05
-4.74890526749e-13
4.32835823482e-05
-3.91697820705e-13
4.32835823185e-05
-3.96024613009e-13
4.32835822825e-05
-4.90796295162e-13
4.32835822115e-05
-5.88389297469e-13
4.32835821325e-05
-7.13258954837e-13
4.32835820709e-05
-8.39198629892e-13
4.32835820126e-05
-9.7539685437e-13
4.32835819528e-05
-1.10686993934e-12
4.32835819293e-05
-1.21076225332e-12
4.32835819605e-05
-1.2907980058e-12
4.32835820329e-05
-1.36037936265e-12
4.32835821312e-05
-1.42396426902e-12
4.32835822504e-05
-1.49301765338e-12
4.32835823915e-05
-1.58664414213e-12
4.32835825419e-05
-1.70632455477e-12
4.32835826811e-05
-1.828767796e-12
4.3283582827e-05
-1.94411280804e-12
4.32835829916e-05
-2.06005886392e-12
4.32835831589e-05
-2.16821216244e-12
4.3283583357e-05
-2.23765604434e-12
4.32835835936e-05
-2.29304524196e-12
4.32835838465e-05
-2.37472876752e-12
4.32835841064e-05
-2.48762299096e-12
4.32835843994e-05
-2.61626642629e-12
4.32835847501e-05
-2.76101018489e-12
4.32835851299e-05
-2.91299104557e-12
4.32835855072e-05
-3.03445403855e-12
4.32835858936e-05
-3.12715249775e-12
4.32835863058e-05
-3.23745159517e-12
4.32835867427e-05
-3.3754897711e-12
4.32835872068e-05
-3.52633847639e-12
4.32835877172e-05
-3.7066564319e-12
4.3283588267e-05
-3.9197792898e-12
4.32835888292e-05
-4.13083109055e-12
4.32835894304e-05
-4.34390004966e-12
4.32835901024e-05
-4.57140491943e-12
4.32835908398e-05
-4.77978507559e-12
4.3283591657e-05
-4.97913563464e-12
4.32835925771e-05
-5.2369996907e-12
4.32835935865e-05
-5.57690799814e-12
4.32835946756e-05
-5.98778110811e-12
4.32835959045e-05
-6.48326894652e-12
4.32835973544e-05
-7.07448148534e-12
4.32835990445e-05
-7.7815656841e-12
4.3283601021e-05
-8.65460047143e-12
4.32836033706e-05
-9.70675958031e-12
4.32836061788e-05
-1.09500997768e-11
4.32836095754e-05
-1.24589744813e-11
4.32836137028e-05
-1.43209169965e-11
4.32836187512e-05
-1.65534869753e-11
4.32836247129e-05
-1.92971337538e-11
4.32836319385e-05
-2.26916892428e-11
4.32836407251e-05
-2.6889130104e-11
4.32836514633e-05
-3.20973562406e-11
4.32836645768e-05
-3.85638747637e-11
4.32836806187e-05
-4.6546421027e-11
4.32837003617e-05
-5.63897096978e-11
4.32837246982e-05
-6.85587560073e-11
4.32837546921e-05
-8.35793106715e-11
4.32837916659e-05
-1.02119337165e-10
4.32838373033e-05
-1.25127672155e-10
4.32838937002e-05
-1.53802098754e-10
4.32839633205e-05
-1.89355822349e-10
4.32840492767e-05
-2.33297181944e-10
4.32841555424e-05
-2.87597131481e-10
4.32842869354e-05
-3.54800474714e-10
4.32844493388e-05
-4.37999531543e-10
4.3284650123e-05
-5.40992499901e-10
4.32848984643e-05
-6.68502154331e-10
4.32852056728e-05
-8.26349708874e-10
4.3285585767e-05
-1.02175533539e-09
4.3286056157e-05
-1.26370054087e-09
4.32866382729e-05
-1.56332181704e-09
4.32873587161e-05
-1.93439054559e-09
4.32882505176e-05
-2.39426334951e-09
4.32893544261e-05
-2.96422092386e-09
4.32907207774e-05
-3.67062601966e-09
4.32924122751e-05
-4.54583139752e-09
4.32945064771e-05
-5.62993172743e-09
4.32970994963e-05
-6.97268062435e-09
4.33003104038e-05
-8.6359000198e-09
4.33042865494e-05
-1.06962440311e-08
4.33092106911e-05
-1.32488254673e-08
4.33153095161e-05
-1.64118990828e-08
4.33228640594e-05
-2.03324225957e-08
4.33322229221e-05
-2.51930478373e-08
4.3343818829e-05
-3.12211541943e-08
4.33581892948e-05
-3.87002136332e-08
4.33760024957e-05
-4.79841888553e-08
4.33980898248e-05
-5.9516084586e-08
4.34254867391e-05
-7.38517554719e-08
4.34594849552e-05
-9.16907371844e-08
4.35016992237e-05
-1.13917096724e-07
4.35541523754e-05
-1.41653824366e-07
4.36193856885e-05
-1.76335975944e-07
4.37006039373e-05
-2.19811636274e-07
4.38018673806e-05
-2.74484522217e-07
4.39283491505e-05
-3.43519426551e-07
4.40866875132e-05
-4.3114748473e-07
4.42854761279e-05
-5.43138099837e-07
4.45359552908e-05
-6.87557816683e-07
4.48529885529e-05
-8.76043834218e-07
4.52564128169e-05
-1.12602706179e-06
4.57727351818e-05
-1.4647368109e-06
4.64366137618e-05
-1.93651894712e-06
4.72898099673e-05
-2.61598908213e-06
4.83705974714e-05
-3.6296540575e-06
4.96755720168e-05
-5.18370020124e-06
5.10539090662e-05
-7.57828871759e-06
-1.1112619763e-05
5.20136926816e-05
5.27606069505e-05
6.19125852326e-06
5.57402413325e-05
1.28705027942e-05
5.73124120966e-05
1.46832146428e-05
5.76111978825e-05
1.37486534337e-05
5.71338684231e-05
1.16335592354e-05
5.63199842756e-05
9.26535510058e-06
5.54496450642e-05
7.09475055649e-06
5.46637028586e-05
5.28436636864e-06
5.40144131229e-05
3.85358818991e-06
5.35068425724e-05
2.76147688876e-06
5.31248780627e-05
1.94820767181e-06
5.28455240407e-05
1.35408031208e-06
5.26458878575e-05
9.27012998857e-07
5.25060752145e-05
6.24518017781e-07
5.240999754e-05
4.13289721169e-07
5.2345216012e-05
2.6791462466e-07
5.23024110854e-05
1.69389836971e-07
5.22747662166e-05
1.03740092145e-07
5.22573940472e-05
6.08373215971e-08
5.22468519786e-05
3.3441806597e-08
5.22407556959e-05
1.64477870936e-08
5.22374826364e-05
6.30360426674e-09
5.22359413239e-05
5.78118653499e-10
5.22354259811e-05
-2.38755778884e-09
5.2235477893e-05
-3.66942449115e-09
5.22358127543e-05
-3.97965322382e-09
5.2236260083e-05
-3.76812784193e-09
5.22367229809e-05
-3.31160443017e-09
5.22371508712e-05
-2.77310131148e-09
5.22375213135e-05
-2.24290791701e-09
5.22378282512e-05
-1.76606172782e-09
5.22380745353e-05
-1.3604863208e-09
5.22382671879e-05
-1.02866317615e-09
5.2238414764e-05
-7.64994828994e-10
5.22385258078e-05
-5.60345011489e-10
5.22386080116e-05
-4.04615286066e-10
5.22386679664e-05
-2.88140036876e-10
5.22387110791e-05
-2.02369828557e-10
5.22387416619e-05
-1.40121373856e-10
5.22387630534e-05
-9.55880835717e-11
5.2238777762e-05
-6.41691241435e-11
5.22387877188e-05
-4.2311146131e-11
5.22387943408e-05
-2.73528623861e-11
5.22387986219e-05
-1.72873198036e-11
5.22388013459e-05
-1.06361923677e-11
5.22388030729e-05
-6.34882561959e-12
5.22388041322e-05
-3.65686201674e-12
5.22388047317e-05
-2.00516957822e-12
5.22388050185e-05
-1.03000568442e-12
5.22388050911e-05
-5.22437427722e-13
5.22388050207e-05
-3.14651256341e-13
5.22388048934e-05
-2.75690931148e-13
5.22388047568e-05
-3.49824319486e-13
5.22388046282e-05
-4.72112248283e-13
5.2238804489e-05
-6.15224627899e-13
5.22388043458e-05
-7.56550449531e-13
5.22388042156e-05
-9.00617400106e-13
5.2238804095e-05
-1.03635682866e-12
5.223880399e-05
-1.1414591379e-12
5.22388039242e-05
-1.21901784593e-12
5.22388039006e-05
-1.29113061831e-12
5.22388038907e-05
-1.36834731798e-12
5.22388038692e-05
-1.44904260224e-12
5.22388038615e-05
-1.54183266005e-12
5.22388038676e-05
-1.65727494639e-12
5.22388038511e-05
-1.78223485329e-12
5.22388038285e-05
-1.90117052471e-12
5.22388038249e-05
-2.01559931619e-12
5.22388038287e-05
-2.12191266062e-12
5.22388038424e-05
-2.20576323515e-12
5.2238803874e-05
-2.27597429193e-12
5.22388039165e-05
-2.35633867411e-12
5.22388039628e-05
-2.45397871861e-12
5.2238804034e-05
-2.55427945996e-12
5.2238804153e-05
-2.65464977874e-12
5.22388042882e-05
-2.77026922425e-12
5.22388044037e-05
-2.90000609886e-12
5.22388045127e-05
-3.03447025447e-12
5.22388046369e-05
-3.18413820341e-12
5.2238804786e-05
-3.36278753694e-12
5.22388049626e-05
-3.55831561618e-12
5.22388051708e-05
-3.75475578452e-12
5.22388054039e-05
-3.95791116932e-12
5.22388056461e-05
-4.17268097619e-12
5.22388059099e-05
-4.40233507361e-12
5.22388062172e-05
-4.65836126201e-12
5.22388065772e-05
-4.93870306833e-12
5.22388070022e-05
-5.23670375344e-12
5.2238807495e-05
-5.5796949298e-12
5.22388080564e-05
-6.00577852771e-12
5.22388086964e-05
-6.52461197317e-12
5.22388094403e-05
-7.14246951565e-12
5.22388103509e-05
-7.89008222651e-12
5.22388115003e-05
-8.82109952735e-12
5.22388129393e-05
-9.97418828297e-12
5.22388147295e-05
-1.13787256893e-11
5.22388169458e-05
-1.30704266918e-11
5.22388196896e-05
-1.51166945481e-11
5.22388231004e-05
-1.76446896799e-11
5.22388273001e-05
-2.0766968392e-11
5.2238832572e-05
-2.46161977324e-11
5.22388391857e-05
-2.93574288089e-11
5.22388474197e-05
-3.52055772287e-11
5.22388576958e-05
-4.24336502714e-11
5.22388704778e-05
-5.14023669024e-11
5.22388863366e-05
-6.24952022322e-11
5.22389060732e-05
-7.61819635333e-11
5.22389306446e-05
-9.30946528566e-11
5.22389611794e-05
-1.14023348312e-10
5.22389990391e-05
-1.39913030155e-10
5.22390458617e-05
-1.7196734038e-10
5.22391037483e-05
-2.11723798278e-10
5.22391753728e-05
-2.60997657069e-10
5.22392639664e-05
-3.21958302542e-10
5.22393736011e-05
-3.97298517772e-10
5.22395093081e-05
-4.90481346821e-10
5.22396772183e-05
-6.05840705868e-10
5.22398849806e-05
-7.48683862813e-10
5.2240142117e-05
-9.25537140944e-10
5.22404603792e-05
-1.14452887681e-09
5.22408543022e-05
-1.41563256533e-09
5.22413419804e-05
-1.75126094244e-09
5.22419457127e-05
-2.16690804662e-09
5.22426929774e-05
-2.6816801782e-09
5.22436179993e-05
-3.31932903257e-09
5.22447631513e-05
-4.10938933981e-09
5.22461806499e-05
-5.08825977363e-09
5.22479354527e-05
-6.30076897515e-09
5.22501079545e-05
-7.80252234576e-09
5.22527977264e-05
-9.66245421733e-09
5.22561281904e-05
-1.19661618423e-08
5.22602520102e-05
-1.48198410487e-08
5.22653583522e-05
-1.83551277548e-08
5.22716818251e-05
-2.27354461503e-08
5.22795131906e-05
-2.8163855216e-08
5.22892128121e-05
-3.48927310907e-08
5.23012276112e-05
-4.3236035315e-08
5.23161121305e-05
-5.35848421426e-08
5.23345546992e-05
-6.64269247471e-08
5.23574103223e-05
-8.23718406448e-08
5.23857416456e-05
-1.02183149093e-07
5.2420870572e-05
-1.2681979179e-07
5.24644437774e-05
-1.57490370509e-07
5.25185151489e-05
-1.95725011108e-07
5.25856504798e-05
-2.43471046968e-07
5.26690617416e-05
-3.032230077e-07
5.27727799728e-05
-3.78203192682e-07
5.2901877759e-05
-4.72617479224e-07
5.30627562212e-05
-5.92025866289e-07
5.32635139454e-05
-7.43895583504e-07
5.3514408405e-05
-9.38452260172e-07
5.38283930638e-05
-1.19002861886e-06
5.42216204787e-05
-1.51925450122e-06