/*--------------------------------*- C++ -*----------------------------------*\
| =========                 |                                                 |
| \\      /  F ield         | OpenFOAM: The Open Source CFD Toolbox           |
|  \\    /   O peration     | Version:  2106                                  |
|   \\  /    A nd           | Website:  www.openfoam.com                      |
|    \\/     M anipulation  |                                                 |
\*---------------------------------------------------------------------------*/
FoamFile
{
    version     2.0;
    format      ascii;
    arch        "LSB;label=32;scalar=64";
    class       volVectorField;
    location    "0.34";
    object      U;
}
// * * * * * * * * * * * * * * * * * * * * * * * * * * * * * * * * * * * * * //

dimensions      [0 1 -1 0 0 0 0];

internalField   nonuniform List<vector> 
9600
(
(0.675396187284 0.157677431494 0)
(0.563826162706 0.102430797711 0)
(0.381538920413 0.0510646966533 0)
(0.28385318307 0.02445899185 0)
(0.232281035392 0.0119348202382 0)
(0.201907709858 0.00623035704189 0)
(0.183178405467 0.00352192801269 0)
(0.171271987824 0.00212007580527 0)
(0.163512243072 0.00132523522662 0)
(0.158392659517 0.000841456787421 0)
(0.155010696571 0.000534136036489 0)
(0.152789978413 0.000335039377058 0)
(0.151348689308 0.000205521124791 0)
(0.150429240796 0.000121792313564 0)
(0.149856453001 6.84339412668e-05 0)
(0.149511116148 3.51729132688e-05 0)
(0.149312506199 1.50861900993e-05 0)
(0.149206456065 3.50345002923e-06 0)
(0.149157075857 -2.70707672173e-06 0)
(0.149140966292 -5.61152567865e-06 0)
(0.149143249532 -6.52709785756e-06 0)
(0.149154645848 -6.41774708143e-06 0)
(0.149169584655 -5.78180016527e-06 0)
(0.1491849558 -4.92811768886e-06 0)
(0.149199125491 -4.04264226293e-06 0)
(0.149211373151 -3.22389735304e-06 0)
(0.149221511139 -2.5153121088e-06 0)
(0.149229639499 -1.92850324295e-06 0)
(0.149235995281 -1.45833889382e-06 0)
(0.149240862533 -1.09147571742e-06 0)
(0.149244522997 -8.11482820836e-07 0)
(0.149247231536 -6.01782428312e-07 0)
(0.149249205775 -4.47396061947e-07 0)
(0.149250624405 -3.35694742073e-07 0)
(0.149251629285 -2.55941987191e-07 0)
(0.149252330795 -1.99398209156e-07 0)
(0.149252813717 -1.59456701364e-07 0)
(0.149253141167 -1.31018601597e-07 0)
(0.149253359232 -1.10218186064e-07 0)
(0.149253501498 -9.44130091413e-08 0)
(0.149253592197 -8.21582276979e-08 0)
(0.149253648536 -7.34334988092e-08 0)
(0.14925368152 -6.97138621798e-08 0)
(0.149253698558 -7.04558034312e-08 0)
(0.149253705809 -7.35367693802e-08 0)
(0.14925370725 -7.79802812613e-08 0)
(0.149253705584 -8.38625952822e-08 0)
(0.149253702938 -9.14312111041e-08 0)
(0.149253699778 -9.99058068639e-08 0)
(0.149253696129 -1.08777717912e-07 0)
(0.149253692569 -1.18129615491e-07 0)
(0.149253689167 -1.28080634767e-07 0)
(0.149253685551 -1.38566708034e-07 0)
(0.149253681726 -1.49518003097e-07 0)
(0.149253677925 -1.61105264479e-07 0)
(0.149253674141 -1.73471825461e-07 0)
(0.149253670024 -1.86616407421e-07 0)
(0.149253665667 -2.00702657278e-07 0)
(0.149253661481 -2.15905736052e-07 0)
(0.149253657502 -2.32134017282e-07 0)
(0.14925365388 -2.49338864009e-07 0)
(0.149253650945 -2.67588564896e-07 0)
(0.149253648634 -2.87024714252e-07 0)
(0.149253646437 -3.07789853386e-07 0)
(0.149253643869 -3.29932764409e-07 0)
(0.149253640903 -3.5345122686e-07 0)
(0.14925363768 -3.78392696868e-07 0)
(0.149253634043 -4.04707921385e-07 0)
(0.149253630146 -4.32502842908e-07 0)
(0.149253626523 -4.62054247929e-07 0)
(0.149253623124 -4.93240298985e-07 0)
(0.149253619795 -5.25959415685e-07 0)
(0.149253616756 -5.6054653022e-07 0)
(0.149253613937 -5.97219131916e-07 0)
(0.149253611111 -6.35806977952e-07 0)
(0.149253608354 -6.76242493481e-07 0)
(0.149253605767 -7.18759826366e-07 0)
(0.149253603031 -7.63520417239e-07 0)
(0.149253599819 -8.10514863149e-07 0)
(0.149253596474 -8.59808832788e-07 0)
(0.149253593501 -9.11501839432e-07 0)
(0.149253590785 -9.65642978701e-07 0)
(0.149253587811 -1.0222990802e-06 0)
(0.14925358435 -1.08158834964e-06 0)
(0.149253580626 -1.14363516496e-06 0)
(0.149253576851 -1.20842418498e-06 0)
(0.149253573175 -1.27588301235e-06 0)
(0.149253569918 -1.34605192399e-06 0)
(0.149253567167 -1.41895521417e-06 0)
(0.149253564536 -1.49459128694e-06 0)
(0.149253561677 -1.57314402627e-06 0)
(0.149253558687 -1.65492434182e-06 0)
(0.14925355581 -1.73990128186e-06 0)
(0.149253553382 -1.8277066709e-06 0)
(0.149253552238 -1.91832042131e-06 0)
(0.14925355292 -2.01194400987e-06 0)
(0.149253555054 -2.10845790285e-06 0)
(0.14925355844 -2.20750269996e-06 0)
(0.149253563761 -2.30895551739e-06 0)
(0.149253572058 -2.41277548456e-06 0)
(0.149253584169 -2.51829094958e-06 0)
(0.149253601501 -2.62524381963e-06 0)
(0.149253626072 -2.73392980433e-06 0)
(0.149253659376 -2.84467200812e-06 0)
(0.149253702706 -2.95755859174e-06 0)
(0.14925375808 -3.07283871927e-06 0)
(0.1492538284 -3.19059389518e-06 0)
(0.149253917223 -3.31080781871e-06 0)
(0.149254029725 -3.43444580702e-06 0)
(0.149254172073 -3.56451639245e-06 0)
(0.149254350569 -3.7068646356e-06 0)
(0.149254574286 -3.86533719595e-06 0)
(0.149254853773 -4.03535545163e-06 0)
(0.149255201167 -4.21550107614e-06 0)
(0.149255632407 -4.40600223365e-06 0)
(0.14925616709 -4.60687606164e-06 0)
(0.149256830392 -4.81903768821e-06 0)
(0.149257653862 -5.04453631538e-06 0)
(0.149258675123 -5.28509858504e-06 0)
(0.149259940438 -5.54189999294e-06 0)
(0.149261507805 -5.81674983907e-06 0)
(0.149263448446 -6.11278140532e-06 0)
(0.149265851332 -6.43618759907e-06 0)
(0.149268837856 -6.80455785042e-06 0)
(0.149272578727 -7.27736556792e-06 0)
(0.149277204948 -7.98185523282e-06 0)
(0.149282886141 -8.84775002831e-06 0)
(0.14928990567 -9.83817055639e-06 0)
(0.149298595715 -1.09502578989e-05 0)
(0.149309359027 -1.21965192068e-05 0)
(0.149322690631 -1.35969023036e-05 0)
(0.14933920192 -1.51769346458e-05 0)
(0.149359651713 -1.69685728351e-05 0)
(0.1493849805 -1.90110312624e-05 0)
(0.149416355315 -2.13536405955e-05 0)
(0.149455227252 -2.4060313449e-05 0)
(0.149503398677 -2.7212438169e-05 0)
(0.149563107361 -3.09117484439e-05 0)
(0.149637136404 -3.52858550413e-05 0)
(0.149728954607 -4.04960863099e-05 0)
(0.149842892082 -4.67478165279e-05 0)
(0.149984361552 -5.43040886699e-05 0)
(0.150160141446 -6.35003965804e-05 0)
(0.150378745858 -7.4764510286e-05 0)
(0.150650912457 -8.86477646865e-05 0)
(0.15099024132 -0.000105866126852 0)
(0.151414044172 -0.000127351158415 0)
(0.151944507111 -0.000154322318472 0)
(0.152610305178 -0.000188391374765 0)
(0.153448876883 -0.000231703106907 0)
(0.154509750474 -0.00028714508924 0)
(0.155859688778 -0.000358764564856 0)
(0.157591428036 -0.000452953837936 0)
(0.159841338409 -0.000582796625344 0)
(0.162831675316 -0.000784813641986 0)
(0.166977248512 -0.00118055169098 0)
(0.173217147917 -0.00220091701517 0)
(0.184361031927 -0.00544816750505 0)
(0.208891748053 -0.0169821336107 0)
(0.262940961016 -0.0591395913724 0)
(0.97720117449 0.296997122506 0)
(0.962687470886 0.250387255298 0)
(0.820646030501 0.158581012533 0)
(0.697824885149 0.0957993529679 0)
(0.610491670514 0.0579132735561 0)
(0.549133318641 0.0359038491058 0)
(0.50670598552 0.0229309381565 0)
(0.477662021159 0.014978880438 0)
(0.457815303142 0.0099097312747 0)
(0.444277677314 0.0065833097386 0)
(0.435087226501 0.00436198793405 0)
(0.428895555777 0.00286682674498 0)
(0.424768036404 0.00185972031571 0)
(0.422054225296 0.00118457223636 0)
(0.420301042416 0.000736110114247 0)
(0.419193669061 0.000442158085236 0)
(0.418514599787 0.000252858680701 0)
(0.418114824054 0.000133738332372 0)
(0.417893366229 6.10520742769e-05 0)
(0.417782723345 1.85777855111e-05 0)
(0.417738464923 -4.6339572384e-06 0)
(0.417731926559 -1.60095227651e-05 0)
(0.417745141363 -2.03058344967e-05 0)
(0.417767163336 -2.06089442676e-05 0)
(0.417791610937 -1.88558510165e-05 0)
(0.417815023864 -1.62213896843e-05 0)
(0.417835743072 -1.33839139993e-05 0)
(0.417853175727 -1.0706108134e-05 0)
(0.417867325411 -8.35750541592e-06 0)
(0.417878497892 -6.39373848505e-06 0)
(0.417887124043 -4.80724842818e-06 0)
(0.4178936585 -3.55902729836e-06 0)
(0.417898525614 -2.5978049939e-06 0)
(0.41790209566 -1.87131776242e-06 0)
(0.417904676794 -1.33098423911e-06 0)
(0.417906516763 -9.34382566935e-07 0)
(0.417907810452 -6.46981658967e-07 0)
(0.417908707401 -4.41319379881e-07 0)
(0.41790931974 -2.95797015239e-07 0)
(0.417909730384 -1.940184798e-07 0)
(0.417909999677 -1.24089161956e-07 0)
(0.417910170561 -7.78024048591e-08 0)
(0.417910274023 -4.95306769766e-08 0)
(0.417910333552 -3.38790330851e-08 0)
(0.417910365401 -2.60904441774e-08 0)
(0.417910379086 -2.25528233273e-08 0)
(0.41791038125 -2.0446438902e-08 0)
(0.4179103779 -1.88372761865e-08 0)
(0.417910372144 -1.81362051247e-08 0)
(0.417910364611 -1.83786418715e-08 0)
(0.417910356085 -1.93938803933e-08 0)
(0.41791034715 -2.12338991274e-08 0)
(0.417910337852 -2.35824274076e-08 0)
(0.41791032812 -2.60229943368e-08 0)
(0.417910318042 -2.8493463705e-08 0)
(0.417910307852 -3.11735716117e-08 0)
(0.417910297245 -3.39637551648e-08 0)
(0.41791028608 -3.67177604446e-08 0)
(0.41791027491 -3.97089594544e-08 0)
(0.417910263968 -4.28842584096e-08 0)
(0.417910253219 -4.59162853969e-08 0)
(0.417910242751 -4.87543866194e-08 0)
(0.417910232441 -5.16392940427e-08 0)
(0.417910221839 -5.47789004896e-08 0)
(0.417910210506 -5.81480555195e-08 0)
(0.417910198394 -6.17720450712e-08 0)
(0.417910185704 -6.5765066211e-08 0)
(0.41791017221 -6.99631685752e-08 0)
(0.4179101578 -7.42427992418e-08 0)
(0.417910143244 -7.88121402596e-08 0)
(0.417910128829 -8.36154758337e-08 0)
(0.417910114029 -8.83505651439e-08 0)
(0.417910098794 -9.33167666687e-08 0)
(0.417910083418 -9.88647026672e-08 0)
(0.417910067863 -1.04724803233e-07 0)
(0.417910051894 -1.10557299841e-07 0)
(0.417910035456 -1.16538603006e-07 0)
(0.41791001843 -1.22924804081e-07 0)
(0.417910000582 -1.29580334223e-07 0)
(0.417909982229 -1.36415128396e-07 0)
(0.417909963912 -1.43642486426e-07 0)
(0.417909945528 -1.51433892778e-07 0)
(0.417909926512 -1.59683523016e-07 0)
(0.417909906616 -1.68218539144e-07 0)
(0.417909886219 -1.77062856912e-07 0)
(0.417909865812 -1.86261325553e-07 0)
(0.417909845642 -1.95740656122e-07 0)
(0.417909826017 -2.05516745808e-07 0)
(0.417909807164 -2.15715052963e-07 0)
(0.417909788744 -2.26468376493e-07 0)
(0.417909770289 -2.37946996052e-07 0)
(0.417909752218 -2.50468036671e-07 0)
(0.417909735615 -2.64115742433e-07 0)
(0.417909721174 -2.78453847079e-07 0)
(0.417909709624 -2.93494539244e-07 0)
(0.417909702032 -3.09959295892e-07 0)
(0.417909699104 -3.28145635448e-07 0)
(0.417909701324 -3.47850184404e-07 0)
(0.417909709785 -3.69512052677e-07 0)
(0.417909726942 -3.95012235294e-07 0)
(0.417909755376 -4.25629689874e-07 0)
(0.417909797589 -4.5973976695e-07 0)
(0.417909857263 -4.9763902106e-07 0)
(0.417909938509 -5.40288495861e-07 0)
(0.417910045714 -5.88481394298e-07 0)
(0.417910184669 -6.43269377101e-07 0)
(0.417910363071 -7.05471143911e-07 0)
(0.417910589599 -7.75159744737e-07 0)
(0.417910874342 -8.52086087097e-07 0)
(0.417911228126 -9.35113038899e-07 0)
(0.417911667452 -1.01857448363e-06 0)
(0.417912224319 -1.09957682381e-06 0)
(0.417912930406 -1.1892263071e-06 0)
(0.417913814579 -1.29468080612e-06 0)
(0.417914917455 -1.42154306877e-06 0)
(0.417916290123 -1.57467410974e-06 0)
(0.417917995696 -1.76061861782e-06 0)
(0.417920114039 -1.98933464888e-06 0)
(0.417922744047 -2.27283484813e-06 0)
(0.417926006924 -2.62476316851e-06 0)
(0.417930051979 -3.06218415928e-06 0)
(0.417935062525 -3.60667767734e-06 0)
(0.417941262628 -4.28625179852e-06 0)
(0.417948921804 -5.14307530111e-06 0)
(0.417958362537 -6.25769322025e-06 0)
(0.417970063136 -7.77498062869e-06 0)
(0.417984626454 -9.71504373138e-06 0)
(0.418002708137 -1.21352623651e-05 0)
(0.418025127999 -1.51329254216e-05 0)
(0.418052914859 -1.88399244107e-05 0)
(0.418087346864 -2.34230521151e-05 0)
(0.418130007472 -2.90883252488e-05 0)
(0.418182861406 -3.60910573049e-05 0)
(0.418248344184 -4.47462907674e-05 0)
(0.418329475389 -5.54431938569e-05 0)
(0.418430004535 -6.86668371977e-05 0)
(0.418554590003 -8.50231053581e-05 0)
(0.418709020748 -0.000105267584342 0)
(0.418900497308 -0.000130343403643 0)
(0.419137988324 -0.000161431668903 0)
(0.419432681891 -0.000200018638007 0)
(0.419798562036 -0.000247985006103 0)
(0.420253146478 -0.00030771981627 0)
(0.420818438894 -0.000382270982388 0)
(0.42152218116 -0.00047555825431 0)
(0.42239951487 -0.000592671794305 0)
(0.423495207666 -0.000740287731557 0)
(0.424866708122 -0.000927275748322 0)
(0.426588453635 -0.00116563219964 0)
(0.428758123749 -0.0014719635482 0)
(0.431506105761 -0.0018700166013 0)
(0.435010630716 -0.00239546984851 0)
(0.43952356062 -0.00310614463532 0)
(0.445418015503 -0.0041066575031 0)
(0.453282579427 -0.00561396366633 0)
(0.464101758057 -0.00813817043267 0)
(0.479596423313 -0.0129832430192 0)
(0.503092020088 -0.0236888639673 0)
(0.541047347025 -0.0501107374094 0)
(0.597543822926 -0.115924652519 0)
(1.03387038035 0.239240973171 0)
(1.08314082096 0.293634370769 0)
(1.0329443827 0.239131927402 0)
(0.954408198977 0.174539023477 0)
(0.880112583088 0.121551464671 0)
(0.818677618494 0.083233591054 0)
(0.771466792644 0.0568258124999 0)
(0.736691570496 0.038812574739 0)
(0.711672099968 0.0264913176158 0)
(0.693953127012 0.0180235759183 0)
(0.681568197935 0.0121876204371 0)
(0.673018595959 0.00816650316136 0)
(0.667192225972 0.00540556478268 0)
(0.663277741267 0.00352226162924 0)
(0.660690301786 0.00224961088884 0)
(0.659012726822 0.00140002699453 0)
(0.657950519139 0.000841455482188 0)
(0.657298065586 0.000481123582746 0)
(0.656913521915 0.000254195522517 0)
(0.656700330787 0.00011571269962 0)
(0.656593721908 3.47986406151e-05 0)
(0.656551007067 -9.46277127479e-06 0)
(0.656544662413 -3.10072323468e-05 0)
(0.656557358279 -3.90716687369e-05 0)
(0.656578539657 -3.95445943433e-05 0)
(0.656602061684 -3.61171433901e-05 0)
(0.656624591181 -3.10277698304e-05 0)
(0.656644529257 -2.55663856118e-05 0)
(0.656661304636 -2.04217577085e-05 0)
(0.656674920376 -1.59140701864e-05 0)
(0.656685670714 -1.21468298307e-05 0)
(0.656693970564 -9.1040711755e-06 0)
(0.656700257219 -6.71035050333e-06 0)
(0.656704939417 -4.86755512219e-06 0)
(0.6567083736 -3.47513354801e-06 0)
(0.656710855863 -2.44006706148e-06 0)
(0.656712624703 -1.68240566202e-06 0)
(0.656713867377 -1.13641737144e-06 0)
(0.656714727384 -7.49276914065e-07 0)
(0.656715312701 -4.79344987231e-07 0)
(0.656715703531 -2.94691524345e-07 0)
(0.656715958913 -1.71267345883e-07 0)
(0.656716121099 -9.02054566318e-08 0)
(0.656716219993 -3.78812572092e-08 0)
(0.656716277433 -5.61204495054e-09 0)
(0.656716308685 1.33002313503e-08 0)
(0.65671632332 2.4556880252e-08 0)
(0.656716326987 3.14815735418e-08 0)
(0.656716323265 3.53419028583e-08 0)
(0.656716315193 3.81592907847e-08 0)
(0.656716304934 4.07743088515e-08 0)
(0.656716293598 4.31466683542e-08 0)
(0.656716281724 4.54721308131e-08 0)
(0.656716269446 4.8244963007e-08 0)
(0.656716256715 5.14797519149e-08 0)
(0.656716243719 5.51059444417e-08 0)
(0.656716230485 5.90858916438e-08 0)
(0.656716216767 6.36544728112e-08 0)
(0.656716202789 6.86654113843e-08 0)
(0.656716189026 7.40385785887e-08 0)
(0.656716175603 7.99725799634e-08 0)
(0.656716162303 8.64539794704e-08 0)
(0.656716148815 9.32224924577e-08 0)
(0.656716134859 1.00117226097e-07 0)
(0.656716120027 1.07298483578e-07 0)
(0.656716104066 1.15019133887e-07 0)
(0.656716087263 1.23147521356e-07 0)
(0.656716069654 1.31636190965e-07 0)
(0.656716051068 1.40981389677e-07 0)
(0.65671603206 1.51259243136e-07 0)
(0.656716013078 1.62136005792e-07 0)
(0.656715993644 1.73679857564e-07 0)
(0.656715973364 1.85991198496e-07 0)
(0.656715952587 1.98822457407e-07 0)
(0.656715931656 2.12119296409e-07 0)
(0.656715910314 2.26287916972e-07 0)
(0.656715888202 2.41492911247e-07 0)
(0.656715865269 2.5742171369e-07 0)
(0.656715841489 2.74086460967e-07 0)
(0.656715816998 2.91782130864e-07 0)
(0.656715792156 3.10320516652e-07 0)
(0.656715767069 3.29326938999e-07 0)
(0.656715741444 3.49027068659e-07 0)
(0.65671571503 3.69944785328e-07 0)
(0.65671568806 3.92181730001e-07 0)
(0.656715660978 4.15665001619e-07 0)
(0.656715634098 4.40458549169e-07 0)
(0.656715607742 4.66461975451e-07 0)
(0.656715582139 4.93421761721e-07 0)
(0.65671555715 5.21258910564e-07 0)
(0.656715532538 5.50048828302e-07 0)
(0.656715508755 5.79822472666e-07 0)
(0.656715487097 6.10546073208e-07 0)
(0.656715468586 6.42337177717e-07 0)
(0.65671545384 6.75136026898e-07 0)
(0.656715443942 7.08471712287e-07 0)
(0.656715440243 7.42005618633e-07 0)
(0.656715443637 7.75750376752e-07 0)
(0.656715454443 8.1050520419e-07 0)
(0.656715474761 8.4712689161e-07 0)
(0.656715510881 8.85674757408e-07 0)
(0.656715568194 9.24357408605e-07 0)
(0.656715650388 9.6177346664e-07 0)
(0.656715762897 9.96079375117e-07 0)
(0.65671591219 1.02557541635e-06 0)
(0.656716106863 1.04831485388e-06 0)
(0.65671635883 1.06161045001e-06 0)
(0.656716682615 1.06297400955e-06 0)
(0.65671709688 1.05030434394e-06 0)
(0.656717627332 1.02150572727e-06 0)
(0.656718301091 9.77420930306e-07 0)
(0.656719139 9.16434936092e-07 0)
(0.656720173042 8.23060730871e-07 0)
(0.656721455764 6.84199570264e-07 0)
(0.65672305021 4.85670251835e-07 0)
(0.656725031325 2.1065723376e-07 0)
(0.656727489398 -1.60798078091e-07 0)
(0.656730537245 -6.54607245701e-07 0)
(0.65673431548 -1.30411530077e-06 0)
(0.656738997553 -2.1503045345e-06 0)
(0.656744797994 -3.24372011404e-06 0)
(0.656751982129 -4.64669943871e-06 0)
(0.65676087854 -6.43525716071e-06 0)
(0.65677189588 -8.70420922362e-06 0)
(0.656785535078 -1.15655579714e-05 0)
(0.656802417676 -1.5139599299e-05 0)
(0.656823318039 -1.9640812006e-05 0)
(0.656849193218 -2.53182637739e-05 0)
(0.656881233496 -3.24665138508e-05 0)
(0.656920912847 -4.14485516154e-05 0)
(0.656970056008 -5.27162615731e-05 0)
(0.657030921234 -6.68291048594e-05 0)
(0.657106308539 -8.44821491906e-05 0)
(0.657199690594 -0.000106538665553 0)
(0.657315372756 -0.00013406784045 0)
(0.657458696977 -0.000168397126492 0)
(0.65763629647 -0.000211180260394 0)
(0.657856412504 -0.000264480295555 0)
(0.658129293216 -0.000330873985146 0)
(0.658467695758 -0.000413587396419 0)
(0.65888751913 -0.000516672494278 0)
(0.659408612657 -0.000645241071336 0)
(0.660055812376 -0.00080577533842 0)
(0.66086027071 -0.00100653894198 0)
(0.661861188114 -0.00125814120243 0)
(0.663108102228 -0.00157433268645 0)
(0.664663943143 -0.00197313777524 0)
(0.666609183008 -0.0024785141555 0)
(0.669047617882 -0.00312289770384 0)
(0.672114645407 -0.0039512913611 0)
(0.67598950096 -0.00502820290183 0)
(0.680914044316 -0.00645026130185 0)
(0.687222607309 -0.00837090208722 0)
(0.695390905123 -0.0110519284618 0)
(0.706117071243 -0.0149770863445 0)
(0.720441103535 -0.0211072170433 0)
(0.739864338956 -0.0314321242461 0)
(0.766421745125 -0.0500915274644 0)
(0.802212337753 -0.0854691869829 0)
(0.843485627184 -0.151567322448 0)
(1.03384126913 0.171306957361 0)
(1.10231584509 0.275556745484 0)
(1.11663621782 0.2663123651 0)
(1.09207924304 0.219892604191 0)
(1.05195419564 0.16821031957 0)
(1.01022221595 0.123615335213 0)
(0.973507719631 0.0888850586543 0)
(0.94388594508 0.0630494631929 0)
(0.921162798972 0.0442607984212 0)
(0.904299823426 0.0307744341675 0)
(0.892086134939 0.0211830156181 0)
(0.883411232871 0.0144172992508 0)
(0.877355061424 0.00968544214157 0)
(0.873196214063 0.00640758708764 0)
(0.870388061469 0.00416172369446 0)
(0.868526256075 0.00264232192585 0)
(0.867317299471 0.00162947750775 0)
(0.866551586819 0.000966025544594 0)
(0.866081660303 0.000540573469197 0)
(0.865805303108 0.00027492745224 0)
(0.865652727933 0.000114791986166 0)
(0.865577094027 2.295644647e-05 0)
(0.865547479192 -2.57252955017e-05 0)
(0.865543939511 -4.80461789833e-05 0)
(0.86555398556 -5.49266393082e-05 0)
(0.865569987724 -5.33279904241e-05 0)
(0.865587524884 -4.75747360963e-05 0)
(0.865604215158 -4.02472674099e-05 0)
(0.86561892879 -3.27999591478e-05 0)
(0.86563127541 -2.59817870807e-05 0)
(0.86564127611 -2.01146616262e-05 0)
(0.865649159253 -1.52740884369e-05 0)
(0.865655236693 -1.14029694696e-05 0)
(0.865659834028 -8.382488349e-06 0)
(0.865663254082 -6.07394605335e-06 0)
(0.865665759338 -4.34083726292e-06 0)
(0.865667567637 -3.06052462341e-06 0)
(0.865668854241 -2.12900673812e-06 0)
(0.865669756466 -1.46117008652e-06 0)
(0.865670379381 -9.89135025082e-07 0)
(0.865670801803 -6.60016265515e-07 0)
(0.865671082494 -4.34172750118e-07 0)
(0.865671264322 -2.82170449638e-07 0)
(0.865671377699 -1.81827672749e-07 0)
(0.865671444891 -1.17269175026e-07 0)
(0.865671481917 -7.73604246869e-08 0)
(0.865671499326 -5.39315812308e-08 0)
(0.865671504437 -4.12304134535e-08 0)
(0.865671502732 -3.517538607e-08 0)
(0.865671496829 -3.29444923083e-08 0)
(0.86567148744 -3.33238687765e-08 0)
(0.865671475669 -3.5817974806e-08 0)
(0.865671462624 -3.985550169e-08 0)
(0.865671448497 -4.4819962652e-08 0)
(0.865671433235 -5.00780474361e-08 0)
(0.865671417272 -5.54321413688e-08 0)
(0.865671400692 -6.10210832694e-08 0)
(0.865671383289 -6.66269915949e-08 0)
(0.865671365329 -7.20440975098e-08 0)
(0.865671347336 -7.74064838314e-08 0)
(0.865671329341 -8.28170007741e-08 0)
(0.865671311014 -8.83354912763e-08 0)
(0.865671292112 -9.41893092221e-08 0)
(0.865671272576 -1.00749891005e-07 0)
(0.865671252261 -1.07955610918e-07 0)
(0.86567123079 -1.15407818294e-07 0)
(0.865671208119 -1.23141254478e-07 0)
(0.865671184496 -1.31335922193e-07 0)
(0.865671159836 -1.3962894123e-07 0)
(0.865671134286 -1.47848184816e-07 0)
(0.865671108213 -1.56378993462e-07 0)
(0.865671081395 -1.65516289844e-07 0)
(0.865671053466 -1.75135702842e-07 0)
(0.865671024603 -1.85212725068e-07 0)
(0.865670995305 -1.95862128783e-07 0)
(0.865670965513 -2.06987296881e-07 0)
(0.865670934633 -2.18517048666e-07 0)
(0.86567090246 -2.30728017417e-07 0)
(0.865670869239 -2.43823759203e-07 0)
(0.865670835136 -2.57697187285e-07 0)
(0.865670800206 -2.72292132056e-07 0)
(0.865670764661 -2.87744636448e-07 0)
(0.865670728608 -3.04062400351e-07 0)
(0.865670691751 -3.21029582778e-07 0)
(0.865670654141 -3.38562054012e-07 0)
(0.865670616343 -3.56817410097e-07 0)
(0.865670578645 -3.75978852297e-07 0)
(0.865670541221 -3.96254546646e-07 0)
(0.865670504494 -4.1797221034e-07 0)
(0.8656704686 -4.41523291015e-07 0)
(0.865670433366 -4.67133196828e-07 0)
(0.865670399361 -4.94862324029e-07 0)
(0.865670368062 -5.25180033696e-07 0)
(0.865670340545 -5.58821272325e-07 0)
(0.865670317553 -5.96066729537e-07 0)
(0.865670300526 -6.3720142462e-07 0)
(0.865670291291 -6.82831878009e-07 0)
(0.865670292102 -7.33717519578e-07 0)
(0.865670305725 -7.90077621397e-07 0)
(0.865670335347 -8.50767399374e-07 0)
(0.865670383346 -9.15986398745e-07 0)
(0.865670453158 -9.8889322836e-07 0)
(0.865670551107 -1.07157946665e-06 0)
(0.86567068436 -1.16675842954e-06 0)
(0.865670861026 -1.27713354279e-06 0)
(0.865671090894 -1.40564624983e-06 0)
(0.865671387351 -1.5567030962e-06 0)
(0.865671766912 -1.73585591225e-06 0)
(0.86567224897 -1.94979812701e-06 0)
(0.865672857916 -2.20872973978e-06 0)
(0.865673624256 -2.5295557217e-06 0)
(0.865674584296 -2.93035824165e-06 0)
(0.865675782729 -3.42207457479e-06 0)
(0.865677275886 -4.02201378949e-06 0)
(0.865679134114 -4.75496597697e-06 0)
(0.86568144443 -5.65322249737e-06 0)
(0.865684312715 -6.75581412701e-06 0)
(0.865687870143 -8.11101168277e-06 0)
(0.865692280369 -9.77942279468e-06 0)
(0.865697745949 -1.18359152566e-05 0)
(0.865704517452 -1.43730859812e-05 0)
(0.86571290572 -1.75062798404e-05 0)
(0.865723294733 -2.13781062683e-05 0)
(0.865736159991 -2.61680628953e-05 0)
(0.865752090342 -3.21053141561e-05 0)
(0.86577181471 -3.94662690621e-05 0)
(0.865796234006 -4.85872670781e-05 0)
(0.865826464586 -5.98799076791e-05 0)
(0.865863892877 -7.38573422231e-05 0)
(0.865910235555 -9.11595286427e-05 0)
(0.865967619136 -0.00011258463714 0)
(0.866038676031 -0.000139123657205 0)
(0.86612666822 -0.000172007880467 0)
(0.866235641502 -0.000212769361539 0)
(0.866370612228 -0.000263311739605 0)
(0.866537801124 -0.000326001133753 0)
(0.86674492725 -0.000403784615388 0)
(0.867001574864 -0.000500338306613 0)
(0.867319652524 -0.000620254622649 0)
(0.867713969683 -0.000769284403532 0)
(0.868202959598 -0.000954648398179 0)
(0.8688095954 -0.00118544349645 0)
(0.869562560575 -0.00147318328347 0)
(0.87049774091 -0.00183251812814 0)
(0.871660142141 -0.00228221049557 0)
(0.87310639274 -0.00284649321754 0)
(0.874908039759 -0.00355700003905 0)
(0.877155933553 -0.00445557168246 0)
(0.879966162438 -0.00559848339531 0)
(0.88348823845 -0.00706309411312 0)
(0.887916574001 -0.00895877407205 0)
(0.893506749296 -0.0114457831314 0)
(0.900598476744 -0.01476954163 0)
(0.909646814493 -0.0193253096112 0)
(0.921259630385 -0.0257832652705 0)
(0.936219994212 -0.0353291364491 0)
(0.95540920557 -0.0500935937607 0)
(0.97946607669 -0.0737858286943 0)
(1.00774540148 -0.112284773705 0)
(1.03441021204 -0.172420771998 0)
(1.02388344504 0.119321988382 0)
(1.08875435506 0.231514428981 0)
(1.13660483981 0.252868935657 0)
(1.1540627282 0.228905045998 0)
(1.15000112279 0.188337388742 0)
(1.13537623695 0.146577292468 0)
(1.11757777814 0.110164818802 0)
(1.10059199536 0.0808376065054 0)
(1.08612240987 0.0582502011919 0)
(1.07458761697 0.0413417855536 0)
(1.06578679393 0.0289362831078 0)
(1.05928156239 0.0199770205579 0)
(1.05459132215 0.0135949302269 0)
(1.05128026326 0.00910742698523 0)
(1.04898735603 0.00599313273629 0)
(1.0474290464 0.00386144120886 0)
(1.04639045386 0.00242413675081 0)
(1.04571298649 0.00147134864713 0)
(1.04528205541 0.000852136739647 0)
(1.0450163734 0.000459263944602 0)
(1.04485925001 0.000217490107609 0)
(1.04477181916 7.47182109891e-05 0)
(1.04472783632 -4.6460330495e-06 0)
(1.04470996866 -4.44458541101e-05 0)
(1.04470704127 -6.05359674084e-05 0)
(1.04471196329 -6.30929697785e-05 0)
(1.04472040356 -5.85432679379e-05 0)
(1.04472984546 -5.08103595974e-05 0)
(1.04473892056 -4.21790284758e-05 0)
(1.04474696789 -3.38916353025e-05 0)
(1.044753747 -2.65467361357e-05 0)
(1.04475925384 -2.03609912679e-05 0)
(1.04476360425 -1.53366948979e-05 0)
(1.04476696391 -1.13670941341e-05 0)
(1.04476950909 -8.30064015329e-06 0)
(1.04477140466 -5.97673169141e-06 0)
(1.04477279433 -4.24490085169e-06 0)
(1.044773798 -2.97389521041e-06 0)
(1.04477451232 -2.05438585239e-06 0)
(1.04477501311 -1.39843495565e-06 0)
(1.0447753581 -9.36695937463e-07 0)
(1.04477559101 -6.16107516788e-07 0)
(1.04477574466 -3.97002421506e-07 0)
(1.04477584264 -2.49346434386e-07 0)
(1.04477590236 -1.51053234525e-07 0)
(1.04477593689 -8.66413965438e-08 0)
(1.04477595484 -4.49739227339e-08 0)
(1.04477596142 -1.83075759051e-08 0)
(1.04477596007 -2.01679732954e-09 0)
(1.04477595306 6.4764723667e-09 0)
(1.04477594195 1.01076949943e-08 0)
(1.04477592827 1.12609075334e-08 0)
(1.04477591328 1.12510775873e-08 0)
(1.04477589756 1.06369943739e-08 0)
(1.0447758811 9.96046651465e-09 0)
(1.04477586372 9.31153769193e-09 0)
(1.04477584561 8.64408452524e-09 0)
(1.04477582686 8.24011124954e-09 0)
(1.04477580747 8.41425717526e-09 0)
(1.04477578771 9.10838203335e-09 0)
(1.04477576778 1.0151800663e-08 0)
(1.04477574741 1.14234144618e-08 0)
(1.04477572602 1.28664277918e-08 0)
(1.04477570358 1.42556981346e-08 0)
(1.04477568033 1.54850192205e-08 0)
(1.04477565587 1.6770418348e-08 0)
(1.04477562996 1.83208861122e-08 0)
(1.04477560298 2.00809684856e-08 0)
(1.04477557501 2.20765860973e-08 0)
(1.04477554599 2.463928981e-08 0)
(1.04477551602 2.76495177486e-08 0)
(1.04477548505 3.07085520627e-08 0)
(1.04477545287 3.37849349557e-08 0)
(1.04477541965 3.71502949179e-08 0)
(1.04477538582 4.08140591952e-08 0)
(1.04477535128 4.45773022409e-08 0)
(1.04477531533 4.84619340944e-08 0)
(1.04477527776 5.24985963233e-08 0)
(1.04477523889 5.64857046223e-08 0)
(1.04477519903 6.03488250207e-08 0)
(1.04477515833 6.43874536682e-08 0)
(1.04477511688 6.87816071628e-08 0)
(1.04477507465 7.33841470045e-08 0)
(1.04477503143 7.82214478165e-08 0)
(1.04477498723 8.33887104113e-08 0)
(1.04477494241 8.86492234302e-08 0)
(1.04477489729 9.38944816627e-08 0)
(1.04477485215 9.9252306052e-08 0)
(1.04477480722 1.04472347318e-07 0)
(1.04477476257 1.09038457532e-07 0)
(1.04477471834 1.1282659064e-07 0)
(1.04477467498 1.15820477613e-07 0)
(1.04477463344 1.17352318707e-07 0)
(1.04477459512 1.16468931178e-07 0)
(1.04477456132 1.12752365183e-07 0)
(1.04477453329 1.05689629142e-07 0)
(1.04477451248 9.44745608662e-08 0)
(1.04477450072 7.78377610825e-08 0)
(1.04477450052 5.35015463628e-08 0)
(1.04477451479 1.9341577609e-08 0)
(1.04477454751 -2.77443687303e-08 0)
(1.04477460407 -8.97684628603e-08 0)
(1.04477469028 -1.69648867841e-07 0)
(1.0447748133 -2.71517459769e-07 0)
(1.04477498196 -4.00446919949e-07 0)
(1.0447752066 -5.61884151589e-07 0)
(1.04477550106 -7.62638552485e-07 0)
(1.04477588292 -1.01149914321e-06 0)
(1.04477637291 -1.31876714382e-06 0)
(1.04477699596 -1.69662845282e-06 0)
(1.04477778207 -2.16111598613e-06 0)
(1.04477876817 -2.73377634098e-06 0)
(1.0447800015 -3.44021646798e-06 0)
(1.04478154078 -4.31097441784e-06 0)
(1.0447834585 -5.38388516569e-06 0)
(1.04478584495 -6.7071251196e-06 0)
(1.04478881057 -8.34008248443e-06 0)
(1.04479249166 -1.03554731662e-05 0)
(1.04479705822 -1.28430562091e-05 0)
(1.04480272058 -1.59135505829e-05 0)
(1.04480973879 -1.97040868315e-05 0)
(1.04481843562 -2.43860543622e-05 0)
(1.04482921053 -3.01727202815e-05 0)
(1.04484255581 -3.73278002667e-05 0)
(1.04485908151 -4.61817009819e-05 0)
(1.04487954454 -5.71439149046e-05 0)
(1.04490488 -7.07170278904e-05 0)
(1.04493624585 -8.75189700704e-05 0)
(1.04497507872 -0.000108316408183 0)
(1.04502315752 -0.000134060335755 0)
(1.04508268637 -0.000165932112678 0)
(1.04515639369 -0.000205397310962 0)
(1.04524765772 -0.000254273667509 0)
(1.0453606667 -0.000314819621659 0)
(1.04550061243 -0.000389841965985 0)
(1.04567392918 -0.000482829757137 0)
(1.04588859454 -0.00059812553252 0)
(1.04615450427 -0.00074114156192 0)
(1.0464839383 -0.000918633213649 0)
(1.04689214443 -0.00113905035739 0)
(1.0473980669 -0.00141298912599 0)
(1.04802525928 -0.00175377480333 0)
(1.04880303956 -0.00217823067929 0)
(1.04976794823 -0.00270770044727 0)
(1.05096559137 -0.00336941837544 0)
(1.05245299384 -0.00419838825857 0)
(1.0543016225 -0.0052400200089 0)