/*--------------------------------*- C++ -*----------------------------------*\
| =========                 |                                                 |
| \\      /  F ield         | OpenFOAM: The Open Source CFD Toolbox           |
|  \\    /   O peration     | Version:  2106                                  |
|   \\  /    A nd           | Website:  www.openfoam.com                      |
|    \\/     M anipulation  |                                                 |
\*---------------------------------------------------------------------------*/
FoamFile
{
    version     2.0;
    format      ascii;
    arch        "LSB;label=32;scalar=64";
    class       surfaceScalarField;
    location    "0.088";
    object      phi;
}
// * * * * * * * * * * * * * * * * * * * * * * * * * * * * * * * * * * * * * //

dimensions      [0 3 -1 0 0 0 0];

oriented        oriented;

internalField   nonuniform List<scalar> 
799
(
1.73597e-32
4.47149e-32
5.74258e-32
4.61027e-32
2.03765e-32
-4.6928e-32
-1.06966e-31
-1.535e-31
-1.64206e-31
-1.27096e-31
-7.19495e-32
-1.03253e-32
2.74965e-32
3.65848e-32
1.43422e-32
-2.55466e-32
-7.71019e-32
-1.30121e-31
-1.70758e-31
-1.99046e-31
-1.91191e-31
-1.55368e-31
-9.44608e-32
-2.39477e-32
1.639e-32
2.52348e-32
-1.66826e-32
-8.75636e-32
-1.54122e-31
-2.06979e-31
-2.10093e-31
-1.8306e-31
-1.36995e-31
-8.22192e-32
-5.76058e-32
-4.68043e-32
-6.42813e-32
-1.0246e-31
-1.32621e-31
-1.69599e-31
-1.78845e-31
-1.66639e-31
-1.43448e-31
-9.70022e-32
-7.20196e-32
-6.19683e-32
-7.81138e-32
-1.27304e-31
-1.67481e-31
-2.03988e-31
-2.06124e-31
-1.72479e-31
-1.29487e-31
-7.53608e-32
-5.11116e-32
-5.74214e-32
-9.06647e-32
-1.49887e-31
-1.95412e-31
-2.20673e-31
-2.07609e-31
-1.54551e-31
-9.25332e-32
-3.76784e-32
-2.49348e-32
-6.57404e-32
-1.39589e-31
-2.23152e-31
-2.68613e-31
-2.51123e-31
-1.79758e-31
-7.80122e-32
-1.56256e-33
1.49937e-32
-3.20442e-32
-1.25764e-31
-2.12201e-31
-2.56748e-31
-2.45133e-31
-1.85762e-31
-1.19386e-31
-7.02363e-32
-5.47163e-32
-6.95592e-32
-9.35066e-32
-1.19269e-31
-1.38658e-31
-1.56605e-31
-1.76712e-31
-1.88774e-31
-1.866e-31
-1.55269e-31
-1.02506e-31
-4.88945e-32
-1.60289e-32
-3.47149e-32
-9.31033e-32
-1.74676e-31
-2.43832e-31
-2.56991e-31
-2.21511e-31
-1.35527e-31
-4.44897e-32
8.95332e-33
1.81933e-32
-3.95416e-32
-1.18591e-31
-1.92167e-31
-2.35879e-31
-2.18664e-31
-1.74616e-31
-1.11648e-31
-6.48015e-32
-5.60175e-32
-6.7265e-32
-9.76958e-32
-1.14348e-31
-1.11664e-31
-9.87413e-32
-8.46684e-32
-9.441e-32
-1.24726e-31
-1.66084e-31
-1.9673e-31
-1.95131e-31
-1.60289e-31
-1.00751e-31
-4.11261e-32
-3.146e-33
2.37619e-33
-2.74095e-32
-7.96282e-32
-1.40436e-31
-1.95611e-31
-2.27333e-31
-2.29927e-31
-1.96071e-31
-1.31795e-31
-5.79199e-32
6.99067e-33
3.24087e-32
9.97167e-33
-5.31118e-32
-1.37187e-31
-2.0191e-31
-2.28293e-31
-2.04693e-31
-1.44342e-31
-8.15123e-32
-3.81033e-32
-3.72259e-32
-7.17063e-32
-1.18623e-31
-1.5563e-31
-1.56077e-31
-1.23106e-31
-7.2231e-32
-3.04372e-32
-2.75528e-32
-6.75204e-32
-1.38558e-31
-2.05322e-31
-2.32186e-31
-2.01207e-31
-1.20942e-31
-3.15155e-32
2.66388e-32
1.87899e-32
-4.76487e-32
-1.37546e-31
-2.08253e-31
-2.1509e-31
-1.68644e-31
-9.11238e-32
-2.83834e-32
-2.1915e-32
-5.78253e-32
-1.26646e-31
-1.76199e-31
-1.7831e-31
-1.4202e-31
-7.10089e-32
-2.15132e-32
-8.03916e-33
-3.70862e-32
-1.04426e-31
-1.60365e-31
-1.96799e-31
-1.89096e-31
-1.42022e-31
-8.66729e-32
-3.07447e-32
-7.73682e-33
-1.63076e-32
-4.7909e-32
-9.65207e-32
-1.34211e-31
-1.5854e-31
-1.62444e-31
-1.44977e-31
-1.18694e-31
-8.3459e-32
-5.00104e-32
-2.78477e-32
-2.09881e-32
-3.99038e-32
-7.93182e-32
-1.25387e-31
-1.61659e-31
-1.64414e-31
-1.30006e-31
-7.1472e-32
-1.37885e-32
7.76391e-33
-2.01598e-32
-8.7362e-32
-1.61978e-31
-1.98511e-31
-1.7173e-31
-8.82873e-32
1.55677e-32
8.33386e-32
7.45877e-32
-1.069e-32
-1.38436e-31
-2.41716e-31
-2.65113e-31
-1.96446e-31
-5.84527e-32
7.74179e-32
1.47866e-31
1.24959e-31
1.37684e-32
-1.20318e-31
-2.17711e-31
-2.36456e-31
-1.64034e-31
-4.86478e-32
6.38521e-32
1.24926e-31
1.10332e-31
4.46801e-32
-4.29763e-32
-1.07523e-31
-1.20253e-31
-8.39286e-32
-1.5576e-32
5.05068e-32
8.53097e-32
7.94205e-32
4.70965e-32
1.25035e-32
6.16646e-33
3.88225e-32
9.16652e-32
1.42711e-31
1.55877e-31
1.23714e-31
7.0814e-32
2.49363e-32
2.96714e-32
9.27742e-32
1.88424e-31
2.84055e-31
3.32855e-31
3.22506e-31
2.75484e-31
2.19421e-31
1.96397e-31
2.20789e-31
2.74961e-31
3.4636e-31
4.04283e-31
4.41916e-31
4.73298e-31
4.95728e-31
5.27438e-31
5.6149e-31
5.88217e-31
6.17845e-31
6.42585e-31
6.78896e-31
7.28551e-31
7.80221e-31
8.32994e-31
8.7361e-31
9.13043e-31
9.67734e-31
1.04954e-30
1.16021e-30
1.27613e-30
1.36619e-30
1.40603e-30
1.40332e-30
1.38995e-30
1.41767e-30
1.52147e-30
1.69497e-30
1.90471e-30
2.08456e-30
2.19632e-30
2.23756e-30
2.24058e-30
2.27291e-30
2.36908e-30
2.54095e-30
2.75794e-30
2.96445e-30
3.13449e-30
3.25429e-30
3.35484e-30
3.47548e-30
3.63422e-30
3.84005e-30
4.06115e-30
4.27239e-30
4.46168e-30
4.62862e-30
4.80719e-30
5.01512e-30
5.26374e-30
5.54704e-30
5.8302e-30
6.09935e-30
6.34011e-30
6.56424e-30
6.80697e-30
7.0829e-30
7.4145e-30
7.78584e-30
8.16498e-30
8.53224e-30
8.8554e-30
9.15238e-30
9.44812e-30
9.7732e-30
1.017e-29
1.06264e-29
1.11296e-29
1.16359e-29
1.20927e-29
1.24853e-29
1.28166e-29
1.30898e-29
1.35235e-29
1.40671e-29
1.54382e-29
1.78734e-29
2.15019e-29
2.83924e-29
3.10903e-29
3.38932e-29
1.68382e-29
-2.58947e-29
-7.72481e-29
-1.82816e-28
-1.73428e-28
-1.12604e-28
1.75451e-28
8.19722e-28
1.18513e-27
1.82766e-27
1.06611e-27
-7.51705e-28
-3.02694e-27
-7.53327e-27
-7.2036e-27
-5.92121e-27
1.75822e-27
1.68863e-26
2.2678e-26
3.30588e-26
1.66584e-26
-1.36009e-26
-4.09972e-26
-9.04854e-26
-7.13122e-26
-4.21846e-26
3.15805e-26
1.54635e-25
1.62746e-25
1.92008e-25
5.43216e-26
-1.4559e-25
-2.41552e-25
-4.157e-25
-2.36513e-25
-3.16328e-26
2.19164e-25
5.89206e-25
4.55167e-25
3.83045e-25
-3.70734e-26
-5.43991e-25
-5.80039e-25
-7.54241e-25
-2.54567e-25
2.23639e-25
5.06859e-25
9.15303e-25
5.06869e-25
2.23654e-25
-2.54554e-25
-7.54236e-25
-5.80044e-25
-5.44004e-25
-3.70875e-26
3.83036e-25
4.55165e-25
5.8921e-25
2.19172e-25
-3.16271e-26
-2.36511e-25
-4.15702e-25
-2.41557e-25
-1.45594e-25
5.4318e-26
1.92006e-25
1.62746e-25
1.54635e-25
3.15808e-26
-4.21849e-26
-7.13129e-26
-9.04861e-26
-4.09981e-26
-1.36017e-26
1.66575e-26
3.30579e-26
2.26771e-26
1.68854e-26
1.75748e-27
-5.92185e-27
-7.20416e-27
-7.53378e-27
-3.02747e-27
-7.5225e-28
1.06551e-27
1.82703e-27
1.18449e-27
8.19099e-28
1.74901e-28
-1.13073e-28
-1.73796e-28
-1.83117e-28
-7.7547e-29
-2.62376e-29
1.63901e-29
3.3363e-29
3.05281e-29
2.78718e-29
2.11096e-29
1.7618e-29
1.53033e-29
1.39801e-29
1.33961e-29
1.28781e-29
1.24945e-29
1.20874e-29
1.16791e-29
1.1261e-29
1.08525e-29
1.04628e-29
1.01057e-29
9.77367e-30
9.44316e-30
9.09311e-30
8.70915e-30
8.30029e-30
7.90202e-30
7.54128e-30
7.2447e-30
7.00541e-30
6.79392e-30
6.5844e-30
6.34087e-30
6.06543e-30
5.7657e-30
5.46206e-30
5.18602e-30
4.94349e-30
4.74813e-30
4.58852e-30
4.44481e-30
4.29988e-30
4.12665e-30
3.9204e-30
3.691e-30
3.46098e-30
3.26456e-30
3.12418e-30
3.03355e-30
2.97402e-30
2.90235e-30
2.7835e-30
2.61846e-30
2.41391e-30
2.221e-30
2.07594e-30
1.98917e-30
1.96533e-30
1.95249e-30
1.91979e-30
1.83985e-30
1.6996e-30
1.53852e-30
1.38214e-30
1.27205e-30
1.22987e-30
1.23741e-30
1.27053e-30
1.27986e-30
1.22853e-30
1.11116e-30
9.47855e-31
7.88834e-31
6.8911e-31
6.73347e-31
7.33393e-31
8.22196e-31
8.7458e-31
8.51279e-31
7.42882e-31
5.87876e-31
4.43909e-31
3.58864e-31
3.53604e-31
4.05342e-31
4.76567e-31
5.19161e-31
5.1329e-31
4.59682e-31
3.76616e-31
3.00239e-31
2.41987e-31
2.21302e-31
2.27929e-31
2.46997e-31
2.7012e-31
2.68147e-31
2.51545e-31
2.13703e-31
1.71275e-31
1.50005e-31
1.40196e-31
1.59523e-31
1.76072e-31
1.7372e-31
1.53882e-31
1.00777e-31
5.78678e-32
3.42005e-32
4.1661e-32
8.71295e-32
1.26605e-31
1.52908e-31
1.43877e-31
1.00664e-31
5.6848e-32
1.70445e-32
2.29367e-33
4.53496e-33
3.66152e-33
4.05122e-33
-1.0382e-33
9.1808e-33
4.8052e-32
9.88864e-32
1.47118e-31
1.48297e-31
8.38321e-32
-2.5159e-32
-1.46541e-31
-2.06428e-31
-1.71492e-31
-5.04108e-32
1.18801e-31
2.39676e-31
2.6185e-31
1.65468e-31
-1.86988e-32
-1.89386e-31
-2.83706e-31
-2.47146e-31
-9.44608e-32
8.83302e-32
2.33764e-31
2.58917e-31
1.60491e-31
-5.00554e-33
-1.73832e-31
-2.50288e-31
-2.1704e-31
-9.64676e-32
5.85189e-32
1.5885e-31
1.81134e-31
1.18037e-31
6.80696e-33
-8.79037e-32
-1.46235e-31
-1.4279e-31
-9.86512e-32
-4.33304e-32
1.39496e-32
4.62103e-32
6.35369e-32
6.25175e-32
4.17131e-32
1.38659e-32
-2.74896e-32
-6.34307e-32
-8.94008e-32
-9.86197e-32
-8.49805e-32
-5.87725e-32
-1.94775e-32
1.78705e-32
5.02416e-32
6.55486e-32
5.75853e-32
2.99512e-32
-2.04292e-32
-6.64461e-32
-1.03463e-31
-1.13183e-31
-8.93331e-32
-5.37184e-32
-2.39161e-33
3.30286e-32
5.06098e-32
5.28367e-32
2.71443e-32
-4.12269e-34
-3.80371e-32
-7.14416e-32
-8.59341e-32
-8.91555e-32
-6.3324e-32
-2.6322e-32
1.28526e-32
4.44183e-32
4.76419e-32
3.18474e-32
-3.35984e-33
-4.21026e-32
-6.86598e-32
-7.97636e-32
-6.78513e-32
-4.17852e-32
-9.27996e-33
1.85581e-32
3.19388e-32
2.62214e-32
6.05765e-33
-1.86605e-32
-3.75963e-32
-3.76926e-32
-2.90071e-32
-1.51023e-32
-1.0565e-32
-2.34196e-32
-3.43402e-32
-4.1069e-32
-2.0782e-32
1.87654e-32
5.22709e-32
6.6565e-32
3.21299e-32
-2.91013e-32
-9.11853e-32
-1.21139e-31
-8.87974e-32
-1.77682e-32
6.71969e-32
1.15797e-31
1.0177e-31
3.77151e-32
-5.15833e-32
-1.10021e-31
-1.15221e-31
-6.46751e-32
1.57339e-32
7.55642e-32
9.36092e-32
5.63806e-32
-9.53937e-33
-6.42298e-32
-8.46434e-32
-5.23943e-32
7.03913e-33
6.26634e-32
8.74763e-32
6.04065e-32
2.53643e-33
-6.15066e-32
-1.0078e-31
-8.95761e-32
-3.99975e-32
3.15461e-32
9.42743e-32
1.16852e-31
9.92606e-32
4.33665e-32
-2.81524e-32
-8.41571e-32
-1.15077e-31
-1.03853e-31
-5.77621e-32
5.00511e-33
7.4389e-32
1.19762e-31
1.32065e-31
1.04911e-31
3.79837e-32
-4.00368e-32
-1.10321e-31
-1.41217e-31
-1.15651e-31
-4.4158e-32
5.46257e-32
1.35617e-31
1.65783e-31
1.31685e-31
4.32076e-32
-5.65727e-32
-1.2499e-31
-1.30814e-31
-7.05087e-32
2.37737e-32
1.08338e-31
1.44287e-31
1.13865e-31
3.80958e-32
-4.64781e-32
-9.90906e-32
-9.01854e-32
-3.29184e-32
4.95423e-32
1.14869e-31
1.27036e-31
9.28795e-32
1.89366e-32
-4.94977e-32
-7.79678e-32
-6.52725e-32
-2.92501e-33
6.21174e-32
1.05056e-31
1.1366e-31
7.12985e-32
2.01892e-32
-2.80632e-32
-5.03924e-32
-3.07562e-32
2.4044e-33
4.75464e-32
7.83462e-32
8.39773e-32
7.59027e-32
5.15564e-32
2.96061e-32
1.65811e-32
9.39944e-33
1.14877e-32
1.39787e-32
1.22206e-32
1.34459e-32
1.36094e-32
2.34723e-32
4.63615e-32
7.03446e-32
9.95766e-32
1.08218e-31
9.43248e-32
5.92788e-32
1.29097e-33
-4.22832e-32
-6.80158e-32
-5.30704e-32
5.16089e-34
6.47613e-32
1.28161e-31
1.51816e-31
1.36723e-31
8.50148e-32
2.14689e-32
-2.74481e-32
-4.78714e-32
-2.64921e-32
4.31679e-33
5.32113e-32
7.3727e-32
7.44868e-32
6.75971e-32
2.2905e-32
1.36372e-32
-1.87116e-32
-2.47962e-32
-4.75182e-33
)
;

boundaryField
{
    left
    {
        type            calculated;
        value           uniform 0;
    }
    right
    {
        type            calculated;
        value           uniform 0;
    }
    empty
    {
        type            empty;
        value           nonuniform List<scalar> 0();
    }
}


// ************************************************************************* //
