/*--------------------------------*- C++ -*----------------------------------*\
| =========                 |                                                 |
| \\      /  F ield         | OpenFOAM: The Open Source CFD Toolbox           |
|  \\    /   O peration     | Version:  2106                                  |
|   \\  /    A nd           | Website:  www.openfoam.com                      |
|    \\/     M anipulation  |                                                 |
\*---------------------------------------------------------------------------*/
FoamFile
{
    version     2.0;
    format      ascii;
    arch        "LSB;label=32;scalar=64";
    class       surfaceScalarField;
    location    "0.37";
    object      phi;
}
// * * * * * * * * * * * * * * * * * * * * * * * * * * * * * * * * * * * * * //

dimensions      [0 3 -1 0 0 0 0];

oriented        oriented;

internalField   nonuniform List<scalar> 
18840
(
3.3754304089e-05
1.62456959179e-05
2.25359630025e-05
1.12183417272e-05
1.63023779214e-05
6.23358439017e-06
1.28098253201e-05
3.49255294573e-06
1.08065802048e-05
2.00324508255e-06
9.60476931632e-06
1.20181085548e-06
8.85167877124e-06
7.53090544881e-07
8.36503091429e-06
4.86647827847e-07
8.04518635196e-06
3.19844537298e-07
7.83374214645e-06
2.11444138502e-07
7.69428219749e-06
1.39459950757e-07
7.60308053397e-06
9.12016634062e-08
7.54426564945e-06
5.88148806455e-08
7.50707740574e-06
3.71882678292e-08
7.48418950204e-06
2.28879381065e-08
7.47062399329e-06
1.3565510331e-08
7.46302145926e-06
7.60252306102e-09
7.45913869653e-06
3.88274828636e-09
7.45749896218e-06
1.63972152564e-09
7.45714587764e-06
3.53068736248e-10
7.45748323005e-06
-3.3736500664e-10
7.45813430093e-06
-6.51076547615e-10
7.45888630873e-06
-7.52005509173e-10
7.45962002182e-06
-7.33700723565e-10
7.46027650569e-06
-6.56478277991e-10
7.46083298682e-06
-5.5649240434e-10
7.46128718109e-06
-4.54211254059e-10
7.4616474031e-06
-3.60239210046e-10
7.46192657176e-06
-2.79189194642e-10
7.46213875347e-06
-2.12205511735e-10
7.4622972923e-06
-1.58562600597e-10
7.46241393091e-06
-1.16655830347e-10
7.46249851198e-06
-8.45891367508e-11
7.46255899674e-06
-6.04892454267e-11
7.46260165569e-06
-4.26649057144e-11
7.46263132659e-06
-2.9680872939e-11
7.46265167103e-06
-2.03613644629e-11
7.46266541113e-06
-1.37636245426e-11
7.46267454536e-06
-9.15873928385e-12
7.4626805242e-06
-5.99729012152e-12
7.46268438651e-06
-3.86807447318e-12
7.46268690212e-06
-2.50631029156e-12
7.46268846773e-06
-1.55384040185e-12
7.46268937462e-06
-9.00800878614e-13
7.46268991142e-06
-5.33656847673e-13
7.46269024384e-06
-3.36004972475e-13
7.46269046587e-06
-2.3733219073e-13
7.46269064196e-06
-2.00057111408e-13
7.46269081508e-06
-1.98416202141e-13
7.46269100999e-06
-2.20719633962e-13
7.46269123425e-06
-2.50928044729e-13
7.46269149199e-06
-2.84396124992e-13
7.46269178278e-06
-3.18779937688e-13
7.46269210333e-06
-3.49100054064e-13
7.46269245532e-06
-3.77361243054e-13
7.46269284057e-06
-4.07038628962e-13
7.46269325767e-06
-4.38206996588e-13
7.46269370682e-06
-4.70342085954e-13
7.46269419204e-06
-5.04424519727e-13
7.46269471524e-06
-5.37698856328e-13
7.4626952761e-06
-5.68197666993e-13
7.462695875e-06
-5.98481670216e-13
7.46269651127e-06
-6.28779609581e-13
7.46269717995e-06
-6.57646567654e-13
7.46269787622e-06
-6.88966030587e-13
7.46269859878e-06
-7.26644099863e-13
7.46269934668e-06
-7.67380180277e-13
7.46270012208e-06
-8.09375234325e-13
7.46270093222e-06
-8.54395748851e-13
7.46270178259e-06
-8.9791709595e-13
7.46270267521e-06
-9.35404215869e-13
7.46270360831e-06
-9.70053707727e-13
7.46270457725e-06
-1.00614917865e-12
7.46270558138e-06
-1.04707105419e-12
7.46270662737e-06
-1.09595381831e-12
7.46270772465e-06
-1.14950430391e-12
7.46270888188e-06
-1.199969541e-12
7.46271010308e-06
-1.24380854968e-12
7.46271138319e-06
-1.28318638855e-12
7.46271271331e-06
-1.32225164789e-12
7.46271409103e-06
-1.36418042601e-12
7.46271552093e-06
-1.41019050934e-12
7.46271700792e-06
-1.45951103595e-12
7.46271855265e-06
-1.51027101695e-12
7.4627201537e-06
-1.56278028799e-12
7.4627218102e-06
-1.61993566063e-12
7.46272352268e-06
-1.68131935793e-12
7.46272529908e-06
-1.74343566766e-12
7.4627271507e-06
-1.80517069491e-12
7.46272907667e-06
-1.8647164421e-12
7.46273106728e-06
-1.92293105285e-12
7.46273312321e-06
-1.98928459722e-12
7.4627352554e-06
-2.06760611334e-12
7.46273747587e-06
-2.15123195661e-12
7.46273979959e-06
-2.23835356006e-12
7.46274223726e-06
-2.33306850576e-12
7.46274479144e-06
-2.4416058513e-12
7.46274747389e-06
-2.57584997146e-12
7.46275031241e-06
-2.74358704164e-12
7.46275334569e-06
-2.94143526617e-12
7.46275665018e-06
-3.19464130977e-12
7.46276027723e-06
-3.49477957625e-12
7.46276427176e-06
-3.84390786428e-12
7.46276870618e-06
-4.25617877517e-12
7.46277366345e-06
-4.76736388143e-12
7.46277923499e-06
-5.40172774241e-12
7.46278556731e-06
-6.19715715263e-12
7.4627928727e-06
-7.20852502357e-12
7.46280140194e-06
-8.46620403639e-12
7.4628114775e-06
-1.00172127059e-11
7.46282352577e-06
-1.19528504913e-11
7.46283799845e-06
-1.43348499538e-11
7.46285545052e-06
-1.7292807041e-11
7.4628765932e-06
-2.09787425473e-11
7.46290228365e-06
-2.55528697141e-11
7.46293357973e-06
-3.12056204258e-11
7.46297185043e-06
-3.82366237076e-11
7.4630188163e-06
-4.70005204699e-11
7.46307658526e-06
-5.78553181238e-11
7.46314777643e-06
-7.12785354113e-11
7.46323562206e-06
-8.79019395617e-11
7.46334407424e-06
-1.08488331644e-10
7.46347811805e-06
-1.34075923213e-10
7.46364453738e-06
-1.66442186328e-10
7.46385450586e-06
-2.09952942407e-10
7.4641101105e-06
-2.55523182011e-10
7.46442525301e-06
-3.15057337636e-10
7.46481516345e-06
-3.89898980954e-10
7.46529797843e-06
-4.82865131714e-10
7.4658959583e-06
-5.98057981722e-10
7.46663657115e-06
-7.40698527177e-10
7.46755388165e-06
-9.17373169696e-10
7.4686902004e-06
-1.13631460236e-09
7.47009797685e-06
-1.40768572398e-09
7.47184223511e-06
-1.74413055893e-09
7.47400371589e-06
-2.16140178433e-09
7.47668280227e-06
-2.67908261672e-09
7.4800044161e-06
-3.3216056618e-09
7.48412409912e-06
-4.11956657171e-09
7.48923571408e-06
-5.11139130856e-09
7.49558134773e-06
-6.34540509503e-09
7.50346399556e-06
-7.88249902787e-09
7.51326392767e-06
-9.79984575008e-09
7.5254600102e-06
-1.21959804721e-08
7.54065772064e-06
-1.51975347531e-08
7.5596264191e-06
-1.89684258466e-08
7.58334983922e-06
-2.37230378269e-08
7.613095756e-06
-2.9745475409e-08
7.65051403433e-06
-3.74179959599e-08
7.69777925434e-06
-4.72652725921e-08
7.75780829515e-06
-6.00292940679e-08
7.83461866249e-06
-7.68105352533e-08
7.93399514739e-06
-9.93764928626e-08
8.06495365535e-06
-1.30958596905e-07
8.24351537888e-06
-1.78562127447e-07
8.50339182287e-06
-2.59877131237e-07
8.92766934773e-06
-4.24277989286e-07
9.74940283927e-06
-8.21733581429e-07
1.16841901959e-05
-1.9347875471e-06
-5.23609753649e-06
1.69202873166e-05
5.01388813013e-05
1.61068139578e-05
4.41591298834e-05
1.71980943411e-05
3.77598737151e-05
1.26328399474e-05
3.26495146592e-05
8.6029121609e-06
2.89465822875e-05
5.70617750002e-06
2.63676032857e-05
3.7807898219e-06
2.45938853683e-05
2.52680841818e-06
2.33783983965e-05
1.70213472096e-06
2.25473239226e-05
1.15091901751e-06
2.19811569008e-05
7.77611093933e-07
2.15978045308e-05
5.2281229898e-07
2.13405416091e-05
3.48464612305e-07
2.11699441947e-05
2.29412324271e-07
2.10585365492e-05
1.48595934174e-07
2.09871855498e-05
9.42389606006e-08
2.094262206e-05
5.81289982719e-08
2.09157075452e-05
3.45170158141e-08
2.0900207737e-05
1.93825189797e-08
2.08919202345e-05
9.92719205634e-09
2.08880550674e-05
4.2182193915e-09
2.08867853823e-05
9.32323014063e-10
2.08869503739e-05
-8.16053852701e-10
2.08878286846e-05
-1.63031733835e-09
2.08889871907e-05
-1.89222306946e-09
2.08901806055e-05
-1.84991117266e-09
2.08912811586e-05
-1.65707027628e-09
2.08922326218e-05
-1.4057065985e-09
2.08930202878e-05
-1.1479400974e-09
2.08936518651e-05
-9.1080227347e-10
2.08941457272e-05
-7.06099123722e-10
2.08945239607e-05
-5.36819728465e-10
2.08948084895e-05
-4.01201265537e-10
2.08950191219e-05
-2.95235047513e-10
2.08951727555e-05
-2.14141600074e-10
2.0895283251e-05
-1.53188009802e-10
2.08953616413e-05
-1.08106442532e-10
2.08954164976e-05
-7.5260179316e-11
2.0895454353e-05
-5.16613092882e-11
2.08954800968e-05
-3.49304225884e-11
2.08954973172e-05
-2.32253525086e-11
2.08955085965e-05
-1.51449732412e-11
2.08955157433e-05
-9.64676227493e-12
2.08955201816e-05
-5.97937343473e-12
2.08955228912e-05
-3.60856312958e-12
2.08955244533e-05
-2.11200667634e-12
2.08955252641e-05
-1.17849321388e-12
2.08955256313e-05
-6.49766686978e-13
2.0895525839e-05
-4.58560080399e-13
2.08955259647e-05
-3.71790087436e-13
2.08955260619e-05
-3.60739708896e-13
2.08955261618e-05
-3.91774695542e-13
2.08955262797e-05
-4.41484782008e-13
2.08955264248e-05
-5.00824505671e-13
2.08955266008e-05
-5.62411396558e-13
2.08955268077e-05
-6.21914666327e-13
2.08955270452e-05
-6.81419627112e-13
2.08955273168e-05
-7.46248684175e-13
2.08955276239e-05
-8.11512563385e-13
2.08955279656e-05
-8.73824867288e-13
2.08955283428e-05
-9.32367448003e-13
2.08955287576e-05
-9.87251150975e-13
2.08955292063e-05
-1.04080938659e-12
2.0895529684e-05
-1.09817577781e-12
2.08955301887e-05
-1.16308329648e-12
2.08955307172e-05
-1.23628046653e-12
2.08955312654e-05
-1.31777319372e-12
2.08955318343e-05
-1.40385388574e-12
2.08955324279e-05
-1.4847394897e-12
2.08955330505e-05
-1.55779325541e-12
2.08955337055e-05
-1.62615310017e-12
2.08955343955e-05
-1.69147116278e-12
2.08955351177e-05
-1.75754909571e-12
2.08955358658e-05
-1.82982844758e-12
2.08955366403e-05
-1.90925933138e-12
2.08955374516e-05
-1.99269466077e-12
2.08955383127e-05
-2.07526071417e-12
2.08955392304e-05
-2.15168997632e-12
2.08955402042e-05
-2.22140990805e-12
2.08955412305e-05
-2.29027951365e-12
2.08955423035e-05
-2.36478911405e-12
2.08955434216e-05
-2.44728856004e-12
2.08955445916e-05
-2.5374688242e-12
2.08955458232e-05
-2.63526671791e-12
2.08955471174e-05
-2.74078763531e-12
2.08955484709e-05
-2.85447010335e-12
2.08955498891e-05
-2.97826306304e-12
2.08955513838e-05
-3.11119813703e-12
2.08955529667e-05
-3.24757441122e-12
2.08955546484e-05
-3.38717614468e-12
2.08955564374e-05
-3.53717576078e-12
2.08955583366e-05
-3.70205236488e-12
2.0895560352e-05
-3.88483734001e-12
2.08955625105e-05
-4.0911733306e-12
2.08955648507e-05
-4.32459322732e-12
2.08955674015e-05
-4.59386907083e-12
2.08955701903e-05
-4.92167412125e-12
2.08955732611e-05
-5.32882286726e-12
2.08955766825e-05
-5.82360523421e-12
2.08955805443e-05
-6.41663166297e-12
2.089558493e-05
-7.11719511979e-12
2.08955899503e-05
-7.97059351499e-12
2.08955957565e-05
-9.00741654846e-12
2.08956025086e-05
-1.02767160786e-11
2.08956104136e-05
-1.18343558514e-11
2.0895619722e-05
-1.37644044694e-11
2.08956307327e-05
-1.61631786549e-11
2.08956438288e-05
-1.91227182828e-11
2.08956594975e-05
-2.27426055695e-11
2.08956782877e-05
-2.71097662009e-11
2.08957006434e-05
-3.21975461693e-11
2.08957276325e-05
-3.87232020128e-11
2.08957616076e-05
-4.80558655131e-11
2.08958035582e-05
-5.89824181063e-11
2.08958552172e-05
-7.23983538441e-11
2.08959188059e-05
-8.89788184084e-11
2.08959971551e-05
-1.09509012489e-10
2.08960938132e-05
-1.34949791906e-10
2.08962131666e-05
-1.66477150304e-10
2.08963606825e-05
-2.05527214647e-10
2.08965431131e-05
-2.53847731808e-10
2.08967687375e-05
-3.13611362288e-10
2.0897047733e-05
-3.87521609761e-10
2.08973925761e-05
-4.78924632324e-10
2.08978182441e-05
-5.92073970803e-10
2.08983409576e-05
-7.32614855621e-10
2.0898993183e-05
-9.07731593576e-10
2.08998033119e-05
-1.12521672216e-09
2.09008080079e-05
-1.39468870418e-09
2.09020533575e-05
-1.72830316462e-09
2.09035966173e-05
-2.14135493473e-09
2.09055087928e-05
-2.65291334033e-09
2.09078779661e-05
-3.28661092304e-09
2.09108133678e-05
-4.07174157156e-09
2.09144504678e-05
-5.04470380584e-09
2.09189573186e-05
-6.25080324925e-09
2.09245425616e-05
-7.74643194719e-09
2.09314654673e-05
-9.60179123913e-09
2.09400484577e-05
-1.19044277138e-08
2.09506929175e-05
-1.4763835479e-08
2.09638992084e-05
-1.83173725149e-08
2.0980292116e-05
-2.27378237343e-08
2.10006534328e-05
-2.82432336208e-08
2.10259640356e-05
-3.51099978468e-08
2.10574587628e-05
-4.36905460605e-08
2.10966987203e-05
-5.4437523727e-08
2.11456677417e-05
-6.793746821e-08
2.12069036381e-05
-8.49588642218e-08
2.12836812959e-05
-1.06522853625e-07
2.13802749425e-05
-1.34011042077e-07
2.15023483485e-05
-1.69337964677e-07
2.16575653594e-05
-2.15245771451e-07
2.18566050779e-05
-2.75849821643e-07
2.21149676145e-05
-3.57738485016e-07
2.24564008572e-05
-4.7239129846e-07
2.29197391885e-05
-6.41900011291e-07
2.35728217228e-05
-9.12959590789e-07
2.45389020835e-05
-1.39035853333e-06
2.603304662e-05
-2.31587825264e-06
2.83498177392e-05
-4.25155909324e-06
-8.32652244005e-06
3.1440242602e-05
5.35844261341e-05
1.25223871189e-05
5.29166012801e-05
1.78659202267e-05
4.96393015183e-05
1.59101393368e-05
4.58382171937e-05
1.24039965468e-05
4.24428747966e-05
9.10151993098e-06
3.97331594748e-05
6.49050511949e-06
3.76912455088e-05
4.56872235686e-06
3.62011671168e-05
3.19221301849e-06
3.51355937368e-05
2.21649240852e-06
3.43848446376e-05
1.52836016137e-06
3.38626590708e-05
1.04499784821e-06
3.35040067443e-05
7.07116972503e-07
3.32609627688e-05
4.72456335986e-07
3.3098720782e-05
3.10837938061e-07
3.29922908247e-05
2.00668917958e-07
3.29239196732e-05
1.2650013937e-07
3.2881129772e-05
7.73069062631e-08
3.28552511659e-05
4.52611043201e-08
3.28403346452e-05
2.48436856243e-08
3.28323547027e-05
1.21981383161e-08
3.28286287991e-05
4.65821254e-09
3.28274048622e-05
4.07882283135e-10
3.28275642917e-05
-1.78975093164e-09
3.28284103463e-05
-2.7382924137e-09
3.28295264501e-05
-2.96602967155e-09
3.28306761136e-05
-2.80675000318e-09
3.28317362455e-05
-2.46586113116e-09
3.28326527136e-05
-2.06443429143e-09
3.28334113657e-05
-1.66948047737e-09
3.28340196454e-05
-1.31440038548e-09
3.28344952651e-05
-1.01245567063e-09
3.28348595054e-05
-7.65455516838e-10
3.28351334857e-05
-5.69228442797e-10
3.28353362833e-05
-4.16955039633e-10
3.28354841718e-05
-3.01100013771e-10
3.28355904954e-05
-2.14460768585e-10
3.28356658731e-05
-1.50671630425e-10
3.28357185604e-05
-1.04379475068e-10
3.28357548529e-05
-7.12419734512e-11
3.2835779468e-05
-4.78429642088e-11
3.28357958814e-05
-3.15558003626e-11
3.28358066283e-05
-2.03932846365e-11
3.28358135275e-05
-1.28764974692e-11
3.28358178388e-05
-7.92537268698e-12
3.28358204562e-05
-4.74927742524e-12
3.28358220231e-05
-2.77600567258e-12
3.28358229341e-05
-1.59493187795e-12
3.28358233595e-05
-9.20635310425e-13
3.28358234938e-05
-5.42621692278e-13
3.28358235284e-05
-4.29610214087e-13
3.28358235333e-05
-4.31103373655e-13
3.28358235362e-05
-4.78730105684e-13
3.28358235579e-05
-5.53546159986e-13
3.2835823606e-05
-6.39295165606e-13
3.28358236806e-05
-7.26415557533e-13
3.28358237786e-05
-8.11243303422e-13
3.28358239143e-05
-9.13878494542e-13
3.28358240859e-05
-1.01167619939e-12
3.28358242928e-05
-1.10275239314e-12
3.28358245301e-05
-1.18418050732e-12
3.28358247953e-05
-1.25933734234e-12
3.28358250879e-05
-1.33614161571e-12
3.28358254021e-05
-1.41820208404e-12
3.28358257312e-05
-1.50740329949e-12
3.28358260745e-05
-1.60619904698e-12
3.28358264325e-05
-1.71262175786e-12
3.28358268042e-05
-1.82166340858e-12
3.28358271921e-05
-1.92344077311e-12
3.2835827603e-05
-2.01706616753e-12
3.2835828037e-05
-2.10570612554e-12
3.2835828492e-05
-2.19454681931e-12
3.28358289667e-05
-2.28820791036e-12
3.28358294586e-05
-2.39069710049e-12
3.28358299689e-05
-2.50023329883e-12
3.2835830509e-05
-2.61024031713e-12
3.28358310931e-05
-2.71529950453e-12
3.28358317262e-05
-2.81290902581e-12
3.2835832404e-05
-2.90544210291e-12
3.28358331222e-05
-3.00057394218e-12
3.28358338786e-05
-3.10548632385e-12
3.28358346744e-05
-3.22247991055e-12
3.28358355162e-05
-3.35129646114e-12
3.28358364131e-05
-3.49271012607e-12
3.28358373684e-05
-3.6480772665e-12
3.283583838e-05
-3.81745621598e-12
3.28358394556e-05
-4.00206511326e-12
3.28358406119e-05
-4.20314307179e-12
3.28358418633e-05
-4.41801336129e-12
3.28358432209e-05
-4.64778311208e-12
3.28358446956e-05
-4.90304713869e-12
3.2835846299e-05
-5.19225633002e-12
3.28358480476e-05
-5.51897100161e-12
3.28358499741e-05
-5.89382923844e-12
3.2835852123e-05
-6.33411779111e-12
3.28358545372e-05
-6.86013113613e-12
3.28358572598e-05
-7.49994906797e-12
3.28358603441e-05
-8.27818087307e-12
3.28358638592e-05
-9.198901158e-12
3.28358678701e-05
-1.02563136503e-11
3.28358724301e-05
-1.14763782325e-11
3.28358780245e-05
-1.33338496147e-11
3.28358847628e-05
-1.5470247387e-11
3.28358928534e-05
-1.80700181807e-11
3.28359025781e-05
-2.12743046214e-11
3.28359143108e-05
-2.5245275798e-11
3.28359285211e-05
-3.01758417821e-11
3.28359458195e-05
-3.62834598367e-11
3.28359670095e-05
-4.38173844329e-11
3.28359931541e-05
-5.31137626828e-11
3.28360257432e-05
-6.46196573708e-11
3.28360661105e-05
-7.89126650716e-11
3.28361149158e-05
-9.66724172782e-11
3.28361748049e-05
-1.18691299664e-10
3.28362485284e-05
-1.45958216648e-10
3.28363393949e-05
-1.79719075111e-10
3.28364514608e-05
-2.21530309256e-10
3.28365897779e-05
-2.73308779689e-10
3.28367606398e-05
-3.37426943725e-10
3.28369718334e-05
-4.16815344055e-10
3.28372329798e-05
-5.15073789235e-10
3.2837555976e-05
-6.36656328499e-10
3.28379555479e-05
-7.87106473506e-10
3.28384499878e-05
-9.73328203807e-10
3.28390620606e-05
-1.20404319237e-09
3.28398197812e-05
-1.490233885e-09
3.28407571555e-05
-1.84509280198e-09
3.28419172321e-05
-2.28535355123e-09
3.28433534888e-05
-2.83104172452e-09
3.28451320432e-05
-3.50694160231e-09
3.28473346882e-05
-4.34404425131e-09
3.28500627068e-05
-5.38094326485e-09
3.28534416317e-05
-6.66551702365e-09
3.28576270778e-05
-8.25714769784e-09
3.28628119926e-05
-1.02295870277e-08
3.28692357344e-05
-1.26745355016e-08
3.28771954369e-05
-1.57060964152e-08
3.28870601769e-05
-1.94663941231e-08
3.28992886726e-05
-2.4132701229e-08
3.29144516078e-05
-2.99265467308e-08
3.29332598636e-05
-3.71254428205e-08
3.2956600319e-05
-4.60780682244e-08
3.29855814834e-05
-5.72240909363e-08
3.30215921573e-05
-7.1120301609e-08
3.30663775648e-05
-8.84755904483e-08
3.31221391319e-05
-1.10198711403e-07
3.31916668126e-05
-1.37464738486e-07
3.32785176306e-05
-1.71809433687e-07
3.33872621514e-05
-2.15267406384e-07
3.35238329095e-05
-2.7058192444e-07
3.36960319719e-05
-3.41537046812e-07
3.39142974098e-05
-4.33511158149e-07
3.41929063296e-05
-5.54458810413e-07
3.45519176945e-05
-7.16750181532e-07
3.50203379198e-05
-9.40812102404e-07
3.5641061113e-05
-1.26262357888e-06
3.64774207851e-05
-1.74931936543e-06
3.76172425764e-05
-2.53018054549e-06
3.9153022015e-05
-3.85165797141e-06
4.105993859e-05
-6.15847589938e-06
-1.00855342007e-05
4.28189506767e-05
5.35705195421e-05
8.95186698294e-06
5.55863059891e-05
1.58501345755e-05
5.52410589379e-05
1.62553861349e-05
5.35976159423e-05
1.40474395471e-05
5.15429060823e-05
1.11562298004e-05
4.95819405889e-05
8.45147058211e-06
4.79262513956e-05
6.2244115663e-06
4.66200399783e-05
4.49842434469e-06
4.5632234085e-05
3.20429830005e-06
4.49066879156e-05
2.25390632116e-06
4.43854425611e-05
1.56624319279e-06
4.40178332612e-05
1.07472630126e-06
4.37629127979e-05
7.2737682617e-07
4.35890453358e-05
4.84705421097e-07
4.34725021295e-05
3.17212129169e-07
4.33958691081e-05
2.03133142498e-07
4.33465910691e-05
1.26584916513e-07
4.33157569217e-05
7.60952223022e-08
4.32971354488e-05
4.34651421419e-08
4.32864338383e-05
2.28997436381e-08
4.32807405057e-05
1.03515357999e-08
4.32781177485e-05
3.03062956193e-09
4.32772910577e-05
-9.63074879179e-10
4.32774555557e-05
-2.90281391407e-09
4.32781069552e-05
-3.6174481467e-09
4.32789449649e-05
-3.64477171007e-09
4.32797999365e-05
-3.32084380736e-09
4.32805842651e-05
-2.84877469418e-09
4.32812600593e-05
-2.34528963058e-09
4.32818181539e-05
-1.87251329165e-09
4.32822648088e-05
-1.4591296533e-09
4.3282613526e-05
-1.11419298153e-09
4.32828802322e-05
-8.35955329596e-10
4.32830806058e-05
-6.17350582202e-10
4.32832287451e-05
-4.4926577016e-10
4.32833366445e-05
-3.22389065342e-10
4.32834141198e-05
-2.28174120281e-10
4.32834689727e-05
-1.5925634543e-10
4.32835072631e-05
-1.09551387844e-10
4.3283533607e-05
-7.41954780507e-11
4.32835514495e-05
-4.94005824378e-11
4.32835633181e-05
-3.2268955767e-11
4.32835710519e-05
-2.06214325726e-11
4.32835759637e-05
-1.28542960168e-11
4.32835789787e-05
-7.79156949967e-12
4.3283580745e-05
-4.57363048628e-12
4.32835817205e-05
-2.59909520595e-12
4.32835822316e-05
-1.45765928601e-12
4.32835825122e-05
-8.46271817803e-13
4.32835826256e-05
-5.62914312939e-13
4.32835826466e-05
-4.71258797862e-13
4.32835826165e-05
-4.70239526011e-13
4.32835825639e-05
-5.23057319105e-13
4.3283582503e-05
-6.02720328066e-13
4.32835824436e-05
-6.97188466434e-13
4.32835823956e-05
-7.99058380138e-13
4.32835823532e-05
-9.09012322034e-13
4.32835823263e-05
-1.01954032079e-12
4.32835823171e-05
-1.12145870724e-12
4.32835823263e-05
-1.21408500974e-12
4.32835823527e-05
-1.30229554094e-12
4.32835823897e-05
-1.39055116816e-12
4.32835824336e-05
-1.48517495306e-12
4.32835824877e-05
-1.59220830578e-12
4.32835825532e-05
-1.70791030416e-12
4.32835826275e-05
-1.82340979925e-12
4.32835827067e-05
-1.93467624969e-12
4.32835827903e-05
-2.03870562599e-12
4.32835828782e-05
-2.13507303808e-12
4.32835829707e-05
-2.23085803368e-12
4.32835830668e-05
-2.33324958997e-12
4.32835831656e-05
-2.44378682015e-12
4.32835832677e-05
-2.562298797e-12
4.32835833766e-05
-2.68437335215e-12
4.32835835016e-05
-2.8024502989e-12
4.32835836547e-05
-2.91316445855e-12
4.32835838393e-05
-3.01749489767e-12
4.32835840493e-05
-3.12091845514e-12
4.32835842798e-05
-3.23264905099e-12
4.32835845323e-05
-3.35843596347e-12
4.3283584813e-05
-3.49900633269e-12
4.32835851303e-05
-3.65529505962e-12
4.32835854934e-05
-3.83020672209e-12
4.32835859077e-05
-4.02605327508e-12
4.32835863741e-05
-4.24252518883e-12
4.32835869015e-05
-4.48069019362e-12
4.328358751e-05
-4.74547803267e-12
4.32835882176e-05
-5.03796703934e-12
4.3283589035e-05
-5.36065597692e-12
4.32835899769e-05
-5.72970408916e-12
4.32835910635e-05
-6.15836884225e-12
4.32835923173e-05
-6.65069782567e-12
4.32835937747e-05
-7.22708565407e-12
4.32835954857e-05
-7.9207724501e-12
4.3283597505e-05
-8.75909314427e-12
4.32835999004e-05
-9.77494915077e-12
4.32836027658e-05
-1.10118965064e-11
4.32836062289e-05
-1.25086466931e-11
4.32836104817e-05
-1.4318043746e-11
4.32836157577e-05
-1.6524364318e-11
4.32836219291e-05
-1.92531288867e-11
4.32836293571e-05
-2.26130971405e-11
4.32836383565e-05
-2.67672066324e-11
4.328364927e-05
-3.1912335259e-11
4.32836625342e-05
-3.82857577376e-11
4.32836787179e-05
-4.61828897898e-11
4.32836985205e-05
-5.59462160829e-11
4.32837228153e-05
-6.79895339784e-11
4.32837526952e-05
-8.285815192e-11
4.32837894771e-05
-1.01258762529e-10
4.32838348257e-05
-1.24118545814e-10
4.32838908652e-05
-1.52556935911e-10
4.32839600839e-05
-1.87752599924e-10
4.32840455563e-05
-2.31281953237e-10
4.3284151108e-05
-2.85150620277e-10
4.32842814677e-05
-3.51847586745e-10
4.3284442529e-05
-4.34422681305e-10
4.32846416412e-05
-5.36638267592e-10
4.32848879033e-05
-6.63159864452e-10
4.3285192549e-05
-8.19759359339e-10
4.32855694766e-05
-1.0135847495e-09
4.32860359105e-05
-1.25351251059e-09
4.32866132016e-05
-1.55057416878e-09
4.32873277827e-05
-1.91856420879e-09
4.32882122748e-05
-2.37469457798e-09
4.32893071396e-05
-2.94000091406e-09
4.32906624068e-05
-3.64067864659e-09
4.32923401482e-05
-4.50881029237e-09
4.32944172838e-05
-5.58410866706e-09
4.32969891045e-05
-6.91593572695e-09
4.33001736757e-05
-8.56559730658e-09
4.33041173026e-05
-1.06091691988e-08
4.33090012749e-05
-1.31410684656e-08
4.33150502984e-05
-1.6278541696e-08
4.33225430471e-05
-2.01672627373e-08
4.33318253144e-05
-2.49883669346e-08
4.33433263682e-05
-3.09673746142e-08
4.33575793497e-05
-3.83854709561e-08
4.3375246901e-05
-4.75937846127e-08
4.33971534371e-05
-5.90316546856e-08
4.34243258917e-05
-7.32502584383e-08
4.34580453905e-05
-9.09434144511e-08
4.34999131803e-05
-1.12987999027e-07
4.35519352924e-05
-1.40497655336e-07
4.36166322227e-05
-1.74895542148e-07
4.36971824924e-05
-2.18014702355e-07
4.37976126764e-05
-2.72239143415e-07
4.3923053116e-05
-3.40707466229e-07
4.40800877746e-05
-4.27616424331e-07
4.42772405579e-05
-5.38689676057e-07
4.452566124e-05
-6.81931424585e-07
4.48400947824e-05
-8.68891793474e-07
4.52402221396e-05
-1.11687717968e-06
4.57523434579e-05
-1.45293357943e-06
4.64108442538e-05
-1.92112470377e-06
4.72571379829e-05
-2.59561306167e-06
4.83291021849e-05
-3.602144789e-06
4.96230504812e-05
-5.1456065167e-06
5.09885753133e-05
-7.52400110346e-06
-1.10333800495e-05
5.1936421579e-05
5.27606080807e-05
6.1912584554e-06
5.57402408418e-05
1.28705024065e-05
5.73124120686e-05
1.46832147905e-05
5.76111980109e-05
1.37486535938e-05
5.71338687241e-05
1.16335590835e-05
5.63199842119e-05
9.26535503037e-06
5.54496451698e-05
7.094750648e-06
5.46637030593e-05
5.28436637014e-06
5.40144132161e-05
3.85358814131e-06
5.35068426833e-05
2.76147687618e-06
5.31248782203e-05
1.9482076603e-06
5.28455242537e-05
1.35408029205e-06
5.26458881133e-05
9.27012985058e-07
5.2506075504e-05
6.2451804024e-07
5.24099978684e-05
4.1328976916e-07
5.23452163353e-05
2.67914671042e-07
5.23024113703e-05
1.69389866635e-07
5.2274766465e-05
1.03740097486e-07
5.22573942635e-05
6.0837311297e-08
5.22468521929e-05
3.34417949909e-08
5.22407559279e-05
1.64477857647e-08
5.22374829186e-05
6.30362587548e-09
5.223594168e-05
5.78149629887e-10
5.22354263744e-05
-2.38752997032e-09
5.22354783072e-05
-3.66940101849e-09
5.22358131721e-05
-3.97964630279e-09
5.22362604647e-05
-3.76813907338e-09
5.22367233189e-05
-3.31163063553e-09
5.22371511597e-05
-2.77313831839e-09
5.2237521576e-05
-2.24294472525e-09
5.22378285238e-05
-1.76609500696e-09
5.22380748168e-05
-1.36050614218e-09
5.22382675033e-05
-1.0286652935e-09
5.22384151274e-05
-7.64999446892e-10
5.22385261976e-05
-5.6036130673e-10
5.22386084186e-05
-4.04635002233e-10
5.22386683755e-05
-2.88153042128e-10
5.22387114754e-05
-2.02374094892e-10
5.22387420247e-05
-1.40117608932e-10
5.22387633765e-05
-9.55600782649e-11
5.22387780829e-05
-6.41155826629e-11
5.22387880466e-05
-4.22479965211e-11
5.22387946776e-05
-2.72754604552e-11
5.22387990018e-05
-1.72058587325e-11
5.22388017582e-05
-1.0580028187e-11
5.22388034768e-05
-6.32541380598e-12
5.22388045146e-05
-3.66581581017e-12
5.22388050908e-05
-2.05753540148e-12
5.22388053514e-05
-1.1271398462e-12
5.22388054067e-05
-6.35229364276e-13
5.22388053361e-05
-4.14444936666e-13
5.22388052115e-05
-3.57852191576e-13
5.2238805077e-05
-4.00999120315e-13
5.22388049442e-05
-4.87547901554e-13
5.22388048145e-05
-5.94962552507e-13
5.22388046924e-05
-7.1305918615e-13
5.22388045783e-05
-8.3515362941e-13
5.22388044743e-05
-9.53686912947e-13
5.22388043833e-05
-1.06277140143e-12
5.22388043015e-05
-1.16000852187e-12
5.22388042198e-05
-1.24964226201e-12
5.22388041348e-05
-1.34027216561e-12
5.22388040489e-05
-1.43836207273e-12
5.22388039639e-05
-1.54542991181e-12
5.22388038813e-05
-1.65698769973e-12
5.22388038029e-05
-1.76560522604e-12
5.22388037241e-05
-1.86713058181e-12
5.22388036384e-05
-1.9641009405e-12
5.22388035465e-05
-2.061994353e-12
5.22388034502e-05
-2.166136746e-12
5.22388033477e-05
-2.27966973437e-12
5.22388032386e-05
-2.40084875054e-12
5.22388031256e-05
-2.5248866914e-12
5.22388030147e-05
-2.64620308485e-12
5.22388029133e-05
-2.75996988604e-12
5.22388028275e-05
-2.86536730586e-12
5.22388027589e-05
-2.96758655298e-12
5.22388027033e-05
-3.07505773328e-12
5.22388026539e-05
-3.19457011653e-12
5.22388026114e-05
-3.32936280784e-12
5.22388025872e-05
-3.48158524311e-12
5.22388025918e-05
-3.65382853189e-12
5.223880263e-05
-3.84864567142e-12
5.22388027058e-05
-4.06901770867e-12
5.22388028233e-05
-4.31690282173e-12
5.2238802989e-05
-4.59292594208e-12
5.22388032149e-05
-4.90017657641e-12
5.22388035179e-05
-5.24629638161e-12
5.22388039144e-05
-5.64325546007e-12
5.22388044137e-05
-6.10556331011e-12
5.22388050312e-05
-6.64970922488e-12
5.22388057995e-05
-7.29491811819e-12
5.22388067567e-05
-8.0655722775e-12
5.2238807944e-05
-8.9961998686e-12
5.22388094181e-05
-1.01257443885e-11
5.22388112573e-05
-1.14936696426e-11
5.2238813547e-05
-1.31512426559e-11
5.22388163815e-05
-1.51652240163e-11
5.22388198993e-05
-1.76261384463e-11
5.2238824286e-05
-2.06708973591e-11
5.22388297615e-05
-2.44745608552e-11
5.22388365804e-05
-2.91640585656e-11
5.22388450419e-05
-3.49540228906e-11
5.22388555032e-05
-4.21262887302e-11
5.22388684256e-05
-5.10105075828e-11
5.22388844108e-05
-6.2001716471e-11
5.22389042082e-05
-7.55876108123e-11
5.2238928731e-05
-9.23685632284e-11
5.22389591138e-05
-1.13107637396e-10
5.22389967458e-05
-1.38771691701e-10
5.22390433062e-05
-1.7057068688e-10
5.22391008688e-05
-2.09991896038e-10
5.22391720557e-05
-2.58791187832e-10
5.22392600919e-05
-3.19176247745e-10
5.22393689599e-05
-3.9391091588e-10
5.22395035815e-05
-4.86434392147e-10
5.22396700869e-05
-6.00975868359e-10
5.22398761095e-05
-7.42740390381e-10
5.22401310838e-05
-9.18175714098e-10
5.22404466813e-05
-1.13533931596e-09
5.22408373402e-05
-1.40418514586e-09
5.2241320939e-05
-1.73703413163e-09
5.22419196061e-05
-2.14919224847e-09
5.22426607258e-05
-2.65968660238e-09
5.22435781445e-05
-3.29216708261e-09
5.22447138513e-05
-4.07579903263e-09
5.22461197826e-05
-5.04665831581e-09
5.2247860271e-05
-6.24927537571e-09
5.22500149953e-05
-7.73881086136e-09
5.2252682687e-05
-9.58366860475e-09
5.22559856856e-05
-1.18686793229e-08
5.22600755445e-05
-1.46990831247e-08
5.22651399811e-05
-1.82054951037e-08
5.2271411572e-05
-2.25500767161e-08
5.22791785926e-05
-2.79342221347e-08
5.2288798472e-05
-3.46082006031e-08
5.23007145145e-05
-4.28833593212e-08
5.2315476711e-05
-5.31475431978e-08
5.23337677369e-05
-6.5884570367e-08
5.2356435448e-05
-8.16990217218e-08
5.23845336224e-05
-1.0134809109e-07
5.24193732624e-05
-1.25782833145e-07
5.24625873404e-05
-1.56201987609e-07
5.25162126366e-05
-1.94122956811e-07
5.258279378e-05
-2.41476787103e-07
5.2665516481e-05
-3.0073746756e-07
5.27683785326e-05
-3.75101056661e-07
5.28964103669e-05
-4.68739081637e-07
5.30559603398e-05
-5.87166343565e-07
5.32550608021e-05
-7.37790242858e-07
5.35038856994e-05
-9.30756352276e-07
5.38152827131e-05
-1.18028862877e-06
5.42052715818e-05
-1.50686569362e-06
5.46931360822e-05