/*--------------------------------*- C++ -*----------------------------------*\
| =========                 |                                                 |
| \\      /  F ield         | OpenFOAM: The Open Source CFD Toolbox           |
|  \\    /   O peration     | Version:  2106                                  |
|   \\  /    A nd           | Website:  www.openfoam.com                      |
|    \\/     M anipulation  |                                                 |
\*---------------------------------------------------------------------------*/
FoamFile
{
    version     2.0;
    format      ascii;
    arch        "LSB;label=32;scalar=64";
    class       surfaceScalarField;
    location    "0.32";
    object      phi;
}
// * * * * * * * * * * * * * * * * * * * * * * * * * * * * * * * * * * * * * //

dimensions      [0 3 -1 0 0 0 0];

oriented        oriented;

internalField   nonuniform List<scalar> 
22100
(
3.38461203713e-05
1.61538796271e-05
2.24572099028e-05
1.13889103736e-05
1.62585530316e-05
6.19865679221e-06
1.2797776054e-05
3.4607768988e-06
1.08046421758e-05
1.99313379814e-06
9.60458914586e-06
1.20005294975e-06
8.85132138095e-06
7.53267685233e-07
8.36435255974e-06
4.86968741923e-07
8.04433466919e-06
3.20017810041e-07
7.83283986052e-06
2.11494726737e-07
7.69339667785e-06
1.39443100969e-07
7.60223976411e-06
9.11568329387e-08
7.54347694494e-06
5.87627395177e-08
7.50633998032e-06
3.71368855469e-08
7.48350040877e-06
2.28394927893e-08
7.46997951145e-06
1.35208187905e-08
7.46241480486e-06
7.56462862479e-09
7.45854668157e-06
3.86804677562e-09
7.45682759234e-06
1.7190151896e-09
7.45642086287e-06
4.06660260431e-10
7.4567705849e-06
-3.49789599638e-10
7.45745666741e-06
-6.86149454358e-10
7.45821492326e-06
-7.58320911564e-10
7.45894015305e-06
-7.25292656802e-10
7.45958440471e-06
-6.4431089146e-10
7.46012829767e-06
-5.43948658608e-10
7.46057038844e-06
-4.42143042591e-10
7.46091913296e-06
-3.48792911564e-10
7.4611874395e-06
-2.68349613152e-10
7.46138939521e-06
-2.01993148155e-10
7.4615383756e-06
-1.49014294453e-10
7.46164608873e-06
-1.07740791831e-10
7.46172226496e-06
-7.61962842951e-11
7.46177503168e-06
-5.277887677e-11
7.46180834168e-06
-3.33174771623e-11
7.46182718558e-06
-1.88428524325e-11
7.4618363278e-06
-9.13355022298e-12
7.46183920575e-06
-2.86615555016e-12
7.46183776365e-06
1.45370910034e-12
7.46183314117e-06
4.63748935279e-12
7.46182627025e-06
6.88936582186e-12
7.46181775168e-06
8.53822301563e-12
7.46180794918e-06
9.82032985381e-12
7.46179703316e-06
1.09282791509e-11
7.46178500839e-06
1.20283436799e-11
7.46177175483e-06
1.32475471444e-11
7.46175705175e-06
1.46898040454e-11
7.46174058343e-06
1.64486586892e-11
7.46172193071e-06
1.86245425914e-11
7.46170055853e-06
2.13406126439e-11
7.46167586249e-06
2.4665255031e-11
7.46164714833e-06
2.86869118557e-11
7.46161363213e-06
3.3492707847e-11
7.46157446392e-06
3.91469898821e-11
7.46152877535e-06
4.56677930757e-11
7.46147573943e-06
5.30154654491e-11
7.4614146853e-06
6.10326197483e-11
7.4613454886e-06
6.91672698095e-11
7.46126884019e-06
7.66040406502e-11
7.46118718618e-06
8.15881816251e-11
7.46110685587e-06
8.02462338687e-11
7.46103998892e-06
6.67812249408e-11
7.46099424676e-06
4.56460644044e-11
7.46098891981e-06
5.21683081818e-12
7.4610599569e-06
-7.11502875138e-11
7.46126562219e-06
-2.05759837676e-10
7.46170037064e-06
-4.34815885068e-10
7.46251420898e-06
-8.1389815217e-10
7.46394234384e-06
-1.42822181142e-09
7.46634024816e-06
-2.39799433788e-09
7.47015738383e-06
-3.81719003705e-09
7.47660442769e-06
-6.44707957313e-09
7.48737321502e-06
-1.07688426119e-08
7.50554596407e-06
-1.81727671053e-08
7.5387296519e-06
-3.31835771004e-08
7.60794420777e-06
-6.92143428851e-08
7.77461075968e-06
-1.66666341699e-07
8.22954110137e-06
-4.54930093329e-07
9.69724228485e-06
-1.46770078537e-06
-5.45173131546e-06
1.51489740638e-05
5.02175948486e-05
1.59362846847e-05
4.42441115546e-05
1.73623935056e-05
3.77795013792e-05
1.26632668229e-05
3.26461438343e-05
8.59413429771e-06
2.89380916436e-05
5.70118584332e-06
2.63596211626e-05
3.77852328633e-06
2.45875166673e-05
2.52537203609e-06
2.33734745249e-05
1.70101073864e-06
2.25435253954e-05
1.1499667924e-06
2.19782166369e-05
7.76803337527e-07
2.15955140452e-05
5.22145546658e-07
2.13387374252e-05
3.4793330882e-07
2.11684958536e-05
2.29004168727e-07
2.10573381989e-05
1.48294398881e-07
2.09861502442e-05
9.40273075186e-08
2.09416778309e-05
5.79930946376e-08
2.09147959883e-05
3.44463383816e-08
2.08992968657e-05
1.93670434928e-08
2.08910730801e-05
9.94268060089e-09
2.0887272774e-05
4.20684820027e-09
2.0886203728e-05
7.19140463699e-10
2.08864493804e-05
-9.31915311588e-10
2.08873207439e-05
-1.62979296557e-09
2.08884601678e-05
-1.86481879344e-09
2.08896334215e-05
-1.81766085928e-09
2.08907163407e-05
-1.62695807853e-09
2.089165387e-05
-1.37975580457e-09
2.08924313397e-05
-1.12633732977e-09
2.08930565163e-05
-8.93592313389e-10
2.08935486176e-05
-6.94152654801e-10
2.08939324197e-05
-5.32865424302e-10
2.08942339352e-05
-4.09288936191e-10
2.08944448949e-05
-2.87173465198e-10
2.08945919496e-05
-1.99840903952e-10
2.08946923247e-05
-1.33685918703e-10
2.08947577114e-05
-8.42175589878e-11
2.0894798281e-05
-4.96841259892e-11
2.08948222009e-05
-2.67632242133e-11
2.08948342889e-05
-1.06036795821e-11
2.08948374795e-05
1.48204675473e-12
2.08948341864e-05
1.0216623944e-11
2.08948260718e-05
1.66825528264e-11
2.08948142708e-05
2.16416258677e-11
2.08947994961e-05
2.57084096911e-11
2.08947821191e-05
2.93953753759e-11
2.08947622787e-05
3.30634552e-11
2.08947399614e-05
3.69696347319e-11
2.08947150445e-05
4.13169817396e-11
2.08946873302e-05
4.628455674e-11
2.0894656549e-05
5.20684620019e-11
2.08946224867e-05
5.86799025499e-11
2.08945850012e-05
6.61291635601e-11
2.08945441071e-05
7.43445540221e-11
2.08945001223e-05
8.30891645999e-11
2.08944539135e-05
9.18330925065e-11
2.08944072759e-05
9.96046636477e-11
2.08943635133e-05
1.0473232725e-10
2.08943285889e-05
1.0400282777e-10
2.08943119703e-05
9.31096806873e-11
2.08943289253e-05
6.44947857902e-11
2.0894406388e-05
2.61959148478e-12
2.08945931063e-05
-1.20115228862e-10
2.08949574772e-05
-3.18920884988e-10
2.08956181161e-05
-6.55636252776e-10
2.08966829402e-05
-1.13616245102e-09
2.08983289195e-05
-1.85187142019e-09
2.09009138216e-05
-3.0198343794e-09
2.09049854616e-05
-4.88568957794e-09
2.09114129632e-05
-7.85588028181e-09
2.09216199507e-05
-1.2605077047e-08
2.09380964247e-05
-2.02937185986e-08
2.0964988059e-05
-3.33387857636e-08
2.10092342796e-05
-5.50150936654e-08
2.10840081179e-05
-9.29464696404e-08
2.12152359364e-05
-1.6441107519e-07
2.14558262699e-05
-3.09804234825e-07
2.19136373574e-05
-6.24476806117e-07
2.28005894257e-05
-1.34188136481e-06
2.44445164526e-05
-3.11162708106e-06
-7.0382633716e-06
2.60310499529e-05
5.35171052955e-05
1.24191793106e-05
5.29349681916e-05
1.79445304656e-05
4.96538399051e-05
1.59443949824e-05
4.58401811268e-05
1.24077929483e-05
4.2440091997e-05
9.10127484628e-06
3.97291719028e-05
6.48944325455e-06
3.7687305288e-05
4.56723852444e-06
3.61976623206e-05
3.190653578e-06
3.51326115453e-05
2.21501743798e-06
3.43823663535e-05
1.52704839919e-06
3.38606252353e-05
1.0438865359e-06
3.35023448636e-05
7.06213552784e-07
3.32595998369e-05
4.71749068695e-07
3.30975894124e-05
3.10304698012e-07
3.29913332228e-05
2.00283373883e-07
3.29230912319e-05
1.26234965044e-07
3.28804031666e-05
7.71342876344e-08
3.28546179089e-05
4.5152187365e-08
3.2839790686e-05
2.47697931838e-08
3.28318640488e-05
1.21333770619e-08
3.28279944417e-05
4.58864138833e-09
3.28269956689e-05
6.67561888488e-11
3.2827176304e-05
-1.8105247572e-09
3.28280245734e-05
-2.71318013968e-09
3.28291401943e-05
-2.93336909462e-09
3.28302872829e-05
-2.77412941687e-09
3.28313430929e-05
-2.43564211694e-09
3.28322533209e-05
-2.036633835e-09
3.28330031192e-05
-1.64345200292e-09
3.28335985748e-05
-1.28966144991e-09
3.28340546376e-05
-9.88968306945e-10
3.28343894006e-05
-7.44081314783e-10
3.28346555584e-05
-5.53349848156e-10
3.28348716762e-05
-4.15973333419e-10
3.28350186816e-05
-2.806889592e-10
3.28351177038e-05
-1.83231861714e-10
3.28351833675e-05
-1.15335848055e-10
3.28352251005e-05
-6.84776897958e-11
3.28352497819e-05
-3.52593145235e-11
3.28352613729e-05
-1.00798968129e-11
3.28352634321e-05
8.18707527982e-12
3.28352584528e-05
2.16870789132e-11
3.28352482531e-05
3.18562678204e-11
3.28352340588e-05
3.9903390869e-11
3.28352166266e-05
4.68165170503e-11
3.28351964227e-05
5.32443313287e-11
3.28351737439e-05
5.96164936535e-11
3.28351487969e-05
6.62224302576e-11
3.28351217033e-05
7.33346041109e-11
3.28350924643e-05
8.12669267788e-11
3.28350613918e-05
8.97145167985e-11
3.28350290844e-05
9.83981570124e-11
3.28349965784e-05
1.06809740147e-10
3.28349656619e-05
1.13963179623e-10
3.28349393436e-05
1.18108879368e-10
3.28349223093e-05
1.16592837624e-10
3.28349215562e-05
1.05431634647e-10
3.28349485739e-05
7.69071747059e-11
3.2835020666e-05
2.09200338603e-11
3.2835167599e-05
-8.25573459018e-11
3.28354407667e-05
-2.70679983056e-10
3.28359292115e-05
-6.08713051731e-10
3.28366464919e-05
-1.03637356145e-09
3.28376884801e-05
-1.69780569429e-09
3.28393136246e-05
-2.76144909724e-09
3.28418973848e-05
-4.43574673804e-09
3.28459436425e-05
-7.06623076668e-09
3.28522666964e-05
-1.12089116173e-08
3.28621793731e-05
-1.77686911762e-08
3.28778457249e-05
-2.82715113095e-08
3.29029256112e-05
-4.53736739088e-08
3.29427691308e-05
-7.31823586358e-08
3.30072042814e-05
-1.194501822e-07
3.31132107603e-05
-1.98952732747e-07
3.32897971786e-05
-3.40997228855e-07
3.35851607923e-05
-6.05167556011e-07
3.40703717016e-05
-1.10968726231e-06
3.48115533416e-05
-2.08306254969e-06
3.56724960768e-05
-3.97256961729e-06
-7.10660208951e-06
3.57408336781e-05
5.35105664145e-05
8.90861281969e-06
5.55742220902e-05
1.58808746499e-05
5.52424822857e-05
1.62761346617e-05
5.35977856464e-05
1.40524894634e-05
5.15418472922e-05
1.11572130781e-05
4.95802794229e-05
8.45101100146e-06
4.79243502936e-05
6.22316752972e-06
4.66181383085e-05
4.49686543713e-06
4.56304653947e-05
3.20269022402e-06
4.49051163367e-05
2.25239732945e-06
4.4384089042e-05
1.56491370413e-06
4.40166927904e-05
1.07360967939e-06
4.37619661984e-05
7.26475536652e-07
4.35882674961e-05
4.84003277554e-07
4.3471868044e-05
3.16682705123e-07
4.33953578846e-05
2.0274500697e-07
4.33461875233e-05
1.26304534522e-07
4.33154498331e-05
7.58897666105e-08
4.32969133929e-05
4.33061238504e-08
4.32862872539e-05
2.27594094116e-08
4.32806843439e-05
1.01914483993e-08
4.32778766097e-05
2.87439158176e-09
4.32770487477e-05
-9.82756871034e-10
4.32772665797e-05
-2.93110234555e-09
4.32779540591e-05
-3.62093541027e-09
4.3278817057e-05
-3.63721008214e-09
4.32796898046e-05
-3.30846618665e-09
4.32804871863e-05
-2.83408516848e-09
4.32811728524e-05
-2.32917907021e-09
4.32817385883e-05
-1.85544762545e-09
4.32821912295e-05
-1.44164685614e-09
4.32825434776e-05
-1.09635662224e-09
4.32828050794e-05
-8.14968220695e-10
4.32829803391e-05
-5.91233954018e-10
4.32831132547e-05
-4.13603890795e-10
4.3283198553e-05
-2.68524773697e-10
4.32832524849e-05
-1.69255388248e-10
4.32832922579e-05
-1.08230194555e-10
4.32833166628e-05
-5.96383004536e-11
4.32833286935e-05
-2.20815740172e-11
4.32833317697e-05
5.13995229489e-12
4.32833278485e-05
2.56315402281e-11
4.3283318625e-05
4.10912471077e-11
4.32833052686e-05
5.32591579142e-11
4.32832884353e-05
6.36391896501e-11
4.32832685625e-05
7.30966253065e-11
4.32832459945e-05
8.21552991629e-11
4.32832210272e-05
9.11563335778e-11
4.32831940146e-05
1.00313571503e-10
4.32831655498e-05
1.09697806155e-10
4.32831362736e-05
1.18953763683e-10
4.32831071552e-05
1.27472250234e-10
4.32830796719e-05
1.34242353901e-10
4.32830559369e-05
1.3764423606e-10
4.32830388862e-05
1.35106835031e-10
4.32830329739e-05
1.22453939083e-10
4.32830461939e-05
9.21584316995e-11
4.32830905755e-05
3.24592288298e-11
4.3283185366e-05
-7.39534681964e-11
4.32833472182e-05
-2.44512375527e-10
4.3283588842e-05
-5.1242121901e-10
4.32840325148e-05
-1.05254522882e-09
4.32848044304e-05
-1.80848072093e-09
4.32860584452e-05
-2.9520054218e-09
4.32880022671e-05
-4.70541773865e-09
4.32909857736e-05
-7.41939169863e-09
4.32955684789e-05
-1.16491088823e-08
4.33026289028e-05
-1.82695141194e-08
4.33135489833e-05
-2.86889072364e-08
4.33304862313e-05
-4.52088632251e-08
4.33567490879e-05
-7.163663817e-08
4.33979066798e-05
-1.14340003938e-07
4.34628079605e-05
-1.84351355399e-07
4.35651726151e-05
-3.0131712488e-07
4.37249470642e-05
-5.00771366653e-07
4.39667135349e-05
-8.46933628383e-07
4.43071143655e-05
-1.45008746969e-06
4.47074125831e-05
-2.48335984955e-06
4.49266506162e-05
-4.1918065555e-06
-6.57731240284e-06
4.43973607449e-05
5.27351379452e-05
6.1734747968e-06
5.57309342724e-05
1.28850781837e-05
5.73114740026e-05
1.46955948074e-05
5.76109914073e-05
1.37529719364e-05
5.71335221637e-05
1.16346822003e-05
5.63194675977e-05
9.26506544514e-06
5.5448987411e-05
7.09364759179e-06
5.46629768525e-05
5.28287586888e-06
5.40136813031e-05
3.8519856453e-06
5.35061499939e-05
2.75992851134e-06
5.31242541141e-05
1.9468094582e-06
5.28449846271e-05
1.35287904206e-06
5.26454384578e-05
9.26021582958e-07
5.2505714307e-05
6.23727306837e-07
5.24097196451e-05
4.12677246791e-07
5.23450137534e-05
2.67450781586e-07
5.23022760553e-05
1.69042118075e-07
5.22746890156e-05
1.03476693611e-07
5.22573645827e-05
6.063044689e-08
5.22468559839e-05
3.32679017241e-08
5.22407563263e-05
1.62910043592e-08
5.22374474347e-05
6.18318624291e-09
5.22359486778e-05
5.1590689326e-10
5.22354405702e-05
-2.42308498951e-09
5.22355053068e-05
-3.68575917038e-09
5.22358505118e-05
-3.98249727363e-09
5.2236304475e-05
-3.76250525418e-09
5.22367705642e-05
-3.30024294162e-09
5.22371976832e-05
-2.7563572652e-09
5.22375631128e-05
-2.2209239556e-09
5.22378601534e-05
-1.73872481709e-09
5.22380916008e-05
-1.32782628048e-09
5.22382677338e-05
-9.91119280181e-10
5.223840047e-05
-7.23974349412e-10
5.22385006975e-05
-5.13831730121e-10
5.22385851913e-05
-3.53013033043e-10
5.22386506352e-05
-2.34685685237e-10
5.22386928737e-05
-1.5044698802e-10
5.2238725593e-05
-9.23316946142e-11
5.22387409889e-05
-3.74489709925e-11
5.22387462219e-05
-6.63627414837e-14
5.22387438654e-05
2.80070533825e-11
5.22387358684e-05
4.90955806514e-11
5.223872356e-05
6.55671684591e-11
5.22387078093e-05
7.93800920516e-11
5.22386891901e-05
9.16976233291e-11
5.22386681905e-05
1.03130349732e-10
5.22386455124e-05
1.13808443683e-10
5.22386221292e-05
1.2367075236e-10
5.22385960833e-05
1.35714399122e-10
5.22385691097e-05
1.45889219075e-10
5.22385423233e-05
1.54210828116e-10
5.22385173123e-05
1.59198974426e-10
5.22384966754e-05
1.58225024476e-10
5.22384857626e-05
1.45967088169e-10
5.22384944161e-05
1.13757771161e-10
5.22385251911e-05
6.1331323081e-11
5.22386010731e-05
-4.34795196718e-11
5.22387208226e-05
-1.93772927867e-10
5.22389147101e-05
-4.38487767057e-10
5.22392519901e-05
-8.49818618774e-10
5.22397688351e-05
-1.56955104893e-09
5.22405407974e-05
-2.58064197669e-09
5.22417004978e-05
-4.11188522321e-09
5.2243451179e-05
-6.45625866308e-09
5.22460940542e-05
-1.00624478811e-08
5.22500809475e-05
-1.56362093756e-08
5.22561029297e-05
-2.42916752239e-08
5.22652186979e-05
-3.78047966538e-08
5.22790454203e-05
-5.90356838374e-08
5.2300040679e-05
-9.26319958997e-08
5.23319198974e-05
-1.46219249717e-07
5.23800260511e-05
-2.3245738235e-07
5.24512844706e-05
-3.72575287387e-07
5.25525576254e-05
-6.0204415216e-07
5.26843891289e-05
-9.78764649044e-07
5.28245519899e-05
-1.5902497889e-06
5.28915607011e-05
-2.55036785806e-06
5.26729584319e-05
-3.97320312379e-06
-5.76838420427e-06
5.18640305059e-05
5.19834864096e-05
4.18998831121e-06
5.50586637939e-05
9.80990066159e-06
5.76386129179e-05
1.21156455609e-05
5.93259027532e-05
1.20656819799e-05
6.02280146776e-05
1.0732570155e-05
6.05929257481e-05
8.90015425231e-06
6.06482825494e-05
7.03829066547e-06
6.05531879665e-05
5.37797032517e-06
6.04029532632e-05
4.00222022143e-06
6.02479126271e-05
2.91496902117e-06
6.01107869686e-05
2.08393499122e-06
5.9999027318e-05
1.46463856808e-06
5.99125120173e-05
1.01253676095e-06
5.98479200005e-05
6.88319202922e-07
5.98010163084e-05
4.59580821181e-07
5.97677315304e-05
3.00735443041e-07
5.97445900456e-05
1.92183487585e-07
5.97288113698e-05
1.1925525662e-07
5.97182630909e-05
7.11786159408e-08
5.97113567721e-05
4.01741153715e-08
5.97069373006e-05
2.07103756063e-08
5.97042032859e-05
8.91710546692e-09
5.97025941357e-05
2.12496509925e-09
5.97016894824e-05
-1.51852154811e-09
5.97012310638e-05
-3.22742764589e-09
5.97010414177e-05
-3.79293378844e-09
5.97010050127e-05
-3.72617666356e-09
5.97010491915e-05
-3.34448947421e-09
5.9701130235e-05
-2.83745665736e-09
5.97012224742e-05
-2.31320752548e-09
5.9701312031e-05
-1.82831616245e-09
5.97013922936e-05
-1.40811133675e-09
5.97014618339e-05
-1.06067574769e-09
5.97015212567e-05
-7.83405787621e-10
5.97015713641e-05
-5.63941436964e-10
5.97016110505e-05
-3.9269309999e-10
5.97016387523e-05
-2.62373806759e-10
5.97016539979e-05
-1.6567347838e-10
5.97016523447e-05
-9.06534607941e-11
5.97016443102e-05
-2.93863625789e-11
5.97016377524e-05
6.51553756431e-12
5.9701628576e-05
3.71996302337e-11
5.97016182011e-05
5.94760299244e-11
5.97016066616e-05
7.7105813618e-11
5.97015928875e-05
9.31461446293e-11
5.97015767253e-05
1.07845311372e-10
5.97015582404e-05
1.21597908086e-10
5.97015374238e-05
1.34607195274e-10
5.97015142315e-05
1.46839466969e-10
5.97014918921e-05
1.58019391487e-10
5.97014703324e-05
1.67400097392e-10
5.97014508036e-05
1.73677091882e-10
5.97014349865e-05
1.74946202928e-10
5.97014244587e-05
1.68688297961e-10
5.97014183428e-05
1.52029379977e-10
5.97014093037e-05
1.22766389793e-10
5.9701413857e-05
5.67397593547e-11
5.97014256183e-05
-5.52933318367e-11
5.9701508337e-05
-2.76550801307e-10
5.97016964144e-05
-6.2663796733e-10
5.9701995466e-05
-1.14898659086e-09
5.97023813405e-05
-1.95558982791e-09
5.97029583419e-05
-3.1578309482e-09
5.97038089788e-05
-4.96268975315e-09
5.97050471203e-05
-7.69457057042e-09
5.97068376381e-05
-1.1853183378e-08
5.97094184476e-05
-1.82172559352e-08
5.97131333365e-05
-2.80067636491e-08
5.97184716554e-05
-4.31432534866e-08
5.97261136453e-05
-6.6677774616e-08
5.9736960233e-05
-1.03478641985e-07
5.97520731425e-05
-1.61332109318e-07
5.97722887238e-05
-2.52672802722e-07
5.9797013723e-05
-3.97300076646e-07
5.98210897217e-05
-6.26119840041e-07
5.98276398204e-05
-9.85314296548e-07
5.97746220557e-05
-1.53723157942e-06
5.957411576e-05
-2.34986101414e-06
5.9068300873e-05
-3.46738735299e-06
-4.79705152292e-06
5.80969685675e-05
5.14373053104e-05
2.75268292589e-06
5.4265820391e-05
6.98138544399e-06
5.72496429339e-05
9.1318228966e-06
5.97900271586e-05
9.52529763449e-06
6.17201275163e-05
8.80246967642e-06
6.30883023244e-05
7.5319793212e-06
6.40167157429e-05
6.10987712169e-06
6.46292354004e-05
4.76545054225e-06
6.50258022198e-05
3.60565327682e-06
6.52790766593e-05
2.66169445754e-06
6.54389715753e-05
1.92403995218e-06
6.55386882779e-05
1.36492174377e-06
6.5599926696e-05
9.51298222893e-07
6.5636741402e-05
6.51504378351e-07
6.5658192403e-05
4.381297028e-07
6.56701005372e-05
2.88827192773e-07
6.56761896973e-05
1.86094212588e-07
6.56788259374e-05
1.16618904351e-07
6.56794963207e-05
7.05081243374e-08
6.56791200717e-05
4.05502608248e-08
6.56782526426e-05
2.15777065437e-08
6.56772216989e-05
9.94795527061e-09
6.56762124244e-05
3.13414846314e-09
6.56753031173e-05
-6.09303917766e-10
6.56745344004e-05
-2.45879750579e-09
6.56739060223e-05
-3.16463862522e-09
6.56734071104e-05
-3.22734004893e-09
6.56730201999e-05
-2.95764607607e-09
6.56727263044e-05
-2.54361767155e-09
6.56725072584e-05
-2.09420912837e-09
6.56723469509e-05
-1.66804473499e-09
6.56722317114e-05
-1.29289580875e-09
6.5672149402e-05
-9.78383037414e-10
6.56720894075e-05
-7.2342011572e-10
6.56720459532e-05
-5.20487152597e-10
6.56720148072e-05
-3.61539976856e-10
6.56719898436e-05
-2.37396635344e-10
6.56719683828e-05
-1.44192641299e-10
6.56719535057e-05
-7.57506864991e-11
6.56719518415e-05
-2.76957222959e-11
6.56719503853e-05
7.99059462248e-12
6.56719431003e-05
4.44952155922e-11
6.56719331187e-05
6.94610469564e-11
6.56719206851e-05
8.95349743794e-11
6.56719066943e-05
1.07128124745e-10
6.56718911725e-05
1.23356098704e-10
6.56718739772e-05
1.3878227518e-10
6.56718550396e-05
1.53531840811e-10
6.56718348856e-05
1.66975556826e-10
6.56718155534e-05
1.77322995168e-10
6.5671795948e-05
1.86962140032e-10
6.56717765947e-05
1.92970508432e-10
6.56717586282e-05
1.92842743805e-10
6.56717439601e-05
1.83289219055e-10
6.56717363195e-05
1.59616779215e-10
6.56717431671e-05
1.15871229985e-10
6.56717497937e-05
5.00728893358e-11
6.56717817292e-05
-8.72788034772e-11
6.56718493561e-05
-3.44220703819e-10
6.567194693e-05
-7.24275220896e-10
6.56720964697e-05
-1.29864465232e-09
6.56723048191e-05
-2.164110767e-09
6.5672588502e-05
-3.44169052741e-09
6.56729640827e-05
-5.33844244376e-09
6.56734424403e-05
-8.1731251204e-09
6.56740211317e-05
-1.24321233708e-08
6.56746700123e-05
-1.8866397131e-08
6.56753034288e-05
-2.86403940698e-08
6.5675720254e-05
-4.35602346837e-08
6.56754927772e-05
-6.64504122419e-08
6.567375194e-05
-1.01737839676e-07
6.56687640119e-05
-1.56344083719e-07
6.56569947267e-05
-2.40903330974e-07
6.56313160669e-05
-3.71621177585e-07
6.55775789095e-05
-5.72382322464e-07
6.54685545893e-05
-8.762895013e-07
6.52550845565e-05
-1.32376115406e-06
6.48571397433e-05
-1.95191578585e-06
6.41622808603e-05
-2.77252777622e-06
-3.71512219132e-06
6.30803520197e-05
5.10850423005e-05
1.66764055034e-06
5.36118443765e-05
4.45458323121e-06
5.66873161818e-05
6.05635096978e-06
5.96894460751e-05
6.5231676196e-06
6.22997265658e-05
6.19218906309e-06
6.44136880106e-05
5.41801775176e-06
6.60471840391e-05
4.4763809671e-06
6.72686154804e-05
3.544018975e-06
6.81598944262e-05
2.71437420598e-06
6.87977609534e-05
2.02382780602e-06
6.92467452815e-05
1.47505550027e-06
6.9557964092e-05
1.05370281044e-06
6.97704307721e-05
7.38831421152e-07
6.99131738729e-05
5.08761157784e-07
7.00073850602e-05
3.43918397174e-07
7.00682947465e-05
2.27917389177e-07
7.01066969369e-05
1.47691906614e-07
7.01301394277e-05
9.31763000183e-08
7.01438287554e-05
5.68186871574e-08
7.01513050671e-05
3.30738449756e-08
7.01549377567e-05
1.79449181114e-08
7.01562857462e-05
8.59987056699e-09
7.01563578368e-05
3.06196488666e-09
7.01557659882e-05
-1.75463225783e-11
7.01549053037e-05
-1.59820037878e-09
7.01539818788e-05
-2.24129677974e-09
7.01531134262e-05
-2.35896304259e-09
7.01523536059e-05
-2.19789208925e-09
7.01517196241e-05
-1.90969198385e-09
7.01512086266e-05
-1.58325564434e-09
7.01508076854e-05
-1.2671386743e-09
7.01504998479e-05
-9.85086254391e-10
7.01502674775e-05
-7.46031320098e-10
7.015009441e-05
-5.50359850571e-10
7.01499676492e-05
-3.93723986408e-10
7.01498765437e-05
-2.70425627218e-10
7.01498139916e-05
-1.74829963921e-10
7.01497725356e-05
-1.02715360284e-10
7.01497441238e-05
-4.73141180381e-11
7.01497142932e-05
2.15585082493e-12
7.01496910248e-05
3.12737069328e-11
7.01496781092e-05
5.7416770484e-11
7.01496677202e-05
7.98519759213e-11
7.01496579317e-05
9.93216329549e-11
7.01496479897e-05
1.17066507395e-10
7.0149637516e-05
1.33823928242e-10
7.01496263762e-05
1.49913556576e-10
7.01496146036e-05
1.65290217992e-10
7.01496019957e-05
1.79561136614e-10
7.01495871768e-05
1.92109475482e-10
7.01495720835e-05
2.02008673634e-10
7.0149557527e-05
2.07465435445e-10
7.01495442724e-05
2.06028211482e-10
7.01495329126e-05
1.94581443936e-10
7.01495230315e-05
1.69453460606e-10
7.01495120172e-05
1.26838407421e-10
7.01495038516e-05
5.81827470018e-11
7.01494937222e-05
-7.71947485488e-11
7.01495033258e-05
-3.53862716912e-10
7.01495252807e-05
-7.4628462598e-10
7.01495473847e-05
-1.32086749164e-09
7.014954793e-05
-2.16483248418e-09
7.01495000357e-05
-3.39397817696e-09
7.0149350382e-05
-5.18898371635e-09
7.01489999113e-05
-7.82289684762e-09
7.01482733307e-05
-1.17058229165e-08
7.01468690414e-05
-1.74623676641e-08
7.01442753509e-05
-2.60468853185e-08
7.01396176929e-05
-3.89026885764e-08
7.01314146193e-05
-5.82474021975e-08
7.01171770603e-05
-8.75002417381e-08
7.00927505348e-05
-1.31917367253e-07
7.00510453777e-05
-1.99197902472e-07
6.99800890736e-05
-3.00664614971e-07
6.98599189808e-05
-4.5221184852e-07
6.96580964812e-05
-6.7446644565e-07
6.9324718346e-05
-9.90382524807e-07
6.87902520803e-05
-1.41744913235e-06
6.79721349029e-05
-1.95440996787e-06
-2.555300644e-06
6.68123139757e-05
5.08804131341e-05
7.87227340913e-07
5.31704660031e-05
2.16453022589e-06
5.62177494468e-05
3.00906740418e-06
5.94382693321e-05
3.30264761187e-06
6.24449690267e-05
3.18548924456e-06
6.50382523166e-05
2.82473433578e-06
6.71548657565e-05
2.35976740059e-06
6.88135641204e-05
1.88532048485e-06
7.00731699911e-05
1.45476820974e-06
7.10056668244e-05
1.09133084743e-06
7.16812629894e-05
7.99459210676e-07
7.21614222239e-05
5.73543452218e-07
7.24966030362e-05
4.03650486382e-07
7.27264794828e-05
2.78884590711e-07
7.28812782812e-05
1.89119479658e-07
7.29834679446e-05
1.25727607385e-07
7.30494116456e-05
8.17480890486e-08
7.30908136824e-05
5.17741493744e-08
7.31159075663e-05
3.1724693629e-08
7.31303920318e-05
1.85892748952e-08
7.31381467039e-05
1.01901460039e-08
7.31417670982e-05
4.97937946305e-09
7.31429547626e-05
1.87420606467e-09
7.31428083394e-05
1.28785688869e-10
7.31419850738e-05
-7.75022201088e-10
7.3140902138e-05
-1.15844139607e-09
7.31397872453e-05
-1.24414389212e-09
7.31387598048e-05
-1.17051427224e-09
7.31378722693e-05
-1.02221145845e-09
7.31371385498e-05
-8.49583043001e-10
7.3136551271e-05
-6.7989482104e-10
7.31360930424e-05
-5.26884893228e-10
7.31357429972e-05
-3.96003402649e-10
7.31354805073e-05
-2.87875987979e-10
7.31352872281e-05
-2.00442203762e-10
7.31351475282e-05
-1.30716634574e-10
7.31350481554e-05
-7.54407678464e-11
7.31349765926e-05
-3.11305702572e-11
7.31349234759e-05
5.82635628971e-12
7.31348937707e-05
3.18782517576e-11
7.31348707153e-05
5.4339544908e-11
7.31348539599e-05
7.41778398043e-11
7.31348416397e-05
9.21737509955e-11
7.31348319527e-05
1.09008441515e-10
7.31348236319e-05
1.25385909491e-10
7.31348157953e-05
1.4165781005e-10
7.31348078298e-05
1.57873533894e-10
7.31347993087e-05
1.73802046492e-10
7.31347899648e-05
1.88889486312e-10
7.31347797593e-05
2.02287268106e-10
7.31347687463e-05
2.12974854304e-10
7.31347569983e-05
2.1914858412e-10
7.31347446474e-05
2.18308173338e-10
7.31347319535e-05
2.07213894903e-10
7.313471948e-05
1.81867806209e-10
7.3134708335e-05
1.37924395089e-10
7.3134692921e-05
7.35204232842e-11
7.31346694794e-05
-5.37966482514e-11
7.31346274697e-05
-3.11894746132e-10
7.31345609395e-05
-6.79820757777e-10
7.31344461652e-05
-1.20621539961e-09
7.31342397991e-05
-1.95863693929e-09
7.31338737616e-05
-3.02814348767e-09
7.31332330577e-05
-4.54851690712e-09
7.31321246047e-05
-6.71472868865e-09
7.3130226426e-05
-9.80794149659e-09
7.31270112386e-05
-1.42474157733e-08
7.31216236849e-05
-2.06594627845e-08
7.31126503283e-05
-2.99293932846e-08
7.30977859605e-05
-4.33830548675e-08
7.30733232597e-05
-6.30374873446e-08
7.30333637727e-05
-9.19577139206e-08
7.29683915444e-05
-1.34225362966e-07
7.28633863449e-05
-1.95659041091e-07
7.26951778578e-05
-2.84002987549e-07
7.24292593452e-05
-4.08547471788e-07
7.20172588355e-05
-5.78381553803e-07
7.139796242e-05
-7.98152306322e-07
7.05057930641e-05
-1.06223996737e-06
-1.34559276904e-06
6.92960858647e-05
5.07871725422e-05
5.47239442836e-11
5.29516496822e-05
5.29499267555e-11
5.59606881839e-05
2.87805817343e-11
5.92633215166e-05
1.41559933183e-11
6.24488079313e-05
2.70546188242e-12
6.52735482947e-05
-6.15362705434e-12
6.76333276257e-05
-1.20559751835e-11
6.95186629835e-05
-1.49978777339e-11
7.09734464931e-05
-1.5424502287e-11
7.20647911503e-05
-1.39344967065e-11
7.28642613979e-05
-1.11614320904e-11
7.34378124871e-05
-7.76063442673e-12
7.38414672431e-05
-4.3917726019e-12
7.41203534132e-05
-1.69961679166e-12
7.43094730424e-05
-2.68438540768e-13
7.44352010388e-05
-5.07048702251e-13
7.45169516707e-05
-2.65903796219e-12
7.45687321888e-05
-6.48189581782e-12
7.46004681104e-05
-1.13367949496e-11
7.46190735237e-05
-1.62428297278e-11
7.46292836411e-05
-2.007185966e-11
7.46342846522e-05
-2.17291528938e-11
7.4636179513e-05
-2.07491695442e-11
7.46363266171e-05
-1.84085296427e-11
7.46355673903e-05
-1.58814822352e-11
7.46344216017e-05
-1.27317213895e-11
7.46331865162e-05
-9.13070717149e-12
7.46320210867e-05
-5.14952565304e-12
7.46309991115e-05
-2.89122469554e-13
7.46301456742e-05
3.80560365102e-12
7.46294572709e-05
8.47108430549e-12
7.46289169061e-05
1.34524566335e-11
7.46285021816e-05
1.87046103542e-11
7.4628190008e-05
2.42912617366e-11
7.46279591733e-05
3.03945780108e-11
7.46277913296e-05
3.71372284119e-11
7.46276713072e-05
4.45985353771e-11
7.46275874378e-05
5.27595932114e-11
7.46275316368e-05
6.16455071841e-11
7.46274926379e-05
7.08913565839e-11
7.46274665225e-05
8.04639155951e-11
7.46274494337e-05
9.12732182247e-11
7.46274383838e-05
1.03228173619e-10
7.46274311393e-05
1.1625501345e-10
7.4627426162e-05
1.303609857e-10
7.46274223837e-05
1.45429716339e-10
7.46274190566e-05
1.61192226558e-10
7.46274156447e-05
1.77204746268e-10
7.46274117224e-05
1.92799497281e-10
7.46274069329e-05
2.07051984696e-10
7.46274010884e-05
2.18773105336e-10
7.46273939746e-05
2.26198636654e-10
7.46273852424e-05
2.26975753057e-10
7.46273742345e-05
2.18165760097e-10
7.46273597663e-05
1.96270070659e-10
7.46273401087e-05
1.57514383531e-10
7.46273144757e-05
9.90965041084e-11
7.4627269448e-05
-8.80181393005e-12
7.46271814232e-05
-2.23909851455e-10
7.46270455651e-05
-5.44045405494e-10
7.46268226014e-05
-9.83397663036e-10
7.46264517604e-05
-1.58798815313e-09
7.46258366628e-05
-2.41327354664e-09
7.46248205273e-05
-3.53264588764e-09
7.46231482768e-05
-5.04277467614e-09
7.46204030611e-05
-7.06300647415e-09
7.46159187536e-05
-9.76330404384e-09
7.46086373583e-05
-1.33781637217e-08
7.45968214117e-05
-1.81134873848e-08
7.45776697933e-05
-2.42314424347e-08
7.45467665075e-05
-3.21341282889e-08
7.44973824911e-05
-4.25735262036e-08
7.44187788724e-05
-5.5621487563e-08
7.42945581328e-05
-7.14379248515e-08
7.41003414228e-05
-8.97859500435e-08
7.38013107052e-05
-1.09516373483e-07
7.33508008289e-05
-1.27871200882e-07
7.2692330351e-05
-1.39681268875e-07
7.17678515185e-05
-1.37760419042e-07
-1.13614747984e-07
7.05358741778e-05
5.0787171507e-05
-7.87116857238e-07
5.29516488273e-05