/*--------------------------------*- C++ -*----------------------------------*\
| =========                 |                                                 |
| \\      /  F ield         | OpenFOAM: The Open Source CFD Toolbox           |
|  \\    /   O peration     | Version:  2106                                  |
|   \\  /    A nd           | Website:  www.openfoam.com                      |
|    \\/     M anipulation  |                                                 |
\*---------------------------------------------------------------------------*/
FoamFile
{
    version     2.0;
    format      ascii;
    arch        "LSB;label=32;scalar=64";
    class       volScalarField;
    location    "0.49";
    object      p;
}
// * * * * * * * * * * * * * * * * * * * * * * * * * * * * * * * * * * * * * //

dimensions      [0 2 -2 0 0 0 0];

internalField   nonuniform List<scalar> 
11200
(
150.101227361
147.172624674
146.058771399
145.531436399
145.164101599
144.869316905
144.607665527
144.359118202
144.114589579
143.869509944
143.621182157
143.367851562
143.10828624
142.841550643
142.56687793
142.283594681
141.991075069
141.68871308
141.375909805
141.052076995
140.716590979
140.368802717
140.008053939
139.633676918
139.24498619
138.841280608
138.421844069
137.985946224
137.532843241
137.061778409
136.571982649
136.062675126
135.53306349
134.982343816
134.40970156
133.814312639
133.195343273
132.55195008
131.883280698
131.188473956
130.466660254
129.716961805
128.938492872
128.130359908
127.291661492
126.421487943
125.518920967
124.58303279
123.61288494
122.60752699
121.565994377
120.487305492
119.370458204
118.214424951
117.018146545
115.780524123
114.500409185
113.1765912
111.807781607
110.392594231
108.929520336
107.41689665
105.852866127
104.235328113
102.561872577
100.829694203
99.0354830053
97.1752784845
95.2442770621
93.2365639995
91.1447502545
88.9594759393
86.668541973
84.2557619203
81.6990498492
78.9667453071
76.0112477507
72.7599794065
69.0592087374
64.2959177
148.308185564
146.950010713
146.15903679
145.659018673
145.268025357
144.944136488
144.659607692
144.394996411
144.139498051
143.886964182
143.633567483
143.376794427
143.114908026
142.846631873
142.570965544
142.287074187
141.994220399
141.6917213
141.378918387
141.055149779
140.719765208
140.372089279
140.011478277
139.637264203
139.24875119
138.84523234
138.425988722
137.990288168
137.537385541
137.066523168
136.57693102
136.067826623
135.538415816
134.9878983
134.415461443
133.820281231
133.201523603
132.558345151
131.889893456
131.195307486
130.473717769
129.724246721
128.946008902
128.138111231
127.299652921
126.429725012
125.527410112
124.591781664
123.621902752
122.616824794
121.575585596
120.497206534
119.380689192
118.225010604
117.029117242
115.791917361
114.512271192
113.188979049
111.820765783
110.406262182
108.943981119
107.432286909
105.869355969
104.253125279
102.581227265
100.850921275
99.0589921985
97.2016025059
95.2741129544
93.2708388419
91.1847114185
89.0067741102
86.7254792994
84.3256907885
81.7870134743
79.080938969
76.1666688828
72.9863697309
69.4372529762
65.3244707321
147.312995401
146.658794225
146.106436078
145.668814545
145.297185694
144.975077659
144.685970161
144.415727256
144.155253832
143.898761035
143.642363874
143.383380721
143.119899582
142.850493538
142.574041524
142.289614905
141.996403993
141.693670178
141.380715097
141.056861839
140.721448309
140.373834879
140.013277735
139.639123261
139.250679494
138.847236971
138.428074469
137.992458749
137.539644352
137.068873822
136.579378035
136.070376925
135.541079465
134.990678298
134.41835563
133.823289968
133.204648357
132.561587866
131.893256913
131.19879528
130.477334345
129.727997462
128.949900337
128.142151204
127.303850863
126.434092258
125.531960335
124.596531372
123.626871967
122.622037777
121.581071822
120.503001981
119.386837778
118.23156596
117.036144791
115.799496947
114.520500332
113.197977146
111.83067909
110.41727028
108.956303625
107.446192057
105.885171481
104.271273576
102.602261308
100.875540349
99.0880687973
97.2362487625
95.3157661336
93.3213824566
91.2466481261
89.0835004276
86.8218444551
84.4487644398
81.9475397823
79.2963106328
76.46710416
73.428306464
70.1439419113
66.590993447
146.763234177
146.399852067
145.999951609
145.630957321
145.293335343
144.985226188
144.699854656
144.429141009
144.166757809
143.908078077
143.649683832
143.38904359
143.124257579
142.853858581
142.576670523
142.291710886
141.998123267
141.695131448
141.382008236
141.05805366
140.722576766
140.374887414
140.014344456
139.640224886
139.251818077
138.848416424
138.429298473
137.993729763
137.540963737
137.070241911
136.580793969
136.07183803
135.542581377
134.992222399
134.419951102
133.824941938
133.206363063
132.563372283
131.895117031
131.200737487
130.479365856
129.730126543
128.952136728
128.144506524
127.306339039
126.436730167
125.534768429
124.599534431
123.63010006
122.625527467
121.584867478
120.507157581
119.391419061
118.236653032
117.041835387
115.805910658
114.527783716
113.206310152
111.840282494
110.428415391
108.969327559
107.461520134
105.903333162
104.292906615
102.628139448
100.906633681
99.1256130696
97.2818264093
95.371420442
93.3897855454
91.3313647669
89.1894286658
86.9557457706
84.6202745036
82.1709261116
79.5936027956
76.8735597745
74.0010911065
70.9797961365
67.846855978
146.4291861
146.197389851
145.895975012
145.584994065
145.28014918
144.988118933
144.709134996
144.439999067
144.177027498
143.916930149
143.656946674
143.394839729
143.128816875
142.857429058
142.579479628
142.293951545
141.999952171
141.696672214
141.383356326
141.059281873
140.723743912
140.376046176
140.01549239
139.641372058
139.252988146
138.849624424
138.43055421
137.99504064
137.542335844
137.071680767
136.582305129
136.073427737
135.544256415
134.993987981
134.421808565
133.826894518
133.208411379
132.565517312
131.897363041
131.203089126
130.481830258
129.732713203
128.954857621
128.147376483
127.309376117
126.439956304
125.53821018
124.603223943
123.634076178
122.629837171
121.589568342
120.512319893
119.397128481
118.24301397
117.048974973
115.8139832
114.536975984
113.216849974
111.852446917
110.442547847
108.985849581
107.480940626
105.926283756
104.320184226
102.660747968
100.945833959
99.1729940385
97.3394067351
95.4417923114
93.4763168798
91.4384838475
89.323028716
87.1238432965
84.8340089152
82.4461050323
79.9531224214
77.350865119
74.6437749108
71.8532124084
69.029872842
146.225793361
146.049890525
145.808693389
145.541363834
145.26417162
144.987526594
144.715828613
144.449317115
144.186540519
143.925518768
143.664217037
143.40076836
143.13354734
142.861163197
142.582423049
142.296289189
142.001839501
141.698234548
141.384691561
141.060464682
140.724830491
140.377077142
140.0164953
139.64237532
139.254006748
138.850668936
138.431632546
137.996158686
137.543497983
137.072890124
136.583563876
136.074737181
135.545617346
134.995401266
134.423275759
133.828418137
133.209997014
132.567172323
131.89909543
131.204910734
130.483753848
129.734752259
128.957027683
128.149695865
127.31186645
126.442643742
125.541126491
124.606407692
123.637574361
122.63370734
121.593879915
120.517157054
119.402593376
118.249230691
117.056094788
115.822191871
114.546503497
113.227977148
111.865522489
110.457989029
109.004161392
107.50274713
105.95236279
104.351492346
102.698468343
100.991441253
99.2283401786
97.4068316414
95.5242755774
93.5776864756
91.5637083113
89.4786297131
87.3184844268
85.079331262
82.7578851608
80.3527945214
77.8671264817
75.3130349178
72.7174675771
70.1275205836
146.102676191
145.94706779
145.740763696
145.504198017
145.248717966
144.985432279
144.720811465
144.457293814
144.195150072
143.933552453
143.671167
143.406517296
143.138173624
142.864827532
142.585306835
142.298563954
142.003653932
141.699710856
141.385926691
141.061533451
140.725789285
140.377967804
140.017350225
139.643219078
139.254855631
138.851534274
138.432522822
137.997080178
137.544455496
137.073887566
136.584604799
136.075825086
135.546756056
134.99659529
134.424530814
133.829740841
133.211394385
132.568652144
131.900666374
131.206580786
130.485530921
129.736648083
128.959058537
128.151881972
127.314233025
126.445221297
125.543951918
124.609525641
123.641038994
122.637584203
121.598248707
120.522114831
119.40825839
118.25574702
117.063637699
115.830973271
114.556778269
113.240058152
111.879786386
110.47490387
109.024309097
107.526841958
105.9812733
104.386290404
102.740481637
101.042317726
99.2901344058
97.482118004
95.6162987596
93.6905623584
91.7026947546
89.65049015
87.5319691317
85.3457992228
83.0920486896
80.7734749191
78.3976265861
75.9801012747
73.5477722427
71.1399971432
146.028596006
145.878585123
145.691827348
145.475718626
145.236008028
144.983180984
144.724536746
144.463790064
144.202413479
143.940480645
143.677250787
143.411600525
143.142289447
142.86809637
142.587877791
142.300583859
142.005253048
141.700997971
141.386989029
141.062438988
140.726589832
140.378702247
140.018047336
139.643899587
139.255535439
138.852224281
138.433231192
137.997813018
137.545217511
137.074682716
136.585436642
136.076697181
135.547672095
134.997559216
134.425546707
133.830813259
133.212528705
132.569854192
131.901942954
131.207941588
130.486991656
129.7382269
128.960774304
128.15375711
127.316294552
126.447502013
125.5464917
124.612372911
123.644252639
122.641235886
121.602426047
120.526924174
119.413828845
118.262235411
117.071234976
115.839912575
114.567345986
113.252600472
111.894729633
110.49276377
109.045711921
107.552554584
106.012237539
104.423663243
102.785687874
101.09711573
99.3567013561
97.5631589125
95.7151869694
93.8115206235
91.8510278057
89.8328786819
87.7568278744
85.6236869614
83.4360695835
81.1995079517
78.9240375317
76.6262639919
74.3308641076
72.0698458225
145.986319047
145.836870606
145.660453005
145.456711726
145.227174861
144.981461102
144.727094442
144.468448048
144.207731885
143.945626983
143.681817515
143.415445629
143.14541989
142.870591745
142.589844464
142.302129852
142.006475856
141.701979867
141.387796486
141.06312408
140.727192443
140.379252362
140.01856724
139.644406569
139.256039223
138.85273471
138.433754996
137.998355157
137.545781979
137.075272957
136.586055879
136.077348607
135.548359118
134.998285616
134.426316816
133.831632242
133.21340281
132.570791382
131.902953496
131.209038076
130.488185495
129.739532977
128.962212575
128.15535195
127.318075379
126.449504438
125.548758855
124.614957157
123.647217625
122.644658969
121.606400789
120.531564233
119.419272471
118.268650573
117.078825831
115.848926651
114.578083077
113.265426965
111.910088921
110.511200133
109.0678894
107.579282749
106.044504859
104.462678151
102.832930114
101.15440006
99.4262572666
97.6477305374
95.8181568784
93.9370636933
92.0042962054
90.0202215052
87.9860346557
85.9042267968
83.7792436245
81.6183798655
79.4328849566
77.2391705863
75.0592786777
72.9193875348
145.967042005
145.817163387
145.645198473
145.447260054
145.222694654
144.980570304
144.728428632
144.470911865
144.210575527
143.948403798
143.684301443
143.417552784
143.147148294
142.871980564
142.590948979
142.30300733
142.007178572
141.70255226
141.388274621
141.063536332
140.72756062
140.379592922
140.018892394
139.644725221
139.256358992
138.853060415
138.434090539
137.998703769
137.546146452
137.07565597
136.58646011
136.077776935
135.548814781
134.998772404
134.426839228
133.832195745
133.214014035
132.571458259
131.903685246
131.209844923
130.489082487
129.74053755
128.963345365
128.156637831
127.319544504
126.451193534
125.550712431
124.617229287
123.649874024
122.647779459
121.610082367
120.535924684
119.424454762
118.274828232
117.086209618
115.857773168
114.588704418
113.278200958
111.925475957
110.529759953
109.090301146
107.60637293
106.077279058
104.502361319
102.881013874
101.212702459
99.4969942202
97.7336024792
95.9224525469
94.063782374
92.1582838445
90.207326853
88.2132510721
86.179809393
84.1127097718
82.0202959122
79.9142899592
77.810446228
75.7284538001
73.6902352804
145.967044031
145.817178892
145.645224931
145.447295731
145.222738764
144.980622065
144.728487103
144.470976215
144.210645074
143.948477981
143.684379796
143.417634934
143.147233964
142.872069551
142.591041154
142.30310267
142.007277084
141.702654019
141.388379751
141.063644998
140.727673049
140.379709405
140.01901332
139.644851077
139.256490455
138.85319825
138.434235641
137.998857298
137.546309778
137.07583065
136.586648174
136.077980856
135.549037555
134.999017629
134.427111259
133.832499854
133.214356595
132.571846966
131.904129607
131.210357025
130.489676407
129.741230347
128.964157848
128.157595297
127.32067754
126.452539262
125.552315997
124.619145545
123.652169607
122.650535254
121.613396612
120.539916586
119.429268927
118.280640243
117.093232199
115.8662647
114.598978084
113.290636413
111.94053392
110.548001698
109.112405184
107.633162779
106.109753305
104.541730777
102.928744973
101.270568922
99.5671356393
97.8185942361
96.0253901952
94.1883732556
92.3089709501
90.3894868796
88.4330361646
86.4442386686
84.4296089665
82.3980479159
80.3613415557
78.3345065095
76.3354445414
74.3832477933
145.986325257
145.836917563
145.66053304
145.456819585
145.227308189
144.981617185
144.727270524
144.468641678
144.207941016
143.945849913
143.682052848
143.415692296
143.145677054
142.870858814
142.590121078
142.302415895
142.006771386
141.702285121
141.388111821
141.063449991
140.727529605
140.379601631
140.01892974
139.644783832
139.256433212
138.85314763
138.434189489
137.998814573
137.546270287
137.075795102
136.586617896
136.07795779
135.549024296
134.999017479
134.427128373
133.832539364
133.214424734
132.571951475
131.904279882
131.210564554
130.489955124
129.741597133
128.964633213
128.158204129
127.321450057
126.453512098
125.553533648
124.620662209
123.654051108
122.652861415
121.616264262
120.543443229
119.433596955
118.285942505
117.099718064
115.87418821
114.608647477
113.302425455
111.954894284
110.565477815
109.133661715
107.658999632
106.141135592
104.57982151
102.974942594
101.326554624
99.6349422714
97.9006918289
96.1246928992
94.3083198001
92.4535510071
90.5630684163
88.6408471249
86.6921468922
84.7239596688
82.7454365168
80.7682509077
78.8068064858
76.8778190586
74.9987276863
146.028606768
145.878664828
145.691962766
145.475900632
145.236232477
144.983443194
144.724832012
144.464114278
144.202763247
143.940853148
143.67764374
143.412012149
143.142718351
142.868541608
142.588338813
142.301060473
142.005745373
141.701506401
141.387514156
141.062981635
140.727151124
140.379283621
140.018650579
139.644527323
139.25619049
138.852910393
138.433952816
137.998575667
137.546027772
137.075548673
136.586368158
136.077706172
135.548773006
134.998769487
134.42688746
133.832310352
133.2142136
132.571765584
131.904128284
131.210458271
130.489907523
129.741624372
128.964754921
128.158444237
127.32183759
126.454082324
125.55432946
124.621735794
123.655465846
122.654694137
121.618608105
120.54641114
119.437325881
118.290598323
117.105501824
115.881343294
114.617468657
113.313269882
111.968192676
110.581750905
109.153535033
107.683231933
106.170641511
104.615703572
103.01853212
101.379442377
99.6989893461
97.9780305606
96.2178855187
94.4203695824
92.5879378358
90.7238518977
88.8324205069
86.9192446121
84.991543662
83.058487531
81.1315170462
79.2245778962
77.3538009917
75.5360990782
146.102692099
145.947182623
145.740957776
145.504457747
145.249037091
144.98580394
144.721228856
144.457751133
144.19564257
143.934076237
143.671718925
143.407094883
143.138775029
142.865451448
142.585952538
142.299231188
142.004342854
141.700422013
141.386660871
141.062291758
140.726573231
140.378779405
140.018192086
139.644094561
139.255768718
138.852490036
138.433527441
137.998141108
137.545581738
137.075090198
136.58589734
136.077223994
135.548281238
134.998270674
134.426385063
133.831808685
133.213718144
132.571283166
131.903667313
131.210029026
130.489522458
129.741298685
128.964506977
128.158296282
127.321816814
126.454221772
125.554669355
124.622324969
123.656363595
122.655972358
121.62035405
120.548730346
119.440346497
118.294475379
117.110423238
115.887536484
114.625208521
113.32288902
111.980093861
110.596417984
109.171552253
107.705300467
106.197601617
104.648555748
103.058455248
101.427838165
99.7575394541
98.0487427202
96.3030592278
94.5226305785
92.7102552933
90.8695328504
89.0050449853
87.1225648387
85.2293222448
83.3342996031
81.4485761022
79.5857206691
77.7617423956
75.9940489163
146.225815325
146.050044436
145.808951553
145.541707267
145.264591475
144.988013474
144.716373493
144.449912476
144.187180266
143.926197986
143.664931772
143.401515516
143.13432465
142.861969081
142.583256599
142.297150078
142.002727918
141.699151041
141.385636931
141.061439989
140.725837039
140.378116806
140.017572487
139.643495784
139.255175036
138.851890781
138.432915354
137.997511477
137.544931786
137.074418545
136.585203718
136.076509018
135.547546321
134.997518017
134.425617645
133.831030418
133.212933911
132.570499017
131.902890649
131.209268906
130.488790062
129.740607646
128.963873943
128.157741485
127.32136493
126.453902921
125.55452015
124.62238976
123.656696209
122.656638007
121.621431953
120.550316187
119.442556193
118.297449329
117.114331306
115.892583994
114.631643665
113.331011246
111.990264744
110.609072942
109.187214063
107.724594542
106.221275532
104.67750367
103.093746279
101.470731718
99.8095030133
98.1114814608
96.3785416962
94.6130968593
92.8182019461
90.9976742368
89.1562368841
87.2996806306
85.4350671144
83.5709888048
81.7179596904
79.8890605882
78.1003211596
76.3704137753
146.429215038
146.197587896
145.896303946
145.585428382
145.280676744
144.988727401
144.709812969
144.440737309
144.177818625
143.917768294
143.657827209
143.395759076
143.129772451
142.858419161
142.580503331
142.295008712
142.001043204
141.697797901
141.384517547
141.060479682
140.724979865
140.377321347
140.01680875
139.642742907
139.254417303
138.851117638
138.432119614
137.996688453
137.544078593
137.073533603
136.58428646
136.075559728
135.546565914
134.996508245
134.424581053
133.829970437
133.21185499
132.569406747
131.901791891
131.208171724
130.487704019
129.739544379
128.962847582
128.156769372
127.320468298
126.453107787
125.55385832
124.62189993
123.656425367
122.656643073
121.621782154
120.55109533
119.44386572
118.299412297
117.117096699
115.896331616
114.636589897
113.337416475
111.998442742
110.619400131
109.200142328
107.740665534
106.241135889
104.701921246
103.12362824
101.507146437
99.8536993863
98.1649032903
96.4428363948
94.6901166781
92.9099855549
91.1064018109
89.2841388776
87.4488933939
85.607417618
83.7677053687
81.9393777515
80.1345897811
78.3688566888
76.6620328942
146.76327025
146.400098068
146.000353966
145.631483037
145.29396833
144.985950657
144.700656723
144.430009754
144.167684669
143.909056334
143.650708288
143.390110319
143.125363847
142.855002731
142.577851979
142.292930143
141.999381932
141.696432066
141.383353837
141.05944813
140.724029195
140.376413404
140.015916768
139.641846688
139.253503149
138.850176058
138.431144197
137.995675064
137.543024634
137.07243756
136.583147612
136.074377956
135.545341702
134.995242441
134.423274955
133.828626006
133.210475075
132.567995251
131.900353971
131.206714159
130.486235401
129.738074841
128.961389462
128.155337697
127.319081229
126.451787279
125.55263105
124.620798251
123.655488498
122.655918706
121.621327557
120.55098007
119.444173595
118.300244542
117.118575763
115.898605251
114.639837482
113.341855125
112.004333132
110.627055376
109.209937149
107.753047276
106.256636772
104.721172118
103.147372718
101.536255235
99.8891843487
98.2079297712
96.4947291403
94.7523547567
92.9841821167
91.194258342
89.3873597489
87.56903706
85.7456552827
83.9244319376
82.1136696795
80.3237504942
78.5678901856
76.8647419738
147.313043504
146.659102376
146.106921902
145.669437041
145.297925055
144.975914812
144.686889028
144.41671544
144.156301727
143.899861107
143.643510291
143.384568971
143.121126303
142.851756341
142.575338922
142.290946353
141.997770236
141.695074039
141.382161759
141.05835784
140.722994152
140.375400372
140.014897626
139.640805819
139.252429633
138.8490622
138.429984859
137.994466924
137.541765907
137.071127426
136.581785996
136.072965367
135.543879249
134.993731833
134.421718416
133.827025898
133.208832761
132.566313596
131.898636604
131.204965125
130.484459536
129.736278992
128.959582393
128.153530337
127.317287103
126.450023021
125.550917063
124.619159378
123.653954652
122.654525979
121.620120205
120.550012195
119.443510839
118.299965882
117.118776547
115.899401072
114.641365604
113.344280978
112.007855554
110.631913366
109.216416258
107.761488179
106.267445486
104.734829943
103.164446727
101.55740984
99.9151911854
98.2396740755
96.533211753
94.7986897299
93.0395819807
91.2599980711
89.4647115093
87.659150811
85.8493335163
84.041648184
82.2427560271
80.4602171207
78.701146443
76.9742411637
148.308281152
146.950464299
146.159715027
145.659868574
145.26902369
144.945262396
144.660844253
144.396330695
144.140920041
143.888466033
143.63514299
143.378438573
143.116616633
142.848401211
142.572791952
142.288953686
141.996148115
141.693690647
141.380923951
141.057199345
140.72185727
140.374248243
140.013720293
139.63959028
139.251166584
138.847745691
138.428610578
137.99302954
137.540261812
137.069554541
136.580142765
136.071250638
135.542092121
134.991871715
134.41978508
133.825020057
133.206758337
132.564172971
131.896432357
131.202700842
130.482139768
129.733908891
128.957168141
128.151079516
127.314809078
126.447529282
125.548421487
124.616679019
123.651510138
122.652142855
121.617828801
120.547849165
119.441520763
118.298202719
117.117304918
115.898299775
114.640730782
113.344227139
112.008519819
110.633460403
109.219042954
107.765429205
106.272978849
104.742283478
103.174205292
101.569921477
99.930973389
98.2593189322
96.5573847216
94.8281441486
93.0751462649
91.3025589363
89.5151871818
87.7184482701
85.9182394941
84.1204279353
82.3305436086
80.5533499615
78.7836507933
76.9919451931
150.101389656
147.173290652
146.059760138
145.532685547
145.165580863
144.871001594
144.609537122
144.361163267
144.116798382
143.871875645
143.623700201
143.370519375
143.111103115
142.844517834
142.569998736
142.286874503
141.994521318
141.692334466
141.379711348
141.05604438
140.720728068
140.373122724
140.012559524
139.63837334
139.249882084
138.846386635
138.427173278
137.991517186
137.538676071
137.067895612
136.57841089
136.069446253
135.540215745
134.989923874
134.417766349
133.822930679
133.204597342
132.561940582
131.894129273
131.200328137
130.479698888
129.731401932
128.954597896
128.148449604
127.312124141
126.44479507
125.545644909
124.613868643
123.648676426
122.649298639
121.614989751
120.545033839
119.438752037
118.295508775
117.114719113
115.895861845
114.638488463
113.342237879
112.006852694
110.632198567
109.218285314
107.765293835
106.273606896
104.743842172
103.176892421
101.573970356
99.9366568224
98.2669589365
96.5673745048
94.8409080247
93.0911652542
91.3223831171
89.5394509201
87.7478872236
85.9537380862
84.1635005257
82.3835956649
80.6188067887
78.848674836
76.9487532308
56.9018849179
53.3497696458
50.9583521843
49.0009537645
47.3289300695
45.8721056461
44.5864939489
43.4423877711
42.4181145894
41.4969288906
40.6654267574
39.9126048818
39.2292633526
38.6076055528
38.0409538892
37.5235412287
37.050352476
36.61699994
36.2196269866
35.854829597
35.5195901923
35.2112253833
34.9273418808
34.6657989617
34.4246759369
34.2022446496
33.9969481836
33.8073798608
33.6322652339
33.4704479254
33.3208751782
33.1825869162
33.0547077273
32.9364369092
32.8270387672
32.7258392218
32.6322192909
32.5456066956
32.4654739024
32.3913347719
32.3227374057
32.2592631802
32.2005234322
32.146154575
32.0958164883
32.0491870126
32.0059656596
31.9659388119
31.9290864599
31.8950645517
31.8636155434
31.8344901171
31.8075045736
31.7824802952
31.7592616204
31.7377207675
31.7177207087
31.6991357336
31.6818471829
31.6657530469
31.6507566135
31.636774478
31.6237120812
31.6114853
31.6000212718
31.5892525709
31.5791156778
31.5695550321
31.5605190059
31.5519584834
31.5438300956
31.5360934215
31.5287094963
31.5216458284
31.5148699552
31.5083541199
31.5020735275
31.4960045232
31.4901264599
31.4844188516
31.4788668723
31.4734611586
31.4681807686
31.4630078294
31.4579352079
31.4529505375
31.4480443317
31.4432083771
31.4384449647
31.4337417804
31.429079542
31.4244501065
31.4198498559
31.4152745445
31.4107175428
31.4061706621
31.4016282341
31.3970876656
31.3925463342
31.3880010929
31.3834469034
31.3788783954
31.374292667
31.3696890733
31.3650650057
31.3604152522
31.3557350996
31.3510216972
31.3462739776
31.3414914462
31.3366714315
31.3318095941
31.326903698
31.3219534295
31.3169577393
31.3119139394
31.3068205065
31.3016774911
31.2964852896
31.2912432763
31.285950277
31.2806056684
31.275210473
31.2697598845
31.264230299
31.2585728478
31.2529602926
31.2478767389
31.2427553039
31.2375664817
31.2324259357
31.2274172366
31.2225914119
31.2180028932
31.2137125145
31.209779341
31.2062521836
31.2031705594
31.2005297276
31.1983343464
31.1966588494
31.1952721573
31.1940143066
31.1922991149
31.1884752609
31.1783428951
31.1518380791
31.0873083372
30.9434954842
30.6498583448
30.1011804252
29.1646799146
27.7077677272
25.6377520997
22.9286280413
19.6364874324
15.8798406296
11.6268564125
6.60231778522
1.57011320803
60.0832390278
56.0304371048
53.3184711175
51.1661315642
49.3641964871
47.8142540056
46.4580893371
45.2584677926
44.1892146446
43.2306980708
42.3675804878
41.5875223593
40.8803698963
40.2376335193
39.6521278121
39.117702179
38.6290470814
38.1815530098
37.7711868516
37.3944046286
37.0480772043
36.7294302905
36.4359943563
36.1655650186
35.9161683023
35.6860272786
35.4735453244
35.2772786994
35.0959201375
34.9282836405
34.7732888012
34.6299512605
34.4973733032
34.3747308265
34.2612697622
34.1562991313
34.0591793566
33.9693242494
33.8861938763
33.8092869642
33.7381412006
33.6723312523
33.6114619298
33.555168328
33.5031182129
33.4550009616
33.4105331053
33.3694260897
33.3313114819
33.2960550548
33.2634031908
33.2331740548
33.2051846469
33.1792657276
33.1552516883
33.1329853606
33.1123264008
33.0931445275
33.0753149304
33.0587269852
33.0432735279
33.0288553629
33.0153899172
33.0027976242
32.9910028992
32.9799342776
32.9695279655
32.959725477
32.9504733264
32.9417178092
32.9334176482
32.9255270677
32.9180052934
32.910820821
32.9039364538
32.8973261114
32.890961257
32.8848191826
32.8788804538
32.8731196554
32.8675185326
32.8620515737
32.8567018264
32.8514663781
32.8463272415
32.8412751389
32.8363052018
32.8314011123
32.8265495811
32.8217395971
32.816970042
32.8122337987
32.8075297133
32.8028531442
32.7981967753
32.7935531215
32.7889159976
32.7842834343
32.7796517454
32.7750185529
32.7703795008
32.7657270579
32.7610604357
32.7563782967
32.7516775055
32.7469528067
32.7421991311
32.7374139074
32.7325963579
32.7277455402
32.7228584473
32.717930291
32.7129591722
32.7079449023
32.7028857053
32.6977796146
32.6926248554
32.6874220193
32.682172772
32.6768768233
32.6715344243
32.6661480187
32.6607250216
32.6552724378
32.6498026925
32.6443400124
32.6389192977
32.6334991211
32.6279708125
32.6227858578
32.6176760132
32.6127254649
32.6080146181
32.6036041375
32.5995646136
32.5959701675
32.5928866662
32.5903720163
32.5883922794
32.5871220217
32.5864022492
32.5861475854
32.5860523841
32.5853097824
32.5817441345
32.5701718318
32.5385415227
32.4619413813
32.294146142
31.9582899332
31.3430443491
30.3126373015
28.7375864525
26.5350226505
23.6908215454
20.2655769435
16.375795404
12.0049046474
6.89145654588
1.70366865391
62.2906661412
58.3572415703
55.4901077692
53.2061920227
51.3042350738
49.6777566767
48.2617235329
47.0141203915
45.9055252922
44.9140787703
44.0228851972
43.2184965263
42.4899581511
41.8281923138
41.2255765668
40.6756327131
40.1728023932
39.7122838031
39.2898952479
38.9019755197
38.5453004766
38.2170194801
37.9146002435
37.6357848058
37.3785538035
37.1410914388
36.9217663098
36.7191040517
36.5317690469
36.3585496401
36.1983420475
36.050140845
35.9130280794
35.7861599778
35.6687650459
35.5601359157
35.459616616
35.3666061712
35.2805502344
35.20093382
35.1272821785
35.0591553479
34.9961453972
34.9378744581
34.8839920441
34.8341684521
34.7881035467
34.7455264431
34.7061677936
34.6696363232
34.6358010777
34.6045039291
34.5755506021
34.5487502076
34.5239301119
34.500929727
34.4796022498
34.459813606
34.4414335725
34.4243466841
34.4084463716
34.3936245275
34.3797933292
34.3668677968
34.3547690009
34.3434233345
34.332764477
34.3227300277
34.313267072
34.3043186211
34.2958401453
34.2877882093
34.2801174867
34.2727971944
34.2657856236
34.2590577867
34.2525859918
34.2463414329
34.2402986195
34.234438488
34.2287466653
34.2232076055
34.2177981779
34.2125100863
34.2073253623
34.2022319725
34.1972234406
34.1922879699
34.1874125679
34.182586253
34.1778048427
34.1730570535
34.1683404015
34.1636508394
34.1589804045
34.1543208217
34.1496667775
34.1450171094
34.140366811
34.1357120052
34.1310493359
34.1263728014
34.1216807773
34.1169707642
34.1122393035
34.1074811522
34.1026918557
34.0978701645
34.093014923
34.0881235056
34.0831931423
34.0782201793
34.0732027146
34.0681400201
34.0630305884
34.057872697
34.0526654572
34.0474092838
34.0421059758
34.0367559752
34.0313609597
34.0259251712
34.0204565818
34.0149646055
34.0094648847
34.0039750529
33.9984965233
33.9930705567
33.9877948796
33.9824821105
33.9773208277
33.972356776
33.9677152149
33.9634510087
33.959628542
33.9563340257
33.953655684
33.9516844046
33.9503838933
33.9497663452
33.94991621
33.9506210527
33.9514724934
33.9514033461
33.9476627467
33.9340235236
33.8964209125
33.8066767932
33.6138044276
33.2350988221
32.5539590671
31.4325781767
29.7450310865
27.4175560261
24.4461478463
20.8940856335
16.8745606006
12.3854994675
7.18021354538
1.8350159255
64.0948387456
60.3701423559
57.4661701011
55.1110023138
53.1409154246
51.4565678239
49.9927955645
48.7057172951
47.5640860603
46.5445782195
45.6291808369
44.8036089959
44.0562852639
43.3776661331