/*--------------------------------*- C++ -*----------------------------------*\
| =========                 |                                                 |
| \\      /  F ield         | OpenFOAM: The Open Source CFD Toolbox           |
|  \\    /   O peration     | Version:  2106                                  |
|   \\  /    A nd           | Website:  www.openfoam.com                      |
|    \\/     M anipulation  |                                                 |
\*---------------------------------------------------------------------------*/
FoamFile
{
    version     2.0;
    format      ascii;
    arch        "LSB;label=32;scalar=64";
    class       volScalarField;
    location    "0.08";
    object      p;
}
// * * * * * * * * * * * * * * * * * * * * * * * * * * * * * * * * * * * * * //

dimensions      [0 2 -2 0 0 0 0];

internalField   nonuniform List<scalar> 
9600
(
2.22745007489
-0.670560584264
-1.57479133431
-1.96040093976
-2.17973053825
-2.31966947091
-2.42356866249
-2.51110972057
-2.59059736132
-2.66597285988
-2.73932962002
-2.81181924219
-2.88407259747
-2.95642228985
-3.02902667391
-3.10194362528
-3.17517524961
-3.24869491573
-3.32246348268
-3.39643825284
-3.47058153644
-3.54485567502
-3.61923055933
-3.69368095506
-3.76818611726
-3.84272952729
-3.91729822287
-3.9918820259
-4.0664730411
-4.14106501943
-4.21565297915
-4.29023312827
-4.36480247872
-4.43935848131
-4.51389900142
-4.58842213427
-4.66292592512
-4.7374084442
-4.81186779792
-4.88630192436
-4.96070854573
-5.03508533385
-5.10942968476
-5.18373884696
-5.25800991367
-5.33223952158
-5.40642408583
-5.48055998257
-5.5546430999
-5.62866885106
-5.70263262935
-5.77652940138
-5.85035355757
-5.92409938837
-5.99776081658
-6.07133102908
-6.14480286893
-6.21816876909
-6.29142049691
-6.36454942207
-6.43754631961
-6.51040110829
-6.58310332233
-6.65564191421
-6.728004714
-6.80017907972
-6.87215192343
-6.94390873592
-7.01543414561
-7.08671251628
-7.15772687482
-7.22845897721
-7.2988902233
-7.36900077238
-7.43876909701
-7.50817294853
-7.57718899251
-7.64579239716
-7.71395748362
-7.7816570132
-7.84886182824
-7.91554207098
-7.9816664297
-8.04720121174
-8.11211196691
-8.1763631551
-8.23991636823
-8.3027318273
-8.36476896491
-8.42598434387
-8.48633264698
-8.54576805409
-8.60424226639
-8.66170443352
-8.71810251518
-8.77338218483
-8.82748702866
-8.88035957324
-8.9319396247
-8.9821645753
-9.0309710346
-9.07829278224
-9.1240606826
-9.16820524447
-9.21065515341
-9.25133583937
-9.29017137738
-9.32708426035
-9.36199400409
-9.39481901618
-9.42547691294
-9.453882445
-9.47994864879
-9.50358743729
-9.52470865738
-9.54322122877
-9.55903275932
-9.57204893547
-9.58217471951
-9.58931455663
-9.59337127688
-9.59424620187
-9.59184075334
-9.58605569652
-9.57679159573
-9.56394793803
-9.54742283648
-9.52711519788
-9.5029238127
-9.47474639937
-9.4424810205
-9.40602473301
-9.36527521015
-9.32012959957
-9.2704831625
-9.21623134537
-9.15726788223
-9.09348427366
-9.02476879471
-8.9510071413
-8.87208060075
-8.7878613436
-8.69821488673
-8.60299604039
-8.50204271917
-8.39517424206
-8.282184541
-8.16283164221
-8.03682772545
-7.90382151065
-7.76336890235
-7.614895461
-7.45762080751
-7.29043484028
-7.11167861335
-6.91881344817
-6.70793332562
-6.47302839703
-6.21416220313
-6.00192332815
0.315909422868
-0.86644564224
-1.47511932306
-1.82914272572
-2.07175816327
-2.24231870559
-2.37038625162
-2.47488298957
-2.56595049126
-2.64921869558
-2.72797960437
-2.80418331495
-2.87898999842
-2.95308922026
-3.02688444571
-3.10060394595
-3.17436922774
-3.24823755445
-3.32222881435
-3.39634255642
-3.47056620158
-3.54488455976
-3.61928054511
-3.69373780315
-3.76824164606
-3.84277951562
-3.91734096057
-3.99191723772
-4.06650120891
-4.14108708169
-4.21567005635
-4.29024634258
-4.36481292246
-4.43936708481
-4.51390641051
-4.58842884433
-4.66293238352
-4.73741500177
-4.81187473466
-4.88630939191
-4.9607165723
-5.03509404201
-5.10943917621
-5.18374912919
-5.25802105618
-5.33225170571
-5.40643737536
-5.48057436872
-5.55465870937
-5.62868575885
-5.7026508482
-5.77654908988
-5.85037489233
-5.92412238576
-5.99778554899
-6.07135767541
-6.14483157961
-6.21819973134
-6.29145387455
-6.36458528273
-6.43758482569
-6.51044243927
-6.58314755394
-6.65568933097
-6.72805569968
-6.80023366375
-6.87221015803
-6.94397103314
-7.01550077176
-7.0867836116
-7.15780286663
-7.22854017374
-7.29897664804
-7.36909267549
-7.4388668719
-7.50827694278
-7.57729973048
-7.64591024683
-7.71408250981
-7.78178955431
-7.84900233347
-7.91569081391
-7.98182401848
-8.04736823495
-8.11228844429
-8.17654947534
-8.24011339268
-8.30293977462
-8.36498800046
-8.42621534974
-8.48657619138
-8.54602422447
-8.60451152193
-8.66198738953
-8.71839981475
-8.77369460229
-8.82781485763
-8.88070302464
-8.93229950866
-8.9825413533
-9.03136486616
-9.07870467357
-9.12449162529
-9.1686554208
-9.21112491042
-9.25182568425
-9.29068148361
-9.32761532449
-9.36254711961
-9.39539441721
-9.42607451092
-9.45450261528
-9.48059171977
-9.50425381118
-9.52539881161
-9.54393554608
-9.55977179851
-9.57281325736
-9.58296443139
-9.59012964109
-9.59421232917
-9.59511411252
-9.59273629831
-9.58697931571
-9.57774217416
-9.56492537798
-9.54842811175
-9.52814940015
-9.5039886851
-9.47584416263
-9.44361472196
-9.40719831271
-9.36649335527
-9.32139854751
-9.27181059712
-9.21762677674
-9.1587433623
-9.09505522794
-9.02645418518
-8.95282978588
-8.87407023797
-8.79005545985
-8.70065947926
-8.60574991361
-8.50518059424
-8.39879056704
-8.28640122681
-8.16780748064
-8.04277089205
-7.91101126259
-7.7721889744
-7.62589138929
-7.47160549461
-7.30869274255
-7.13637873976
-6.95383527517
-6.76050533838
-6.55601645664
-6.34128907757
-6.14144471823
-0.659932957087
-1.14130124315
-1.53255989516
-1.8241752066
-2.0457482289
-2.21368251349
-2.34578145663
-2.45556611096
-2.55141924927
-2.6385566793
-2.7202901977
-2.79871493218
-2.87515181648
-2.95043156995
-3.02507169888
-3.09938892309
-3.17357187061
-3.24772807875
-3.32191459151
-3.39615799287
-3.4704663865
-3.54483803124
-3.61926616236
-3.69374158833
-3.76825463755
-3.84279618806
-3.91735811857
-3.9919331822
-4.06651511718
-4.14109872886
-4.2156795996
-4.29025405797
-4.36481916045
-4.43937227818
-4.51391092899
-4.58843293508
-4.66293622426
-4.7374186574
-4.81187821622
-4.88631283374
-4.96072027196
-5.03509805063
-5.10944358652
-5.18375393787
-5.25802618862
-5.33225722008
-5.40644335476
-5.48058081143
-5.55466567328
-5.62869339478
-5.70265912424
-5.77655799033
-5.85038455237
-5.92413285589
-5.99779681799
-6.07136980077
-6.14484459862
-6.21821371695
-6.29146894491
-6.36460144802
-6.43760214013
-6.5104610823
-6.58316753996
-6.65571067004
-6.72807866011
-6.80025834976
-6.87223646079
-6.94399913368
-7.01553090489
-7.08681572561
-7.15783710085
-7.22857684431
-7.29901576868
-7.36913424526
-7.4389110656
-7.50832384813
-7.57734956723
-7.6459633208
-7.71413881769
-7.78184921901
-7.84906570955
-7.91575785788
-7.98189477426
-8.0474432616
-8.11236788128
-8.17663315694
-8.24020172571
-8.30303303604
-8.36508604532
-8.4263185827
-8.4866851676
-8.54613893831
-8.6046320379
-8.66211390087
-8.71853239788
-8.77383371893
-8.82796092028
-8.8808559514
-8.9324595991
-8.98270890634
-9.03153949979
-9.07888645931
-9.12468126708
-9.16885310531
-9.21133068381
-9.25203990444
-9.29090406697
-9.32784615688
-9.36278682929
-9.39564363183
-9.42633361909
-9.45477203179
-9.48087176846
-9.50454479085
-9.52570119817
-9.54424955035
-9.56009772476
-9.57315197775
-9.5833167659
-9.59049589842
-9.59459305224
-9.59551017179
-9.593148504
-9.58740907354
-9.57819191228
-9.56539758078
-9.54892512813
-9.52867327224
-9.50454195713
-9.47642984531
-9.44423646094
-9.40786082533
-9.36720186305
-9.32215963052
-9.27263263358
-9.21851951743
-9.15971850101
-9.09612795857
-9.02764406065
-8.95415982989
-8.87556889601
-8.79175930621
-8.70261349653
-8.60801004484
-8.50781843808
-8.40189676718
-8.2900909545
-8.1722301082
-8.04812049177
-7.91754491054
-7.78025382516
-7.6359654238
-7.484367171
-7.32513062029
-7.15796767849
-6.9827727041
-6.79998845373
-6.61082024032
-6.41720880709
-6.22895264937
-1.21139386552
-1.39773984511
-1.64018743722
-1.86265497793
-2.04984541739
-2.20387253588
-2.33230829919
-2.44259652128
-2.5403876506
-2.62974288839
-2.71350798663
-2.79362775126
-2.87141015149
-2.9477251616
-3.02314438109
-3.09803769069
-3.17264010177
-3.2470973234
-3.32149669663
-3.39588810238
-3.47029767527
-3.54473763295
-3.61921023546
-3.69371391779
-3.76824424958
-3.84279574709
-3.91736285978
-3.99194017773
-4.06652264245
-4.14110586824
-4.21568599249
-4.29025957972
-4.36482378462
-4.43937614007
-4.5139142429
-4.58843586187
-4.66293890349
-4.73742120471
-4.81188069233
-4.88631531533
-4.96072277232
-5.03510068317
-5.10944645178
-5.18375710227
-5.2580295842
-5.33226084755
-5.40644731061
-5.48058505651
-5.55467016535
-5.62869822604
-5.70266427574
-5.77656343949
-5.85039040194
-5.92413923085
-5.9978037414
-6.07137733306
-6.14485273609
-6.21822241022
-6.29147828284
-6.36461147023
-6.43761282423
-6.51047260776
-6.58317998569
-6.65572385004
-6.7280926679
-6.8002734561
-6.87225260126
-6.94401632954
-7.0155493867
-7.08683542485
-7.15785790709
-7.22859899983
-7.29903944228
-7.36915946863
-7.43893799572
-7.50835247479
-7.57737981077
-7.64599538209
-7.71417281157
-7.7818852203
-7.84910407202
-7.91579857442
-7.98193755241
-8.04748847046
-8.11241592654
-8.1766837685
-8.2402549802
-8.30308941427
-8.36514546477
-8.42638097435
-8.48675092305
-8.5462082302
-8.60470498459
-8.66219071823
-8.71861296288
-8.77391815904
-8.82804974506
-8.88094913885
-8.93255724237
-8.9828118219
-9.03164773688
-9.07899963957
-9.12479989171
-9.16897755728
-9.21146092385
-9.2521764827
-9.29104744544
-9.3279961242
-9.36294351961
-9.39580737828
-9.42650430481
-9.45494975941
-9.48105674343
-9.50473723425
-9.52590157096
-9.54445808703
-9.56031434721
-9.57337702627
-9.5835510655
-9.59074008171
-9.59484765826
-9.59577588267
-9.5934259762
-9.58769931465
-9.57849593757
-9.56571638163
-9.54926060169
-9.52902787886
-9.50491861442
-9.47683201105
-9.44466824994
-9.40832753723
-9.36770958098
-9.32271584527
-9.27324682153
-9.21920310463
-9.16048506307
-9.0969940007
-9.02863085259
-8.9552929448
-8.87687915204
-8.79328604966
-8.70440507656
-8.61012578273
-8.51033314458
-8.40490443675
-8.29370979556
-8.17661140512
-8.05345864613
-7.92409153118
-7.78834044319
-7.64603172964
-7.49700386593
-7.34113387305
-7.17839673343
-7.00896876672
-6.83341946298
-6.65278159901
-6.46828537494
-6.2833081022
-1.54873974207
-1.60050247931
-1.74439785184
-1.90869098338
-2.06302379971
-2.2010815576
-2.32323457091
-2.4320217662
-2.53046398877
-2.62129123103
-2.70669503623
-2.78832842327
-2.86739345116
-2.9447426519
-3.02096873353
-3.09647648791
-3.171537778
-3.24633197037
-3.32097498371
-3.39553986599
-3.47007111603
-3.54459476884
-3.61912353772
-3.69366442326
-3.76821870061
-3.84278502267
-3.91736079837
-3.99194279174
-4.06652745023
-4.14111138783
-4.2156914558
-4.29026464045
-4.36482827327
-4.43938004597
-4.51391766899
-4.58843888707
-4.66294161338
-4.73742372869
-4.81188313594
-4.88631779701
-4.96072539433
-5.03510340312
-5.10944932149
-5.18376024424
-5.25803299753
-5.33226449448
-5.4064512916
-5.48058943152
-5.55467492114
-5.62870345536
-5.70267007314
-5.77656971181
-5.85039714956
-5.92414649467
-5.99781154633
-6.07138572544
-6.14486176628
-6.21823207129
-6.29148864578
-6.36462261465
-6.43762471833
-6.5104853667
-6.58319381456
-6.6557386843
-6.72810846224
-6.80029043256
-6.87227084449
-6.94403580844
-7.01557030062
-7.08685785415
-7.15788173737
-7.22862435814
-7.29906648491
-7.36918820195
-7.43896860219
-7.5083850947
-7.57741440218
-7.64603212839
-7.71421184142
-7.78192642389
-7.84914774656
-7.91584506427
-7.98198660897
-8.04754014885
-8.11247070621
-8.17674156091
-8.24031570391
-8.30315354851
-8.36521312316
-8.42645200958
-8.48682563834
-8.54628683577
-8.60478752122
-8.66227746121
-8.71870391843
-8.77401326418
-8.82814940925
-8.88105342829
-8.93266589128
-8.98292514473
-9.03176604833
-9.07912272457
-9.12492786489
-9.16911065306
-9.21159892666
-9.2523196047
-9.29119628325
-9.32815061427
-9.36310351517
-9.39597323569
-9.42667629414
-9.45512809744
-9.48124168176
-9.50492893911
-9.52610046586
-9.54466465044
-9.56052871173
-9.5735993183
-9.58378191354
-9.59098017774
-9.59509752631
-9.59603639172
-9.59369808255
-9.58798428264
-9.5787950996
-9.56603106507
-9.54959303712
-9.5293806124
-9.50529438232
-9.47723437387
-9.44510157931
-9.40879744518
-9.36822261062
-9.32327956524
-9.27387086122
-9.21989979775
-9.16126912359
-9.09788263951
-9.02964593147
-8.95646119252
-8.87823244081
-8.79486431144
-8.706258148
-8.61231436839
-8.51293180477
-8.40800685932
-8.29743228566
-8.18109945868
-8.05889675497
-7.93071265623
-7.79644108193
-7.65598892705
-7.50929455461
-7.35635346695
-7.19725765796
-7.03224948801
-6.86178039398
-6.68643083485
-6.50653680727
-6.32246348931
-1.75281449085
-1.74783543416
-1.83181103601
-1.95260047911
-2.07924347939
-2.20192361643
-2.31682044149
-2.42301626655
-2.52129854289
-2.61308618428
-2.69984483317
-2.78285714538
-2.86315817049
-2.9415421957
-3.018598077
-3.09475129461
-3.1703030374
-3.24546276516
-3.32037363486
-3.39513169793
-3.4698000674
-3.54441928147
-3.61901392
-3.69359889246
-3.76818208774
-3.84276684733
-3.91735389405
-3.99194240704
-4.06653053611
-4.14111599569
-4.21569644476
-4.29026946662
-4.36483269627
-4.43938397755
-4.5139211323
-4.58844191831
-4.66294426686
-4.73742613337
-4.81188540681
-4.88632002367
-4.96072767823
-5.0351057793
-5.10945179026
-5.18376292115
-5.25803593652
-5.33226762046
-5.4064546317
-5.48059305044
-5.55467876303
-5.6287075111
-5.70267442823
-5.77657437289
-5.85040215416
-5.92415195393
-5.99781745382
-6.07139207113
-6.14486860516
-6.21823939681
-6.29149651911
-6.36463116803
-6.437633886
-6.51049510798
-6.58320433445
-6.65575000447
-6.72812044655
-6.80030324504
-6.87228462935
-6.94405045382
-7.01558590114
-7.08687458681
-7.15789951427
-7.22864321369
-7.29908659167
-7.36920952064
-7.43899121192
-7.5084092167
-7.57744001379
-7.64605930902
-7.71424077842
-7.78195693189
-7.84917985169
-7.91587925391
-7.98202290023
-8.04757835629
-8.11251116867
-8.17678436349
-8.24036062773
-8.30320096762
-8.36526336445
-8.42650486197
-8.48688118238
-8.54634533136
-8.60484902024
-8.66234223289
-8.718772102
-8.77408472367
-8.82822454592
-8.88113259739
-8.93274875759
-8.98301185043
-9.0318571929
-9.07921831553
-9.12502795505
-9.1692156613
-9.21170879958
-9.25243430418
-9.29131627692
-9.32827597437
-9.3632341005
-9.39610938773
-9.42681829932
-9.45527612263
-9.48139596381
-9.50508952797
-9.52626756055
-9.54483886789
-9.56071056125
-9.57378900002
-9.58397990836
-9.59118712565
-9.59531399307
-9.59626333962
-9.593936653
-9.58823561448
-9.57906062402
-9.56631245111
-9.54989263242
-9.52970106255
-9.50563862263
-9.47760616695
-9.44550529701
-9.40923876052
-9.36870841844
-9.32381776886
-9.27447107322
-9.22057404175
-9.1620322397
-9.09875176263
-9.03064228343
-8.95761144078
-8.8795680366
-8.79642345888
-8.7080879366
-8.61447231113
-8.5154883942
-8.41104891369
-8.30106627713
-8.18545579992
-8.06413678157
-7.93703455769
-7.80408828599
-7.66525695736
-7.52053330143
-7.36996542828
-7.21367127034
-7.05185738894
-6.88480807918
-6.712760924
-6.53557685815
-6.35263031074
-1.87594386254
-1.85048705986
-1.89984661282
-1.99000678525
-2.09493165408
-2.20425452098
-2.3120918431
-2.41531565519
-2.51298933261
-2.60537911659
-2.69324928794
-2.77749159748
-2.85894519764
-2.93832191807
-3.01618973329
-3.09298386284
-3.16902822475
-3.24455856643
-3.31974319865
-3.39470015189
-3.46951068405
-3.54422968868
-3.6188939218
-3.69352580957
-3.76814003017
-3.84274481663
-3.91734433741
-3.99194027001
-4.06653253316
-4.1411199789
-4.21570107229
-4.29027405529
-4.36483695172
-4.4393877635
-4.51392443141
-4.5884447711
-4.66294673222
-4.73742833761
-4.81188746119
-4.8863219773
-4.96072962725
-5.03510780878
-5.1094538948
-5.18376516026
-5.25803839329
-5.33227024539
-5.40645741262
-5.48059608467
-5.55468204859
-5.62871102281
-5.7026782691
-5.77657859542
-5.85040671191
-5.92415687143
-5.99782272427
-6.07139766592
-6.14487458403
-6.21824578843
-6.29150335242
-6.36463860384
-6.43764194725
-6.51050366176
-6.5832134826
-6.65575989861
-6.72813101646
-6.80031456497
-6.87229688777
-6.94406355829
-7.0155997873
-7.08688943031
-7.15791536258
-7.22866006996
-7.29910459468
-7.3692286595
-7.43901147117
-7.50843078488
-7.57746291579
-7.64608354871
-7.71426660777
-7.78198431252
-7.84920859216
-7.91590967922
-7.98205526569
-8.04761246167
-8.11254714316
-8.17682245678
-8.24040063502
-8.30324292665
-8.3653076352
-8.42655146651
-8.48693015953
-8.54639686826
-8.6049030431
-8.66239884143
-8.7188315467
-8.77414684536
-8.82828943321
-8.88120070548
-8.93281994321
-8.98308593754
-9.03193462969
-9.07929921708
-9.12511215305
-9.16930354619
-9.21180063679
-9.25252988566
-9.29141573383
-9.32837954417
-9.36334184783
-9.39622161839
-9.42693527466
-9.455398001
-9.48152305123
-9.50522194881
-9.52640540284
-9.54498262181
-9.56086079993
-9.57394601683
-9.58414415323
-9.59135939355
-9.59549491399
-9.5964537851
-9.59413764239
-9.58844833304
-9.57928679563
-9.56655373161
-9.55015101408
-9.52997927343
-9.50593991905
-9.47793437304
-9.44586460445
-9.40963455808
-9.36914769412
-9.32430868524
-9.27502285432
-9.2211980331
-9.16274304895
-9.09956599017
-9.0315797978
-8.95869743028
-8.88083230594
-8.7979015296
-8.70982308763
-8.61651734469
-8.51790648353
-8.41391644984
-8.30447655554
-8.18952056837
-8.06899069626
-7.94283829551
-7.81103086345
-7.67355840235
-7.53043928369
-7.38173559407
-7.22755394485
-7.06804198334
-6.90335744911
-6.73356360686
-6.55841340716
-6.37725686409
-1.94998617758
-1.91893621335
-1.94886675275
-2.01863992795
-2.10780838496
-2.20668583891
-2.30856579787
-2.40903859246
-2.50596538778
-2.59871147702
-2.68744797179
-2.77271342539
-2.85515768282
-2.93540520531
-3.01399521897
-3.09136514849
-3.16785545296
-3.24372331189
-3.31915849855
-3.39429826878
-3.46924004896
-3.54405180352
-3.61878030697
-3.69345602045
-3.76809942022
-3.84272314638
-3.91733455172
-3.99193759481
-4.06653385739
-4.14112330469
-4.21570513307
-4.29027815165
-4.36484075914
-4.43939112143
-4.51392731052
-4.58844723897
-4.66294886635
-4.73743023744
-4.8118892128
-4.88632360071
-4.96073120163
-5.035109469
-5.10945565153
-5.18376698798
-5.25804035563
-5.33227234772
-5.40645963025
-5.4805985079
-5.55468471071
-5.6287138534
-5.70268129193
-5.77658187133
-5.85041023935
-5.92416068432
-5.99782681755
-6.07140200728
-6.14487925891
-6.21825085786
-6.29150875859
-6.36464442674
-6.43764830111
-6.51051044148
-6.58322068078
-6.65576768457
-6.72813935717
-6.80032342248
-6.87230644129
-6.94407380285
-7.0156106006
-7.08690094766
-7.15792766397
-7.22867307552
-7.29911841303
-7.36924339426
-7.43902711996
-7.50844748453
-7.57748063362
-7.64610212133
-7.71428631111
-7.78200538037
-7.84923078095
-7.9159330474
-7.9820801118
-8.04763865073
-8.112574711
-8.17685176005
-8.24043153057
-8.30327522545
-8.36534166085
-8.4265873897
-8.48696797893
-8.54643671818
-8.6049448187
-8.6624425534
-8.71887759558
-8.7741951923
-8.82833987581
-8.8812536039
-8.93287543153
-8.98314383244
-9.03199524505
-9.07936275957
-9.12517832907
-9.16937252799
-9.21187281716
-9.2526050813
-9.29149392686
-9.32846110804
-9.36342689824
-9.39631024219
-9.42702759972
-9.4554941322
-9.4816233621
-9.50532678754
-9.52651489314
-9.54509694456
-9.56098042984
-9.57407138195
-9.5842757593
-9.59149801054
-9.59564119013
-9.59660844555
-9.5943016726
-9.58862298054
-9.57947387895
-9.5667549531
-9.55036820873
-9.53021508709
-9.50619760421
-9.47821780959
-9.44617796195
-9.40998291783
-9.36953770153
-9.32474830421
-9.27552108753
-9.22176541582
-9.16339337617
-9.10031552536
-9.03244704614
-8.95970521885
-8.88200802271
-8.79927798604
-8.71143949442
-8.61842046643
-8.52015258339
-8.41657195749
-8.30762081494
-8.19324757439
-8.07341008771
-7.94807886863
-7.81723903736
-7.68089746461
-7.53908476354
-7.39186354963
-7.23932551999
-7.08158056891
-6.91872911839
-6.75079707437
-6.57762762059
-6.39886722802
-1.99221936664
-1.96065558471
-1.98030026437
-2.0377470862
-2.11676085009
-2.20854023544
-2.30615880283
-2.4045471292
-2.50082907228
-2.5937629544
-2.68309509468
-2.76909849691
-2.85227404282
-2.93317362242
-3.01230964974
-3.09011788809
-3.16694936142
-3.24307645386
-3.31870469509
-3.39398570336
-3.46902908497
-3.54391269843
-3.61869109199
-3.69340104084
-3.76806729279
-3.84270591412
-3.91732671288
-3.99193535898
-4.0665347376
-4.14112576911
-4.21570823644
-4.29028133387
-4.3648437299
-4.43939372531
-4.51392951186
-4.58844912241
-4.66295051293
-4.73743170614
-4.81189056926
-4.88632485841
-4.96073240175
-5.0351107406
-5.10945702248
-5.18376838768
-5.25804181739
-5.33227393183
-5.40646131916
-5.48060034683
-5.55468674296
-5.62871601155
-5.70268357639
-5.77658437571
-5.85041297434
-5.92416360298
-5.9978299051
-6.07140524054
-6.14488273393
-6.21825469732
-6.29151287945
-6.36464878251
-6.43765302934
-6.51051553608
-6.58322607898
-6.65577352926
-6.72814568048
-6.80033010219
-6.8723135643
-6.94408146212
-7.01561872177
-7.08690961952
-7.15793698832
-7.22868291847
-7.29912877924
-7.36925443826
-7.43903886688
-7.50846002437
-7.57749398809
-7.64611604671
-7.71430090348
-7.78202103178
-7.84924741334
-7.91595050688
-7.98209861732
-8.04765816338
-8.11259510558
-8.17687335725
-8.24045442117
-8.30329915625
-8.36536675385
-8.42661383178
-8.48699574907
-8.54646595192
-8.60497548717
-8.66247450736
-8.71891115572
-8.77423052193
-8.8283766788
-8.88129203207
-8.93291579874
-8.98318596029
-9.03203918102
-9.07940882981
-9.12522641112
-9.16942255785
-9.21192509686
-9.25265957661
-9.29155062014
-9.32852036615
-9.36348885616
-9.39637490064
-9.4270950506
-9.45556440628
-9.48169673039
-9.50540377086
-9.52659565759
-9.5451814699
-9.56106914141
-9.57416497546
-9.58437467941
-9.59160279347
-9.59575246983
-9.59672712042
-9.59442880254
-9.58875960914
-9.57962169534
-9.56691584923
-9.55054405635
-9.53040828541
-9.50641113737
-9.47845562966
-9.44644455143
-9.41028309219
-9.36987731146
-9.32513502832
-9.27596427104
-9.22227505518
-9.16398193617
-9.10099836326
-9.03324146633
-8.96063259162
-8.8830938846
-8.80055195818
-8.71293677888
-8.62018299625
-8.52223007239
-8.41902252134
-8.31051284356
-8.19666068864
-8.07743621005
-7.95282277576
-7.82281889896
-7.68744215742
-7.5467324844
-7.40075407501
-7.24959632827
-7.09336308187
-6.93215790515
-6.76605481142
-6.59506324639
-6.41916433391
-2.01146788086
-1.98037214125
-1.99559544934
-2.04726406833
-2.12132224495
-2.20952437863
-2.304929393
-2.40219894718
-2.49811144288
-2.59112228277
-2.68075732922
-2.76714753377
-2.85071188258
-2.93196116556
-3.01139175125
-3.08943743489
-3.16645430034
-3.24272258783
-3.31845615906
-3.39381433388
-3.46891330928
-3.54383627348
-3.61864198377
-3.69337076281
-3.76804958121
-3.8426964153
-3.9173224308
-3.9919341861
-4.06653525596
-4.1411271413
-4.21570997937
-4.29028314458
-4.36484543984
-4.43939523803
-4.51393079402
-4.58845023279
-4.66295150781
-4.73743260406
-4.81189142689
-4.88632571238
-4.96073323834
-5.03511160154
-5.10945793858
-5.18376930423
-5.25804275948
-5.3322750021
-5.40646250555
-5.48060161043
-5.55468810799
-5.62871745493
-5.70268509428
-5.77658604454
-5.85041479923
-5.92416554556
-5.99783197331
-6.07140741708
-6.14488504663
-6.21825726707
-6.29151567519
-6.3646516946
-6.4376561565
-6.51051894694
-6.58322967294
-6.65577737185
-6.72814989108
-6.80033457776
-6.8723182771
-6.94408651587
-7.01562407422
-7.08691528191
-7.15794309075
-7.22868941048
-7.29913562374
-7.36926172972
-7.43904653288
-7.50846806976
-7.57750262581
-7.64612518967
-7.71431040272
-7.78203112281
-7.84925815394
-7.91596172603
-7.98211049653
-8.04767077432
-8.11260818042
-8.1768870337
-8.24046899189
-8.30331449803
-8.36538281177
-8.42663067622
-8.4870133035
-8.54648438518
-8.6049949562
-8.66249475746
-8.71893222748
-8.77425269323
-8.82839977796
-8.88131607378
-8.93294114332
-8.98321246962
-9.03206661983
-9.07943746761
-9.12525634598
-9.1694536563
-9.21195757841
-9.25269356298
-9.29158601671
-9.32855732353
-9.36352749807
-9.39641532334
-9.42713747014
-9.45560883032
-9.48174325183
-9.50545276665
-9.52664738487
-9.54523598983
-9.56112693286
-9.57422666631
-9.58444052651
-9.5916732794
-9.59582844603
-9.5968095222
-9.59451866137
-9.58885784851
-9.57972976678
-9.56703578255
-9.55067801684
-9.53055860034
-9.50658039534
-9.47864758513
-9.44666390256
-9.41053479529
-9.37016683977
-9.32546941123
-9.27635278402
-9.22272772365
-9.16451037798
-9.10161713107
-9.03396731571
-8.96148542157
-8.8840972261
-8.80173366116
-8.71432997641
-8.62182599021
-8.52416789027
-8.42130791551
-8.31320654271
-8.19983399253
-8.08116980349
-7.95720852431
-7.82795992101
-7.6934530609
-7.55373880444
-7.40889226839
-7.25901451842
-7.10423068989
-6.94468633787
-6.78054199372
-6.6119802176
-6.43925651704
-2.01146773312
-1.98037229957
-1.99559555886
-2.04726402994
-2.12132228341
-2.20952445172
-2.30492943788
-2.40219899414
-2.4981114968
-2.59112232287
-2.68075735491
-2.76714754882
-2.85071186737
-2.93196109915
-3.01139164713
-3.08943733395
-3.16645424566
-3.24272259867
-3.31845620411
-3.39381437584
-3.46891337067
-3.54383637278
-3.61864211121
-3.69337091726
-3.76804974145
-3.84269656539
-3.91732259916
-3.99193437549
-4.06653543006
-4.14112730761
-4.2157101614
-4.29028332873
-4.36484562517
-4.43939543527
-4.51393099542
-4.5884504556
-4.66295175968
-4.73743285738
-4.81189172145
-4.88632610533
-4.96073368082
-5.03511204175
-5.10945839052
-5.18376974939
-5.25804321712
-5.33227557631
-5.40646319379
-5.48060230456
-5.55468879263
-5.62871816332
-5.70268585309
-5.77658690574
-5.85041574487
-5.9241665134
-5.99783300861
-6.07140855359
-6.14488624718
-6.21825858091
-6.29151711455
-6.36465314887
-6.43765767316
-6.51052064838
-6.58323147219
-6.65577923525
-6.72815194885
-6.80033679069
-6.87232056841
-6.94408899123
-7.01562672384
-7.08691800346
-7.15794596431
-7.22869250081
-7.29913892599
-7.36926529042
-7.43905020081
-7.5084717033
-7.57750650539
-7.64612947342
-7.71431485426
-7.78203574017
-7.84926303752
-7.91596672301
-7.98211570685
-8.04767641568
-8.11261401497
-8.17689293497
-8.24047523004
-8.30332110931
-8.36538970604
-8.42663788759
-8.48702071336
-8.54649203868
-8.60500311181
-8.66250324025
-8.71894085957
-8.77426173227
-8.82840919732
-8.88132570362
-8.93295126986
-8.98322316465
-9.03207758456
-9.07944878371
-9.12526817526
-9.1694658533
-9.21197027429
-9.25270700738
-9.29160010591
-9.32857203011
-9.36354291054
-9.39643154647
-9.42715475265
-9.4556273087
-9.48176289844
-9.50547369405
-9.52666993788
-9.545260503
-9.56115375785
-9.57425619628
-9.58447307549
-9.59170951914
-9.59586917324
-9.59685550401
-9.59457102968
-9.58891762652
-9.57979819569
-9.56711473652
-9.55076974182
-9.53066575347
-9.50670561507
-9.47879405117
-9.44683608265
-9.41073818852
-9.37040739981
-9.32575359472
-9.2766891602
-9.2231264682
-9.16498289595
-9.10217783281
-9.03463267018
-8.96227449518
-8.88503327588
-8.80284352636
-8.71564540496
-8.62338396671
-8.52601155227
-8.42348780533
-8.31578041677
-8.20286865923
-8.08474306883
-7.9614087035
-7.83288787069
-7.69922259573
-7.56048009546
-7.41675414456
-7.26817095689
-7.11489279462
-6.95712469329
-6.79512112123
-6.62920940112
-6.4598381093
-1.99221899668
-1.96065606303
-1.98030057961
-2.03774702351
-2.11676097241
-2.2085404269
-2.30615892423
-2.40454727639
-2.5008292284
-2.59376305172
-2.68309514124
-2.7690985221
-2.85227400018
-2.93317346757
-3.01230939824
-3.09011761892
-3.16694918566
-3.2430764499
-3.31870481724
-3.39398586158
-3.46902930308
-3.54391298925
-3.61869142853
-3.69340145487
-3.76806775886
-3.84270638771
-3.91732723676
-3.99193591204
-4.0665352343
-4.14112625653
-4.2157087939
-4.29028192099
-4.36484432171
-4.43939432978
-4.51393010857
-4.58844977836
-4.66295127919
-4.73743251488
-4.81189148738
-4.88632600957
-4.96073367166
-5.03511202823
-5.10945838029
-5.18376975783
-5.25804322849
-5.33227564059
-5.40646332043
-5.48060238655
-5.55468879665
-5.62871815631
-5.70268586778
-5.77658695932
-5.85041581115
-5.92416652587
-5.99783301806
-6.07140863969
-6.14488633772
-6.21825863339
-6.29151717839
-6.36465315739
-6.43765759516
-6.51052061038
-6.58323146919
-6.65577917795
-6.7281519028
-6.80033674802
-6.87232042142
-6.94408882429
-7.01562660766
-7.08691782194
-7.15794571103
-7.22869222923
-7.29913859648
-7.36926495828
-7.43904984579
-7.50847113091
-7.5775058044
-7.64612883903
-7.71431411448
-7.78203481287
-7.84926208508
-7.91596560429
-7.98211429505
-8.04767495037
-8.11261250705
-8.17689118915
-8.24047330229
-8.30331900619
-8.3653873653
-8.42663542653
-8.48701804345
-8.54648899126
-8.60499987011
-8.66249980951
-8.71893702227
-8.77425767194
-8.82840499566
-8.88132104657
-8.93294620837
-8.98321791521
-9.0320719769
-9.07944277509
-9.12526193192
-9.16945926291
-9.21196330876
-9.2526998388
-9.29159271334
-9.32856442631
-9.36353518817
-9.39642365332
-9.42714680879
-9.45561962458
-9.48175552283
-9.50546660459
-9.52666344226
-9.54525498066
-9.56114937858
-9.57425337291
-9.58447237488
-9.59171154387
-9.59587452134
-9.59686478961
-9.59458546955
-9.58893866181
-9.57982717703
-9.5671531683
-9.55081959392
-9.53072986772
-9.50678698156
-9.47889591152
-9.44696259
-9.4108946629
-9.37060024138
-9.32598951891
-9.27697661657
-9.22347583841
-9.16540565553
-9.10268800905
-9.03524723647
-8.9630133424
-8.88591944225
-8.80390425352
-8.71691250375
-8.62489478086
-8.52781001863
-8.42562477605
-8.3183154564
-8.20587012437
-8.08829044493
-7.96559389289
-7.83781738361
-7.70501927556
-7.5672861937
-7.42473772846
-7.27753277734
-7.12587635075
-6.97003359832
-6.81034180833
-6.64723392059
-6.48127705572
-1.94998577386
-1.91893695984
-1.94886719368
-2.01863995447
-2.10780861766
-2.20668609783
-2.30856599809
-2.4090388412
-2.50596560886
-2.59871158482
-2.68744798291
-2.77271340317
-2.8551575953
-2.93540500946
-3.01399490131
-3.09136477234
-3.16785516089
-3.24372324814
-3.31915866618
-3.39429857141
-3.46924046059
-3.54405228193
-3.61878081946
-3.6934566527
-3.76810018486
-3.84272398658
-3.91733546794
-3.99193850929
-4.06653467282
-4.14112412531
-4.21570608742
-4.29027918553
-4.36484181078
-4.43939216212
-4.51392830068