/*--------------------------------*- C++ -*----------------------------------*\
| =========                 |                                                 |
| \\      /  F ield         | OpenFOAM: The Open Source CFD Toolbox           |
|  \\    /   O peration     | Version:  2106                                  |
|   \\  /    A nd           | Website:  www.openfoam.com                      |
|    \\/     M anipulation  |                                                 |
\*---------------------------------------------------------------------------*/
FoamFile
{
    version     2.0;
    format      ascii;
    arch        "LSB;label=32;scalar=64";
    class       surfaceScalarField;
    location    "0.08";
    object      phi;
}
// * * * * * * * * * * * * * * * * * * * * * * * * * * * * * * * * * * * * * //

dimensions      [0 3 -1 0 0 0 0];

oriented        oriented;

internalField   nonuniform List<scalar> 
18840
(
3.37543022928e-05
1.62456977092e-05
2.25359535776e-05
1.12183478028e-05
1.63023598482e-05
6.23359386661e-06
1.28097979287e-05
3.49256264253e-06
1.08065466425e-05
2.00325115468e-06
9.60473865933e-06
1.20180758061e-06
8.85166930345e-06
7.530693791e-07
8.36507220944e-06
4.86597285192e-07
8.0453207331e-06
3.19751428477e-07
7.8340259926e-06
2.11294778086e-07
7.69478478308e-06
1.39241447953e-07
7.60388109753e-06
9.09038016528e-08
7.5454492149e-06
5.84318548264e-08
7.50872929828e-06
3.6719852759e-08
7.48638898679e-06
2.2340162237e-08
7.47343812917e-06
1.29506231625e-08
7.46649978678e-06
6.93813286006e-09
7.46330910698e-06
3.19053001151e-09
7.462363711e-06
9.45348580092e-10
7.46269833203e-06
-3.34564148971e-10
7.46367152368e-06
-9.7305677432e-10
7.46490761958e-06
-1.23594058946e-09
7.46617701221e-06
-1.26931113797e-09
7.46735324542e-06
-1.1762445104e-09
7.46837570592e-06
-1.02251318493e-09
7.46922438811e-06
-8.48716324159e-10
7.46990315219e-06
-6.78716137217e-10
7.47042873717e-06
-5.25437738212e-10
7.47082363857e-06
-3.94734823387e-10
7.47111173867e-06
-2.8798887912e-10
7.47131573073e-06
-2.03949874761e-10
7.47145566123e-06
-1.39951248897e-10
7.47154833226e-06
-9.27098321771e-11
7.47160725269e-06
-5.89189860532e-11
7.47164285366e-06
-3.55754342408e-11
7.47166289629e-06
-2.00579842049e-11
7.47167300956e-06
-1.01894042512e-11
7.47167720983e-06
-4.31787267771e-12
7.47167824716e-06
-1.16846816111e-12
7.47167738808e-06
7.69514236294e-13
7.47167588213e-06
1.48808382801e-12
7.47167431268e-06
1.60000159879e-12
7.47167293931e-06
1.43107154111e-12
7.47167185391e-06
1.12583004779e-12
7.47167102429e-06
8.05782646466e-13
7.4716704268e-06
5.49855405733e-13
7.47167006511e-06
3.29176862515e-13
7.47166987392e-06
1.32486103203e-13
7.47166978457e-06
1.53829532953e-14
7.47166981273e-06
-7.29205435453e-14
7.47166992041e-06
-1.8242570711e-13
7.47167004709e-06
-2.56453831335e-13
7.47167026033e-06
-2.97008677068e-13
7.47167061115e-06
-3.69336084601e-13
7.47167105053e-06
-4.53043387936e-13
7.47167156124e-06
-4.94130959612e-13
7.47167213753e-06
-4.95255322621e-13
7.47167272536e-06
-4.71346691925e-13
7.47167329813e-06
-4.60708217868e-13
7.47167383063e-06
-4.93522095079e-13
7.47167430246e-06
-5.32705796955e-13
7.47167479631e-06
-5.88068573364e-13
7.4716753577e-06
-6.87498037386e-13
7.47167591671e-06
-7.30448255694e-13
7.47167650919e-06
-6.87534431845e-13
7.47167719661e-06
-7.06030326074e-13
7.47167787076e-06
-7.88498532288e-13
7.47167852582e-06
-8.21571654023e-13
7.47167930563e-06
-8.57689673213e-13
7.47168018273e-06
-9.32984702412e-13
7.47168109624e-06
-9.46975277523e-13
7.47168214727e-06
-9.32322588409e-13
7.47168332206e-06
-9.78649103181e-13
7.47168449404e-06
-1.04177107258e-12
7.47168568562e-06
-1.10627185583e-12
7.47168693308e-06
-1.16803277614e-12
7.47168822752e-06
-1.15486747491e-12
7.47168961552e-06
-1.14095720597e-12
7.47169102455e-06
-1.22573391765e-12
7.47169237723e-06
-1.31255649779e-12
7.47169383089e-06
-1.37726554804e-12
7.47169541261e-06
-1.4566887318e-12
7.47169695443e-06
-1.43384914625e-12
7.47169853788e-06
-1.37785948855e-12
7.47170025099e-06
-1.50137435834e-12
7.47170191963e-06
-1.63891053379e-12
7.47170358208e-06
-1.62049127667e-12
7.47170540146e-06
-1.67179301381e-12
7.47170720854e-06
-1.82454648607e-12
7.471708915e-06
-1.86595884398e-12
7.47171071565e-06
-1.89239450232e-12
7.47171262994e-06
-2.05217366344e-12
7.47171462487e-06
-2.23643433645e-12
7.4717168154e-06
-2.34493917711e-12
7.47171915108e-06
-2.32891318175e-12
7.47172153912e-06
-2.24974533096e-12
7.47172403995e-06
-2.3493165242e-12
7.47172661107e-06
-2.59296353766e-12
7.47172931511e-06
-2.75879112292e-12
7.47173240786e-06
-3.01382824697e-12
7.47173577653e-06
-3.39973087583e-12
7.47173930636e-06
-3.67101448504e-12
7.4717432886e-06
-3.90774616098e-12
7.47174788149e-06
-4.34533899544e-12
7.47175304739e-06
-4.95122738424e-12
7.47175894019e-06
-5.77994271401e-12
7.47176573166e-06
-6.94712633872e-12
7.47177351959e-06
-8.2287836229e-12
7.47178274151e-06
-9.52210598413e-12
7.47179397066e-06
-1.11826675968e-11
7.47180744125e-06
-1.33701822101e-11
7.47182365284e-06
-1.61260113348e-11
7.47184332359e-06
-1.96015924049e-11
7.47186716556e-06
-2.39485157313e-11
7.47189624963e-06
-2.93448314631e-11
7.47193192183e-06
-3.5958722864e-11
7.47197577533e-06
-4.39961314357e-11
7.47202978004e-06
-5.39184219403e-11
7.47209640382e-06
-6.64222204352e-11
7.4721785756e-06
-8.22108891215e-11
7.47227981679e-06
-1.01777521762e-10
7.47240498058e-06
-1.25796529155e-10
7.47256042581e-06
-1.5580303858e-10
7.47275607024e-06
-1.95775501289e-10
7.47299605235e-06
-2.40139177641e-10
7.47329114423e-06
-2.9525565964e-10
7.47365655699e-06
-3.65101050468e-10
7.47410941437e-06
-4.52474389552e-10
7.47467022167e-06
-5.60893846497e-10
7.4753650787e-06
-6.95076554483e-10
7.47622619089e-06
-8.61288899175e-10
7.47729359533e-06
-1.06745775523e-09
7.47861655964e-06
-1.32320386354e-09
7.48025635439e-06
-1.6401597813e-09
7.48228978826e-06
-2.03335235753e-09
7.4848115527e-06
-2.52154446225e-09
7.48793933295e-06
-3.12776068121e-09
7.49181995284e-06
-3.88065753176e-09
7.49663671357e-06
-4.81655124165e-09
7.50261809928e-06
-5.98123027545e-09
7.51004932907e-06
-7.43153884162e-09
7.51928863316e-06
-9.23954167889e-09
7.53078611153e-06
-1.14973587067e-08
7.54510879006e-06
-1.43223238257e-08
7.56297497366e-06
-1.78655030189e-08
7.58529896093e-06
-2.23231660599e-08
7.61325132313e-06
-2.79520559607e-08
7.64834418158e-06
-3.50928135325e-08
7.69254899105e-06
-4.42046473982e-08
7.74846736245e-06
-5.5918539301e-08
7.81959174529e-06
-7.11248788652e-08
7.9107251902e-06
-9.11340424813e-08
8.02874747234e-06
-1.18022311638e-07
8.18425032121e-06
-1.55503038265e-07
8.39570097948e-06
-2.11450704637e-07
8.70124459488e-06
-3.05543577298e-07
9.19397534284e-06
-4.92731098307e-07
1.01350431826e-05
-9.41067088232e-07
1.23379907701e-05
-2.20294793887e-06
-6.0472625918e-06
1.83852538551e-05
5.01388774006e-05
1.61068214423e-05
4.41591139864e-05
1.7198111374e-05
3.77598456047e-05
1.26328613864e-05
3.26494801398e-05
8.6029283038e-06
2.89465585672e-05
5.70617310176e-06
2.63676234469e-05
3.78074250151e-06
2.45940049187e-05
2.52668763486e-06
2.33787006529e-05
1.70190181646e-06
2.25479225312e-05
1.15052985545e-06
2.19821969572e-05
7.77020461378e-07
2.15994597885e-05
5.21978818046e-07
2.13430073452e-05
3.47356366404e-07
2.11734267261e-05
2.28012301701e-07
2.10632402448e-05
1.469060119e-07
2.09932982475e-05
9.22818155512e-08
2.09503008585e-05
5.59476907202e-08
2.09250667239e-05
3.21720763342e-08
2.09113103266e-05
1.69469327436e-08
2.09047760488e-05
7.47976993522e-09
2.09026086614e-05
1.8330084392e-09
2.09029450095e-05
-1.30923756582e-09
2.09045796045e-05
-2.87043225754e-09
2.09067604384e-05
-3.45010165754e-09
2.09090383526e-05
-3.45416022467e-09
2.09111633978e-05
-3.14755283639e-09
2.0913013881e-05
-2.69912515155e-09
2.09145478386e-05
-2.21254148321e-09
2.09157704523e-05
-1.74787417191e-09
2.09167123718e-05
-1.33647667902e-09
2.0917415664e-05
-9.91175115925e-10
2.09179251109e-05
-7.13349845437e-10
2.09182830099e-05
-4.97828200999e-10
2.09185264145e-05
-3.36151829647e-10
2.09186861156e-05
-2.18733915334e-10
2.09187866295e-05
-1.36229004165e-10
2.09188466997e-05
-8.02658634799e-11
2.09188801424e-05
-4.37563944166e-11
2.09188967264e-05
-2.09872217758e-11
2.09189029918e-05
-7.49670300167e-12
2.09189033505e-05
3.56594253046e-13
2.09189016691e-05
3.13619557289e-12
2.09188989926e-05
4.25020117458e-12
2.09188961703e-05
4.25628028022e-12
2.09188936566e-05
3.69733958962e-12
2.0918891579e-05
2.90461934211e-12
2.09188899277e-05
2.1231141702e-12
2.09188886954e-05
1.46754827726e-12
2.09188877927e-05
9.3643959107e-13
2.09188871784e-05
4.6810002785e-13
2.0918886832e-05
1.2477954519e-13
2.09188866995e-05
-1.51234795254e-13
2.09188866558e-05
-3.77077549524e-13
2.09188866979e-05
-5.18105128091e-13
2.09188869049e-05
-6.01543523443e-13
2.09188872557e-05
-6.74871721381e-13
2.09188876951e-05
-7.37203126658e-13
2.09188881844e-05
-7.89768745374e-13
2.09188886592e-05
-8.37011492875e-13
2.09188890956e-05
-8.93955763918e-13
2.09188894896e-05
-9.91352128226e-13
2.0918889802e-05
-1.09428186411e-12
2.09188901075e-05
-1.15319957572e-12
2.09188905224e-05
-1.21940498191e-12
2.09188909685e-05
-1.29850279468e-12
2.09188913832e-05
-1.31619616761e-12
2.09188918608e-05
-1.3313719869e-12
2.09188923662e-05
-1.422194587e-12
2.0918892826e-05
-1.49548430796e-12
2.09188933697e-05
-1.5075372511e-12
2.09188940583e-05
-1.55137238751e-12
2.09188948039e-05
-1.59840919777e-12
2.09188956415e-05
-1.58929551387e-12
2.09188965885e-05
-1.60714926574e-12
2.09188975341e-05
-1.69130850522e-12
2.09188984988e-05
-1.8043123244e-12
2.09188995412e-05
-1.93351669475e-12
2.09189006081e-05
-2.02009001949e-12
2.09189017269e-05
-2.06528937455e-12
2.09189028902e-05
-2.17589893015e-12
2.09189039942e-05
-2.29567314665e-12
2.091890517e-05
-2.33329371927e-12
2.0918906537e-05
-2.40919073718e-12
2.09189078852e-05
-2.53335898334e-12
2.09189091831e-05
-2.5851350271e-12
2.09189106386e-05
-2.68788498648e-12
2.09189121585e-05
-2.93195646064e-12
2.09189136267e-05
-3.14433637881e-12
2.09189152066e-05
-3.32616066973e-12
2.09189168759e-05
-3.59486187652e-12
2.09189184844e-05
-3.82034004369e-12
2.09189201493e-05
-3.93931661228e-12
2.09189220149e-05
-4.0983995963e-12
2.09189241316e-05
-4.32253403696e-12
2.09189265672e-05
-4.57989679692e-12
2.09189292146e-05
-4.88382907616e-12
2.09189319797e-05
-5.18314190559e-12
2.09189350681e-05
-5.54470550405e-12
2.09189385753e-05
-6.07731358299e-12
2.0918942503e-05
-6.66117577519e-12
2.0918947104e-05
-7.35134678954e-12
2.09189524768e-05
-8.39051680617e-12
2.09189585753e-05
-9.71306496334e-12
2.09189657278e-05
-1.12078575224e-11
2.09189742704e-05
-1.30084707375e-11
2.0918984353e-05
-1.52143049375e-11
2.09189963662e-05
-1.79200586538e-11
2.09190108769e-05
-2.13753563671e-11
2.09190282672e-05
-2.5621980093e-11
2.09190489736e-05
-3.04487465066e-11
2.09190737245e-05
-3.60800210006e-11
2.09191050938e-05
-4.48609154022e-11
2.09191438109e-05
-5.50232877979e-11
2.09191915386e-05
-6.74552375389e-11
2.09192503648e-05
-8.28627704481e-11
2.09193230381e-05
-1.02028807802e-10
2.09194128515e-05
-1.25848050994e-10
2.09195237999e-05
-1.55344814398e-10
2.091966088e-05
-1.91741445585e-10
2.09198304195e-05
-2.36691446647e-10
2.09200403832e-05
-2.92458848876e-10
2.09203002419e-05
-3.61605212636e-10
2.09206216589e-05
-4.47097250002e-10
2.09210186053e-05
-5.52904737719e-10
2.09215067236e-05
-6.84353301093e-10
2.09221145332e-05
-8.48249473792e-10
2.09228707228e-05
-1.0518685597e-09
2.09238095796e-05
-1.3042279125e-09
2.09249745168e-05
-1.61719297747e-09
2.09264189616e-05
-2.00523139613e-09
2.09282097912e-05
-2.48612095917e-09
2.0930430072e-05
-3.08200801557e-09
2.09331833366e-05
-3.82065748128e-09
2.09365973583e-05
-4.73685046498e-09
2.09408302111e-05
-5.87320061426e-09
2.09460795626e-05
-7.28274712609e-09
2.09525906623e-05
-9.03226805042e-09
2.09606680409e-05
-1.12048759828e-08
2.09706909627e-05
-1.39037603426e-08
2.0983132543e-05
-1.72582955811e-08
2.09985834181e-05
-2.1431638236e-08
2.10177812907e-05
-2.66290033249e-08
2.10416510168e-05
-3.3109267148e-08
2.10713550365e-05
-4.12014624371e-08
2.11083581701e-05
-5.13260582297e-08
2.11545153752e-05
-6.40236717962e-08
2.12121886207e-05
-7.99966025726e-08
2.12844033022e-05
-1.00166711577e-07
2.13750700194e-05
-1.2575933044e-07
2.14892996894e-05
-1.58433808625e-07
2.16338695631e-05
-2.00488225839e-07
2.18179506561e-05
-2.55204726794e-07
2.20542978805e-05
-3.27480500775e-07
2.23613549213e-05
-4.25079301917e-07
2.27672087255e-05
-5.61356457885e-07
2.33174454956e-05
-7.61687358918e-07
2.40912016449e-05
-1.079299772e-06
2.52321720334e-05
-1.63370175073e-06
2.69938010544e-05
-2.70269554428e-06
2.97352897779e-05
-4.94443694052e-06
-9.75103774703e-06
3.34390644773e-05
5.35844224101e-05
1.25223991749e-05
5.29165884899e-05
1.78659462629e-05
4.96392820855e-05
1.59101672668e-05
4.58382034238e-05
1.24040067244e-05
4.24428953259e-05
9.10148148458e-06
3.97332645419e-05
6.49037340655e-06
3.76915138683e-05
4.56843808486e-06
3.62017126283e-05
3.19170313647e-06
3.51365683298e-05
2.21567447801e-06
3.43864387131e-05
1.52715018257e-06
3.38650978682e-05
1.04331972332e-06
3.35075415795e-05
7.04912716431e-07
3.32658578582e-05
4.6969588517e-07
3.31052370164e-05
3.07526571568e-07
3.30006677258e-05
1.96850797837e-07
3.2934357672e-05
1.22257486969e-07
3.28937750172e-05
7.27545614351e-08
3.28701847763e-05
4.05371578707e-08
3.28575674948e-05
2.00971778074e-08
3.28518253254e-05
7.57535056074e-09
3.28502120145e-05
3.04218338925e-10
3.28509306589e-05
-3.5890182379e-09
3.28528177518e-05
-5.3372086106e-09
3.28551556641e-05
-5.79210072161e-09
3.28575204675e-05
-5.51233240013e-09
3.28596822357e-05
-4.8607738228e-09
3.28615351554e-05
-4.06530176941e-09
3.28630498548e-05
-3.26243700168e-09
3.28642412292e-05
-2.52776267564e-09
3.28651470746e-05
-1.89700074332e-09
3.28658144317e-05
-1.38071385153e-09
3.28662911641e-05
-9.74532011311e-10
3.28666211192e-05
-6.66071483574e-10
3.28668418544e-05
-4.39492284337e-10
3.28669839862e-05
-2.7844575523e-10
3.28670714055e-05
-1.67815087135e-10
3.28671220533e-05
-9.45662348592e-11
3.2867148999e-05
-4.80680681051e-11
3.28671614634e-05
-2.00322159256e-11
3.28671658888e-05
-4.07553858676e-12
3.28671654154e-05
3.67020321554e-12
3.28671630222e-05
6.71556723885e-12
3.28671599746e-05
7.3307109463e-12
3.28671570203e-05
6.66913181018e-12
3.28671544847e-05
5.44490847389e-12
3.28671524322e-05
4.10796092454e-12
3.28671509065e-05
2.90631940288e-12
3.28671498951e-05
1.89229483386e-12
3.28671491446e-05
1.10759327241e-12
3.28671485228e-05
5.8078306448e-13
3.28671481308e-05
1.20874994383e-13
3.28671479068e-05
-2.64422668302e-13
3.28671477988e-05
-5.43815962862e-13
3.28671478513e-05
-7.03951003286e-13
3.28671480661e-05
-8.14155098804e-13
3.28671483705e-05
-8.92145707638e-13
3.28671487224e-05
-9.75634925016e-13
3.28671490553e-05
-1.08041950722e-12
3.28671493464e-05
-1.203865088e-12
3.28671496272e-05
-1.35001241019e-12
3.28671498503e-05
-1.49314574219e-12
3.28671500255e-05
-1.56939405868e-12
3.28671502844e-05
-1.59933189745e-12
3.28671505849e-05
-1.66144785595e-12
3.28671508119e-05
-1.73687330632e-12
3.28671510702e-05
-1.78660006866e-12
3.2867151392e-05
-1.83021632661e-12
3.28671516834e-05
-1.88863523916e-12
3.2867151995e-05
-1.87717945128e-12
3.28671524383e-05
-1.88394122087e-12
3.28671529457e-05
-1.96755797173e-12
3.28671535004e-05
-2.0438112851e-12
3.28671541523e-05
-2.11002903745e-12
3.28671548233e-05
-2.1989759973e-12
3.28671555207e-05
-2.2881739434e-12
3.28671563169e-05
-2.41415533697e-12
3.28671571079e-05
-2.58189300568e-12
3.28671578824e-05
-2.72435572246e-12
3.28671587479e-05
-2.86667006033e-12
3.28671596106e-05
-2.99327747863e-12
3.28671604658e-05
-3.02104256435e-12
3.28671614741e-05
-3.08688610059e-12
3.28671624948e-05
-3.30984205442e-12
3.28671634073e-05
-3.51559528511e-12
3.28671644644e-05
-3.67183716554e-12
3.28671656812e-05
-3.96949463887e-12
3.28671668361e-05
-4.34212508218e-12
3.28671680583e-05
-4.63681018261e-12
3.28671694543e-05
-4.94779601185e-12
3.28671708365e-05
-5.31047951279e-12
3.28671722408e-05
-5.63691241065e-12
3.28671738698e-05
-5.94255252852e-12
3.28671757809e-05
-6.25571222475e-12
3.28671780355e-05
-6.63627522948e-12
3.28671805889e-05
-7.2148131433e-12
3.28671833187e-05
-7.93817982464e-12
3.28671864443e-05
-8.726024501e-12
3.28671901307e-05
-9.70277425834e-12
3.28671941509e-05
-1.07884747866e-11
3.28671990784e-05
-1.24038976503e-11
3.28672051696e-05
-1.43345965128e-11
3.28672124439e-05
-1.68008014719e-11
3.2867221211e-05
-1.98784988317e-11
3.286723193e-05
-2.36765182478e-11
3.28672448636e-05
-2.8361800736e-11
3.28672605429e-05
-3.40410368193e-11
3.28672799717e-05
-4.09514066406e-11
3.28673040484e-05
-4.95209436124e-11
3.28673338372e-05
-6.01454490912e-11
3.28673711386e-05
-7.33665511694e-11
3.28674161301e-05
-8.98932519423e-11
3.28674712812e-05
-1.10409111314e-10
3.28675392327e-05
-1.3575626086e-10
3.28676230745e-05
-1.67061916373e-10
3.28677266756e-05
-2.05804052543e-10
3.28678547853e-05
-2.53898255821e-10
3.28680131864e-05
-3.13665449465e-10
3.28682089605e-05
-3.87782557329e-10
3.28684509843e-05
-4.79435690365e-10
3.28687506835e-05
-5.92757138872e-10
3.28691219009e-05
-7.33020471727e-10
3.28695816394e-05
-9.06799419133e-10
3.28701509658e-05
-1.12230536638e-09
3.28708561072e-05
-1.38966650574e-09
3.28717295545e-05
-1.72144269311e-09
3.28728112176e-05
-2.13347472744e-09
3.28741511738e-05
-2.64458006396e-09
3.28758120184e-05
-3.27822786899e-09
3.28778705075e-05
-4.06382699047e-09
3.28804220082e-05
-5.03774009856e-09
3.28835846116e-05
-6.24494318655e-09
3.28875053416e-05
-7.74154085513e-09
3.28923666497e-05
-9.59777738701e-09
3.28983940481e-05
-1.19004250139e-08
3.29058683812e-05
-1.47571746803e-08
3.29151387722e-05
-1.83027439725e-08
3.29266392401e-05
-2.27051581918e-08
3.29409095417e-05
-2.81739236739e-08
3.29586220917e-05
-3.49710763544e-08
3.29806163107e-05
-4.3425848702e-08
3.30079401722e-05
-5.39526199489e-08
3.30419054327e-05
-6.70742047378e-08
3.30841585471e-05
-8.34539669244e-08
3.31367712528e-05
-1.03938075838e-07
3.32023604314e-05
-1.29612760725e-07
3.32842488444e-05
-1.61885253325e-07
3.33866794309e-05
-2.02597413176e-07
3.35151114645e-05
-2.54191510153e-07
3.3676639913e-05
-3.19962590601e-07
3.38806028088e-05
-4.04451770621e-07
3.41394964967e-05
-5.14098314641e-07
3.44703992279e-05
-6.5838361398e-07
3.48972688744e-05
-8.51949169813e-07
3.54546824904e-05
-1.11876943829e-06
3.61937213833e-05
-1.50072639659e-06
3.71900060723e-05
-2.07558371193e-06
3.85495894934e-05
-2.99328568197e-06
4.03891914185e-05
-4.54229793243e-06
4.26990401393e-05
-7.254285282e-06
-1.19349100154e-05
4.48829120173e-05
5.35705175207e-05
8.9518812185e-06
5.55863002843e-05
1.58501646036e-05
5.5241054721e-05
1.62554128347e-05
5.35976285287e-05
1.40474325446e-05
5.15429675212e-05
1.11561425264e-05
4.95821045329e-05
8.4512366541e-06
4.79265984417e-05
6.22394411312e-06
4.66206835629e-05
4.4976179739e-06
4.56333232296e-05
3.20303510578e-06
4.49084071216e-05
2.25206646528e-06
4.43880083959e-05
1.56371844362e-06
4.4021486581e-05
1.0714344985e-06
4.37679066741e-05
7.23275646364e-07
4.35956299974e-05
4.7980297507e-07
4.34809082784e-05
3.11572259389e-07
4.34062912038e-05
1.96874371554e-07
4.33591727544e-05
1.19872893223e-07
4.33305803739e-05
6.91295309355e-08
4.33142154976e-05
3.64621380538e-08
4.33057167132e-05
1.60742894881e-08
4.33021188383e-05
3.90224003927e-09
4.33014179065e-05
-2.88802305831e-09
4.33023162218e-05
-6.23552596863e-09
4.33039774195e-05
-7.45333243569e-09
4.33058897286e-05
-7.42464943159e-09
4.33077574445e-05
-6.72839861814e-09
4.33094261271e-05
-5.73383606642e-09
4.3310830993e-05
-4.66718035652e-09
4.33119615904e-05
-3.65827497587e-09
4.33128378913e-05
-2.77326904844e-09
4.33134946427e-05
-2.03748502625e-09
4.33139714825e-05
-1.45138573982e-09
4.33143069631e-05
-1.00153442096e-09
4.33145353591e-05
-6.67879421279e-10
4.33146853754e-05
-4.28486235512e-10
4.33147799268e-05
-2.62434757015e-10
4.33148365612e-05
-1.51332145263e-10
4.33148682767e-05
-7.99323995743e-11
4.33148843377e-05
-3.618576563e-11
4.33148912568e-05
-1.10026522196e-11
4.33148929879e-05
2.03430324917e-12
4.33148918567e-05
7.99045822647e-12
4.33148895946e-05
9.67397052256e-12
4.33148870793e-05
9.2050843493e-12
4.33148847703e-05
7.76189640082e-12
4.33148827979e-05
6.03433922458e-12
4.33148811959e-05
4.42176574557e-12
4.33148799822e-05
3.05677821796e-12
4.33148790749e-05
1.9347129561e-12
4.33148784156e-05
1.05317321601e-12
4.33148780419e-05
3.04384097513e-13
4.33148777924e-05
-1.38458087282e-13
4.33148776413e-05
-4.74807803537e-13
4.33148775868e-05
-6.52970352603e-13
4.33148776454e-05
-7.84118992597e-13
4.33148777692e-05
-9.00835472404e-13
4.33148779239e-05
-1.02892828925e-12
4.33148780595e-05
-1.18532542629e-12
4.33148781154e-05
-1.33104187426e-12
4.33148781416e-05
-1.45651250058e-12
4.33148781547e-05
-1.59445430618e-12
4.33148780853e-05
-1.68039393978e-12
4.3314878016e-05
-1.68570276768e-12
4.33148780295e-05
-1.73600229111e-12
4.33148780029e-05
-1.84859179767e-12
4.33148779308e-05
-1.9046770609e-12
4.33148779654e-05
-1.92431817213e-12
4.33148780097e-05
-1.94972180869e-12
4.33148780045e-05
-1.91965729458e-12
4.33148780778e-05
-1.90343408051e-12
4.33148782338e-05
-1.99505304766e-12
4.33148784154e-05
-2.11581224715e-12
4.33148786679e-05
-2.21668662545e-12
4.33148789545e-05
-2.3324689056e-12
4.33148792382e-05
-2.43243946524e-12
4.33148795934e-05
-2.54441190943e-12
4.33148799502e-05
-2.72350158294e-12
4.33148802457e-05
-2.88803612307e-12
4.33148806246e-05
-3.0208839217e-12
4.33148810585e-05
-3.17826597455e-12
4.33148814237e-05
-3.28514020978e-12
4.33148818684e-05
-3.37894807767e-12
4.3314882408e-05
-3.62614221978e-12
4.33148828403e-05
-3.93718279238e-12
4.33148832851e-05
-4.18082918139e-12
4.33148839076e-05
-4.52197888603e-12
4.33148845507e-05
-4.98466792562e-12
4.33148852102e-05
-5.35130266598e-12
4.33148860242e-05
-5.68353925884e-12
4.33148868899e-05
-6.14206260696e-12
4.3314887813e-05
-6.66007911846e-12
4.33148890022e-05
-7.18408983872e-12
4.33148904876e-05
-7.73747827695e-12
4.33148922838e-05
-8.37658283832e-12
4.3314894464e-05
-9.26803497918e-12
4.33148969594e-05
-1.04241327709e-11
4.33148999326e-05
-1.17187870235e-11
4.33149037432e-05
-1.33457000315e-11
4.3314908479e-05
-1.54841382637e-11
4.33149138653e-05
-1.80194163345e-11
4.33149204472e-05
-2.10733542693e-11
4.33149285333e-05
-2.49323253603e-11
4.33149383293e-05
-2.97008418257e-11
4.33149503479e-05
-3.56116282676e-11
4.33149650766e-05
-4.3044608925e-11
4.33149830067e-05
-5.21540909954e-11
4.33150051338e-05
-6.31839227359e-11
4.33150325572e-05
-7.68297917788e-11
4.33150662316e-05
-9.38540772532e-11
4.33151077231e-05
-1.15022693954e-10
4.33151591327e-05
-1.41417813214e-10
4.33152226748e-05
-1.74091864435e-10
4.33153012344e-05
-2.14497311805e-10
4.33153983452e-05
-2.64492033119e-10
4.33155184351e-05
-3.26340328216e-10
4.33156670466e-05
-4.02898212584e-10
4.33158510421e-05
-4.97773593583e-10
4.33160787886e-05
-6.15450454795e-10
4.33163605397e-05
-7.61268834623e-10
4.33167094556e-05
-9.41795842282e-10
4.33171416854e-05
-1.16534660134e-09
4.33176771531e-05
-1.44232983929e-09
4.33183405122e-05
-1.78571370393e-09
4.33191620663e-05
-2.2114844129e-09
4.33201801183e-05
-2.73958317296e-09
4.33214414738e-05
-3.39490313305e-09
4.33230040684e-05
-4.20750732122e-09
4.3324940462e-05
-5.2147963709e-09
4.33273401752e-05
-6.46357079438e-09
4.33303144886e-05
-8.01180266592e-09
4.33340008928e-05
-9.93127180745e-09
4.33385701776e-05
-1.23110544851e-08
4.33442350125e-05
-1.52623232171e-08
4.33512582698e-05
-1.89233114511e-08
4.33599664846e-05
-2.34655185735e-08
4.33707657471e-05
-2.9102371345e-08
4.33841609654e-05
-3.6100268787e-08
4.34007795194e-05
-4.47920446061e-08
4.34214018298e-05
-5.55934515943e-08
4.34470011856e-05
-6.90254541783e-08
4.34787913678e-05
-8.57429676125e-08
4.35182882895e-05
-1.06571518218e-07
4.35673900014e-05
-1.32555965354e-07
4.36284780143e-05
-1.65025882021e-07
4.37045482705e-05
-2.05683263905e-07
4.3799385771e-05
-2.56722973651e-07
4.39177930236e-05
-3.2100396017e-07
4.40658963759e-05
-4.02294561354e-07
4.42515692155e-05
-5.05635324502e-07
4.44850149052e-05
-6.37897432704e-07
4.47795908559e-05
-8.08674414597e-07
4.51529730596e-05
-1.03176574145e-06
4.56287745779e-05
-1.32775037083e-06
4.62386142876e-05
-1.72860927526e-06
4.70240595092e-05
-2.28617217337e-06
4.8035908673e-05
-3.08743284153e-06
4.93229079285e-05
-4.28028473907e-06
5.08890075456e-05
-6.10839730689e-06
5.25704868766e-05
-8.93576463856e-06
-1.31582963581e-05
5.37938728468e-05
5.27606080647e-05
6.19127264086e-06
5.57402419734e-05
1.28705313966e-05
5.73124206867e-05
1.46832345439e-05
5.76112276758e-05
1.37486253543e-05
5.71339453824e-05
1.16334246202e-05
5.63201498131e-05
9.26503243312e-06
5.54499602943e-05
7.09413373558e-06
5.46642506454e-05
5.28332754134e-06
5.40153004108e-05
3.85198552774e-06
5.35082006082e-05
2.75916648294e-06
5.31268596524e-05
1.94505938789e-06
5.28482988335e-05
1.34999524017e-06
5.26496344829e-05
9.21939865182e-07
5.25109712404e-05
6.18465982218e-07
5.24162082278e-05
4.06335047406e-07
5.23528826682e-05
2.60199780292e-07
5.23116407174e-05
1.61114789723e-07
5.22856235883e-05
9.51466867765e-08
5.22698969987e-05
5.21888281617e-08
5.22609708215e-05
2.50006106075e-08
5.22564180727e-05
8.45511478519e-09
5.22545685918e-05
-1.03846769868e-09
5.22543184806e-05
-5.98538163246e-09
5.22549309334e-05
-8.06576869873e-09
5.22559412437e-05
-8.43493578426e-09
5.22570664511e-05
-7.85353630842e-09
5.22581453403e-05
-6.81262692197e-09
5.22590961796e-05
-5.61793449691e-09
5.22598873336e-05
-4.44934915867e-09
5.22605170278e-05
-3.40289811601e-09
5.22609997784e-05
-2.52021538598e-09
5.22613575885e-05
-1.80920344137e-09
5.22616144087e-05
-1.25834511554e-09
5.2261792881e-05
-8.46336673209e-10
5.22619127518e-05
-5.48372147689e-10
5.22619902986e-05
-3.40043475821e-10
5.22620383128e-05
-1.99471326733e-10
5.22620664917e-05
-1.08246974567e-10
5.22620819205e-05
-5.16747027281e-11
5.22620894945e-05
-1.855205973e-11
5.22620923412e-05
-7.15734418927e-13
5.22620927396e-05
7.73430316556e-12
5.22620918659e-05
1.06410115022e-11
5.22620904825e-05
1.06044289732e-11
5.22620890589e-05
9.19349616682e-12
5.22620877844e-05
7.29432621981e-12
5.22620867054e-05
5.41964072122e-12
5.22620858849e-05
3.79654376194e-12
5.2262085283e-05
2.45064964663e-12
5.22620847549e-05
1.39299496488e-12
5.22620841818e-05
6.41908325012e-13
5.22620837144e-05
1.7187149532e-13
5.22620833985e-05
-2.27764931442e-13
5.22620832811e-05
-5.21876217375e-13
5.22620832642e-05
-6.83800575259e-13
5.22620832765e-05
-8.35594953821e-13
5.22620833069e-05
-1.01383271527e-12
5.22620833369e-05
-1.21650800276e-12
5.22620833012e-05
-1.38410852119e-12
5.22620832353e-05
-1.48179157306e-12
5.22620831839e-05
-1.57093034662e-12
5.22620830596e-05
-1.65694020912e-12
5.22620828773e-05
-1.68068860261e-12
5.22620827468e-05
-1.70376546525e-12
5.22620826026e-05
-1.78525248026e-12
5.22620824109e-05
-1.83114794428e-12
5.22620822885e-05
-1.80728090642e-12
5.22620821876e-05
-1.79302323858e-12
5.22620820113e-05
-1.79189840337e-12
5.22620818666e-05
-1.80232815644e-12
5.22620817961e-05
-1.86770882217e-12
5.22620817271e-05
-1.95993370308e-12
5.22620817071e-05
-2.05181779339e-12
5.22620817359e-05
-2.1828159224e-12
5.22620817594e-05
-2.33821266558e-12
5.2262081866e-05
-2.49162286998e-12
5.22620820216e-05
-2.66195688918e-12
5.22620820867e-05
-2.80188326418e-12
5.22620821799e-05
-2.90310769198e-12
5.22620823543e-05
-3.07159323668e-12
5.22620824231e-05
-3.28226175721e-12
5.22620824571e-05
-3.44328913544e-12
5.22620826017e-05
-3.64687281262e-12
5.22620826854e-05
-3.96473351721e-12
5.22620827098e-05
-4.30620896109e-12
5.2262082898e-05
-4.68940424568e-12
5.22620831803e-05
-5.16954202994e-12
5.22620834815e-05
-5.63423914045e-12
5.22620839121e-05
-6.06318788928e-12
5.22620844096e-05
-6.57271045368e-12
5.22620849463e-05
-7.16601805486e-12
5.22620857002e-05
-7.82429188803e-12
5.22620866867e-05
-8.60921672111e-12
5.22620879004e-05
-9.57511540387e-12
5.22620895048e-05
-1.08142148321e-11
5.22620914796e-05
-1.23740943709e-11
5.22620938557e-05
-1.41847825455e-11
5.22620969328e-05
-1.63822985948e-11
5.22621007568e-05
-1.92427206732e-11
5.2262105398e-05
-2.28269847579e-11
5.22621113069e-05
-2.71568827528e-11
5.2262118808e-05
-3.2504875443e-11
5.2262128061e-05
-3.91029554484e-11
5.22621395783e-05
-4.72386823866e-11
5.22621540376e-05
-5.73973933933e-11
5.22621719748e-05
-6.99708175182e-11
5.22621942075e-05
-8.53848240925e-11
5.22622218804e-05
-1.04502505065e-10
5.22622561377e-05
-1.28320830746e-10
5.22622985725e-05
-1.57804174325e-10
5.22623511918e-05
-1.94277569213e-10
5.2262416334e-05
-2.39383217078e-10
5.22624970151e-05
-2.95243752895e-10
5.22625969191e-05
-3.64509526586e-10
5.22627206059e-05
-4.50334074936e-10
5.22628737729e-05
-5.56510084299e-10
5.22630635305e-05
-6.87857968392e-10
5.22632987015e-05
-8.50615043663e-10
5.22635899622e-05
-1.05242875039e-09
5.22639508405e-05
-1.30257126408e-09
5.22643980002e-05
-1.61247641019e-09
5.22649521136e-05
-1.99640197586e-09
5.22656388637e-05
-2.4722765646e-09
5.22664894715e-05
-3.06229885514e-09
5.22675434805e-05
-3.79389659223e-09
5.22688497551e-05
-4.70121303416e-09
5.22704682318e-05
-5.82614145062e-09
5.22724738076e-05
-7.22059888957e-09
5.22749592381e-05
-8.94919754231e-09
5.22780399073e-05
-1.10922223382e-08
5.22818582792e-05
-1.37493430277e-08
5.22865908409e-05
-1.70438270234e-08
5.22924575681e-05
-2.11290850614e-08
5.22997306482e-05
-2.6196252489e-08
5.23087477541e-05
-3.24825809171e-08
5.23199282458e-05
-4.02830104735e-08
5.23337931938e-05
-4.9965263642e-08
5.23509898048e-05
-6.19883909137e-08
5.23723217681e-05
-7.69254296986e-08
5.23987894854e-05
-9.5493263195e-08
5.24316381823e-05
-1.18591520159e-07
5.24724186972e-05
-1.47351937419e-07
5.25230655983e-05
-1.83203009699e-07
5.25859956719e-05
-2.27956194925e-07
5.26642324886e-05
-2.83920461825e-07
5.27615672514e-05
-3.54057980188e-07
5.28827648257e-05
-4.42201481953e-07
5.30338287262e-05
-5.53358697553e-07
5.32223469938e-05
-6.9415340843e-07
5.34579328327e-05
-8.73483331128e-07
5.37527816836e-05
-1.10352358326e-06
5.41223267736e-05
-1.40131045905e-06
5.45858765591e-05
-1.79130022326e-06
5.51668329882e-05