/*--------------------------------*- C++ -*----------------------------------*\
| =========                 |                                                 |
| \\      /  F ield         | OpenFOAM: The Open Source CFD Toolbox           |
|  \\    /   O peration     | Version:  2106                                  |
|   \\  /    A nd           | Website:  www.openfoam.com                      |
|    \\/     M anipulation  |                                                 |
\*---------------------------------------------------------------------------*/
FoamFile
{
    version     2.0;
    format      ascii;
    arch        "LSB;label=32;scalar=64";
    class       volVectorField;
    location    "0.08";
    object      U;
}
// * * * * * * * * * * * * * * * * * * * * * * * * * * * * * * * * * * * * * //

dimensions      [0 1 -1 0 0 0 0];

internalField   nonuniform List<vector> 
9600
(
(0.675396177021 0.157677443052 0)
(0.563826065778 0.102430845744 0)
(0.381538658427 0.0510647650509 0)
(0.283852718305 0.024459078286 0)
(0.232280381753 0.0119349161852 0)
(0.201906992186 0.00623043732971 0)
(0.183177883154 0.00352195567573 0)
(0.171272125892 0.00211999977714 0)
(0.163513758165 0.00132499148729 0)
(0.158396543918 0.000840975621753 0)
(0.155018214566 0.000533350894529 0)
(0.152802631804 0.000333894705628 0)
(0.151368145485 0.000203981059706 0)
(0.150457230479 0.000119847970482 0)
(0.149894649536 6.61071451034e-05 0)
(0.149561007862 3.25163484117e-05 0)
(0.149375278207 1.21795959137e-05 0)
(0.149282889418 4.48967655477e-07 0)
(0.14924748323 -5.7755974465e-06 0)
(0.149245292149 -8.52339408149e-06 0)
(0.149260885447 -9.35767990812e-06 0)
(0.149284559481 -9.0264713937e-06 0)
(0.149310561286 -8.08175803436e-06 0)
(0.149335550993 -6.88459124535e-06 0)
(0.14935780308 -5.64868209669e-06 0)
(0.149376611747 -4.49281563199e-06 0)
(0.149391883358 -3.47626959117e-06 0)
(0.149403868924 -2.62176217054e-06 0)
(0.149412990108 -1.92972157343e-06 0)
(0.14941972916 -1.38741621284e-06 0)
(0.149424562824 -9.75526547429e-07 0)
(0.149427924358 -6.7217539355e-07 0)
(0.149430184707 -4.5535424247e-07 0)
(0.149431647293 -3.04979773538e-07 0)
(0.149432550568 -2.03829362162e-07 0)
(0.149433074878 -1.37251407543e-07 0)
(0.149433352391 -9.3221355059e-08 0)
(0.149433477932 -6.32962989878e-08 0)
(0.149433517106 -4.45974453919e-08 0)
(0.149433508231 -3.96239975391e-08 0)
(0.149433476347 -4.49940951425e-08 0)
(0.149433438986 -5.2083496365e-08 0)
(0.149433403513 -5.87841570208e-08 0)
(0.149433373097 -6.51880014518e-08 0)
(0.149433348137 -7.13341304409e-08 0)
(0.14943332789 -7.72339577307e-08 0)
(0.149433311992 -8.33979646441e-08 0)
(0.149433299659 -9.04311442211e-08 0)
(0.149433289557 -9.86086453482e-08 0)
(0.149433281211 -1.07780409673e-07 0)
(0.149433274375 -1.1772051732e-07 0)
(0.149433268027 -1.27910080969e-07 0)
(0.14943326218 -1.38343546145e-07 0)
(0.149433257952 -1.49586223651e-07 0)
(0.149433255313 -1.61655065762e-07 0)
(0.149433253586 -1.74103213531e-07 0)
(0.149433252547 -1.86897078061e-07 0)
(0.149433251632 -2.00325489928e-07 0)
(0.14943325006 -2.14742145523e-07 0)
(0.149433247279 -2.30439283092e-07 0)
(0.149433242774 -2.47429702383e-07 0)
(0.149433237105 -2.65910959467e-07 0)
(0.149433231501 -2.86098289977e-07 0)
(0.149433225698 -3.07313666146e-07 0)
(0.149433219361 -3.29100997825e-07 0)
(0.149433213464 -3.52346783828e-07 0)
(0.149433207535 -3.77515428798e-07 0)
(0.149433200419 -4.0408705881e-07 0)
(0.149433193431 -4.3230169665e-07 0)
(0.149433187651 -4.6256108457e-07 0)
(0.149433182163 -4.94185872036e-07 0)
(0.149433177391 -5.26869869431e-07 0)
(0.14943317425 -5.61197791581e-07 0)
(0.149433171368 -5.97482428146e-07 0)
(0.149433167674 -6.35906668088e-07 0)
(0.149433163674 -6.76545605144e-07 0)
(0.149433159609 -7.19011051249e-07 0)
(0.149433155882 -7.63496573262e-07 0)
(0.149433152264 -8.10569607485e-07 0)
(0.149433147278 -8.5998966982e-07 0)
(0.149433141721 -9.11744122267e-07 0)
(0.149433137379 -9.66136237468e-07 0)
(0.149433132833 -1.0224964641e-06 0)
(0.149433127309 -1.08086859088e-06 0)
(0.149433122584 -1.14262365007e-06 0)
(0.149433117796 -1.20744960035e-06 0)
(0.149433111539 -1.27413897677e-06 0)
(0.149433105774 -1.34364480487e-06 0)
(0.149433100515 -1.41689863025e-06 0)
(0.149433093411 -1.49290467373e-06 0)
(0.149433085654 -1.57152225553e-06 0)
(0.149433079293 -1.6538381031e-06 0)
(0.149433074074 -1.73967197093e-06 0)
(0.149433070833 -1.82785924046e-06 0)
(0.149433070403 -1.91782692243e-06 0)
(0.149433071622 -2.01017865717e-06 0)
(0.149433074261 -2.10621719711e-06 0)
(0.149433078422 -2.20573243415e-06 0)
(0.14943308432 -2.30700403014e-06 0)
(0.149433095298 -2.40982198198e-06 0)
(0.149433112897 -2.5146066377e-06 0)
(0.149433134972 -2.62071804127e-06 0)
(0.149433163395 -2.72815739856e-06 0)
(0.149433202652 -2.83779548617e-06 0)
(0.149433254085 -2.94997383277e-06 0)
(0.149433319116 -3.06512846197e-06 0)
(0.149433401111 -3.1838579167e-06 0)
(0.149433502848 -3.30561738155e-06 0)
(0.149433629605 -3.43103230714e-06 0)
(0.149433790658 -3.56626405331e-06 0)
(0.149433995158 -3.71905799046e-06 0)
(0.149434251212 -3.88418766919e-06 0)
(0.149434570058 -4.05950063871e-06 0)
(0.149434965939 -4.24523108568e-06 0)
(0.149435456822 -4.44173734883e-06 0)
(0.149436066591 -4.64884023667e-06 0)
(0.149436824241 -4.86704776495e-06 0)
(0.149437765366 -5.09837792084e-06 0)
(0.149438934215 -5.34629251931e-06 0)
(0.149440383977 -5.61484076703e-06 0)
(0.149442177876 -5.90555551789e-06 0)
(0.149444398557 -6.22012378247e-06 0)
(0.149447159724 -6.57101139683e-06 0)
(0.149450618274 -7.00796858158e-06 0)
(0.149454912239 -7.64464503218e-06 0)
(0.149460194365 -8.45914664922e-06 0)
(0.149466717166 -9.40341680953e-06 0)
(0.149474800036 -1.04688256482e-05 0)
(0.149484815078 -1.16643431084e-05 0)
(0.149497222219 -1.30069694684e-05 0)
(0.149512596907 -1.45213403405e-05 0)
(0.14953165173 -1.62389745792e-05 0)
(0.14955526753 -1.81957318536e-05 0)
(0.149584535112 -2.0435426945e-05 0)
(0.149620817043 -2.30198194037e-05 0)
(0.149665804857 -2.60263792122e-05 0)
(0.149721592781 -2.95475647034e-05 0)
(0.149790789114 -3.37002018746e-05 0)
(0.149876648691 -3.8636566951e-05 0)
(0.149983230211 -4.45514463031e-05 0)
(0.150115594911 -5.16857582043e-05 0)
(0.150280079324 -6.03461503464e-05 0)
(0.150484639446 -7.09300453594e-05 0)
(0.150739279893 -8.39453552997e-05 0)
(0.151056631394 -0.000100046595567 0)
(0.151452717671 -0.000120084218358 0)
(0.151947971956 -0.000145162499966 0)
(0.152568635921 -0.000176733154347 0)
(0.153348694063 -0.000216721268924 0)
(0.154332593454 -0.00026769519477 0)
(0.155579233961 -0.000333119065229 0)
(0.157168060356 -0.000417803546214 0)
(0.159209193722 -0.000529159565895 0)
(0.161863326493 -0.00068169719319 0)
(0.165388631012 -0.000914732408593 0)
(0.170257917376 -0.00135915494049 0)
(0.177513485129 -0.00248476439509 0)
(0.190247900787 -0.00606902504634 0)
(0.218189067138 -0.019039333783 0)
(0.28083535925 -0.0680848932539 0)
(0.977201151411 0.296997192325 0)
(0.962687288077 0.250387446932 0)
(0.82064558229 0.158581260849 0)
(0.69782420598 0.0957995862918 0)
(0.610490955063 0.0579133786407 0)
(0.549133054226 0.0359036334395 0)
(0.506707036063 0.0229301332567 0)
(0.477665749829 0.0149771455706 0)
(0.457823668395 0.00990667109837 0)
(0.444293277703 0.0065785120528 0)
(0.43511327546 0.00435507291208 0)
(0.428935785806 0.00285749779923 0)
(0.424826523787 0.00184781237214 0)
(0.422135146051 0.00117008937877 0)
(0.420408388051 0.000719244543653 0)
(0.419330951408 0.000423286234314 0)
(0.418684580911 0.000232515364799 0)
(0.41831930755 0.000112573571392 0)
(0.418133077035 3.9791520919e-05 0)
(0.41805720673 -2.03059029745e-06 0)
(0.418046193171 -2.41350501838e-05 0)
(0.418070565664 -3.38394107893e-05 0)
(0.418111614527 -3.60783456998e-05 0)
(0.418157905429 -3.41109046553e-05 0)
(0.418202855253 -3.00351694513e-05 0)
(0.418243030786 -2.51600468443e-05 0)
(0.418276987855 -2.02661183455e-05 0)
(0.418304488059 -1.57859807528e-05 0)
(0.418325975402 -1.19261528274e-05 0)
(0.418342232235 -8.74958625691e-06 0)
(0.418354160934 -6.23308506485e-06 0)
(0.418362651481 -4.30628542546e-06 0)
(0.418368506715 -2.87730060806e-06 0)
(0.418372408034 -1.85009364798e-06 0)
(0.41837490761 -1.13511567283e-06 0)
(0.418376435031 -6.5415990483e-07 0)
(0.418377311867 -3.42514247656e-07 0)
(0.418377769707 -1.50081380704e-07 0)
(0.418377967726 -4.09548061235e-08 0)
(0.418378012146 1.09652912447e-08 0)
(0.418377982721 3.53416925635e-08 0)
(0.418377926575 4.11248638505e-08 0)
(0.418377862029 3.70214508063e-08 0)
(0.41837780023 2.81741557002e-08 0)
(0.418377746394 1.75991540678e-08 0)
(0.418377701256 7.41652616842e-09 0)
(0.418377664246 -1.57717536343e-09 0)
(0.418377634248 -8.86049305289e-09 0)
(0.418377609829 -1.33590684384e-08 0)
(0.41837759018 -1.59314744911e-08 0)
(0.418377574767 -1.86821408219e-08 0)
(0.418377561827 -2.15963508155e-08 0)
(0.418377549906 -2.42032076632e-08 0)
(0.418377539602 -2.69330188023e-08 0)
(0.418377531433 -2.99265079957e-08 0)
(0.418377524645 -3.25704064685e-08 0)
(0.418377518338 -3.4813605834e-08 0)
(0.41837751157 -3.70195155788e-08 0)
(0.41837750351 -3.96307847109e-08 0)
(0.418377493824 -4.29331002926e-08 0)
(0.418377481957 -4.6401369098e-08 0)
(0.418377468171 -4.97235512343e-08 0)
(0.418377454312 -5.33863372181e-08 0)
(0.418377440723 -5.68118902714e-08 0)
(0.418377426015 -5.92272386552e-08 0)
(0.418377410557 -6.19337561784e-08 0)
(0.418377394925 -6.5760712434e-08 0)
(0.418377377988 -6.95859519077e-08 0)
(0.418377360229 -7.32399378491e-08 0)
(0.418377343407 -7.76493343507e-08 0)
(0.418377327185 -8.20510557763e-08 0)
(0.418377311109 -8.5859665613e-08 0)
(0.418377295795 -9.01294113834e-08 0)
(0.418377280341 -9.53104724856e-08 0)
(0.418377263805 -1.01233859032e-07 0)
(0.418377246862 -1.07674799844e-07 0)
(0.418377229464 -1.13736190506e-07 0)
(0.418377211402 -1.19739967511e-07 0)
(0.418377192991 -1.26932485962e-07 0)
(0.418377173152 -1.34413189601e-07 0)
(0.418377152098 -1.41364916118e-07 0)
(0.41837713221 -1.48897466145e-07 0)
(0.418377112566 -1.56638065962e-07 0)
(0.418377090972 -1.64155328732e-07 0)
(0.418377069375 -1.73562838239e-07 0)
(0.418377048814 -1.84739775612e-07 0)
(0.418377027015 -1.95162760146e-07 0)
(0.418377004426 -2.05733713338e-07 0)
(0.418376982633 -2.18020965363e-07 0)
(0.418376960253 -2.30295924098e-07 0)
(0.418376937143 -2.42158269131e-07 0)
(0.418376915689 -2.554290071e-07 0)
(0.418376897554 -2.69931691624e-07 0)
(0.418376883979 -2.8447138227e-07 0)
(0.418376874952 -2.98866366788e-07 0)
(0.418376868915 -3.13889969058e-07 0)
(0.418376867113 -3.31741046677e-07 0)
(0.418376872241 -3.53071217856e-07 0)
(0.418376884924 -3.76281762666e-07 0)
(0.418376908293 -4.03688726377e-07 0)
(0.418376946354 -4.36592430531e-07 0)
(0.418376999474 -4.73521755996e-07 0)
(0.418377070463 -5.13934129592e-07 0)
(0.418377165972 -5.5939424334e-07 0)
(0.41837729105 -6.10709839515e-07 0)
(0.418377451453 -6.69215739817e-07 0)
(0.418377656855 -7.36983384546e-07 0)
(0.418377916493 -8.12396339878e-07 0)
(0.41837823797 -8.9174620561e-07 0)
(0.418378634452 -9.72262831222e-07 0)
(0.418379138143 -1.04943282051e-06 0)
(0.41837978085 -1.13399683215e-06 0)
(0.418380588335 -1.23294357198e-06 0)
(0.418381596981 -1.35169341181e-06 0)
(0.418382854818 -1.49545408417e-06 0)
(0.418384421458 -1.67015004256e-06 0)
(0.418386368859 -1.88306199918e-06 0)
(0.418388786558 -2.1442896168e-06 0)
(0.418391787126 -2.46869106837e-06 0)
(0.41839551169 -2.87596443565e-06 0)
(0.418400132195 -3.38495325078e-06 0)
(0.41840585726 -4.01676029938e-06 0)
(0.418412937597 -4.80726101648e-06 0)
(0.418421672709 -5.8280971106e-06 0)
(0.418432495042 -7.2114502415e-06 0)
(0.418445965783 -9.00422371377e-06 0)
(0.418462713444 -1.12496250494e-05 0)
(0.418483505152 -1.40402850756e-05 0)
(0.418509296157 -1.74986536913e-05 0)
(0.418541274935 -2.1776762236e-05 0)
(0.418580922595 -2.70667496964e-05 0)
(0.418630081793 -3.36101925486e-05 0)
(0.418691036797 -4.17040575394e-05 0)
(0.418766610825 -5.17096393067e-05 0)
(0.418860317102 -6.40832628209e-05 0)
(0.418976529106 -7.93982829126e-05 0)
(0.419120674608 -9.83619844368e-05 0)
(0.419299502919 -0.000121852118252 0)
(0.41952142674 -0.000150972944533 0)
(0.419796943308 -0.000187118892083 0)
(0.420139155406 -0.000232040144747 0)
(0.42056445604 -0.000287947795037 0)
(0.421093417569 -0.000357660752073 0)
(0.421751919735 -0.000444784371314 0)
(0.422572638368 -0.000553962371511 0)
(0.423597037922 -0.00069123750339 0)
(0.424878027485 -0.000864542879668 0)
(0.426483614382 -0.00108442982458 0)
(0.428502058021 -0.00136518845595 0)
(0.431049311078 -0.00172659146875 0)
(0.434280262949 -0.00219683718276 0)
(0.438406546251 -0.00281801353287 0)
(0.443726564762 -0.00365753897132 0)
(0.450680371221 -0.00483534929192 0)
(0.459957738284 -0.00659604528042 0)
(0.47270623075 -0.00950965092198 0)
(0.490919553915 -0.0150332706942 0)
(0.518423752099 -0.027146211454 0)
(0.562830257937 -0.0571436660003 0)
(0.629801400752 -0.133552484607 0)
(1.03387036198 0.239241127748 0)
(1.08314066203 0.293634736627 0)
(1.03294402394 0.239132351489 0)
(0.954407772133 0.174539274213 0)
(0.880112454296 0.12155119561 0)
(0.818678547545 0.0832322780208 0)
(0.771470044954 0.056822742623 0)
(0.736699048051 0.0388068684082 0)
(0.711686446702 0.0264819794683 0)
(0.693977778467 0.018009584381 0)
(0.681607344314 0.012168047542 0)
(0.673077056965 0.00814064147243 0)
(0.667275231759 0.00537304477779 0)
(0.663390630379 0.00348314102692 0)
(0.660838167104 0.00220441894234 0)
(0.659200047592 0.00134975320456 0)
(0.658180823268 0.000787482483778 0)
(0.657573664 0.000425112581504 0)
(0.657235348187 0.000197937205289 0)
(0.657067850395 6.09492159033e-05 0)
(0.657005021037 -1.6865565977e-05 0)
(0.657003078555 -5.66504357124e-05 0)
(0.657033574081 -7.28520951726e-05 0)
(0.657078539998 -7.50223539497e-05 0)
(0.657127122228 -6.94470512072e-05 0)
(0.657173187583 -6.01670587247e-05 0)
(0.657213657432 -4.96868644022e-05 0)
(0.657247369213 -3.94781908435e-05 0)
(0.657274305349 -3.03289448825e-05 0)
(0.657295076224 -2.25835648101e-05 0)
(0.657310582886 -1.63101446073e-05 0)
(0.657321805638 -1.14162168184e-05 0)
(0.657329678271 -7.72653587809e-06 0)
(0.657335021931 -5.03414829883e-06 0)
(0.657338519417 -3.1331454088e-06 0)
(0.657340713362 -1.83732974186e-06 0)
(0.65734201791 -9.88750209762e-07 0)
(0.657342738283 -4.60098709082e-07 0)
(0.65734309236 -1.5175289815e-07 0)
(0.657343232041 1.4829616424e-08 0)
(0.657343251468 1.01571469674e-07 0)
(0.657343208167 1.38017516472e-07 0)
(0.65734314195 1.43901695965e-07 0)
(0.657343072431 1.33891107544e-07 0)
(0.657343009122 1.16895344383e-07 0)
(0.65734295517 9.85712682876e-08 0)
(0.657342911206 8.18836745172e-08 0)
(0.657342877107 6.78203517719e-08 0)
(0.657342850117 5.73065930258e-08 0)
(0.657342826506 5.02697717316e-08 0)
(0.657342805998 4.58352884357e-08 0)
(0.657342788761 4.39554069511e-08 0)
(0.65734277353 4.45243584718e-08 0)
(0.657342760165 4.72485508389e-08 0)
(0.657342749055 5.11132132611e-08 0)
(0.657342739534 5.55634882715e-08 0)
(0.657342730556 6.02642453689e-08 0)
(0.657342721064 6.50600804893e-08 0)
(0.657342710169 7.00278252779e-08 0)
(0.657342697902 7.47997707747e-08 0)
(0.657342683994 7.97087217445e-08 0)
(0.657342667991 8.58803661192e-08 0)
(0.657342651262 9.27499204503e-08 0)
(0.657342634666 9.9337450368e-08 0)
(0.65734261664 1.06601428047e-07 0)
(0.657342597118 1.1466746134e-07 0)
(0.657342577474 1.22397378112e-07 0)
(0.657342557021 1.31020975667e-07 0)
(0.657342535215 1.41560856311e-07 0)
(0.657342513583 1.52660749149e-07 0)
(0.657342492514 1.6382985098e-07 0)
(0.657342471252 1.75819260903e-07 0)
(0.657342450229 1.88180001226e-07 0)
(0.65734242914 2.00661796899e-07 0)
(0.657342407187 2.1390511589e-07 0)
(0.657342385052 2.27907155658e-07 0)
(0.657342362361 2.42918539001e-07 0)
(0.657342338083 2.5899521692e-07 0)
(0.657342313307 2.75041604464e-07 0)
(0.657342288097 2.91868522124e-07 0)
(0.657342261362 3.11235654909e-07 0)
(0.657342234631 3.31617158872e-07 0)
(0.657342208139 3.5173135405e-07 0)
(0.657342179456 3.7318577302e-07 0)
(0.657342150045 3.95586638681e-07 0)
(0.657342122428 4.17346355693e-07 0)
(0.657342094379 4.3994976713e-07 0)
(0.657342065058 4.64361747071e-07 0)
(0.657342036986 4.89459092172e-07 0)
(0.657342009593 5.15944835881e-07 0)
(0.657341981545 5.44719723867e-07 0)
(0.657341954998 5.74893088322e-07 0)
(0.657341932252 6.06321032514e-07 0)
(0.65734191469 6.38809438205e-07 0)
(0.657341902939 6.71386005538e-07 0)
(0.657341895626 7.04637279446e-07 0)
(0.657341893641 7.38621902806e-07 0)
(0.657341900416 7.72267127432e-07 0)
(0.657341915712 8.07579656108e-07 0)
(0.657341943331 8.46877860516e-07 0)
(0.657341991447 8.85069333764e-07 0)
(0.657342063053 9.20493234018e-07 0)
(0.657342161353 9.54286775094e-07 0)
(0.657342294189 9.84242172526e-07 0)
(0.657342468905 1.00809712308e-06 0)
(0.657342693568 1.02474697052e-06 0)
(0.65734298344 1.03043991249e-06 0)
(0.65734335754 1.02180357694e-06 0)
(0.657343836002 9.98403951246e-07 0)
(0.657344445668 9.60152157382e-07 0)
(0.657345207993 9.08022797703e-07 0)
(0.65734614941 8.27363505206e-07 0)
(0.657347319203 7.05901922771e-07 0)
(0.657348775179 5.30775911208e-07 0)
(0.657350586255 2.85998265176e-07 0)
(0.657352837505 -4.92864439326e-08 0)
(0.657355633107 -4.99556434908e-07 0)
(0.657359100826 -1.09312599876e-06 0)
(0.657363398819 -1.8657023781e-06 0)
(0.657368727491 -2.86523372798e-06 0)
(0.657375336319 -4.15075966214e-06 0)
(0.657383531108 -5.79354238377e-06 0)
(0.657393689235 -7.88243354023e-06 0)
(0.657406273416 -1.05216071468e-05 0)
(0.65742186469 -1.3827929996e-05 0)
(0.657441184674 -1.79887097324e-05 0)
(0.657465120296 -2.32377184693e-05 0)
(0.657494782869 -2.98573155746e-05 0)
(0.65753154957 -3.81905776231e-05 0)
(0.657577122067 -4.86578757655e-05 0)
(0.657633609767 -6.17797698269e-05 0)
(0.657703631308 -7.8207527242e-05 0)
(0.657790441372 -9.87564348207e-05 0)
(0.657898070609 -0.000124428496442 0)
(0.658031521274 -0.000156466470649 0)
(0.658197016018 -0.000196427687921 0)
(0.658402289628 -0.000246251494525 0)
(0.658656957565 -0.000308349551337 0)
(0.658972988266 -0.000385738466121 0)
(0.659365307407 -0.000482212095787 0)
(0.659852542418 -0.000602544124403 0)
(0.660457974057 -0.000752758975943 0)
(0.661210776297 -0.000940509346775 0)
(0.662147602098 -0.00117557061886 0)
(0.663314642323 -0.00147051234804 0)
(0.664770361422 -0.00184165875576 0)
(0.666589153498 -0.00231043819173 0)
(0.66886629884 -0.00290535430829 0)
(0.671724867966 -0.00366503162959 0)
(0.675325581331 -0.00464301115451 0)
(0.679881347231 -0.00591582787783 0)
(0.685679447096 -0.00759756134321 0)
(0.693116644314 -0.00986791656942 0)
(0.702756506028 -0.0130304926325 0)
(0.715424566615 -0.0176409036529 0)
(0.732351458698 -0.0247966175048 0)
(0.755322563831 -0.0367734260481 0)
(0.786779678447 -0.0583441844322 0)
(0.829383037051 -0.0993520102151 0)
(0.879371188321 -0.177124406419 0)
(1.03384126567 0.171307166355 0)
(1.10231576649 0.275557215054 0)
(1.11663606555 0.266312837268 0)
(1.09207921367 0.219892660872 0)
(1.05195472609 0.168209337889 0)
(1.01022413198 0.123612418066 0)
(0.973512341682 0.0888790107378 0)
(0.943895196777 0.0630388267589 0)
(0.9211792929 0.0442439420134 0)
(0.904326904852 0.0307496954606 0)
(0.892127846421 0.0211488915792 0)
(0.883472199329 0.0143726505937 0)
(0.877440290632 0.00962968419297 0)
(0.873310819972 0.00634083453351 0)
(0.870536937077 0.00408486222449 0)
(0.868713729047 0.0025569927375 0)
(0.867546811001 0.00153796954287 0)
(0.866825433032 0.000871090066034 0)
(0.866400822512 0.000445183053618 0)
(0.866169379875 0.000182007207024 0)
(0.866060057208 2.70270279755e-05 0)
(0.86602481075 -5.73928646789e-05 0)
(0.866031809811 -9.71612203279e-05 0)
(0.866060564164 -0.000109620521239 0)
(0.866098193901 -0.000106339846198 0)
(0.866137045539 -9.48707308195e-05 0)
(0.866172917032 -7.99901978875e-05 0)
(0.866203821567 -6.45900446472e-05 0)
(0.866229146404 -5.0298887059e-05 0)
(0.866249080025 -3.79153419549e-05 0)
(0.866264229923 -2.77104361311e-05 0)
(0.866275377084 -1.96382334777e-05 0)
(0.866283324588 -1.34794234512e-05 0)
(0.866288811186 -8.93628096423e-06 0)
(0.866292470214 -5.6940790009e-06 0)
(0.866294817198 -3.45798168049e-06 0)
(0.866296253752 -1.9716039247e-06 0)
(0.866297081205 -1.02407698109e-06 0)
(0.86629751815 -4.49840582578e-07 0)
(0.86629771885 -1.24161105005e-07 0)
(0.866297784354 4.05716890378e-08 0)
(0.866297774458 1.10128798018e-07 0)
(0.866297728261 1.2619285606e-07 0)
(0.866297670395 1.14684910376e-07 0)
(0.86629761335 9.08823454093e-08 0)
(0.866297562162 6.39396056939e-08 0)
(0.86629751796 3.89605603664e-08 0)
(0.866297481042 1.73036753519e-08 0)
(0.866297450612 -9.76381631796e-10 0)
(0.866297425107 -1.48368796664e-08 0)
(0.866297404283 -2.42756910752e-08 0)
(0.866297386835 -3.23604522706e-08 0)
(0.866297370845 -3.98331997274e-08 0)
(0.866297355936 -4.63888570259e-08 0)
(0.866297342244 -5.17716032879e-08 0)
(0.866297329395 -5.67211190458e-08 0)
(0.866297316664 -6.19641482418e-08 0)
(0.866297303265 -6.77088093602e-08 0)
(0.866297288062 -7.35403934214e-08 0)
(0.866297270887 -7.96216892716e-08 0)
(0.866297252309 -8.60992885087e-08 0)
(0.866297231738 -9.19152446036e-08 0)
(0.866297209304 -9.71330075126e-08 0)
(0.866297186606 -1.03272273034e-07 0)
(0.866297163179 -1.09986263452e-07 0)
(0.866297137804 -1.16282197001e-07 0)
(0.866297111956 -1.22893504156e-07 0)
(0.866297086113 -1.295779755e-07 0)
(0.866297058652 -1.35548512988e-07 0)
(0.866297030169 -1.41884481512e-07 0)
(0.866297001926 -1.49595573273e-07 0)
(0.866296973461 -1.58085717452e-07 0)
(0.866296944762 -1.67412250467e-07 0)
(0.866296915849 -1.77859119627e-07 0)
(0.866296885855 -1.88872444704e-07 0)
(0.866296855111 -2.00655800997e-07 0)
(0.866296823666 -2.13203033615e-07 0)
(0.866296790282 -2.25596092718e-07 0)
(0.866296755882 -2.38443684337e-07 0)
(0.86629672153 -2.52209980141e-07 0)
(0.866296685562 -2.65615024045e-07 0)
(0.86629664827 -2.79774574234e-07 0)
(0.86629661136 -2.96910482462e-07 0)
(0.866296573061 -3.15417722578e-07 0)
(0.866296532703 -3.34190221565e-07 0)
(0.866296493034 -3.55505273682e-07 0)
(0.866296453907 -3.79255419527e-07 0)
(0.866296413805 -4.0328395e-07 0)
(0.86629637431 -4.27892003222e-07 0)
(0.86629633594 -4.53687546121e-07 0)
(0.866296297828 -4.802594617e-07 0)
(0.866296261948 -5.08224791349e-07 0)
(0.866296230461 -5.38301858547e-07 0)
(0.866296204082 -5.71423600933e-07 0)
(0.866296184112 -6.09426583953e-07 0)
(0.866296170651 -6.52063762063e-07 0)
(0.866296164561 -6.9842300275e-07 0)
(0.866296171095 -7.50354982004e-07 0)
(0.866296194468 -8.08156159621e-07 0)
(0.866296233583 -8.69231246992e-07 0)
(0.866296291337 -9.37597796114e-07 0)
(0.866296375655 -1.0163621186e-06 0)
(0.86629649195 -1.10579781916e-06 0)
(0.866296647786 -1.20925157094e-06 0)
(0.866296853219 -1.33099073782e-06 0)
(0.866297117858 -1.47230406811e-06 0)
(0.866297456346 -1.63690774422e-06 0)
(0.866297889573 -1.83376949667e-06 0)
(0.866298438651 -2.07284468125e-06 0)
(0.866299129835 -2.36810183481e-06 0)
(0.866299997845 -2.73898096396e-06 0)
(0.866301084257 -3.19391373371e-06 0)
(0.866302441719 -3.74843216182e-06 0)
(0.86630413404 -4.4254643735e-06 0)
(0.866306239417 -5.25442836473e-06 0)
(0.866308856351 -6.27289305176e-06 0)
(0.866312107902 -7.52715479847e-06 0)
(0.866316145231 -9.07304732658e-06 0)
(0.866321152532 -1.09775047705e-05 0)
(0.866327360796 -1.33250143026e-05 0)
(0.86633505946 -1.62230785356e-05 0)
(0.86634460577 -1.9806219464e-05 0)
(0.866356441446 -2.42431470816e-05 0)
(0.866371109129 -2.97436264594e-05 0)
(0.866389286298 -3.65678116736e-05 0)
(0.866411814932 -4.50347980057e-05 0)
(0.866439729896 -5.55263141897e-05 0)
(0.866474320256 -6.85209562973e-05 0)
(0.866517187921 -8.46209888094e-05 0)
(0.866570318178 -0.000104573811243 0)
(0.866636169587 -0.000129305688985 0)
(0.866717787665 -0.000159969503425 0)
(0.86681896109 -0.000198006788432 0)
(0.866944389051 -0.000245205645497 0)
(0.867099895352 -0.000303785083014 0)
(0.867292717775 -0.000376512900275 0)
(0.867531856276 -0.000466843106389 0)
(0.867828495305 -0.000579087864176 0)
(0.868196538629 -0.000718636867224 0)
(0.868653305541 -0.000892251796251 0)
(0.869220390677 -0.00110843921087 0)
(0.869924739045 -0.00137793012235 0)
(0.870800039441 -0.00171432776863 0)
(0.871888508374 -0.00213497211349 0)
(0.873243172004 -0.00266210707058 0)
(0.874930853583 -0.00332450715586 0)
(0.877036118183 -0.00415978515862 0)
(0.879666499485 -0.00521773940298 0)
(0.882959594659 -0.00656538857204 0)
(0.887092846354 -0.00829480326015 0)
(0.892297212523 -0.0105359037113 0)
(0.898876542324 -0.0134783754651 0)
(0.907234989258 -0.0174111063869 0)
(0.917914506146 -0.022796357882 0)
(0.931640927931 -0.0304131146775 0)
(0.949356330867 -0.0416351244029 0)
(0.972143160479 -0.0589373480987 0)
(1.00084829906 -0.0866748968171 0)
(1.03491778703 -0.131916505554 0)
(1.06786704858 -0.203488092854 0)
(1.02388345493 0.119322217834 0)
(1.08875435993 0.231514912495 0)
(1.13660488655 0.252869327514 0)
(1.15406301322 0.228904766479 0)
(1.15000201995 0.188335573745 0)
(1.13537840276 0.146572728589 0)
(1.11758222208 0.110155915653 0)
(1.10060014623 0.0808224404156 0)
(1.08613616209 0.0582266329189 0)
(1.07460935909 0.0413076424441 0)
(1.06581938623 0.0288896017696 0)
(1.05932826295 0.0199163115497 0)
(1.05465565911 0.0135194263897 0)
(1.05136585247 0.00901727501233 0)
(1.04909768263 0.00588949068796 0)
(1.04756722947 0.00374646238455 0)
(1.04655902008 0.0023008347869 0)
(1.04591368256 0.00134335912534 0)
(1.04551571752 0.000723407300563 0)
(1.04528287218 0.00033371853543 0)
(1.0451575496 9.87240844047e-05 0)
(1.04509994966 -3.43298875367e-05 0)
(1.04508321129 -0.000101801798648 0)
(1.04508959904 -0.000128459706218 0)
(1.04510755557 -0.000130940876309 0)
(1.04512992977 -0.000120218639227 0)
(1.04515252316 -0.000103338887861 0)
(1.04517307365 -8.46540371738e-05 0)
(1.04519056248 -6.66947233563e-05 0)
(1.04520473388 -5.07826068799e-05 0)
(1.04521576718 -3.74597309741e-05 0)
(1.04522406073 -2.67888821596e-05 0)
(1.04523009408 -1.85607522699e-05 0)
(1.04523434415 -1.24325818203e-05 0)
(1.04523723989 -8.01833007987e-06 0)
(1.04523914278 -4.94420894654e-06 0)
(1.04524034253 -2.87842520107e-06 0)
(1.04524106182 -1.54385197361e-06 0)
(1.04524146576 -7.20370365211e-07 0)
(1.04524167198 -2.40740367821e-07 0)
(1.04524175855 1.4381623499e-08 0)
(1.04524177687 1.29997126409e-07 0)
(1.04524176054 1.66791860501e-07 0)
(1.0452417283 1.62625315104e-07 0)
(1.04524169145 1.39863634822e-07 0)
(1.04524165596 1.11369331053e-07 0)
(1.04524162379 8.46221473109e-08 0)
(1.04524159583 6.263193795e-08 0)
(1.04524157216 4.56011600374e-08 0)
(1.04524155085 3.3228318144e-08 0)
(1.04524152935 2.42177437001e-08 0)
(1.04524150779 1.65072133273e-08 0)
(1.04524148792 1.15858832359e-08 0)
(1.04524147059 9.50514442396e-09 0)
(1.04524145538 8.68633678551e-09 0)
(1.04524144071 8.06718120214e-09 0)
(1.04524142572 7.15343441555e-09 0)
(1.04524141008 5.90288443788e-09 0)
(1.04524139288 5.05222001792e-09 0)
(1.04524137379 5.04483752737e-09 0)
(1.04524135361 5.3294747151e-09 0)
(1.04524133186 6.22636506857e-09 0)
(1.04524130778 8.44414802102e-09 0)
(1.04524128256 1.08402275945e-08 0)
(1.04524125654 1.26617846938e-08 0)
(1.04524122873 1.52207794252e-08 0)
(1.04524120005 1.88423438549e-08 0)
(1.04524117116 2.24593931504e-08 0)
(1.04524114052 2.632666516e-08 0)
(1.0452411082 3.02956027589e-08 0)
(1.04524107562 3.35273055436e-08 0)
(1.04524104243 3.66074006023e-08 0)
(1.04524100849 3.99087724866e-08 0)
(1.04524097425 4.28201228201e-08 0)
(1.04524093904 4.57262093332e-08 0)
(1.04524090318 4.8817839147e-08 0)
(1.04524086724 5.17736246676e-08 0)
(1.04524082954 5.56788949149e-08 0)
(1.04524078997 6.05699246003e-08 0)
(1.04524075016 6.48560187722e-08 0)
(1.04524070863 6.9345258304e-08 0)
(1.04524066427 7.48356245242e-08 0)
(1.04524061935 7.91021489478e-08 0)
(1.04524057364 8.21210618422e-08 0)
(1.04524052554 8.58636696024e-08 0)
(1.04524047732 8.9001868535e-08 0)
(1.04524043028 9.06723115024e-08 0)
(1.04524038297 9.31345918537e-08 0)
(1.04524033604 9.65515376805e-08 0)
(1.04524029011 9.94279752763e-08 0)
(1.04524024434 1.02134570258e-07 0)
(1.04524020014 1.0455998263e-07 0)
(1.04524015936 1.05547773619e-07 0)
(1.04524012233 1.04331556516e-07 0)
(1.04524009089 9.92552849819e-08 0)
(1.04524006634 8.97094036116e-08 0)
(1.04524004875 7.66630219936e-08 0)
(1.04524004172 5.76007449808e-08 0)
(1.0452400491 2.81026115708e-08 0)
(1.04524007194 -1.43019779559e-08 0)
(1.04524011522 -7.01473366707e-08 0)
(1.04524018679 -1.42689959772e-07 0)
(1.04524029168 -2.35081028807e-07 0)
(1.04524043706 -3.52039764161e-07 0)
(1.04524063483 -5.00524770783e-07 0)
(1.04524089672 -6.85209952417e-07 0)
(1.04524123612 -9.11429278134e-07 0)
(1.04524167298 -1.19131184655e-06 0)
(1.04524223061 -1.53879222102e-06 0)
(1.04524293631 -1.96689222874e-06 0)
(1.04524382496 -2.49377056132e-06 0)
(1.04524493939 -3.14222054227e-06 0)
(1.04524633387 -3.94197988049e-06 0)
(1.04524807496 -4.92961376754e-06 0)
(1.04525024354 -6.14878596525e-06 0)
(1.04525294102 -7.65294479624e-06 0)
(1.04525629468 -9.50942516321e-06 0)
(1.04526046269 -1.1803591106e-05 0)
(1.04526563781 -1.46386175924e-05 0)
(1.0452720588 -1.81404278175e-05 0)
(1.04528002405 -2.24673052138e-05 0)
(1.04528990325 -2.78170612216e-05 0)
(1.0453021552 -3.44373792792e-05 0)
(1.0453173423 -4.26348252379e-05 0)
(1.04533616412 -5.27908420883e-05 0)
(1.0453594947 -6.53789222655e-05 0)
(1.04538840874 -8.09752711142e-05 0)
(1.04542423864 -0.000100295251924 0)
(1.04546864181 -0.00012423136776 0)
(1.04552367592 -0.000153891335287 0)
(1.0455918894 -0.000190649121268 0)
(1.04567643384 -0.000236206853502 0)
(1.04578122694 -0.0002926856718 0)
(1.04591113298 -0.000362726318266 0)
(1.04607217904 -0.000449606376954 0)
(1.04627184492 -0.000557402708777 0)
(1.04651942339 -0.000691201734229 0)
(1.04682645839 -0.000857356943209 0)
(1.04720728384 -0.00106380338939 0)
(1.04767972263 -0.00132047747611 0)
(1.04826595793 -0.00163986243801 0)
(1.04899360674 -0.00203768278157 0)
(1.04989708782 -0.00253382024774 0)
(1.05101936289 -0.00315354064361 0)
(1.05241413762 -0.00392913579056 0)
(1.05414866651 -0.00490216898547 0)
(1.05630736381 -0.00612664269491 0)