/*--------------------------------*- C++ -*----------------------------------*\
| =========                 |                                                 |
| \\      /  F ield         | OpenFOAM: The Open Source CFD Toolbox           |
|  \\    /   O peration     | Version:  2106                                  |
|   \\  /    A nd           | Website:  www.openfoam.com                      |
|    \\/     M anipulation  |                                                 |
\*---------------------------------------------------------------------------*/
FoamFile
{
    version     2.0;
    format      ascii;
    arch        "LSB;label=32;scalar=64";
    class       volVectorField;
    location    "0.495";
    object      U;
}
// * * * * * * * * * * * * * * * * * * * * * * * * * * * * * * * * * * * * * //

dimensions      [0 1 -1 0 0 0 0];

internalField   nonuniform List<vector> 
11200
(
(0.662462407964 0.150569436138 0)
(0.55894870764 0.10324338728 0)
(0.383850816168 0.0513512246709 0)
(0.283747707889 0.0248708560607 0)
(0.232075415809 0.0124170460465 0)
(0.201908765946 0.00662281757714 0)
(0.183198145696 0.00380291507552 0)
(0.171276734684 0.00231587064021 0)
(0.163510585431 0.00146450705616 0)
(0.15838908138 0.000944892851539 0)
(0.155006974911 0.000615177261611 0)
(0.152787051654 0.000402234098266 0)
(0.151346932816 0.000264232422648 0)
(0.150428726674 0.000175250248524 0)
(0.149857152943 0.000118360639875 0)
(0.149512981838 8.21597894425e-05 0)
(0.149315451198 5.88655304184e-05 0)
(0.149210118747 4.33151422719e-05 0)
(0.149160288244 3.29338225098e-05 0)
(0.149143076057 2.81852632794e-05 0)
(0.149145257696 2.76832900857e-05 0)
(0.149157557659 2.98882892601e-05 0)
(0.149173202186 3.30487207614e-05 0)
(0.149188770994 3.59645152757e-05 0)
(0.149202999542 3.86001685051e-05 0)
(0.149215287819 4.10393274033e-05 0)
(0.149225468067 4.33166451638e-05 0)
(0.149233647079 4.54632784986e-05 0)
(0.149240061477 4.75185190877e-05 0)
(0.149244993242 4.95294894947e-05 0)
(0.149248727434 5.15583626418e-05 0)
(0.149251531308 5.3696350324e-05 0)
(0.149253602002 5.60252783866e-05 0)
(0.149255109853 5.84067850709e-05 0)
(0.149256187299 6.07679067429e-05 0)
(0.149256920861 6.30890469324e-05 0)
(0.149257407528 6.53805412537e-05 0)
(0.149257730962 6.76553251314e-05 0)
(0.149257944813 6.99249526817e-05 0)
(0.149258078294 7.21955541468e-05 0)
(0.149258152428 7.44682080279e-05 0)
(0.149258184619 7.67438517865e-05 0)
(0.149258187153 7.90222016257e-05 0)
(0.149258168918 8.13021424969e-05 0)
(0.149258136311 8.3581943013e-05 0)
(0.149258094019 8.58592965032e-05 0)
(0.149258046072 8.81314550162e-05 0)
(0.149257996576 9.0395368152e-05 0)
(0.149257950097 9.26478684005e-05 0)
(0.149257911793 9.48859439212e-05 0)
(0.149257888527 9.71064236753e-05 0)
(0.149257890147 9.9306370812e-05 0)
(0.149257930151 0.000101482767469 0)
(0.149258027184 0.000103632119031 0)
(0.14925820742 0.000105750014333 0)
(0.149258507372 0.000107830890328 0)
(0.149258978809 0.000109867388851 0)
(0.149259698117 0.000111849689713 0)
(0.149260775306 0.000113765202985 0)
(0.149262368869 0.000115588688529 0)
(0.149264728356 0.000117263724306 0)
(0.14926826182 0.000118708917835 0)
(0.149273434206 0.000119965264341 0)
(0.149280895518 0.000121227946366 0)
(0.149291680542 0.000122963184439 0)
(0.149307311834 0.000125340071205 0)
(0.149330179367 0.000128119631938 0)
(0.149363979554 0.000131077561207 0)
(0.149414306554 0.000133999699373 0)
(0.149489390553 0.000136774092822 0)
(0.149601166607 0.00014068356329 0)
(0.149772486129 0.000151560452411 0)
(0.150041110099 0.000172277658633 0)
(0.150470177262 0.000202510800587 0)
(0.151195482869 0.000232416168704 0)
(0.152494643575 0.000191602406614 0)
(0.155023744195 -0.000216795313523 0)
(0.162376929874 -0.00210991465219 0)
(0.187703996349 -0.0107875359534 0)
(0.204356528614 -0.0496547281715 0)
(0.965408263564 0.28921470064 0)
(0.961962911996 0.252656042466 0)
(0.823574502205 0.159021447477 0)
(0.698139527607 0.095995738502 0)
(0.610225669252 0.0582481220678 0)
(0.548971743321 0.0362148613432 0)
(0.506589185838 0.0231612933321 0)
(0.477567610515 0.0151375234867 0)
(0.457745877359 0.0100177632492 0)
(0.444228890079 0.0066581491739 0)
(0.435053771517 0.00441556413557 0)
(0.428873634528 0.00290687352331 0)
(0.424754761456 0.00189106584774 0)
(0.422047254506 0.00121005247351 0)
(0.420298460229 0.000757170218007 0)
(0.419193893868 0.000459262320172 0)
(0.418516331339 0.000265860905172 0)
(0.418117226914 0.000142405478755 0)
(0.417896665827 6.61151704519e-05 0)
(0.417787657083 2.30975377118e-05 0)
(0.417746283329 1.41255256826e-06 0)
(0.417743047013 -1.01571874503e-05 0)
(0.417757686291 -1.37087766521e-05 0)
(0.417779684926 -1.32623291907e-05 0)
(0.417804017904 -1.08301361416e-05 0)
(0.417827425934 -7.48708890441e-06 0)
(0.417848215545 -3.87073562244e-06 0)
(0.417865787939 -3.51169859842e-07 0)
(0.417880146963 2.87011464264e-06 0)
(0.417891608115 5.6891527873e-06 0)
(0.417900643398 8.04138734445e-06 0)
(0.41790774516 9.84201535467e-06 0)
(0.417913115349 1.10101506047e-05 0)
(0.417916988883 1.18624206083e-05 0)
(0.417919743223 1.26847982499e-05 0)
(0.417921653374 1.34417312253e-05 0)
(0.417922961865 1.41155347238e-05 0)
(0.417923860007 1.47306812629e-05 0)
(0.417924473973 1.53160366058e-05 0)
(0.417924875361 1.5885176701e-05 0)
(0.417925117009 1.64384817428e-05 0)
(0.417925242454 1.69809869195e-05 0)
(0.417925282503 1.75164002882e-05 0)
(0.417925259802 1.80480919227e-05 0)
(0.417925190813 1.85791888648e-05 0)
(0.417925087828 1.91120426142e-05 0)
(0.417924961371 1.96485876925e-05 0)
(0.417924822029 2.01906426764e-05 0)
(0.417924681818 2.07401708611e-05 0)
(0.417924554399 2.12993809088e-05 0)
(0.417924457708 2.18683023364e-05 0)
(0.417924416982 2.24469757411e-05 0)
(0.417924466421 2.30353366425e-05 0)
(0.417924653004 2.36329885675e-05 0)
(0.417925042813 2.42392831298e-05 0)
(0.417925728875 2.48537987056e-05 0)
(0.41792684409 2.54727585827e-05 0)
(0.417928584627 2.60845544059e-05 0)
(0.417931229283 2.66731490365e-05 0)
(0.417935168188 2.72071415465e-05 0)
(0.417941011159 2.76344539144e-05 0)
(0.417949857698 2.79119526845e-05 0)
(0.417963190233 2.81993411573e-05 0)
(0.417983154007 2.77291772741e-05 0)
(0.418012505568 2.5090857312e-05 0)
(0.418054855207 1.92388286484e-05 0)
(0.418116410514 9.36380267034e-06 0)
(0.418207293257 -6.07068637963e-06 0)
(0.418343106567 -2.95894419271e-05 0)
(0.418548747115 -6.48720239067e-05 0)
(0.418866111222 -0.000116104854095 0)
(0.419364781408 -0.000188250867387 0)
(0.420158209345 -0.000308044913702 0)
(0.421450033757 -0.000533029098743 0)
(0.423631837318 -0.000999997361559 0)
(0.427422185705 -0.00209058668172 0)
(0.434242973413 -0.00485619251864 0)
(0.448268626754 -0.0122529612294 0)
(0.474645188618 -0.0342384599729 0)
(0.478161810582 -0.0987600505549 0)
(1.022220977 0.238416190528 0)
(1.08213758742 0.295926661118 0)
(1.03447734374 0.239503077807 0)
(0.954615579203 0.174290177873 0)
(0.879992277148 0.121345483149 0)
(0.818614708378 0.0830993996501 0)
(0.771411174219 0.0567316830958 0)
(0.736634764934 0.0387409847238 0)
(0.711624857379 0.0264328032471 0)
(0.693917096075 0.017973120866 0)
(0.681541936751 0.0121424639539 0)
(0.673000694465 0.00812492398464 0)
(0.667181279171 0.00536633657656 0)
(0.6632723585 0.00348446002117 0)
(0.660689236043 0.00221257650348 0)
(0.659014959902 0.00136339652923 0)
(0.657955326568 0.000805258222552 0)
(0.657305080583 0.000445930742263 0)
(0.656922708246 0.000221082264285 0)
(0.656711188164 8.5594338212e-05 0)
(0.656604369041 8.37032997715e-06 0)
(0.656562863473 -3.37063830105e-05 0)
(0.656559004494 -5.68405034554e-05 0)
(0.656572520941 -6.68601350315e-05 0)
(0.656594089653 -6.84680990784e-05 0)
(0.656617946916 -6.55471040429e-05 0)
(0.656640785367 -6.05364606141e-05 0)
(0.656660998065 -5.48468486138e-05 0)
(0.656677999662 -4.92627665492e-05 0)
(0.656691767885 -4.41912597701e-05 0)
(0.656702549013 -3.98274390876e-05 0)
(0.656710728205 -3.62901722382e-05 0)
(0.656717001795 -3.36843103323e-05 0)
(0.656722059348 -3.18461008565e-05 0)
(0.6567259432 -3.08009195968e-05 0)
(0.656728668629 -3.02947788119e-05 0)
(0.65673054873 -3.02406237013e-05 0)
(0.656731862883 -3.05523437203e-05 0)
(0.656732778224 -3.10804818633e-05 0)
(0.656733384707 -3.17428241072e-05 0)
(0.656733756798 -3.25098938543e-05 0)
(0.656733959937 -3.33466639781e-05 0)
(0.656734039419 -3.42285868773e-05 0)
(0.656734029383 -3.51364674891e-05 0)
(0.656733954721 -3.60548965071e-05 0)
(0.65673383411 -3.69731274062e-05 0)
(0.656733683725 -3.78835070524e-05 0)
(0.656733519675 -3.87804216367e-05 0)
(0.656733359813 -3.96594490887e-05 0)
(0.656733222588 -4.0514955007e-05 0)
(0.656733132309 -4.13437234739e-05 0)
(0.656733125065 -4.21418700442e-05 0)
(0.656733250518 -4.29078678195e-05 0)
(0.656733577805 -4.36454777556e-05 0)
(0.656734205172 -4.43689431561e-05 0)
(0.656735269028 -4.51088470736e-05 0)
(0.65673695945 -4.59230310043e-05 0)
(0.656739558933 -4.69055811187e-05 0)
(0.656743477709 -4.81807824537e-05 0)
(0.65674931204 -4.99721564499e-05 0)
(0.656758007147 -5.27993521292e-05 0)
(0.65677121435 -5.76356572598e-05 0)
(0.656790222366 -6.53103477789e-05 0)
(0.656816480873 -7.6671664681e-05 0)
(0.65685387501 -9.34276731224e-05 0)
(0.65690911813 -0.000117963076013 0)
(0.656991575539 -0.000153484117218 0)
(0.657115045069 -0.00020528139167 0)
(0.657301350588 -0.000281875672253 0)
(0.657585891317 -0.000397140809653 0)
(0.658026798314 -0.000575423976423 0)
(0.658713257695 -0.000863986288347 0)
(0.659792311461 -0.00135288099041 0)
(0.661521468917 -0.00221519280449 0)
(0.664342812814 -0.00381339382365 0)
(0.66895194807 -0.00694613718354 0)
(0.676374489039 -0.0133517635592 0)
(0.688617806831 -0.026840706754 0)
(0.705240159677 -0.0563123178511 0)
(0.700488267748 -0.113067042719 0)
(1.02251476696 0.170807158208 0)
(1.10138981603 0.276496487765 0)
(1.1175243789 0.266664810613 0)
(1.09214677637 0.219901712318 0)
(1.05187837908 0.16816886252 0)
(1.01020849928 0.123567412639 0)
(0.973495016766 0.0888375382024 0)
(0.943864932462 0.0630063886174 0)
(0.921143226131 0.0442232213753 0)
(0.904284549117 0.0307424100997 0)
(0.892075394962 0.0211563114445 0)
(0.883405086558 0.014395485755 0)
(0.877353296265 0.00966796528884 0)
(0.873198382959 0.00639385407591 0)
(0.870393655544 0.00415118142935 0)
(0.868534815719 0.00263450712337 0)
(0.867328467245 0.00162403307552 0)
(0.866565111885 0.000962691031821 0)
(0.866097401546 0.000539136689709 0)
(0.865823205601 0.000275167131413 0)
(0.865672407654 0.000117081273658 0)
(0.86559620223 2.88041547639e-05 0)
(0.865565187405 -1.93133456258e-05 0)
(0.865562420952 -4.1250063918e-05 0)
(0.865573805618 -4.76547461943e-05 0)
(0.865590851277 -4.55147311985e-05 0)
(0.865609198783 -3.91457546243e-05 0)
(0.865626574147 -3.11352888209e-05 0)
(0.865641893504 -2.29544333134e-05 0)
(0.865654789823 -1.53708007895e-05 0)
(0.865665294649 -8.71302503159e-06 0)
(0.865673611449 -3.03358028794e-06 0)
(0.865679992331 1.7449155796e-06 0)
(0.865684644673 5.475259526e-06 0)
(0.865687987313 8.04042004461e-06 0)
(0.865690407265 9.79627238943e-06 0)
(0.865692059301 1.11498233589e-05 0)
(0.865693240257 1.22942597808e-05 0)
(0.865694124897 1.32626384361e-05 0)
(0.865694732005 1.41483423718e-05 0)
(0.865695110043 1.49425557679e-05 0)
(0.865695323634 1.56679337088e-05 0)
(0.865695411735 1.63401498295e-05 0)
(0.865695405938 1.69755732461e-05 0)
(0.865695328839 1.75888688468e-05 0)
(0.865695196961 1.8190160618e-05 0)
(0.865695025625 1.87869034297e-05 0)
(0.865694831325 1.9384925371e-05 0)
(0.865694635318 1.99912064177e-05 0)
(0.865694460828 2.06164898194e-05 0)
(0.865694338105 2.12461449964e-05 0)
(0.865694309517 2.18667971195e-05 0)
(0.865694428878 2.24612962168e-05 0)
(0.865694766607 2.30033575729e-05 0)
(0.865695418504 2.34581974275e-05 0)
(0.865696515599 2.37949911641e-05 0)
(0.865698244862 2.39623193124e-05 0)
(0.86570090378 2.38449752503e-05 0)
(0.865704895377 2.33010696283e-05 0)
(0.86571063023 2.19110677732e-05 0)
(0.865718613061 1.91176549151e-05 0)
(0.865730451425 1.41819342699e-05 0)
(0.865748720154 5.28867838338e-06 0)
(0.865776405922 -9.12549871427e-06 0)
(0.865817370171 -3.10632048632e-05 0)
(0.865877545471 -6.45018520365e-05 0)
(0.865966279242 -0.000116315407962 0)
(0.866098092054 -0.000197262430351 0)
(0.866295539109 -0.000324599569444 0)
(0.8665934425 -0.000526795064033 0)
(0.86704540467 -0.000852783356981 0)
(0.867736478662 -0.00138947959379 0)
(0.868802987634 -0.00228560932343 0)
(0.870458130691 -0.003815689474 0)
(0.873020683216 -0.00650383181309 0)
(0.87688934706 -0.0113591978387 0)
(0.882386314602 -0.0202504114577 0)
(0.889694331721 -0.0364473393983 0)
(0.896367825369 -0.0654804533082 0)
(0.886536277155 -0.110020281431 0)
(1.01287876345 0.118961029558 0)
(1.08820676605 0.231806946129 0)
(1.1374137871 0.253106775517 0)
(1.15409103547 0.228992766195 0)
(1.1499423287 0.188368373157 0)
(1.13538492634 0.146579859585 0)
(1.11758927142 0.110150982163 0)
(1.10059537704 0.0808162390988 0)
(1.08612499778 0.0582265936561 0)
(1.07459140255 0.04131900235 0)
(1.0657919961 0.0289160375686 0)
(1.05928856954 0.0199601172496 0)
(1.05460039532 0.0135815772523 0)
(1.0512914478 0.00909746013557 0)
(1.04900058023 0.00598617070287 0)
(1.04744418688 0.00385698289619 0)
(1.04640736277 0.00242161408305 0)
(1.04573149621 0.0014701658674 0)
(1.04530198878 0.000851717191942 0)
(1.04503753871 0.000459031106254 0)
(1.04488122239 0.000216771155265 0)
(1.0447936512 7.30312463728e-05 0)
(1.04474983 -5.49174487172e-06 0)
(1.04473297334 -4.39964599689e-05 0)
(1.04473076377 -5.93741561244e-05 0)
(1.04473628738 -6.17083839879e-05 0)
(1.04474527329 -5.72353194133e-05 0)
(1.04475519351 -4.97938816209e-05 0)
(1.04476466835 -4.163516388e-05 0)
(1.04477302771 -3.3980186675e-05 0)
(1.04478002108 -2.74153610923e-05 0)
(1.04478563586 -2.21441619262e-05 0)
(1.04479001822 -1.81216126531e-05 0)
(1.04479337919 -1.51335188127e-05 0)
(1.04479597374 -1.28021868993e-05 0)
(1.04479809591 -1.10061273847e-05 0)
(1.0447998558 -9.51691516569e-06 0)
(1.04480119862 -8.22789480129e-06 0)
(1.04480219532 -7.21021944165e-06 0)
(1.04480289681 -6.54273189582e-06 0)
(1.04480332521 -6.1645267267e-06 0)
(1.04480356764 -5.95716208558e-06 0)
(1.04480366969 -5.86975332851e-06 0)
(1.04480366995 -5.85355478377e-06 0)
(1.04480359347 -5.86821801862e-06 0)
(1.04480345807 -5.89384511049e-06 0)
(1.04480328114 -5.92064354251e-06 0)
(1.0448030833 -5.94401501346e-06 0)
(1.04480289215 -5.96670903269e-06 0)
(1.04480271516 -6.00304664993e-06 0)
(1.04480256639 -6.036501502e-06 0)
(1.04480249146 -6.06450569118e-06 0)
(1.04480254601 -6.09366058026e-06 0)
(1.04480280797 -6.13975064256e-06 0)
(1.04480340488 -6.24478211575e-06 0)
(1.0448045066 -6.53307778671e-06 0)
(1.04480630205 -7.25844402112e-06 0)
(1.04480910041 -8.69741018237e-06 0)
(1.04481320751 -1.13475600963e-05 0)
(1.04481909841 -1.5191971066e-05 0)
(1.04482777914 -2.01210264396e-05 0)
(1.0448404033 -2.63832893177e-05 0)
(1.04485828825 -3.62343248022e-05 0)
(1.04488372976 -5.26644449206e-05 0)
(1.04492019965 -7.98846061188e-05 0)
(1.04497285769 -0.000124138492537 0)
(1.04504931294 -0.000195194948904 0)
(1.04516092049 -0.000308632862 0)
(1.04532483426 -0.000489615021424 0)
(1.04556692388 -0.000779156676131 0)
(1.04592587076 -0.00124456023576 0)
(1.04645952502 -0.00199744081021 0)
(1.04725198838 -0.00322828633912 0)
(1.048416175 -0.00526778122667 0)
(1.05007933425 -0.00869259501277 0)
(1.05229803386 -0.0144961615822 0)
(1.05482817216 -0.0242849859958 0)
(1.05688009393 -0.0403681493045 0)
(1.05574816406 -0.0655837313181 0)
(1.04213569469 -0.0994332039388 0)
(1.00447484702 0.0814040038406 0)
(1.06917243104 0.181288548271 0)
(1.13080580183 0.216950429156 0)
(1.17375017086 0.210789167147 0)
(1.19865287094 0.183690089758 0)
(1.21020015185 0.149751697331 0)
(1.21350288225 0.116779158935 0)
(1.2125176181 0.0882206932392 0)
(1.20973141336 0.0650481665668 0)
(1.20651167918 0.0470209246587 0)
(1.20351966849 0.033406824329 0)
(1.20101203959 0.0233557483257 0)
(1.19903509094 0.0160720295818 0)
(1.19753947077 0.0108795293943 0)
(1.19644205697 0.00723420365115 0)
(1.19565637844 0.0047135339618 0)
(1.19510573233 0.0029976444334 0)
(1.19472736847 0.00184917602929 0)
(1.19447243592 0.00109497535879 0)
(1.1943041732 0.000610626003107 0)
(1.19419558049 0.000308000837262 0)
(1.19412734112 0.000125782249198 0)
(1.19408633519 2.22364710948e-05 0)
(1.19406311853 -3.24391353805e-05 0)
(1.19405085851 -5.72585487167e-05 0)
(1.19404539834 -6.45848745201e-05 0)
(1.19404393714 -6.23634807833e-05 0)
(1.19404465643 -5.55092931122e-05 0)
(1.19404644061 -4.6932690023e-05 0)
(1.19404863153 -3.82471131561e-05 0)
(1.19405085673 -3.0253641323e-05 0)
(1.19405292421 -2.32572571907e-05 0)
(1.19405476493 -1.72815094776e-05 0)
(1.19405637313 -1.22529416481e-05 0)
(1.19405776507 -8.06514652022e-06 0)
(1.19405895996 -4.66441621865e-06 0)
(1.19405992989 -2.05509809634e-06 0)
(1.19406062156 -1.67287727473e-07 0)
(1.19406099522 1.14839618215e-06 0)
(1.19406112689 2.00287387099e-06 0)
(1.19406119755 2.67927569199e-06 0)
(1.19406124398 3.27938524988e-06 0)
(1.19406123948 3.80312709688e-06 0)
(1.19406120096 4.26018693904e-06 0)
(1.19406112495 4.66214063544e-06 0)
(1.19406100264 5.0255577141e-06 0)
(1.19406083744 5.36249431682e-06 0)
(1.19406063712 5.67653564772e-06 0)
(1.19406040995 5.9598738113e-06 0)
(1.19406019715 6.19401475406e-06 0)
(1.1940600476 6.40192094275e-06 0)
(1.19405999171 6.57752404734e-06 0)
(1.19406007774 6.69410428849e-06 0)
(1.194060361 6.71022499107e-06 0)
(1.19406086977 6.56434769085e-06 0)
(1.19406159109 6.15911969782e-06 0)
(1.19406262623 5.35711689761e-06 0)
(1.1940641253 3.74149941821e-06 0)
(1.19406680156 9.46447266342e-07 0)
(1.19407167302 -3.34723409529e-06 0)
(1.19407920881 -9.92519933032e-06 0)
(1.19408936725 -2.01490216641e-05 0)
(1.19410295058 -3.60502641796e-05 0)
(1.19412194988 -6.05529705613e-05 0)
(1.19414849317 -9.82406158177e-05 0)
(1.19418541058 -0.000156434157464 0)
(1.19423670172 -0.000246781992558 0)
(1.19430801011 -0.000387765923735 0)
(1.19440723352 -0.000608844578232 0)
(1.194545164 -0.00095734646525 0)
(1.19473585825 -0.0015097719223 0)
(1.19499610167 -0.0023903842949 0)
(1.19534072697 -0.00380237215665 0)
(1.19576700933 -0.00607858721351 0)
(1.19621463175 -0.00975773102432 0)
(1.19646388424 -0.0156833741703 0)
(1.19592800066 -0.0250660162919 0)
(1.19345258206 -0.0393606936365 0)
(1.18670285962 -0.0598095301959 0)
(1.17016108297 -0.0851013746831 0)
(0.998962337968 0.0544316316964 0)
(1.05310962601 0.133401617128 0)
(1.11628279658 0.170777568373 0)
(1.17301288546 0.175143882927 0)
(1.21791268009 0.159583618186 0)
(1.25049884902 0.134951032872 0)
(1.27288523431 0.108411670403 0)
(1.28776759713 0.0838849860092 0)
(1.29745310884 0.0630565869724 0)
(1.30366123237 0.0462999363024 0)
(1.30759287855 0.0333205299509 0)
(1.31005428943 0.0235495392917 0)
(1.31157426627 0.0163599230921 0)
(1.31249562162 0.011171330441 0)
(1.31303936693 0.00749152188302 0)
(1.31334751046 0.00492450083656 0)
(1.31351097585 0.00316296978121 0)
(1.31358765673 0.00197476592166 0)
(1.31361408342 0.00118821036848 0)
(1.31361298357 0.000678642142794 0)
(1.31359819479 0.00035702069696 0)
(1.31357792144 0.000160765770166 0)
(1.31355697369 4.64805428315e-05 0)
(1.31353772312 -1.58581706033e-05 0)
(1.31352110846 -4.60474559805e-05 0)
(1.31350746168 -5.70579600097e-05 0)
(1.31349659744 -5.73130166502e-05 0)
(1.31348817862 -5.20748110819e-05 0)
(1.31348181713 -4.45127245185e-05 0)
(1.31347712783 -3.64512002745e-05 0)
(1.31347375963 -2.88632855801e-05 0)
(1.31347140942 -2.22025516303e-05 0)
(1.31346981767 -1.66205239148e-05 0)
(1.31346875605 -1.21247172308e-05 0)
(1.3134680591 -8.64938960583e-06 0)
(1.31346762946 -6.09303347846e-06 0)
(1.31346736591 -4.31842914348e-06 0)
(1.31346717907 -3.11782296527e-06 0)
(1.3134670666 -2.26161504783e-06 0)
(1.31346711392 -1.54601979958e-06 0)
(1.31346728325 -9.7162856857e-07 0)
(1.31346739724 -5.60559295621e-07 0)
(1.31346740579 -2.04587922036e-07 0)
(1.31346734076 1.27002283068e-07 0)
(1.3134672232 4.32250329214e-07 0)
(1.3134670659 7.19331780122e-07 0)
(1.31346687268 9.99596059634e-07 0)
(1.31346664652 1.28255525206e-06 0)
(1.3134663969 1.5775099928e-06 0)
(1.31346615736 1.88937475246e-06 0)
(1.31346595252 2.16820401819e-06 0)
(1.31346579062 2.37399646568e-06 0)
(1.31346570243 2.46152938822e-06 0)
(1.31346574268 2.36676238054e-06 0)
(1.31346600093 2.0056667541e-06 0)
(1.31346659726 1.29630151314e-06 0)
(1.31346747845 1.79615809923e-07 0)
(1.31346878599 -1.50851562286e-06 0)
(1.31347094284 -4.0439414399e-06 0)
(1.31347412345 -8.15769200817e-06 0)
(1.31347856066 -1.51226111008e-05 0)
(1.31348448724 -2.649503592e-05 0)
(1.31349218895 -4.38784973519e-05 0)
(1.31350215609 -7.0456635854e-05 0)
(1.31351471172 -0.000111261724371 0)
(1.31352994814 -0.000174044233243 0)
(1.31354749509 -0.000270889105048 0)
(1.31356605517 -0.000420755930617 0)
(1.31358245905 -0.000653461860625 0)
(1.3135898275 -0.00101621995982 0)
(1.31357413017 -0.001584013547 0)
(1.31350796672 -0.00247586442695 0)
(1.31333717696 -0.00387896759743 0)
(1.31295428315 -0.00608557107324 0)
(1.31214941894 -0.00953996864745 0)
(1.31051743961 -0.0148833822569 0)
(1.30730534393 -0.0229435813696 0)
(1.30130409539 -0.0345602181104 0)
(1.29064693189 -0.0501697388455 0)
(1.27186350743 -0.0685444941335 0)
(0.995736086494 0.0346338661397 0)
(1.04179520211 0.0905689305974 0)
(1.10222850344 0.121549574842 0)
(1.16491428534 0.129605844443 0)
(1.2220258847 0.122009279536 0)
(1.26951919492 0.10601995014 0)
(1.30680256617 0.0870975684488 0)
(1.33499573611 0.0686366941268 0)
(1.35574521177 0.0523698525209 0)
(1.37069665963 0.0389256317227 0)
(1.38128330204 0.0282980873089 0)
(1.38866327817 0.0201712911361 0)
(1.3937309883 0.0141175243467 0)
(1.39715731565 0.00970534988272 0)
(1.39943510995 0.00655060905325 0)
(1.40092048404 0.00433446825768 0)
(1.40186708199 0.00280415826717 0)
(1.40245315366 0.00176575616362 0)
(1.40280230183 0.00107420783805 0)
(1.40299904852 0.00062324734821 0)
(1.40310031878 0.000336421099741 0)
(1.40314382015 0.000159634520259 0)
(1.40315412773 5.51749826406e-05 0)
(1.40314668382 -2.98831089946e-06 0)
(1.40313096785 -3.21125284363e-05 0)
(1.4031126083 -4.38801259205e-05 0)
(1.40309461137 -4.57505486445e-05 0)
(1.40307850169 -4.24087959073e-05 0)
(1.40306488088 -3.67184077609e-05 0)
(1.40305382278 -3.03561249588e-05 0)
(1.40304512557 -2.42364918604e-05 0)
(1.40303846374 -1.88067691302e-05 0)
(1.4030334761 -1.42354941359e-05 0)
(1.40302981262 -1.05247414369e-05 0)
(1.4030271753 -7.57385129414e-06 0)
(1.403025332 -5.25805186258e-06 0)
(1.40302410617 -3.45455585629e-06 0)
(1.4030233472 -2.01964418352e-06 0)
(1.40302288976 -8.48680695973e-07 0)
(1.40302253918 8.11614487702e-08 0)
(1.40302222759 7.8829733212e-07 0)
(1.40302203657 1.27614484587e-06 0)
(1.4030219541 1.64600577675e-06 0)
(1.40302188875 1.96251712659e-06 0)
(1.40302180579 2.26313486996e-06 0)
(1.40302169827 2.5659094432e-06 0)
(1.40302156488 2.87992670265e-06 0)
(1.40302140802 3.20947340764e-06 0)
(1.40302122982 3.55475296473e-06 0)
(1.40302102354 3.90705720319e-06 0)
(1.40302080033 4.22480632965e-06 0)
(1.40302059409 4.47501599747e-06 0)
(1.40302043375 4.61875502066e-06 0)
(1.40302034404 4.59788950663e-06 0)
(1.40302033991 4.32309543531e-06 0)
(1.40302042875 3.65206296684e-06 0)
(1.40302063968 2.3811218364e-06 0)
(1.40302094058 3.88609402718e-07 0)
(1.403021582 -2.76893686933e-06 0)
(1.40302277356 -7.82845148051e-06 0)
(1.40302432852 -1.55981844176e-05 0)
(1.40302592452 -2.74047656587e-05 0)
(1.40302710045 -4.51071416176e-05 0)
(1.40302711877 -7.16955508222e-05 0)
(1.40302449425 -0.000111763290874 0)
(1.40301649619 -0.000172344947492 0)
(1.40299832736 -0.000264316154537 0)
(1.4029618139 -0.000404556864403 0)
(1.40289303937 -0.000619132985602 0)
(1.40276831906 -0.000948652176251 0)
(1.40254764269 -0.00145642691423 0)
(1.4021646936 -0.00224088043896 0)
(1.40150800257 -0.00345104400488 0)
(1.40038933655 -0.00531057694107 0)
(1.39849555386 -0.00814218434713 0)
(1.39531372287 -0.0123805025795 0)
(1.39003110622 -0.0185362352718 0)
(1.38150008937 -0.0270467475854 0)
(1.36822546578 -0.0379933323174 0)
(1.34781648063 -0.0504832075501 0)
(0.994011543677 0.019235812198 0)
(1.03484769405 0.0523338493932 0)
(1.09199274253 0.072363136745 0)
(1.15662436732 0.0791292415954 0)
(1.22032138281 0.0761045564901 0)
(1.27701972518 0.0673339819723 0)
(1.32424451547 0.0561509145417 0)
(1.36181611693 0.0447990225335 0)
(1.39068574367 0.034530389547 0)
(1.41226124054 0.0258814447368 0)
(1.42801876654 0.0189465364903 0)
(1.43929943961 0.0135849946915 0)
(1.44722872639 0.00955654687941 0)
(1.45270483533 0.00660012793952 0)
(1.45641971327 0.00447420273755 0)
(1.45889225168 0.00297352584142 0)
(1.46050316892 0.00193278095657 0)
(1.46152661787 0.00122370596356 0)
(1.46215668517 0.000749562597635 0)
(1.46252856067 0.000439029624737 0)
(1.46273488753 0.000240532770699 0)
(1.46283807877 0.000117423222929 0)
(1.46287942816 4.4060218602e-05 0)
(1.46288571319 2.70081349768e-06 0)
(1.4628736331 -1.84342601191e-05 0)
(1.46285332354 -2.74282511501e-05 0)
(1.46283081246 -2.94283747169e-05 0)
(1.46280931248 -2.7678639628e-05 0)
(1.46279035155 -2.41770724531e-05 0)
(1.46277447412 -2.01047919987e-05 0)
(1.46276167133 -1.61102830117e-05 0)
(1.46275164868 -1.25165108983e-05 0)
(1.46274399552 -9.45019250761e-06 0)
(1.46273827959 -6.92215202171e-06 0)
(1.46273410219 -4.87863391594e-06 0)
(1.46273112108 -3.25036765331e-06 0)
(1.46272904787 -1.9743289096e-06 0)
(1.4627276257 -1.00946708718e-06 0)
(1.46272664267 -3.10801488056e-07 0)
(1.46272603423 2.09485941794e-07 0)
(1.46272568771 6.88613074132e-07 0)
(1.4627254537 1.1619644413e-06 0)
(1.46272529957 1.58387384441e-06 0)
(1.46272518633 1.96065339102e-06 0)
(1.46272508463 2.31314350033e-06 0)
(1.46272497554 2.65461066918e-06 0)
(1.46272484573 2.99033033802e-06 0)
(1.46272468683 3.31819692575e-06 0)
(1.46272449466 3.6283475278e-06 0)
(1.46272426695 3.90729521912e-06 0)
(1.46272400708 4.14656297702e-06 0)
(1.46272372328 4.31461622136e-06 0)
(1.4627234234 4.35995845834e-06 0)
(1.46272311858 4.21204339225e-06 0)
(1.46272282717 3.78017843846e-06 0)
(1.4627225728 2.9571551154e-06 0)
(1.46272230464 1.62282315616e-06 0)
(1.4627219452 -3.65440316649e-07 0)
(1.46272138985 -3.21936532131e-06 0)
(1.46272048499 -7.83809893556e-06 0)
(1.46271895083 -1.50008676508e-05 0)
(1.46271611355 -2.58010568654e-05 0)
(1.46271086094 -4.17889482775e-05 0)
(1.462701389 -6.53520491781e-05 0)
(1.4626846389 -0.000100095901051 0)
(1.46265547913 -0.000151419341978 0)
(1.4626054055 -0.00022750537571 0)
(1.46252066311 -0.000340838179639 0)
(1.46237880878 -0.000510041921473 0)
(1.46214303545 -0.000763535107051 0)
(1.46175339112 -0.00114504193616 0)
(1.4611152932 -0.00172225517058 0)
(1.4600777151 -0.00259094422577 0)
(1.45839978983 -0.00389060565487 0)
(1.45570772541 -0.0058135821683 0)
(1.45143633839 -0.00860292590244 0)
(1.44476558854 -0.0125186704861 0)
(1.43462692075 -0.0177410708266 0)
(1.41976166029 -0.0242181167147 0)
(1.39832513986 -0.031403481092 0)
(0.993269679635 0.00617015589005 0)
(1.03158105799 0.0171020546815 0)
(1.08672193343 0.0239906575326 0)
(1.15174571158 0.0265606748708 0)
(1.21823558142 0.025818068162 0)
(1.27925801261 0.0230488961638 0)
(1.33140168457 0.0193656418423 0)
(1.3737763665 0.0155468685702 0)
(1.40691096788 0.0120449410091 0)
(1.43203362305 0.00906641067653 0)
(1.45060269231 0.00666060581098 0)
(1.46403045521 0.00479010264029 0)
(1.47355081146 0.00337843963517 0)
(1.48017633824 0.00233874965045 0)
(1.48470304559 0.00158892557169 0)
(1.48773701563 0.00105830075141 0)
(1.48972820675 0.000689474727384 0)
(1.49100368984 0.000437650426633 0)
(1.49179682242 0.000268897776615 0)
(1.49227124485 0.000158123092449 0)
(1.4925397877 8.71365253726e-05 0)
(1.49267891395 4.29865770606e-05 0)
(1.4927394958 1.65964239831e-05 0)
(1.49275471678 1.67584407805e-06 0)
(1.49274552509 -6.05748881281e-06 0)
(1.49272478003 -9.40305967027e-06 0)
(1.49270017699 -1.02094739232e-05 0)
(1.49267594376 -9.64641936298e-06 0)
(1.49265417794 -8.43240289139e-06 0)
(1.49263572131 -6.98571140281e-06 0)
(1.4926206963 -5.54690338156e-06 0)
(1.49260884044 -4.23580116795e-06 0)
(1.49259972424 -3.09983976415e-06 0)
(1.49259287218 -2.1452001609e-06 0)
(1.49258783027 -1.35574711853e-06 0)
(1.49258419832 -7.09748990031e-07 0)
(1.49258164048 -1.8579498658e-07 0)
(1.49257988695 2.38052597838e-07 0)
(1.49257873186 6.07967467643e-07 0)
(1.49257799766 9.75618201993e-07 0)
(1.49257753075 1.27918003654e-06 0)
(1.49257723934 1.56164134269e-06 0)
(1.49257706591 1.8404516918e-06 0)
(1.49257695806 2.12572311124e-06 0)
(1.4925768767 2.42446052759e-06 0)
(1.49257679555 2.73927993399e-06 0)
(1.4925766962 3.06933254688e-06 0)
(1.49257656551 3.41030681035e-06 0)
(1.4925763937 3.75336364082e-06 0)
(1.49257617241 4.08399301646e-06 0)
(1.49257589609 4.38187399805e-06 0)
(1.49257556112 4.61436049622e-06 0)
(1.49257516138 4.73580069803e-06 0)
(1.4925746854 4.68401828514e-06 0)
(1.49257411254 4.37311285189e-06 0)
(1.49257341747 3.68212072802e-06 0)
(1.49257258449 2.45600925098e-06 0)
(1.49257147054 6.33745556156e-07 0)
(1.49256967013 -2.04965554735e-06 0)
(1.49256689335 -6.22413297232e-06 0)
(1.4925627362 -1.24225223061e-05 0)
(1.4925561716 -2.14218926657e-05 0)
(1.49254559172 -3.43129764069e-05 0)
(1.49252845753 -5.26529015859e-05 0)
(1.49250065672 -7.86471147518e-05 0)
(1.49245549781 -0.000115337464164 0)
(1.4923821061 -0.000167094897893 0)
(1.49226340771 -0.000240437864041 0)
(1.49207206135 -0.000343887917895 0)
(1.49176350835 -0.000489974518412 0)
(1.49126544538 -0.000698805662263 0)
(1.49046910627 -0.00100421310324 0)
(1.48920519813 -0.00143874877129 0)
(1.48720797759 -0.00204987165929 0)
(1.48407909785 -0.00289892971198 0)
(1.47923891372 -0.0040534188129 0)
(1.47188086689 -0.00556761861038 0)
(1.46099185387 -0.00744302685222 0)
(1.44542527652 -0.00958559123982 0)
(1.42357259903 -0.011746813124 0)
(0.993270477415 -0.00616839681027 0)
(1.03158104045 -0.0171003678328 0)
(1.08672186681 -0.023989753403 0)
(1.15174574873 -0.0265602386402 0)
(1.21823565915 -0.0258179848043 0)
(1.27925811471 -0.0230491013619 0)