/*--------------------------------*- C++ -*----------------------------------*\
| =========                 |                                                 |
| \\      /  F ield         | OpenFOAM: The Open Source CFD Toolbox           |
|  \\    /   O peration     | Version:  2106                                  |
|   \\  /    A nd           | Website:  www.openfoam.com                      |
|    \\/     M anipulation  |                                                 |
\*---------------------------------------------------------------------------*/
FoamFile
{
    version     2.0;
    format      ascii;
    arch        "LSB;label=32;scalar=64";
    class       volVectorField;
    location    "0.455";
    object      U;
}
// * * * * * * * * * * * * * * * * * * * * * * * * * * * * * * * * * * * * * //

dimensions      [0 1 -1 0 0 0 0];

internalField   nonuniform List<vector> 
11200
(
(0.662462402111 0.150569444773 0)
(0.558948662313 0.103243389587 0)
(0.383850713517 0.0513512248392 0)
(0.283747562882 0.0248708554722 0)
(0.232075232228 0.0124170451729 0)
(0.201908545599 0.00662281667225 0)
(0.183197889761 0.00380291431204 0)
(0.171276443475 0.00231587003536 0)
(0.163510258594 0.0014645065116 0)
(0.158388718442 0.000944892338315 0)
(0.155006575844 0.000615176840531 0)
(0.152786616879 0.000402233808908 0)
(0.151346462915 0.000264232355973 0)
(0.150428222122 0.000175250493775 0)
(0.14985661372 0.000118361153557 0)
(0.149512407333 8.21603197433e-05 0)
(0.149314840753 5.88658498787e-05 0)
(0.14920947255 4.33150718168e-05 0)
(0.149159605993 3.29330807966e-05 0)
(0.149142358468 2.81853630919e-05 0)
(0.149144507335 2.76839170995e-05 0)
(0.149156775819 2.98899636908e-05 0)
(0.149172389125 3.30508468868e-05 0)
(0.149187926711 3.59667495508e-05 0)
(0.14920212388 3.86023437082e-05 0)
(0.149214381081 4.10412470356e-05 0)
(0.149224531746 4.33182158603e-05 0)
(0.149232684051 4.54644696411e-05 0)
(0.14923907557 4.7519418202e-05 0)
(0.149243988622 4.95305187771e-05 0)
(0.149247707469 5.1560130655e-05 0)
(0.14925049921 5.36977076552e-05 0)
(0.149252559074 5.60262124173e-05 0)
(0.14925405568 5.84077615495e-05 0)
(0.149255122697 6.07684433128e-05 0)
(0.14925584599 6.30888073998e-05 0)
(0.14925632292 6.53792174733e-05 0)
(0.149256638408 6.76528574415e-05 0)
(0.149256846807 6.99220291384e-05 0)
(0.149256978092 7.21923312019e-05 0)
(0.14925705273 7.44650008723e-05 0)
(0.149257087661 7.67410457944e-05 0)
(0.149257094386 7.90198272756e-05 0)
(0.149257081173 8.13000963537e-05 0)
(0.149257054477 8.35800580409e-05 0)
(0.149257019419 8.58574123789e-05 0)
(0.14925698085 8.81292900386e-05 0)
(0.14925694288 9.03928515282e-05 0)
(0.149256909752 9.26451202195e-05 0)
(0.149256885886 9.48830258044e-05 0)
(0.149256876645 9.71033671144e-05 0)
(0.149256890926 9.93031791786e-05 0)
(0.149256942161 0.000101479596315 0)
(0.149257049403 0.000103629284034 0)
(0.149257239207 0.000105747873716 0)
(0.149257548452 0.000107829552157 0)
(0.149258028307 0.00010986671412 0)
(0.149258754349 0.000111849171872 0)
(0.149259835086 0.000113764895972 0)
(0.149261428598 0.000115589490496 0)
(0.149263785604 0.000117265107463 0)
(0.149267314497 0.000118710025996 0)
(0.14927248006 0.000119965068049 0)
(0.149279931509 0.000121226664451 0)
(0.149290707159 0.00012296152717 0)
(0.149306332403 0.000125338154616 0)
(0.149329193918 0.000128118036737 0)
(0.149362985774 0.000131077787945 0)
(0.149413300429 0.000134002117011 0)
(0.14948836653 0.00013677839294 0)
(0.149600119481 0.000140687797486 0)
(0.149771406203 0.000151560351923 0)
(0.150039988168 0.000172278676054 0)
(0.150469007061 0.00020251561399 0)
(0.151194255438 0.000232426869313 0)
(0.152493347493 0.000191620659491 0)
(0.155022365301 -0.00021676839709 0)
(0.162375447545 -0.00210987554732 0)
(0.18770235349 -0.0107874493232 0)
(0.204354523251 -0.0496543505086 0)
(0.965408251376 0.289214708032 0)
(0.961962843896 0.252656040081 0)
(0.823574359024 0.159021440919 0)
(0.698139321808 0.0959957299482 0)
(0.610225404874 0.0582481125891 0)
(0.548971422382 0.0362148515491 0)
(0.50658880963 0.0231612835577 0)
(0.477567179412 0.0151375138134 0)
(0.457745391249 0.0100177536663 0)
(0.444228348941 0.00665813977631 0)
(0.435053175745 0.00441555520684 0)
(0.428872984895 0.00290686528995 0)
(0.424754058846 0.00189105858128 0)
(0.422046499496 0.00121004630769 0)
(0.420297652632 0.000757164926643 0)
(0.419193032965 0.000459257347099 0)
(0.418515416574 0.000265855794588 0)
(0.418116258491 0.000142400023777 0)
(0.417895644736 6.61086706486e-05 0)
(0.417786584174 2.30914003436e-05 0)
(0.417745160632 1.40691363608e-06 0)
(0.417741875727 -1.01631999491e-05 0)
(0.417756466252 -1.37142077376e-05 0)
(0.417778416839 -1.32674699237e-05 0)
(0.41780270234 -1.08354841755e-05 0)
(0.417826064112 -7.49306439157e-06 0)
(0.417846810138 -3.877535634e-06 0)
(0.417864343103 -3.58780656371e-07 0)
(0.417878668097 2.86205263695e-06 0)
(0.417890101036 5.6814052075e-06 0)
(0.417899111236 8.03456068582e-06 0)
(0.417906191278 9.83808957333e-06 0)
(0.417911542823 1.10071005437e-05 0)
(0.417915397139 1.18606348106e-05 0)
(0.417918132493 1.26821105544e-05 0)
(0.417920023817 1.34371874284e-05 0)
(0.417921314295 1.41094874382e-05 0)
(0.417922197336 1.47234605927e-05 0)
(0.417922799534 1.53086648581e-05 0)
(0.417923192958 1.58781525012e-05 0)
(0.417923430278 1.64320558157e-05 0)
(0.417923554151 1.69754515338e-05 0)
(0.417923594461 1.75115125692e-05 0)
(0.417923573346 1.80435681321e-05 0)
(0.417923507295 1.85745675725e-05 0)
(0.417923408874 1.91068112201e-05 0)
(0.417923289434 1.96426822098e-05 0)
(0.417923159867 2.0184047347e-05 0)
(0.417923031681 2.07334097197e-05 0)
(0.417922917724 2.12927254325e-05 0)
(0.4179228347 2.18618955238e-05 0)
(0.417922807173 2.24408338418e-05 0)
(0.417922869453 2.30297798157e-05 0)
(0.4179230688 2.36284393964e-05 0)
(0.417923471261 2.42361878776e-05 0)
(0.417924169715 2.48521140445e-05 0)
(0.417925295871 2.54721069989e-05 0)
(0.417927045187 2.60847868841e-05 0)
(0.417929695357 2.66740187563e-05 0)
(0.417933634395 2.72090623048e-05 0)
(0.417939472044 2.76364523982e-05 0)
(0.417948308949 2.79113648168e-05 0)
(0.417961629042 2.81956339202e-05 0)
(0.417981577388 2.77263461283e-05 0)
(0.418010912665 2.50947137954e-05 0)
(0.418053247172 1.92495399993e-05 0)
(0.418114786002 9.3802571317e-06 0)
(0.418205646936 -6.04771311688e-06 0)
(0.418341428927 -2.95602283333e-05 0)
(0.418547025669 -6.48372739968e-05 0)
(0.418864331433 -0.000116066197346 0)
(0.419362929951 -0.000188210779575 0)
(0.42015627227 -0.000307995855722 0)
(0.421447992629 -0.00053296648987 0)
(0.42362967147 -0.00099991714396 0)
(0.427419871204 -0.00209048527813 0)
(0.434240483699 -0.00485606629518 0)
(0.448265935787 -0.0122528029717 0)
(0.474642266039 -0.0342382281637 0)
(0.478158634926 -0.0987595267915 0)
(1.0222209617 0.238416183804 0)
(1.08213751271 0.29592664962 0)
(1.0344771924 0.239503063379 0)
(0.954615361057 0.174290161155 0)
(0.879991995638 0.121345464949 0)
(0.818614365307 0.0830993805887 0)
(0.771410770828 0.0567316635025 0)
(0.736634301745 0.0387409647834 0)
(0.711624334531 0.0264327832954 0)
(0.693916513866 0.0179731012682 0)
(0.681541295846 0.0121424451819 0)
(0.672999995796 0.00812490648234 0)
(0.667180523683 0.00536632071701 0)
(0.66327154661 0.00348444587006 0)
(0.660688367354 0.00221256372223 0)
(0.659014033699 0.00136338463153 0)
(0.657954342549 0.000805246515617 0)
(0.657304038747 0.000445919050731 0)
(0.656921609648 0.000221070399073 0)
(0.656710034435 8.55822786804e-05 0)
(0.656603161386 8.35879694626e-06 0)
(0.656561604136 -3.37184692885e-05 0)
(0.656557694618 -5.68529492685e-05 0)
(0.656571159894 -6.68723960898e-05 0)
(0.656592677892 -6.84806059544e-05 0)
(0.656616486008 -6.55602208048e-05 0)
(0.656639278373 -6.05502873237e-05 0)
(0.656659449628 -5.48611056063e-05 0)
(0.656676415694 -4.92767763251e-05 0)
(0.656690154309 -4.42045069918e-05 0)
(0.656700911489 -3.98406162535e-05 0)
(0.656709068621 -3.63012245602e-05 0)
(0.65671532074 -3.3694541587e-05 0)
(0.656720356447 -3.18561251547e-05 0)
(0.656724218085 -3.08092304536e-05 0)
(0.656726923154 -3.03039887196e-05 0)
(0.656728784277 -3.02494032874e-05 0)
(0.656730082051 -3.05607211772e-05 0)
(0.656730984322 -3.10880501515e-05 0)
(0.656731581284 -3.17491491515e-05 0)
(0.656731947134 -3.2514989492e-05 0)
(0.656732146636 -3.33506603428e-05 0)
(0.656732224316 -3.42320781129e-05 0)
(0.656732213891 -3.51400632844e-05 0)
(0.656732140094 -3.60592853846e-05 0)
(0.656732022494 -3.69789375151e-05 0)
(0.656731877943 -3.78905543602e-05 0)
(0.656731722691 -3.87885251214e-05 0)
(0.656731574076 -3.96681786259e-05 0)
(0.656731449446 -4.05240414346e-05 0)
(0.656731371951 -4.13528140379e-05 0)
(0.6567313772 -4.21508117805e-05 0)
(0.656731514927 -4.29160577298e-05 0)
(0.656731854385 -4.36521846335e-05 0)
(0.65673249362 -4.43736918368e-05 0)
(0.656733568814 -4.51113710805e-05 0)
(0.656735269277 -4.5923437313e-05 0)
(0.656737876338 -4.69024129618e-05 0)
(0.656741798581 -4.81748823426e-05 0)
(0.656747630104 -4.9962836784e-05 0)
(0.656756314953 -5.2785862617e-05 0)
(0.656769507342 -5.76235659802e-05 0)
(0.656788501327 -6.52953079608e-05 0)
(0.656814745374 -7.66524054611e-05 0)
(0.656852119804 -9.34004271604e-05 0)
(0.656907337841 -0.000117925224249 0)
(0.65698976612 -0.000153434985421 0)
(0.657113199724 -0.000205220779169 0)
(0.657299457249 -0.00028180310579 0)
(0.657583934812 -0.000397054930205 0)
(0.658024761773 -0.000575322083689 0)
(0.658711123889 -0.000863863823741 0)
(0.659790060188 -0.0013527334481 0)
(0.661519075747 -0.00221501508593 0)
(0.664340251258 -0.00381318116001 0)
(0.66894918931 -0.00694588564599 0)
(0.676371503653 -0.0133514689886 0)
(0.688614570232 -0.0268403623056 0)
(0.705236665669 -0.0563119039334 0)
(0.700484590906 -0.113066476561 0)
(1.02251475051 0.170807147216 0)
(1.10138973963 0.276496474856 0)
(1.11752422667 0.266664796052 0)
(1.09214655705 0.219901695636 0)
(1.05187809559 0.168168843963 0)
(1.01020815315 0.123567392642 0)
(0.973494609077 0.088837517127 0)
(0.943864463836 0.0630063667797 0)
(0.921142696854 0.0442231993232 0)
(0.904283959517 0.0307423884678 0)
(0.892074745767 0.0211562908406 0)
(0.883404378717 0.0143954667259 0)
(0.877352530636 0.00966794812461 0)
(0.873197559764 0.00639383868859 0)
(0.870392774288 0.0041511674592 0)
(0.868533875523 0.00263449420738 0)
(0.867327467871 0.00162402069568 0)
(0.86656405404 0.000962678834859 0)
(0.866096286508 0.00053912503552 0)
(0.865822035177 0.000275156195765 0)
(0.8656711835 0.00011707135551 0)
(0.865594925466 2.87957124625e-05 0)
(0.865563859329 -1.93214366592e-05 0)
(0.865561041959 -4.12584286452e-05 0)
(0.865572375717 -4.76636514332e-05 0)
(0.865589372117 -4.55243044423e-05 0)
(0.865607673723 -3.91558164411e-05 0)
(0.865625008141 -3.1145273721e-05 0)
(0.865640292462 -2.29636201897e-05 0)
(0.865653158814 -1.5378692574e-05 0)
(0.865663638289 -8.71980849576e-06 0)
(0.865671932801 -3.04067539749e-06 0)
(0.865678292517 1.73850891217e-06 0)
(0.865682925119 5.46787258274e-06 0)
(0.865686246313 8.03405360905e-06 0)
(0.865688644605 9.79002810801e-06 0)
(0.865690277629 1.11430211723e-05 0)
(0.865691441541 1.22877002086e-05 0)
(0.865692312878 1.32568493575e-05 0)
(0.865692910196 1.4143593993e-05 0)
(0.865693281627 1.49389710626e-05 0)
(0.865693490844 1.56652826975e-05 0)
(0.865693575983 1.63377502468e-05 0)
(0.865693568547 1.69727853597e-05 0)
(0.865693491073 1.75851228378e-05 0)
(0.86569336116 1.81849742336e-05 0)
(0.865693194957 1.87801794496e-05 0)
(0.865693008809 1.93769577157e-05 0)
(0.86569282326 1.99824602656e-05 0)
(0.86569266078 2.06071292814e-05 0)
(0.865692550376 2.1236514612e-05 0)
(0.865692534023 2.18576102287e-05 0)
(0.865692665629 2.24535671993e-05 0)
(0.865693015201 2.29982000834e-05 0)
(0.865693678187 2.34557708286e-05 0)
(0.865694785579 2.37946669936e-05 0)
(0.865696524476 2.3963198736e-05 0)
(0.865699189899 2.38483614072e-05 0)
(0.865703183819 2.33060135097e-05 0)
(0.865708915981 2.19156460453e-05 0)
(0.865716883614 1.91198069351e-05 0)
(0.865728703984 1.41879592274e-05 0)
(0.865746955759 5.30359391006e-06 0)
(0.865774619224 -9.10061498842e-06 0)
(0.865815559258 -3.10273042376e-05 0)
(0.865875706739 -6.44510721619e-05 0)
(0.865964406108 -0.000116245702607 0)
(0.866096175036 -0.000197171970119 0)
(0.866293564712 -0.000324485983735 0)
(0.866591394299 -0.000526654632724 0)
(0.867043263764 -0.000852610802402 0)
(0.867734224434 -0.00138926857969 0)
(0.868800596657 -0.00228535333282 0)
(0.870455575273 -0.00381538024981 0)
(0.873017932522 -0.00650346246899 0)
(0.876886368744 -0.0113587644444 0)
(0.882383077253 -0.0202499140653 0)
(0.889690807198 -0.0364467812223 0)
(0.89636400411 -0.0654798437076 0)
(0.886532231281 -0.110019638477 0)
(1.01287874655 0.118961017357 0)
(1.08820668908 0.231806933491 0)
(1.13741363508 0.253106762135 0)
(1.15409081679 0.228992750974 0)
(1.14994204595 0.188368355913 0)
(1.13538458083 0.146579840451 0)
(1.11758886408 0.110150961429 0)
(1.10059490847 0.0808162172535 0)
(1.08612446839 0.0582265713535 0)
(1.07459081265 0.0413189804762 0)
(1.06579134635 0.0289160169276 0)
(1.05928786072 0.0199600984564 0)
(1.05459962803 0.0135815605119 0)
(1.05129062205 0.00909744523011 0)
(1.04899969554 0.00598615725697 0)
(1.04744324253 0.00385697040594 0)
(1.04640635858 0.0024216024133 0)
(1.0457304331 0.0014701548026 0)
(1.04530086843 0.000851706913408 0)
(1.045036363 0.000459021711627 0)
(1.04487999313 0.00021676276269 0)
(1.04479236975 7.30239140023e-05 0)
(1.04474849671 -5.49820497314e-06 0)
(1.04473158833 -4.4003394465e-05 0)
(1.04472932796 -5.9381904598e-05 0)
(1.04473480271 -6.17170113317e-05 0)
(1.04474374341 -5.7244467632e-05 0)
(1.04475362348 -4.98028591716e-05 0)
(1.04476306407 -4.16432033451e-05 0)
(1.04477139438 -3.39869190853e-05 0)
(1.04477836272 -2.74200370767e-05 0)
(1.04478395547 -2.21476606749e-05 0)
(1.0447883161 -1.81240870772e-05 0)
(1.04479165562 -1.51362755581e-05 0)
(1.04479422866 -1.28072353551e-05 0)
(1.04479632901 -1.10119233153e-05 0)
(1.04479806981 -9.52373549322e-06 0)
(1.04479939694 -8.2344646202e-06 0)
(1.04480038085 -7.21553772235e-06 0)
(1.04480107284 -6.54647031822e-06 0)
(1.04480149457 -6.16657671236e-06 0)
(1.04480173219 -5.9580616244e-06 0)
(1.04480183071 -5.87140977877e-06 0)
(1.04480182871 -5.85598197549e-06 0)
(1.04480175142 -5.87212293557e-06 0)
(1.04480161752 -5.89962118752e-06 0)
(1.04480144561 -5.92831343607e-06 0)
(1.04480125605 -5.95312102498e-06 0)
(1.04480107537 -5.97666089467e-06 0)
(1.04480091019 -6.01364458395e-06 0)
(1.04480077408 -6.04834851077e-06 0)
(1.04480071202 -6.07740763408e-06 0)
(1.04480077915 -6.10732552003e-06 0)
(1.04480105243 -6.15362429172e-06 0)
(1.0448016585 -6.2569215481e-06 0)
(1.04480276799 -6.53541140067e-06 0)
(1.04480457164 -7.2524074479e-06 0)
(1.04480737519 -8.6870767338e-06 0)
(1.04481148124 -1.13316887986e-05 0)
(1.04481736277 -1.51786850704e-05 0)
(1.04482603236 -2.01146036691e-05 0)
(1.04483864513 -2.63725248114e-05 0)
(1.04485651455 -3.62167523515e-05 0)
(1.04488193588 -5.26341439628e-05 0)
(1.04491838108 -7.9835489269e-05 0)
(1.0449710095 -0.00012406619184 0)
(1.04504742748 -0.000195095035474 0)
(1.04515898674 -0.00030850183169 0)
(1.0453228384 -0.000489448798142 0)
(1.04556484941 -0.000778949883721 0)
(1.04592369859 -0.00124430600812 0)
(1.04645723372 -0.00199713016442 0)
(1.04724955345 -0.00322790891132 0)
(1.04841356675 -0.00526732558374 0)
(1.05007651797 -0.00869205147935 0)
(1.05229497187 -0.0144955253555 0)
(1.05482482704 -0.0242842609609 0)
(1.05687642815 -0.0403673508017 0)
(1.05574414588 -0.0655828917239 0)
(1.04213134617 -0.0994323966819 0)
(1.00447482991 0.0814039912508 0)
(1.06917235374 0.181288536026 0)
(1.13080564991 0.216950416792 0)
(1.17374995282 0.210789153186 0)
(1.19865258916 0.183690073757 0)
(1.21019980742 0.149751679229 0)
(1.21350247608 0.116779138866 0)
(1.21251715079 0.0882206718138 0)
(1.20973088532 0.0650481445774 0)
(1.20651109074 0.0470209031061 0)
(1.20351902017 0.0334068041609 0)
(1.20101133197 0.0233557302222 0)
(1.19903432428 0.0160720137262 0)
(1.19753864488 0.0108795154941 0)
(1.19644117122 0.00723419128034 0)
(1.19565543225 0.00471352258431 0)
(1.19510472583 0.00299763391784 0)
(1.19472630276 0.00184916634861 0)
(1.19447131281 0.00109496658394 0)
(1.19430299471 0.000610618151558 0)
(1.19419434845 0.000307993935884 0)
(1.19412605657 0.000125776035877 0)
(1.19408499836 2.22301741153e-05 0)
(1.19406172971 -3.24460565488e-05 0)
(1.19404941879 -5.72660436469e-05 0)
(1.19404390997 -6.45930631105e-05 0)
(1.19404240411 -6.23720050051e-05 0)
(1.19404308409 -5.55175372121e-05 0)
(1.19404483449 -4.69399509714e-05 0)
(1.19404699664 -3.8253106613e-05 0)
(1.19404919674 -3.02580450088e-05 0)
(1.19405124154 -2.32608081811e-05 0)
(1.19405306026 -1.72854840246e-05 0)
(1.19405464632 -1.22572974237e-05 0)
(1.1940560166 -8.07091911312e-06 0)
(1.19405719074 -4.67091177531e-06 0)
(1.19405814248 -2.06094551013e-06 0)
(1.19405881889 -1.72436930508e-07 0)
(1.19405918045 1.14439144323e-06 0)
(1.19405930292 2.00020482911e-06 0)
(1.19405936668 2.67828066014e-06 0)
(1.19405940686 3.27993233743e-06 0)
(1.19405939782 3.8047163091e-06 0)
(1.19405935665 4.26049548753e-06 0)
(1.19405927913 4.66016547815e-06 0)
(1.19405915827 5.02101352333e-06 0)
(1.19405899819 5.35562164956e-06 0)
(1.1940588063 5.66806504536e-06 0)
(1.19405858959 5.95021957757e-06 0)
(1.19405838789 6.18404707552e-06 0)
(1.19405825007 6.39211898095e-06 0)
(1.19405820652 6.56850903371e-06 0)
(1.19405830486 6.68619355599e-06 0)
(1.19405860099 6.70363142239e-06 0)
(1.19405912761 6.55956256019e-06 0)
(1.19405986336 6.15853620159e-06 0)
(1.19406090258 5.36581984514e-06 0)
(1.19406240542 3.75506759394e-06 0)
(1.19406507647 9.59209843396e-07 0)
(1.19406993343 -3.33118633136e-06 0)
(1.19407745748 -9.90011639187e-06 0)
(1.19408760579 -2.01155508229e-05 0)
(1.19410117521 -3.60065978398e-05 0)
(1.19412015779 -6.04948679351e-05 0)
(1.19414667997 -9.81612158783e-05 0)
(1.19418357016 -0.00015632685341 0)
(1.19423482569 -0.000246641465714 0)
(1.19430608718 -0.000387586675113 0)
(1.19440525002 -0.000608620021023 0)
(1.19454310382 -0.00095706853884 0)
(1.19473370317 -0.0015094316773 0)
(1.19499383131 -0.00238996952374 0)
(1.19533831695 -0.00380186810884 0)
(1.19576442892 -0.00607797892957 0)
(1.19621184318 -0.00975700501346 0)
(1.19646084393 -0.0156825223478 0)
(1.19592466117 -0.0250650410142 0)
(1.19344889158 -0.039359615151 0)
(1.1866987564 -0.0598083919523 0)
(1.17015652272 -0.0851002685959 0)
(0.998962320728 0.0544316193599 0)
(1.05310954842 0.133401605513 0)
(1.11628264452 0.170777556964 0)
(1.17301266767 0.17514387007 0)
(1.217912399 0.159583603196 0)
(1.25049850554 0.134951015682 0)
(1.27288482936 0.108411651138 0)
(1.28776713139 0.0838849652941 0)
(1.29745258266 0.0630565657137 0)
(1.30366064609 0.0462999154889 0)
(1.30759223255 0.0333205105425 0)
(1.31005358399 0.0235495219444 0)
(1.31157350124 0.016359908014 0)
(1.31249479654 0.0111713173959 0)
(1.31303848116 0.00749151038045 0)
(1.31334656364 0.00492449051231 0)
(1.31350996837 0.00316296047714 0)
(1.31358658986 0.00197475761731 0)
(1.31361295903 0.0011882030364 0)
(1.31361180369 0.000678635800212 0)
(1.3135969611 0.000357015117576 0)
(1.31357663477 0.000160760484509 0)
(1.31355563417 4.64748891566e-05 0)
(1.31353633147 -1.5864873724e-05 0)
(1.31351966599 -4.60543666535e-05 0)
(1.31350597065 -5.70651262802e-05 0)
(1.3134950621 -5.73200572111e-05 0)
(1.31348660441 -5.2080993595e-05 0)
(1.31348020951 -4.45177269235e-05 0)
(1.31347549166 -3.64547402691e-05 0)
(1.31347209824 -2.88658893405e-05 0)
(1.3134697246 -2.22044839375e-05 0)
(1.31346811035 -1.66229456734e-05 0)
(1.31346702653 -1.21276526712e-05 0)
(1.31346630789 -8.65304099251e-06 0)
(1.31346585792 -6.0971032882e-06 0)
(1.31346557632 -4.32242878919e-06 0)
(1.31346537418 -3.12159276996e-06 0)
(1.31346524949 -2.26477289374e-06 0)
(1.31346528783 -1.54778985529e-06 0)
(1.31346545042 -9.72704198691e-07 0)
(1.31346555902 -5.61141920261e-07 0)
(1.31346556138 -2.04038851498e-07 0)
(1.31346549162 1.26525322516e-07 0)
(1.3134653725 4.29694004703e-07 0)
(1.31346521697 7.14698491031e-07 0)
(1.31346502937 9.93378485027e-07 0)
(1.31346481204 1.27543742889e-06 0)
(1.31346457377 1.56988963453e-06 0)
(1.31346434701 1.88181390292e-06 0)
(1.31346415563 2.16198573232e-06 0)
(1.31346400723 2.37040542973e-06 0)
(1.31346393184 2.46168269764e-06 0)
(1.31346398389 2.37113925736e-06 0)
(1.31346425355 2.01402874555e-06 0)
(1.31346486304 1.30188855575e-06 0)
(1.31346575277 1.84468737807e-07 0)
(1.31346705717 -1.50597411747e-06 0)
(1.31346921126 -4.03864016585e-06 0)
(1.31347238941 -8.14673854287e-06 0)
(1.31347681889 -1.50987545697e-05 0)
(1.313482734 -2.64580261112e-05 0)
(1.31349042328 -4.38251510898e-05 0)
(1.31350037738 -7.03822584875e-05 0)
(1.31351291709 -0.000111160905953 0)
(1.31352813092 -0.000173909782749 0)
(1.31354564612 -0.000270714702475 0)
(1.31356416396 -0.000420534672927 0)
(1.31358051345 -0.000653185166882 0)
(1.31358781244 -0.00101587769321 0)
(1.3135720295 -0.00158359453135 0)
(1.31350576314 -0.00247535316963 0)
(1.31333484758 -0.00387834464108 0)
(1.31295179723 -0.00608481663652 0)
(1.31214673712 -0.00953906398528 0)
(1.31051451335 -0.0148823128316 0)
(1.30730211501 -0.0229423423674 0)
(1.3013004943 -0.0345588232679 0)
(1.29064286747 -0.0501682281718 0)
(1.27185887208 -0.0685429514995 0)
(0.995736069165 0.0346338544639 0)
(1.0417951242 0.0905689197433 0)
(1.10222835103 0.12154956421 0)
(1.16491406737 0.129605832435 0)
(1.22202560374 0.122009265314 0)
(1.26951885198 0.106019933666 0)
(1.30680216215 0.0870975499489 0)
(1.33499527176 0.0686366742163 0)
(1.35574468744 0.0523698320936 0)
(1.37069607554 0.03892561174 0)
(1.38128265845 0.0282980686862 0)
(1.38866257507 0.020171274479 0)
(1.39373022523 0.0141175098313 0)
(1.3971564919 0.00970533739789 0)
(1.39943422483 0.00655059819916 0)
(1.40091953738 0.00433445881281 0)
(1.40186607446 0.00280415002812 0)
(1.4024520866 0.00176574909784 0)
(1.40280117712 0.00107420184669 0)
(1.40299786813 0.000623242301286 0)
(1.4030990842 0.000336416587651 0)
(1.40314253211 0.000159630023631 0)
(1.40315278621 5.51702482419e-05 0)
(1.40314529021 -2.99282648195e-06 0)
(1.40312952372 -3.21183297787e-05 0)
(1.40311111574 -4.38860468438e-05 0)
(1.40309307493 -4.57558159577e-05 0)
(1.40307692666 -4.24127039548e-05 0)
(1.40306327249 -3.67209287432e-05 0)
(1.40305218541 -3.03571766924e-05 0)
(1.40304346236 -2.42371279603e-05 0)
(1.40303677661 -1.8807414067e-05 0)
(1.40303176585 -1.42366570632e-05 0)
(1.40302808 -1.05270306637e-05 0)
(1.40302542103 -7.57714135741e-06 0)
(1.40302355755 -5.26201637464e-06 0)
(1.40302231385 -3.4587440046e-06 0)
(1.40302153996 -2.02324681233e-06 0)
(1.40302107098 -8.50892300779e-07 0)
(1.40302071088 8.06156818218e-08 0)
(1.40302039123 7.88570640291e-07 0)
(1.403020194 1.27580965508e-06 0)
(1.40302010558 1.64384155329e-06 0)
(1.40302003543 1.9589974664e-06 0)
(1.40301995052 2.25800582829e-06 0)
(1.403019845 2.55973143418e-06 0)
(1.4030197175 2.873448803e-06 0)
(1.4030195697 3.20294843913e-06 0)
(1.40301940282 3.54830381444e-06 0)
(1.40301920936 3.90058028415e-06 0)
(1.40301900004 4.21880382747e-06 0)
(1.40301880792 4.47017843518e-06 0)
(1.40301866093 4.61661146268e-06 0)
(1.40301858455 4.59887063462e-06 0)
(1.40301859255 4.32749421957e-06 0)
(1.40301869225 3.65703355616e-06 0)
(1.40301890793 2.38582966834e-06 0)
(1.4030192158 3.94303022106e-07 0)
(1.40301985917 -2.75267992604e-06 0)
(1.40302104441 -7.80583466784e-06 0)
(1.40302259339 -1.55668826685e-05 0)
(1.4030241816 -2.73585689596e-05 0)
(1.40302535026 -4.50414858501e-05 0)
(1.40302536013 -7.1604582605e-05 0)
(1.40302272508 -0.000111641784707 0)
(1.40301471111 -0.000172186096157 0)
(1.40299651775 -0.000264113009494 0)
(1.40295997058 -0.000404300702659 0)
(1.40289115181 -0.00061881297753 0)
(1.40276637403 -0.000948256236637 0)
(1.4025456272 -0.00145594154337 0)
(1.40216259486 -0.00224028631447 0)
(1.40150580089 -0.0034503162052 0)
(1.40038700252 -0.00530969004788 0)
(1.39849304853 -0.0081411130515 0)
(1.3953109952 -0.0123792229942 0)
(1.39002809031 -0.0185347299226 0)
(1.38149669973 -0.0270450132261 0)
(1.36822158488 -0.0379913897749 0)
(1.34781194859 -0.0504811142152 0)
(0.994011526275 0.0192358013647 0)
(1.03484761578 0.0523338392623 0)
(1.09199258959 0.0723631266565 0)
(1.15662414885 0.0791292300479 0)
(1.2203211015 0.0761045427671 0)
(1.27701938225 0.0673339661504 0)
(1.32424411184 0.0561508968619 0)
(1.36181565343 0.0447990036294 0)
(1.39068522068 0.0345303702202 0)
(1.41226065831 0.0258814258771 0)
(1.42801812513 0.0189465188905 0)
(1.43929873862 0.0135849789256 0)
(1.44722796508 0.00955653313835 0)
(1.45270401283 0.00660011610666 0)
(1.456418829 0.0044741924821 0)
(1.45889130564 0.00297351709817 0)
(1.46050216184 0.00193277357034 0)
(1.46152555117 0.001223699849 0)
(1.4621555607 0.000749557596251 0)
(1.46252738027 0.000439025411373 0)
(1.46273365254 0.000240528835043 0)
(1.4628367901 0.000117419065728 0)
(1.46287808666 4.4055622891e-05 0)
(1.46288431852 2.69626336046e-06 0)
(1.46287218697 -1.84399190114e-05 0)
(1.46285183015 -2.7433831681e-05 0)
(1.46282927571 -2.94328256174e-05 0)
(1.46280773719 -2.76816311906e-05 0)
(1.46278874275 -2.41786654994e-05 0)
(1.46277283587 -2.01048380388e-05 0)
(1.46276000658 -1.61097395735e-05 0)
(1.46274995945 -1.25163313384e-05 0)
(1.46274228264 -9.45089435196e-06 0)
(1.46273654399 -6.92423712104e-06 0)
(1.46273234507 -4.88194777525e-06 0)
(1.46272934407 -3.2542182216e-06 0)
(1.46272725353 -1.97797399259e-06 0)
(1.46272581705 -1.01198449987e-06 0)
(1.46272482237 -3.11891826687e-07 0)
(1.46272420397 2.09190736396e-07 0)
(1.4627238487 6.89160873603e-07 0)
(1.46272360681 1.16206691116e-06 0)
(1.46272344637 1.58223251314e-06 0)
(1.46272332867 1.95706046859e-06 0)
(1.46272322561 2.30813067323e-06 0)
(1.4627231191 2.64900843812e-06 0)
(1.46272299553 2.98492516748e-06 0)
(1.46272284578 3.31314508345e-06 0)
(1.4627226651 3.62378248768e-06 0)
(1.46272245075 3.90343116768e-06 0)
(1.4627222056 4.14383719075e-06 0)
(1.46272193693 4.31374305303e-06 0)
(1.46272165133 4.36213907711e-06 0)
(1.46272135885 4.21757960919e-06 0)
(1.46272107748 3.78638523486e-06 0)
(1.46272083327 2.9641525678e-06 0)
(1.46272057448 1.63612080023e-06 0)
(1.46272022232 -3.47650826215e-07 0)
(1.46271966819 -3.20149669468e-06 0)
(1.46271876128 -7.81400142345e-06 0)
(1.46271722647 -1.49679155101e-05 0)
(1.46271438671 -2.57513278755e-05 0)
(1.4627091315 -4.17169356028e-05 0)
(1.46269965735 -6.52520378785e-05 0)
(1.4626829032 -9.99612250311e-05 0)
(1.4626537346 -0.000151243314924 0)
(1.46260364514 -0.000227281945307 0)
(1.46251888052 -0.0003405575793 0)
(1.46237699572 -0.000509690570489 0)
(1.46214118059 -0.000763098786626 0)
(1.46175148579 -0.00114450902567 0)
(1.46111333128 -0.00172160244144 0)
(1.46007568138 -0.00259013767589 0)
(1.45839765753 -0.00388961340568 0)
(1.45570545864 -0.00581237107003 0)
(1.45143388759 -0.00860146051847 0)
(1.44476288507 -0.0125169162297 0)
(1.43462386964 -0.0177389991094 0)
(1.41975812444 -0.0242157128696 0)
(1.39832091678 -0.0314007544884 0)
(0.993269662193 0.00617014595445 0)
(1.03158097938 0.0171020450433 0)
(1.08672177983 0.0239906477208 0)
(1.15174549239 0.026560663507 0)
(1.21823529953 0.0258180549217 0)
(1.27925766928 0.0230488807231 0)
(1.33140128078 0.0193656248684 0)
(1.37377590323 0.0155468506969 0)
(1.40691044561 0.0120449229289 0)
(1.432033042 0.0090663931394 0)
(1.45060205238 0.00666058942228 0)
(1.46402975579 0.00479008778912 0)
(1.47355005153 0.00337842655433 0)
(1.48017551679 0.00233873833534 0)
(1.48470216215 0.00158891600983 0)
(1.48773607036 0.00105829271601 0)
(1.48972720037 0.000689468142126 0)
(1.49100262377 0.000437645145911 0)
(1.49179569843 0.000268893533456 0)
(1.4922700646 0.000158119443191 0)
(1.49253855247 8.71329352746e-05 0)
(1.4926776246 4.29825331998e-05 0)
(1.49273815306 1.65915955713e-05 0)
(1.49275332134 1.66984815209e-06 0)
(1.49274407903 -6.06314106329e-06 0)
(1.49272328695 -9.40805527726e-06 0)
(1.49269864083 -1.0212893669e-05 0)
(1.49267436892 -9.64802754513e-06 0)
(1.49265256953 -8.43235869051e-06 0)
(1.49263408318 -6.98548353151e-06 0)
(1.49261903071 -5.54636439686e-06 0)
(1.49260714956 -4.23589447073e-06 0)
(1.49259800919 -3.10121643495e-06 0)
(1.49259113421 -2.14785437518e-06 0)
(1.49258607103 -1.35940644233e-06 0)
(1.49258241977 -7.1371393209e-07 0)
(1.49257984499 -1.89148978615e-07 0)
(1.49257807725 2.35827608507e-07 0)
(1.4925769101 6.06767754572e-07 0)
(1.49257616564 9.74924075847e-07 0)
(1.49257568982 1.27863204374e-06 0)
(1.49257539015 1.56061483619e-06 0)
(1.49257520994 1.83846683952e-06 0)
(1.49257509762 2.12245063093e-06 0)
(1.49257501532 2.42033111581e-06 0)
(1.49257493722 2.73499124283e-06 0)
(1.49257484452 3.06530483165e-06 0)
(1.49257472339 3.40680825973e-06 0)
(1.49257456341 3.75077167377e-06 0)
(1.4925743558 4.08258064003e-06 0)
(1.49257409454 4.38153004253e-06 0)
(1.49257377534 4.61551129786e-06 0)
(1.49257339016 4.73892044504e-06 0)
(1.4925729253 4.68901659463e-06 0)
(1.49257236288 4.37961844396e-06 0)
(1.49257168445 3.69172149744e-06 0)
(1.49257085965 2.46626077906e-06 0)
(1.49256974766 6.51879924986e-07 0)
(1.49256795175 -2.03057782778e-06 0)
(1.49256517734 -6.19772454684e-06 0)
(1.4925610244 -1.23861722007e-05 0)
(1.49255446434 -2.13702329392e-05 0)
(1.49254388789 -3.42382266733e-05 0)
(1.49252675799 -5.25488784195e-05 0)
(1.49249896092 -7.85071449419e-05 0)
(1.49245380078 -0.000115153602094 0)
(1.49238040268 -0.000166861275991 0)
(1.49226169606 -0.000240142327801 0)
(1.49207033626 -0.000343513381985 0)
(1.49176175715 -0.000489507087741 0)
(1.49126366422 -0.00069825000251 0)
(1.49046730316 -0.00100354528316 0)
(1.48920336416 -0.00143791561534 0)
(1.48720608768 -0.00204883126826 0)
(1.48407712181 -0.00289764012123 0)
(1.47923680853 -0.00405183096057 0)
(1.47187856858 -0.00556567608382 0)
(1.460989269 -0.00744066736031 0)
(1.44542226326 -0.00958274937846 0)
(1.42356893156 -0.0117434184563 0)
(0.993270459887 -0.00616840570844 0)
(1.03158096148 -0.0171003771342 0)
(1.08672171258 -0.0239897632181 0)
(1.15174552887 -0.0265602500887 0)
(1.21823537625 -0.0258179979477 0)
(1.27925777024 -0.02304911632 0)
(1.33140140591 -0.0193660543415 0)