/*--------------------------------*- C++ -*----------------------------------*\
| =========                 |                                                 |
| \\      /  F ield         | OpenFOAM: The Open Source CFD Toolbox           |
|  \\    /   O peration     | Version:  2106                                  |
|   \\  /    A nd           | Website:  www.openfoam.com                      |
|    \\/     M anipulation  |                                                 |
\*---------------------------------------------------------------------------*/
FoamFile
{
    version     2.0;
    format      ascii;
    arch        "LSB;label=32;scalar=64";
    class       surfaceScalarField;
    location    "0.185";
    object      phi;
}
// * * * * * * * * * * * * * * * * * * * * * * * * * * * * * * * * * * * * * //

dimensions      [0 3 -1 0 0 0 0];

oriented        oriented;

internalField   nonuniform List<scalar> 
22100
(
3.38461203419e-05
1.61538796515e-05
2.24572098983e-05
1.13889103768e-05
1.62585530512e-05
6.19865676638e-06
1.27977760826e-05
3.46077686402e-06
1.08046422135e-05
1.99313376437e-06
9.60458916762e-06
1.20005290787e-06
8.85132137325e-06
7.53267635265e-07
8.36435253492e-06
4.86968694204e-07
8.04433464189e-06
3.20017773694e-07
7.83283983991e-06
2.11494707687e-07
7.6933966653e-06
1.39443102415e-07
7.60223976225e-06
9.11568510702e-08
7.54347695929e-06
5.87627744845e-08
7.50634002843e-06
3.71369382726e-08
7.48350051258e-06
2.28395553899e-08
7.46997969398e-06
1.35208839028e-08
7.46241509937e-06
7.56468722828e-09
7.45854713583e-06
3.86809260666e-09
7.45682833787e-06
1.71896714744e-09
7.45642188171e-06
4.06678937809e-10
7.45677196368e-06
-3.49794940418e-10
7.45745846217e-06
-6.86150362083e-10
7.45821715058e-06
-7.58301055332e-10
7.45894279559e-06
-7.25245360188e-10
7.459587418e-06
-6.44243828341e-10
7.46013162665e-06
-5.43865174703e-10
7.46057397365e-06
-4.42044919043e-10
7.46092291001e-06
-3.48688289038e-10
7.46119134949e-06
-2.68249299411e-10
7.46139340123e-06
-2.01911440858e-10
7.4615424646e-06
-1.48960160969e-10
7.46165027876e-06
-1.07718744723e-10
7.46172658944e-06
-7.61974184316e-11
7.46177953121e-06
-5.27974932716e-11
7.46181304876e-06
-3.33488056172e-11
7.46183209515e-06
-1.88711904989e-11
7.46184138703e-06
-9.1382859229e-12
7.46184432892e-06
-2.84769795451e-12
7.46184283795e-06
1.48691643634e-12
7.46183803956e-06
4.67533893604e-12
7.46183088684e-06
6.91396597006e-12
7.46182202877e-06
8.53180789284e-12
7.46181189209e-06
9.77743213149e-12
7.46180071057e-06
1.08687976712e-11
7.46178852813e-06
1.19953222508e-11
7.46177520764e-06
1.32906260978e-11
7.46176046359e-06
1.48421528161e-11
7.46174389453e-06
1.67210565368e-11
7.46172498073e-06
1.90134679513e-11
7.46170313762e-06
2.18112062112e-11
7.4616777366e-06
2.51919223393e-11
7.46164809759e-06
2.92396017503e-11
7.46161349069e-06
3.40481115826e-11
7.46157313135e-06
3.97197524878e-11
7.4615261972e-06
4.63090784847e-11
7.46147189673e-06
5.37876186656e-11
7.46140951079e-06
6.2063024699e-11
7.46133874961e-06
7.06439184798e-11
7.46126020441e-06
7.85921583762e-11
7.46117616499e-06
8.41786438512e-11
7.46109254359e-06
8.3768749678e-11
7.46102172573e-06
7.08925756e-11
7.460971889e-06
4.97895576138e-11
7.4609616986e-06
1.00641666954e-11
7.46102708198e-06
-6.55354910074e-11
7.46122630977e-06
-1.9934934331e-10
7.46165412943e-06
-4.27836620564e-10
7.46246096906e-06
-8.06820424515e-10
7.46388294557e-06
-1.42187970365e-09
7.4662769353e-06
-2.39377181555e-09
7.47009414949e-06
-3.81695818629e-09
7.47655108868e-06
-6.4566943559e-09
7.48734474566e-06
-1.07933226337e-08
7.5055673066e-06
-1.82221859017e-08
7.53884553951e-06
-3.32778994516e-08
7.60825127086e-06
-6.94054868866e-08
7.77536447039e-06
-1.67113096844e-07
8.2315228598e-06
-4.56158515689e-07
9.70346516588e-06
-1.47194262347e-06
-5.47087026996e-06
1.51743352875e-05
5.02175948072e-05
1.59362847358e-05
4.4244111505e-05
1.73623934861e-05
3.77795013368e-05
1.26632667541e-05
3.26461437928e-05
8.59413418766e-06
2.89380916066e-05
5.70118570465e-06
2.6359621125e-05
3.77852312832e-06
2.45875166364e-05
2.52537186981e-06
2.33734745273e-05
1.70101058242e-06
2.25435254588e-05
1.14996666393e-06
2.19782167837e-05
7.76803248108e-07
2.15955142873e-05
5.2214549971e-07
2.13387377822e-05
3.47933309851e-07
2.11684963443e-05
2.2900421645e-07
2.10573388457e-05
1.48294488799e-07
2.09861510765e-05
9.40274343629e-08
2.09416788781e-05
5.7993241784e-08
2.0914797295e-05
3.44464977756e-08
2.08992984953e-05
1.93672056618e-08
2.08910750508e-05
9.94282738972e-09
2.08872752227e-05
4.20702938782e-09
2.08862066656e-05
7.19390107791e-10
2.08864529237e-05
-9.31726186913e-10
2.08873248799e-05
-1.62957189704e-09
2.0888464883e-05
-1.86460031104e-09
2.08896386919e-05
-1.81745932238e-09
2.08907221305e-05
-1.6267781863e-09
2.08916601321e-05
-1.37960210403e-09
2.08924380196e-05
-1.12621940624e-09
2.08930635613e-05
-8.93527332542e-10
2.08935560017e-05
-6.94149512674e-10
2.08939401419e-05
-5.32911623287e-10
2.08942420374e-05
-4.09400432464e-10
2.08944534204e-05
-2.87322928901e-10
2.08946009464e-05
-2.00030872481e-10
2.08947017963e-05
-1.33913998673e-10
2.08947676387e-05
-8.4484989425e-11
2.08948085659e-05
-4.99477421138e-11
2.08948327187e-05
-2.70487953618e-11
2.08948448919e-05
-1.09242395201e-11
2.08948480065e-05
1.14849767129e-12
2.08948445008e-05
9.8844892406e-12
2.08948360931e-05
1.63787123006e-11
2.08948239948e-05
2.14091476424e-11
2.08948089831e-05
2.5602830853e-11
2.08947914549e-05
2.94774376963e-11
2.08947715e-05
3.33704068973e-11
2.089474901e-05
3.75086273644e-11
2.08947237607e-05
4.20708772842e-11
2.08946954328e-05
4.72427149264e-11
2.0894663697e-05
5.31609677165e-11
2.0894628295e-05
5.9874040531e-11
2.08945891018e-05
6.74392798347e-11
2.08945461898e-05
7.5846857247e-11
2.08944999267e-05
8.49261937024e-11
2.08944511847e-05
9.42145939068e-11
2.08944017308e-05
1.02752791749e-10
2.08943546787e-05
1.08964306143e-10
2.08943156407e-05
1.0974414819e-10
2.08942939022e-05
1.00478353523e-10
2.08943043892e-05
7.3871652742e-11
2.08943731037e-05
1.52069360196e-11
2.08945494265e-05
-1.05418586122e-10
2.08949014603e-05
-3.02369714916e-10
2.08955469387e-05
-6.35564580649e-10
2.08965990741e-05
-1.1177806191e-09
2.08982294952e-05
-1.82987974688e-09
2.09007974688e-05
-2.9957877126e-09
2.09048526766e-05
-4.86184145614e-09
2.09112673574e-05
-7.83617942571e-09
2.09214706195e-05
-1.25965560029e-08
2.09379626035e-05
-2.03084408293e-08
2.09649039721e-05
-3.33975008694e-08
2.10092633773e-05
-5.5152106353e-08
2.1084267324e-05
-9.32255394557e-08
2.12159465274e-05
-1.64956591669e-07
2.14574275502e-05
-3.10886185088e-07
2.19170597467e-05
-6.26745063491e-07
2.28079066009e-05
-1.34700523405e-06
2.4460101322e-05
-3.12413712618e-06
-7.07096054104e-06
2.6060191444e-05
5.35171052279e-05
1.24191794238e-05
5.29349680755e-05
1.79445304893e-05
4.96538397361e-05
1.59443949279e-05
4.58401809026e-05
1.2407792826e-05
4.24400917277e-05
9.10127466734e-06
3.97291715938e-05
6.48944303896e-06
3.76873049621e-05
4.56723829404e-06
3.61976620154e-05
3.19065335361e-06
3.5132611296e-05
2.21501723906e-06
3.43823661889e-05
1.52704823945e-06
3.38606251796e-05
1.04388642368e-06
3.35023449425e-05
7.06213499347e-07
3.3259600077e-05
4.7174907667e-07
3.30975898445e-05
3.10304762572e-07
3.29913338762e-05
2.00283483466e-07
3.29230921469e-05
1.26235108663e-07
3.2880404391e-05
7.71344537269e-08
3.28546195056e-05
4.51523718548e-08
3.28397927129e-05
2.47699936038e-08
3.28318666005e-05
1.21336134819e-08
3.28279976237e-05
4.58891430491e-09
3.28269994607e-05
6.70277862628e-11
3.28271807634e-05
-1.810286532e-09
3.28280296936e-05
-2.71297100837e-09
3.28291459646e-05
-2.93321023252e-09
3.28302936763e-05
-2.77402928909e-09
3.28313500667e-05
-2.43560971347e-09
3.28322608248e-05
-2.03668567459e-09
3.28330111133e-05
-1.64360941046e-09
3.28336070507e-05
-1.28992755946e-09
3.28340636216e-05
-9.89322284223e-10
3.28343989165e-05
-7.444968006e-10
3.28346656206e-05
-5.5378124923e-10
3.28348822672e-05
-4.16407691986e-10
3.28350299211e-05
-2.8130604825e-10
3.28351294981e-05
-1.83853539193e-10
3.28351956165e-05
-1.15968315702e-10
3.28352376537e-05
-6.91381954979e-11
3.28352624811e-05
-3.59705221279e-11
3.28352740408e-05
-1.07855401735e-11
3.28352759221e-05
7.52550373444e-12
3.28352706798e-05
2.11271696982e-11
3.28352602096e-05
3.14840453465e-11
3.28352457956e-05
3.98082549481e-11
3.28352281938e-05
4.70699700348e-11
3.28352078165e-05
5.38825554332e-11
3.28351848618e-05
6.06285264139e-11
3.28351594039e-05
6.76003680407e-11
3.28351313741e-05
7.51579592625e-11
3.28351007681e-05
8.33966230876e-11
3.28350678698e-05
9.21179889424e-11
3.28350332862e-05
1.01143940932e-10
3.28349980773e-05
1.10078884836e-10
3.28349640153e-05
1.18066154023e-10
3.28349340391e-05
1.23463878619e-10
3.28349128485e-05
1.23510049245e-10
3.28349072365e-05
1.14446731293e-10
3.28349280855e-05
8.89685584198e-11
3.28349924576e-05
3.62653793266e-11
3.28351293752e-05
-6.28946757313e-11
3.28353898011e-05
-2.45182003203e-10
3.28358611893e-05
-5.7690333343e-10
3.28365661419e-05
-1.00746894782e-09
3.28375916895e-05
-1.66124871633e-09
3.28391925425e-05
-2.71868444562e-09
3.28417505354e-05
-4.38782771215e-09
3.28457701307e-05
-7.0152736158e-09
3.28520676959e-05
-1.11592204326e-08
3.28619604016e-05
-1.77286107215e-08
3.28776204674e-05
-2.82563193706e-08
3.29027223918e-05
-4.54099926637e-08
3.29426414366e-05
-7.33160944249e-08
3.30072521296e-05
-1.19762335251e-07
3.31136176679e-05
-1.99590605015e-07
3.32909003866e-05
-3.42238899912e-07
3.35875800777e-05
-6.07565662833e-07
3.40752321822e-05
-1.11439722019e-06
3.48207972199e-05
-2.09257040318e-06
3.56889068801e-05
-3.99224710008e-06
-7.14778579873e-06
3.5765731043e-05
5.3510566334e-05
8.90861300946e-06
5.55742219253e-05
1.58808747442e-05
5.52424820204e-05
1.62761346626e-05
5.35977852756e-05
1.40524893774e-05
5.15418468341e-05
1.11572129155e-05
4.95802788886e-05
8.4510107798e-06
4.79243497116e-05
6.22316727389e-06
4.66181377229e-05
4.49686517493e-06
4.56304648454e-05
3.20268997497e-06
4.49051158575e-05
2.25239711071e-06
4.4384088668e-05
1.56491353131e-06
4.40166925511e-05
1.07360956305e-06
4.37619661251e-05
7.26475485149e-07
4.35882676238e-05
4.840032903e-07
4.34718684094e-05
3.16682773987e-07
4.33953585327e-05
2.02745122211e-07
4.33461885104e-05
1.26304686884e-07
4.33154512258e-05
7.58899489115e-08
4.32969152666e-05
4.33063362061e-08
4.32862896919e-05
2.27596520831e-08
4.32806874207e-05
1.01917108796e-08
4.32778803695e-05
2.87463271842e-09
4.32770531811e-05
-9.82543576635e-10
4.3277271713e-05
-2.9309597645e-09
4.32779598843e-05
-3.62086879219e-09
4.32788235428e-05
-3.63723398791e-09
4.32796968983e-05
-3.30860221118e-09
4.32804948265e-05
-2.83435592258e-09
4.32811809994e-05
-2.32959457069e-09
4.32817472353e-05
-1.85599674018e-09
4.32822003985e-05
-1.44230357339e-09
4.32825532053e-05
-1.09708936497e-09
4.32828154323e-05
-8.15762553551e-10
4.32829913793e-05
-5.92103747079e-10
4.32831248713e-05
-4.14568650265e-10
4.32832109142e-05
-2.69721521077e-10
4.32832651708e-05
-1.70142773779e-10
4.32833052019e-05
-1.09213709638e-10
4.32833297077e-05
-6.06734030261e-11
4.32833416449e-05
-2.30647015421e-11
4.32833444884e-05
4.25055863128e-12
4.32833402623e-05
2.49240692398e-11
4.32833307253e-05
4.06853327029e-11
4.32833170944e-05
5.32685372746e-11
4.32833000091e-05
6.41658110856e-11
4.3283279824e-05
7.41928327372e-11
4.32832567697e-05
8.38239306031e-11
4.32832310198e-05
9.33975982824e-11
4.32832028315e-05
1.03182543034e-10
4.32831727056e-05
1.13077832741e-10
4.32831412486e-05
1.22866417873e-10
4.32831094775e-05
1.32042390701e-10
4.32830789312e-05
1.39716971037e-10
4.32830518072e-05
1.44376421747e-10
4.32830311233e-05
1.43535900042e-10
4.32830211143e-05
1.33156326467e-10
4.32830290323e-05
1.06392183876e-10
4.32830665535e-05
5.15065941549e-11
4.3283152411e-05
-4.94063717633e-11
4.32833065555e-05
-2.16885779891e-10
4.32835287728e-05
-4.67374603598e-10
4.32839560624e-05
-1.00430099091e-09
4.32847033166e-05
-1.75487429521e-09
4.3285932343e-05
-2.89040645518e-09
4.32878486901e-05
-4.63514164611e-09
4.32908013374e-05
-7.34047872906e-09
4.32953505297e-05
-1.15643085627e-08
4.33023767953e-05
-1.81852413317e-08
4.33132663252e-05
-2.86178922751e-08
4.33301850334e-05
-4.51747152423e-08
4.33564568802e-05
-7.16814646686e-08
4.33976776497e-05
-1.1453645881e-07
4.34627437448e-05
-1.84827954421e-07
4.35654579437e-05
-3.02304309164e-07
4.37259084329e-05
-5.02688916148e-07
4.39689072525e-05
-8.50564294611e-07
4.4311430482e-05
-1.45692055611e-06
4.47151015809e-05
-2.4962415671e-06
4.49389226505e-05
-4.21606793888e-06
-6.62244579475e-06
4.44135822824e-05
5.27351378596e-05
6.1734750537e-06
5.57309340762e-05
1.28850783451e-05
5.73114736771e-05
1.46955948671e-05
5.76109909444e-05
1.37529718944e-05
5.71335215846e-05
1.16346820692e-05
5.63194669191e-05
9.26506524133e-06
5.54489866653e-05
7.09364733677e-06
5.46629760821e-05
5.28287558887e-06
5.40136805508e-05
3.85198536266e-06
5.35061492982e-05
2.7599282469e-06
5.31242535132e-05
1.94680923239e-06
5.28449841566e-05
1.35287887339e-06
5.2645438151e-05
9.26021480325e-07
5.25057142015e-05
6.23727274218e-07
5.24097197828e-05
4.12677278798e-07
5.23450141835e-05
2.67450870009e-07
5.23022768385e-05
1.69042253746e-07
5.22746902256e-05
1.03476869483e-07
5.2257366296e-05
6.06306546956e-08
5.22468582778e-05
3.32681342393e-08
5.2240759261e-05
1.62912405388e-08
5.22374510378e-05
6.18339123488e-09
5.22359529792e-05
5.16061203093e-10
5.22354455709e-05
-2.42300676093e-09
5.22355109949e-05
-3.68577601368e-09
5.22358568426e-05
-3.98263454061e-09
5.22363113852e-05
-3.76279608899e-09
5.22367779901e-05
-3.30071076261e-09
5.22372055903e-05
-2.75699965589e-09
5.22375715015e-05
-2.22171495229e-09
5.22378690521e-05
-1.73963444603e-09
5.22381010358e-05
-1.32883259082e-09
5.22382777304e-05
-9.92203854817e-10
5.22384110153e-05
-7.25135847904e-10
5.22385117404e-05
-5.15066651799e-10
5.22385964593e-05
-3.54272696526e-10
5.22386623024e-05
-2.35912760607e-10
5.22387045905e-05
-1.51562878346e-10
5.22387373811e-05
-9.36827676461e-11
5.22387526016e-05
-3.86482779986e-11
5.22387575295e-05
-1.11504322059e-12
5.2238754817e-05
2.72339804116e-11
5.22387464551e-05
4.87658741274e-11
5.2238733822e-05
6.57844509652e-11
5.22387177575e-05
8.02620149644e-11
5.22386987804e-05
9.32754531889e-11
5.22386773561e-05
1.05341693025e-10
5.22386543408e-05
1.16388915064e-10
5.22386292483e-05
1.28025083965e-10
5.22386013602e-05
1.40428551784e-10
5.22385721058e-05
1.51341873696e-10
5.22385426087e-05
1.6063404075e-10
5.22385144488e-05
1.66967437926e-10
5.22384900548e-05
1.68004989367e-10
5.22384736908e-05
1.59400961756e-10
5.22384760242e-05
1.3057106041e-10
5.2238501985e-05
8.03594781907e-11
5.22385677178e-05
-1.41558816792e-11
5.22386808594e-05
-1.62423645403e-10
5.22388595611e-05
-3.9551655018e-10
5.22391851309e-05
-7.92944013338e-10
5.22396836671e-05
-1.50291825757e-09
5.2240433422e-05
-2.50473538065e-09
5.22415662995e-05
-4.02328985238e-09
5.22432849996e-05
-6.35382667898e-09
5.22458909213e-05
-9.94635582546e-09
5.22498362299e-05
-1.55094570748e-08
5.22558127535e-05
-2.41615558218e-08
5.22648815978e-05
-3.76865328172e-08
5.22786655949e-05
-5.8958486724e-08
5.22996334678e-05
-9.26491031677e-08
5.23315189371e-05
-1.46421614905e-07
5.2379697756e-05
-2.33006332943e-07
5.24511505408e-05
-3.73756547346e-07
5.25528254802e-05
-6.043634022e-07
5.26853828869e-05
-9.83121432374e-07
5.28267088375e-05
-1.59824651458e-06
5.28952914467e-05
-2.56482452115e-06
5.26781378636e-05
-3.99891474692e-06
-5.8129954094e-06
5.18686870741e-05
5.19834863197e-05
4.18998861292e-06
5.50586635741e-05
9.80990087413e-06
5.76386125523e-05
1.21156456737e-05
5.93259022361e-05
1.20656819851e-05
6.02280140295e-05
1.07325700588e-05
6.05929249869e-05
8.9001540742e-06
6.064828171e-05
7.03829042756e-06
6.05531870894e-05
5.3779700483e-06
6.04029523918e-05
4.00221993055e-06
6.02479118024e-05
2.91496873828e-06
6.0110786232e-05
2.08393474066e-06
5.99990267048e-05
1.46463837187e-06
5.99125115637e-05
1.01253663224e-06
5.98479197441e-05
6.88319145927e-07
5.98010162939e-05
4.59580834859e-07
5.97677318097e-05
3.00735520302e-07
5.9744590683e-05
1.92183619148e-07
5.97288124395e-05
1.19255431747e-07
5.97182646699e-05
7.11788243067e-08
5.9711358927e-05
4.01743412761e-08
5.97069400805e-05
2.07105950813e-08
5.97042067216e-05
8.91729028961e-09
5.97025982467e-05
2.12509300079e-09
5.97016942644e-05
-1.51847072936e-09
5.97012364859e-05
-3.22748172829e-09
5.97010474134e-05
-3.79312923289e-09
5.97010115065e-05
-3.72654590002e-09
5.97010561159e-05
-3.34504819538e-09
5.97011375471e-05
-2.83819474326e-09
5.97012301527e-05
-2.31409578444e-09
5.97013200698e-05
-1.8293232734e-09
5.97014006875e-05
-1.40921906665e-09
5.97014705705e-05
-1.06185359805e-09
5.97015303144e-05
-7.84643770709e-10
5.97015807081e-05
-5.65233153403e-10
5.97016206403e-05
-3.94026215506e-10
5.97016484996e-05
-2.63693267487e-10
5.97016638622e-05
-1.66994513625e-10
5.97016620454e-05
-9.20974693503e-11
5.97016535279e-05
-3.04813824646e-11
5.97016464607e-05
5.55349993292e-12
5.97016367488e-05
3.6596861738e-11
5.97016258531e-05
5.94395486808e-11
5.97016138676e-05
7.7690594197e-11
5.97015996207e-05
9.45310606117e-11
5.97015828475e-05
1.10108193619e-10
5.97015634386e-05
1.24775135484e-10
5.97015409856e-05
1.3872018968e-10
5.97015166823e-05
1.51973449021e-10
5.97014923863e-05
1.64115844906e-10
5.97014683374e-05
1.74603798437e-10
5.97014458595e-05
1.82237967105e-10
5.970142678e-05
1.8519777565e-10
5.97014131176e-05
1.80992578578e-10
5.97014055782e-05
1.66522335484e-10
5.97013970873e-05
1.38886669663e-10
5.97013946217e-05
8.28317804043e-11
5.9701404266e-05
-2.37223253378e-11
5.97014639655e-05
-2.22071922792e-10
5.97016372852e-05
-5.68847609585e-10
5.97019230843e-05
-1.07885110254e-09
5.97022921054e-05
-1.87213007299e-09
5.97028467336e-05
-3.05953438356e-09
5.97036701495e-05
-4.84670973875e-09
5.9704875218e-05
-7.55874678198e-09
5.97066258255e-05
-1.1696720324e-08
5.97091590698e-05
-1.80424520718e-08
5.97128174996e-05
-2.78197303084e-08
5.9718089648e-05
-4.29584516951e-08
5.97256563262e-05
-6.65250135317e-08
5.97364218054e-05
-1.03414448271e-07
5.97514504897e-05
-1.61450105513e-07
5.97715858735e-05
-2.5314137385e-07
5.97962461492e-05
-3.98416343659e-07
5.9820282359e-05
-6.28399111448e-07
5.98268046174e-05
-9.8964336298e-07
5.97736771877e-05
-1.5451189912e-06
5.95726658938e-05
-2.3638133992e-06
5.90651444814e-05
-3.49139366826e-06
-4.83701592434e-06
5.80891644123e-05
5.14373052163e-05
2.75268325652e-06
5.42658201527e-05
6.98138569311e-06
5.72496425389e-05
9.13182304951e-06
5.97900266056e-05
9.52529768177e-06
6.17201268297e-05
8.80246961927e-06
6.3088301521e-05
7.53197917516e-06
6.40167148541e-05
6.10987690714e-06
6.46292344679e-05
4.76545027894e-06
6.50258012851e-05
3.60565298875e-06
6.52790757663e-05
2.66169417168e-06
6.5438970767e-05
1.92403969629e-06
6.55386875883e-05
1.36492153998e-06
6.55999261605e-05
9.51298087957e-07
6.56367410595e-05
6.51504316347e-07
6.56581922981e-05
4.38129709803e-07
6.56701007235e-05
2.88827262266e-07
6.56761902399e-05
1.86094335735e-07
6.5678826911e-05
1.16619073921e-07
6.56794977974e-05
7.05083283144e-08
6.56791221096e-05
4.05504805043e-08
6.56782552838e-05
2.15779214265e-08
6.56772249711e-05
9.94814334057e-09
6.5676216337e-05
3.13428973585e-09
6.5675307648e-05
-6.09229950888e-10
6.56745394962e-05
-2.45883373587e-09
6.56739115988e-05
-3.16482179967e-09
6.56734130806e-05
-3.22769603523e-09
6.56730264899e-05
-2.95817393809e-09
6.56727328606e-05
-2.54429963105e-09
6.56725140385e-05
-2.0950258349e-09
6.56723539195e-05
-1.66897699219e-09
6.56722388452e-05
-1.29392377629e-09
6.5672156699e-05
-9.79477993886e-10
6.56720968559e-05
-7.24557673071e-10
6.56720535105e-05
-5.21651982856e-10
6.567202239e-05
-3.62731059435e-10
6.56719973537e-05
-2.38609509796e-10
6.56719756054e-05
-1.45363469352e-10
6.56719601016e-05
-7.68673633452e-11
6.56719578632e-05
-2.85965922832e-11
6.56719558673e-05
7.19703170822e-12
6.56719480508e-05
4.4132190037e-11
6.56719375617e-05
6.9757549856e-11
6.56719246012e-05
9.05937501922e-11
6.56719100636e-05
1.09082991364e-10
6.56718938944e-05
1.26302824222e-10
6.56718758548e-05
1.4278358521e-10
6.56718557527e-05
1.58606216262e-10
6.56718343832e-05
1.72885588981e-10
6.56718133648e-05
1.84466654384e-10
6.5671791607e-05
1.95554754173e-10
6.56717697887e-05
2.03199992105e-10
6.56717490828e-05
2.05145682878e-10
6.56717312666e-05
1.98259039242e-10
6.56717195053e-05
1.77961443323e-10
6.56717203893e-05
1.37897823754e-10
6.56717298032e-05
7.34462758021e-11
6.5671744447e-05
-3.83069324736e-11
6.56718092873e-05
-2.86916631695e-10
6.56718951873e-05
-6.548122063e-10
6.56720307349e-05
-1.21454792307e-09
6.56722220668e-05
-2.0636152899e-09
6.56724844222e-05
-3.32194643364e-09
6.56728334895e-05
-5.19571499513e-09
6.56732787184e-05
-8.00380810318e-09
6.56738158182e-05
-1.22335621646e-08
6.56744127993e-05
-1.86391831652e-08
6.56749801027e-05
-2.83868227069e-08
6.56753116038e-05
-4.32898289452e-08
6.567497392e-05
-6.61872807207e-08
6.56730928708e-05
-1.01533347853e-07
6.56679173956e-05
-1.56274439077e-07
6.56558904618e-05
-2.41114095319e-07
6.56298474983e-05
-3.72372865619e-07
6.55755713717e-05
-5.74122362553e-07
6.54657012516e-05
-8.79772690488e-07
6.52508169512e-05
-1.3302344149e-06
6.48503777096e-05
-1.96337423457e-06
6.4150995096e-05
-2.79201118944e-06
-3.74692230462e-06
6.30609009316e-05
5.1085042202e-05
1.6676408993e-06
5.36118441209e-05
4.45458351053e-06
5.66873157633e-05
6.05635115712e-06
5.96894454955e-05
6.52316770181e-06
6.22997258543e-05
6.19218904366e-06
6.44136871829e-05
5.41801764257e-06
6.60471831231e-05
4.47638078494e-06
6.72686145185e-05
3.54401874037e-06
6.81598934608e-05
2.71437394201e-06
6.87977600298e-05
2.02382754056e-06
6.92467444416e-05
1.47505526164e-06
6.955796337e-05
1.05370261983e-06
6.97704301995e-05
7.38831294078e-07
6.99131734873e-05
5.08761099443e-07
7.00073849075e-05
3.43918402476e-07
7.00682948816e-05
2.27917451523e-07
7.01066974271e-05
1.47692022163e-07
7.01301403444e-05
9.31764632318e-08
7.01438301645e-05
5.68188871546e-08
7.0151307022e-05
3.30740657919e-08
7.01549402933e-05
1.7945142022e-08
7.01562888854e-05
8.60008303147e-09
7.01563615784e-05
3.0621479192e-09
7.01557702799e-05
-1.74025757104e-11
7.01549100809e-05
-1.59816718906e-09
7.01539870442e-05
-2.2413904622e-09
7.01531188898e-05
-2.3592030606e-09
7.01523592837e-05
-2.19827151051e-09
7.01517254423e-05
-1.91019225473e-09
7.01512145219e-05
-1.58386165918e-09
7.0150813603e-05
-1.2678366701e-09
7.0150505752e-05
-9.85852562116e-10
7.01502733462e-05
-7.46833760208e-10
7.0150100209e-05
-5.51167470523e-10
7.01499733147e-05
-3.94519979475e-10
7.01498819598e-05
-2.71210014717e-10
7.01498189854e-05
-1.75599476605e-10
7.01497769699e-05
-1.03465436683e-10
7.01497479214e-05
-4.80697542927e-11
7.01497174194e-05
1.58919844143e-12
7.01496933536e-05
3.09700982607e-11
7.01496797187e-05
5.75576996684e-11
7.01496687116e-05
8.0640302336e-11
7.01496583459e-05
1.00912526015e-10
7.01496478388e-05
1.19602501159e-10
7.01496367363e-05
1.37410804031e-10
7.0149624807e-05
1.54606593674e-10
7.01496119878e-05
1.71101643238e-10
7.01495977627e-05
1.86549676432e-10
7.01495810796e-05
2.00403962598e-10
7.01495639388e-05
2.11845503465e-10
7.01495471068e-05
2.19212718146e-10
7.01495314191e-05
2.20188154824e-10
7.01495176072e-05
2.11654998702e-10
7.01495055942e-05
1.89757228812e-10
7.01494933619e-05
1.50063766956e-10
7.01494772102e-05
8.96202640176e-11
7.01494715696e-05
-3.26371405605e-11
7.01494671891e-05
-2.8263486404e-10
7.01494785888e-05
-6.66428335379e-10
7.01494892845e-05
-1.22549394129e-09
7.01494757256e-05
-2.05024996846e-09
7.01494097566e-05
-3.25601395836e-09
7.01492368869e-05
-5.02266838156e-09
7.01488560826e-05
-7.62270532565e-09
7.01480892874e-05
-1.14664313755e-08
7.01466327465e-05
-1.7182333415e-08
7.01439678583e-05
-2.57217792598e-08
7.01392106285e-05
-3.85325993425e-08
7.0130867986e-05
-5.78447022772e-08
7.01164407354e-05
-8.71061147006e-08
7.00917349109e-05
-1.31568497141e-07
7.00496103998e-05
-1.98989286042e-07
6.99780157512e-05
-3.00777702051e-07
6.9856854588e-05
-4.52960555271e-07
6.96534611343e-05
-6.76378730172e-07
6.93175476378e-05
-9.94320463152e-07
6.87789398432e-05
-1.42476641177e-06
6.7954049688e-05
-1.96712111391e-06
-2.57618120194e-06
6.67833080789e-05
5.08804130332e-05
7.87227694556e-07
5.31704657296e-05
2.16453051848e-06
5.62177490048e-05
3.00906761414e-06
5.94382687306e-05
3.30264772374e-06
6.24449682956e-05
3.18548925855e-06
6.50382514704e-05
2.82473426002e-06
6.71548648223e-05
2.35976724858e-06
6.88135631402e-05
1.8853202785e-06
7.00731690097e-05
1.45476797524e-06
7.10056658887e-05
1.09133061322e-06
7.16812621392e-05
7.99459003727e-07
7.21614214927e-05
5.7354328932e-07
7.24966024527e-05
4.03650374536e-07
7.27264790815e-05
2.788845319e-07
7.288127811e-05
1.89119473045e-07
7.29834680611e-05
1.25727658193e-07
7.30494121174e-05
8.17481947907e-08
7.30908145772e-05
5.17743056047e-08
7.3115908945e-05
3.17248928532e-08
7.31303939434e-05
1.85895040086e-08
7.3138149182e-05
1.01903926266e-08
7.31417701549e-05
4.97963630345e-09
7.31429583739e-05
1.87445912382e-09
7.31428124623e-05
1.29005945027e-10
7.31419896061e-05
-7.74870623598e-10
7.31409069857e-05
-1.15838483053e-09
7.31397923185e-05
-1.24418775176e-09
7.3138765011e-05
-1.17065082236e-09
7.31378775169e-05
-1.02243271386e-09
7.31371437571e-05
-8.49872548775e-10
7.31365563714e-05
-6.80223331082e-10
7.31360979899e-05
-5.27227681113e-10
7.31357477542e-05
-3.96332843542e-10
7.31354850192e-05
-2.88174312626e-10
7.31352914106e-05
-2.0070512939e-10
7.31351512606e-05
-1.30953378259e-10
7.31350513046e-05
-7.56666412257e-11
7.31349790288e-05
-3.13329231026e-11
7.31349250681e-05
5.66456256311e-12
7.31348945239e-05
3.1872017799e-11
7.31348706495e-05
5.46192220623e-11
7.31348531512e-05
7.49217908269e-11
7.31348401732e-05
9.35643708627e-11
7.31348298915e-05
1.1119997005e-10
7.31348209996e-05
1.28523865178e-10
7.31348125321e-05
1.45848627168e-10
7.31348037685e-05
1.63174212547e-10
7.31347942097e-05
1.80231838769e-10
7.31347836047e-05
1.96504639911e-10
7.31347719358e-05
2.11255775638e-10
7.31347593349e-05
2.23597380731e-10
7.3134745943e-05
2.31874203592e-10
7.31347318789e-05
2.33718935045e-10
7.31347172685e-05
2.25981799617e-10
7.31347023041e-05
2.04633168786e-10
7.31346874577e-05
1.64936667338e-10
7.3134673783e-05
1.03328058637e-10
7.31346460745e-05
-4.954140709e-12
7.31345998663e-05
-2.36608538891e-10
7.31345262661e-05
-5.93120402824e-10
7.31344026483e-05
-1.10211402247e-09
7.31341855635e-05
-1.83328292918e-09
7.31338057374e-05
-2.87616870146e-09
7.313314678e-05
-4.36353288638e-09
7.31320130331e-05
-6.48866566752e-09
7.31300787359e-05
-9.53182141316e-09
7.31268162028e-05
-1.39195521942e-08
7.31213595679e-05
-2.02650618718e-08
7.31122820993e-05
-2.9455212039e-08
7.30972638882e-05
-4.28266386486e-08
7.3072584006e-05
-6.24263004197e-08
7.30322864026e-05
-9.12708348229e-08
7.29667844358e-05
-1.33486978046e-07
7.28609482456e-05
-1.94940870498e-07
7.2691427427e-05
-2.83438956803e-07
7.24234234904e-05
-4.08374174673e-07
7.20081001789e-05
-5.78996646271e-07
7.13835225013e-05
-8.0018868341e-07
7.04830438273e-05
-1.0666425403e-06
-1.35366444518e-06
6.92605266895e-05
5.07871724384e-05
5.50780012772e-11
5.29516493926e-05
5.32474719843e-11
5.59606877195e-05
2.90015074367e-11
5.9263320893e-05
1.4289074028e-11
6.24488071786e-05
2.74791093556e-12
6.52735474271e-05
-6.19396242634e-12
6.76333266727e-05
-1.21691649795e-11
6.95186619885e-05
-1.51628332975e-11
7.09734455029e-05
-1.56146470656e-11
7.20647902125e-05
-1.41205437248e-11
7.28642605483e-05
-1.13230034545e-11
7.34378117565e-05
-7.88639900749e-12
7.38414666599e-05
-4.48162927912e-12
7.41203530123e-05
-1.75409771971e-12
7.43094728777e-05
-2.87534534715e-13
7.44352011648e-05
-4.66564858825e-13
7.45169521545e-05
-2.56392592289e-12
7.45687330961e-05
-6.33351974849e-12
7.46004694971e-05
-1.11418978864e-11
7.4619075437e-05
-1.60075264362e-11
7.46292861147e-05
-1.97989097075e-11
7.46342876901e-05
-2.14241864094e-11
7.46361830809e-05
-2.04269279706e-11
7.46363306497e-05
-1.8094806861e-11
7.46355717946e-05
-1.55960927548e-11
7.46344262857e-05
-1.24929705747e-11
7.46331913905e-05
-8.93554245343e-12
7.46320260504e-05
-4.98656230673e-12
7.46310040686e-05
-1.72151163743e-13
7.46301505411e-05
3.89393656806e-12
7.46294619683e-05
8.57703052651e-12
7.46289213815e-05
1.36065210306e-11
7.46285063848e-05
1.8933886553e-11
7.46281938709e-05
2.45999597409e-11
7.46279626e-05
3.07673648452e-11
7.46277941888e-05
3.7546347812e-11
7.46276734583e-05
4.50207272368e-11
7.462758877e-05
5.31978705825e-11
7.46275320819e-05
6.21361227323e-11
7.46274922174e-05
7.15183012096e-11
7.46274652942e-05
8.13647019072e-11
7.46274474894e-05
9.26200137043e-11
7.4627435819e-05
1.0519695738e-10
7.46274280414e-05
1.19004870343e-10
7.46274225573e-05
1.34028548128e-10
7.46274182068e-05
1.50110624725e-10
7.46274141458e-05
1.6692828974e-10
7.46274098037e-05
1.84023584862e-10
7.46274047762e-05
2.0077341982e-10
7.46273987885e-05
2.16380779853e-10
7.46273917645e-05
2.29817879831e-10
7.4627383566e-05
2.39449796092e-10
7.46273738554e-05
2.43046550508e-10
7.46273619741e-05
2.37716611048e-10
7.46273467628e-05
2.19869425904e-10
7.46273264134e-05
1.85375289521e-10
7.46272996061e-05
1.30155615073e-10
7.46272562312e-05
3.8302836615e-11
7.46271625453e-05
-1.43223981612e-10
7.46270241814e-05
-4.55198054778e-10
7.46267967793e-05
-8.75119580562e-10
7.46264202045e-05
-1.45689711796e-09
7.46257973189e-05
-2.25318608447e-09
7.46247700269e-05
-3.33596135624e-09
7.46230799985e-05
-4.7982408947e-09
7.46203060467e-05
-6.75746913211e-09
7.46157857311e-05
-9.3989493172e-09
7.46084458751e-05
-1.29250929799e-08
7.45965315068e-05
-1.75409290774e-08
7.45772250367e-05
-2.35203441327e-08
7.45461181888e-05
-3.13195664253e-08
7.44963874463e-05
-4.1540023444e-08
7.44172203417e-05
-5.43195774783e-08
7.42920959265e-05
-6.9815870566e-08
7.40964326664e-05
-8.77749313478e-08
7.37950892753e-05
-1.07030086323e-07
7.33408978232e-05
-1.24804612218e-07
7.26766191903e-05
-1.35909863705e-07
7.17431186961e-05
-1.33142099618e-07
-1.07958959095e-07
7.0497412817e-05
5.07871713976e-05
-7.87116514678e-07
5.29516485209e-05
-2.16442420658e-06