/*--------------------------------*- C++ -*----------------------------------*\
| =========                 |                                                 |
| \\      /  F ield         | OpenFOAM: The Open Source CFD Toolbox           |
|  \\    /   O peration     | Version:  2106                                  |
|   \\  /    A nd           | Website:  www.openfoam.com                      |
|    \\/     M anipulation  |                                                 |
\*---------------------------------------------------------------------------*/
FoamFile
{
    version     2.0;
    format      ascii;
    arch        "LSB;label=32;scalar=64";
    class       volVectorField;
    location    "0.185";
    object      U;
}
// * * * * * * * * * * * * * * * * * * * * * * * * * * * * * * * * * * * * * //

dimensions      [0 1 -1 0 0 0 0];

internalField   nonuniform List<vector> 
11200
(
(0.662462404284 0.150569443129 0)
(0.558948676078 0.103243388733 0)
(0.383850743396 0.0513512242316 0)
(0.283747605127 0.024870855112 0)
(0.232075284065 0.0124170449845 0)
(0.201908604742 0.00662281643761 0)
(0.183197954591 0.00380291390281 0)
(0.171276513558 0.0023158695344 0)
(0.163510334392 0.00146450609575 0)
(0.158388800503 0.00094489208773 0)
(0.155006664188 0.000615176730462 0)
(0.152786711063 0.000402233785926 0)
(0.151346562409 0.000264232342101 0)
(0.150428326679 0.000175250421365 0)
(0.149856723774 0.00011836102332 0)
(0.149512523986 8.21603443014e-05 0)
(0.149314965284 5.88662367886e-05 0)
(0.149209605673 4.33160768698e-05 0)
(0.149159749814 3.29351922563e-05 0)
(0.14914251365 2.81859761728e-05 0)
(0.149144672503 2.76837781486e-05 0)
(0.149156951358 2.98892258941e-05 0)
(0.149172575946 3.30497278849e-05 0)
(0.149188125724 3.59655579907e-05 0)
(0.149202335734 3.86012774435e-05 0)
(0.149214605709 4.10405772114e-05 0)
(0.149224767805 4.33181068591e-05 0)
(0.149232928762 4.54649439672e-05 0)
(0.14923932523 4.75203009379e-05 0)
(0.149244239456 4.95311458547e-05 0)
(0.149247956913 5.15594796339e-05 0)
(0.149250745617 5.36963606816e-05 0)
(0.149252803124 5.60246169504e-05 0)
(0.14925429977 5.84058337633e-05 0)
(0.149255368139 6.07668769195e-05 0)
(0.14925609432 6.30881103928e-05 0)
(0.14925657424 6.53798003076e-05 0)
(0.149256890727 6.76546999603e-05 0)
(0.149257096924 6.99243633358e-05 0)
(0.149257221649 7.21949328341e-05 0)
(0.149257285936 7.44674509552e-05 0)
(0.149257307737 7.67428801678e-05 0)
(0.149257300288 7.90209776273e-05 0)
(0.149257273578 8.13007605999e-05 0)
(0.149257234846 8.35806486294e-05 0)
(0.14925718892 8.58583514031e-05 0)
(0.14925713898 8.81309176097e-05 0)
(0.149257087577 9.03950443777e-05 0)
(0.149257037289 9.26474898867e-05 0)
(0.14925699174 9.4885165887e-05 0)
(0.149256957115 9.71050434536e-05 0)
(0.149256943082 9.93041835365e-05 0)
(0.149256963667 0.000101479709673 0)
(0.1492570385 0.000103628572078 0)
(0.149257194545 0.000105746936911 0)
(0.149257469071 0.000107829557328 0)
(0.149257913054 0.000109869843983 0)
(0.14925859903 0.000111858179474 0)
(0.149259633789 0.000113781173157 0)
(0.149261173296 0.000115614470997 0)
(0.149263456935 0.000117304036226 0)
(0.149266890888 0.000118761739789 0)
(0.149271953766 0.000120022829179 0)
(0.149279288693 0.000121275187562 0)
(0.149289925245 0.000122973858557 0)
(0.149305384327 0.0001253364885 0)
(0.149328050797 0.000128119977443 0)
(0.149361627526 0.000131090660379 0)
(0.149411719401 0.000134029443262 0)
(0.149486576865 0.000136821612827 0)
(0.149598167873 0.000140750258601 0)
(0.149769394825 0.000151660437629 0)
(0.150038121364 0.000172454235669 0)
(0.150467634241 0.000202797247744 0)
(0.151193978023 0.000232837197834 0)
(0.152495376323 0.000191999432704 0)
(0.155029107906 -0.000217595456931 0)
(0.162392740708 -0.0021170901382 0)
(0.18776932922 -0.0108254302759 0)
(0.204627692136 -0.0498675475902 0)
(0.965408254717 0.289214707578 0)
(0.961962860152 0.25265603989 0)
(0.82357439199 0.159021440683 0)
(0.698139368514 0.0959957297803 0)
(0.610225462856 0.0582481124253 0)
(0.54897148963 0.0362148512064 0)
(0.506588885042 0.0231612830141 0)
(0.477567263014 0.015137513343 0)
(0.457745483659 0.0100177535627 0)
(0.444228450645 0.00665814012187 0)
(0.435053286707 0.00441555580027 0)
(0.428873104731 0.00290686593714 0)
(0.424754187155 0.00189105900388 0)
(0.422046636229 0.00121004633756 0)
(0.420297798641 0.000757164681759 0)
(0.419193189735 0.000459257171437 0)
(0.418515585622 0.000265856032949 0)
(0.418116440954 0.000142400853779 0)
(0.417895840772 6.61108767308e-05 0)
(0.417786794775 2.3092848441e-05 0)
(0.417745386642 1.40789038713e-06 0)
(0.417742117272 -1.01622453474e-05 0)
(0.417756724429 -1.37134322343e-05 0)
(0.417778692673 -1.32667159111e-05 0)
(0.417802996518 -1.08344141047e-05 0)
(0.417826376503 -7.49129300417e-06 0)
(0.417847139061 -3.87491500577e-06 0)
(0.417864685311 -3.55471446608e-07 0)
(0.417879019069 2.86550429858e-06 0)
(0.417890455999 5.68414821268e-06 0)
(0.417899468461 8.03631604302e-06 0)
(0.417906550572 9.83791846698e-06 0)
(0.417911904651 1.10066785357e-05 0)
(0.417915764479 1.18589434406e-05 0)
(0.417918507638 1.26800264174e-05 0)
(0.417920408468 1.34363508425e-05 0)
(0.417921707874 1.41100791819e-05 0)
(0.417922596197 1.47249223873e-05 0)
(0.417923199393 1.5309919255e-05 0)
(0.417923588712 1.58789172016e-05 0)
(0.417923816941 1.64322051843e-05 0)
(0.417923928344 1.6974954083e-05 0)
(0.417923954945 1.75110131067e-05 0)
(0.417923920629 1.80439590535e-05 0)
(0.417923842498 1.85771367188e-05 0)
(0.417923732387 1.91127842957e-05 0)
(0.417923599267 1.9652567312e-05 0)
(0.41792345166 2.01981133665e-05 0)
(0.417923298878 2.07513816697e-05 0)
(0.417923152648 2.13136604316e-05 0)
(0.417923030034 2.18852947057e-05 0)
(0.417922955799 2.24667346198e-05 0)
(0.417922964575 2.3058406791e-05 0)
(0.41792310397 2.36603561614e-05 0)
(0.41792343969 2.42719283378e-05 0)
(0.41792406448 2.48918378376e-05 0)
(0.417925107977 2.55186653316e-05 0)
(0.417926757141 2.61418757654e-05 0)
(0.417929284357 2.67414433704e-05 0)
(0.417933075723 2.72871225383e-05 0)
(0.417938715987 2.77350663357e-05 0)
(0.417947295065 2.80190957929e-05 0)
(0.417960317082 2.82950498304e-05 0)
(0.417979910878 2.78799285296e-05 0)
(0.418008869187 2.53512760601e-05 0)
(0.418050800637 1.95701700161e-05 0)
(0.41811186306 9.73381531344e-06 0)
(0.418202196878 -5.68742972019e-06 0)
(0.418337448957 -2.92247944399e-05 0)
(0.418542592648 -6.45751618855e-05 0)
(0.418859664615 -0.00011595404173 0)
(0.419358495823 -0.000188365367092 0)
(0.420152957446 -0.000308622596995 0)
(0.421447450995 -0.000534484559079 0)
(0.42363503631 -0.00100321309612 0)
(0.427437302351 -0.00209778520963 0)
(0.434282547108 -0.004873741628 0)
(0.448359541645 -0.0122995290644 0)
(0.474852498883 -0.0343719724083 0)
(0.478609034105 -0.0991916213531 0)
(1.02222096548 0.238416188108 0)
(1.0821375295 0.295926651893 0)
(1.03447722498 0.239503064452 0)
(0.954615406532 0.174290161547 0)
(0.879992051772 0.121345464815 0)
(0.818614430365 0.0830993801433 0)
(0.771410844034 0.0567316630741 0)
(0.736634383336 0.0387409647518 0)
(0.711624425182 0.0264327837775 0)
(0.69391661401 0.017973102191 0)
(0.681541405493 0.0121424462305 0)
(0.673000114707 0.0081249073835 0)
(0.667180651641 0.00536632111571 0)
(0.663271683984 0.0034844456194 0)
(0.660688515356 0.00221256301054 0)
(0.659014193972 0.00136338370784 0)
(0.657954516539 0.000805245909716 0)
(0.657304227889 0.000445918850404 0)
(0.656921814537 0.000221070699617 0)
(0.656710255531 8.5583631162e-05 0)
(0.656603399406 8.36042209304e-06 0)
(0.656561859311 -3.37165034837e-05 0)
(0.656557967782 -5.68507372862e-05 0)
(0.656571452561 -6.68702662762e-05 0)
(0.656592991087 -6.84783615717e-05 0)
(0.656616819558 -6.55577394881e-05 0)
(0.656639630425 -6.05477679843e-05 0)
(0.656659816671 -5.48592359706e-05 0)
(0.656676793121 -4.92767324651e-05 0)
(0.656690538081 -4.42070639101e-05 0)
(0.656701298667 -3.98448482897e-05 0)
(0.656709459425 -3.63083086859e-05 0)
(0.656715716075 -3.37035056006e-05 0)
(0.656720758515 -3.18657610345e-05 0)
(0.656724631025 -3.08195319151e-05 0)
(0.656727348335 -3.03130751211e-05 0)
(0.656729219688 -3.02566839599e-05 0)
(0.656730523573 -3.05675215197e-05 0)
(0.656731427601 -3.10954968076e-05 0)
(0.656732021195 -3.17572578818e-05 0)
(0.656732378659 -3.25234917934e-05 0)
(0.656732566374 -3.33587924318e-05 0)
(0.656732630897 -3.42382129643e-05 0)
(0.656732607584 -3.51424561287e-05 0)
(0.656732521681 -3.60561777023e-05 0)
(0.656732391063 -3.69691067679e-05 0)
(0.656732230178 -3.78744232767e-05 0)
(0.656732052772 -3.87670905768e-05 0)
(0.656731872694 -3.96420201005e-05 0)
(0.656731706155 -4.0494737164e-05 0)
(0.656731577349 -4.13207836972e-05 0)
(0.65673152181 -4.21154002358e-05 0)
(0.656731588946 -4.28757575115e-05 0)
(0.656731847271 -4.36032487076e-05 0)
(0.656732392881 -4.43083948834e-05 0)
(0.656733362597 -4.50196075708e-05 0)
(0.656734943088 -4.57890945561e-05 0)
(0.656737401115 -4.67107844104e-05 0)
(0.656741137125 -4.7917054564e-05 0)
(0.656746747462 -4.96178188793e-05 0)
(0.656755133273 -5.22955343298e-05 0)
(0.656767931662 -5.70301454914e-05 0)
(0.656786543745 -6.4572525246e-05 0)
(0.656812397537 -7.58382391866e-05 0)
(0.656849228279 -9.24832366725e-05 0)
(0.656903753653 -0.000116944379157 0)
(0.656985418412 -0.000152426264409 0)
(0.65710804352 -0.000204231210777 0)
(0.65729349998 -0.000280918802083 0)
(0.657577295457 -0.000396436242486 0)
(0.658017772478 -0.000575256455865 0)
(0.658704497537 -0.000864856445572 0)
(0.659785190199 -0.00135569414761 0)
(0.66151860284 -0.00222162209526 0)
(0.664349115074 -0.00382670351228 0)
(0.668976593094 -0.00697315944616 0)
(0.676434387826 -0.0134078489841 0)
(0.688743309411 -0.026961908445 0)
(0.705483740307 -0.0565851820077 0)
(0.700912796348 -0.113699980209 0)
(1.02251475446 0.170807154523 0)
(1.10138975625 0.276496478649 0)
(1.11752425789 0.266664797774 0)
(1.09214659984 0.219901696218 0)
(1.0518781478 0.168168843792 0)
(1.0102082132 0.123567392109 0)
(0.973494676329 0.0888375166751 0)
(0.943864538519 0.0630063668005 0)
(0.921142779627 0.0442231997994 0)
(0.904284050937 0.0307423891515 0)
(0.892074846008 0.0211562914112 0)
(0.88340448773 0.0143954668643 0)
(0.877352648443 0.00966794765619 0)
(0.873197687086 0.00639383767865 0)
(0.870392912626 0.00415116612851 0)
(0.868534026856 0.00263449277435 0)
(0.867327633785 0.00162401954905 0)
(0.866564235445 0.000962678302901 0)
(0.866096484015 0.000539124806604 0)
(0.865822249158 0.000275156278278 0)
(0.865671414344 0.000117071296705 0)
(0.865595173904 2.87951461196e-05 0)
(0.865564126334 -1.93223724722e-05 0)
(0.865561328957 -4.12594781211e-05 0)
(0.865572683913 -4.76646297755e-05 0)
(0.865589701187 -4.55252591164e-05 0)
(0.865608021375 -3.91572486264e-05 0)
(0.86562537028 -3.11481607911e-05 0)
(0.865640664233 -2.29690773477e-05 0)
(0.865653536778 -1.53873380874e-05 0)
(0.865664020126 -8.73133560684e-06 0)
(0.865672318174 -3.05360773408e-06 0)
(0.865678683607 1.72444140282e-06 0)
(0.865683324201 5.45604769022e-06 0)
(0.86568665658 8.02472959557e-06 0)
(0.865689068163 9.78247904524e-06 0)
(0.865690710859 1.11339955768e-05 0)
(0.865691878883 1.22774505066e-05 0)
(0.865692750209 1.32444269071e-05 0)
(0.865693342604 1.41304753588e-05 0)
(0.865693703904 1.49261759894e-05 0)
(0.865693900062 1.56546128822e-05 0)
(0.865693971195 1.63319038928e-05 0)
(0.86569394988 1.69742880707e-05 0)
(0.865693858769 1.75961859546e-05 0)
(0.865693712978 1.82071969344e-05 0)
(0.865693525668 1.88144709509e-05 0)
(0.865693311788 1.94254356472e-05 0)
(0.865693088361 2.00509033466e-05 0)
(0.86569287643 2.06923517526e-05 0)
(0.865692706387 2.13379190474e-05 0)
(0.86569261964 2.19773499122e-05 0)
(0.865692670954 2.25961165971e-05 0)
(0.865692932463 2.31697646796e-05 0)
(0.865693498079 2.36603105261e-05 0)
(0.865694498601 2.40211603426e-05 0)
(0.865696113296 2.42190007979e-05 0)
(0.865698614981 2.41537504229e-05 0)
(0.865702406271 2.36581800759e-05 0)
(0.865707925305 2.23461827372e-05 0)
(0.865715543009 1.96123836895e-05 0)
(0.865726893718 1.48475237456e-05 0)
(0.865744605971 6.20665957361e-06 0)
(0.865771623144 -8.00932525466e-06 0)
(0.865811853482 -2.9794768338e-05 0)
(0.865871193457 -6.30671327297e-05 0)
(0.865958978506 -0.000114730117442 0)
(0.866089738657 -0.000195594888172 0)
(0.866286074909 -0.000323003082703 0)
(0.866582917226 -0.000525570103988 0)
(0.867034087376 -0.000852482198312 0)
(0.867725034918 -0.00139107924499 0)
(0.868792788147 -0.00229086795471 0)
(0.870451812214 -0.003827815745 0)
(0.873023104482 -0.00652883050416 0)
(0.876909127605 -0.0114086725823 0)
(0.882437990861 -0.020347480569 0)
(0.889800545104 -0.0366386890095 0)
(0.896558816117 -0.0658592089328 0)
(0.88683003041 -0.110763319331 0)
(1.01287875058 0.118961026823 0)
(1.08820670548 0.231806938485 0)
(1.13741366523 0.253106764612 0)
(1.15409085757 0.228992752122 0)
(1.14994209524 0.188368356264 0)
(1.13538463709 0.146579840487 0)
(1.11758892669 0.110150961588 0)
(1.10059497759 0.0808162177874 0)
(1.08612454451 0.058226572182 0)
(1.0745908964 0.0413189811882 0)
(1.06579143805 0.0289160171224 0)
(1.05928796059 0.0199600978223 0)
(1.05459973647 0.0135815590305 0)
(1.05129074008 0.00909744318935 0)
(1.04899982478 0.00598615496708 0)
(1.04744338495 0.00385696826968 0)
(1.04640651583 0.00242160045642 0)
(1.04573060602 0.00147015316398 0)
(1.04530105736 0.000851705392905 0)
(1.04503656822 0.00045902016899 0)
(1.04488021494 0.000216760844302 0)
(1.04479260887 7.30213672108e-05 0)
(1.04474875461 -5.50136998776e-06 0)
(1.04473186662 -4.40066210856e-05 0)
(1.04472962739 -5.93850504665e-05 0)
(1.04473512249 -6.17203098412e-05 0)
(1.0447440807 -5.72487403166e-05 0)
(1.04475397395 -4.98091652062e-05 0)
(1.04476342295 -4.16523224661e-05 0)
(1.0447717582 -3.39987873673e-05 0)
(1.04477872993 -2.74346726715e-05 0)
(1.04478432573 -2.21634902184e-05 0)
(1.04478869158 -1.81404677926e-05 0)
(1.04479203822 -1.51524184719e-05 0)
(1.04479461922 -1.28226465201e-05 0)
(1.04479672592 -1.10281820425e-05 0)
(1.04479847122 -9.54332872896e-06 0)
(1.04479980021 -8.2558963502e-06 0)
(1.04480078203 -7.2360024037e-06 0)
(1.0448014676 -6.56506321083e-06 0)
(1.04480187765 -6.18348761076e-06 0)
(1.04480210124 -5.97150017144e-06 0)
(1.04480218502 -5.87784711962e-06 0)
(1.04480216837 -5.85346953935e-06 0)
(1.04480207637 -5.85811129086e-06 0)
(1.04480192587 -5.87291928161e-06 0)
(1.0448017339 -5.88951553477e-06 0)
(1.04480152158 -5.90621725596e-06 0)
(1.04480130277 -5.93154516812e-06 0)
(1.04480108154 -5.96580099489e-06 0)
(1.04480088087 -5.99466958497e-06 0)
(1.04480074524 -6.01661211065e-06 0)
(1.04480072858 -6.03688742514e-06 0)
(1.04480090307 -6.06829405038e-06 0)
(1.04480137885 -6.14127428146e-06 0)
(1.04480234299 -6.3415846709e-06 0)
(1.04480400415 -6.90823907838e-06 0)
(1.04480661808 -8.1610610791e-06 0)
(1.04481049419 -1.05665877905e-05 0)
(1.0448160826 -1.43469364672e-05 0)
(1.04482441376 -1.93173221246e-05 0)
(1.0448366472 -2.54690785373e-05 0)
(1.04485399218 -3.51335325615e-05 0)
(1.04487876066 -5.12839103105e-05 0)
(1.04491442629 -7.81783341585e-05 0)
(1.04496612765 -0.000122095140232 0)
(1.04504146864 -0.000192848740976 0)
(1.04515180328 -0.000306080029621 0)
(1.04531429894 -0.000487066843775 0)
(1.04555488236 -0.000777032945726 0)
(1.04591238513 -0.00124364363173 0)
(1.04644492779 -0.00199910686553 0)
(1.0472370856 -0.00323500712892 0)
(1.04840262642 -0.00528400832475 0)
(1.05007022074 -0.00872637871503 0)
(1.05229857795 -0.0145622048128 0)
(1.05484629112 -0.0244103275171 0)
(1.05692573677 -0.0406021559815 0)
(1.0558282791 -0.0660137698498 0)
(1.0422349907 -0.100203833256 0)
(1.00447483399 0.0814040019419 0)
(1.06917237001 0.181288541688 0)
(1.1308056795 0.216950419807 0)
(1.17374999255 0.210789154923 0)
(1.19865263698 0.183690074755 0)
(1.21019986183 0.149751680008 0)
(1.2135025363 0.116779139879 0)
(1.21251721683 0.0882206730813 0)
(1.20973095754 0.065048145912 0)
(1.20651116971 0.0470209040236 0)
(1.20351910638 0.0334068041896 0)
(1.20101142584 0.0233557290851 0)
(1.19903442657 0.0160720114795 0)
(1.19753875687 0.0108795125514 0)
(1.19644129474 0.00723418806258 0)
(1.19565556922 0.00471351955999 0)
(1.19510487769 0.00299763110859 0)
(1.19472647024 0.00184916367097 0)
(1.19447149617 0.00109496386744 0)
(1.19430319408 0.000610615249372 0)
(1.19419456403 0.000307990538103 0)
(1.19412628931 0.000125772081747 0)
(1.19408524983 2.22259706823e-05 0)
(1.19406200133 -3.24502563001e-05 0)
(1.19404971088 -5.72704676686e-05 0)
(1.19404422103 -6.45982464829e-05 0)
(1.19404273067 -6.23789753275e-05 0)
(1.19404342139 -5.55273239664e-05 0)
(1.19404517795 -4.69532390645e-05 0)
(1.19404734263 -3.82698578157e-05 0)
(1.19404954339 -3.02782821723e-05 0)
(1.19405158831 -2.32838024848e-05 0)
(1.19405340822 -1.73101770146e-05 0)
(1.19405499729 -1.22838338545e-05 0)
(1.19405637145 -8.09814395061e-06 0)
(1.19405754921 -4.69818718785e-06 0)
(1.19405850311 -2.08603601534e-06 0)
(1.19405917994 -1.94909546232e-07 0)
(1.19405953684 1.12579438637e-06 0)
(1.19405964682 1.9826173673e-06 0)
(1.19405969365 2.66253112737e-06 0)
(1.19405971693 3.26962387462e-06 0)
(1.19405969074 3.80418398464e-06 0)
(1.19405963255 4.27547538864e-06 0)
(1.19405953799 4.69368057278e-06 0)
(1.19405939586 5.07434825555e-06 0)
(1.19405920566 5.42816635131e-06 0)
(1.19405896966 5.75569456278e-06 0)
(1.19405870462 6.04349730192e-06 0)
(1.19405845247 6.29112243182e-06 0)
(1.19405824942 6.52044057957e-06 0)
(1.19405812719 6.72365291714e-06 0)
(1.1940581378 6.8758378635e-06 0)
(1.1940583461 6.93833616068e-06 0)
(1.19405880643 6.85443759783e-06 0)
(1.19405950937 6.54111454556e-06 0)
(1.19406048181 5.84380334915e-06 0)
(1.1940618625 4.44294534254e-06 0)
(1.19406420361 1.79827754455e-06 0)
(1.19406858344 -2.30427963614e-06 0)
(1.19407573317 -8.62779129834e-06 0)
(1.19408551013 -1.86020921306e-05 0)
(1.19409857734 -3.4217549536e-05 0)
(1.1941169125 -5.83786081662e-05 0)
(1.19414264645 -9.56770061234e-05 0)
(1.19417857847 -0.000153446020771 0)
(1.19422868005 -0.000243377322089 0)
(1.19429856272 -0.000384018704667 0)
(1.19439608297 -0.000604963471327 0)
(1.19453200133 -0.000953789985897 0)
(1.19472040416 -0.00150743515064 0)
(1.1949781183 -0.00239082025777 0)
(1.1953200292 -0.00380839148118 0)
(1.19574357203 -0.00609521780962 0)
(1.19618865624 -0.00979384799058 0)
(1.19643564259 -0.0157545521672 0)
(1.19589700604 -0.0251993506378 0)
(1.19341506799 -0.0396023420182 0)
(1.18664500504 -0.0602348772284 0)
(1.17004272401 -0.0858247406544 0)
(0.998962324849 0.054431630417 0)
(1.0531095647 0.133401611277 0)
(1.11628267398 0.170777560195 0)
(1.17301270711 0.175143872248 0)
(1.21791244639 0.159583604904 0)
(1.25049855945 0.134951017336 0)
(1.2728848888 0.108411653074 0)
(1.28776719608 0.0838849673924 0)
(1.29745265292 0.0630565676488 0)
(1.30366072241 0.0462999168143 0)
(1.3075923155 0.0333205108209 0)
(1.31005367428 0.0235495209473 0)
(1.31157359999 0.0163599058401 0)
(1.31249490533 0.0111713143998 0)
(1.31303860185 0.00749150705281 0)
(1.31334669797 0.00492448716387 0)
(1.31351011757 0.00316295716332 0)
(1.31358675456 0.00197475425353 0)
(1.31361313943 0.00118819952376 0)
(1.31361199982 0.000678631922297 0)
(1.31359717323 0.000357010831577 0)
(1.31357686392 0.000160755972499 0)
(1.31355588189 4.64704173345e-05 0)
(1.31353659872 -1.58691246559e-05 0)
(1.31351995243 -4.60592199291e-05 0)
(1.31350627422 -5.7071428755e-05 0)
(1.31349537884 -5.73288306678e-05 0)
(1.31348692934 -5.20931830714e-05 0)
(1.3134805379 -4.45334783695e-05 0)
(1.31347581968 -3.64739726001e-05 0)
(1.31347242379 -2.88877084134e-05 0)
(1.31347004737 -2.22282591797e-05 0)
(1.31346843114 -1.66470114861e-05 0)
(1.31346734692 -1.21511274468e-05 0)
(1.31346662882 -8.67467939666e-06 0)
(1.31346617862 -6.11614249336e-06 0)
(1.31346589458 -4.33868611344e-06 0)
(1.31346568616 -3.1364433833e-06 0)
(1.31346554821 -2.28048024939e-06 0)
(1.3134655685 -1.56455924156e-06 0)
(1.31346571352 -9.85433349374e-07 0)
(1.31346580525 -5.66363851807e-07 0)
(1.31346579273 -1.98204873625e-07 0)
(1.31346570756 1.49811804324e-07 0)
(1.31346557039 4.74633245808e-07 0)
(1.31346539298 7.84237021133e-07 0)
(1.31346517694 1.09054507575e-06 0)
(1.31346492216 1.40557919588e-06 0)
(1.31346464131 1.74311604165e-06 0)
(1.31346436703 2.09455437531e-06 0)
(1.31346411679 2.41435960541e-06 0)
(1.31346389982 2.66946176001e-06 0)
(1.31346374877 2.81862959802e-06 0)
(1.31346371525 2.79992018691e-06 0)
(1.31346388051 2.52501904042e-06 0)
(1.31346436307 1.88965577421e-06 0)
(1.31346519824 8.21176547235e-07 0)
(1.3134663484 -8.48159625156e-07 0)
(1.31346824203 -3.25409085685e-06 0)
(1.3134711907 -7.09871336856e-06 0)
(1.31347531184 -1.37162656934e-05 0)
(1.31348084691 -2.47257242857e-05 0)
(1.31348804938 -4.17050937278e-05 0)
(1.31349738921 -6.78047575815e-05 0)
(1.31350916683 -0.00010805770293 0)
(1.31352342839 -0.000170227555409 0)
(1.31353976031 -0.000266444680328 0)
(1.31355680109 -0.000415711661901 0)
(1.31357126792 -0.000647970043858 0)
(1.31357613468 -0.00101068460716 0)
(1.31355727185 -0.00157929402672 0)
(1.31348704658 -0.00247338111471 0)
(1.31331082924 -0.00388136886567 0)
(1.31292051232 -0.00609763281308 0)
(1.3121051846 -0.009570014859 0)
(1.31045774054 -0.0149456550168 0)
(1.30722137171 -0.0230619648403 0)
(1.30117966175 -0.0347735512445 0)
(1.29045136075 -0.0505381586848 0)
(1.27153831874 -0.0691542183022 0)
(0.995736073317 0.0346338653573 0)
(1.04179514057 0.0905689253363 0)
(1.10222838063 0.121549567558 0)
(1.16491410705 0.129605834964 0)
(1.22202565144 0.122009267707 0)
(1.26951890615 0.106019936295 0)
(1.30680222162 0.0870975528723 0)
(1.33499533606 0.0686366772538 0)
(1.35574475678 0.0523698348685 0)
(1.37069615044 0.0389256138443 0)
(1.38128273956 0.0282980697279 0)
(1.38866266332 0.0201712742624 0)
(1.393730322 0.014117508493 0)
(1.39715659897 0.0097053351625 0)
(1.39943434413 0.00655059539105 0)
(1.40091967051 0.00433445562802 0)
(1.40186622248 0.00280414659964 0)
(1.40245225006 0.00176574540215 0)
(1.40280135615 0.00107419785797 0)
(1.40299806277 0.000623237953204 0)
(1.40309929482 0.000336412086205 0)
(1.40314275969 0.000159625718714 0)
(1.40315303211 5.51662619006e-05 0)
(1.4031455547 -2.99699209648e-06 0)
(1.40312980584 -3.21227509211e-05 0)
(1.403111413 -4.38922876798e-05 0)
(1.40309338301 -4.57649260576e-05 0)
(1.40307724062 -4.24253579432e-05 0)
(1.40306358756 -3.67367871756e-05 0)
(1.40305249776 -3.037600604e-05 0)
(1.40304376966 -2.42576791556e-05 0)
(1.40303707814 -1.88288180655e-05 0)
(1.4030320622 -1.4257767155e-05 0)
(1.40302837193 -1.05466784e-05 0)
(1.40302570892 -7.59513518138e-06 0)
(1.40302383995 -5.27856628196e-06 0)
(1.40302258747 -3.47437544999e-06 0)
(1.40302180073 -2.03928963733e-06 0)
(1.40302131478 -8.67468560576e-07 0)
(1.40302093608 6.6676238591e-08 0)
(1.40302059681 7.81146531474e-07 0)
(1.40302037928 1.27810258636e-06 0)
(1.40302027327 1.65938782376e-06 0)
(1.40302018681 1.99031424044e-06 0)
(1.40302008422 2.30863885601e-06 0)
(1.40301995739 2.63218995155e-06 0)
(1.40301980314 2.96985122921e-06 0)
(1.40301962124 3.32598693798e-06 0)
(1.40301940971 3.7024944929e-06 0)
(1.40301916144 4.0856541181e-06 0)
(1.40301889132 4.43722224113e-06 0)
(1.40301863412 4.7297562748e-06 0)
(1.40301841867 4.92782266313e-06 0)
(1.40301827259 4.97608740208e-06 0)
(1.40301821762 4.78922705838e-06 0)
(1.4030182574 4.2284510919e-06 0)
(1.40301836567 3.08635732648e-06 0)
(1.40301862078 1.21635019196e-06 0)
(1.40301914126 -1.64973716451e-06 0)
(1.4030200296 -6.41850430169e-06 0)
(1.4030212887 -1.38563769345e-05 0)
(1.40302256263 -2.52742312928e-05 0)
(1.40302333055 -4.25073988081e-05 0)
(1.40302282355 -6.85247381489e-05 0)
(1.40301952412 -0.000107910272256 0)
(1.403010638 -0.000167701251104 0)
(1.40299132008 -0.000258823922048 0)
(1.40295330932 -0.000398145853104 0)
(1.40288249509 -0.000611816349782 0)
(1.40275491769 -0.000940652206494 0)
(1.4025303945 -0.00144840871677 0)
(1.40214212765 -0.00223378416265 0)
(1.40147763455 -0.00344685378373 0)
(1.40034733787 -0.00531301408836 0)
(1.39843594732 -0.00815775354301 0)
(1.39522688311 -0.0124202367701 0)
(1.38990123792 -0.01861829615 0)
(1.38130111405 -0.0271998903701 0)
(1.3679141026 -0.0382606922906 0)
(1.34732113523 -0.0509246719252 0)
(0.994011530476 0.0192358117879 0)
(1.03484763232 0.0523338445895 0)
(1.0919926195 0.07236313015 0)
(1.15662418899 0.0791292330429 0)
(1.22032114991 0.0761045458147 0)
(1.2770194371 0.0673339695974 0)
(1.32424417175 0.0561509005916 0)
(1.36181571779 0.0447990074129 0)
(1.39068528961 0.0345303737469 0)
(1.41226073228 0.0258814287754 0)
(1.4280182049 0.0189465208473 0)
(1.43929882547 0.0135849797028 0)
(1.44722806064 0.0095565327556 0)
(1.45270411894 0.00660011475968 0)
(1.45641894753 0.00447419040453 0)
(1.45889143813 0.00297351441457 0)
(1.4605023093 0.00193277041537 0)
(1.46152571409 0.00122369627159 0)
(1.46215573919 0.000749553673618 0)
(1.46252757444 0.000439021322191 0)
(1.46273386289 0.000240524948388 0)
(1.46283701742 0.000117415818772 0)
(1.46287833158 4.40531437923e-05 0)
(1.46288458154 2.69394043864e-06 0)
(1.46287246655 -1.84423920375e-05 0)
(1.46285212274 -2.74379607456e-05 0)
(1.46282957728 -2.94397698542e-05 0)
(1.46280804315 -2.76916152924e-05 0)
(1.46278904815 -2.41912261031e-05 0)
(1.46277313677 -2.01197686222e-05 0)
(1.46276030052 -1.61259246682e-05 0)
(1.46275024542 -1.25323952963e-05 0)
(1.46274256106 -9.46571874037e-06 0)
(1.46273681511 -6.93685336713e-06 0)
(1.46273260836 -4.89228157687e-06 0)
(1.46272959772 -3.26286934542e-06 0)
(1.46272749431 -1.98551429733e-06 0)
(1.4627260412 -1.01870154709e-06 0)
(1.46272502647 -3.17061754722e-07 0)
(1.46272438693 2.07799415679e-07 0)
(1.46272401114 6.9348199503e-07 0)
(1.46272375008 1.17717469189e-06 0)
(1.46272357208 1.61298256818e-06 0)
(1.46272343776 2.00682772476e-06 0)
(1.4627233169 2.37959743169e-06 0)
(1.46272318917 2.74410975205e-06 0)
(1.46272303925 3.1050220609e-06 0)
(1.46272285696 3.45969842975e-06 0)
(1.4627226371 3.79944359338e-06 0)
(1.46272237762 4.11526309376e-06 0)
(1.46272208321 4.40136434608e-06 0)
(1.46272176318 4.62826667394e-06 0)
(1.46272142521 4.74812951533e-06 0)
(1.46272107795 4.69353459209e-06 0)
(1.46272073208 4.37424065526e-06 0)
(1.46272040353 3.67715206857e-06 0)
(1.46272011139 2.47857092877e-06 0)
(1.46271974727 6.96193119213e-07 0)
(1.46271909277 -1.99560856841e-06 0)
(1.4627180216 -6.33230007637e-06 0)
(1.46271628885 -1.3119205297e-05 0)
(1.46271321471 -2.34661868325e-05 0)
(1.46270766138 -3.89017925428e-05 0)
(1.46269779693 -6.17900389311e-05 0)
(1.46268052406 -9.57137246058e-05 0)
(1.46265062066 -0.000146054752274 0)
(1.46259955484 -0.000221062711941 0)
(1.46251348974 -0.000333103491986 0)
(1.46236970374 -0.000500815415188 0)
(1.46213096658 -0.000752782093835 0)
(1.46173719724 -0.00113329024952 0)
(1.46109316265 -0.00170950292329 0)
(1.46004630725 -0.00257803308126 0)
(1.45835393666 -0.0038795646136 0)
(1.45563933599 -0.00580812286465 0)
(1.45133249119 -0.0086094870166 0)
(1.44460560674 -0.0125479416332 0)
(1.43437799667 -0.0178099318829 0)
(1.41937215264 -0.0243516462479 0)
(1.39771466244 -0.0316361327759 0)
(0.993269666412 0.00617015577923 0)
(1.03158099612 0.0171020502195 0)
(1.08672181018 0.0239906514841 0)
(1.15174553308 0.026560667237 0)
(1.21823534861 0.0258180588977 0)
(1.27925772482 0.0230488849397 0)
(1.33140134114 0.0193656292506 0)
(1.37377596773 0.0155468550938 0)
(1.40691051426 0.0120449271021 0)
(1.43203311528 0.00906639680006 0)
(1.45060213114 0.0066605923287 0)
(1.46402984145 0.00479008975002 0)
(1.47355014599 0.00337842736186 0)
(1.48017562202 0.00233873800022 0)
(1.48470228001 0.0015889147456 0)
(1.48773620233 0.00105829065133 0)
(1.48972734745 0.000689465428663 0)
(1.49100278645 0.000437641933446 0)
(1.49179587688 0.000268890039707 0)
(1.49227025904 0.000158116038242 0)
(1.49253876346 8.71301216871e-05 0)
(1.49267785286 4.29807926209e-05 0)
(1.49273839892 1.65910338188e-05 0)
(1.49275358436 1.67023330014e-06 0)
(1.49274435725 -6.06322072271e-06 0)
(1.49272357696 -9.40948029875e-06 0)
(1.49269893873 -1.0216683058e-05 0)
(1.49267467054 -9.65429770046e-06 0)
(1.49265286982 -8.44101823085e-06 0)
(1.49263437814 -6.99479432051e-06 0)
(1.49261931842 -5.55573213717e-06 0)
(1.49260742882 -4.24380261928e-06 0)
(1.49259828 -3.10647731626e-06 0)
(1.49259139623 -2.15019100811e-06 0)
(1.49258632297 -1.35902279978e-06 0)
(1.49258265931 -7.11376436824e-07 0)
(1.49258006901 -1.85852680978e-07 0)
(1.49257828236 2.39694308799e-07 0)
(1.49257709426 6.11941498262e-07 0)
(1.49257632838 9.8394088054e-07 0)
(1.49257583232 1.29408777622e-06 0)
(1.4925755148 1.58649352747e-06 0)
(1.4925753187 1.87869108703e-06 0)
(1.49257519138 2.18061193414e-06 0)
(1.49257509288 2.49924329942e-06 0)
(1.49257499524 2.83677731033e-06 0)
(1.49257487811 3.19182711057e-06 0)
(1.49257472698 3.56003592905e-06 0)
(1.49257453179 3.93361284699e-06 0)
(1.49257428513 4.30038135964e-06 0)
(1.49257398336 4.64301597472e-06 0)
(1.49257362463 4.93205767168e-06 0)
(1.49257320376 5.12548754451e-06 0)
(1.49257270983 5.16494792868e-06 0)
(1.4925721219 4.96940949958e-06 0)
(1.49257140859 4.42647496132e-06 0)
(1.49257055441 3.3829030282e-06 0)
(1.49256944621 1.66302325113e-06 0)
(1.49256762643 -8.85702313589e-07 0)
(1.49256476484 -4.68041823532e-06 0)
(1.4925605037 -1.04646033571e-05 0)
(1.49255382299 -1.89882289017e-05 0)
(1.49254309039 -3.12905458617e-05 0)
(1.49252574013 -4.89015941868e-05 0)
(1.49249762728 -7.39726008122e-05 0)
(1.49245192976 -0.000109469102615 0)
(1.49237780774 -0.00015989623348 0)
(1.49225815449 -0.000231447694804 0)
(1.4920652216 -0.00033263434367 0)
(1.49175374254 -0.000476330158704 0)
(1.49125180172 -0.000683854341415 0)
(1.4904499854 -0.000986283814197 0)
(1.48917667852 -0.00141698773691 0)
(1.48716422036 -0.00202416760357 0)
(1.48401105925 -0.00286961550594 0)
(1.4791321355 -0.00402150033522 0)
(1.47171235631 -0.00553524632985 0)
(1.46072560336 -0.00741410178142 0)
(1.4450056627 -0.0095663873587 0)
(1.42291480258 -0.0117461348797 0)
(0.993270464148 -0.00616839668323 0)
(1.03158097844 -0.0171003719731 0)
(1.08672174346 -0.0239897590005 0)
(1.15174557026 -0.0265602456193 0)
(1.2182354259 -0.025817993147 0)
(1.2792578262 -0.0230491113487 0)