/*--------------------------------*- C++ -*----------------------------------*\
| =========                 |                                                 |
| \\      /  F ield         | OpenFOAM: The Open Source CFD Toolbox           |
|  \\    /   O peration     | Version:  2106                                  |
|   \\  /    A nd           | Website:  www.openfoam.com                      |
|    \\/     M anipulation  |                                                 |
\*---------------------------------------------------------------------------*/
FoamFile
{
    version     2.0;
    format      ascii;
    arch        "LSB;label=32;scalar=64";
    class       surfaceScalarField;
    location    "0.048";
    object      phi;
}
// * * * * * * * * * * * * * * * * * * * * * * * * * * * * * * * * * * * * * //

dimensions      [0 3 -1 0 0 0 0];

oriented        oriented;

internalField   nonuniform List<scalar> 
799
(
1.86913e-32
4.73751e-32
6.14191e-32
5.14231e-32
2.70209e-32
-3.8964e-32
-9.7692e-32
-1.42919e-31
-1.5233e-31
-1.13934e-31
-5.75065e-32
5.38724e-33
4.44684e-32
5.48058e-32
3.37988e-32
-4.86758e-33
-5.5214e-32
-1.07038e-31
-1.46499e-31
-1.73624e-31
-1.64622e-31
-1.27667e-31
-6.56471e-32
5.95985e-33
4.73688e-32
5.72727e-32
1.63949e-32
-5.34686e-32
-1.19027e-31
-1.70908e-31
-1.73064e-31
-1.45101e-31
-9.81314e-32
-4.24709e-32
-1.69924e-32
-5.34878e-33
-2.20052e-32
-5.93865e-32
-8.87703e-32
-1.24994e-31
-1.33514e-31
-1.20605e-31
-9.67313e-32
-4.96243e-32
-2.40038e-32
-1.33386e-32
-2.88942e-32
-7.75157e-32
-1.17146e-31
-1.53126e-31
-1.54761e-31
-1.20635e-31
-7.71845e-32
-2.26195e-32
2.04658e-33
-3.86672e-33
-3.67356e-32
-9.56021e-32
-1.40792e-31
-1.65738e-31
-1.52374e-31
-9.90394e-32
-3.67625e-32
1.83351e-32
3.13069e-32
-9.29261e-33
-8.29534e-32
-1.6634e-31
-2.1164e-31
-1.94001e-31
-1.22507e-31
-2.06481e-32
5.59031e-32
7.25444e-32
2.55818e-32
-6.80786e-32
-1.54466e-31
-1.98973e-31
-1.87331e-31
-1.27943e-31
-6.15617e-32
-1.2416e-32
3.08882e-33
-1.17768e-32
-3.57564e-32
-6.1559e-32
-8.09989e-32
-9.90003e-32
-1.19168e-31
-1.31302e-31
-1.29207e-31
-9.79606e-32
-4.52829e-32
8.23486e-33
4.10012e-32
2.22099e-32
-3.62872e-32
-1.17973e-31
-1.87246e-31
-2.00525e-31
-1.65165e-31
-7.93122e-32
1.15951e-32
6.49084e-32
7.40166e-32
1.61443e-32
-6.30475e-32
-1.36763e-31
-1.80619e-31
-1.63549e-31
-1.19645e-31
-5.68218e-32
-1.01187e-32
-1.48056e-33
-1.28706e-32
-4.34448e-32
-6.0244e-32
-5.77035e-32
-4.4926e-32
-3.09968e-32
-4.08827e-32
-7.13431e-32
-1.12843e-31
-1.43631e-31
-1.42177e-31
-1.07474e-31
-4.80805e-32
1.14066e-32
4.92459e-32
5.46304e-32
2.47062e-32
-2.76491e-32
-8.85928e-32
-1.43903e-31
-1.75758e-31
-1.78483e-31
-1.44757e-31
-8.06103e-32
-6.86238e-33
5.7921e-32
8.3212e-32
6.06495e-32
-2.55853e-33
-8.6756e-32
-1.51602e-31
-1.78106e-31
-1.54625e-31
-9.43946e-32
-3.16819e-32
1.16082e-32
1.23668e-32
-2.22325e-32
-6.92629e-32
-1.0639e-31
-1.06954e-31
-7.40971e-32
-2.33365e-32
1.8343e-32
2.1116e-32
-1.89644e-32
-9.01151e-32
-1.56995e-31
-1.83971e-31
-1.53107e-31
-7.29608e-32
1.63487e-32
7.4386e-32
6.6416e-32
-1.47454e-34
-9.01681e-32
-1.60996e-31
-1.67956e-31
-1.21632e-31
-4.42346e-32
1.83716e-32
2.47106e-32
-1.13359e-32
-8.02947e-32
-1.29983e-31
-1.32239e-31
-9.6096e-32
-2.52366e-32
2.41057e-32
3.74176e-32
8.20777e-33
-5.93036e-32
-1.15419e-31
-1.52029e-31
-1.44514e-31
-9.76296e-32
-4.24788e-32
1.32411e-32
3.60269e-32
2.72244e-32
-4.61546e-33
-5.34784e-32
-9.14284e-32
-1.16036e-31
-1.20234e-31
-1.03075e-31
-7.71154e-32
-4.22245e-32
-9.13975e-33
1.26472e-32
1.91021e-32
-2.45255e-34
-4.0115e-32
-8.66714e-32
-1.23458e-31
-1.26768e-31
-9.29442e-32
-3.5028e-32
2.19887e-32
4.28309e-32
1.41482e-32
-5.38643e-32
-1.29346e-31
-1.66802e-31
-1.41003e-31
-5.86054e-32
4.41279e-32
1.10699e-31
1.00666e-31
1.40179e-32
-1.15192e-31
-2.20034e-31
-2.45099e-31
-1.78216e-31
-4.21293e-32
9.17059e-32
1.5998e-31
1.34753e-31
2.10859e-32
-1.15644e-31
-2.15856e-31
-2.37609e-31
-1.68395e-31
-5.6423e-32
5.24349e-32
1.0963e-31
9.09077e-32
2.08587e-32
-7.14777e-32
-1.41004e-31
-1.59028e-31
-1.28333e-31
-6.59631e-32
-6.23219e-33
2.18247e-32
8.77803e-33
-3.11459e-32
-7.37992e-32
-8.86784e-32
-6.50693e-32
-2.18127e-32
1.9084e-32
2.15102e-32
-2.20211e-32
-8.69437e-32
-1.45527e-31
-1.54217e-31
-1.05285e-31
-2.45962e-32
5.52511e-32
8.74071e-32
5.95022e-32
-6.00946e-33
-8.15511e-32
-1.2508e-31
-1.22257e-31
-9.07655e-32
-4.32167e-32
-1.03543e-32
9.59203e-34
4.71185e-33
-1.84355e-33
-5.33392e-34
1.6551e-33
-5.0029e-33
-1.03359e-32
-2.21878e-32
-2.41584e-32
-1.45348e-32
-4.70113e-33
4.37171e-33
-6.41914e-34
-8.82463e-33
-3.79751e-33
2.62318e-32
8.29715e-32
1.42716e-31
1.743e-31
1.53318e-31
8.73571e-32
8.26585e-33
-3.22899e-32
6.46992e-34
1.00616e-31
2.34104e-31
3.3493e-31
3.64831e-31
3.21317e-31
2.36643e-31
1.78287e-31
1.80728e-31
2.55781e-31
3.72812e-31
4.76198e-31
5.39878e-31
5.50062e-31
5.3772e-31
5.42131e-31
5.813e-31
6.64192e-31
7.58959e-31
8.40451e-31
8.96575e-31
9.26931e-31
9.65485e-31
1.02996e-30
1.13172e-30
1.26475e-30
1.39425e-30
1.50637e-30
1.58677e-30
1.64723e-30
1.72303e-30
1.82882e-30
1.98711e-30
2.18203e-30
2.38173e-30
2.56657e-30
2.70441e-30
2.81328e-30
2.91819e-30
3.04983e-30
3.25066e-30
3.50873e-30
3.81122e-30
4.1147e-30
4.36666e-30
4.55255e-30
4.67529e-30
4.73833e-30
4.96048e-30
5.29123e-30
6.44831e-30
8.66858e-30
1.20814e-29
1.87555e-29
2.12366e-29
2.38225e-29
6.55053e-30
-3.63993e-29
-8.79691e-29
-1.93753e-28
-1.8458e-28
-1.2397e-28
1.63872e-28
8.07931e-28
1.17313e-27
1.81545e-27
1.0537e-27
-7.64323e-28
-3.03976e-27
-7.54629e-27
-7.21682e-27
-5.93461e-27
1.74463e-27
1.68725e-26
2.2664e-26
3.30447e-26
1.66441e-26
-1.36154e-26
-4.10118e-26
-9.05002e-26
-7.13272e-26
-4.21997e-26
3.15652e-26
1.5462e-25
1.6273e-25
1.91992e-25
5.43059e-26
-1.45606e-25
-2.41568e-25
-4.15717e-25
-2.36529e-25
-3.16491e-26
2.19148e-25
5.89189e-25
4.5515e-25
3.83028e-25
-3.709e-26
-5.44008e-25
-5.80055e-25
-7.54258e-25
-2.54584e-25
2.23622e-25
5.06842e-25
9.15286e-25
5.06853e-25
2.23638e-25
-2.5457e-25
-7.54253e-25
-5.80061e-25
-5.4402e-25
-3.71041e-26
3.83019e-25
4.55149e-25
5.89194e-25
2.19156e-25
-3.16432e-26
-2.36527e-25
-4.15718e-25
-2.41573e-25
-1.4561e-25
5.43023e-26
1.91991e-25
1.6273e-25
1.5462e-25
3.15656e-26
-4.21998e-26
-7.13277e-26
-9.05008e-26
-4.10126e-26
-1.36161e-26
1.66433e-26
3.30439e-26
2.26633e-26
1.68718e-26
1.74405e-27
-5.9351e-27
-7.21721e-27
-7.54663e-27
-3.04012e-27
-7.64701e-28
1.05327e-27
1.81499e-27
1.17266e-27
8.07477e-28
1.63491e-28
-1.24271e-28
-1.8478e-28
-1.93886e-28
-8.81017e-29
-3.65769e-29
6.2664e-30
2.34549e-29
2.08353e-29
1.8394e-29
1.18463e-29
8.56831e-30
6.46625e-30
5.35469e-30
4.98109e-30
4.67198e-30
4.49575e-30
4.29425e-30
4.08981e-30
3.8735e-30
3.66466e-30
3.47231e-30
3.31033e-30
3.1709e-30
3.03041e-30
2.86773e-30
2.66838e-30
2.44129e-30
2.22188e-30
2.03699e-30
1.91322e-30
1.84361e-30
1.79866e-30
1.75244e-30
1.66897e-30
1.55031e-30
1.40403e-30
1.2505e-30
1.1212e-30
1.02205e-30
9.66674e-31
9.43665e-31
9.33173e-31
9.18085e-31
8.71331e-31
7.88185e-31
6.78568e-31
5.65011e-31
4.8177e-31
4.5131e-31
4.67372e-31
5.1134e-31
5.40025e-31
5.18421e-31
4.47552e-31
3.34148e-31
2.29426e-31
1.69622e-31
1.65241e-31
2.20977e-31
2.84938e-31
3.26348e-31
3.17869e-31
2.46482e-31
1.51735e-31
5.92306e-32
1.05862e-32
2.75137e-32
9.18691e-32
1.79575e-31
2.41327e-31
2.40299e-31
1.71191e-31
5.41683e-32
-6.0499e-32
-1.17735e-31
-9.28208e-32
6.15921e-33
1.32199e-31
2.20182e-31
2.30904e-31
1.55002e-31
3.10225e-32
-8.33416e-32
-1.40146e-31
-1.18484e-31
-4.10885e-32
5.45745e-32
1.20437e-31
1.36708e-31
1.04167e-31
4.11284e-32
-1.62079e-32
-5.63669e-32
-5.98778e-32
-3.69517e-32
-2.41719e-33
3.53803e-32
4.73252e-32
4.39105e-32
1.85611e-32
-1.20404e-32
-2.21143e-32
-2.13304e-32
8.01292e-33
3.40345e-32
4.06431e-32
2.92689e-32
-1.58445e-32
-5.12096e-32
-6.77581e-32
-5.35785e-32
-1.77848e-33
4.36663e-32
7.55944e-32
7.18598e-32
3.36331e-32
-5.4874e-33
-4.08703e-32
-5.14608e-32
-4.5306e-32
-4.24999e-32
-3.86465e-32
-4.04806e-32
-2.72058e-32
1.45393e-32
6.80695e-32
1.18834e-31
1.22389e-31
6.01537e-32
-4.67429e-32
-1.66157e-31
-2.24201e-31
-1.87534e-31
-6.48301e-32
1.05899e-31
2.28197e-31
2.51701e-31
1.56561e-31
-2.64411e-32
-1.96044e-31
-2.8935e-31
-2.51836e-31
-9.82631e-32
8.5365e-32
2.31578e-31
2.57463e-31
1.5972e-31
-5.13418e-33
-1.73357e-31
-2.49251e-31
-2.15475e-31
-9.44059e-32
6.1043e-32
1.61811e-31
1.84492e-31
1.21768e-31
1.08785e-32
-8.35071e-32
-1.41545e-31
-1.37824e-31
-9.34287e-32
-3.78701e-32
1.96311e-32
5.20979e-32
6.96156e-32
6.87707e-32
4.81312e-32
2.04367e-32
-2.07805e-32
-5.65948e-32
-8.24486e-32
-9.15614e-32
-7.78264e-32
-5.15352e-32
-1.21589e-32
2.52628e-32
5.7697e-32
7.30586e-32
6.51446e-32
3.75526e-32
-1.27971e-32
-5.87852e-32
-9.57819e-32
-1.05484e-31
-8.16278e-32
-4.60184e-32
5.30233e-33
4.07116e-32
5.82759e-32
6.04802e-32
3.47578e-32
7.17108e-33
-3.04929e-32
-6.39328e-32
-7.84681e-32
-8.17317e-32
-5.59503e-32
-1.89998e-32
2.01184e-32
5.1624e-32
5.47822e-32
3.89132e-32
3.62767e-33
-3.51934e-32
-6.18325e-32
-7.30243e-32
-6.12063e-32
-3.524e-32
-2.83294e-33
2.48987e-32
3.81755e-32
3.23543e-32
1.20852e-32
-1.27427e-32
-3.17929e-32
-3.20081e-32
-2.34412e-32
-9.65553e-33
-5.24684e-33
-1.82377e-32
-2.92907e-32
-3.61578e-32
-1.60063e-32
2.3401e-32
5.67743e-32
7.09314e-32
3.63564e-32
-2.50171e-32
-8.72431e-32
-1.17346e-31
-8.51554e-32
-1.4276e-32
7.05342e-32
1.18974e-31
1.04786e-31
4.05679e-32
-4.88961e-32
-1.07503e-31
-1.12875e-31
-6.25009e-32
1.77328e-32
7.73885e-32
9.52538e-32
5.7848e-32
-8.25291e-33
-6.31224e-32
-8.3722e-32
-5.16571e-32
7.59283e-33
6.30351e-32
8.76629e-32
6.04087e-32
2.34873e-33
-6.18845e-32
-1.01355e-31
-9.03487e-32
-4.0964e-32
3.03861e-32
9.29201e-32
1.15304e-31
9.75213e-32
4.14331e-32
-3.028e-32
-8.64833e-32
-1.17608e-31
-1.06587e-31
-6.06991e-32
1.86579e-33
7.10473e-32
1.1622e-31
1.28324e-31
1.00968e-31
3.38467e-32
-4.43761e-32
-1.14851e-31
-1.45943e-31
-1.20577e-31
-4.92827e-32
4.93023e-32
1.30101e-31
1.60072e-31
1.25784e-31
3.71169e-32
-6.28455e-32
-1.31448e-31
-1.37459e-31
-7.73322e-32
1.67741e-32
1.01165e-31
1.36943e-31
1.06355e-31
3.04207e-32
-5.43142e-32
-1.07085e-31
-9.83285e-32
-4.12081e-32
4.11133e-32
1.06306e-31
1.18345e-31
8.40653e-32
1.0002e-32
-5.85447e-32
-8.71182e-32
-7.45199e-32
-1.22597e-32
5.26972e-32
9.55622e-32
1.04098e-31
6.16809e-32
1.05309e-32
-3.77628e-32
-6.01214e-32
-4.05032e-32
-7.35088e-33
3.77919e-32
6.85992e-32
7.42499e-32
6.62069e-32
4.18989e-32
1.99995e-32
7.03717e-33
-7.07177e-35
2.10686e-33
4.70296e-33
3.05591e-33
4.40187e-33
4.69822e-33
1.47033e-32
3.77452e-32
6.18946e-32
9.13011e-32
1.00125e-31
8.64275e-32
5.15893e-32
-6.18178e-33
-4.9525e-32
-7.50202e-32
-5.98292e-32
-5.98994e-33
5.8517e-32
1.22188e-31
1.46122e-31
1.31321e-31
7.99088e-32
1.66668e-32
-3.19379e-32
-5.20415e-32
-3.03372e-32
7.99712e-34
5.00275e-32
7.08817e-32
7.19892e-32
6.54515e-32
2.11163e-32
1.22048e-32
-1.97859e-32
-2.55099e-32
-5.10811e-33
)
;

boundaryField
{
    left
    {
        type            calculated;
        value           uniform 0;
    }
    right
    {
        type            calculated;
        value           uniform 0;
    }
    empty
    {
        type            empty;
        value           nonuniform List<scalar> 0();
    }
}


// ************************************************************************* //
