/*--------------------------------*- C++ -*----------------------------------*\
| =========                 |                                                 |
| \\      /  F ield         | OpenFOAM: The Open Source CFD Toolbox           |
|  \\    /   O peration     | Version:  2106                                  |
|   \\  /    A nd           | Website:  www.openfoam.com                      |
|    \\/     M anipulation  |                                                 |
\*---------------------------------------------------------------------------*/
FoamFile
{
    version     2.0;
    format      ascii;
    arch        "LSB;label=32;scalar=64";
    class       surfaceScalarField;
    location    "0.22";
    object      phi;
}
// * * * * * * * * * * * * * * * * * * * * * * * * * * * * * * * * * * * * * //

dimensions      [0 3 -1 0 0 0 0];

oriented        oriented;

internalField   nonuniform List<scalar> 
22100
(
3.38461202966e-05
1.61538796933e-05
2.24572095973e-05
1.13889103977e-05
1.62585525819e-05
6.19865678821e-06
1.27977755199e-05
3.46077687529e-06
1.08046416178e-05
1.99313376985e-06
9.60458860502e-06
1.20005293266e-06
8.85132086735e-06
7.53267690114e-07
8.36435205353e-06
4.86968772658e-07
8.04433412915e-06
3.20017861857e-07
7.8328392389e-06
2.11494788283e-07
7.693395932e-06
1.39443156617e-07
7.60223887487e-06
9.11568692476e-08
7.54347592024e-06
5.87627500075e-08
7.50633885314e-06
3.71368719962e-08
7.48349922516e-06
2.28394648859e-08
7.46997831534e-06
1.35207918413e-08
7.46241362172e-06
7.56461624253e-09
7.45854551273e-06
3.86805690529e-09
7.45682645229e-06
1.71901077219e-09
7.45641969782e-06
4.06690898418e-10
7.45676937523e-06
-3.49766998181e-10
7.45745540191e-06
-6.86138796745e-10
7.45821359433e-06
-7.58320697502e-10
7.45893876738e-06
-7.25301655594e-10
7.45958297559e-06
-6.44323622254e-10
7.46012683798e-06
-5.43957558321e-10
7.46056890267e-06
-4.42142666374e-10
7.46091761502e-06
-3.48780685296e-10
7.46118587327e-06
-2.68326412676e-10
7.46138775615e-06
-2.01962732827e-10
7.46153664269e-06
-1.48982628406e-10
7.46164426698e-06
-1.07728441368e-10
7.46172035754e-06
-7.61969489446e-11
7.46177305688e-06
-5.27994025494e-11
7.46180630654e-06
-3.33375112899e-11
7.46182509442e-06
-1.88632499475e-11
7.46183417896e-06
-9.14740654229e-12
7.46183698291e-06
-2.86089017109e-12
7.46183543846e-06
1.48502831054e-12
7.4618306734e-06
4.68953324005e-12
7.46182362537e-06
6.95654325304e-12
7.46181490567e-06
8.61357042498e-12
7.46180489447e-06
9.8967963664e-12
7.46179377595e-06
1.10071118828e-11
7.4617815584e-06
1.21167658005e-11
7.46176811658e-06
1.33536725857e-11
7.46175321879e-06
1.48207484811e-11
7.46173653464e-06
1.66145133397e-11
7.46171762571e-06
1.88398876068e-11
7.46169595378e-06
2.15927999566e-11
7.46167091543e-06
2.49467505798e-11
7.46164181892e-06
2.90002412374e-11
7.46160787308e-06
3.38524174563e-11
7.46156820609e-06
3.95790926006e-11
7.46152192225e-06
4.6202089499e-11
7.46146818116e-06
5.36633263905e-11
7.46140624823e-06
6.1852563294e-11
7.46133593636e-06
7.02238629627e-11
7.46125793365e-06
7.79093716676e-11
7.46117461091e-06
8.3225604546e-11
7.46109202851e-06
8.24831248795e-11
7.46102262494e-06
6.93245514084e-11
7.46097432935e-06
4.8237579533e-11
7.46096598127e-06
8.3389738593e-12
7.46103344322e-06
-6.74364278135e-11
7.46123485651e-06
-2.01373794757e-10
7.46166474263e-06
-4.29852675947e-10
7.4624732799e-06
-8.08532123995e-10
7.46389603548e-06
-1.42278162946e-09
7.46628909729e-06
-2.39312823754e-09
7.47010297169e-06
-3.8139606051e-09
7.47654988104e-06
-6.44699617138e-09
7.48732546113e-06
-1.07756478267e-08
7.50551645714e-06
-1.81910316162e-08
7.53873974409e-06
-3.32232908507e-08
7.60804069817e-06
-6.93009458003e-08
7.7749157628e-06
-1.6687504989e-07
8.2304206284e-06
-4.55504812344e-07
9.70007562343e-06
-1.46965493678e-06
-5.46034556485e-06
1.51604210891e-05
5.02175947442e-05
1.59362846702e-05
4.4244111225e-05
1.73623934729e-05
3.7779500905e-05
1.26632667842e-05
3.26461432789e-05
8.59413426299e-06
2.89380910675e-05
5.70118582183e-06
2.63596206057e-05
3.77852328379e-06
2.45875161395e-05
2.52537205206e-06
2.33734740045e-05
1.70101076633e-06
2.254352484e-05
1.1499668222e-06
2.19782159967e-05
7.76803357211e-07
2.15955132773e-05
5.22145545619e-07
2.13387365133e-05
3.47933284351e-07
2.11684948096e-05
2.29004125058e-07
2.1057337061e-05
1.48294347408e-07
2.09861490611e-05
9.4027261927e-08
2.09416766452e-05
5.79930662404e-08
2.09147948246e-05
3.44463327309e-08
2.08992957257e-05
1.93670538626e-08
2.08910719245e-05
9.94268815526e-09
2.0887271591e-05
4.20686220375e-09
2.08862025006e-05
7.19130074523e-10
2.08864480726e-05
-9.31926583235e-10
2.08873193545e-05
-1.62981786325e-09
2.08884587074e-05
-1.86484942325e-09
2.08896319069e-05
-1.8176859124e-09
2.0890714786e-05
-1.62696970612e-09
2.089165228e-05
-1.37975177543e-09
2.08924297062e-05
-1.12632071202e-09
2.08930548212e-05
-8.93571664196e-10
2.0893546835e-05
-6.94133083975e-10
2.08939305227e-05
-5.32841645896e-10
2.08942319192e-05
-4.09301259919e-10
2.08944427581e-05
-2.87204474814e-10
2.08945897182e-05
-1.99910855756e-10
2.08946899864e-05
-1.33736765248e-10
2.08947552743e-05
-8.42659487337e-11
2.08947957398e-05
-4.97221215979e-11
2.08948195371e-05
-2.6772372524e-11
2.08948314648e-05
-1.05765051857e-11
2.08948344551e-05
1.54395189229e-12
2.08948309275e-05
1.03093752347e-11
2.08948225538e-05
1.68010076508e-11
2.08948104848e-05
2.17819855689e-11
2.08947954402e-05
2.5879640413e-11
2.08947777882e-05
2.96102235403e-11
2.08947576598e-05
3.33359756095e-11
2.08947350259e-05
3.73186390841e-11
2.08947097443e-05
4.17613360118e-11
2.08946815791e-05
4.68591631142e-11
2.08946502528e-05
5.27589792323e-11
2.08946155387e-05
5.94921520034e-11
2.08945772848e-05
6.70848095605e-11
2.08945354896e-05
7.54837250211e-11
2.08944904331e-05
8.44817592164e-11
2.08944429155e-05
9.35739597588e-11
2.08943946712e-05
1.01760509521e-10
2.0894348845e-05
1.0752571642e-10
2.08943112537e-05
1.0765759922e-10
2.08942913265e-05
9.76736442744e-11
2.08943040964e-05
7.02951861628e-11
2.08943758336e-05
1.06106933903e-11
2.08945560203e-05
-1.10953844607e-10
2.08949126803e-05
-3.08452612929e-10
2.08955637017e-05
-6.42663387036e-10
2.08966203068e-05
-1.12400353876e-09
2.08982558411e-05
-1.83687876596e-09
2.09008287495e-05
-3.00276748567e-09
2.09048876032e-05
-4.86744663945e-09
2.0911302798e-05
-7.83809382499e-09
2.09215003231e-05
-1.25907945664e-08
2.09379745528e-05
-2.02883300699e-08
2.0964878939e-05
-3.33515120484e-08
2.10091655747e-05
-5.50623729697e-08
2.10840326158e-05
-9.30580874192e-08
2.12154551523e-05
-1.64645775152e-07
2.14564430177e-05
-3.10288687058e-07
2.19150802538e-05
-6.25512070393e-07
2.28038065221e-05
-1.34423085881e-06
2.44514912552e-05
-3.11733953519e-06
-7.05305425791e-06
2.60441997928e-05
5.3517105177e-05
1.24191792582e-05
5.29349678541e-05
1.79445304096e-05
4.96538394247e-05
1.5944394931e-05
4.58401805641e-05
1.24077929126e-05
4.24400914102e-05
9.10127483291e-06
3.97291713282e-05
6.48944326164e-06
3.7687304733e-05
4.56723854696e-06
3.61976617633e-05
3.19065360392e-06
3.51326109433e-05
2.21501745414e-06
3.4382365659e-05
1.52704839424e-06
3.38606244108e-05
1.04388650364e-06
3.35023438965e-05
7.06213496095e-07
3.32595987428e-05
4.71748997332e-07
3.30975882299e-05
3.10304627504e-07
3.29913319981e-05
2.00283318976e-07
3.29230900038e-05
1.26234935797e-07
3.28804019519e-05
7.71342834941e-08
3.2854616704e-05
4.51522005388e-08
3.28397894607e-05
2.47698080186e-08
3.28318627842e-05
1.21333872474e-08
3.28279931025e-05
4.58863264642e-09
3.28269942526e-05
6.6731868603e-11
3.28271748065e-05
-1.81055790247e-09
3.28280230081e-05
-2.71321544432e-09
3.28291385784e-05
-2.93339215139e-09
3.28302856283e-05
-2.77413054027e-09
3.28313413987e-05
-2.43561882505e-09
3.28322515711e-05
-2.03659278707e-09
3.28330012869e-05
-1.6434061162e-09
3.28335966344e-05
-1.28962049878e-09
3.28340525763e-05
-9.88938100885e-10
3.28343872082e-05
-7.44090388043e-10
3.28346532273e-05
-5.5337242171e-10
3.28348692615e-05
-4.16077141432e-10
3.28350161391e-05
-2.80726586415e-10
3.28351150455e-05
-1.83265818805e-10
3.28351805936e-05
-1.15353070171e-10
3.2835222179e-05
-6.84498751914e-11
3.28352466644e-05
-3.51765924126e-11
3.28352580147e-05
-9.94700355703e-12
3.28352597943e-05
8.36892343118e-12
3.2835254509e-05
2.19160019395e-11
3.28352439939e-05
3.21302979392e-11
3.28352294788e-05
4.02395357073e-11
3.28352117152e-05
4.72343898513e-11
3.28351911624e-05
5.37671203858e-11
3.28351681006e-05
6.0268335355e-11
3.28351426984e-05
6.70492786867e-11
3.28351149908e-05
7.44383977315e-11
3.28350850031e-05
8.25990801315e-11
3.28350530369e-05
9.12977702646e-11
3.28350196649e-05
1.00296229235e-10
3.28349858746e-05
1.09127307977e-10
3.28349533667e-05
1.16860767207e-10
3.28349250521e-05
1.21768440001e-10
3.28349056386e-05
1.21053231051e-10
3.28349018568e-05
1.1118034122e-10
3.28349249126e-05
8.44666227974e-11
3.283499205e-05
3.03983820318e-11
3.28351325983e-05
-7.04051190632e-11
3.28353978198e-05
-2.54728985586e-10
3.28358756223e-05
-5.88832689701e-10
3.28365852281e-05
-1.01809663189e-09
3.28376169023e-05
-1.67433343099e-09
3.28392264016e-05
-2.73348278191e-09
3.2841793057e-05
-4.40352350081e-09
3.28458206874e-05
-7.030421053e-09
3.28521242917e-05
-1.11711222113e-08
3.28620184231e-05
-1.77323355181e-08
3.28776706591e-05
-2.82431627382e-08
3.29027474385e-05
-4.53652373938e-08
3.29426104084e-05
-7.32145819532e-08
3.30071084429e-05
-1.19560457023e-07
3.31132598394e-05
-1.99209498931e-07
3.32901440802e-05
-3.41529995845e-07
3.35860883312e-05
-6.06232834485e-07
3.40723939339e-05
-1.11181749734e-06
3.4815556912e-05
-2.08739358016e-06
3.56797536972e-05
-3.98153618386e-06
-7.12530045399e-06
3.57520000084e-05
5.35105662896e-05
8.90861274983e-06
5.55742217518e-05
1.58808745841e-05
5.52424818088e-05
1.62761346123e-05
5.35977850871e-05
1.40524894375e-05
5.1541846703e-05
1.11572130778e-05
4.95802788383e-05
8.45101102288e-06
4.79243497168e-05
6.22316756117e-06
4.66181377173e-05
4.4968654639e-06
4.56304647484e-05
3.20269023108e-06
4.49051155913e-05
2.25239730676e-06
4.43840881659e-05
1.56491364881e-06
4.40166917751e-05
1.07360959857e-06
4.37619650627e-05
7.26475446318e-07
4.3588266277e-05
4.8400319586e-07
4.34718667841e-05
3.16682647171e-07
4.33953566158e-05
2.027449804e-07
4.33461862587e-05
1.26304537061e-07
4.33154485645e-05
7.58897869366e-08
4.32969120978e-05
4.33061472305e-08
4.32862859082e-05
2.27594225671e-08
4.32806829237e-05
1.01914412699e-08
4.32778751053e-05
2.87436767356e-09
4.32770471704e-05
-9.8279459602e-10
4.32772649417e-05
-2.93113490082e-09
4.32779523768e-05
-3.6209501217e-09
4.32788153379e-05
-3.63719668053e-09
4.32796880417e-05
-3.30842332026e-09
4.32804853583e-05
-2.83402230699e-09
4.32811709313e-05
-2.32911115442e-09
4.32817365508e-05
-1.85538867531e-09
4.3282189066e-05
-1.44161110641e-09
4.32825411748e-05
-1.09635509502e-09
4.32828026598e-05
-8.14999632803e-10
4.32829777674e-05
-5.91304032072e-10
4.32831105933e-05
-4.13649716622e-10
4.32831957886e-05
-2.68537626707e-10
4.32832495947e-05
-1.69235747688e-10
4.3283289199e-05
-1.08145756414e-10
4.32833133783e-05
-5.94772395463e-11
4.32833251358e-05
-2.18562487612e-11
4.32833278961e-05
5.43260203569e-12
4.32833236309e-05
2.59986621979e-11
4.32833140615e-05
4.15252880354e-11
4.32833003491e-05
5.37956053531e-11
4.3283283136e-05
6.43135088633e-11
4.32832628433e-05
7.39461732357e-11
4.32832397817e-05
8.32261007768e-11
4.32832142107e-05
9.25108343592e-11
4.32831864886e-05
1.020351102e-10
4.32831571515e-05
1.11790498971e-10
4.32831268159e-05
1.21476391132e-10
4.3283096441e-05
1.30518747225e-10
4.32830674825e-05
1.37949540998e-10
4.32830420368e-05
1.42184578968e-10
4.32830230184e-05
1.40671130576e-10
4.32830146594e-05
1.29289989708e-10
4.32830245928e-05
1.0111526077e-10
4.32830646922e-05
4.42202776201e-11
4.32831540661e-05
-5.91471709767e-11
4.32833117247e-05
-2.28221245475e-10
4.32835393611e-05
-4.82507775299e-10
4.3283973741e-05
-1.02330245186e-09
4.32847305429e-05
-1.77494227887e-09
4.32859689601e-05
-2.91276031744e-09
4.32878952696e-05
-4.65978748393e-09
4.32908585759e-05
-7.36682185485e-09
4.32954184372e-05
-1.15902979828e-08
4.33024540364e-05
-1.82067725303e-08
4.33133489698e-05
-2.86273581314e-08
4.33302642898e-05
-4.51586000016e-08
4.33565152261e-05
-7.16162856269e-08
4.33976827916e-05
-1.14382209442e-07
4.34626372463e-05
-1.84514906367e-07
4.35651361048e-05
-3.01708325326e-07
4.37251905957e-05
-5.01584431255e-07
4.39674880611e-05
-8.48530228683e-07
4.43088236289e-05
-1.45315291484e-06
4.47106268115e-05
-2.48919657182e-06
4.49319314473e-05
-4.20284069447e-06
-6.5978437507e-06
4.44044749486e-05
5.27351378194e-05
6.17347472134e-06
5.57309339423e-05
1.28850781163e-05
5.73114735392e-05
1.46955947634e-05
5.76109908623e-05
1.37529719221e-05
5.7133521585e-05
1.16346822157e-05
5.63194670149e-05
9.26506548184e-06
5.5448986825e-05
7.09364763313e-06
5.46629762403e-05
5.2828758982e-06
5.40136806265e-05
3.85198564494e-06
5.35061492128e-05
2.75992847154e-06
5.31242532025e-05
1.94680938074e-06
5.28449835817e-05
1.3528789392e-06
5.26454372979e-05
9.26021474132e-07
5.25057130671e-05
6.23727212306e-07
5.24097183628e-05
4.12677183093e-07
5.23450124545e-05
2.67450753215e-07
5.23022747483e-05
1.6904212074e-07
5.22746876918e-05
1.03476714958e-07
5.22573632215e-05
6.06304689594e-08
5.2246854563e-05
3.32679093335e-08
5.22407548284e-05
1.62909890348e-08
5.22374458582e-05
6.18315142447e-09
5.22359470305e-05
5.15863263463e-10
5.22354388707e-05
-2.42311935543e-09
5.22355035679e-05
-3.68576856854e-09
5.22358487343e-05
-3.98247298048e-09
5.22363026439e-05
-3.7624485175e-09
5.22367686534e-05
-3.30016485823e-09
5.22371956648e-05
-2.75627496843e-09
5.22375609649e-05
-2.22085636447e-09
5.22378578702e-05
-1.73868465064e-09
5.22380891814e-05
-1.3278237019e-09
5.22382651961e-05
-9.91148083101e-10
5.22383978069e-05
-7.24025778722e-10
5.22384979352e-05
-5.13859792757e-10
5.22385823202e-05
-3.52987330968e-10
5.22386476276e-05
-2.34607281162e-10
5.22386896936e-05
-1.50306021471e-10
5.22387221767e-05
-9.20938535325e-11
5.2238737285e-05
-3.71350055205e-11
5.22387421902e-05
3.35742353075e-13
5.22387394811e-05
2.85137974109e-11
5.22387311115e-05
4.97148144663e-11
5.22387184282e-05
6.63240838281e-11
5.22387022956e-05
8.03197013308e-11
5.22386832827e-05
9.28545757251e-11
5.22386619017e-05
1.04509851559e-10
5.22386390081e-05
1.15295862422e-10
5.22386145525e-05
1.26359441043e-10
5.22385875616e-05
1.3862991403e-10
5.22385595066e-05
1.49374839599e-10
5.22385314493e-05
1.58430288057e-10
5.22385049011e-05
1.64366920748e-10
5.22384822362e-05
1.64731669056e-10
5.22384678442e-05
1.54949834721e-10
5.22384735994e-05
1.23417409976e-10
5.22385010642e-05
7.35244960036e-11
5.22385703871e-05
-2.52487857542e-11
5.22386857692e-05
-1.74672793717e-10
5.22388697157e-05
-4.12326247193e-10
5.22392014957e-05
-8.14422815607e-10
5.22397064556e-05
-1.52837474576e-09
5.22404647183e-05
-2.53326483561e-09
5.22416077782e-05
-4.05583910693e-09
5.22433384006e-05
-6.39040581077e-09
5.22459577351e-05
-9.98615541711e-09
5.22499174822e-05
-1.55500621765e-08
5.22559087388e-05
-2.41980797903e-08
5.22649909393e-05
-3.77096414475e-08
5.22787834589e-05
-5.89512152488e-08
5.22997485782e-05
-9.25814914157e-08
5.23316094163e-05
-1.46243104468e-07
5.23797231994e-05
-2.32628711853e-07
5.24510399049e-05
-3.73025003917e-07
5.25524605532e-05
-6.03004990986e-07
5.26845814651e-05
-9.80651048367e-07
5.28252273211e-05
-1.59379864241e-06
5.28929029817e-05
-2.55687205956e-06
5.26749169519e-05
-3.98485453517e-06
-5.78867175917e-06
5.18657452109e-05
5.19834862864e-05
4.18998823673e-06
5.50586634766e-05
9.80990059459e-06
5.76386124733e-05
1.21156455217e-05
5.93259022284e-05
1.20656819751e-05
6.02280141149e-05
1.07325701833e-05
6.05929251712e-05
8.90015430152e-06
6.06482819588e-05
7.03829071611e-06
6.05531873375e-05
5.37797035619e-06
6.04029525608e-05
4.00222021523e-06
6.02479118166e-05
2.91496896962e-06
6.01107860293e-05
2.08393489866e-06
5.99990262503e-05
1.46463845069e-06
5.99125108405e-05
1.01253664098e-06
5.98479187466e-05
6.88319103038e-07
5.98010150076e-05
4.59580755556e-07
5.97677302036e-05
3.00735416789e-07
5.97445886981e-05
1.92183493708e-07
5.97288099908e-05
1.19255279381e-07
5.97182616623e-05
7.11786370332e-08
5.97113552756e-05
4.01741188626e-08
5.97069357263e-05
2.07103549444e-08
5.97042016373e-05
8.91706585158e-09
5.9702592426e-05
2.12492089838e-09
5.97016877285e-05
-1.51855149696e-09
5.97012292733e-05
-3.22742661748e-09
5.97010395839e-05
-3.79289538219e-09
5.97010031133e-05
-3.72610512994e-09
5.97010471965e-05
-3.34439874369e-09
5.97011281165e-05
-2.83736570331e-09
5.97012202162e-05
-2.31313536169e-09
5.97013096294e-05
-1.82827579495e-09
5.97013897554e-05
-1.40810456939e-09
5.97014591748e-05
-1.06069474289e-09
5.97015184886e-05
-7.83428222958e-10
5.97015685019e-05
-5.63932926647e-10
5.97016080932e-05
-3.92628127988e-10
5.97016356578e-05
-2.62238698258e-10
5.97016506991e-05
-1.65453653341e-10
5.97016487628e-05
-9.03127051316e-11
5.9701640409e-05
-2.89756168441e-11
5.97016334818e-05
7.0502624569e-12
5.97016238608e-05
3.792642235e-11
5.97016131767e-05
6.02140605882e-11
5.97016012745e-05
7.80746652129e-11
5.97015870938e-05
9.43832174407e-11
5.9701570447e-05
1.09407003765e-10
5.97015513112e-05
1.23555500688e-10
5.97015294513e-05
1.37051442436e-10
5.97015057933e-05
1.49887082926e-10
5.9701482514e-05
1.6175763294e-10
5.97014597696e-05
1.71961384829e-10
5.97014388324e-05
1.79215749121e-10
5.97014214328e-05
1.81625807352e-10
5.97014093972e-05
1.76633447218e-10
5.97014030204e-05
1.61195460371e-10
5.97013933663e-05
1.3293842614e-10
5.97013936647e-05
7.30677218773e-11
5.97014041015e-05
-3.5835577704e-11
5.97014729569e-05
-2.43695357568e-10
5.97016519022e-05
-5.91427646434e-10
5.97019431485e-05
-1.10581312209e-09
5.97023188154e-05
-1.90414514057e-09
5.97028822456e-05
-3.09675714782e-09
5.97037162603e-05
-4.88987720673e-09
5.97049340958e-05
-7.60823779766e-09
5.97066999575e-05
-1.17520183081e-08
5.97092511167e-05
-1.81012442143e-08
5.97129304487e-05
-2.78774663559e-08
5.97182265091e-05
-4.30057841769e-08
5.97258193674e-05
-6.65441545062e-08
5.97366110095e-05
-1.0337319868e-07
5.97516633665e-05
-1.61295502106e-07
5.97718149751e-05
-2.5278033311e-07
5.97964767409e-05
-3.97686717487e-07
5.98204932314e-05
-6.27021428849e-07
5.98269802465e-05
-9.8713794937e-07
5.97738520311e-05
-1.54067030192e-06
5.95730456715e-05
-2.35606551562e-06
5.90663790131e-05
-3.47818774067e-06
-4.81515979943e-06
5.80928672741e-05
5.14373051915e-05
2.75268285326e-06
5.42658200886e-05
6.98138537667e-06
5.72496425102e-05
9.13182286026e-06
5.97900266562e-05
9.52529763742e-06
6.17201269704e-05
8.80246971295e-06
6.30883017537e-05
7.53197937706e-06
6.40167151462e-05
6.10987717704e-06
6.46292347534e-05
4.76545057257e-06
6.50258014914e-05
3.605653264e-06
6.52790758204e-05
2.66169439534e-06
6.54389706108e-05
1.92403984791e-06
6.55386871908e-05
1.36492161616e-06
6.55999255055e-05
9.51298096058e-07
6.56367401348e-05
6.51504275228e-07
6.56581910847e-05
4.38129638215e-07
6.56700991827e-05
2.88827169231e-07
6.5676188308e-05
1.8609422112e-07
6.56788245023e-05
1.16618927247e-07
6.56794948237e-05
7.05081425831e-08
6.56791185004e-05
4.05502602504e-08
6.56782509945e-05
2.15776827206e-08
6.56772199839e-05
9.94791581235e-09
6.56762106588e-05
3.13410982474e-09
6.56753013162e-05
-6.09323909492e-10
6.56745325641e-05
-2.45878152828e-09
6.56739041363e-05
-3.1645838827e-09
6.5673405146e-05
-3.22725266995e-09
6.56730181249e-05
-2.95754184645e-09
6.56727240924e-05
-2.54351778805e-09
6.56725048975e-05
-2.09412813115e-09
6.56723444434e-05
-1.66799378717e-09
6.5672229068e-05
-1.29287605546e-09
6.56721466437e-05
-9.78377006627e-10
6.56720865515e-05
-7.23403407941e-10
6.56720430065e-05
-5.20430419037e-10
6.56720117545e-05
-3.61417342355e-10
6.56719866346e-05
-2.37186927675e-10
6.56719649563e-05
-1.43891977966e-10
6.5671949847e-05
-7.53708124613e-11
6.56719479182e-05
-2.72522441279e-11
6.56719461615e-05
8.58578209061e-12
6.5671938541e-05
4.53345623242e-11
6.56719281301e-05
7.04395308149e-11
6.5671915316e-05
9.07422633425e-11
6.56719009471e-05
1.08641937692e-10
6.56718850111e-05
1.25257303311e-10
6.56718673225e-05
1.41161358681e-10
6.56718477858e-05
1.56490103676e-10
6.56718270904e-05
1.70458957753e-10
6.56718070374e-05
1.81666664525e-10
6.56717864854e-05
1.9236232844e-10
6.56717660264e-05
1.99529607216e-10
6.56717467519e-05
2.00766134684e-10
6.56717304299e-05
1.92828071191e-10
6.56717204156e-05
1.71088959487e-10
6.56717238706e-05
1.29342594277e-10
6.56717327986e-05
6.40118603294e-11
6.56717523031e-05
-5.55122744235e-11
6.56718187529e-05
-3.10313467741e-10
6.56719094703e-05
-6.82322145262e-10
6.56720508709e-05
-1.24735465161e-09
6.56722491388e-05
-2.10251838244e-09
6.56725200978e-05
-3.36778297573e-09
6.56728798064e-05
-5.24961609012e-09
6.56733383585e-05
-8.06680938518e-09
6.56738922494e-05
-1.23059219672e-08
6.56745102411e-05
-1.87192720508e-08
6.56751045697e-05
-2.84718607925e-08
6.5675471341e-05
-4.33726389585e-08
6.5675179767e-05
-6.6252651194e-08
6.56733581054e-05
-1.0155157805e-07
6.56682632042e-05
-1.56200615232e-07
6.56563490118e-05
-2.40866114924e-07
6.563046929e-05
-3.71806955745e-07
6.55764418982e-05
-5.72993969171e-07
6.54669754918e-05
-8.77671440573e-07
6.52527896448e-05
-1.32648434905e-06
6.48536199075e-05
-1.95689560981e-06
6.41565938511e-05
-2.78116153581e-06
-3.72938996073e-06
6.30708241672e-05
5.1085042187e-05
1.66764047816e-06
5.3611844091e-05
4.45458316409e-06
5.66873157808e-05
6.05635093463e-06
5.96894455941e-05
6.52316762587e-06
6.22997260353e-05
6.19218910474e-06
6.44136874452e-05
5.4180178129e-06
6.60471834335e-05
4.47638102477e-06
6.72686148129e-05
3.54401900425e-06
6.81598936706e-05
2.71437419029e-06
6.87977600866e-05
2.02382774074e-06
6.92467442937e-05
1.47505539442e-06
6.95579629886e-05
1.05370268341e-06
6.97704295713e-05
7.38831298257e-07
6.99131725969e-05
5.08761060875e-07
7.00073837277e-05
3.43918339472e-07
7.00682933672e-05
2.2791737261e-07
7.01066955081e-05
1.4769192063e-07
7.01301379387e-05
9.31763264841e-08
7.01438271938e-05
5.681870674e-08
7.01513034271e-05
3.30738450059e-08
7.01549360435e-05
1.79448971801e-08
7.01562839754e-05
8.59983875073e-09
7.01563560256e-05
3.06194051808e-09
7.01557641513e-05
-1.75516911289e-11
7.01549034311e-05
-1.59816336581e-09
7.01539799506e-05
-2.24122184879e-09
7.01531114082e-05
-2.35885928518e-09
7.01523514639e-05
-2.19777483415e-09
7.0151717337e-05
-1.9095806334e-09
7.01512061847e-05
-1.58316986424e-09
7.01508050952e-05
-1.26707905823e-09
7.01504971283e-05
-9.85047936773e-10
7.01502646513e-05
-7.45997082279e-10
7.01500914959e-05
-5.50303619268e-10
7.0149964651e-05
-3.93618574309e-10
7.01498734429e-05
-2.70246058033e-10
7.01498107461e-05
-1.74563271187e-10
7.01497690876e-05
-1.02360851434e-10
7.01497403683e-05
-4.68307250863e-11
7.01497101454e-05
2.75487103704e-12
7.01496865513e-05
3.19527040594e-11
7.0149673367e-05
5.8304491212e-11
7.01496626695e-05
8.09564642149e-11
7.01496525731e-05
1.00700429416e-10
7.0149642323e-05
1.18791804083e-10
7.01496315219e-05
1.3598134799e-10
7.01496200068e-05
1.52599451626e-10
7.0149607786e-05
1.68613548769e-10
7.01495944567e-05
1.8366270492e-10
7.01495788308e-05
1.97144025826e-10
7.0149562873e-05
2.08163663702e-10
7.01495473072e-05
2.14946534393e-10
7.01495328865e-05
2.15045687965e-10
7.0149520285e-05
2.05306341056e-10
7.01495093371e-05
1.81909397992e-10
7.01494978309e-05
1.4072079817e-10
7.01494825258e-05
7.91539221627e-11
7.01494773973e-05
-5.05480194264e-11
7.01494782044e-05
-3.11298342109e-10
7.01494937636e-05
-6.98047111331e-10
7.01495092371e-05
-1.26297288941e-09
7.01495015715e-05
-2.09496430324e-09
7.01494431099e-05
-3.30939038497e-09
7.01492798599e-05
-5.08640093892e-09
7.01489117988e-05
-7.69876141124e-09
7.01481621374e-05
-1.1556277113e-08
7.01467280961e-05
-1.72852673204e-08
7.0144094573e-05
-2.58384019131e-08
7.01393820918e-05
-3.86602380454e-08
7.01311033973e-05
-5.7974036314e-08
7.01167649628e-05
-8.72131726749e-08
7.00921920316e-05
-1.31627680804e-07
7.00502702264e-05
-1.98944276383e-07
6.99789892074e-05
-3.00525921079e-07
6.98583227819e-05
-4.52327501434e-07
6.96557253556e-05
-6.75073935534e-07
6.93211141024e-05
-9.91872970359e-07
6.87846588337e-05
-1.42044023235e-06
6.79633232613e-05
-1.95982579301e-06
-2.56442283249e-06
6.67983562167e-05
5.08804130281e-05
7.87227269652e-07
5.31704657355e-05
2.16453015818e-06
5.62177490695e-05
3.00906736871e-06
5.94382688732e-05
3.30264761823e-06
6.2444968511e-05
3.18548928878e-06
6.50382517546e-05
2.82473439964e-06
6.71548651403e-05
2.3597674595e-06
6.88135634319e-05
1.88532051468e-06
7.00731692091e-05
1.45476819503e-06
7.10056659325e-05
1.0913307843e-06
7.16812619826e-05
7.99459109504e-07
7.21614211104e-05
5.73543333946e-07
7.24966018319e-05
4.03650375123e-07
7.2726478205e-05
2.78884506885e-07
7.28812769426e-05
1.89119434417e-07
7.2983466548e-05
1.25727601478e-07
7.3049410185e-05
8.17481107256e-08
7.30908121478e-05
5.17741801154e-08
7.31159059503e-05
3.17247156997e-08
7.3130390336e-05
1.85892785352e-08
7.31381449409e-05
1.01901328124e-08
7.31417652883e-05
4.97936099731e-09
7.3142952926e-05
1.87419917496e-09
7.31428064777e-05
1.28806007569e-10
7.31419831805e-05
-7.74964697507e-10
7.31409001836e-05
-1.15834793139e-09
7.31397851928e-05
-1.24402511473e-09
7.31387576184e-05
-1.17038686168e-09
7.31378699291e-05
-1.02209763021e-09
7.31371360574e-05
-8.49498098905e-10
7.31365486328e-05
-6.79831039846e-10
7.3136090282e-05
-5.26829937885e-10
7.31357401411e-05
-3.95937849655e-10
7.31354775742e-05
-2.87775129821e-10
7.31352842203e-05
-2.00281454573e-10
7.31351444203e-05
-1.30477843942e-10
7.3135044891e-05
-7.51114127104e-11
7.3134973078e-05
-3.0684689989e-11
7.31349197459e-05
6.30979226956e-12
7.31348897518e-05
3.25235109467e-11
7.31348663423e-05
5.51288366265e-11
7.31348492707e-05
7.51615311175e-11
7.31348366636e-05
9.33885411688e-11
7.3134826721e-05
1.10515892945e-10
7.31348181637e-05
1.27263356308e-10
7.31348100834e-05
1.4399617736e-10
7.31348018322e-05
1.6077954953e-10
7.31347929524e-05
1.77394551332e-10
7.31347831761e-05
1.93305339366e-10
7.31347724589e-05
2.07703470675e-10
7.31347608606e-05
2.19602234308e-10
7.31347484356e-05
2.27219896761e-10
7.3134735263e-05
2.28085974964e-10
7.31347214649e-05
2.1898132303e-10
7.31347073577e-05
1.95918126048e-10
7.31346935541e-05
1.54403122208e-10
7.31346807379e-05
9.18211694242e-11
7.31346539412e-05
-2.39405380817e-11
7.31346093044e-05
-2.66838807057e-10
7.31345387236e-05
-6.27614291481e-10
7.31344190239e-05
-1.14339481947e-09
7.31342066364e-05
-1.88268123884e-09
7.31338327825e-05
-2.93561242009e-09
7.31331816925e-05
-4.43536110783e-09
7.31320591357e-05
-6.57623667824e-09
7.31301411193e-05
-9.63828740319e-09
7.31269001218e-05
-1.40442896682e-08
7.31214758834e-05
-2.04142061759e-08
7.31124480795e-05
-2.96325115748e-08
7.30975044761e-05
-4.30305015854e-08
7.30729321279e-05
-6.2640890214e-08
7.30328034391e-05
-9.14990191429e-08
7.29675683248e-05
-1.33709175867e-07
7.28621546322e-05
-1.95112216483e-07
7.26933070297e-05
-2.83479853362e-07
7.24263815612e-05
-4.08148420151e-07
7.20127889478e-05
-5.78280211481e-07
7.1390978749e-05
-7.98629996769e-07
7.04948755837e-05
-1.06372241424e-06
-1.34867457649e-06
6.92791273823e-05
5.07871724441e-05
5.46550963622e-11
5.29516494339e-05
5.2881967262e-11
5.59606878304e-05
2.87437050565e-11
5.92633210811e-05
1.41606047498e-11
6.24488074306e-05
2.74923896171e-12
6.52735477353e-05
-6.09221223226e-12
6.76333269989e-05
-1.19997037509e-11
6.9518662275e-05
-1.49693724164e-11
7.09734456872e-05
-1.54379174089e-11
7.20647902376e-05
-1.39919289736e-11
7.28642603791e-05
-1.12523482243e-11
7.34378113722e-05
-7.86475476173e-12
7.38414660455e-05
-4.48647552251e-12
7.41203521441e-05
-1.76670365931e-12
7.43094717084e-05
-2.99385775972e-13
7.44351996358e-05
-5.01311986077e-13
7.45169501901e-05
-2.63049668036e-12
7.45687306226e-05
-6.44750230234e-12
7.46004664569e-05
-1.13111426838e-11
7.46190717915e-05
-1.62324512995e-11
7.46292818486e-05
-2.00731401404e-11
7.46342828234e-05
-2.17299592767e-11
7.46361776669e-05
-2.07336184377e-11
7.46363247555e-05
-1.83647774463e-11
7.46355654973e-05
-1.58026961952e-11
7.46344196439e-05
-1.26221571726e-11
7.46331844545e-05
-9.00372999587e-12
7.46320188827e-05
-5.01462326725e-12
7.46309967488e-05
-1.76723702741e-13
7.46301431666e-05
3.88256913056e-12
7.4629454625e-05
8.5437237375e-12
7.46289141485e-05
1.35277277519e-11
7.4628499341e-05
1.88040228911e-11
7.46281871025e-05
2.44365298558e-11
7.46279562008e-05
3.06049264492e-11
7.46277882585e-05
3.74247927538e-11
7.46276680863e-05
4.4969681194e-11
7.46275840307e-05
5.32198369039e-11
7.46275279303e-05
6.22083117195e-11
7.46274886461e-05
7.1574672162e-11
7.46274622415e-05
8.12980490072e-11
7.46274448873e-05
9.23034209635e-11
7.4627433608e-05
1.04498747665e-10
7.46274261756e-05
1.17828429431e-10
7.4627421043e-05
1.32317341626e-10
7.46274171174e-05
1.47862720969e-10
7.46274136195e-05
1.6420977099e-10
7.46274099854e-05
1.80931575032e-10
7.46274057784e-05
1.97380357579e-10
7.46274006613e-05
2.12669277168e-10
7.46273944658e-05
2.2564561852e-10
7.46273869721e-05
2.34568393141e-10
7.46273778035e-05
2.37115406314e-10
7.46273663198e-05
2.30350075532e-10
7.46273513825e-05
2.10730810954e-10
7.46273312753e-05
1.74378672003e-10
7.46273047999e-05
1.18143060665e-10
7.46272608446e-05
1.98594065253e-11
7.46271700446e-05
-1.76195720869e-10
7.46270325913e-05
-4.90307048361e-10
7.46268074108e-05
-9.18341662341e-10
7.46264336738e-05
-1.50903959834e-09
7.46258144677e-05
-2.31647785445e-09
7.4624792263e-05
-3.41321203911e-09
7.46231107498e-05
-4.89477419019e-09
7.46203506638e-05
-6.87824394354e-09
7.46158477179e-05
-9.54139364229e-09
7.46085370535e-05
-1.31035981699e-08
7.45966719218e-05
-1.77674301601e-08
7.45774435079e-05
-2.38021328577e-08
7.45464429495e-05
-3.16404084376e-08
7.44968915193e-05
-4.19476034497e-08
7.44180157638e-05
-5.48334292502e-08
7.42933602489e-05
-7.04566700235e-08
7.40984508095e-05
-8.8570370326e-08
7.37983174785e-05
-1.08015098687e-07
7.33460596184e-05
-1.26022202516e-07
7.26848411073e-05
-1.3741149384e-07
7.17561057745e-05
-1.34986867521e-07
-1.10226593427e-07
7.05176578765e-05
5.07871714158e-05
-7.8711692326e-07