/*--------------------------------*- C++ -*----------------------------------*\
| =========                 |                                                 |
| \\      /  F ield         | OpenFOAM: The Open Source CFD Toolbox           |
|  \\    /   O peration     | Version:  v1706                                 |
|   \\  /    A nd           | Web:      www.OpenFOAM.com                      |
|    \\/     M anipulation  |                                                 |
\*---------------------------------------------------------------------------*/
FoamFile
{
    version     2.0;
    format      ascii;
    class       surfaceScalarField;
    location    "0.0904";
    object      phi;
}
// * * * * * * * * * * * * * * * * * * * * * * * * * * * * * * * * * * * * * //

dimensions      [0 3 -1 0 0 0 0];
oriented        oriented;


internalField   nonuniform List<scalar> 
799
(
1.24885e-33
1.76343e-33
2.21952e-33
3.11478e-33
3.02144e-33
3.8132e-33
4.00377e-33
4.19237e-33
4.76323e-33
4.67469e-33
5.09394e-33
5.22239e-33
5.27995e-33
5.58165e-33
5.53749e-33
5.7177e-33
5.79227e-33
5.78719e-33
5.90418e-33
5.86506e-33
5.9102e-33
5.92205e-33
5.88274e-33
5.88764e-33
5.82763e-33
5.78099e-33
5.72061e-33
5.63457e-33
5.5551e-33
5.46196e-33
5.36853e-33
5.27373e-33
5.17443e-33
5.0787e-33
4.98485e-33
4.89307e-33
4.80279e-33
4.72003e-33
4.6416e-33
4.57051e-33
4.50873e-33
4.45172e-33
4.40214e-33
4.36504e-33
4.33225e-33
4.30664e-33
4.28612e-33
4.2741e-33
4.26714e-33
4.26451e-33
4.26563e-33
4.27165e-33
4.28068e-33
4.29422e-33
4.31378e-33
4.34463e-33
4.37547e-33
4.41158e-33
4.44995e-33
4.48192e-33
4.5171e-33
4.55156e-33
4.58837e-33
4.62305e-33
4.65574e-33
4.68478e-33
4.70668e-33
4.73147e-33
4.75832e-33
4.79194e-33
4.83415e-33
4.88272e-33
4.93913e-33
4.99982e-33
5.06431e-33
5.13606e-33
5.21393e-33
5.29781e-33
5.38282e-33
5.46182e-33
5.53987e-33
5.6198e-33
5.69955e-33
5.78381e-33
5.85904e-33
5.9369e-33
6.0112e-33
6.08718e-33
6.1612e-33
6.234e-33
6.30536e-33
6.37945e-33
6.4497e-33
6.5254e-33
6.60383e-33
6.6911e-33
6.77837e-33
6.85962e-33
6.93466e-33
6.99325e-33
7.04286e-33
7.08308e-33
7.11331e-33
7.13332e-33
7.14598e-33
7.15234e-33
7.15184e-33
7.14963e-33
7.14623e-33
7.14026e-33
7.13521e-33
7.12542e-33
7.11936e-33
7.11052e-33
7.10638e-33
7.10095e-33
7.09359e-33
7.08588e-33
7.08165e-33
7.0808e-33
7.0828e-33
7.09453e-33
7.10931e-33
7.1294e-33
7.15026e-33
7.17129e-33
7.19214e-33
7.21368e-33
7.23766e-33
7.26662e-33
7.29662e-33
7.33264e-33
7.37721e-33
7.42311e-33
7.47201e-33
7.51705e-33
7.56529e-33
7.61269e-33
7.66309e-33
7.71124e-33
7.76447e-33
7.82033e-33
7.88051e-33
7.94206e-33
8.00253e-33
8.0626e-33
8.12081e-33
8.17575e-33
8.23034e-33
8.28441e-33
8.33115e-33
8.37629e-33
8.42046e-33
8.46055e-33
8.50268e-33
8.54048e-33
8.57688e-33
8.61593e-33
8.64929e-33
8.68041e-33
8.71032e-33
8.74079e-33
8.769e-33
8.79834e-33
8.8258e-33
8.85063e-33
8.87056e-33
8.89263e-33
8.90893e-33
8.92398e-33
8.93366e-33
8.94213e-33
8.94824e-33
8.95181e-33
8.9512e-33
8.94956e-33
8.94278e-33
8.9315e-33
8.91044e-33
8.88161e-33
8.84122e-33
8.79307e-33
8.73925e-33
8.67421e-33
8.60199e-33
8.53541e-33
8.46488e-33
8.39674e-33
8.33216e-33
8.26702e-33
8.212e-33
8.15774e-33
8.10922e-33
8.06521e-33
8.02309e-33
7.98584e-33
7.958e-33
7.9296e-33
7.90092e-33
7.87414e-33
7.84366e-33
7.81591e-33
7.78846e-33
7.77311e-33
7.76443e-33
7.76942e-33
7.78796e-33
7.82087e-33
7.87062e-33
7.93477e-33
8.00775e-33
8.08439e-33
8.17317e-33
8.27473e-33
8.3793e-33
8.48669e-33
8.60006e-33
8.70957e-33
8.81263e-33
8.90592e-33
8.99216e-33
9.06917e-33
9.14892e-33
9.23073e-33
9.3118e-33
9.39093e-33
9.47119e-33
9.55498e-33
9.63642e-33
9.71842e-33
9.79215e-33
9.86287e-33
9.92832e-33
9.98343e-33
1.00314e-32
1.00662e-32
1.00956e-32
1.01143e-32
1.01213e-32
1.01193e-32
1.00996e-32
1.00683e-32
1.00219e-32
9.97362e-33
9.91617e-33
9.85405e-33
9.7827e-33
9.70485e-33
9.6167e-33
9.51589e-33
9.40287e-33
9.27634e-33
9.1384e-33
8.98968e-33
8.83033e-33
8.66415e-33
8.49234e-33
8.31775e-33
8.14157e-33
7.96854e-33
7.78431e-33
7.6014e-33
7.43138e-33
7.26286e-33
7.09886e-33
6.96043e-33
6.83555e-33
6.71367e-33
6.59763e-33
6.49005e-33
6.38773e-33
6.29087e-33
6.19476e-33
6.10213e-33
6.01477e-33
5.93032e-33
5.85001e-33
5.76876e-33
5.68149e-33
5.58576e-33
5.49605e-33
5.40544e-33
5.31822e-33
5.23443e-33
5.15412e-33
5.08152e-33
5.00803e-33
4.93463e-33
4.86673e-33
4.7979e-33
4.73292e-33
4.66436e-33
4.59941e-33
4.53562e-33
4.47088e-33
4.40686e-33
4.34296e-33
4.27941e-33
4.22463e-33
4.17159e-33
4.12119e-33
4.06928e-33
4.02038e-33
3.97524e-33
3.9301e-33
3.88797e-33
3.85637e-33
3.8308e-33
3.81283e-33
3.80306e-33
3.80268e-33
3.80823e-33
3.82327e-33
3.84321e-33
3.86089e-33
3.88997e-33
3.92095e-33
3.96315e-33
4.00872e-33
4.06909e-33
4.12554e-33
4.20889e-33
4.28136e-33
4.37814e-33
4.45594e-33
4.55726e-33
4.63762e-33
4.74143e-33
4.81896e-33
4.91338e-33
4.98184e-33
5.05575e-33
5.10672e-33
5.14603e-33
5.24214e-33
5.0676e-33
5.87559e-33
3.67582e-33
9.21738e-33
-2.17739e-33
1.63343e-32
-4.37999e-33
-4.44732e-33
7.02724e-32
-1.63369e-31
3.23958e-31
-3.9838e-31
2.71342e-31
4.19317e-31
-1.88232e-30
3.88744e-30
-5.67223e-30
4.9082e-30
1.01853e-30
-1.351e-29
3.19319e-29
-4.60215e-29
4.24364e-29
-3.95877e-30
-8.03085e-29
1.84944e-28
-2.66248e-28
2.37377e-28
-1.90612e-29
-3.72471e-28
8.5426e-28
-1.13819e-27
9.1222e-28
-1.63148e-29
-1.53368e-27
3.06221e-27
-3.71897e-27
2.66717e-27
5.96659e-28
-4.98431e-27
8.81646e-27
-9.62395e-27
5.34866e-27
3.11199e-27
-1.34535e-26
2.04359e-26
-1.89328e-26
7.97097e-27
1.08526e-26
-2.90662e-26
3.72787e-26
-3.00709e-26
5.71685e-27
2.53607e-26
-4.99042e-26
5.58164e-26
-3.51218e-26
-3.10087e-27
4.44996e-26
-7.02061e-26
6.46624e-26
-3.15728e-26
-1.79829e-26
6.13596e-26
-7.71868e-26
6.13595e-26
-1.79826e-26
-3.15731e-26
6.46626e-26
-7.02061e-26
4.44995e-26
-3.10065e-27
-3.5122e-26
5.58164e-26
-4.99042e-26
2.53606e-26
5.71702e-27
-3.0071e-26
3.72787e-26
-2.90662e-26
1.08525e-26
7.97107e-27
-1.89328e-26
2.04359e-26
-1.34535e-26
3.11194e-27
5.3487e-27
-9.62397e-27
8.81645e-27
-4.9843e-27
5.96641e-28
2.66719e-27
-3.71897e-27
3.0622e-27
-1.53368e-27
-1.63208e-29
9.12221e-28
-1.13819e-27
8.54257e-28
-3.72473e-28
-1.90646e-29
2.37375e-28
-2.66251e-28
1.8494e-28
-8.03116e-29
-3.96236e-30
4.24327e-29
-4.60253e-29
3.19277e-29
-1.35143e-29
1.01411e-30
4.90359e-30
-5.67689e-30
3.88258e-30
-1.88723e-30
4.14313e-31
2.66275e-31
-4.03503e-31
3.18796e-31
-1.68568e-31
6.50573e-32
-9.69962e-33
-9.64601e-33
1.10365e-32
-7.47351e-33
3.91186e-33
-1.60996e-33
5.82293e-34
-2.25225e-34
-5.26621e-35
-1.26389e-34
-1.44351e-34
-1.43619e-34
-1.48771e-34
-1.26389e-34
-1.16609e-34
-7.74886e-35
-6.05615e-35
-2.25695e-35
-4.5139e-36
4.07191e-35
6.39469e-35
1.057e-34
1.29398e-34
1.6551e-34
1.85822e-34
2.03125e-34
2.18548e-34
2.29456e-34
2.36604e-34
2.43751e-34
2.41494e-34
2.40553e-34
2.31831e-34
2.24943e-34
2.18172e-34
2.0369e-34
1.89584e-34
1.70987e-34
1.50463e-34
1.22063e-34
8.7927e-35
4.80307e-35
5.85396e-36
-4.04194e-35
-8.48707e-35
-1.34665e-34
-1.84882e-34
-2.37732e-34
-2.99046e-34
-3.50579e-34
-4.10765e-34
-4.61922e-34
-5.11128e-34
-5.522e-34
-5.90945e-34
-6.28184e-34
-6.57525e-34
-6.83103e-34
-6.99372e-34
-7.1155e-34
-7.15829e-34
-7.07177e-34
-6.91379e-34
-6.62791e-34
-6.27432e-34
-5.91133e-34
-5.49567e-34
-5.07061e-34
-4.63427e-34
-4.19981e-34
-3.76158e-34
-3.32947e-34
-2.9566e-34
-2.63499e-34
-2.35851e-34
-2.20852e-34
-2.11888e-34
-2.13905e-34
-2.31286e-34
-2.52071e-34
-2.76334e-34
-3.00368e-34
-3.31188e-34
-3.59404e-34
-3.90432e-34
-4.20167e-34
-4.49884e-34
-4.7806e-34
-5.08689e-34
-5.37013e-34
-5.64242e-34
-5.89797e-34
-6.13327e-34
-6.29013e-34
-6.48178e-34
-6.68692e-34
-6.89639e-34
-7.0887e-34
-7.33508e-34
-7.6172e-34
-7.91437e-34
-8.26043e-34
-8.71182e-34
-9.25349e-34
-9.82525e-34
-1.0555e-33
-1.12622e-33
-1.19788e-33
-1.26483e-33
-1.33292e-33
-1.39931e-33
-1.46263e-33
-1.53096e-33
-1.59435e-33
-1.65265e-33
-1.70851e-33
-1.76163e-33
-1.81007e-33
-1.84901e-33
-1.8853e-33
-1.91338e-33
-1.92453e-33
-1.92561e-33
-1.91487e-33
-1.89287e-33
-1.86131e-33
-1.82138e-33
-1.77356e-33
-1.71653e-33
-1.65726e-33
-1.5864e-33
-1.51205e-33
-1.43334e-33
-1.35241e-33
-1.27052e-33
-1.17841e-33
-1.08545e-33
-9.87227e-34
-8.83596e-34
-7.794e-34
-6.81599e-34
-5.79284e-34
-4.78473e-34
-3.84246e-34
-2.97917e-34
-2.272e-34
-1.625e-34
-1.09838e-34
-6.77085e-35
-3.75688e-35
-1.73033e-35
-5.33674e-36
3.93791e-36
1.37503e-35
1.83436e-35
2.1394e-35
2.33218e-35
2.09708e-35
2.71774e-35
3.00927e-35
5.04052e-35
8.35071e-35
1.21875e-34
1.71528e-34
2.25225e-34
2.85598e-34
3.56034e-34
4.3183e-34
5.20603e-34
6.12386e-34
7.11691e-34
8.09492e-34
9.01463e-34
9.85534e-34
1.0713e-33
1.15391e-33
1.24283e-33
1.32107e-33
1.40081e-33
1.46401e-33
1.51507e-33
1.55889e-33
1.59225e-33
1.61285e-33
1.63036e-33
1.63949e-33
1.64155e-33
1.63798e-33
1.63704e-33
1.62839e-33
1.6235e-33
1.62199e-33
1.62519e-33
1.63102e-33
1.63403e-33
1.63807e-33
1.6393e-33
1.64202e-33
1.64239e-33
1.64868e-33
1.65136e-33
1.6538e-33
1.65597e-33
1.65792e-33
1.6629e-33
1.66412e-33
1.66412e-33
1.66563e-33
1.66262e-33
1.66638e-33
1.67231e-33
1.68002e-33
1.69331e-33
1.71206e-33
1.7355e-33
1.76973e-33
1.81308e-33
1.85672e-33
1.90411e-33
1.94944e-33
1.99665e-33
2.04329e-33
2.08946e-33
2.13037e-33
2.15604e-33
2.17329e-33
2.17481e-33
2.16942e-33
2.1589e-33
2.14039e-33
2.11457e-33
2.08241e-33
2.04329e-33
1.99364e-33
1.94323e-33
1.88436e-33
1.82869e-33
1.77998e-33
1.73805e-33
1.69948e-33
1.66789e-33
1.64607e-33
1.62952e-33
1.62801e-33
1.6329e-33
1.6456e-33
1.66062e-33
1.67101e-33
1.68939e-33
1.70212e-33
1.71321e-33
1.71938e-33
1.71296e-33
1.69843e-33
1.67613e-33
1.64081e-33
1.60887e-33
1.56731e-33
1.52478e-33
1.48032e-33
1.43441e-33
1.39256e-33
1.34572e-33
1.30756e-33
1.27162e-33
1.23836e-33
1.21016e-33
1.18499e-33
1.1659e-33
1.15424e-33
1.14653e-33
1.14202e-33
1.15857e-33
1.17361e-33
1.20521e-33
1.23831e-33
1.27442e-33
1.31204e-33
1.34063e-33
1.36197e-33
1.36931e-33
1.36752e-33
1.34846e-33
1.32511e-33
1.29512e-33
1.26286e-33
1.22439e-33
1.18076e-33
1.13148e-33
1.07562e-33
1.0177e-33
9.56946e-34
8.85476e-34
8.17768e-34
7.47802e-34
6.79812e-34
6.10881e-34
5.3659e-34
4.65872e-34
3.97975e-34
3.31019e-34
2.77605e-34
2.23438e-34
1.76042e-34
1.40119e-34
1.01751e-34
7.79588e-35
5.9433e-35
4.53271e-35
5.4637e-35
5.56714e-35
8.72687e-35
1.0434e-34
1.38426e-34
2.21181e-34
2.34911e-34
3.53213e-34
4.07003e-34
4.45277e-34
6.43983e-34
5.71008e-34
8.16263e-34
8.83219e-34
8.48519e-34
1.31655e-33
1.00914e-33
1.46401e-33
1.59942e-33
1.25938e-33
2.24642e-33
1.43993e-33
2.11025e-33
2.49209e-33
1.4437e-33
3.36549e-33
1.80951e-33
2.73768e-33
3.5293e-33
1.65359e-33
4.40782e-33
2.30284e-33
2.8242e-33
3.12776e-33
)
;

boundaryField
{
    left
    {
        type            calculated;
        value           uniform 0;
    }
    right
    {
        type            calculated;
        value           uniform 0;
    }
    empty
    {
        type            empty;
        value           nonuniform 0();
    }
}


// ************************************************************************* //
