/*--------------------------------*- C++ -*----------------------------------*\
| =========                 |                                                 |
| \\      /  F ield         | OpenFOAM: The Open Source CFD Toolbox           |
|  \\    /   O peration     | Version:  2106                                  |
|   \\  /    A nd           | Website:  www.openfoam.com                      |
|    \\/     M anipulation  |                                                 |
\*---------------------------------------------------------------------------*/
FoamFile
{
    version     2.0;
    format      ascii;
    arch        "LSB;label=32;scalar=64";
    class       volScalarField;
    location    "0.275";
    object      p;
}
// * * * * * * * * * * * * * * * * * * * * * * * * * * * * * * * * * * * * * //

dimensions      [0 2 -2 0 0 0 0];

internalField   nonuniform List<scalar> 
11200
(
150.197621308
147.26901988
146.155170191
145.627840846
145.26051388
144.96573908
144.704099766
144.455566739
144.211054682
143.965993952
143.717687378
143.464380178
143.204840331
142.938132219
142.663488977
142.380237205
142.087751094
141.785424667
141.47265907
141.148866246
140.813422293
140.465678209
140.104975692
139.730646878
139.342006165
138.938352209
138.518968766
138.083125377
137.630078125
137.15907025
136.66933269
136.160084629
135.630533579
135.079875635
134.50729613
133.911970834
133.293065817
132.649737609
131.981133597
131.286392469
130.56464456
129.815012056
129.036609175
128.228542184
127.389909382
126.519800928
125.617298368
124.681473907
123.711389276
122.706094154
121.664624022
120.585997372
119.469211912
118.313239773
117.117021358
115.879457527
114.599399618
113.275636945
111.906881074
110.491745984
109.028723019
107.516149266
105.952167344
104.33467665
102.661267266
100.929134028
99.1349665299
97.2748048661
95.3438450142
93.336172322
91.2443976834
89.0591615557
86.7682658034
84.3555242223
81.7988511551
79.0665870898
76.111133423
72.8599163207
69.1592186673
64.3960037409
148.404579201
147.046405433
146.255435144
145.755422707
145.364437208
145.040558229
144.756041481
144.491444503
144.235962757
143.983447822
143.730072367
143.473322706
143.211461778
142.943213096
142.667576222
142.383716352
142.090896099
141.788432637
141.475667492
141.15193871
140.816596182
140.468964393
140.108399657
139.734233813
139.345770826
138.942303623
138.523113122
138.087467046
137.634620194
137.163814826
136.674280882
136.165235968
135.635885724
135.085429913
134.513055835
133.917939278
133.29924602
132.656132537
131.987746244
131.293225919
130.571702035
129.822296986
129.044125298
128.236293688
127.397901029
126.528038197
125.62578768
124.690222906
123.72040715
122.71539202
121.67421537
120.595898627
119.479443171
118.323825716
117.127992372
115.890851062
114.611261884
113.288025027
111.919865528
110.505414252
109.043184053
107.531539654
105.968657348
104.352474213
102.680622697
100.950362103
99.1584769445
97.3011299203
95.3736817759
93.3704479697
91.2843597734
89.1064609321
86.825203851
84.4254528915
81.8868129608
79.1807759288
76.2665440219
73.0862831144
69.5372027646
65.4244395582
147.409388844
146.755188795
146.202834277
145.765218438
145.393597395
145.07149925
144.782403833
144.512175269
144.251718526
143.995244726
143.738868846
143.479909107
143.216453439
142.947074857
142.670652292
142.386257129
142.093079739
141.790381506
141.477464116
141.153650674
140.818279134
140.470709928
140.110199029
139.736092764
139.347699009
138.944308129
138.525198745
138.089637504
137.636878906
137.166165437
136.676727911
136.16778617
135.638549263
135.088209772
134.515949906
133.920947875
133.302370592
132.659375029
131.991109444
131.296713473
130.575318446
129.826047673
129.048016767
128.240333744
127.402099072
126.532405548
125.630337984
124.694972647
123.725376303
122.720604852
121.679701449
120.601693977
119.485591719
118.330381069
117.135019952
115.898430731
114.61949122
113.297023464
111.929779448
110.516423226
109.05550776
107.545446197
105.98447464
104.370624143
102.701657511
100.97498118
99.1875535555
97.335776103
95.4153347823
93.4209912467
91.3462961582
89.1831868757
86.9215685616
84.5485255338
82.0473370654
79.3961433088
76.5669706703
73.5282036147
70.2438643178
66.6909302548
146.859627609
146.496246654
146.096349821
145.727361207
145.389747038
145.081647777
144.796288351
144.5255891
144.263222626
144.004561962
143.746189029
143.485572222
143.220811686
142.950440138
142.673281511
142.388353287
142.09479914
141.791842848
141.478757264
141.15484247
140.819407547
140.471762339
140.111265628
139.737194239
139.348837418
138.945487412
138.526422601
138.090908402
137.638198196
137.167533442
136.678143794
136.169247281
135.640051215
135.089753894
134.5175452
133.922599598
133.304085005
132.66115912
131.992969212
131.29865537
130.577349743
129.828176667
129.050253173
128.242689125
127.404587333
126.535043515
125.633146072
124.69797563
123.728604303
122.724094475
121.683497143
120.60584974
119.490173256
118.335468428
117.140710815
115.904844634
114.626774799
113.305356595
111.939382935
110.527568185
109.068530795
107.560773386
106.002634761
104.392255888
102.727535213
101.006074142
99.2250975587
97.3813534987
95.4709889621
93.4893942207
91.4310125492
89.2891147774
87.0554693365
84.7200344517
82.2707215212
79.6934326822
76.9734223399
74.1009836263
71.0797144424
67.9467933226
146.525579682
146.293784596
145.992373391
145.681398101
145.376561027
145.084540684
144.80556888
144.536447397
144.273492592
144.013414347
143.753452215
143.491368726
143.225371343
142.954010976
142.676090937
142.390594253
142.096628286
141.793383807
141.480105486
141.156070742
140.820574711
140.472921074
140.112413476
139.738341291
139.35000733
138.946695232
138.527678163
138.092219122
137.639570141
137.168972105
136.679654757
136.170836814
135.641726075
135.091519198
134.519402304
133.924551708
133.306132877
132.663303718
131.995214799
131.30100664
130.579813878
129.830763187
129.052974056
128.245559109
127.407624422
126.538269579
125.636587632
124.701664787
123.732579904
122.728403604
121.688197414
120.611011408
119.495881956
118.341828591
117.147849717
115.912916873
114.635967264
113.31589714
111.951548803
110.541702556
109.085055901
107.58019671
106.025588106
104.419535469
102.760145189
101.045275455
99.2724789043
97.4389337336
95.5413605435
93.5759252662
91.5381313848
89.4227145042
87.2235662152
84.9337680718
82.5458996518
80.0529520538
77.4507283549
74.7436704255
71.9531385662
69.1298286029
146.32218726
146.146285608
145.905092107
145.637768185
145.360583766
145.083948653
144.81226283
144.545765818
144.283006035
144.022003412
143.760723031
143.497297806
143.230102267
142.957745574
142.679034832
142.392932319
142.098515989
141.794946451
141.481440958
141.157253741
140.82166142
140.473952119
140.113416424
139.739344563
139.351025919
138.947739711
138.528756477
138.093337172
137.640732319
137.170181528
136.68091354
136.172146252
135.643086914
135.092932325
134.520869232
133.92607497
133.307718057
132.664958218
131.996946713
131.302827871
130.581737185
129.83280207
129.055144114
128.247878496
127.410114708
126.540956887
125.639503734
124.704848358
123.736078117
122.732273986
121.692509291
120.615848897
119.501347222
118.348045822
117.154970168
115.921125904
114.645494848
113.327024236
111.96462323
110.557142829
109.103366847
107.602002619
106.051666714
104.450843141
102.797864936
101.090882322
99.3278245203
97.5063580202
95.6238430801
93.6772940703
91.6633550666
89.5783145947
87.4182064384
85.1790897046
82.8576796561
80.4526249594
77.9669934841
75.412938884
72.8174104254
70.2275051698
146.199070583
146.043463385
145.837162927
145.60060287
145.345130567
145.081854786
144.817246134
144.553742983
144.291616079
144.030037594
143.767673486
143.503047227
143.234729043
142.961410385
142.681919088
142.395207549
142.100330829
141.796423111
141.482676381
141.158322751
140.822620413
140.47484293
140.114271454
139.740188405
139.351874879
138.948605117
138.529646807
138.094258733
137.641689892
137.17117904
136.68195451
136.173234165
135.644225532
135.094126167
134.522124028
133.927397344
133.309115034
132.666437634
131.998517313
131.304497624
130.583513961
129.834697553
129.057174391
128.250064029
127.41248069
126.543533797
125.642328446
124.707965569
123.739541964
122.73615003
121.696877198
120.620805712
119.507011202
118.354561036
117.162511981
115.929906771
114.655769637
113.339105387
111.978888784
110.574059202
109.123515663
107.626098182
106.080577607
104.485641462
102.839878099
101.141758397
99.3896181225
97.5816435886
95.715865229
93.7901687897
91.8023402209
89.7501736772
87.6316900109
85.445557025
83.1918436622
80.8733076734
78.4974991188
76.0800156781
73.6477348854
71.2400137921
146.124991037
145.974981385
145.788227221
145.572124118
145.332421243
145.07960407
144.820971982
144.560239784
144.298880016
144.036966302
143.773757765
143.508130959
143.238845362
142.964679726
142.684490542
142.397227937
142.101930401
141.797710618
141.483739067
141.159228592
140.823421225
140.475577608
140.114968766
139.740869099
139.352554858
138.949295309
138.530355354
138.094991739
137.642452097
137.171974387
136.68278655
136.174106377
135.645141602
135.095090021
134.523139764
133.928469527
133.310249049
132.667639319
131.999793484
131.305858014
130.584974539
129.836276354
129.058890153
128.251938991
127.414541831
126.545813974
125.644867607
124.710812259
123.742755094
122.739801262
121.701054189
120.625614862
119.512581653
118.361049614
117.170109473
115.938846193
114.666337075
113.351648147
111.993831356
110.591918399
109.14491798
107.651810431
106.11154129
104.523013758
102.88508356
101.196555421
99.4561839443
97.6626832622
95.8147520246
93.9111255078
91.9506716378
89.9325605924
87.8565468964
85.7234434497
83.5358639846
81.2993420563
79.023915553
76.7261890069
74.4308442527
72.1698906778
146.082714809
145.933267639
145.756853626
145.553117918
145.32358877
145.077884872
144.823530346
144.564898421
144.304199041
144.042113205
143.778324993
143.511976538
143.241976294
142.967175609
142.686457729
142.398774438
142.103153692
141.798692962
141.484546936
141.159914066
140.824024195
140.476128076
140.115489014
139.741376387
139.353058987
138.949806105
138.530879528
138.095534262
137.643016959
137.172565009
136.683406101
136.174758042
135.645828773
135.095816497
134.523909876
133.929288419
133.311122961
132.668576255
132.000803858
131.306954352
130.586168129
129.837582124
129.060328036
128.25353332
127.416322019
126.547815652
125.647133974
124.713395753
123.745719422
122.743223721
121.705028301
120.630254265
119.518024545
118.36746403
117.177699597
115.947859752
114.677074192
113.364473908
112.00919034
110.610354491
109.167094998
107.67853814
106.143808016
104.562027864
102.932324698
101.253838341
99.5257382829
97.7472532313
95.9177202242
94.0366666285
92.1039379781
90.1199010361
88.0857513253
86.0039810315
83.8790367511
81.7182141516
79.5327649527
77.3391014589
75.1592697014
73.0194511484
146.063438495
145.913561164
145.741599832
145.543666941
145.319109226
145.076994754
144.824865203
144.567362868
144.307043276
144.044890566
143.780809449
143.514084187
143.243705173
142.96856492
142.687562741
142.399652414
142.103856897
141.799265815
141.485025499
141.160326707
140.824392723
140.476468958
140.115814478
139.741695363
139.353379057
138.950132126
138.531215428
138.095883238
137.643381787
137.172948355
136.683810613
136.175186601
135.646284627
135.096303428
134.524432393
133.92985198
133.311734185
132.669243101
132.001535433
131.307761178
130.587065106
129.838586538
129.061460451
128.254818612
127.41779043
126.549503933
125.649086739
124.715667145
123.748375177
122.746343672
121.708709414
120.634614277
119.523206367
118.373641213
117.185082935
115.956705541
114.687694391
113.37724717
112.024576496
110.628913307
109.189505771
107.705627209
106.176581141
104.601709715
102.980407128
101.312139288
99.5964735763
97.8331233726
96.0220139557
94.1633829431
92.2579228908
90.3070027588
88.3129635133
86.279559588
84.2124985377
82.1201258977
80.0141664296
77.910375823
75.8284458182
73.7903037878
146.063441203
145.913577336
145.741626946
145.54370329
145.319154035
145.077047192
144.824924352
144.567427887
144.307113464
144.044965327
143.780888324
143.514166829
143.243791331
142.968654413
142.687655455
142.399748301
142.103955953
141.7993681
141.485131124
141.160435837
140.824505578
140.476585833
140.115935759
139.741821563
139.35351088
138.950270311
138.531360899
138.096037133
137.643545474
137.173123363
136.683998969
136.175390776
135.646507629
135.09654886
134.524704605
133.93015623
133.312076848
132.669631923
132.001980005
131.308273428
130.587659065
129.839279234
129.062272653
128.255775556
127.418922774
126.550848924
125.650689605
124.717582769
123.750670184
122.749098936
121.712023121
120.638605596
119.528019911
118.379452481
117.192104848
115.965196358
114.697967233
113.389681642
112.039633783
110.647154183
109.211608942
107.732416017
106.209054362
104.64107814
103.028137404
101.370004705
99.6666126964
97.9181109673
96.1249455618
94.2879674289
92.4086104595
90.4891663087
88.5327504961
86.5439887006
84.5293964828
82.4978758718
80.4612138921
78.4344297853
76.4354276221
74.4833030167
146.082722984
145.933316554
145.756935592
145.553227712
145.323724044
145.078042951
144.82370842
144.565093991
144.304410023
144.042337852
143.778561921
143.512224702
143.242234937
142.967444194
142.686735926
142.399062094
142.103450821
141.79899975
141.484863716
141.16024133
140.824362607
140.476478512
140.115852608
139.741754686
139.353453992
138.950220011
138.53131506
138.095994718
137.643506339
137.173088183
136.683969037
136.175368028
135.646494672
135.09654902
134.524722028
133.930196026
133.312145312
132.669736778
132.002130643
131.308481239
130.587937888
129.839645923
129.062747727
128.256383917
127.419694669
126.551821096
125.651906693
124.719098962
123.752551225
122.751424598
121.714890207
120.642131558
119.532347214
118.384753913
117.198589936
115.973119187
114.707635926
113.401469974
112.053993101
110.66462812
109.232863199
107.758250669
106.240434285
104.67916588
103.074330829
101.425985556
99.7344192673
98.0002132066
96.2242544082
94.4079197676
92.5531817773
90.6627336301
88.7405500714
86.7918874948
84.8237374601
82.8452537661
80.8681104826
78.9067136751
76.9777818581
75.0987575964
146.12500486
145.975064169
145.788365691
145.572309202
145.332648837
145.07986953
144.82127052
144.560567218
144.299232857
144.03734167
143.774153386
143.508545114
143.239276791
142.965127556
142.684954224
142.397707236
142.102425367
141.798221562
141.484266546
141.159773425
140.823984536
140.476160862
140.115573778
139.741498495
139.353211553
138.9499831
138.531078743
138.095756151
137.643264101
137.172842013
136.683719585
136.175116732
135.646243714
135.096301385
134.524481545
133.929967506
133.311934715
132.669551449
132.001979556
131.308375314
130.587890425
129.839673091
129.06286921
128.256623658
127.420081778
126.552390935
125.65270221
124.720172307
123.753965676
122.75325694
121.71723356
120.645098855
119.536075377
118.389408887
117.204372787
115.980273408
114.716456223
113.412313157
112.067290724
110.680901765
109.252736366
107.782482643
106.269940392
104.715049678
103.117925313
101.478879255
99.798464117
98.0775427391
96.3174372793
94.5199606223
92.6875670075
90.8235180021
88.9321220319
87.0189812667
85.0913148598
83.1582948863
81.2313625723
79.3244650248
77.4537359233
75.6360916171
146.199090431
146.043582173
145.837360964
145.600866649
145.345453887
145.082230804
144.817667992
144.554204749
144.292112866
144.030565414
143.768229206
143.503628486
143.235334107
142.962038053
142.682568606
142.395878599
142.101023483
141.797137788
141.483413837
141.15908408
140.823407118
140.475657057
140.115115638
139.741066056
139.352790067
138.949563008
138.530653591
138.095321829
137.642818298
137.172383757
136.683249
136.174634831
135.645752296
135.095803026
134.523979675
133.929466491
133.311440006
132.669069796
132.001519272
131.307946588
130.587505698
129.839347482
129.06262112
128.25647548
127.420060755
126.552530164
125.653041891
124.720761242
123.754863102
122.754534718
121.718978867
120.647417373
119.539095207
118.39328518
117.209293394
115.986465656
114.724195067
113.42193106
112.079189858
110.695566588
109.270751707
107.804549331
106.296898124
104.747897884
103.157840275
101.527266668
99.8570108508
98.1482552896
96.4026111729
94.6222208954
92.8098827645
90.9691962158
89.1047428215
87.2222964169
85.3290865361
83.4340966592
81.5484063588
79.6855851049
77.8616443013
76.0939950767
146.322213796
146.146444104
145.905354913
145.638116439
145.361008668
145.084440859
144.812813262
144.546366789
144.283651288
144.022687893
143.761442785
143.498049869
143.230884469
142.95855642
142.679873392
142.393798189
142.099409211
141.795867448
141.482390487
141.158232846
140.822671402
140.474994866
140.114496398
139.740467623
139.352196702
138.948964034
138.530041767
138.094692467
137.642168617
137.171712388
136.682555673
136.17392019
135.645017788
135.095050865
134.523212887
133.928688985
133.31065663
132.668286504
132.000743374
131.307187088
130.586773697
129.838656608
129.061988059
128.255920606
127.419608848
126.552211319
125.652892639
124.72082592
123.7551955
122.755200053
121.720056194
120.649002504
119.541304197
118.396258465
117.213200781
115.991512416
114.730629372
113.430052533
112.089359667
110.708220072
109.286411604
107.823841189
106.320570141
104.776844914
103.193132317
101.570160951
99.9089739352
98.2109928252
96.4780922136
94.7126852732
92.9178272378
91.097334665
89.2559315897
87.3994081677
85.5348254847
83.6707766791
81.8177758612
79.9889032446
78.2001898028
76.470310744
146.525613556
146.293987635
145.992707435
145.681837806
145.377094321
145.085155316
144.806253382
144.537192332
144.274290401
144.01425899
143.754339018
143.492294223
143.226333048
142.955007241
142.677120832
142.391657496
142.09772514
141.794514927
141.481271711
141.157273098
140.82181471
140.474199825
140.113733008
139.739714997
139.351439191
138.948191048
138.529246161
138.09386958
137.641315584
137.170827668
136.681638703
136.172971238
135.644037868
135.094041725
134.522177039
133.927629841
133.309578625
132.667195152
131.999645376
131.306090452
130.585688001
129.837593474
129.060961693
128.254948421
127.41871216
126.551416172
125.65223077
124.720335949
123.754924359
122.755204706
121.720405776
120.649780867
119.542612955
118.398220648
117.215965275
115.995259128
114.735574558
113.436456588
112.09753613
110.718545759
109.299338703
107.839911315
106.340429666
104.801261356
103.223013027
101.606574496
99.9531691035
98.2644132575
96.5423856474
94.7897039152
93.0096100643
91.2060611351
89.3838317436
87.5486184774
85.7071723689
83.8674871125
82.0391836047
80.2344154644
78.4686977184
76.7618855715
146.859668808
146.496497896
146.096757611
145.727892747
145.390386313
145.08237911
144.797097787
144.526465515
144.264157246
144.005547884
143.747220981
143.486646341
143.221925296
142.951591618
142.674470229
142.389579629
142.096064541
141.793149752
141.480108638
141.156242156
140.820864602
140.473292401
140.112841511
139.738819244
139.350525413
138.947249752
138.528270961
138.092856378
137.640261829
137.169731859
136.680500144
136.171789878
135.642814166
135.092776547
134.520871688
133.926286242
133.308199646
132.665784639
131.998208338
131.304633506
130.584219816
129.836124295
129.059503907
128.253517059
127.417325411
126.550096019
125.651003819
124.719234449
123.753987532
122.754480197
121.71995103
120.649665294
119.542920432
118.399052492
117.217443791
115.997532044
114.738821662
113.440894777
112.103426125
110.726200486
109.30913289
107.852292395
106.355930034
104.820511831
103.246757079
101.635682701
99.9886535689
98.307439536
96.5942782048
94.8519417434
93.0838061584
91.2939174555
89.4870520947
87.6687615657
85.8454094017
84.0242121581
82.2134717949
80.4235681268
78.6677152926
76.9645636651
147.40944215
146.755502377
146.203325814
145.765847131
145.394343539
145.072343869
144.783330759
144.513171924
144.252775079
143.996353465
143.740023816
143.481105818
143.217688557
142.948346003
142.671957911
142.387596546
142.094453526
141.791792375
141.47891718
141.155152494
140.819830137
140.472279907
140.111822863
139.737778785
139.349452225
138.946136168
138.527111855
138.091648493
137.639003367
137.168422016
136.67913885
136.170377683
135.641352186
135.091266454
134.519315666
133.924686612
133.306557861
132.664103393
131.996491237
131.302884774
130.582444133
129.834328564
129.057696962
128.251709845
127.415531446
126.548331909
125.649289872
124.717595403
123.752453288
122.753086992
121.718743315
120.648697053
119.542257025
118.398773065
117.217644016
115.998327071
114.740348679
113.443319268
112.106947173
110.731056889
109.315610379
107.860732001
106.366737616
104.834168484
103.263830236
101.656836835
100.014660112
98.3391837162
96.6327605655
94.8982767153
93.1392059279
91.3596577214
89.5644048784
87.7588768258
85.9490899542
84.1414315089
82.3425619735
80.5600387021
78.800973572
77.0740552207
148.404679954
147.04686462
146.256119371
145.756279177
145.365442757
145.041692101
144.757286685
144.492787923
144.237394178
143.984959186
143.731657314
143.47497621
143.213179652
142.944991592
142.669411612
142.38560452
142.092832039
141.790409633
141.477680055
141.153994705
140.818693896
140.471128331
140.11064607
139.736563709
139.348189558
138.944819986
138.525737874
138.090211435
137.6374996
137.166849452
136.677496025
136.168663454
135.639565671
135.089407058
134.517383189
133.922681767
133.304484124
132.661963316
131.994287434
131.300620734
130.580124513
129.83195857
129.055282838
128.249259219
127.41305363
126.545838286
125.646794332
124.715114957
123.750008772
122.750703771
121.716451852
120.646534136
119.540267088
118.397009767
117.216172236
115.997225576
114.739713651
113.443265248
112.107611463
110.732604062
109.318237255
107.864673145
106.372271205
104.841622505
103.273589181
101.669348474
100.030442206
98.3588283896
96.6569332912
94.9277314211
93.1747709464
91.4022199362
89.6148827771
87.8181775596
86.0180009181
84.2202188473
82.4303617243
80.6531914225
78.8835097964
77.0917957745
150.197788619
147.269691555
146.156165108
145.629096802
145.262000591
144.967431959
144.70598022
144.457621171
144.213273207
143.968369502
143.720215238
143.46705772
143.207666813
142.941108849
142.666618992
142.383525907
142.091205781
141.789053961
141.476467848
141.152839967
140.817565198
140.470003485
140.109485944
139.735347378
139.346905642
138.943461528
138.524301169
138.088699475
137.635914187
137.165190843
136.675764498
136.166859428
135.637689639
135.087459561
134.515364768
133.920592677
133.302323448
132.659731137
131.991984496
131.298248111
130.57768369
129.829451649
129.052712652
128.2466294
127.410368738
126.543103989
125.644017626
124.712304433
123.747174907
122.747859304
121.71361235
120.643718568
119.537498414
118.394315677
117.213586051
115.994787172
114.73747047
113.441275
112.105943485
110.73134132
109.317478816
107.86453723
106.372898643
104.843180606
103.276276027
101.673397261
100.036125775
98.3664693846
96.6669244062
94.9404967439
93.1907918505
91.4220468278
89.6391501314
87.8476210523
86.0535062706
84.2633032274
82.4834346622
80.7186881909
78.9486121651
77.0487233791
57.0018032408
53.4497709392
51.0583821589
49.101064557
47.4291932079
45.9726039454
44.687309822
43.5435902292
42.5197508913
41.5990180766
40.7679564832
40.0155326199
39.332519502
38.7110986104
38.1445769644
37.6271785957
37.1538865496
36.7203183978
36.322627008
35.9574209368
35.6216978929
35.3127905882
35.0283211968
34.7661629293
34.5244079523
34.3013399759
34.0954109387
33.9052208338
33.7295006234
33.5670972692
33.4169609389
33.2781335864
33.1497390928
33.0309744591
32.9211021278
32.8194426142
32.7253673348
32.6382912401
32.5576638578
32.4829632602
32.413755309
32.3499009289
32.2910313177
32.2366413143
32.1862982923
32.1396754183
32.0965018258
32.0565238308
32.0195038653
31.9852302556
31.9535121933
31.9241345005
31.8969118373
31.8716778884
31.8482841315
31.8265725513
31.8064025313
31.7876475122
31.7701900625
31.7539217312
31.7387437645
31.724565383
31.7113016464
31.6988737048
31.6872088074
31.676239895
31.6659054621
31.6561487259
31.646917435
31.6381634694
31.6298425538
31.6219141636
31.6143412358
31.6070898814
31.6001292128
31.5934306376
31.5869679587
31.5807170914
31.5746562231
31.5687656067
31.5630271777
31.5574245
31.5519426723
31.5465680583
31.5412876705
31.5360901701
31.5309650867
31.5259028448
31.5208944764
31.515931814
31.5110078199
31.5061155743
31.5012483972
31.4964002146
31.4915639535
31.4867343286
31.4819086538
31.4770839743
31.4722581477
31.4674389343
31.4626281286
31.4578086847
31.4529808339
31.4481630732
31.4433387284
31.4384828511
31.4335899722
31.4286557994
31.4236765325
31.4186479476
31.4135657866
31.4084277535
31.4032312424
31.3979716159
31.3926454464
31.3872482892
31.3817758075
31.3762250996
31.3705896988
31.3648646514
31.3590418641
31.3531047303
31.3470197914
31.3406996057
31.3344808266
31.3284632825
31.32271729
31.3166263542
31.310388656
31.304082503
31.2977705096
31.2914752199
31.2852221443
31.2790504774
31.2729972735
31.2670881968
31.2613571963
31.2558242668
31.2504541103
31.2451076916
31.2400906218
31.2347964574
31.2290164481
31.2220118231
31.2119456846
31.1945699495
31.159885354
31.0867035794
30.9343317544
30.6328267597
30.0774880872
29.1361071104
27.6767296129
25.6070159992
22.9007090526
19.6131635807
15.8618660585
11.6137716189
6.5934828525
1.56708065207
60.1831524547
56.1303851778
53.4184686516
51.2662360295
49.4644807133
47.914800714
46.5589780341
45.3597612732
44.2909542752
43.332896187
42.4702188558
41.6905508876
40.9837146501
40.3412001028
39.7558067411
39.2213757434
38.7326003036
38.2848738905
37.8741754808
37.4969740484
37.1501558034
36.8309628455
36.5369404698
36.26589882
36.0158750201
35.7851051296
35.5720001492
35.3751226823
35.1931707545
35.0249622354
34.8694197904
34.7255615847
34.5924892979
34.4693813998
34.3554837444
34.2501048597
34.1526104494
34.0624183541
33.9789973502
33.9018646494
33.8305549235
33.7645187957
33.7033929309
33.6468137669
33.5944785645
33.5460769976
33.5013110267
33.4599015496
33.421589852
33.3861314568
33.3533017761
33.322898133
33.2947316133
33.2686230502
33.24440137
33.2219234736
33.2010516618
33.1816559872
33.1636153702
33.146823544
33.1311721884
33.1165647585
33.1029115714
33.0901301124
33.0781442778
33.0668852722
33.0562876057
33.0462930033
33.0368465091
33.027898812
33.0194023323
33.0113163921
33.0036009789
32.9962219565
32.9891462243
32.9823440604
32.9757885052
32.9694540636
32.9633181417
32.9573598984
32.9515615847
32.9459037182
32.9403740342
32.9349543892
32.9296346465
32.9244009409
32.9192434173
32.9141503242
32.9091158876
32.9041280469
32.899179756
32.8942668353
32.8893813555
32.8845156636
32.8796694414
32.8748430977
32.8700242312
32.865208881
32.8603933845
32.8555550813
32.850692078
32.8458071523
32.8408953726
32.8359446551
32.8309646268
32.8259562646
32.8209194156
32.8158500609
32.8107410313
32.8055915867
32.8003970644
32.7951535481
32.789862324
32.7845101438
32.7791036936
32.7736331718
32.7680973823
32.7624896492
32.7568115772
32.7510574813
32.7452259959
32.7393188243
32.7333514801
32.7273430599
32.7213472637
32.7152966387
32.708796472
32.702498126
32.6962705866
32.6900118135
32.6837937443
32.6776422126
32.6715961956
32.6656985883
32.6600036997
32.6545484954
32.6493941592
32.6445452064
32.6400537484
32.6358304059
32.6318826242
32.627910992
32.623525387
32.6177603125
32.6082430715
32.5897631038
32.5502872427
32.4653473716
32.2892049643
31.9455138141
31.3234241657
30.2877866982
28.7098642504
26.5072093758
23.6654627273
20.2444453321
16.3596232749
11.9931560072
6.88335363976
1.70087844038
62.3905995849
58.4571950944
55.5901301138
53.3063481125
51.4045995777
49.7784108369
48.3627425818
47.1155609534
46.0074214127
45.0164347183
44.1256760586
43.3216662972
42.5934277446
41.9318637102
41.3293384241
40.7793672147
40.2763952233
39.815625552
39.3928884779
39.0045363131
38.6473612783
38.3185289258
38.0155211301
37.7360945621
37.478240829
37.2401559335
37.0202158536
36.816952279
36.6290347854
36.4552558357
36.2945149827
36.145808913
36.0082197007
35.8809073428
35.7631008797
35.6540918132
35.5532283906
35.4599092378
35.3735777822
35.2937211101
35.2198725096
35.1515729897
35.0882056248
35.0295774265
34.9753765817
34.9252544186
34.8788964693
34.8360148781
34.7963450772
34.7596409452
34.725675657
34.6942366846
34.6651265424
34.6381620527
34.6131629987
34.5899752206
34.5684547913
34.5484677351
34.5298856133
34.5125902521
34.4964752204
34.4814445484
34.4674062793
34.4542750149
34.4419716871
34.4304246588
34.419566144
34.4093355518
34.3996756548
34.3905351374
34.381864703
34.3736220958
34.3657654797
34.3582589834
34.3510687916
34.3441635171
34.3375149395
34.3310970763
34.3248862249
34.3188606899
34.3130020795
34.3072900405
34.3017113981
34.2962479909
34.2908885193
34.2856192132
34.2804297223
34.2753077001
34.2702465475
34.2652352045
34.260264851
34.2553306286
34.2504249237
34.2455378178
34.2406664906
34.2357947834
34.2309265436
34.2260531904
34.2211748143
34.2162765434
34.2113727331
34.2064565105
34.2015227116
34.1965665192
34.1915840102
34.1865691481
34.1815204469
34.1764350588
34.1713068567
34.1661333765
34.1609127349
34.155639734
34.1503169102
34.1449320485
34.1394902492
34.1339834866
34.1284135508
34.122770406
34.1170611229
34.1112760148
34.1054190549
34.0994929098
34.0935077935
34.0874741728
34.0813986255
34.0752692268
34.0690663208
34.0628675912
34.0566824015
34.0503989192
34.0442073063
34.03815861
34.0322854434
34.0266379259
34.0212819401
34.0162641616
34.0116788847
34.007451419
34.0037247413
34.0004591126
33.9975622605
33.9947893107
33.9916268316
33.9868487554
33.9775011557
33.9573652723
33.9123250678
33.8146365967
33.6137045724
33.2272591302
32.5391395557
31.4121983726
29.721358361
27.3933625442
24.4239821878
20.8756990008
16.8606488091
12.3754488587
7.17309098377
1.83255675598
64.1947929312
60.4701424953
57.5662651993
55.2112604086
53.2414121646
51.5573807718
50.0939946432
48.8073521729
47.6661828886
46.6471329594
45.7321616662
44.9069538638