/*--------------------------------*- C++ -*----------------------------------*\
| =========                 |                                                 |
| \\      /  F ield         | OpenFOAM: The Open Source CFD Toolbox           |
|  \\    /   O peration     | Version:  2106                                  |
|   \\  /    A nd           | Website:  www.openfoam.com                      |
|    \\/     M anipulation  |                                                 |
\*---------------------------------------------------------------------------*/
FoamFile
{
    version     2.0;
    format      ascii;
    arch        "LSB;label=32;scalar=64";
    class       volScalarField;
    location    "0.09";
    object      p;
}
// * * * * * * * * * * * * * * * * * * * * * * * * * * * * * * * * * * * * * //

dimensions      [0 2 -2 0 0 0 0];

internalField   nonuniform List<scalar> 
9600
(
2.21647452393
-0.681535769726
-1.58576690345
-1.97137735923
-2.19070822539
-2.33065016774
-2.43455376378
-2.5221010075
-2.60159689358
-2.676982406
-2.75035042782
-2.82285202896
-2.8951171908
-2.96747728161
-3.04008946243
-3.11301030837
-3.18624065159
-3.25975296895
-3.33350775102
-3.40746292859
-3.4815775649
-3.55581784739
-3.63015358831
-3.70456035697
-3.77901860716
-3.85351282341
-3.92803077023
-4.0025628341
-4.07710152667
-4.15164107709
-4.22617701424
-4.30070575432
-4.37522430769
-4.44973006384
-4.52422071979
-4.5986942296
-4.67314868125
-4.74758216293
-4.82199264978
-4.89637797017
-4.97073594198
-5.04506411974
-5.11935993172
-5.19362058334
-5.26784300549
-5.34202387866
-5.4161596363
-5.49024649686
-5.56428043625
-5.63825714562
-5.71217193233
-5.78601971184
-5.85979503079
-5.93349205367
-6.00710453476
-6.08062579847
-6.15404870552
-6.22736562436
-6.30056840283
-6.37364832756
-6.44659609276
-6.51940179713
-6.59205493864
-6.66454435546
-6.73685814386
-6.80898361957
-6.88090731481
-6.95261497578
-7.02409151041
-7.09532091272
-7.16628624014
-7.23696959599
-7.30735205124
-7.37741356191
-7.44713296093
-7.51648799305
-7.58545527688
-7.65401014964
-7.72212654623
-7.78977705592
-7.85693302467
-7.92356446022
-7.9896398031
-8.05512588377
-8.11998807106
-8.1841902421
-8.24769453613
-8.31046127704
-8.37244914748
-8.43361526694
-8.49391500222
-8.55330176313
-8.6117270169
-8.66914039719
-8.72548967971
-8.78072064805
-8.83477706492
-8.88760079208
-8.93913181781
-8.98930810973
-9.0380655427
-9.08533796292
-9.1310572667
-9.17515339369
-9.2175542886
-9.25818591159
-9.29697228332
-9.33383554955
-9.36869608833
-9.40147250903
-9.43208155443
-9.46043802205
-9.48645509535
-9.51004456018
-9.53111669502
-9.54958021339
-9.56534249366
-9.57830969381
-9.58838675119
-9.59547751298
-9.59948469313
-9.60031010539
-9.5978551634
-9.59202081136
-9.58270736454
-9.56981463764
-9.55324039074
-9.53288344489
-9.50864220302
-9.48041464939
-9.44809883334
-9.41159237818
-9.37079235093
-9.32559537568
-9.27589734707
-9.22159324996
-9.16257669661
-9.09873910939
-9.02996916867
-8.95615178826
-8.87716673153
-8.79288748943
-8.70317919414
-8.60789511061
-8.50687312903
-8.39993195531
-8.28686454697
-8.16742826147
-8.04133325202
-7.90822637986
-7.76766282947
-7.61906422198
-7.46164899126
-7.29430460175
-7.11537082442
-6.92231481107
-6.71124109948
-6.47619687217
-6.21741105334
-6.00464027719
0.304933635504
-0.877421040456
-1.48609484058
-1.840119073
-2.0827352041
-2.25329775749
-2.38136843915
-2.48586942798
-2.57694260122
-2.66021782463
-2.7389866088
-2.81519863633
-2.89001351829
-2.96411986078
-3.03792015468
-3.11164165464
-3.18540477486
-3.25926591197
-3.33324428056
-3.40733865659
-3.48153852128
-3.55582621626
-3.63018647553
-3.70460364609
-3.77906390986
-3.8535555064
-3.92806857767
-4.00259497032
-4.07712806929
-4.15166260611
-4.22619433803
-4.30071970052
-4.37523562073
-4.44973941183
-4.52422870829
-4.5987013967
-4.67315548528
-4.74758896104
-4.8219997167
-4.89638556269
-4.97074411357
-5.04507293735
-5.11936947
-5.19363093794
-5.26785424673
-5.34203607297
-5.41617287467
-5.49026087387
-5.56429601965
-5.63827401151
-5.71219016146
-5.78603940377
-5.85981629046
-5.933514995
-6.00712928419
-6.08065248222
-6.15407745535
-6.22739658175
-6.30060171679
-6.37368414331
-6.44663455402
-6.51944306975
-6.59209922149
-6.66459185867
-6.73690906198
-6.8090381372
-6.88096563442
-6.95267732861
-7.02415814052
-7.0953920637
-7.1663621735
-7.23705060092
-7.30743841011
-7.37750553826
-7.44723085063
-7.51659214617
-7.58556603803
-7.65412781697
-7.72225142721
-7.78990953459
-7.85707352712
-7.92371337672
-7.98979749501
-8.05529274846
-8.12016454526
-8.18437674416
-8.24789145458
-8.31066903862
-8.37266826666
-8.43384629057
-8.49415841506
-8.55355798105
-8.6119964837
-8.66942363131
-8.72578719246
-8.78103291118
-8.83510460767
-8.88794421836
-8.93949167838
-8.98968488015
-9.03845975132
-9.08575019915
-9.13148805405
-9.17560321864
-9.2180237033
-9.25867549768
-9.29748260476
-9.33436714657
-9.36924938733
-9.40204774937
-9.43267895277
-9.46105806322
-9.48709826268
-9.51071116539
-9.53180703778
-9.55029468073
-9.56608145745
-9.57907350815
-9.58917588216
-9.59629254869
-9.60032624301
-9.60117875335
-9.59875141516
-9.59294485852
-9.58365876957
-9.57079225636
-9.55424544939
-9.53391746732
-9.50970704249
-9.48151268419
-9.44923287044
-9.41276609261
-9.37201067355
-9.32686440622
-9.27722465628
-9.22298856112
-9.16405201936
-9.10030907838
-9.03165241244
-8.95797216895
-8.87915395167
-8.79507820107
-8.70561943464
-8.61064338704
-8.51000345284
-8.40353810148
-8.29106705378
-8.17238453825
-8.04725037821
-7.91538095376
-7.77643529113
-7.62999513744
-7.47554269201
-7.31243244857
-7.1398780257
-6.9570358008
-6.76330838549
-6.55825686062
-6.34272434969
-6.14143358331
-0.670908525909
-1.15227665861
-1.54353507587
-1.83515109148
-2.05672445494
-2.22465988095
-2.35676089868
-2.46654841166
-2.56240540957
-2.6495477898
-2.731287022
-2.80971783633
-2.88616078308
-2.96144579766
-3.03608948705
-3.11040768438
-3.18458806697
-3.25873734587
-3.33291196356
-3.40713783646
-3.48142299994
-3.555766562
-3.63016122186
-3.70459876454
-3.77907028484
-3.85356734428
-3.92808233713
-4.00260863367
-4.07714062485
-4.15167365532
-4.22620381491
-4.30072771081
-4.37524234734
-4.44974509147
-4.52423359855
-4.59870574672
-4.67315950258
-4.74759279482
-4.82200347072
-4.89638930917
-4.97074799665
-5.04507711276
-5.11937395712
-5.19363572511
-5.26785935415
-5.34204154335
-5.41617875753
-5.49026723682
-5.56430298267
-5.63828160434
-5.71219840185
-5.78604830564
-5.85982589582
-5.93352536195
-6.00714047775
-6.08066455165
-6.15409046019
-6.22741058818
-6.30061678628
-6.373700333
-6.44665193457
-6.51946173265
-6.59211926068
-6.66461334954
-6.73693207293
-6.80906275359
-6.88099196646
-6.95270548672
-7.02418822062
-7.09542416104
-7.16639641324
-7.23708713095
-7.30747736975
-7.37754704328
-7.44727501684
-7.51663910962
-7.5856159351
-7.65418077766
-7.7223076213
-7.78996918484
-7.85713682384
-7.92378042002
-7.98986838879
-8.05536770508
-8.12024381935
-8.18446051578
-8.24797986557
-8.31076229663
-8.37276662919
-8.43394996332
-8.49426754116
-8.55367272107
-8.61211705541
-8.66955027256
-8.72592010637
-8.78117228124
-8.83525064139
-8.88809711304
-8.93965158566
-8.98985192977
-9.03863416722
-9.08593219663
-9.13167779004
-9.17580083032
-9.21822934311
-9.25888934896
-9.29770490008
-9.33459816523
-9.3694894208
-9.40229716055
-9.43293816972
-9.46132743608
-9.48737820947
-9.51100207607
-9.53210930722
-9.55060878013
-9.56640786451
-9.57941265484
-9.58952815619
-9.59665842192
-9.6007065556
-9.60157464344
-9.59916392563
-9.59337513801
-9.5841088532
-9.57126488667
-9.55474261715
-9.53444124351
-9.51026017001
-9.48209834079
-9.449854659
-9.41342853518
-9.37271922769
-9.32762559587
-9.27804659899
-9.22388118817
-9.16502755348
-9.1013827145
-9.0328427211
-8.95930216862
-8.88065266463
-8.79678177484
-8.7075725817
-8.61290228084
-8.51263955623
-8.40664168067
-8.29475266976
-8.17680050244
-8.05259028043
-7.92190058164
-7.78447979539
-7.64004057466
-7.48826338557
-7.32881108318
-7.16137979841
-6.98584291129
-6.80259981591
-6.61278435676
-6.41824471632
-6.22860865619
-1.22236907214
-1.40871522647
-1.65116226323
-1.87363025858
-2.06082080507
-2.21484836203
-2.343285316
-2.45357529821
-2.55136888037
-2.64072742667
-2.72449653422
-2.80462066261
-2.88240746923
-2.95872632343
-3.03414798121
-3.10904151046
-3.18364104879
-3.2580915176
-3.33247965886
-3.40685482771
-3.48124292409
-3.55565601815
-3.63009656972
-3.70456390131
-3.77905416463
-3.85356249696
-3.92808385452
-4.00261340738
-4.07714677811
-4.15168008928
-4.22620991234
-4.30073317569
-4.37524709182
-4.44974916385
-4.524237121
-4.59870884301
-4.67316229293
-4.74759540859
-4.82200604391
-4.89639195342
-4.97075075988
-5.04507994454
-5.11937693946
-5.19363885912
-5.2678626754
-5.34204511954
-5.41618265348
-5.49027147437
-5.56430751885
-5.63828641948
-5.71220349551
-5.78605372459
-5.85983172062
-5.93353167685
-6.00714734724
-6.08067201111
-6.15409851284
-6.22741924141
-6.3006260583
-6.37371026647
-6.4466626106
-6.51947324085
-6.59213164833
-6.6646266199
-6.73694622848
-6.80907784503
-6.88100809044
-6.95272272739
-7.02420661843
-7.0954437642
-7.16641729838
-7.23710938856
-7.30750108664
-7.37757229438
-7.44730186147
-7.51666760135
-7.58564614381
-7.65421281634
-7.72234164287
-7.79000532654
-7.85717515936
-7.92382098401
-7.98991125025
-8.05541299314
-8.12029166816
-8.18451103137
-8.24803318428
-8.31081861349
-8.37282610878
-8.43401266335
-8.49433350294
-8.55374208713
-8.61219002606
-8.66962701363
-8.72600075319
-8.78125697689
-8.83533952039
-8.8881903183
-8.93974935494
-8.98995462153
-9.03874197677
-9.08604528117
-9.13179641268
-9.17592528863
-9.21835984919
-9.25902606076
-9.29784802312
-9.33474798972
-9.36964623262
-9.40246105435
-9.43310902912
-9.46150527822
-9.48756322241
-9.51119454881
-9.53230953422
-9.55081706866
-9.56662458248
-9.57963824695
-9.58976305225
-9.59690297366
-9.60096124126
-9.6018401942
-9.59944129538
-9.59366531172
-9.58441278456
-9.57158392752
-9.5550785608
-9.53479643567
-9.510637357
-9.48250088833
-9.45028691552
-9.41389573168
-9.37322750834
-9.32818255003
-9.27866147229
-9.22456509715
-9.16579442344
-9.10224990355
-9.03383103225
-8.96043677709
-8.88196502225
-8.79831096054
-8.70936651045
-8.61502048312
-8.51515685872
-8.40965214265
-8.29837487053
-8.18118514111
-8.05793126858
-7.92844975748
-7.79256772121
-7.65010670538
-7.50089792596
-7.34480949624
-7.18180213851
-7.01203331572
-6.83604134356
-6.65481763656
-6.46955479246
-6.28359366273
-1.5597144722
-1.61147772924
-1.75537239567
-1.91966569131
-2.07399848056
-2.21205619768
-2.33420970666
-2.44299785387
-2.54144146217
-2.63227073104
-2.71767714039
-2.79931346314
-2.87838147075
-2.95573321691
-3.03196066508
-3.10746786288
-3.18252587916
-3.25731331142
-3.33194543252
-3.40649476433
-3.4810054047
-3.55550294878
-3.63000171508
-3.70450755203
-3.77902292765
-3.85354719597
-3.92807828745
-4.00261349971
-4.0771499158
-4.15168462965
-4.22621485421
-4.30073796287
-4.37525147593
-4.44975307563
-4.52424059858
-4.59871195992
-4.6731651362
-4.74759808838
-4.82200868234
-4.89639464464
-4.97075355632
-5.04508287714
-5.11937994796
-5.19364199245
-5.26786601305
-5.34204873136
-5.41618659566
-5.49027578931
-5.56431223689
-5.63829157544
-5.7122091261
-5.78605986621
-5.85983838715
-5.93353888272
-6.0071550991
-6.08068035451
-6.15410749802
-6.22742891853
-6.30063647766
-6.37372147523
-6.44667465451
-6.51948617444
-6.59214553065
-6.66464149754
-6.73696214084
-6.80909485269
-6.88102627587
-6.95274216596
-7.02422737359
-7.09546591738
-7.16644094288
-7.23713460466
-7.30752796235
-7.3776009505
-7.44733241563
-7.51670012872
-7.58568070886
-7.65424950762
-7.72238056126
-7.79004658568
-7.85721889058
-7.92386731485
-7.98996029689
-8.05546486595
-8.1203464644
-8.18456885833
-8.24809418651
-8.31088296445
-8.37289396668
-8.43408414488
-8.49440866431
-8.55382098436
-8.61227279661
-8.6697138257
-8.72609175423
-8.7813522787
-8.83543919053
-8.88829444375
-8.93985807748
-8.99006802974
-9.0388600999
-9.08616816424
-9.13192420435
-9.17605816054
-9.21849792284
-9.25916944109
-9.29799680715
-9.33490226315
-9.36980613959
-9.4026268701
-9.43328106854
-9.46168373371
-9.48774828368
-9.51138650501
-9.53250865025
-9.5510235338
-9.56683868892
-9.57986053484
-9.58999417952
-9.59714350358
-9.60121160228
-9.60210099658
-9.59971357012
-9.59395043616
-9.58471204201
-9.5718988255
-9.55541126825
-9.53514946973
-9.5110134651
-9.4829036812
-9.450720958
-9.4143663205
-9.37374111683
-9.32874729677
-9.27928718435
-9.2252635487
-9.16658003656
-9.10314059004
-9.03484867037
-8.96160783998
-8.88332197211
-8.79989395131
-8.71122512756
-8.61721541855
-8.51776294808
-8.4127632359
-8.30210801879
-8.18568640402
-8.0633851983
-7.93509031614
-7.80069195028
-7.66009317792
-7.513227185
-7.36008025288
-7.20073441669
-7.03542045171
-6.86457262323
-6.68875700992
-6.50831389756
-6.32363646874
-1.7637887025
-1.75881041567
-1.84278530878
-1.96357462684
-2.09021754547
-2.21289738539
-2.32779422848
-2.43399046996
-2.53227341909
-2.62406216162
-2.71082236895
-2.79383651589
-2.87413937567
-2.95252480785
-3.02958103387
-3.10573285639
-3.18128077761
-3.25643352919
-3.33133357846
-3.40607643125
-3.48072484495
-3.55531910882
-3.62988452807
-3.70443530399
-3.77898064166
-3.8535243601
-3.92806768614
-4.00261030286
-4.0771509511
-4.15168786369
-4.22621902074
-4.30074232953
-4.37525566637
-4.44975692627
-4.52424406605
-4.59871507208
-4.67316796258
-4.74760072807
-4.82201122845
-4.89639715574
-4.97075605282
-5.045085376
-5.11938250466
-5.19364467761
-5.2678688845
-5.34205182064
-5.41618991419
-5.49027935055
-5.56431605256
-5.63829564769
-5.71221345369
-5.7860644709
-5.8598433315
-5.93354425082
-6.00716093336
-6.08068666584
-6.15411431343
-6.2274362714
-6.30064439814
-6.37372999409
-6.44668380832
-6.51949599853
-6.59215604925
-6.66465273798
-6.73697415606
-6.80910770769
-6.88104001418
-6.95275681053
-7.02424295969
-7.09548251575
-7.16645864845
-7.2371534898
-7.30754805832
-7.37762228768
-7.44735506611
-7.5167241972
-7.58570629852
-7.65427670831
-7.72240943817
-7.79007716509
-7.85725121112
-7.92390149232
-7.98999647679
-8.05550313954
-8.12038689398
-8.18461154823
-8.24813927508
-8.31093055512
-8.3729441167
-8.43413693473
-8.49446425959
-8.55387957733
-8.61233449705
-8.66977868545
-8.72615986898
-8.78142381759
-8.83551435423
-8.88837341954
-8.93994101249
-8.99015503911
-9.03895132841
-9.08626380505
-9.13202443469
-9.17616309281
-9.21860767217
-9.25928419985
-9.29811676787
-9.3350275029
-9.36993672887
-9.40276302981
-9.43342309127
-9.46183179464
-9.48790254338
-9.5115472344
-9.53267615249
-9.55119810489
-9.56702065512
-9.58005026506
-9.59019220325
-9.59735051033
-9.60142833224
-9.60232824222
-9.59995234306
-9.59420199742
-9.58497785415
-9.57218069734
-9.55571139786
-9.53547033631
-9.51135812459
-9.48327603265
-9.451125561
-9.41480855945
-9.37422768417
-9.32928646963
-9.27988905026
-9.22594015237
-9.167345678
-9.10401276578
-9.03584904273
-8.96276263432
-8.88466275668
-8.80145951731
-8.71306317549
-8.6193838254
-8.52033238948
-8.41582075547
-8.30576073008
-8.19006599838
-8.06865407297
-7.94144891043
-7.80838582571
-7.66942017184
-7.52454320064
-7.37379544871
-7.21728946226
-7.05522816481
-6.88789082511
-6.71551799048
-6.53799646581
-6.35475096781
-1.88691760918
-1.86146160499
-1.91082058618
-2.00098036854
-2.10590510679
-2.21522758992
-2.3230646292
-2.42628847672
-2.52396239318
-2.61635267383
-2.70422368931
-2.78846704555
-2.86992161239
-2.94929882667
-3.02716610615
-3.10395805411
-3.17999797827
-3.25552094564
-3.33069459279
-3.40563638072
-3.48042724695
-3.55512205925
-3.62975765545
-3.70435582146
-3.77893308724
-3.85349774848
-3.928054423
-4.00260524744
-4.07715069254
-4.15169019377
-4.22622256767
-4.3007462887
-4.37525959972
-4.44976059879
-4.52424737506
-4.59871802298
-4.67317061987
-4.74760317523
-4.82201353382
-4.89639935448
-4.97075817571
-5.04508747785
-5.11938466151
-5.19364694945
-5.2678712993
-5.34205439265
-5.41619266121
-5.49028230361
-5.56431924435
-5.63829910454
-5.71221720895
-5.78606857103
-5.85984781022
-5.93354907506
-6.00716610075
-6.08069221645
-6.15412030834
-6.22744275724
-6.3006513965
-6.3737375199
-6.4466918877
-6.51950466026
-6.59216531474
-6.66466263472
-6.73698473608
-6.80911902484
-6.88105210028
-6.95276969157
-7.02425668868
-7.09549717447
-7.16647431836
-7.23717021785
-7.30756587006
-7.37764124086
-7.44737526313
-7.51674573066
-7.58572920984
-7.65430102243
-7.7224352083
-7.79010446201
-7.85728010815
-7.92393207152
-7.99002881893
-8.0555373167
-8.12042298946
-8.18464965723
-8.24817947065
-8.31097287957
-8.37298862897
-8.43418373887
-8.49451346491
-8.55393125171
-8.61238868206
-8.66983543843
-8.72621927609
-8.78148599801
-8.83557946114
-8.88844155946
-8.94001220404
-8.99022931539
-9.03902883528
-9.08634472127
-9.13210886023
-9.1762510688
-9.21869928714
-9.25937962565
-9.29821618913
-9.33513105647
-9.3700445614
-9.40287535077
-9.43354013796
-9.4619537657
-9.48802960014
-9.5116795802
-9.53281411271
-9.55134216172
-9.56717122237
-9.58020757502
-9.59035661381
-9.59752277911
-9.60160940811
-9.60251899834
-9.60015361864
-9.59441495375
-9.58520415612
-9.57242225957
-9.55597028071
-9.53574908553
-9.51165998337
-9.48360483359
-9.45148580495
-9.41520574296
-9.37466846668
-9.32977882396
-9.28044269421
-9.22656693108
-9.16805964
-9.10483067941
-9.03679151758
-8.9638546842
-8.88593421293
-8.80294633231
-8.71480915321
-8.62144222041
-8.52276725898
-8.41870947235
-8.30919722489
-8.19416359736
-8.07354901056
-7.94730413196
-7.81539453436
-7.67780650796
-7.53455910482
-7.38571096043
-7.2313658246
-7.07167478075
-6.90679970197
-6.73681627756
-6.5615100596
-6.38028158766
-1.96095955265
-1.9299102224
-1.95984042219
-2.02961301517
-2.11878122989
-2.21765825872
-2.31953774318
-2.42001028729
-2.51693703143
-2.60968327742
-2.69842017387
-2.78368616678
-2.8661307848
-2.94637813295
-3.02496695318
-3.10233409134
-3.17881940029
-3.25467941747
-3.33010326553
-3.40522765777
-3.48014971832
-3.55493723608
-3.62963656432
-3.7042803004
-3.77888759629
-3.85347190866
-3.92804118308
-4.00259980992
-4.07714986533
-4.15169190498
-4.2262255318
-4.3007497318
-4.37526307565
-4.44976387233
-4.52425033231
-4.59872065193
-4.67317296856
-4.7476053039
-4.82201548655
-4.8964011643
-4.97075989945
-5.0450891964
-5.11938644407
-5.19364882277
-5.26787326017
-5.34205644788
-5.4161948483
-5.49028466799
-5.56432180956
-5.63830187375
-5.71222019326
-5.78607178805
-5.85985126984
-5.93355280111
-6.00717011723
-6.08069656385
-6.15412503682
-6.22744788715
-6.3006569164
-6.37374342761
-6.4466982159
-6.5195114534
-6.59217259425
-6.66467040611
-6.73699302065
-6.80912785888
-6.88106151478
-6.95277971946
-7.02426738499
-7.09550860238
-7.16648651538
-7.23718319168
-7.30757964496
-7.3776558963
-7.4473908979
-7.51676239374
-7.58574689363
-7.65431972948
-7.72245500472
-7.79012545082
-7.85730236527
-7.92395562889
-7.99005370226
-8.05556358173
-8.12045071591
-8.1846789114
-8.24821029326
-8.31100532445
-8.37302279899
-8.43421974969
-8.49455137374
-8.55397107114
-8.61243046767
-8.6698793027
-8.72626532309
-8.78153431313
-8.83563013555
-8.88849466945
-8.9400677948
-8.99028744954
-9.03908960913
-9.08640820345
-9.1321751084
-9.1763201901
-9.2187713972
-9.25945479072
-9.29829448308
-9.33521264846
-9.37012962583
-9.40296398136
-9.43363248287
-9.46205007966
-9.48813011129
-9.511784445
-9.53292357828
-9.55145660445
-9.56729103432
-9.58033315557
-9.59048846473
-9.5976614692
-9.60175569118
-9.60267383328
-9.6003180092
-9.59459005636
-9.58539152362
-9.57262370019
-9.55618789366
-9.53598553819
-9.51191842835
-9.48388888331
-9.45179990744
-9.41555544102
-9.37506028835
-9.33022030285
-9.28094298295
-9.22713741296
-9.1687138906
-9.10558461869
-9.03766425985
-8.9648693928
-8.88711872447
-8.80433371966
-8.71643890601
-8.6233618992
-8.52503377333
-8.42139049468
-8.31237341966
-8.19793069685
-8.07801916776
-7.95260837677
-7.82168360999
-7.6852493705
-7.54333778068
-7.39601103355
-7.24336188251
-7.0855063432
-6.92255520357
-6.75455062956
-6.58136598194
-6.4026909419
-2.00319251524
-1.97162907356
-1.99127366721
-2.04871982223
-2.12773317584
-2.21951208786
-2.31713004587
-2.41551789862
-2.51179958432
-2.60473344906
-2.6940657743
-2.78006944794
-2.86324501822
-2.94414401267
-3.02327842218
-3.10108347502
-3.1779095607
-3.254028399
-3.32964490948
-3.40491023497
-3.47993378091
-3.55479332454
-3.6295431656
-3.70422127753
-3.77885181758
-3.85345144454
-3.92803057136
-4.00259532452
-4.07714902917
-4.15169311331
-4.22622777334
-4.30075238394
-4.37526576778
-4.44976641162
-4.52425263188
-4.59872270271
-4.67317480434
-4.74760695355
-4.82201697231
-4.89640252147
-4.97076119426
-5.04509050792
-5.11938782018
-5.19365025892
-5.2678747385
-5.34205798363
-5.4161964902
-5.49028645168
-5.56432373827
-5.6383039488
-5.71222243829
-5.78607423145
-5.85985391511
-5.93355562877
-6.00717314275
-6.08069984419
-6.15412861611
-6.22745176158
-6.30066106177
-6.37374785211
-6.44670296208
-6.51951655942
-6.59217806756
-6.66467623895
-6.7369992175
-6.80913444535
-6.88106852763
-6.95278720828
-7.02427540352
-7.09551717725
-7.16649564385
-7.23719288918
-7.30758997101
-7.37766691302
-7.44740262634
-7.51677483469
-7.58576007232
-7.65433370343
-7.72246983997
-7.79014119127
-7.85731902134
-7.92397320647
-7.99007223646
-8.05558312706
-8.12047131459
-8.18470059483
-8.24823310841
-8.31102934017
-8.37304808081
-8.4342463307
-8.49457926092
-8.55400029333
-8.61246110137
-8.66991144327
-8.7262990372
-8.78156963827
-8.83566710374
-8.88853333485
-8.9401082352
-8.99032974159
-9.03913378972
-9.08645428095
-9.13222314528
-9.17637032988
-9.21882375341
-9.25950940368
-9.2983514158
-9.33527205403
-9.3701916183
-9.40302859994
-9.43369984435
-9.46212042966
-9.48820369323
-9.51186150972
-9.5330043402
-9.55154121728
-9.56737987212
-9.5804268621
-9.5905875901
-9.59776637254
-9.60186697902
-9.60279256192
-9.60044530052
-9.59472705314
-9.58553966144
-9.57278474971
-9.55636402638
-9.53617939898
-9.51213303302
-9.48412774863
-9.45206738174
-9.41585683719
-9.37540188872
-9.33060950661
-9.28138860715
-9.22765009219
-9.16930655374
-9.10627251978
-9.03846510927
-8.96580457139
-8.88821404732
-8.80561948686
-8.71795091206
-8.62514297569
-8.52713451901
-8.42387017289
-8.31530184935
-8.20138935343
-8.08210260416
-7.95742440113
-7.82735397958
-7.69190835377
-7.55113014013
-7.40508545865
-7.25386719954
-7.0975863742
-6.93635845083
-6.7702750201
-6.5993699671
-6.42365717645
-2.02244096893
-1.99134523273
-2.00656864638
-2.05823665552
-2.13229424424
-2.22049583434
-2.31590019609
-2.41316913596
-2.50908125515
-2.60209199468
-2.69172714928
-2.77811753749
-2.86168180738
-2.94293035834
-3.02235915687
-3.100401469
-3.1774127246
-3.25367249527
-3.32939407083
-3.40473634683
-3.47981538505
-3.55471439444
-3.62949190186
-3.70418884142
-3.77883212788
-3.8534401636
-3.92802470812
-4.00259284722
-4.07714858144
-4.15169382122
-4.22622907899
-4.30075392952
-4.37526733556
-4.44976789305
-4.52425399337
-4.59872394623
-4.67317594075
-4.74760797962
-4.82201789206
-4.89640337353
-4.97076204096
-5.04509139703
-5.11938875208
-5.1936512115
-5.26787571045
-5.34205901116
-5.41619760854
-5.49028765755
-5.56432501782
-5.63830532435
-5.71222395312
-5.78607589678
-5.85985569991
-5.93355751713
-6.00717516542
-6.08070204878
-6.15413101407
-6.22745432692
-6.30066378769
-6.37375077829
-6.44670613034
-6.51951997071
-6.5921817001
-6.66468008611
-6.73700329404
-6.80913877211
-6.8810731328
-6.95279213835
-7.02428070136
-7.09552284314
-7.16650165457
-7.23719926302
-7.30759676414
-7.37767414163
-7.44741025287
-7.51678285818
-7.58576858153
-7.65434279838
-7.72247953692
-7.79015143729
-7.85732978038
-7.92398450965
-7.99008414883
-8.05559568715
-8.12048452792
-8.18471447699
-8.24824770443
-8.3110446951
-8.37306420724
-8.43426322718
-8.49459695783
-8.5540188449
-8.61248054332
-8.66993178721
-8.72632031324
-8.78159189749
-8.83569038637
-8.88855766013
-8.94013361501
-8.99035619578
-9.03916136624
-9.08648304397
-9.13225314242
-9.17640161284
-9.21885640121
-9.25954349352
-9.29838700387
-9.33530918431
-9.37023038419
-9.40306913146
-9.4337422457
-9.46216479045
-9.48825021619
-9.51191052694
-9.53305607983
-9.55159584021
-9.56743773358
-9.5804884999
-9.59065347221
-9.59783702439
-9.60194313035
-9.60287507523
-9.60053518813
-9.59482554667
-9.58564822866
-9.57290511194
-9.5564982565
-9.53633003269
-9.5123031304
-9.48432094043
-9.45228787334
-9.41610958838
-9.37569306535
-9.33094659324
-9.28178011986
-9.22810601068
-9.16983915042
-9.10689642318
-9.03919747581
-8.96666560613
-8.8892276576
-8.80681410888
-8.71935994411
-8.62680569038
-8.52909702853
-8.42618629393
-8.31803410481
-8.20461037099
-8.08589576438
-7.96188492283
-7.83258839765
-7.69803691322
-7.55828322074
-7.4134063049
-7.26351216518
-7.10873408238
-6.94922803825
-6.78517114573
-6.61676365621
-6.44428372102
-2.0224409236
-1.99134521846
-2.00656862067
-2.05823664491
-2.13229424701
-2.22049579395
-2.31590014194
-2.41316908986
-2.50908120414
-2.60209195031
-2.69172712636
-2.77811753156
-2.8616818282
-2.94293041532
-3.02235925397
-3.10040159946
-3.17741286983
-3.25367261959
-3.32939414754
-3.40473639291
-3.4798154364
-3.55471447861
-3.62949201605
-3.70418896212
-3.77883223791
-3.85344025995
-3.92802480658
-4.00259296954
-4.07714873818
-4.15169401195
-4.22622929549
-4.3007541599
-4.37526756615
-4.44976812797
-4.52425425506
-4.59872424996
-4.67317627599
-4.74760831547
-4.82201821414
-4.89640370898
-4.97076242553
-5.04509183202
-5.11938920866
-5.19365166542
-5.26787618715
-5.34205954792
-5.41619820263
-5.49028827318
-5.56432564753
-5.63830601472
-5.71222474978
-5.78607678533
-5.85985662951
-5.93355847383
-6.00717618752
-6.08070316478
-6.15413220304
-6.22745556083
-6.30066509111
-6.3737522105
-6.44670771421
-6.51952166966
-6.59218347684
-6.66468194545
-6.73700526043
-6.80914086137
-6.88107535872
-6.95279452473
-7.02428326946
-7.09552559112
-7.16650456779
-7.23720233766
-7.30759999887
-7.37767751916
-7.44741376321
-7.51678654538
-7.585772529
-7.6543470432
-7.7224840292
-7.79015611199
-7.85733463441
-7.92398958239
-7.99008946913
-8.05560126622
-8.120490379
-8.18472060911
-8.24825411357
-8.31105137082
-8.37307114038
-8.43427042618
-8.49460446506
-8.55402670423
-8.61248874627
-8.66994029383
-8.72632912398
-8.78160105548
-8.83569992306
-8.88856757207
-8.9401438796
-8.99036680979
-9.03917237952
-9.08649451746
-9.13226508724
-9.17641402068
-9.21886933403
-9.25955704637
-9.29840119133
-9.3353239858
-9.37024590739
-9.40308554351
-9.43375960847
-9.46218313705
-9.48826972698
-9.51193145475
-9.53307868463
-9.55162043745
-9.56746464183
-9.58051794988
-9.59068595308
-9.59787336234
-9.60198402029
-9.60292114205
-9.60058746578
-9.59488540851
-9.58571715435
-9.57298476004
-9.55659061571
-9.53643758779
-9.51242894665
-9.48446864777
-9.45246169642
-9.41631450182
-9.37593510995
-9.33123303966
-9.28211950539
-9.22850832563
-9.17031618624
-9.10746242545
-9.0398693281
-8.96746298161
-8.89017394593
-8.80793691229
-8.72069151969
-8.62838349869
-8.5309651166
-8.42839638157
-8.32064599561
-8.2076928163
-8.08952818729
-7.96615895256
-7.83760750079
-7.70391933482
-7.56516333243
-7.42143812582
-7.27287525067
-7.11964503891
-6.96196068684
-6.80009017406
-6.63437358037
-6.4652728782
-2.00319237729
-1.97162904799
-1.99127361876
-2.04871978383
-2.12773317301
-2.21951201781
-2.31712993673
-2.41551776944
-2.51179942709
-2.60473331088
-2.69406570007
-2.78006944509
-2.86324509509
-2.94414418158
-3.0232787036
-3.10108386024
-3.17790998668
-3.25402876445
-3.32964515194
-3.40491038917
-3.47993394706
-3.55479358351
-3.62954350296
-3.70422162695
-3.77885214319
-3.85345174385
-3.92803088482
-4.00259570253
-4.07714948692
-4.15169365836
-4.22622839914
-4.30075305691
-4.3752664518
-4.44976711634
-4.52425341966
-4.59872361446
-4.67317581425
-4.747607981
-4.82201797107
-4.89640354728
-4.97076233873
-5.04509178732
-5.11938916662
-5.19365163618
-5.26787619898
-5.34205959989
-5.41619824754
-5.49028827536
-5.56432563609
-5.63830605146
-5.71222484905
-5.78607689348
-5.85985669193
-5.93355849563
-6.00717620454
-6.08070317515
-6.15413216966
-6.22745547767
-6.30066500465
-6.37375216262
-6.4467076918
-6.51952162755
-6.59218339416
-6.66468183715
-6.73700514038
-6.80914072796
-6.8810752113
-6.95279436837
-7.02428310598
-7.09552541932
-7.16650437903
-7.23720209724
-7.30759965373
-7.37767704875
-7.44741321034
-7.51678597239
-7.58577194437
-7.6543463826
-7.72248322579
-7.79015517446
-7.8573336155
-7.9239884848
-7.99008824444
-8.05559989488
-8.12048887918
-8.18471897617
-8.24825231099
-8.3110493689
-8.37306891946
-8.43426797345
-8.49460179068
-8.55402383067
-8.61248566521
-8.66993696316
-8.72632550367
-8.78159712691
-8.83569567695
-8.88856300838
-8.94013901452
-8.99036164797
-9.03916689693
-9.08648869091
-9.13225890868
-9.17640750698
-9.2188625304
-9.25954999356
-9.29839389761
-9.33531647718
-9.37023823453
-9.40307775281
-9.43375175479
-9.46217539389
-9.48826226745
-9.51192437265
-9.53307221174
-9.55161489483
-9.5674602787
-9.58051510712
-9.59068524936
-9.59787547587
-9.601989487
-9.60293067267
-9.60060219288
-9.59490663811
-9.58574628751
-9.573023519
-9.5566411264
-9.5365023343
-9.51251085695
-9.48457136472
-9.45258966594
-9.41647282781
-9.37612967065
-9.3314709797
-9.28240960549
-9.22886089052
-9.17074313559
-9.10797793011
-9.04049052213
-8.96821012752
-8.89107032035
-8.80901017232
-8.72197437655
-8.62991410878
-8.5327881263
-8.43056352695
-8.3232179734
-8.21073989116
-8.09313223059
-7.97041337249
-7.8426216397
-7.70981891165
-7.57209490735
-7.42957268613
-7.28241600082
-7.13083802819
-6.97511036295
-6.81557945847
-6.65268718285
-6.48700717507
-1.96095934639
-1.92991019681
-1.95984036323
-2.02961296033
-2.1187812626
-2.21765822572
-2.31953765498
-2.42001013376
-2.51693680355
-2.60968308329
-2.69842007275
-2.78368617192
-2.86613090283
-2.94637838536
-3.02496737895
-3.10233469557
-3.17882008316
-3.25468001724
-3.33010368931
-3.40522795519
-3.48015003414
-3.55493767979
-3.62963712215
-3.7042808816
-3.77888814421
-3.85347242868
-3.92804172577
-4.00260043003
-4.07715059152
-4.15169275378
-4.2262265029
-4.30075078677
-4.37526417344
-4.44976504071
-4.5242516531