/*--------------------------------*- C++ -*----------------------------------*\
| =========                 |                                                 |
| \\      /  F ield         | OpenFOAM: The Open Source CFD Toolbox           |
|  \\    /   O peration     | Version:  2106                                  |
|   \\  /    A nd           | Website:  www.openfoam.com                      |
|    \\/     M anipulation  |                                                 |
\*---------------------------------------------------------------------------*/
FoamFile
{
    version     2.0;
    format      ascii;
    arch        "LSB;label=32;scalar=64";
    class       volVectorField;
    location    "0.09";
    object      U;
}
// * * * * * * * * * * * * * * * * * * * * * * * * * * * * * * * * * * * * * //

dimensions      [0 1 -1 0 0 0 0];

internalField   nonuniform List<vector> 
9600
(
(0.675396185393 0.15767743417 0)
(0.563826134405 0.102430813063 0)
(0.381538842673 0.0510647159538 0)
(0.283853031176 0.0244590198109 0)
(0.232280796119 0.0119348561607 0)
(0.201907404029 0.0062303945115 0)
(0.183178076181 0.00352195931096 0)
(0.171271740062 0.00212008676893 0)
(0.163512257657 0.00132520613109 0)
(0.158393211349 0.000841363401294 0)
(0.155012166791 0.00053395192415 0)
(0.152792856917 0.000334738311714 0)
(0.151353565801 0.000205079972187 0)
(0.150436782071 0.000121194236091 0)
(0.149867369136 6.76707530369e-05 0)
(0.14952611731 3.42470950943e-05 0)
(0.149332256375 1.40108769464e-05 0)
(0.149231528622 2.29993054103e-06 0)
(0.1491879134 -4.01843182403e-06 0)
(0.149177813798 -7.00879632303e-06 0)
(0.149186173377 -7.89167526956e-06 0)
(0.149203568465 -7.72944371212e-06 0)
(0.149224245971 -7.01245185317e-06 0)
(0.14924492885 -6.04848133402e-06 0)
(0.149263869723 -5.03134672306e-06 0)
(0.149280274625 -4.06877051904e-06 0)
(0.149293922759 -3.2133949344e-06 0)
(0.149304919229 -2.48521798257e-06 0)
(0.149313537531 -1.88529526211e-06 0)
(0.149320122316 -1.4044366222e-06 0)
(0.14932503045 -1.02853765747e-06 0)
(0.149328597556 -7.41721145225e-07 0)
(0.149331121707 -5.28361870376e-07 0)
(0.149332856066 -3.73659402895e-07 0)
(0.149334008488 -2.64207388907e-07 0)
(0.149334744484 -1.88383413329e-07 0)
(0.14933519132 -1.36131178187e-07 0)
(0.149335444157 -9.93091061818e-08 0)
(0.149335572231 -7.21350469915e-08 0)
(0.149335625452 -5.30653614532e-08 0)
(0.149335633266 -4.70823347326e-08 0)
(0.149335614667 -4.99354631106e-08 0)
(0.149335585596 -5.64086549774e-08 0)
(0.149335554289 -6.326950858e-08 0)
(0.149335524629 -6.98964712582e-08 0)
(0.149335498659 -7.63630143436e-08 0)
(0.149335476942 -8.28396324871e-08 0)
(0.14933545933 -8.97738254003e-08 0)
(0.14933544553 -9.79528688009e-08 0)
(0.149335435124 -1.07605018887e-07 0)
(0.149335427509 -1.17979335487e-07 0)
(0.149335422135 -1.2841812899e-07 0)
(0.149335418494 -1.38816978022e-07 0)
(0.149335415797 -1.4946721976e-07 0)
(0.149335413147 -1.60720076432e-07 0)
(0.149335410022 -1.72933702809e-07 0)
(0.149335406353 -1.86282411217e-07 0)
(0.149335402356 -2.00695453901e-07 0)
(0.149335398305 -2.16003421903e-07 0)
(0.149335394342 -2.32129159707e-07 0)
(0.149335390384 -2.49124515236e-07 0)
(0.149335386152 -2.67122495305e-07 0)
(0.149335381355 -2.86327282102e-07 0)
(0.149335375801 -3.06939801269e-07 0)
(0.149335369566 -3.29074781386e-07 0)
(0.149335363157 -3.52775312849e-07 0)
(0.149335357217 -3.77967181541e-07 0)
(0.149335352068 -4.0451918366e-07 0)
(0.149335347619 -4.32418306004e-07 0)
(0.149335343612 -4.61827993023e-07 0)
(0.149335339777 -4.9291076313e-07 0)
(0.149335335924 -5.25769275188e-07 0)
(0.149335332116 -5.60589998443e-07 0)
(0.149335328597 -5.97512644769e-07 0)
(0.149335325478 -6.36369884438e-07 0)
(0.149335322617 -6.76929260509e-07 0)
(0.149335319679 -7.19331065626e-07 0)
(0.14933531625 -7.6387953809e-07 0)
(0.14933531218 -8.10603664388e-07 0)
(0.149335307811 -8.59480875665e-07 0)
(0.149335303414 -9.10816067579e-07 0)
(0.14933529849 -9.64968158414e-07 0)
(0.14933529232 -1.02195549041e-06 0)
(0.149335285121 -1.08157426133e-06 0)
(0.149335277779 -1.14364997239e-06 0)
(0.149335270731 -1.20817687825e-06 0)
(0.149335263908 -1.27538361509e-06 0)
(0.149335257348 -1.34556137236e-06 0)
(0.149335251349 -1.41879626511e-06 0)
(0.149335246247 -1.49488054986e-06 0)
(0.149335242286 -1.57348871628e-06 0)
(0.149335239592 -1.65452652274e-06 0)
(0.149335237785 -1.73825878061e-06 0)
(0.1493352359 -1.82524355487e-06 0)
(0.149335233488 -1.91604100259e-06 0)
(0.149335231537 -2.01039669367e-06 0)
(0.149335231937 -2.1071802299e-06 0)
(0.14933523613 -2.20560644262e-06 0)
(0.149335244176 -2.30578596904e-06 0)
(0.149335255705 -2.4081408756e-06 0)
(0.149335271173 -2.51262675048e-06 0)
(0.149335292017 -2.61901629931e-06 0)
(0.149335320214 -2.72730939083e-06 0)
(0.149335357683 -2.83778280012e-06 0)
(0.149335406424 -2.95068456137e-06 0)
(0.149335469392 -3.0661233765e-06 0)
(0.149335550532 -3.18395214317e-06 0)
(0.149335653979 -3.30426750417e-06 0)
(0.149335784161 -3.42922901731e-06 0)
(0.149335946507 -3.56502999557e-06 0)
(0.149336149723 -3.71880681858e-06 0)
(0.149336403949 -3.88497613293e-06 0)
(0.149336720948 -4.06089974861e-06 0)
(0.149337116262 -4.2464898656e-06 0)
(0.14933760825 -4.44170662184e-06 0)
(0.149338219518 -4.64704862578e-06 0)
(0.149338978763 -4.86480419899e-06 0)
(0.149339920929 -5.09780264483e-06 0)
(0.149341088741 -5.34755536534e-06 0)
(0.149342535856 -5.61493108506e-06 0)
(0.149344328664 -5.90236735764e-06 0)
(0.149346549315 -6.21503094408e-06 0)
(0.149349307226 -6.56638018749e-06 0)
(0.149352758207 -7.00293799184e-06 0)
(0.149357045257 -7.63328569684e-06 0)
(0.149362321623 -8.44404116175e-06 0)
(0.149368831994 -9.38716033729e-06 0)
(0.149376890606 -1.04519116173e-05 0)
(0.149386872915 -1.16455466653e-05 0)
(0.149399242007 -1.29848857195e-05 0)
(0.149414569167 -1.44939959972e-05 0)
(0.149433559348 -1.62027060116e-05 0)
(0.149457087753 -1.81484908344e-05 0)
(0.149486241518 -2.03784158373e-05 0)
(0.149522371711 -2.29516473308e-05 0)
(0.149567155984 -2.59420292608e-05 0)
(0.149622677627 -2.94429147087e-05 0)
(0.149691529058 -3.35731214918e-05 0)
(0.149776936893 -3.84809880098e-05 0)
(0.14988292387 -4.43542512316e-05 0)
(0.150014516422 -5.14344570856e-05 0)
(0.15017799988 -6.00291774236e-05 0)
(0.150381253066 -7.05296022366e-05 0)
(0.150634186514 -8.34387405101e-05 0)
(0.150949310381 -9.9405367499e-05 0)
(0.151342486414 -0.000119267633027 0)
(0.151833933922 -0.000144116850716 0)
(0.152449605054 -0.000175386789201 0)
(0.153223092796 -0.000214979741566 0)
(0.154198315219 -0.000265433379493 0)
(0.155433440477 -0.000330162809493 0)
(0.157006898867 -0.000413931377467 0)
(0.159027376619 -0.000524088715334 0)
(0.161653527719 -0.000675061956804 0)
(0.1651404468 -0.000906017774573 0)
(0.169955731885 -0.00134707608272 0)
(0.177132230839 -0.00246410039896 0)
(0.189734903919 -0.0060152128966 0)
(0.217350974613 -0.0188265944178 0)
(0.279042448995 -0.0670566793379 0)
(0.977201169372 0.296997140525 0)
(0.962687408645 0.250387320217 0)
(0.820645869638 0.158581100623 0)
(0.697824610687 0.0957994565045 0)
(0.610491293389 0.0579133705575 0)
(0.5491329377 0.0359038890962 0)
(0.506705790874 0.0229308495753 0)
(0.477662352694 0.014978560861 0)
(0.45781669216 0.00990905010615 0)
(0.444280883351 0.00658211509604 0)
(0.435093258306 0.00436011903886 0)
(0.428905671118 0.00286412989985 0)
(0.424783715854 0.00185606620612 0)
(0.422077115125 0.00117987396337 0)
(0.420332872825 0.000730337988146 0)
(0.419236152647 0.000435349720969 0)
(0.418569320349 0.000245121397521 0)
(0.418183125876 0.000125242648998 0)
(0.417976261389 5.20118988106e-05 0)
(0.417880846537 9.23188589358e-06 0)
(0.417851945747 -1.39562883774e-05 0)
(0.417860461 -2.49756734844e-05 0)
(0.417888072835 -2.87280807767e-05 0)
(0.417923439923 -2.82934183324e-05 0)
(0.417959900061 -2.56614317869e-05 0)
(0.417993815823 -2.20698173464e-05 0)
(0.418023447142 -1.82553512485e-05 0)
(0.418048210546 -1.4632301304e-05 0)
(0.418068194577 -1.14107527184e-05 0)
(0.418083846715 -8.67461589481e-06 0)
(0.418095775671 -6.43262247051e-06 0)
(0.418104630346 -4.65087215921e-06 0)
(0.418111030495 -3.27404883848e-06 0)
(0.418115529179 -2.23846816486e-06 0)
(0.418118596602 -1.48006522661e-06 0)
(0.41812061753 -9.39609667268e-07 0)
(0.41812189553 -5.65228907474e-07 0)
(0.418122662373 -3.13827786811e-07 0)
(0.418123088426 -1.51517756945e-07 0)
(0.418123292946 -5.37203630637e-08 0)
(0.41812335967 -3.9091516647e-09 0)
(0.418123352077 2.113275128e-08 0)
(0.418123311295 2.91874407047e-08 0)
(0.418123257989 2.72699108621e-08 0)
(0.418123202685 2.04841438005e-08 0)
(0.41812315176 1.17145460602e-08 0)
(0.418123107664 2.60195400091e-09 0)
(0.418123070303 -5.73574808634e-09 0)
(0.418123039296 -1.22514290838e-08 0)
(0.418123014956 -1.6747388249e-08 0)
(0.418122996865 -2.01176562607e-08 0)
(0.418122983501 -2.28332955618e-08 0)
(0.418122973148 -2.49650025054e-08 0)
(0.418122964184 -2.70543197222e-08 0)
(0.418122955247 -2.94865866892e-08 0)
(0.418122945616 -3.22810791679e-08 0)
(0.418122935304 -3.5151564076e-08 0)
(0.418122924677 -3.78076397913e-08 0)
(0.418122914031 -4.0029544879e-08 0)
(0.418122903417 -4.19131931424e-08 0)
(0.418122892635 -4.38754903078e-08 0)
(0.418122881262 -4.63531445861e-08 0)
(0.418122868835 -4.96023047726e-08 0)
(0.418122855064 -5.35797793317e-08 0)
(0.418122840044 -5.7929272591e-08 0)
(0.418122824394 -6.22611547242e-08 0)
(0.418122808909 -6.64193098494e-08 0)
(0.41812279396 -7.04552640812e-08 0)
(0.418122779374 -7.45650545758e-08 0)
(0.418122764845 -7.90512296994e-08 0)
(0.418122750076 -8.39689278962e-08 0)
(0.418122734621 -8.905516984e-08 0)
(0.418122718321 -9.4076256758e-08 0)
(0.418122701753 -9.90747451216e-08 0)
(0.418122685531 -1.0412304902e-07 0)
(0.418122669426 -1.09285348135e-07 0)
(0.418122652741 -1.14850944987e-07 0)
(0.418122635152 -1.21033930148e-07 0)
(0.418122616765 -1.27546766271e-07 0)
(0.418122597669 -1.34089857186e-07 0)
(0.418122577742 -1.41014434144e-07 0)
(0.418122556671 -1.48821303346e-07 0)
(0.41812253428 -1.57370533819e-07 0)
(0.418122510987 -1.66189939622e-07 0)
(0.418122487506 -1.75037348869e-07 0)
(0.418122464113 -1.83875369808e-07 0)
(0.418122440789 -1.9286305373e-07 0)
(0.418122417849 -2.02405674406e-07 0)
(0.418122395968 -2.12867091354e-07 0)
(0.418122375745 -2.24226640044e-07 0)
(0.41812235752 -2.36121932426e-07 0)
(0.418122341526 -2.48488818533e-07 0)
(0.41812232742 -2.6199155417e-07 0)
(0.418122314099 -2.77488989676e-07 0)
(0.418122301675 -2.95238580197e-07 0)
(0.418122292777 -3.14473479605e-07 0)
(0.41812229052 -3.34123513519e-07 0)
(0.418122296422 -3.54555644687e-07 0)
(0.418122310868 -3.78020040266e-07 0)
(0.418122335144 -4.06882644433e-07 0)
(0.41812237155 -4.40166083813e-07 0)
(0.418122422852 -4.7698320383e-07 0)
(0.418122492957 -5.17536634356e-07 0)
(0.418122586891 -5.62985332149e-07 0)
(0.418122710393 -6.14262209847e-07 0)
(0.41812287084 -6.71954428812e-07 0)
(0.41812307749 -7.36785581271e-07 0)
(0.418123339341 -8.09210308004e-07 0)
(0.418123663966 -8.88639749786e-07 0)
(0.418124062441 -9.71030734873e-07 0)
(0.418124566484 -1.04976334534e-06 0)
(0.418125209842 -1.13556758279e-06 0)
(0.418126018985 -1.23489534483e-06 0)
(0.418127031132 -1.35331444669e-06 0)
(0.418128293738 -1.49597061802e-06 0)
(0.418129864272 -1.66855888916e-06 0)
(0.418131815055 -1.88011300035e-06 0)
(0.418134237669 -2.14239711523e-06 0)
(0.418137245454 -2.46806291441e-06 0)
(0.418140977381 -2.87220353406e-06 0)
(0.418145604131 -3.37523416673e-06 0)
(0.418151334499 -4.00426391907e-06 0)
(0.418158419159 -4.79609423539e-06 0)
(0.418167159717 -5.81685522548e-06 0)
(0.4181779851 -7.19309036358e-06 0)
(0.418191454538 -8.98065777575e-06 0)
(0.418208195847 -1.12244508889e-05 0)
(0.418228969039 -1.40104167578e-05 0)
(0.418254728659 -1.74564566018e-05 0)
(0.41828666446 -2.17162000839e-05 0)
(0.418326252847 -2.69836374053e-05 0)
(0.418375322184 -3.34969786902e-05 0)
(0.418436140064 -4.15503987004e-05 0)
(0.418511521534 -5.15081814186e-05 0)
(0.418604963015 -6.38228360201e-05 0)
(0.418720806336 -7.90567440512e-05 0)
(0.418864445184 -9.79102007797e-05 0)
(0.419042591103 -0.000121259837582 0)
(0.419263598408 -0.000150201099894 0)
(0.419537876665 -0.000186107076291 0)
(0.419878427512 -0.00023071198684 0)
(0.420301516814 -0.000286210506074 0)
(0.420827532967 -0.000355389729821 0)
(0.421482114074 -0.000441814775226 0)
(0.422297626978 -0.000550078739319 0)
(0.423315116616 -0.000686149175296 0)
(0.424586925589 -0.000857858383143 0)
(0.426180298352 -0.00107562221327 0)
(0.428182453494 -0.00135354065926 0)
(0.430707922856 -0.0017111148762 0)
(0.433909598981 -0.00217614456776 0)
(0.437996276499 -0.00279014866611 0)
(0.443262253903 -0.00361965597682 0)
(0.450141404968 -0.00478313134839 0)
(0.459313688683 -0.00652244937711 0)
(0.471909957028 -0.00940134509569 0)
(0.489894620844 -0.0148600137134 0)
(0.517038157133 -0.026827696742 0)
(0.560814839663 -0.0564316676614 0)
(0.626668664259 -0.131610429419 0)
(1.03387037799 0.239241017042 0)
(1.08314075974 0.293634502585 0)
(1.0329442254 0.239132107952 0)
(0.95440795598 0.174539204114 0)
(0.880112303228 0.121551568253 0)
(0.818677468588 0.0832334783705 0)
(0.771467073741 0.0568252819721 0)
(0.73669277826 0.03881135444 0)
(0.711674975084 0.0264890703575 0)
(0.693958698205 0.0180199166159 0)
(0.681577805893 0.0121821464425 0)
(0.67303388956 0.00815883391017 0)
(0.667215127343 0.0053953854937 0)
(0.663310374749 0.00350936691607 0)
(0.660734890864 0.0022339422572 0)
(0.659071466956 0.00138169713671 0)
(0.658025438959 0.000820755448342 0)
(0.657390888581 0.000458510372078 0)
(0.657025542783 0.000230262722959 0)
(0.656832335041 9.11412452594e-05 0)
(0.656745957643 1.02885937688e-05 0)
(0.656723091668 -3.31183961032e-05 0)
(0.656735687852 -5.32829720566e-05 0)
(0.65676601511 -5.943681463e-05 0)
(0.656803117608 -5.7624377336e-05 0)
(0.656840612456 -5.17039616873e-05 0)
(0.656875055726 -4.40649420338e-05 0)
(0.656904851126 -3.61289565408e-05 0)
(0.656929527627 -2.86907474813e-05 0)
(0.656949263147 -2.21456147265e-05 0)
(0.65696457566 -1.66407396945e-05 0)
(0.656976127851 -1.21747198987e-05 0)
(0.656984608604 -8.66290491363e-06 0)
(0.656990664221 -5.98032246931e-06 0)
(0.656994863027 -3.98817192978e-06 0)
(0.656997681621 -2.55095162149e-06 0)
(0.656999503846 -1.54602685666e-06 0)
(0.657000628329 -8.68101572193e-07 0)
(0.657001279899 -4.30795336514e-07 0)
(0.657001623055 -1.64701217413e-07 0)
(0.657001776224 -1.31918189924e-08 0)
(0.657001815545 6.83847127484e-08 0)
(0.657001790668 1.09207271322e-07 0)
(0.657001738051 1.21667769737e-07 0)
(0.657001677166 1.17726115088e-07 0)
(0.657001618354 1.05941930122e-07 0)
(0.657001566595 9.12685752022e-08 0)
(0.657001523762 7.66970631266e-08 0)
(0.657001489477 6.42880884821e-08 0)
(0.657001461631 5.48653686625e-08 0)
(0.657001438671 4.84447507072e-08 0)
(0.657001420282 4.53575402344e-08 0)
(0.657001405404 4.53177743272e-08 0)
(0.657001392379 4.74100804172e-08 0)
(0.657001380051 5.07461159999e-08 0)
(0.657001367794 5.47519431226e-08 0)
(0.657001355303 5.90999460746e-08 0)
(0.657001342532 6.38325354028e-08 0)
(0.657001329519 6.90549753724e-08 0)
(0.657001316101 7.47710725763e-08 0)
(0.657001302026 8.08734072675e-08 0)
(0.657001287037 8.7234030946e-08 0)
(0.657001270964 9.37051285897e-08 0)
(0.657001253798 1.00220844119e-07 0)
(0.657001235679 1.07023489789e-07 0)
(0.657001216907 1.14516119147e-07 0)
(0.657001197877 1.22826762264e-07 0)
(0.657001178843 1.3178219033e-07 0)
(0.657001159749 1.41246973725e-07 0)
(0.657001140522 1.51203061612e-07 0)
(0.657001121115 1.61562214362e-07 0)
(0.657001101196 1.72537079968e-07 0)
(0.657001080393 1.84615076383e-07 0)
(0.657001058893 1.97969800371e-07 0)
(0.657001037139 2.12268835167e-07 0)
(0.657001015 2.27149857803e-07 0)
(0.657000992029 2.42516411723e-07 0)
(0.657000968234 2.58424141041e-07 0)
(0.657000943826 2.75007147516e-07 0)
(0.657000918624 2.92427689407e-07 0)
(0.657000892287 3.10661828175e-07 0)
(0.657000864716 3.29620847801e-07 0)
(0.657000835983 3.49539320272e-07 0)
(0.657000806359 3.70742347216e-07 0)
(0.657000776346 3.93228312398e-07 0)
(0.657000746374 4.16931013101e-07 0)
(0.657000716655 4.41992584741e-07 0)
(0.657000687354 4.68395922502e-07 0)
(0.657000658856 4.95740676993e-07 0)
(0.657000631937 5.23710860867e-07 0)
(0.657000607403 5.52544385355e-07 0)
(0.657000585611 5.82379072917e-07 0)
(0.657000566332 6.12524710524e-07 0)
(0.657000549067 6.42474381715e-07 0)
(0.657000534445 6.72810426297e-07 0)
(0.657000525013 7.04370608866e-07 0)
(0.657000523395 7.37322705587e-07 0)
(0.657000530504 7.7133317631e-07 0)
(0.657000546827 8.06605094494e-07 0)
(0.65700057674 8.43993769086e-07 0)
(0.65700062553 8.81316905807e-07 0)
(0.657000696663 9.17529034759e-07 0)
(0.657000794798 9.5175764213e-07 0)
(0.657000926719 9.82239703888e-07 0)
(0.657001100963 1.00713625647e-06 0)
(0.657001327853 1.02462175391e-06 0)
(0.657001620716 1.03152196893e-06 0)
(0.657001996408 1.02390342016e-06 0)
(0.65700247696 9.99105125998e-07 0)
(0.657003089919 9.58357960103e-07 0)
(0.657003855847 9.05172677637e-07 0)
(0.657004802122 8.24535013153e-07 0)
(0.657005977751 7.03684661746e-07 0)
(0.65700744049 5.28715727527e-07 0)
(0.657009260358 2.83004798211e-07 0)
(0.657011521501 -5.2411028452e-08 0)
(0.657014327272 -5.00785810676e-07 0)
(0.657017807432 -1.09185092156e-06 0)
(0.657022123052 -1.86321370645e-06 0)
(0.657027472501 -2.86177833051e-06 0)
(0.657034101002 -4.1459197764e-06 0)
(0.657042313818 -5.78854031016e-06 0)
(0.657052490943 -7.87803289236e-06 0)
(0.657065098898 -1.05175336097e-05 0)
(0.657080715711 -1.38225086196e-05 0)
(0.657100059675 -1.79781880723e-05 0)
(0.657124019078 -2.32208151395e-05 0)
(0.657153701012 -2.98275044583e-05 0)
(0.657190477597 -3.81361842943e-05 0)
(0.657236046625 -4.85673925643e-05 0)
(0.657292513468 -6.16447559715e-05 0)
(0.657362487167 -7.80167584469e-05 0)
(0.657449202763 -9.84869694452e-05 0)
(0.65755667435 -0.000124051910234 0)
(0.657689885346 -0.000155950098102 0)
(0.657855024068 -0.000195722428876 0)
(0.658059776536 -0.00024528631785 0)
(0.658313701175 -0.000307037560319 0)
(0.658628693926 -0.000383974864404 0)
(0.659019569916 -0.000479852702849 0)
(0.659504813027 -0.000599392417182 0)
(0.660107525308 -0.000748561411409 0)
(0.660856633995 -0.00093493260112 0)
(0.66178845668 -0.00116816844455 0)
(0.662948745269 -0.00146069339858 0)
(0.664395380321 -0.0018286317472 0)
(0.666201965115 -0.00229313559998 0)
(0.66846270456 -0.00288233659293 0)
(0.67129920913 -0.00363432261334 0)
(0.674870206685 -0.00460187152269 0)
(0.67938581387 -0.00586041516059 0)
(0.685129377433 -0.00752235995709 0)
(0.69249201143 -0.00976480965658 0)
(0.702028916538 -0.0128870664484 0)
(0.714552888225 -0.0174370404088 0)
(0.731274484614 -0.0244969477918 0)
(0.753947732339 -0.0363095103802 0)
(0.784967808439 -0.0575725935854 0)
(0.826926030496 -0.0979539810004 0)
(0.876048696107 -0.174370872372 0)
(1.03384127315 0.171307022614 0)
(1.10231580731 0.27555692762 0)
(1.11663611589 0.266312607443 0)
(1.09207911185 0.219892810781 0)
(1.05195410795 0.16821034217 0)
(1.01022236286 0.123614932283 0)
(0.973508429626 0.0888838846087 0)
(0.943887734141 0.063047060191 0)
(0.921166415106 0.0442566062433 0)
(0.904306284876 0.0307678187648 0)
(0.892096751407 0.021173317323 0)
(0.883427601605 0.0144038963332 0)
(0.877379034528 0.009667823023 0)
(0.873229833386 0.00638542101271 0)
(0.870433464156 0.00413492115466 0)
(0.868585555834 0.00261107530626 0)
(0.867392456472 0.00159427365485 0)
(0.866644278116 0.000927625709382 0)
(0.866193162102 0.000499965424708 0)
(0.865936410436 0.000233253055648 0)
(0.865803729074 7.32455010865e-05 0)
(0.865747609218 -1.73393906072e-05 0)
(0.865736687097 -6.36466585076e-05 0)
(0.865750659568 -8.27617875151e-05 0)
(0.865776570618 -8.58176514291e-05 0)
(0.865806557705 -8.00353077277e-05 0)
(0.865836086514 -6.99906653981e-05 0)
(0.865862764185 -5.84848010478e-05 0)
(0.865885544515 -4.71513878792e-05 0)
(0.865904195851 -3.68680337551e-05 0)
(0.865918948808 -2.80326947065e-05 0)
(0.865930267852 -2.07484074072e-05 0)
(0.865938707692 -1.49455874906e-05 0)
(0.865944826272 -1.04632667819e-05 0)
(0.865949135678 -7.10075583955e-06 0)
(0.865952078324 -4.65066861056e-06 0)
(0.86595401909 -2.91867142336e-06 0)
(0.86595524733 -1.73361709588e-06 0)
(0.865955984473 -9.52263779251e-07 0)
(0.865956394395 -4.59481418251e-07 0)
(0.865956596119 -1.66440773286e-07 0)
(0.865956674432 -8.39332088761e-09 0)
(0.865956679567 6.61618758017e-08 0)
(0.86595664394 9.08533171232e-08 0)
(0.865956592874 8.79015034317e-08 0)
(0.865956539339 7.14661375028e-08 0)
(0.865956489264 4.9963273995e-08 0)
(0.865956445146 2.80747540203e-08 0)
(0.86595640769 8.01176255467e-09 0)
(0.865956377134 -8.90136608066e-09 0)
(0.865956353596 -2.15308498938e-08 0)
(0.865956335717 -3.04731949203e-08 0)
(0.865956320792 -3.80453222844e-08 0)
(0.86595630655 -4.54455438707e-08 0)
(0.865956291652 -5.21391460455e-08 0)
(0.865956275557 -5.77631950387e-08 0)
(0.865956258559 -6.26246746519e-08 0)
(0.865956241228 -6.70716567023e-08 0)
(0.865956223779 -7.1511536903e-08 0)
(0.865956206115 -7.63137433613e-08 0)
(0.865956187908 -8.17188150304e-08 0)
(0.865956168587 -8.77347623025e-08 0)
(0.865956147638 -9.42194447276e-08 0)
(0.865956125018 -1.01107150093e-07 0)
(0.865956101107 -1.08375502461e-07 0)
(0.865956076378 -1.15924397087e-07 0)
(0.865956051191 -1.23729650801e-07 0)
(0.865956025781 -1.3194548095e-07 0)
(0.865956000228 -1.40516045008e-07 0)
(0.865955974342 -1.49096124943e-07 0)
(0.865955947883 -1.57685430927e-07 0)
(0.865955920652 -1.66489369066e-07 0)
(0.865955892385 -1.75435070862e-07 0)
(0.865955863115 -1.84345013852e-07 0)
(0.865955833176 -1.934575276e-07 0)
(0.865955802567 -2.03282724315e-07 0)
(0.865955770896 -2.141077246e-07 0)
(0.865955738016 -2.2604288724e-07 0)
(0.865955704055 -2.39182721631e-07 0)
(0.865955668913 -2.53357563357e-07 0)
(0.865955632378 -2.68249832831e-07 0)
(0.865955594541 -2.83797914023e-07 0)
(0.865955555613 -2.99960165769e-07 0)
(0.865955515755 -3.16505574289e-07 0)
(0.865955475304 -3.33437714084e-07 0)
(0.865955434783 -3.51066310546e-07 0)
(0.86595539456 -3.69749323695e-07 0)
(0.865955354631 -3.89956878998e-07 0)
(0.865955315217 -4.12264425987e-07 0)
(0.86595527751 -4.3704174786e-07 0)
(0.865955242767 -4.64472518959e-07 0)
(0.865955211023 -4.94890206808e-07 0)
(0.865955181799 -5.28794333837e-07 0)
(0.865955155324 -5.66297851381e-07 0)
(0.865955133083 -6.06966403111e-07 0)
(0.865955117909 -6.50842499568e-07 0)
(0.865955112939 -6.98969482545e-07 0)
(0.865955120938 -7.52460929122e-07 0)
(0.865955144598 -8.11133443432e-07 0)
(0.865955184875 -8.73875286322e-07 0)
(0.865955244243 -9.43192180188e-07 0)
(0.865955328909 -1.02132957869e-06 0)
(0.865955445368 -1.11033856205e-06 0)
(0.865955601507 -1.21305633077e-06 0)
(0.865955807293 -1.33286879117e-06 0)
(0.865956074477 -1.47328268721e-06 0)
(0.865956417448 -1.63933957252e-06 0)
(0.865956853915 -1.83840557662e-06 0)
(0.865957405696 -2.07975896487e-06 0)
(0.865958101323 -2.37667585343e-06 0)
(0.865958975535 -2.74752652018e-06 0)
(0.865960070224 -3.20191990957e-06 0)
(0.865961437106 -3.75649481011e-06 0)
(0.865963139764 -4.43422140649e-06 0)
(0.865965258751 -5.26476879197e-06 0)
(0.865967892949 -6.2848812435e-06 0)
(0.86597116344 -7.53940229119e-06 0)
(0.865975221043 -9.08395147122e-06 0)
(0.865980253464 -1.09881453812e-05 0)
(0.86598649265 -1.33380837679e-05 0)
(0.865994224873 -1.62401408122e-05 0)
(0.86600380626 -1.98274183834e-05 0)
(0.866015679899 -2.42667741308e-05 0)
(0.866030393068 -2.97691345891e-05 0)
(0.866048623152 -3.65931878703e-05 0)
(0.866071207707 -4.50536005495e-05 0)
(0.866099182871 -5.55338035142e-05 0)
(0.866133837159 -6.85113416039e-05 0)
(0.866176768283 -8.45833549875e-05 0)
(0.866229954956 -0.000104492630854 0)
(0.866295850374 -0.000129163495668 0)
(0.866377495407 -0.000159745318271 0)
(0.866478661301 -0.000197666515966 0)
(0.866604026109 -0.000244701468733 0)
(0.866759395415 -0.000303056820063 0)
(0.866951977163 -0.000375480697436 0)
(0.86719071799 -0.000465396336287 0)
(0.867486732971 -0.000577078118871 0)
(0.867853848143 -0.000715875323429 0)
(0.868309270185 -0.000888488546774 0)
(0.868874432798 -0.00110333647776 0)
(0.86957607541 -0.00137104298025 0)
(0.870447614952 -0.0017050694991 0)
(0.871530895689 -0.00212255981321 0)
(0.872878448173 -0.00264549401246 0)
(0.874556437997 -0.00330228956638 0)
(0.876648536862 -0.00413007594731 0)
(0.879261076436 -0.00517798468752 0)
(0.88253003736 -0.00651208500879 0)
(0.886630659041 -0.00822311628828 0)
(0.891790868801 -0.0104390692726 0)
(0.89831032462 -0.0133467380362 0)
(0.906587312898 -0.0172306038743 0)
(0.917155486434 -0.0225458463287 0)
(0.930728882488 -0.0300594852603 0)
(0.948232901083 -0.0411238376359 0)
(0.970727999133 -0.0581733550848 0)
(0.999037650669 -0.0854853932078 0)
(1.03259664188 -0.129983406785 0)
(1.06499536054 -0.200244443433 0)
(1.0238834548 0.119322065873 0)
(1.08875434658 0.231514632573 0)
(1.13660480858 0.252869195278 0)
(1.15406272146 0.228905224124 0)
(1.15000121101 0.188337272576 0)
(1.1353765801 0.146576550832 0)
(1.11757863707 0.110162985471 0)
(1.10059376355 0.0808340708639 0)
(1.08612564143 0.0582442223233 0)
(1.07459305075 0.04133252903 0)
(1.06579536785 0.0289228825835 0)
(1.05929441134 0.0199586598134 0)
(1.0546097572 0.0135709365272 0)
(1.05130572838 0.00907736474832 0)
(1.04902136666 0.00595688253526 0)
(1.04747310947 0.0038192539857 0)
(1.04644597816 0.00237665173961 0)
(1.04578119258 0.00141956966246 0)
(1.04536389206 0.000797368634957 0)
(1.04511244982 0.000403017642715 0)
(1.04496979442 0.000161354215756 0)
(1.04489670867 2.02072981434e-05 0)
(1.04486654746 -5.59861403248e-05 0)
(1.04486161484 -9.15706271606e-05 0)
(1.04487050852 -0.000102578660683 0)
(1.04488592662 -9.95445268057e-05 0)
(1.0449034382 -8.92374745175e-05 0)
(1.04492050293 -7.58784962987e-05 0)
(1.0449357965 -6.19955011312e-05 0)
(1.04494876002 -4.90072941158e-05 0)
(1.0449592955 -3.76189615307e-05 0)
(1.04496756389 -2.8088766426e-05 0)
(1.04497385441 -2.04064369311e-05 0)
(1.04497850196 -1.4412194465e-05 0)
(1.04498183776 -9.87428474827e-06 0)
(1.04498416163 -6.53835195308e-06 0)
(1.0449857292 -4.15826096273e-06 0)
(1.04498674852 -2.51310919717e-06 0)
(1.04498738209 -1.4152431242e-06 0)
(1.0449877528 -7.12091978872e-07 0)
(1.04498795121 -2.8386684843e-07 0)
(1.04498804038 -4.13912117362e-08 0)
(1.04498806369 7.76392517713e-08 0)
(1.04498805157 1.24358127704e-07 0)
(1.04498802236 1.31077039145e-07 0)
(1.04498798681 1.17740494596e-07 0)
(1.04498795102 9.6577169876e-08 0)
(1.04498791825 7.47152511462e-08 0)
(1.04498788991 5.58719250089e-08 0)
(1.04498786599 4.13507735294e-08 0)
(1.04498784529 3.05223011196e-08 0)
(1.04498782577 2.18203293473e-08 0)
(1.04498780642 1.47272117691e-08 0)
(1.04498778819 1.03812798738e-08 0)
(1.04498777136 7.7246726936e-09 0)
(1.04498775473 6.35032420931e-09 0)
(1.04498773747 6.36321346495e-09 0)
(1.04498771937 7.44202167224e-09 0)
(1.04498770025 9.00672143601e-09 0)
(1.0449876799 1.0537133489e-08 0)
(1.04498765826 1.16726161619e-08 0)
(1.04498763536 1.23517163923e-08 0)
(1.04498761116 1.28808436696e-08 0)
(1.0449875857 1.3621188764e-08 0)
(1.04498755918 1.47090378277e-08 0)
(1.04498753172 1.61397234269e-08 0)
(1.04498750342 1.78204085744e-08 0)
(1.04498747453 1.9558824603e-08 0)
(1.04498744553 2.13717346135e-08 0)
(1.04498741646 2.36346726154e-08 0)
(1.04498738685 2.66354057019e-08 0)
(1.04498735626 3.01406207425e-08 0)
(1.04498732449 3.39116510524e-08 0)
(1.04498729145 3.8046232667e-08 0)
(1.0449872571 4.25737158452e-08 0)
(1.0449872213 4.71822379467e-08 0)
(1.04498718385 5.15750342396e-08 0)
(1.04498714485 5.56923139082e-08 0)
(1.0449871047 5.95488930145e-08 0)
(1.04498706355 6.3315312541e-08 0)
(1.04498702115 6.73485676897e-08 0)
(1.04498697743 7.18018176685e-08 0)
(1.04498693264 7.66045814762e-08 0)
(1.04498688694 8.17858028476e-08 0)
(1.0449868404 8.73719402739e-08 0)
(1.04498679316 9.32174775621e-08 0)
(1.04498674532 9.90147288344e-08 0)
(1.04498669687 1.04380866454e-07 0)
(1.04498664816 1.09007442323e-07 0)
(1.0449866004 1.12621953545e-07 0)
(1.04498655489 1.14724262841e-07 0)
(1.04498651203 1.14753957626e-07 0)
(1.0449864719 1.12441792339e-07 0)
(1.04498643527 1.07847137586e-07 0)
(1.04498640343 1.01054195231e-07 0)
(1.04498637803 9.12556694592e-08 0)
(1.04498636115 7.65204359126e-08 0)
(1.04498635522 5.46064713358e-08 0)
(1.04498636324 2.3215315301e-08 0)
(1.04498638854 -2.02834828353e-08 0)
(1.04498643532 -7.70699942927e-08 0)
(1.04498650904 -1.49953721478e-07 0)
(1.04498661571 -2.42552860567e-07 0)
(1.04498676321 -3.59517094242e-07 0)
(1.04498696231 -5.06706154549e-07 0)
(1.04498722569 -6.90645779448e-07 0)
(1.04498756812 -9.19244193881e-07 0)
(1.04498800831 -1.20263891436e-06 0)
(1.0449885703 -1.5520791498e-06 0)
(1.04498928319 -1.98064627998e-06 0)
(1.04499018076 -2.50727630506e-06 0)
(1.04499130533 -3.15653488709e-06 0)
(1.04499271106 -3.95852654336e-06 0)
(1.04499446481 -4.94825163131e-06 0)
(1.04499664999 -6.16947724934e-06 0)
(1.04499936953 -7.67730385352e-06 0)
(1.04500274936 -9.53943003712e-06 0)
(1.04500694535 -1.18390038568e-05 0)
(1.04501215198 -1.46788057162e-05 0)
(1.04501861058 -1.81865212238e-05 0)
(1.04502661872 -2.25208891331e-05 0)
(1.04503654604 -2.78791097574e-05 0)
(1.0450488517 -3.45068112679e-05 0)
(1.04506410217 -4.27105216297e-05 0)
(1.04508299995 -5.28710734644e-05 0)
(1.0451064152 -6.5457675159e-05 0)
(1.04513542233 -8.10464734954e-05 0)
(1.04517135495 -0.000100352437912 0)
(1.04521586919 -0.000124263586177 0)
(1.04527101677 -0.000153880408059 0)
(1.04533933914 -0.000190569420731 0)
(1.04542398634 -0.000236028061562 0)
(1.04552886486 -0.000292364574981 0)
(1.04565881812 -0.000362197315555 0)
(1.04581985359 -0.00044878149115 0)
(1.04601942635 -0.000556171087378 0)
(1.0462667829 -0.000689415318655 0)
(1.0465733973 -0.000854809176997 0)
(1.04695352583 -0.001060220012 0)
(1.04742488724 -0.00131549862529 0)
(1.04800950869 -0.00163300725154 0)
(1.04873479996 -0.00202830976616 0)
(1.0496349114 -0.00252107759615 0)
(1.05075244311 -0.00313629350018 0)
(1.05214061433 -0.00390586619686 0)
(1.05386602929 -0.0048708477941 0)
(1.05601222803 -0.00608454056983 0)