/*--------------------------------*- C++ -*----------------------------------*\
| =========                 |                                                 |
| \\      /  F ield         | OpenFOAM: The Open Source CFD Toolbox           |
|  \\    /   O peration     | Version:  2106                                  |
|   \\  /    A nd           | Website:  www.openfoam.com                      |
|    \\/     M anipulation  |                                                 |
\*---------------------------------------------------------------------------*/
FoamFile
{
    version     2.0;
    format      ascii;
    arch        "LSB;label=32;scalar=64";
    class       surfaceScalarField;
    location    "0.47";
    object      phi;
}
// * * * * * * * * * * * * * * * * * * * * * * * * * * * * * * * * * * * * * //

dimensions      [0 3 -1 0 0 0 0];

oriented        oriented;

internalField   nonuniform List<scalar> 
18840
(
3.37543046344e-05
1.62456953661e-05
2.25359622619e-05
1.12183417069e-05
1.63023778095e-05
6.23358461284e-06
1.28098252985e-05
3.49255280154e-06
1.08065798715e-05
2.00324503801e-06
9.60476923324e-06
1.20181083971e-06
8.85167873201e-06
7.53090495262e-07
8.3650309961e-06
4.86647829652e-07
8.0451865055e-06
3.1984459984e-07
7.83374235505e-06
2.11444212574e-07
7.69428235953e-06
1.39460015927e-07
7.60308060626e-06
9.12017133605e-08
7.54426562348e-06
5.88148961455e-08
7.50707730023e-06
3.71882387971e-08
7.48418934973e-06
2.28878739708e-08
7.47062386439e-06
1.35654432158e-08
7.46302140131e-06
7.60247268631e-09
7.4591387255e-06
3.88272088095e-09
7.45749906133e-06
1.63972069128e-09
7.45714602426e-06
3.53089914902e-10
7.45748339071e-06
-3.37335011105e-10
7.4581344409e-06
-6.51052444783e-10
7.45888641218e-06
-7.520009156e-10
7.4596200897e-06
-7.33717543606e-10
7.4602765597e-06
-6.56501735083e-10
7.46083306172e-06
-5.56510341008e-10
7.46128730179e-06
-4.54220920538e-10
7.46164758363e-06
-3.60239961321e-10
7.46192681166e-06
-2.79181655437e-10
7.46213903102e-06
-2.12193038509e-10
7.46229757904e-06
-1.58553131662e-10
7.46241420457e-06
-1.16660122729e-10
7.46249876407e-06
-8.46108453532e-11
7.46255923925e-06
-6.05221621761e-11
7.46260191633e-06
-4.26988948564e-11
7.46263163413e-06
-2.97040136903e-11
7.46265204305e-06
-2.03640820644e-11
7.46266584899e-06
-1.37485881538e-11
7.46267503246e-06
-9.1367663019e-12
7.46268103098e-06
-5.97733689594e-12
7.46268488997e-06
-3.85948803945e-12
7.46268739471e-06
-2.51343949709e-12
7.46268895616e-06
-1.57742585807e-12
7.46268986327e-06
-9.27297631568e-13
7.46269040669e-06
-5.61325898918e-13
7.4626907515e-06
-3.62602865994e-13
7.46269099525e-06
-2.63682011957e-13
7.46269120363e-06
-2.20946281847e-13
7.4626914147e-06
-2.09651619946e-13
7.46269165413e-06
-2.23631709687e-13
7.46269192648e-06
-2.43004495021e-13
7.46269222306e-06
-2.66596130526e-13
7.46269253678e-06
-2.92384384495e-13
7.46269287428e-06
-3.21550656977e-13
7.46269324071e-06
-3.58584973301e-13
7.46269363583e-06
-4.02915934615e-13
7.46269406798e-06
-4.45503620862e-13
7.46269454007e-06
-4.87091679088e-13
7.46269504752e-06
-5.2869531202e-13
7.4626955881e-06
-5.67797367062e-13
7.46269615811e-06
-6.01937662623e-13
7.46269675687e-06
-6.29770184931e-13
7.46269738817e-06
-6.51343544714e-13
7.46269805072e-06
-6.71593022802e-13
7.46269874313e-06
-6.9473504024e-13
7.46269946796e-06
-7.21236269328e-13
7.46270022627e-06
-7.51390435773e-13
7.46270101759e-06
-7.88741774135e-13
7.4627018441e-06
-8.35397624219e-13
7.46270270917e-06
-8.83922026502e-13
7.46270361942e-06
-9.32307905999e-13
7.46270457963e-06
-9.80945445727e-13
7.46270559301e-06
-1.02643504093e-12
7.46270666082e-06
-1.06452292493e-12
7.46270777527e-06
-1.09702909226e-12
7.46270891951e-06
-1.12907688408e-12
7.46271007806e-06
-1.16741071542e-12
7.46271124879e-06
-1.21673658556e-12
7.46271244637e-06
-1.27488668599e-12
7.46271369456e-06
-1.33339055815e-12
7.46271501342e-06
-1.38344376716e-12
7.46271640993e-06
-1.42212731678e-12
7.46271787655e-06
-1.45330452969e-12
7.46271939637e-06
-1.48362573995e-12
7.46272095287e-06
-1.51979496911e-12
7.46272253816e-06
-1.56759021812e-12
7.46272415534e-06
-1.62856352616e-12
7.46272581548e-06
-1.69761811345e-12
7.46272753021e-06
-1.7659838787e-12
7.46272930473e-06
-1.82800428461e-12
7.4627311411e-06
-1.88558939458e-12
7.4627330476e-06
-1.94432653623e-12
7.46273503667e-06
-2.00638877316e-12
7.46273711343e-06
-2.07085856805e-12
7.46273927574e-06
-2.14217475374e-12
7.46274152566e-06
-2.23345775372e-12
7.4627438772e-06
-2.35432451743e-12
7.46274635641e-06
-2.49990724897e-12
7.46274898963e-06
-2.65851005594e-12
7.46275180764e-06
-2.83560647688e-12
7.46275487385e-06
-3.07261947012e-12
7.46275823213e-06
-3.36644281653e-12
7.46276193671e-06
-3.73177071677e-12
7.4627660634e-06
-4.16978212573e-12
7.46277072385e-06
-4.69537178663e-12
7.46277604298e-06
-5.33866527262e-12
7.46278218116e-06
-6.13006196542e-12
7.46278931395e-06
-7.10880896285e-12
7.46279766725e-06
-8.31678646089e-12
7.46280753723e-06
-9.82169771083e-12
7.46281930328e-06
-1.17043115173e-11
7.46283344045e-06
-1.4061378166e-11
7.4628505285e-06
-1.69934836252e-11
7.46287126533e-06
-2.06193959874e-11
7.46289650155e-06
-2.51101469346e-11
7.46292731403e-06
-3.0688663682e-11
7.46296504033e-06
-3.76221950631e-11
7.46301133926e-06
-4.62217128198e-11
7.46306827157e-06
-5.6869680974e-11
7.46313838218e-06
-7.00450662963e-11
7.46322481161e-06
-8.63379726656e-11
7.46333144066e-06
-1.06507528761e-10
7.46346314235e-06
-1.31587861401e-10
7.46362650363e-06
-1.63274904546e-10
7.46383226006e-06
-2.05677531887e-10
7.46408354384e-06
-2.51196130714e-10
7.46439295439e-06
-3.09306238964e-10
7.46477569379e-06
-3.82606823e-10
7.46524957734e-06
-4.73729602222e-10
7.46583641918e-06
-5.86659850028e-10
7.46656319576e-06
-7.26559159607e-10
7.46746332146e-06
-8.99889471556e-10
7.46857822887e-06
-1.11467163886e-09
7.46995932042e-06
-1.38086509205e-09
7.47167039467e-06
-1.7108584744e-09
7.47379068382e-06
-2.12008110232e-09
7.47641864161e-06
-2.62777732869e-09
7.47967672307e-06
-3.25796219553e-09
7.48371742188e-06
-4.04063264652e-09
7.48873087518e-06
-5.01340870966e-09
7.49495454032e-06
-6.22364225786e-09
7.50268562136e-06
-7.73107088257e-09
7.51229706227e-06
-9.61141479998e-09
7.52425836587e-06
-1.19612801232e-08
7.53916308882e-06
-1.49047246031e-08
7.55776544835e-06
-1.86023695197e-08
7.58102983316e-06
-2.32644038969e-08
7.61019905812e-06
-2.91692679102e-08
7.64689054821e-06
-3.66915313045e-08
7.69323621608e-06
-4.63457018838e-08
7.75209592121e-06
-5.88597691314e-08
7.82740990237e-06
-7.5314046385e-08
7.92485633184e-06
-9.74465422804e-08
8.05329886186e-06
-1.28442763181e-07
8.22852469139e-06
-1.75225918486e-07
8.48383066004e-06
-2.55305881082e-07
8.90140541012e-06
-4.17574744863e-07
9.71189890924e-06
-8.10493403933e-07
1.16228971819e-05
-1.91099824069e-06
-5.16911685544e-06
1.6792013715e-05
5.01388820815e-05
1.61068137812e-05
4.41591293713e-05
1.71980939647e-05
3.77598734027e-05
1.26328400565e-05
3.26495146765e-05
8.60291209675e-06
2.89465819874e-05
5.70617742787e-06
2.63676032106e-05
3.78078984352e-06
2.45938853514e-05
2.52680845876e-06
2.33783985159e-05
1.70213480415e-06
2.25473240969e-05
1.15091913688e-06
2.19811571076e-05
7.77611192926e-07
2.15978046854e-05
5.22812350915e-07
2.13405416682e-05
3.4846462792e-07
2.1169944151e-05
2.29412275216e-07
2.10585364307e-05
1.4859583441e-07
2.09871854032e-05
9.42388538162e-08
2.09426219531e-05
5.81289276468e-08
2.09157075148e-05
3.45169915249e-08
2.0900207795e-05
1.93825305337e-08
2.08919203637e-05
9.9272216655e-09
2.08880552384e-05
4.21825052693e-09
2.08867855589e-05
9.3233861409e-10
2.08869505193e-05
-8.16060187961e-10
2.08878287912e-05
-1.63033594765e-09
2.08889872713e-05
-1.89223921862e-09
2.08901806788e-05
-1.84991156209e-09
2.08912812552e-05
-1.65705033199e-09
2.08922327688e-05
-1.40567203824e-09
2.08930204966e-05
-1.14790258291e-09
2.08936521309e-05
-9.10778209415e-10
2.08941460276e-05
-7.06101797496e-10
2.08945242659e-05
-5.36850488157e-10
2.08948087774e-05
-4.01250964237e-10
2.08950193898e-05
-2.95285912994e-10
2.08951730219e-05
-2.14173800845e-10
2.08952835414e-05
-1.53189695609e-10
2.08953619807e-05
-1.08075201132e-10
2.08954169042e-05
-7.52029808132e-11
2.08954548223e-05
-5.15977270319e-11
2.08954806062e-05
-3.48842229391e-11
2.08954978439e-05
-2.32103997842e-11
2.08955091248e-05
-1.51633305186e-11
2.08955162696e-05
-9.69263405929e-12
2.08955207006e-05
-6.03932432007e-12
2.08955234089e-05
-3.66656054801e-12
2.08955249758e-05
-2.16078550548e-12
2.08955258011e-05
-1.21274274002e-12
2.08955261945e-05
-6.66447791285e-13
2.08955264413e-05
-4.57615923822e-13
2.08955266147e-05
-3.54341206685e-13
2.08955267611e-05
-3.25729702563e-13
2.08955269057e-05
-3.37759892688e-13
2.0895527059e-05
-3.77403217437e-13
2.08955272216e-05
-4.34479760373e-13
2.08955274028e-05
-5.03397778862e-13
2.08955276136e-05
-5.83465494356e-13
2.08955278592e-05
-6.74798974579e-13
2.08955281467e-05
-7.70985169495e-13
2.08955284768e-05
-8.63452429438e-13
2.0895528847e-05
-9.48252393757e-13
2.08955292528e-05
-1.02007160331e-12
2.08955296869e-05
-1.07616827465e-12
2.08955301445e-05
-1.11539739774e-12
2.08955306266e-05
-1.14218821043e-12
2.08955311304e-05
-1.16901178633e-12
2.08955316525e-05
-1.20567612824e-12
2.08955321965e-05
-1.25741127561e-12
2.08955327667e-05
-1.32501090639e-12
2.08955333655e-05
-1.40734118025e-12
2.0895533997e-05
-1.50525037373e-12
2.08955346626e-05
-1.60349379608e-12
2.08955353706e-05
-1.69006870221e-12
2.08955361272e-05
-1.76335591518e-12
2.08955369318e-05
-1.82838578926e-12
2.08955377796e-05
-1.89203472773e-12
2.08955386621e-05
-1.96026849837e-12
2.08955395645e-05
-2.03996969213e-12
2.08955404715e-05
-2.13505702107e-12
2.08955413831e-05
-2.24060427013e-12
2.08955423197e-05
-2.34361200091e-12
2.08955433113e-05
-2.43127032255e-12
2.0895544379e-05
-2.50078838084e-12
2.08955455258e-05
-2.56095122031e-12
2.08955467407e-05
-2.62524229962e-12
2.08955480063e-05
-2.7051249267e-12
2.08955493106e-05
-2.8071959107e-12
2.08955506541e-05
-2.93319723703e-12
2.08955520474e-05
-3.07926861781e-12
2.0895553504e-05
-3.23463460978e-12
2.08955550387e-05
-3.38711932008e-12
2.08955566675e-05
-3.53341392928e-12
2.08955584082e-05
-3.68057196544e-12
2.08955602789e-05
-3.83900421451e-12
2.08955622971e-05
-4.01931657524e-12
2.08955644793e-05
-4.2343772877e-12
2.08955668466e-05
-4.50050992047e-12
2.08955694328e-05
-4.83362650383e-12
2.0895572288e-05
-5.24217391004e-12
2.08955754828e-05
-5.72891542605e-12
2.08955791034e-05
-6.30514522448e-12
2.08955832496e-05
-7.00498244964e-12
2.08955879949e-05
-7.85249504777e-12
2.0895593475e-05
-8.89250823942e-12
2.08955998669e-05
-1.01745770934e-11
2.08956073907e-05
-1.1746242766e-11
2.0895616327e-05
-1.36597749071e-11
2.08956269996e-05
-1.6001097949e-11
2.08956397964e-05
-1.88720215848e-11
2.08956551653e-05
-2.23967390668e-11
2.08956736104e-05
-2.66737501983e-11
2.08956956059e-05
-3.17246660362e-11
2.08957218828e-05
-3.78652933863e-11
2.08957551307e-05
-4.71431842173e-11
2.08957962302e-05
-5.7878296504e-11
2.08958468736e-05
-7.10322903731e-11
2.08959092753e-05
-8.73017393602e-11
2.08959862218e-05
-1.07461886703e-10
2.08960811863e-05
-1.32446924175e-10
2.08961984757e-05
-1.63391360533e-10
2.08963434212e-05
-2.01691116134e-10
2.08965226071e-05
-2.49076483197e-10
2.08967441455e-05
-3.07683596326e-10
2.08970180211e-05
-3.80162422851e-10
2.08973564611e-05
-4.69809587494e-10
2.08977741736e-05
-5.8079315021e-10
2.08982872992e-05
-7.18617290388e-10
2.08989266015e-05
-8.90289869727e-10
2.08997210613e-05
-1.10351930002e-09
2.09007064577e-05
-1.36773547494e-09
2.09019278935e-05
-1.69488202606e-09
2.09034414902e-05
-2.09993923085e-09
2.09053168862e-05
-2.60158169471e-09
2.09076404317e-05
-3.22300550631e-09
2.09105192066e-05
-3.99297877719e-09
2.09140860158e-05
-4.9472176618e-09
2.09185056479e-05
-6.13009473841e-09
2.0923982697e-05
-7.59682379002e-09
2.09307713442e-05
-9.41623788204e-09
2.09391876865e-05
-1.16742356838e-08
2.09496252533e-05
-1.44782151961e-08
2.09625746077e-05
-1.79628409972e-08
2.09786483116e-05
-2.22974321917e-08
2.09986128782e-05
-2.76956453443e-08
2.10234299678e-05
-3.44284129567e-08
2.10543101044e-05
-4.28412620258e-08
2.10927834895e-05
-5.33779332262e-08
2.11407946268e-05
-6.6613397679e-08
2.12008312392e-05
-8.33009844673e-08
2.1276103676e-05
-1.04441687117e-07
2.13708020574e-05
-1.31390045844e-07
2.14904797689e-05
-1.66023776067e-07
2.16426536501e-05
-2.11034021283e-07
2.18378029405e-05
-2.70463642781e-07
2.20911495128e-05
-3.50793424668e-07
2.24260402239e-05
-4.63333660566e-07
2.28807011585e-05
-6.29886766786e-07
2.35219855887e-05
-8.96590098033e-07
2.44714287829e-05
-1.36701788724e-06
2.59410002531e-05
-2.2800650081e-06
2.82202656574e-05
-4.19026394491e-06
-8.20721320624e-06
3.12583615095e-05
5.35844267556e-05
1.25223872019e-05
5.29166010778e-05
1.78659198206e-05
4.96393010885e-05
1.59101393376e-05
4.58382172152e-05
1.24039965162e-05
4.24428745534e-05
9.10151986703e-06
3.97331594109e-05
6.4905051487e-06
3.76912455203e-05
4.56872245538e-06
3.62011672634e-05
3.19221312722e-06
3.51355939042e-05
2.21649252587e-06
3.4384844819e-05
1.52836028456e-06
3.38626592061e-05
1.04499789737e-06
3.35040067634e-05
7.07116929826e-07
3.32609626888e-05
4.72456233423e-07
3.30987206524e-05
3.10837824195e-07
3.29922906941e-05
2.00668820399e-07
3.29239195901e-05
1.2650007653e-07
3.28811297633e-05
7.73068883078e-08
3.28552512395e-05
4.52611290376e-08
3.28403347844e-05
2.48437330445e-08
3.28323548766e-05
1.21981801299e-08
3.28286289752e-05
4.65822537327e-09
3.28274050093e-05
4.07864796406e-10
3.28275644035e-05
-1.78977820858e-09
3.28284104357e-05
-2.73830771103e-09
3.28295265317e-05
-2.96602139582e-09
3.28306762123e-05
-2.80671669526e-09
3.28317363876e-05
-2.46581401163e-09
3.28326529112e-05
-2.06439271713e-09
3.28334116172e-05
-1.66946361998e-09
3.28340199348e-05
-1.31441839448e-09
3.28344955683e-05
-1.0125030872e-09
3.28348598034e-05
-7.65514236849e-10
3.28351337734e-05
-5.69275368432e-10
3.28353365726e-05
-4.16970036304e-10
3.28354844836e-05
-3.01073702206e-10
3.28355908491e-05
-2.14398343543e-10
3.28356662798e-05
-1.50593281072e-10
3.28357190157e-05
-1.04314288285e-10
3.28357553424e-05
-7.12133026754e-11
3.28357799765e-05
-4.78550006035e-11
3.28357964036e-05
-3.15992003846e-11
3.28358071616e-05
-2.04577743988e-11
3.28358140649e-05
-1.29480068812e-11
3.28358183771e-05
-7.98948307742e-12
3.28358209957e-05
-4.79977750325e-12
3.28358225722e-05
-2.80864896275e-12
3.28358235059e-05
-1.60857089125e-12
3.28358239677e-05
-9.11453481095e-13
3.28358241409e-05
-5.00192353933e-13
3.28358242348e-05
-3.76302806531e-13
3.28358242866e-05
-3.50421104884e-13
3.28358243248e-05
-3.87289585059e-13
3.28358243622e-05
-4.63715983477e-13
3.28358244087e-05
-5.67279693436e-13
3.28358244766e-05
-6.8425463537e-13
3.28358245838e-05
-8.16317495909e-13
3.2835824738e-05
-9.61925446878e-13
3.28358249358e-05
-1.09788235403e-12
3.28358251729e-05
-1.21600788251e-12
3.28358254444e-05
-1.3120137633e-12
3.2835825741e-05
-1.38326739522e-12
3.28358260534e-05
-1.43057746661e-12
3.28358263751e-05
-1.46134075476e-12
3.28358267025e-05
-1.49196217071e-12
3.28358270374e-05
-1.54100598246e-12
3.28358273848e-05
-1.61593958265e-12
3.28358277467e-05
-1.71408523026e-12
3.28358281261e-05
-1.8284999095e-12
3.2835828543e-05
-1.96643084733e-12
3.28358289922e-05
-2.09348100298e-12
3.28358294742e-05
-2.20215298246e-12
3.28358299917e-05
-2.29186174342e-12
3.28358305435e-05
-2.37246628152e-12
3.2835831124e-05
-2.45640271365e-12
3.28358317254e-05
-2.5538176817e-12
3.28358323373e-05
-2.67056507732e-12
3.28358329514e-05
-2.80429617128e-12
3.28358335714e-05
-2.94335063832e-12
3.28358342157e-05
-3.07309161971e-12
3.28358349084e-05
-3.18472914818e-12
3.28358356639e-05
-3.2801582868e-12
3.28358364809e-05
-3.3716380712e-12
3.28358373496e-05
-3.4772229866e-12
3.28358382611e-05
-3.61307695091e-12
3.28358392129e-05
-3.78483535697e-12
3.28358402107e-05
-3.98526094919e-12
3.28358412655e-05
-4.20120866236e-12
3.28358423917e-05
-4.42323644985e-12
3.28358436055e-05
-4.65019199665e-12
3.28358449255e-05
-4.88772045285e-12
3.28358463732e-05
-5.14560276367e-12
3.28358479721e-05
-5.4378989119e-12
3.28358497471e-05
-5.78440479577e-12
3.28358517268e-05
-6.2103434756e-12
3.28358539476e-05
-6.73864131084e-12
3.28358564595e-05
-7.38107890471e-12
3.28358593248e-05
-8.1457822901e-12
3.28358626148e-05
-9.04710239949e-12
3.28358663843e-05
-1.00910208615e-11
3.28358706653e-05
-1.13011315546e-11
3.28358759477e-05
-1.31717221994e-11
3.28358823113e-05
-1.53119367044e-11
3.28358899903e-05
-1.79036155199e-11
3.2835899292e-05
-2.1077115402e-11
3.28359106051e-05
-2.49721463982e-11
3.283592441e-05
-2.97703694539e-11
3.28359412978e-05
-3.5700955133e-11
3.28359620307e-05
-4.30463840184e-11
3.28359875987e-05
-5.21530535139e-11
3.28360194019e-05
-6.34426142547e-11
3.28360590824e-05
-7.74480288151e-11
3.28361069224e-05
-9.48684001406e-11
3.28361656315e-05
-1.16449560632e-10
3.28362379286e-05
-1.43180810461e-10
3.28363270674e-05
-1.76303443374e-10
3.28364370599e-05
-2.17337401924e-10
3.28365728755e-05
-2.68147546021e-10
3.28367406621e-05
-3.31045385994e-10
3.28369480282e-05
-4.08895450124e-10
3.28372043886e-05
-5.05243217569e-10
3.28375213831e-05
-6.24476530569e-10
3.28379134414e-05
-7.72027658837e-10
3.28383984888e-05
-9.54668515581e-10
3.28389988162e-05
-1.18094065653e-09
3.28397419437e-05
-1.46155917123e-09
3.28406613205e-05
-1.80946879957e-09
3.28417990602e-05
-2.24104400335e-09
3.28432075724e-05
-2.77601230808e-09
3.28449516887e-05
-3.43872381559e-09
3.28471116013e-05
-4.25955925861e-09
3.28497866196e-05
-5.27631142656e-09
3.28530998053e-05
-6.53589975315e-09
3.28572037037e-05
-8.09657400041e-09
3.28622874784e-05
-1.00306767108e-08
3.2868585794e-05
-1.24281074607e-08
3.28763899138e-05
-1.5400702685e-08
3.2886061608e-05
-1.90877591454e-08
3.28980505537e-05
-2.36630510185e-08
3.29129161966e-05
-2.93437909698e-08
3.29313554258e-05
-3.64020711879e-08
3.29542376533e-05
-4.5179667034e-08
3.2982649502e-05
-5.61074820349e-08
3.30179523159e-05
-6.97312111125e-08
3.30618567628e-05
-8.67456778511e-08
3.31165205385e-05
-1.08041678447e-07
3.31846781506e-05
-1.34771018026e-07
3.3269816269e-05
-1.68439077338e-07
3.33764153163e-05
-2.11040632135e-07
3.35102911827e-05
-2.65265859119e-07
3.36790939865e-05
-3.34826609599e-07
3.38930615218e-05
-4.25001671039e-07
3.41662028834e-05
-5.43605292268e-07
3.45182118342e-05
-7.02802604518e-07
3.49775852516e-05
-9.22707082384e-07
3.55864882402e-05
-1.23878970133e-06
3.64071948786e-05
-1.7172965201e-06
3.7526011652e-05
-2.485834301e-06
3.903349389e-05
-3.78754697226e-06
4.09037178808e-05
-6.06048793881e-06
-9.92703903837e-06
4.2623543552e-05
5.3570519825e-05
8.95186716241e-06
5.55863060444e-05
1.58501342483e-05
5.52410584755e-05
1.62553861029e-05
5.35976159496e-05
1.40474395533e-05
5.15429058999e-05
1.11562297899e-05
4.95819405684e-05
8.45147059842e-06
4.79262514107e-05
6.22441165021e-06
4.66200401313e-05
4.49842446987e-06
4.56322342589e-05
3.20429840201e-06
4.49066880497e-05
2.25390638985e-06
4.43854426379e-05
1.56624319957e-06
4.40178332423e-05
1.07472623826e-06
4.37629127075e-05
7.27376723197e-07
4.3589045212e-05
4.84705314785e-07
4.34725020161e-05
3.17212053103e-07
4.33958690486e-05
2.03133119324e-07
4.33465910847e-05
1.26584943737e-07
4.33157570107e-05
7.60952725772e-08
4.32971355894e-05
4.34651827831e-08
4.32864340016e-05
2.28997560398e-08
4.32807406708e-05
1.0351518048e-08
4.32781178955e-05
3.03059349734e-09
4.32772911782e-05
-9.63108072574e-10
4.32774556568e-05
-2.9028273358e-09
4.32781070463e-05
-3.61743538289e-09
4.3278945064e-05
-3.64473546674e-09
4.3279800067e-05
-3.32079910304e-09
4.32805844424e-05
-2.84874204381e-09
4.32812602893e-05
-2.34528250977e-09
4.32818184296e-05
-1.87253419543e-09
4.32822651122e-05
-1.45916916688e-09
4.32826138399e-05
-1.11423251007e-09
4.32828805468e-05
-8.35975662592e-10
4.32830809238e-05
-6.17338429629e-10
4.32832290793e-05
-4.4921878762e-10
4.32833370057e-05
-3.22319735123e-10
4.3283414513e-05
-2.28105522956e-10
4.32834693998e-05
-1.59213175543e-10
4.32835077232e-05
-1.09550919744e-10
4.32835340946e-05
-7.42349125953e-11
4.32835519604e-05
-4.94613368057e-11
4.32835638522e-05
-3.23358454106e-11
4.32835715994e-05
-2.06854185913e-11
4.32835765141e-05
-1.29065844269e-11
4.32835795296e-05
-7.82850361819e-12
4.32835813021e-05
-4.59505166586e-12
4.32835822952e-05
-2.60373491433e-12
4.32835828436e-05
-1.43955800614e-12
4.32835831876e-05
-8.02244191562e-13
4.32835833509e-05
-4.96255056055e-13
4.32835834132e-05
-3.80686580352e-13
4.32835834158e-05
-3.76746711663e-13
4.3283583371e-05
-4.34803640015e-13
4.32835833023e-05
-5.41973398725e-13
4.32835832319e-05
-6.75645998933e-13
4.32835831727e-05
-8.22220838069e-13
4.32835831346e-05
-9.70753618104e-13
4.32835831306e-05
-1.10852301551e-12
4.32835831626e-05
-1.22938354095e-12
4.32835832265e-05
-1.3278826643e-12
4.32835833083e-05
-1.4023586897e-12
4.32835833918e-05
-1.45970804764e-12
4.32835834649e-05
-1.51233065943e-12
4.32835835229e-05
-1.57144894773e-12
4.32835835658e-05
-1.64257790474e-12
4.32835836006e-05
-1.73180296981e-12
4.32835836451e-05
-1.84252818031e-12
4.3283583719e-05
-1.97034745924e-12
4.32835838113e-05
-2.10603222458e-12
4.32835839234e-05
-2.22994291436e-12
4.3283584053e-05
-2.33710942948e-12
4.32835841995e-05
-2.43078185966e-12
4.32835843621e-05
-2.51935897347e-12
4.32835845359e-05
-2.61379551964e-12
4.3283584712e-05
-2.72468421132e-12
4.32835848813e-05
-2.85715612721e-12
4.32835850416e-05
-3.00672901114e-12
4.32835852007e-05
-3.16107666247e-12
4.3283585376e-05
-3.30839378998e-12
4.32835855861e-05
-3.4436068197e-12
4.32835858409e-05
-3.56947352434e-12
4.32835861383e-05
-3.69678313641e-12
4.32835864702e-05
-3.84101852402e-12
4.32835868322e-05
-4.01669106177e-12
4.32835872285e-05
-4.23032074602e-12
4.32835876706e-05
-4.47577728395e-12
4.32835881734e-05
-4.74091611405e-12
4.32835887535e-05
-5.02223376978e-12
4.32835894291e-05
-5.32977746618e-12
4.32835902205e-05
-5.67755692935e-12
4.32835911506e-05
-6.07596173112e-12
4.32835922459e-05
-6.53847185163e-12
4.32835935385e-05
-7.09028805185e-12
4.32835950679e-05
-7.76568790707e-12
4.32835968878e-05
-8.59681258167e-12
4.32835990678e-05
-9.60554571016e-12
4.32836016974e-05
-1.08190350907e-11
4.32836049038e-05
-1.2290213987e-11
4.32836088746e-05
-1.40920215837e-11
4.32836138554e-05
-1.63157721386e-11
4.32836196897e-05
-1.90431579956e-11
4.32836267319e-05
-2.23927338871e-11
4.32836352999e-05
-2.65015124828e-11
4.32836457776e-05
-3.1549728028e-11
4.32836586195e-05
-3.77717690569e-11
4.32836743767e-05
-4.54523882895e-11
4.32836937181e-05
-5.49597357498e-11
4.32837174846e-05
-6.67351478965e-11
4.3283746721e-05
-8.13227280299e-11
4.3283782723e-05
-9.93881841491e-11
4.32838271345e-05
-1.21800140276e-10
4.32838820277e-05
-1.49688178867e-10
4.32839498572e-05
-1.84187261616e-10
4.3284033647e-05
-2.26870892913e-10
4.32841371613e-05
-2.79717037357e-10
4.32842650719e-05
-3.45143680021e-10
4.32844231711e-05
-4.26127481874e-10
4.32846186365e-05
-5.26360360455e-10
4.32848603561e-05
-6.50416348373e-10
4.32851593272e-05
-8.03967561147e-10
4.3285529154e-05
-9.94043969805e-10
4.32859867052e-05
-1.22934400487e-09
4.32865529105e-05
-1.52067552747e-09
4.32872536836e-05
-1.88153690485e-09
4.328812105e-05
-2.3287479472e-09
4.32891947021e-05
-2.88294087705e-09
4.32905236559e-05
-3.56981319584e-09
4.32921687293e-05
-4.42087953068e-09
4.32942053483e-05
-5.47510001958e-09
4.32967269431e-05
-6.78087889046e-09
4.32998492408e-05
-8.39831726565e-09
4.33037156204e-05
-1.0401997239e-08
4.330850378e-05
-1.28844770183e-08
4.33144340186e-05
-1.59606737941e-08
4.33217795209e-05
-1.97733897305e-08
4.33308792077e-05
-2.45002140927e-08
4.33421537926e-05
-3.03622168109e-08
4.33561258189e-05
-3.76350090486e-08
4.33734447992e-05
-4.66627640733e-08
4.33949188691e-05
-5.78761263501e-08
4.34215546606e-05
-7.18153848807e-08
4.34546078941e-05
-8.91606141183e-08
4.34956479998e-05
-1.10771217609e-07
4.35466410981e-05
-1.37738689742e-07
4.36100575206e-05
-1.71458023876e-07
4.3689012541e-05
-2.13725934978e-07
4.37874528309e-05
-2.66879272871e-07
4.3910407329e-05
-3.33995152536e-07
4.40643304847e-05
-4.1918908378e-07
4.42575796017e-05
-5.28075737451e-07
4.4501088636e-05
-6.68510839032e-07
4.48093212029e-05
-8.51838169118e-07
4.52015882699e-05
-1.09506990525e-06
4.57037000678e-05
-1.42481898865e-06
4.63493956655e-05
-1.88448535282e-06
4.7179263887e-05
-2.5471648099e-06
4.8230246512e-05
-3.5368169555e-06
4.94979876566e-05
-5.05528799912e-06
5.0833042317e-05
-7.39554268198e-06
-1.0846320081e-05
5.17523234821e-05
5.27606080274e-05
6.1912586546e-06
5.57402410885e-05
1.28705021695e-05
5.73124116204e-05
1.46832147411e-05
5.76111980124e-05
1.37486535889e-05
5.71338685614e-05
1.16335591037e-05
5.6319984236e-05
9.26535507665e-06
5.5449645207e-05
7.09475072336e-06
5.46637031921e-05
5.28436646919e-06
5.40144133674e-05
3.85358821532e-06
5.35068427757e-05
2.7614769051e-06
5.31248782497e-05
1.94820763742e-06
5.28455242082e-05
1.35408021797e-06
5.26458880185e-05
9.27012892631e-07
5.25060753957e-05
6.2451795741e-07
5.24099977848e-05
4.13289723389e-07
5.23452163038e-05
2.67914679303e-07
5.23024113984e-05
1.6938991952e-07
5.22747665486e-05
1.03740163872e-07
5.22573943898e-05
6.08373571259e-08
5.22468523419e-05
3.34418012532e-08
5.22407560856e-05
1.64477560004e-08
5.223748307e-05
6.30357956561e-09
5.22359418119e-05
5.78111216487e-10
5.2235426487e-05
-2.38754573479e-09
5.22354784061e-05
-3.66939269494e-09
5.22358132689e-05
-3.97962188699e-09
5.22362605806e-05
-3.7681123015e-09
5.22367234758e-05
-3.31161400791e-09
5.22371513723e-05
-2.77313673557e-09
5.22375218443e-05
-2.24295678094e-09
5.22378288335e-05
-1.76611305869e-09
5.22380751497e-05
-1.36051652988e-09
5.22382678443e-05
-1.02865523875e-09
5.223841547e-05
-7.64963848932e-10
5.22385265456e-05
-5.60306608525e-10
5.22386087774e-05
-4.04579757807e-10
5.22386687485e-05
-2.88116978584e-10
5.22387118694e-05
-2.02367043427e-10
5.22387424537e-05
-1.40141787306e-10
5.2238763846e-05
-9.56098936114e-11
5.22387785878e-05
-6.41729522954e-11
5.22387885837e-05
-4.22980812022e-11
5.22387952356e-05
-2.73167535803e-11
5.22387995659e-05
-1.72378679241e-11
5.22388023237e-05
-1.06015199818e-11
5.22388040495e-05
-6.33624130195e-12
5.22388051092e-05
-3.66275485406e-12
5.22388057252e-05
-2.03404809638e-12
5.22388060326e-05
-1.07623607202e-12
5.22388061277e-05
-5.58206078325e-13
5.22388060941e-05
-3.21005026576e-13
5.223880599e-05
-2.70489166934e-13
5.22388058619e-05
-3.31962952412e-13
5.22388057241e-05
-4.52523542113e-13
5.22388055863e-05
-5.99563346604e-13
5.22388054588e-05
-7.5690268716e-13
5.22388053561e-05
-9.0708856554e-13
5.22388052844e-05
-1.0401870478e-12
5.22388052407e-05
-1.15307980584e-12
5.22388052169e-05
-1.24404484865e-12
5.22388051972e-05
-1.31497558009e-12
5.22388051641e-05
-1.37353427871e-12
5.22388051032e-05
-1.43165125082e-12
5.22388050109e-05
-1.50117231701e-12
5.22388048967e-05
-1.58974340444e-12
5.22388047743e-05
-1.69869978522e-12
5.22388046567e-05
-1.8236956613e-12
5.22388045561e-05
-1.95698113646e-12
5.22388044755e-05
-2.08750742865e-12
5.22388044126e-05
-2.19809605912e-12
5.22388043593e-05
-2.28544509815e-12
5.22388043069e-05
-2.35938412931e-12
5.22388042506e-05
-2.43495387057e-12
5.22388041881e-05
-2.52664435495e-12
5.22388041159e-05
-2.64399307952e-12
5.22388040309e-05
-2.78826042096e-12
5.22388039345e-05
-2.95074056119e-12
5.22388038362e-05
-3.11593155902e-12
5.22388037504e-05
-3.27093502593e-12
5.22388036886e-05
-3.41373620383e-12
5.22388036546e-05
-3.55385809455e-12
5.2238803644e-05
-3.70687113754e-12
5.22388036502e-05
-3.88667961389e-12
5.22388036702e-05
-4.10020930775e-12
5.22388037084e-05
-4.34647989533e-12
5.22388037765e-05
-4.61881899215e-12
5.22388038919e-05
-4.91169224339e-12
5.22388040733e-05
-5.23028764728e-12
5.22388043357e-05
-5.59269678553e-12
5.22388046915e-05
-6.02070668066e-12
5.22388051587e-05
-6.53214622983e-12
5.22388057674e-05
-7.14714446104e-12
5.22388065537e-05
-7.89369501003e-12
5.22388075555e-05
-8.80324625735e-12
5.22388088247e-05
-9.91098144633e-12
5.22388104352e-05
-1.12604983348e-11
5.22388124806e-05
-1.2905646171e-11
5.22388150682e-05
-1.49151001994e-11
5.22388183201e-05
-1.73787480113e-11
5.22388223882e-05
-2.04179865758e-11
5.22388275128e-05
-2.41961198995e-11
5.22388339426e-05
-2.88362455332e-11
5.22388419778e-05
-3.45336191717e-11
5.22388520093e-05
-4.15425683476e-11
5.22388645092e-05
-5.0200466117e-11
5.22388800484e-05
-6.0916488666e-11
5.22388993428e-05
-7.41927310479e-11
5.22389232799e-05
-9.06330166587e-11
5.22389529691e-05
-1.10981732254e-10
5.22389897851e-05
-1.36168076088e-10
5.22390353877e-05
-1.67359755089e-10
5.22390917724e-05
-2.06021910346e-10
5.2239161511e-05
-2.53868358976e-10
5.22392477856e-05
-3.13080976636e-10
5.22393545277e-05
-3.86376573476e-10
5.22394865989e-05
-4.77106360056e-10
5.22396500121e-05
-5.89405061645e-10
5.22398522203e-05
-7.28388150303e-10
5.22401024427e-05
-9.00395183658e-10
5.22404120995e-05
-1.11333294249e-09
5.22407953319e-05
-1.37697922117e-09
5.22412696478e-05
-1.70339681745e-09
5.22418567486e-05
-2.10756308736e-09
5.2242583495e-05
-2.60810084217e-09
5.22434830869e-05
-3.22816513186e-09
5.22445966824e-05
-3.99636046519e-09
5.22459751606e-05
-4.94809468828e-09
5.22476815575e-05
-6.12706061051e-09
5.22497940043e-05
-7.58732957951e-09
5.22524093034e-05
-9.39596001011e-09
5.22556473536e-05
-1.16361470912e-08
5.22596566664e-05
-1.44110895137e-08
5.22646212347e-05
-1.78488140379e-08
5.22707690403e-05
-2.21082384003e-08
5.22783826431e-05
-2.73867606602e-08
5.22878123576e-05
-3.39297239482e-08
5.22994926285e-05
-4.20423430083e-08
5.23139624645e-05
-5.21047874074e-08
5.23318909525e-05
-6.45912500693e-08
5.23541091236e-05
-8.00942893684e-08
5.23816498643e-05
-9.93560919844e-08
5.24157981592e-05
-1.23308830811e-07
5.24581544371e-05
-1.53127369648e-07
5.25107147904e-05
-1.90298928612e-07
5.25759731604e-05
-2.36716263061e-07
5.26570518236e-05
-2.94804376074e-07
5.2757868988e-05
-3.67696231618e-07
5.28833553274e-05
-4.59481439225e-07
5.30397338103e-05
-5.75567560222e-07
5.3234878526e-05
-7.23220424902e-07
5.34787635467e-05
-9.12395930792e-07
5.37839848956e-05
-1.15705960847e-06
5.41662467771e-05