/*--------------------------------*- C++ -*----------------------------------*\
| =========                 |                                                 |
| \\      /  F ield         | OpenFOAM: The Open Source CFD Toolbox           |
|  \\    /   O peration     | Version:  2106                                  |
|   \\  /    A nd           | Website:  www.openfoam.com                      |
|    \\/     M anipulation  |                                                 |
\*---------------------------------------------------------------------------*/
FoamFile
{
    version     2.0;
    format      ascii;
    arch        "LSB;label=32;scalar=64";
    class       volVectorField;
    location    "0.11";
    object      U;
}
// * * * * * * * * * * * * * * * * * * * * * * * * * * * * * * * * * * * * * //

dimensions      [0 1 -1 0 0 0 0];

internalField   nonuniform List<vector> 
9600
(
(0.675396183635 0.157677435036 0)
(0.563826156856 0.102430805103 0)
(0.38153892205 0.0510646954818 0)
(0.283853172325 0.0244589921848 0)
(0.232281001077 0.0119348260993 0)
(0.20190766597 0.00623036261642 0)
(0.18317834769 0.00352193220068 0)
(0.17127191487 0.00212008086786 0)
(0.163512166269 0.00132523987273 0)
(0.158392599658 0.000841457493156 0)
(0.155010680461 0.000534130906684 0)
(0.152790047113 0.000335025646694 0)
(0.151348901196 0.000205494367633 0)
(0.150429669261 0.000121748214788 0)
(0.149857187571 6.83686838976e-05 0)
(0.149512262068 3.50829311427e-05 0)
(0.149314181018 1.49686154596e-05 0)
(0.149208784207 3.35668759816e-06 0)
(0.149160182989 -2.88377535577e-06 0)
(0.149144971558 -5.81860106606e-06 0)
(0.149148254325 -6.75841981474e-06 0)
(0.14916072896 -6.65848836e-06 0)
(0.14917680687 -6.03493671739e-06 0)
(0.149193350085 -5.18549059709e-06 0)
(0.149208688295 -4.29667464063e-06 0)
(0.149222070399 -3.46823542882e-06 0)
(0.14923328265 -2.74416386926e-06 0)
(0.14924240315 -2.13714365662e-06 0)
(0.149249651941 -1.64340925881e-06 0)
(0.149255301679 -1.25088984513e-06 0)
(0.149259628826 -9.44539818286e-07 0)
(0.149262889097 -7.0954002051e-07 0)
(0.149265305459 -5.31984810936e-07 0)
(0.149267065412 -3.99527927246e-07 0)
(0.149268323408 -3.02076118773e-07 0)
(0.149269203448 -2.31163033835e-07 0)
(0.14926980318 -1.79646633381e-07 0)
(0.149270199157 -1.42100782454e-07 0)
(0.149270450026 -1.14234748392e-07 0)
(0.149270599897 -9.26957379055e-08 0)
(0.149270682672 -7.60545042098e-08 0)
(0.149270723551 -6.52280229268e-08 0)
(0.149270737324 -6.23439297365e-08 0)
(0.149270734309 -6.36423910008e-08 0)
(0.14927072382 -6.89776467812e-08 0)
(0.149270710623 -7.56371102884e-08 0)
(0.149270697009 -8.24033063695e-08 0)
(0.149270684503 -8.96277795641e-08 0)
(0.149270673174 -9.73755239858e-08 0)
(0.149270663003 -1.05823425745e-07 0)
(0.149270654427 -1.15380783601e-07 0)
(0.149270646616 -1.25666022468e-07 0)
(0.149270638732 -1.36347143803e-07 0)
(0.14927063096 -1.47704236606e-07 0)
(0.149270623056 -1.59667807201e-07 0)
(0.149270614957 -1.72111197175e-07 0)
(0.149270607541 -1.85354176056e-07 0)
(0.149270600874 -1.99457846258e-07 0)
(0.149270594402 -2.14320614577e-07 0)
(0.149270588467 -2.30477396276e-07 0)
(0.149270582865 -2.48117218644e-07 0)
(0.149270576964 -2.6693805216e-07 0)
(0.149270571663 -2.87174542162e-07 0)
(0.149270567749 -3.08880372729e-07 0)
(0.149270564743 -3.314027996e-07 0)
(0.149270562974 -3.54795369543e-07 0)
(0.149270562637 -3.79536028881e-07 0)
(0.149270562348 -4.05509896388e-07 0)
(0.149270561442 -4.32931466263e-07 0)
(0.149270560214 -4.62315526092e-07 0)
(0.149270558162 -4.93492410694e-07 0)
(0.149270555331 -5.26240389909e-07 0)
(0.149270552528 -5.60704663168e-07 0)
(0.149270549413 -5.96730674459e-07 0)
(0.149270545547 -6.34539303567e-07 0)
(0.149270540986 -6.7481240195e-07 0)
(0.149270535097 -7.17426617997e-07 0)
(0.149270528008 -7.62137326673e-07 0)
(0.149270520943 -8.09331573029e-07 0)
(0.149270513675 -8.58884516511e-07 0)
(0.149270505641 -9.10538598696e-07 0)
(0.14927049777 -9.64862476291e-07 0)
(0.149270490327 -1.02201119632e-06 0)
(0.149270482885 -1.08151776449e-06 0)
(0.149270476291 -1.14348671421e-06 0)
(0.149270471048 -1.20805218501e-06 0)
(0.149270466496 -1.2751114972e-06 0)
(0.14927046246 -1.34515097576e-06 0)
(0.149270458629 -1.41840461846e-06 0)
(0.1492704545 -1.4943534419e-06 0)
(0.149270450734 -1.57298918482e-06 0)
(0.149270447383 -1.65463627699e-06 0)
(0.14927044341 -1.73937762343e-06 0)
(0.149270439423 -1.82756261805e-06 0)
(0.149270437018 -1.91894398942e-06 0)
(0.149270437048 -2.01238438347e-06 0)
(0.149270440438 -2.1078179423e-06 0)
(0.149270446934 -2.20598798661e-06 0)
(0.149270454645 -2.30656189182e-06 0)
(0.14927046407 -2.40905046572e-06 0)
(0.149270477969 -2.51344123486e-06 0)
(0.149270498011 -2.61957222408e-06 0)
(0.149270525747 -2.72769681721e-06 0)
(0.149270562811 -2.83821425202e-06 0)
(0.149270610421 -2.95066358724e-06 0)
(0.149270672187 -3.06517010437e-06 0)
(0.14927075279 -3.18253833003e-06 0)
(0.149270854668 -3.3028776873e-06 0)
(0.149270981763 -3.42816324823e-06 0)
(0.149271141016 -3.56446604735e-06 0)
(0.149271340529 -3.71854652979e-06 0)
(0.149271590123 -3.8833682606e-06 0)
(0.149271903547 -4.05777660723e-06 0)
(0.149272295739 -4.24240684601e-06 0)
(0.149272782943 -4.43717649223e-06 0)
(0.149273387901 -4.64318686367e-06 0)
(0.149274138303 -4.86187253396e-06 0)
(0.149275068129 -5.09438934909e-06 0)
(0.149276222319 -5.34263409901e-06 0)
(0.149277654081 -5.60782757103e-06 0)
(0.149279426358 -5.89228753384e-06 0)
(0.149281621255 -6.20325084279e-06 0)
(0.149284347101 -6.55362018881e-06 0)
(0.149287754462 -6.98397018248e-06 0)
(0.149291988372 -7.59957762354e-06 0)
(0.149297200983 -8.39898357674e-06 0)
(0.149303627357 -9.33335999759e-06 0)
(0.149311579447 -1.03889628933e-05 0)
(0.149321431708 -1.15728970036e-05 0)
(0.149333636165 -1.2899502186e-05 0)
(0.149348754003 -1.43925885992e-05 0)
(0.149367482091 -1.60851343535e-05 0)
(0.149390678548 -1.80132302109e-05 0)
(0.149419411858 -2.0220691215e-05 0)
(0.149455013798 -2.27652209645e-05 0)
(0.149499131947 -2.57176985772e-05 0)
(0.149553814062 -2.91701892945e-05 0)
(0.149621610793 -3.32427848689e-05 0)
(0.149705689259 -3.80806112365e-05 0)
(0.14980999627 -4.38652489635e-05 0)
(0.149939469751 -5.08354273222e-05 0)
(0.150100278213 -5.92930251325e-05 0)
(0.150300143951 -6.96185573291e-05 0)
(0.150548785974 -8.23036239803e-05 0)
(0.150858470156 -9.7981381236e-05 0)
(0.151244736233 -0.000117472389325 0)
(0.151727385509 -0.00014184787672 0)
(0.152331819968 -0.000172511426985 0)
(0.153090901278 -0.000211319413388 0)
(0.154047573259 -0.00026074770375 0)
(0.155258688887 -0.000324135627882 0)
(0.156800873999 -0.000406146327986 0)
(0.158780323288 -0.000514001497203 0)
(0.161352188535 -0.000661967540562 0)
(0.16476634444 -0.000888891545033 0)
(0.169481810493 -0.00132359551116 0)
(0.176516053314 -0.00242580604936 0)
(0.188890300189 -0.00592426573796 0)
(0.215979697116 -0.0184938221601 0)
(0.276216095727 -0.0655087570439 0)
(0.977201173403 0.296997122201 0)
(0.962687457319 0.250387272713 0)
(0.820646013945 0.158581019932 0)
(0.697824859961 0.0957993599099 0)
(0.610491610515 0.0579132917773 0)
(0.549133233908 0.0359038688934 0)
(0.506705885086 0.0229309515601 0)
(0.47766191731 0.0149788847136 0)
(0.457815225863 0.00990971735838 0)
(0.444277684713 0.00658325990528 0)
(0.435087401158 0.00436188341475 0)
(0.428896011933 0.00286664631942 0)
(0.424768928916 0.00185943824541 0)
(0.422055748728 0.00118416216312 0)
(0.420303429057 0.000735548455655 0)
(0.419197185613 0.000441425071915 0)
(0.418519539361 0.000251940618594 0)
(0.418121492739 0.000132630026637 0)
(0.417902067858 5.97578402391e-05 0)
(0.417793746199 1.7111169505e-05 0)
(0.417752061383 -6.24219262343e-06 0)
(0.417748275609 -1.77008476094e-05 0)
(0.417764376344 -2.20718841022e-05 0)
(0.417789362669 -2.23974569125e-05 0)
(0.417816760154 -2.06158420739e-05 0)
(0.417843034495 -1.79092818335e-05 0)
(0.417866462699 -1.49620928128e-05 0)
(0.417886397601 -1.2144176762e-05 0)
(0.417902801465 -9.63402140624e-06 0)
(0.417915952961 -7.49662116402e-06 0)
(0.417926270094 -5.73334595983e-06 0)
(0.417934209291 -4.31394185691e-06 0)
(0.417940209005 -3.19410530021e-06 0)
(0.417944661717 -2.32545349145e-06 0)
(0.417947905078 -1.6623030302e-06 0)
(0.417950220535 -1.16391795898e-06 0)
(0.417951836074 -7.94874781501e-07 0)
(0.417952933572 -5.26195005402e-07 0)
(0.417953655458 -3.34534922936e-07 0)
(0.417954110218 -2.00779111573e-07 0)
(0.417954379593 -1.10723741532e-07 0)
(0.417954524097 -5.45207411441e-08 0)
(0.417954588409 -2.42874016676e-08 0)
(0.417954603227 -8.86495808487e-09 0)
(0.417954591829 -8.22591590508e-10 0)
(0.417954569761 1.23880688113e-09 0)
(0.417954542838 -4.77588368121e-10 0)
(0.417954515038 -4.51400045535e-09 0)
(0.41795448853 -9.11768011384e-09 0)
(0.417954464027 -1.27065050081e-08 0)
(0.417954442752 -1.53835791896e-08 0)
(0.417954424387 -1.7873223615e-08 0)
(0.417954407338 -2.06672978632e-08 0)
(0.417954391312 -2.40991817677e-08 0)
(0.417954376116 -2.80576236575e-08 0)
(0.417954361139 -3.19161705841e-08 0)
(0.417954346907 -3.57160758495e-08 0)
(0.417954333642 -3.9374667469e-08 0)
(0.417954320242 -4.24419411009e-08 0)
(0.417954306672 -4.56028450504e-08 0)
(0.417954293305 -4.93149119291e-08 0)
(0.417954279429 -5.2731288043e-08 0)
(0.417954265676 -5.57757738832e-08 0)
(0.417954253565 -5.89220709039e-08 0)
(0.417954242591 -6.15011728005e-08 0)
(0.41795423218 -6.35771872279e-08 0)
(0.417954222718 -6.6308223876e-08 0)
(0.41795421302 -6.96472942065e-08 0)
(0.41795420181 -7.32140073002e-08 0)
(0.417954189566 -7.75236002741e-08 0)
(0.417954176306 -8.22567990733e-08 0)
(0.417954161879 -8.68312243914e-08 0)
(0.417954147169 -9.17076671838e-08 0)
(0.417954131853 -9.68446159426e-08 0)
(0.417954114843 -1.02132065372e-07 0)
(0.417954096471 -1.0838281978e-07 0)
(0.417954076741 -1.15328292473e-07 0)
(0.417954055244 -1.22128761338e-07 0)
(0.417954033094 -1.29318942034e-07 0)
(0.417954010702 -1.36930623318e-07 0)
(0.417953987154 -1.44169811523e-07 0)
(0.417953963176 -1.51648430528e-07 0)
(0.417953939726 -1.59888303502e-07 0)
(0.417953916321 -1.68109901188e-07 0)
(0.417953893581 -1.76355513648e-07 0)
(0.417953872423 -1.85114172792e-07 0)
(0.417953851764 -1.94223083807e-07 0)
(0.417953830965 -2.04224976295e-07 0)
(0.417953810684 -2.15430596222e-07 0)
(0.417953791041 -2.26789257654e-07 0)
(0.417953772365 -2.38357789043e-07 0)
(0.417953754731 -2.5116502371e-07 0)
(0.41795373727 -2.65126534875e-07 0)
(0.41795372141 -2.80245672289e-07 0)
(0.417953710395 -2.96460502997e-07 0)
(0.417953705162 -3.12591611832e-07 0)
(0.417953705779 -3.29216790726e-07 0)
(0.41795371324 -3.48915642531e-07 0)
(0.417953727435 -3.72760640436e-07 0)
(0.417953749663 -4.01472896606e-07 0)
(0.417953784199 -4.34246281742e-07 0)
(0.417953834628 -4.70337258956e-07 0)
(0.417953904413 -5.10742402335e-07 0)
(0.417953998572 -5.57377974285e-07 0)
(0.417954121793 -6.09730547931e-07 0)
(0.417954280683 -6.675189551e-07 0)
(0.417954485269 -7.32984599872e-07 0)
(0.417954743801 -8.06451941234e-07 0)
(0.417955063542 -8.86417147721e-07 0)
(0.417955457332 -9.70101132259e-07 0)
(0.417955957209 -1.0492510461e-06 0)
(0.417956594699 -1.13333505077e-06 0)
(0.417957396367 -1.23054702381e-06 0)
(0.417958400036 -1.34743717525e-06 0)
(0.417959650862 -1.48820907007e-06 0)
(0.417961206871 -1.65967548066e-06 0)
(0.417963140771 -1.87058855841e-06 0)
(0.417965541117 -2.12986399495e-06 0)
(0.417968521178 -2.45093590466e-06 0)
(0.417972219521 -2.85051196022e-06 0)
(0.417976800295 -3.34714669499e-06 0)
(0.417982470164 -3.96805132185e-06 0)
(0.417989483411 -4.74994578506e-06 0)
(0.417998136895 -5.75401928022e-06 0)
(0.418008847014 -7.10383451896e-06 0)
(0.418022165116 -8.86464526961e-06 0)
(0.418038713021 -1.10766133577e-05 0)
(0.418059242364 -1.38208869082e-05 0)
(0.418084699573 -1.72178991367e-05 0)
(0.41811625318 -2.14171639775e-05 0)
(0.418155351015 -2.66069242193e-05 0)
(0.418203798025 -3.30259544707e-05 0)
(0.418263829648 -4.09630365926e-05 0)
(0.41833821484 -5.07727987296e-05 0)
(0.418430396142 -6.29007967243e-05 0)
(0.418544643425 -7.78973239936e-05 0)
(0.418686257328 -9.6448134891e-05 0)
(0.418861838194 -0.000119418401511 0)
(0.419079596765 -0.000147884791912 0)
(0.419349753399 -0.000183189083967 0)
(0.419685075566 -0.000227032144964 0)
(0.420101531004 -0.000281567903716 0)
(0.420619116499 -0.000349522238261 0)
(0.421262973352 -0.000434382589486 0)
(0.422064826408 -0.000540642272737 0)
(0.423064878712 -0.000674135474591 0)
(0.424314380553 -0.000842518989003 0)
(0.425879140898 -0.00105597183604 0)
(0.42784446518 -0.0013282615515 0)
(0.43032231017 -0.00167842220876 0)
(0.433462061 -0.00213359909957 0)
(0.437467651396 -0.00273435522792 0)
(0.44262647906 -0.00354577167085 0)
(0.449362285006 -0.00468397679054 0)
(0.458339324204 -0.00638652980609 0)
(0.470662357646 -0.00920750277957 0)
(0.488250911978 -0.0145615075526 0)
(0.514791390114 -0.0263025684354 0)
(0.557555097256 -0.0553068992574 0)
(0.621676783296 -0.128641755988 0)
(1.03387038663 0.239240964409 0)
(1.08314081161 0.293634389329 0)
(1.03294435646 0.23913195276 0)
(0.954408167245 0.174539046748 0)
(0.880112522099 0.121551496382 0)
(0.818677532935 0.0832336247879 0)
(0.771466699811 0.056825830064 0)
(0.736691497883 0.0388125563087 0)
(0.711672092699 0.0264912364495 0)
(0.693953265038 0.0180233899799 0)
(0.681568597841 0.0121872777523 0)
(0.673019414633 0.00816594591158 0)
(0.667193669733 0.00540472910265 0)
(0.663280068089 0.00352108205573 0)
(0.660693817708 0.00224802787366 0)
(0.659017779765 0.00139799244119 0)
(0.657957489331 0.000838937989248 0)
(0.657307349327 0.00047811342455 0)
(0.656925511667 0.000250708977835 0)
(0.656715398297 0.000111792009309 0)
(0.656612201131 3.05051570453e-05 0)
(0.656573109506 -1.40491134283e-05 0)
(0.656570557498 -3.57203986339e-05 0)
(0.656587165934 -4.38201844847e-05 0)
(0.656612239614 -4.4212633956e-05 0)
(0.656639537901 -4.05928791068e-05 0)
(0.656665647355 -3.52141394263e-05 0)
(0.656688898807 -2.93849226039e-05 0)
(0.656708666436 -2.38167567334e-05 0)
(0.656724917452 -1.88544047615e-05 0)
(0.656737928476 -1.46245908442e-05 0)
(0.656748115072 -1.11322643635e-05 0)
(0.656755931839 -8.31975123564e-06 0)
(0.656761815906 -6.10094509645e-06 0)
(0.656766160495 -4.38250282029e-06 0)
(0.656769304532 -3.07535339514e-06 0)
(0.656771529747 -2.09897070746e-06 0)
(0.656773064986 -1.38395994258e-06 0)
(0.656774092974 -8.72621933929e-07 0)
(0.656774755835 -5.16947674182e-07 0)
(0.656775162675 -2.77829962257e-07 0)
(0.656775396419 -1.24197991151e-07 0)
(0.656775517483 -3.03367593236e-08 0)
(0.656775568067 2.30077940047e-08 0)
(0.656775575385 5.34449115355e-08 0)
(0.656775557844 7.15033548504e-08 0)
(0.656775529111 7.85426552259e-08 0)
(0.656775497467 7.81195376416e-08 0)
(0.656775467432 7.35972674094e-08 0)
(0.656775440052 6.80190762849e-08 0)
(0.656775415084 6.23982418585e-08 0)
(0.656775391637 5.67429159892e-08 0)
(0.656775369122 5.27512780542e-08 0)
(0.656775347951 5.1355924948e-08 0)
(0.656775328343 5.18563565362e-08 0)
(0.656775309854 5.45241123647e-08 0)
(0.656775292672 5.86976187777e-08 0)
(0.65677527698 6.30990263597e-08 0)
(0.656775261343 6.79578664476e-08 0)
(0.656775245078 7.32895401248e-08 0)
(0.656775228959 7.84219602234e-08 0)
(0.656775212739 8.40492229038e-08 0)
(0.656775196381 9.09038257247e-08 0)
(0.656775181208 9.82225080727e-08 0)
(0.656775167019 1.05968388834e-07 0)
(0.656775152643 1.14653934756e-07 0)
(0.656775138379 1.23549731667e-07 0)
(0.656775124056 1.32567813146e-07 0)
(0.656775108403 1.42386590824e-07 0)
(0.656775091438 1.52767451607e-07 0)
(0.656775073487 1.63605051723e-07 0)
(0.656775054169 1.75483089873e-07 0)
(0.656775034057 1.87916788897e-07 0)
(0.6567750133 2.0047632683e-07 0)
(0.656774990722 2.13741200308e-07 0)
(0.656774966456 2.27463735711e-07 0)
(0.656774941096 2.4141444101e-07 0)
(0.656774914008 2.56529899738e-07 0)
(0.656774885719 2.72783967735e-07 0)
(0.656774857303 2.89666824106e-07 0)
(0.656774828022 3.07967610395e-07 0)
(0.656774797752 3.27813222607e-07 0)
(0.656774767651 3.48396634787e-07 0)
(0.65677473774 3.70139901583e-07 0)
(0.656774708271 3.93365988869e-07 0)
(0.656774680181 4.17279707093e-07 0)
(0.656774652603 4.41804595642e-07 0)
(0.656774624756 4.67114043453e-07 0)
(0.656774597828 4.93017637327e-07 0)
(0.656774572227 5.20183648019e-07 0)
(0.656774547606 5.48729778486e-07 0)
(0.656774524362 5.77706702725e-07 0)
(0.656774502502 6.07640704437e-07 0)
(0.656774483301 6.39421828023e-07 0)
(0.656774470236 6.7242874721e-07 0)
(0.656774464622 7.06548992751e-07 0)
(0.656774465506 7.41702474335e-07 0)
(0.656774473462 7.76217899511e-07 0)
(0.656774489331 8.10150824046e-07 0)
(0.656774517206 8.46563374939e-07 0)
(0.656774564077 8.84254359449e-07 0)
(0.656774634054 9.21630463154e-07 0)
(0.656774730865 9.57069356156e-07 0)
(0.656774861995 9.87399477986e-07 0)
(0.656775036011 1.01124218343e-06 0)
(0.656775261706 1.02827463832e-06 0)
(0.656775552629 1.03444312693e-06 0)
(0.656775925503 1.02565190683e-06 0)
(0.656776400713 1.00153751235e-06 0)
(0.656777008458 9.6238101516e-07 0)
(0.656777770876 9.10723946917e-07 0)
(0.656778711488 8.3170810772e-07 0)
(0.65677987867 7.12720361924e-07 0)
(0.656781331748 5.39370817175e-07 0)
(0.65678313864 2.97212681282e-07 0)
(0.656785382557 -3.25009635727e-08 0)
(0.656788167945 -4.74780008405e-07 0)
(0.656791621616 -1.05786045084e-06 0)
(0.656795902528 -1.818725609e-06 0)
(0.65680120938 -2.80649727537e-06 0)
(0.656807782301 -4.07680595748e-06 0)
(0.656815922014 -5.69772872235e-06 0)
(0.656826008896 -7.75863165071e-06 0)
(0.656838503302 -1.03626725324e-05 0)
(0.656853972237 -1.3623973379e-05 0)
(0.656873127414 -1.77252796275e-05 0)
(0.656896845907 -2.28964817612e-05 0)
(0.656926217259 -2.94077548668e-05 0)
(0.656962600511 -3.75976753127e-05 0)
(0.657007671612 -4.78828939683e-05 0)
(0.65706349902 -6.07732564557e-05 0)
(0.657132655721 -7.69061928719e-05 0)
(0.657218333302 -9.70735502596e-05 0)
(0.657324482736 -0.000122253287725 0)
(0.657456012166 -0.00015366394093 0)
(0.657619013832 -0.000192819734158 0)
(0.657821044129 -0.000241600113718 0)
(0.658071501424 -0.000302357846668 0)
(0.65838208308 -0.000378038619812 0)
(0.658767343757 -0.000472319743027 0)
(0.659245434376 -0.0005898264695 0)
(0.659839036503 -0.000736410092825 0)
(0.660576531172 -0.00091948396277 0)
(0.661493533414 -0.00114850337869 0)
(0.662634891005 -0.00143562525852 0)
(0.664057304419 -0.00179661079097 0)
(0.665832836228 -0.00225212489706 0)
(0.668053673514 -0.00282964317083 0)
(0.670838754738 -0.00356634932574 0)
(0.674343223167 -0.0045137513056 0)
(0.678772340252 -0.00574546248358 0)
(0.684402776367 -0.00737120673865 0)
(0.691616263418 -0.00956398017694 0)
(0.700954485156 -0.0126164101574 0)
(0.713210112202 -0.0170646385743 0)
(0.729562681191 -0.0239679347445 0)
(0.751718644586 -0.0355197375359 0)
(0.782003385281 -0.0563066999833 0)
(0.822907387332 -0.0957368077084 0)
(0.870645354914 -0.170121914064 0)
(1.03384128097 0.171306950652 0)
(1.10231584383 0.275556762309 0)
(1.11663619305 0.26631240237 0)
(1.09207921481 0.219892644409 0)
(1.05195415021 0.168210362956 0)
(1.01022215561 0.123615373899 0)
(0.973507663046 0.0888850662079 0)
(0.943885926982 0.0630494011777 0)
(0.92116286872 0.0442606177862 0)
(0.904300061798 0.0307740662829 0)
(0.892086660058 0.0211823740819 0)
(0.883412201775 0.0144162861748 0)
(0.877356676503 0.00968395214302 0)
(0.873198726489 0.00640551349999 0)
(0.870391768736 0.00415896817392 0)
(0.868531495145 0.00263880558663 0)
(0.867324437609 0.00162514993702 0)
(0.866561007292 0.000960872480718 0)
(0.866093742576 0.000534623255003 0)
(0.865820400093 0.00026825277286 0)
(0.865671145274 0.000107501973339 0)
(0.865599111474 1.51867079491e-05 0)
(0.865573261875 -3.37171091543e-05 0)
(0.865573540251 -5.61130546505e-05 0)
(0.865587415723 -6.2863286815e-05 0)
(0.865607147083 -6.09447504779e-05 0)
(0.865628229703 -5.47079265287e-05 0)
(0.865648212496 -4.67643331846e-05 0)
(0.865665910561 -3.86059782546e-05 0)
(0.865680896729 -3.10227266134e-05 0)
(0.865693173147 -2.4375689749e-05 0)
(0.865702966328 -1.87750427875e-05 0)
(0.865710602936 -1.4193174446e-05 0)
(0.86571643505 -1.05327413703e-05 0)
(0.865720799757 -7.66783811501e-06 0)
(0.865724000071 -5.46833209781e-06 0)
(0.865726295797 -3.81136648083e-06 0)
(0.86572790267 -2.58713480649e-06 0)
(0.865728996493 -1.70179944753e-06 0)
(0.865729716659 -1.07652142326e-06 0)
(0.865730171002 -6.46284156309e-07 0)
(0.865730441992 -3.59948796139e-07 0)
(0.865730590518 -1.77366015426e-07 0)
(0.865730660986 -6.71790382891e-08 0)
(0.86573068654 -6.18221799178e-09 0)
(0.865730682936 2.11513317714e-08 0)
(0.86573065995 2.94041112676e-08 0)
(0.865730629705 2.67027221553e-08 0)
(0.865730598513 1.74741230875e-08 0)
(0.86573056826 5.4061099168e-09 0)
(0.865730539717 -7.27768525555e-09 0)
(0.865730514342 -1.9290804911e-08 0)
(0.865730492104 -2.90765148987e-08 0)
(0.865730471196 -3.80399820213e-08 0)
(0.865730451075 -4.73718706037e-08 0)
(0.865730431146 -5.60990975828e-08 0)
(0.865730410553 -6.32133143154e-08 0)
(0.865730390074 -6.98816646887e-08 0)
(0.865730369545 -7.64314252715e-08 0)
(0.865730348104 -8.24779272199e-08 0)
(0.865730326584 -8.86403522963e-08 0)
(0.865730305423 -9.48101600615e-08 0)
(0.865730284116 -1.00124367705e-07 0)
(0.865730263478 -1.05274634175e-07 0)
(0.86573024389 -1.11004884485e-07 0)
(0.865730224138 -1.16793073003e-07 0)
(0.865730204145 -1.22899144696e-07 0)
(0.865730183951 -1.29804946285e-07 0)
(0.865730162112 -1.3692008726e-07 0)
(0.86573013832 -1.44269100813e-07 0)
(0.865730113285 -1.52406241509e-07 0)
(0.865730086719 -1.61074006396e-07 0)
(0.865730058732 -1.704824894e-07 0)
(0.865730029789 -1.81264470081e-07 0)
(0.865729998856 -1.92967226592e-07 0)
(0.865729965578 -2.05359002791e-07 0)
(0.865729931004 -2.18773068817e-07 0)
(0.865729894926 -2.32496833268e-07 0)
(0.865729857239 -2.46111188883e-07 0)
(0.865729819157 -2.60292945645e-07 0)
(0.865729780418 -2.74818811485e-07 0)
(0.865729740211 -2.89316258215e-07 0)
(0.865729699579 -3.04479596865e-07 0)
(0.865729659254 -3.2027479774e-07 0)
(0.865729619105 -3.36426199873e-07 0)
(0.865729579676 -3.54008497333e-07 0)
(0.865729540724 -3.73598794855e-07 0)
(0.865729501713 -3.94848287245e-07 0)
(0.865729463931 -4.1807339716e-07 0)
(0.865729428013 -4.4338517111e-07 0)
(0.865729393095 -4.7060720692e-07 0)
(0.865729359783 -5.00369331634e-07 0)
(0.86572932932 -5.3253292736e-07 0)
(0.865729302782 -5.66399270902e-07 0)
(0.86572928289 -6.03238249786e-07 0)
(0.86572927155 -6.44796862713e-07 0)
(0.865729268361 -6.91612335993e-07 0)
(0.86572927527 -7.44606938461e-07 0)
(0.865729297297 -8.038672265e-07 0)
(0.865729336649 -8.67047263196e-07 0)
(0.865729395697 -9.36351857251e-07 0)
(0.865729480116 -1.01475511089e-06 0)
(0.865729595356 -1.10388284529e-06 0)
(0.865729750062 -1.20685116167e-06 0)
(0.865729955297 -1.32722676588e-06 0)
(0.865730221121 -1.46746008464e-06 0)
(0.865730561458 -1.63297774499e-06 0)
(0.865730995748 -1.83214463079e-06 0)
(0.865731544974 -2.07180052916e-06 0)
(0.865732236953 -2.36439532921e-06 0)
(0.86573310744 -2.73198638392e-06 0)
(0.865734196489 -3.18374128985e-06 0)
(0.865735554764 -3.73490099821e-06 0)
(0.865737248127 -4.40880415803e-06 0)
(0.865739356072 -5.23350335681e-06 0)
(0.865741974758 -6.24429673462e-06 0)
(0.865745225663 -7.48782269701e-06 0)
(0.865749257922 -9.01893380409e-06 0)
(0.8657542558 -1.09044510121e-05 0)
(0.865760451336 -1.32317434622e-05 0)
(0.865768128867 -1.61061334781e-05 0)
(0.86577763871 -1.96549302145e-05 0)
(0.8657894215 -2.40448808362e-05 0)
(0.865804018755 -2.94854321879e-05 0)
(0.865822095924 -3.62294470157e-05 0)
(0.865844483499 -4.45898398894e-05 0)
(0.865872207746 -5.49464284461e-05 0)
(0.865906536586 -6.77646887839e-05 0)
(0.865949048918 -8.36333351177e-05 0)
(0.866001702042 -0.000103288735519 0)
(0.866066912492 -0.000127637472084 0)
(0.866147678559 -0.000157807571023 0)
(0.866247721532 -0.000195205560653 0)
(0.866371648878 -0.00024157393249 0)
(0.866525179187 -0.000299081391147 0)
(0.866715412476 -0.000370431197317 0)
(0.866951149989 -0.000458983362222 0)
(0.867243323016 -0.000568931031392 0)
(0.867605532365 -0.000705525049279 0)
(0.868054690143 -0.000875334649643 0)
(0.868611847003 -0.00108660782107 0)
(0.869303260764 -0.00134975534008 0)
(0.870161725917 -0.00167795698843 0)
(0.871228282744 -0.00208798679081 0)
(0.87255443226 -0.00260134496574 0)
(0.874205001651 -0.0032458125964 0)
(0.876261919154 -0.0040576631316 0)
(0.878829247686 -0.00508486895535 0)
(0.882039988262 -0.00639191679005 0)
(0.886065427298 -0.00806733897153 0)
(0.891128221423 -0.01023598702 0)
(0.897520918028 -0.0130800793269 0)
(0.905632089807 -0.0168771931595 0)
(0.915981994816 -0.0220716318012 0)
(0.929266010379 -0.029412321774 0)
(0.946383713887 -0.040219554019 0)
(0.968362073795 -0.056867771581 0)
(0.99598926256 -0.0835196153266 0)
(1.02868372756 -0.126884209276 0)
(1.0601481132 -0.195171552162 0)
(1.02388345842 0.11932198848 0)
(1.08875436038 0.231514444065 0)
(1.13660482417 0.252868977258 0)
(1.15406271078 0.228905096712 0)
(1.15000110064 0.188337437924 0)
(1.13537621287 0.146577326959 0)
(1.11757776544 0.11016480628 0)
(1.10059202489 0.0808374933042 0)
(1.08612252209 0.0582499185463 0)
(1.07458787214 0.041341242643 0)
(1.06578727967 0.0289353659524 0)
(1.05928239384 0.0199755988683 0)
(1.05459264503 0.0135928642133 0)
(1.05128225634 0.00910457622814 0)
(1.04899023113 0.00598936756264 0)
(1.04743304359 0.00385665702547 0)
(1.04639583472 0.00241826677155 0)
(1.04572002503 0.00146437433763 0)
(1.04529102465 0.000844095899089 0)
(1.04502752964 0.000450254480641 0)
(1.04487282059 0.000207670208091 0)
(1.04478801467 6.4298794061e-05 0)
(1.04474675476 -1.54613514911e-05 0)
(1.04473166635 -5.53595533242e-05 0)
(1.04473155786 -7.12748621055e-05 0)
(1.04473922483 -7.34108590193e-05 0)
(1.04475028409 -6.82208470554e-05 0)
(1.0447621709 -5.96681106302e-05 0)
(1.04477347465 -5.00871456758e-05 0)
(1.04478350533 -4.07743975738e-05 0)
(1.04479200665 -3.23811664309e-05 0)
(1.04479897036 -2.51708127083e-05 0)
(1.04480452041 -1.9185098892e-05 0)
(1.04480884018 -1.43470458494e-05 0)
(1.04481212908 -1.05232492057e-05 0)
(1.04481457996 -7.56190495942e-06 0)
(1.04481636649 -5.31296596816e-06 0)
(1.04481763773 -3.63809153174e-06 0)
(1.04481851871 -2.41644354855e-06 0)
(1.04481911134 -1.5455454249e-06 0)
(1.04481949552 -9.39929660623e-07 0)
(1.0448197334 -5.30927763274e-07 0)
(1.04481987221 -2.64373225811e-07 0)
(1.0448199456 -9.75352120662e-08 0)
(1.04481997421 -3.43833406421e-10 0)
(1.04481997608 4.67089489635e-08 0)
(1.04481996505 6.53586148798e-08 0)
(1.04481994619 6.84777537744e-08 0)
(1.0448199244 6.31671519469e-08 0)
(1.0448199021 5.43151984896e-08 0)
(1.04481987963 4.5082058052e-08 0)
(1.04481985745 3.61667712676e-08 0)
(1.04481983419 2.73156866858e-08 0)
(1.04481980901 1.88068731992e-08 0)
(1.04481978457 1.24985738262e-08 0)
(1.04481976241 8.11661687442e-09 0)
(1.0448197411 5.20900189299e-09 0)
(1.04481971975 3.18601523825e-09 0)
(1.04481969827 1.56283825917e-09 0)
(1.04481967592 1.03028042129e-09 0)
(1.04481965328 1.45732593962e-09 0)
(1.04481963126 2.46423332487e-09 0)
(1.04481960897 4.77458107306e-09 0)
(1.04481958623 8.14722558428e-09 0)
(1.04481956367 1.14469907342e-08 0)
(1.04481954056 1.48360162517e-08 0)
(1.0448195165 1.84451460594e-08 0)
(1.04481949209 2.15880855355e-08 0)
(1.04481946646 2.47124369162e-08 0)
(1.04481943856 2.81875790216e-08 0)
(1.04481940896 3.14396922139e-08 0)
(1.04481937766 3.45308212228e-08 0)
(1.04481934454 3.76189684071e-08 0)
(1.04481931022 4.01239100404e-08 0)
(1.04481927418 4.23572927259e-08 0)
(1.04481923588 4.49708920683e-08 0)
(1.04481919637 4.75658346726e-08 0)
(1.04481915583 5.03581663947e-08 0)
(1.0448191136 5.40632919229e-08 0)
(1.04481907046 5.81546589982e-08 0)
(1.04481902658 6.24013087638e-08 0)
(1.04481898092 6.74381051428e-08 0)
(1.0448189342 7.29974720838e-08 0)
(1.04481888749 7.87533458227e-08 0)
(1.04481884033 8.49478277943e-08 0)
(1.04481879285 9.08727622335e-08 0)
(1.04481874557 9.59119051317e-08 0)
(1.04481869837 1.00552410638e-07 0)
(1.04481865206 1.04560207349e-07 0)
(1.04481860731 1.07418495763e-07 0)
(1.04481856341 1.09528220232e-07 0)
(1.04481852102 1.10676270442e-07 0)
(1.04481848177 1.10449575981e-07 0)
(1.04481844614 1.0922449247e-07 0)
(1.04481841542 1.05774704025e-07 0)
(1.04481839161 9.7474129397e-08 0)
(1.04481837527 8.31794822191e-08 0)
(1.04481836816 6.20325225455e-08 0)
(1.04481837472 3.1900311079e-08 0)
(1.04481839861 -1.01526456813e-08 0)
(1.04481844357 -6.62186997297e-08 0)
(1.04481851543 -1.39778742294e-07 0)
(1.04481862023 -2.33319065162e-07 0)
(1.04481876647 -3.50613266534e-07 0)
(1.04481896554 -4.98201212167e-07 0)
(1.04481922827 -6.8198222978e-07 0)
(1.04481956868 -9.09086781039e-07 0)
(1.04482000821 -1.19080402439e-06 0)
(1.04482057034 -1.5381815085e-06 0)
(1.04482128085 -1.96334017136e-06 0)
(1.04482217434 -2.48707508625e-06 0)
(1.04482329386 -3.13355620491e-06 0)
(1.04482469272 -3.93042306811e-06 0)
(1.04482643955 -4.91315156431e-06 0)
(1.04482861721 -6.1255976219e-06 0)
(1.04483132443 -7.6210840076e-06 0)
(1.04483468688 -9.46808690978e-06 0)
(1.04483886138 -1.17492862783e-05 0)
(1.04484403894 -1.45635725839e-05 0)
(1.04485045913 -1.80381764231e-05 0)
(1.04485841947 -2.23319428443e-05 0)
(1.04486828421 -2.76369467073e-05 0)
(1.04488050819 -3.41962143075e-05 0)
(1.04489565431 -4.23149199424e-05 0)
(1.04491441329 -5.23654255912e-05 0)
(1.04493764523 -6.48108147417e-05 0)
(1.04496641768 -8.02240050011e-05 0)
(1.04500204651 -9.93064191397e-05 0)
(1.04504616492 -0.000122929646952 0)
(1.04510080328 -0.000152181614464 0)
(1.04516847075 -0.000188407451517 0)
(1.0452522738 -0.000233274981322 0)
(1.0453560683 -0.000288859827578 0)
(1.04548462848 -0.000357735645618 0)
(1.04564387159 -0.000443100430878 0)
(1.04584114288 -0.000548940179018 0)
(1.04608554577 -0.000680213541476 0)
(1.04638836919 -0.000843095574983 0)
(1.04676364017 -0.00104530706406 0)
(1.04722878046 -0.00129651070651 0)
(1.04780542954 -0.00160881945253 0)
(1.04852051012 -0.00199748153316 0)
(1.04940754784 -0.0024817595239 0)
(1.05050833479 -0.00308609742293 0)
(1.05187505502 -0.00384170328485 0)
(1.05357297943 -0.00478870795849 0)