/*--------------------------------*- C++ -*----------------------------------*\
| =========                 |                                                 |
| \\      /  F ield         | OpenFOAM: The Open Source CFD Toolbox           |
|  \\    /   O peration     | Version:  2106                                  |
|   \\  /    A nd           | Website:  www.openfoam.com                      |
|    \\/     M anipulation  |                                                 |
\*---------------------------------------------------------------------------*/
FoamFile
{
    version     2.0;
    format      ascii;
    arch        "LSB;label=32;scalar=64";
    class       volScalarField;
    location    "0.305";
    object      p;
}
// * * * * * * * * * * * * * * * * * * * * * * * * * * * * * * * * * * * * * //

dimensions      [0 2 -2 0 0 0 0];

internalField   nonuniform List<scalar> 
11200
(
150.045054635
147.116452666
146.002601373
145.475269444
145.107938877
144.81315955
144.551514744
144.302975226
144.058455716
143.813386522
143.565070466
143.311752824
143.052201563
142.785481078
142.510824488
142.22755837
141.935056908
141.632714126
141.319931216
140.996120038
140.660656853
140.312892645
139.952169085
139.57781833
139.189154809
138.78547722
138.366069356
137.930200791
137.477127611
137.006093048
136.516328059
136.007051827
135.477471899
134.926784389
134.354174667
133.758818513
133.139881978
132.496521583
131.827884737
131.133110157
130.411328186
129.661660999
128.883222798
128.075119894
127.236450649
126.366305251
125.463765261
124.527902866
123.557779772
122.552445644
121.510935971
120.432269227
119.315443145
118.159429912
116.963170001
115.72556433
114.44546434
113.121659483
111.752861432
110.337684221
108.874619237
107.362003613
105.797979974
104.180447714
102.506996842
100.77482216
98.9806132246
97.1204100159
95.1894084061
93.1816936602
91.089876642
88.9045977106
86.6136584546
84.2008724389
81.6441538397
78.9118426848
75.956339232
72.7050673117
69.0043014128
64.2410116888
148.252012749
146.893838472
146.102866546
145.602851519
145.21186242
144.887978902
144.603456673
144.338853219
144.083364013
143.830840619
143.577455687
143.320695597
143.058823275
142.790562228
142.514912004
142.231037773
141.938202136
141.635722272
141.322939745
140.999192711
140.663830978
140.316179061
139.955593273
139.581405472
139.192919662
138.789428817
138.370213895
137.934542642
137.481669855
137.010837783
136.521276388
136.012203303
135.482824194
134.932338832
134.35993454
133.76478711
133.146062324
132.502916657
131.834497535
131.139943751
130.418385793
129.668946052
128.890739047
128.082871518
127.244442398
126.374542617
125.472254686
124.536652003
123.5667978
122.56174365
121.520527423
120.442170555
119.325674464
118.170015915
116.974141067
115.7369579
114.457326617
113.134047538
111.765845835
110.351352447
108.889080258
107.377394019
105.814470023
104.198245311
102.526352198
100.796050076
99.0041234479
97.1467349252
95.2192451279
93.2159693567
91.1298387777
88.9518971108
86.6705967478
84.2708018738
81.7321173377
79.0260348522
76.1117562524
72.9314475706
69.3823191105
65.2695149349
147.256822544
146.602621967
146.050265794
145.612647355
145.241022718
144.918920037
144.629819124
144.359584081
144.099119872
143.842637597
143.586252238
143.327282063
143.063814998
142.794424048
142.517988118
142.233578576
141.940385788
141.637671166
141.324736424
141.000904714
140.665513972
140.317924631
139.957392677
139.583264461
139.194847891
138.791433382
138.372299593
137.936713184
137.483928648
137.013188463
136.523723464
136.01475353
135.485487756
134.935118728
134.36282868
133.767795779
133.149186952
132.506159195
131.837860784
131.143431349
130.422002232
129.672696755
128.894630535
128.086911613
127.248640495
126.378910024
125.476805044
124.541401803
123.571767025
122.566956569
121.526013584
120.447965971
119.33182306
118.17657129
116.981168648
115.744537564
114.465555941
113.143045933
111.775759676
110.362361304
108.901403809
107.39130035
105.830286975
104.21639496
102.547386977
100.820669261
99.0332001579
97.1813811629
95.2608982168
93.266512836
91.1917754909
89.0286234673
86.7669620017
84.3938754532
81.8926431124
79.2414051145
76.4121882797
73.3733778793
70.0889970165
66.5360258145
146.707061402
146.343679901
145.943781411
145.574790193
145.237172428
144.929068647
144.643703731
144.372997999
144.110624061
143.851954916
143.593572505
143.332945258
143.068173317
142.797789389
142.520617381
142.235674763
141.942105214
141.639132545
141.326029637
141.002096578
140.666642451
140.318977101
139.958459329
139.584365986
139.195986358
138.792612733
138.373523523
137.937984157
137.485248002
137.014556526
136.525139396
136.016214697
135.486989777
134.936662953
134.364424062
133.769447588
133.150901419
132.507943313
131.839720563
131.145373257
130.424033537
129.674825739
128.89686692
128.089266986
127.251128777
126.381548036
125.479613176
124.544404818
123.574995037
122.57044619
121.529809256
120.452121693
119.336404539
118.181658575
116.986859437
115.75095142
114.472839499
113.151379084
111.785363249
110.373506442
108.914427259
107.40662797
105.848447646
104.238027111
102.573264916
100.851762401
99.0707443061
97.226958636
95.3165524142
93.334915849
91.2764920423
89.1345516893
86.9008633311
84.5653853324
82.116029061
79.5386966699
76.8186432894
73.9461623433
70.9248527022
67.7918939951
146.373013522
146.141217883
145.839805007
145.528827119
145.223986443
144.931961584
144.6529843
144.383856334
144.120894066
143.860807342
143.600835728
143.338741788
143.072732979
142.801360207
142.523426768
142.237915686
141.943934328
141.640673489
141.327377866
141.003324867
140.66780963
140.320135848
139.959607183
139.585513048
139.197156296
138.793820596
138.374779128
137.939294908
137.486619961
137.015995194
136.526650362
136.017804228
135.488664641
134.938428263
134.366281182
133.771399703
133.152949299
132.510087899
131.841966129
131.147724502
130.426497659
129.677412258
128.899587805
128.092136985
127.254165904
126.384774165
125.483054811
124.548094064
123.578970754
122.574755438
121.534509651
120.4572835
119.342113405
118.188018923
116.993998501
115.759023712
114.482031927
113.161919528
111.797528881
110.387640498
108.93095177
107.426050789
105.871400516
104.265306346
102.605874655
100.890963556
99.118125588
97.2845388935
95.3869240408
93.4214469282
91.3836109255
89.2681515712
87.068960594
84.7791195338
82.3912078862
79.8982166783
77.2959497635
74.5888493668
71.7982756658
68.9749244959
146.169621106
145.993718908
145.752523727
145.485197221
145.208009214
144.931369585
144.659678284
144.393174783
144.130407525
143.869396427
143.608106569
143.344670887
143.077463904
142.805094778
142.526370608
142.240253692
141.945821988
141.642236109
141.32871333
141.004507872
140.66889635
140.321166903
139.960610138
139.586516328
139.198174903
138.794865108
138.375857475
137.940412973
137.487782126
137.01720459
136.527909131
136.019113677
135.490025512
134.939841426
134.367748146
133.772922997
133.154534507
132.511742424
131.843698031
131.149545698
130.428420934
129.679451117
128.901757832
128.094456349
127.256656185
126.387461486
125.485970929
124.551277616
123.582468854
122.578625653
121.538821322
120.462120755
119.347578417
118.194235868
117.001118636
115.767232568
114.49155946
113.173046702
111.810603738
110.403081178
108.949263105
107.447857007
105.897479438
104.296614333
102.643594647
100.936570575
99.1734713087
97.3519632798
95.4694066773
93.5228158395
91.5088347388
89.4237518742
87.2636010996
85.0244413942
82.7029880709
80.2978896209
77.8122138291
75.2581150675
72.6625415152
70.0725900958
146.046504397
145.89089666
145.684594523
145.448031886
145.192556019
144.929275736
144.664661604
144.401151961
144.139017572
143.877430598
143.615057004
143.350420277
143.082090638
142.808759538
142.529254803
142.242528856
141.947636775
141.643712737
141.329948733
141.005576868
140.669855329
140.322057701
139.961465158
139.587360162
139.199023853
138.795730506
138.376747801
137.941334522
137.488739678
137.018202068
136.528950069
136.020201583
135.491164145
134.941035288
134.369002943
133.77424534
133.155931427
132.513221771
131.845268565
131.151215402
130.430197681
129.681346606
128.903788174
128.096641956
127.259022246
126.390038486
125.488795741
124.554394922
123.585932805
122.582501804
121.543189354
120.467077716
119.353242563
118.200751287
117.00866067
115.776013494
114.501834198
113.185127854
111.824868916
110.419997258
108.969411783
107.471952525
105.926390335
104.331412705
102.685607901
100.98744675
99.2352649867
97.4272488988
95.5614289026
93.6356907005
91.647820135
89.5956113116
87.4770850108
85.2909088129
83.0371517054
80.7185714224
78.3427170251
75.9251872745
73.4928579652
71.0850855323
145.972424793
145.822414606
145.635658781
145.419553101
145.179846667
144.927025004
144.668387437
144.407648746
144.146281496
143.884359287
143.621141253
143.355503961
143.086206891
142.812028798
142.531826167
142.244549156
141.949236275
141.645000198
141.331011388
141.006482681
140.670656113
140.322792346
139.96216244
139.588040836
139.199703809
138.796420656
138.377456296
137.942067467
137.489501825
137.018997368
136.529782079
136.02107379
135.49208022
134.941999144
134.370018659
133.775317477
133.157065381
132.514423403
131.846544712
131.152575788
130.43165822
129.682925348
128.905503882
128.098516895
127.261083388
126.392318666
125.4913349
124.557241582
123.589145882
122.58615296
121.547366247
120.471886738
119.358812819
118.207239603
117.016257876
115.784952747
114.512401631
113.197670437
111.839811695
110.437856715
108.99081433
107.497664967
105.957354185
104.368785156
102.730813521
101.042243913
99.3018308875
97.5082886227
95.6603157829
93.7566475461
91.7961516769
89.7779984093
87.7019421072
85.5687952783
83.3811715856
81.1446046401
78.8691309988
76.5713558871
74.2759595858
72.0149501274
145.930148484
145.780700777
145.604285124
145.400546857
145.17101415
144.925305753
144.670945746
144.412307319
144.151600452
143.889506121
143.625708419
143.359349473
143.089337747
142.814524589
142.533793258
142.246095565
141.950459478
141.645982465
141.331819192
141.007168097
140.671259023
140.323342748
139.962682619
139.588548051
139.200207879
138.796931388
138.377980397
137.942609909
137.490066605
137.019587929
136.530401593
136.02172543
135.492767368
134.942725569
134.370788697
133.776136281
133.157939201
132.515360264
131.847555022
131.153672083
130.432851792
129.684231106
128.906941772
128.100111251
127.262863614
126.394320372
125.493601276
124.559825062
123.592110166
122.589575355
121.551340298
120.476526097
119.364255681
118.213653984
117.023847939
115.793966193
114.52313858
113.210496278
111.855170656
110.456292827
109.012991421
107.524392762
105.989621009
104.407799398
102.778054856
101.099527061
99.3713854365
97.5928587961
95.7632842206
93.88218897
91.9494183238
89.9653392046
87.9311468816
85.8493330091
83.7243441734
81.5634759694
79.3779789442
77.1842651819
75.0043795928
72.8645016959
145.910872081
145.760994214
145.589031243
145.391095809
145.166534543
144.924415559
144.672280517
144.414771677
144.154444595
143.892283392
143.62819279
143.361457039
143.091066537
142.815913801
142.534898169
142.24697345
141.951162596
141.646555232
141.332297672
141.007580659
140.671627472
140.323683553
139.963008006
139.588866945
139.200527857
138.797257313
138.378316194
137.942958789
137.490431354
137.019971215
136.530806071
136.022153954
135.493223165
134.943212415
134.371311108
133.77669973
133.158550332
132.516027043
131.848286576
131.154478868
130.433748721
129.685235477
128.908074161
128.101396541
127.264332032
126.396008649
125.495554017
124.562096418
123.594765869
122.592695223
121.555021289
120.480885955
119.369437348
118.219831012
117.031231147
115.802811927
114.533758848
113.223269652
111.870557044
110.474851852
109.035402358
107.551481978
106.022394282
104.44748141
102.826137471
101.157828236
99.4421210062
97.6787292352
95.8675782402
94.0089056562
92.1034037228
90.1524417213
88.1583599657
86.124912351
84.0578066808
81.9653881442
79.8593806461
77.7555389517
75.6735539813
73.6353508377
145.910874682
145.761010292
145.589058265
145.391132059
145.166579248
144.924467886
144.67233954
144.414836569
144.154514658
143.89235805
143.62827158
143.361539602
143.091152609
142.816003198
142.534990779
142.247069227
141.951261544
141.64665741
141.332403188
141.007689674
140.671740211
140.323800316
139.963129188
139.588993057
139.200659592
138.797395401
138.378461555
137.943112561
137.490594929
137.020146141
136.530994362
136.022358065
135.493446072
134.943457726
134.371583194
133.777003876
133.158892915
132.516415806
131.848731085
131.154991065
130.434342629
129.685928119
128.908886302
128.102353432
127.26546434
126.397353608
125.497156835
124.56401198
123.597060808
122.595450419
121.558334913
120.484877161
119.374250755
118.225642137
117.038252945
115.811302655
114.544031604
113.235704068
111.885614073
110.493092626
109.057505508
107.578270856
106.05486763
104.486849941
102.873867772
101.215693723
99.5122605286
97.7637177397
95.9705111599
94.1334911867
92.2540889659
90.3346032782
88.3781457965
86.3893408388
84.3747044669
82.3431383836
80.3064290119
78.2795944193
76.280537963
74.3283535007
145.930156343
145.780749386
145.604366795
145.400656353
145.171149127
144.925463502
144.671123458
144.412502529
144.15181108
143.889730448
143.625945067
143.359597376
143.089596116
142.81479288
142.534071142
142.2463829
141.950756291
141.646288937
141.332135647
141.00749502
140.671597087
140.323692843
139.963045893
139.588926055
139.20060259
138.797344991
138.378415607
137.943070042
137.490555696
137.020110856
136.530964319
136.022335198
135.49343298
134.943457735
134.371600465
133.777043546
133.158961291
132.516520592
131.848881656
131.155198806
130.434621379
129.686294731
128.909361281
128.102961695
127.266236149
126.398325715
125.498373862
124.565528096
123.59894176
122.597775994
121.561201919
120.488403045
119.37857798
118.230943485
117.044737945
115.819225401
114.55370025
113.247492421
111.899973838
110.510567074
109.078760158
107.604105874
106.086248013
104.524938387
102.9200623
101.27167587
99.5800669488
97.845818454
96.0698180997
94.2534422392
92.398665604
90.5081745946
88.5859479914
86.6372419992
84.6690478861
82.6905190936
80.7133292355
78.7518831985
76.8228985698
74.9438164534
145.972438095
145.822496868
145.63579675
145.419737682
145.18007375
144.927289902
144.66868538
144.407975593
144.146633776
143.884734146
143.621536414
143.355917666
143.086637845
142.812476113
142.532289309
142.245027905
141.949730688
141.645510586
141.331538301
141.007026934
140.671218844
140.323375043
139.962766924
139.588669745
139.20036002
138.797107934
138.378179143
137.942831331
137.490313328
137.019864555
136.530714719
136.022083738
135.493181862
134.943209947
134.371359845
133.776814911
133.158750602
132.516335177
131.848730469
131.155092764
130.434573784
129.686321767
128.90948264
128.103201324
127.266623156
126.398895464
125.499169299
124.56660136
123.600356126
122.59960824
121.563545175
120.491370251
119.382306062
118.235598395
117.050520735
115.826379546
114.562520454
113.258335464
111.913270995
110.526840032
109.09863297
107.628337592
106.115753764
104.560821453
102.963655142
101.324567585
99.6441122283
97.9231502815
96.1630033202
94.3654847581
92.5330491528
90.6689579143
88.7775198
86.8643365837
84.936626947
83.00356294
81.0765855131
79.1696410012
77.2988620453
75.4811635619
146.046523511
145.891014716
145.68479186
145.44829495
145.192878609
144.929650979
144.665082646
144.401612936
144.139513615
143.87795774
143.615612096
143.351000902
143.08269502
142.809386462
142.529903543
142.243199115
141.948328633
141.644426613
141.33068537
141.00633736
140.670641211
140.322871055
139.962308627
139.588237158
139.199938403
138.796687714
138.377753845
137.942396859
137.48986737
137.019406151
136.530243976
136.021601658
135.492690258
134.942711422
134.370857837
133.776313782
133.158255792
132.515853418
131.848270058
131.154663881
130.434188872
129.685995973
128.909234391
128.103053021
127.266602029
126.399034601
125.499508895
124.567190222
123.601253492
122.600885978
121.565290446
120.493688727
119.385325813
118.23947457
117.05544122
115.832571727
114.570259321
113.267953496
111.925170515
110.54150531
109.116648576
107.650404522
106.142711936
104.593670652
103.003572326
101.372957291
99.7026597449
97.9938625306
96.2481769545
94.4677450294
92.6553649535
90.8146365427
88.9501411434
87.0676527063
85.1744003532
83.2793676474
81.3936339378
79.5307684215
77.7067817247
75.9390834901
146.169646695
145.993876458
145.752785623
145.485544539
145.208433181
144.931860825
144.660227716
144.393774782
144.131051853
143.870080042
143.608825503
143.345422114
143.078245209
142.805904653
142.527208151
142.241118523
141.946714165
141.643156056
141.329661793
141.005485906
140.669905286
140.322208666
139.961689197
139.587638535
139.199344854
138.796088562
138.377141847
137.941767325
137.489217511
137.018734603
136.529550473
136.02088684
135.491955572
134.941959096
134.370090909
133.77553615
133.157472286
132.515069981
131.847493994
131.153904192
130.43345666
129.685304888
128.90860114
128.102497975
127.266149964
126.398715611
125.499359513
124.567254782
123.601585783
122.601551233
121.566367732
120.495273838
119.387534754
118.242447734
117.059348425
115.837618312
114.576693493
113.276074855
111.93534022
110.554158916
109.132308764
107.669696732
106.166384251
104.62261779
103.038863971
101.415851251
99.754622778
98.056600119
96.3236580314
94.558209538
92.7633095952
90.9427753752
89.1013303888
87.2447651316
85.3801405635
83.516049963
81.6630074076
79.8340932098
78.0453381984
76.3154164426
146.37304627
146.141419785
145.840137943
145.529265689
145.224518616
144.932575058
144.653667618
144.384600113
144.12169076
143.861650934
143.601721531
143.339666265
143.073693589
142.80235528
142.524455395
142.23897762
141.945029862
141.641803285
141.328542759
141.004525907
140.669048363
140.321413416
139.960925623
139.586885733
139.198587168
138.795315404
138.376346075
137.940944269
137.4883643
137.017849683
136.5286333
136.019937687
135.490975458
134.940949771
134.369054895
133.774476852
133.156394114
132.513978442
131.846395795
131.152807359
130.432370784
129.684241595
128.907574642
128.101525673
127.265253159
126.397920344
125.498697536
124.56676473
123.601314583
122.601555847
121.566717292
120.496052188
119.388843487
118.244409879
117.062112878
115.841364989
114.581638669
113.282478964
111.943516802
110.564484725
109.145235949
107.685766906
106.186243814
104.647034323
103.068744886
101.452265055
99.7988182032
98.1100207241
96.3879514063
94.6352280169
92.8550922327
91.0515016952
89.22923047
87.3939753922
85.5524877281
83.7127613448
81.8844173772
80.0796099031
78.3138543716
76.6070059309
146.707101332
146.343929829
145.944187899
145.575320401
145.237810372
144.929798619
144.644511791
144.373873062
144.111557366
143.85293958
143.594603235
143.334018126
143.06928559
142.798939421
142.521804562
142.236899519
141.94336902
141.64043786
141.327379423
141.003494687
140.668097979
140.320505722
139.960033869
139.585989742
139.197673159
138.794373889
138.375370668
137.939930868
137.487310351
137.016753683
136.527494547
136.018756138
135.489751566
134.939684406
134.367749355
133.773133061
133.155014915
132.512567676
131.844958478
131.151350147
130.430902353
129.682772195
128.906116661
128.100094129
127.263866221
126.396599984
125.497470368
124.565663039
123.600377609
122.600831207
121.566262415
120.495936465
119.3891508
118.245241571
117.06359127
115.843637776
114.584885609
113.28691698
111.949406612
110.572139271
109.155030007
107.698147916
106.201744146
104.666284751
103.092488886
101.481373226
99.8343026057
98.1530469488
96.4398439149
94.6974657092
92.9292881032
91.1393576095
89.3324503579
87.5141176842
85.6907237738
83.8694854833
82.0587050099
80.2687631523
78.5128748384
76.8096921055
147.256874481
146.602934082
146.050755855
145.613274531
145.241767344
144.919763121
144.630744509
144.360579216
144.100174939
143.843744895
143.587405797
143.328477329
143.065048584
142.795693542
142.519291977
142.234916163
141.941757726
141.639080203
141.32618769
141.002404744
140.667063262
140.31949299
139.959014985
139.584949045
139.196599737
138.793260077
138.374211342
137.938722756
137.486051663
137.015443618
136.526133032
136.017343722
135.488289374
134.938174116
134.366193149
133.771533256
133.153372948
132.510886252
131.843241219
131.149601223
130.429126499
129.680976314
128.904309569
128.098286766
127.2620721
126.394835717
125.495756283
124.564023882
123.598843318
122.599438009
121.565054693
120.494968185
119.388487366
118.244962145
117.063791517
115.844432849
114.586412741
113.289341664
111.952927929
110.576995991
109.161507805
107.706587776
106.212551901
104.679941529
103.109562134
101.502527473
99.8603091645
98.1847909883
96.4783261763
94.7438005315
92.9846875695
91.2050971948
89.4098022689
87.6042316148
85.7944023707
83.9867022488
82.1877916047
80.4052291113
78.6461278569
76.9191804368
148.252112097
146.894296079
146.103549151
145.603706309
145.212866287
144.889111069
144.604700139
144.340194909
144.084793724
143.832350302
143.579038982
143.322347415
143.060539386
142.79233885
142.516745396
142.232923846
141.940135931
141.637697136
141.324950232
141.001246582
140.665926699
140.318341119
139.957837902
139.583733687
139.195336805
138.791943649
138.372837139
137.937285469
137.484547672
137.013870829
136.524489967
136.015629231
135.486502583
134.936314438
134.364260371
133.769528085
133.151298939
132.508745913
131.841037166
131.147336971
130.426806701
129.678606157
128.901895262
128.09583592
127.259594043
126.392341857
125.49326055
124.561543286
123.596398657
122.597054623
121.562763052
120.492805064
119.386497209
118.243198655
117.062319599
115.843331228
114.58577755
113.289287436
111.953591985
110.578542962
109.164134546
107.71052881
106.218085312
104.68739527
103.119320702
101.515038802
99.8760911598
98.2044356006
96.5024987618
94.7732549651
93.0202521174
91.2476584328
89.4602787413
87.6635304135
85.86331045
84.0654853894
82.275584683
80.498370752
78.7286458609
76.9368966035
150.045220611
147.117122743
146.003594602
145.476523647
145.109423835
144.814850643
144.553393389
144.305027866
144.06067245
143.815760305
143.567596588
143.314428605
143.055026231
142.7884558
142.513952482
142.230844953
141.938509405
141.636341209
141.32373782
141.000091783
140.664797769
140.317215965
139.956677467
139.582517048
139.194052579
138.790584869
138.371400101
137.935773276
137.482962053
137.012212022
136.522758242
136.013825012
135.484626369
134.934366763
134.362241769
133.767438798
133.149138046
132.506513522
131.838734023
131.144964167
130.424365715
129.676099087
128.899324928
128.093205941
127.256908974
126.389607374
125.490483665
124.558732593
123.593564635
122.594210029
121.559923453
120.48998939
119.383728392
118.240504402
117.05973328
115.840892794
114.58353444
113.287297269
111.951924055
110.577280233
109.163376145
107.710392979
106.218712848
104.688953422
103.122007454
101.519087282
99.8817743646
98.2120761386
96.5124893658
94.7860196703
93.0362722542
91.2674841469
89.484544452
87.6929718994
85.8988126998
84.1085643461
82.3286481108
80.5638489156
78.7937099844
76.8937598754
56.8468546901
53.2947504167
50.903310395
48.945917502
47.2739386723
45.8172090554
44.5317452646
43.3878354873
42.3637964433
41.4428675897
40.6116264856
39.8590512235
39.1759245102
38.5544341101
37.987890116
37.4705167165
36.9972938504
36.5638337931
36.1662828774
35.8012420015
35.4657014579
35.1569869023
34.8727141721
34.6107512614
34.3691861672
34.1462994765
33.9405409388
33.7505093165
33.5749350116
33.4126650928
33.2626502849
33.1239336009
32.9956403099
32.8769691683
32.7671846633
32.6656100032
32.571620453
32.4846367215
32.404118042
32.329552362
32.2604495628
32.1964156489
32.137418204
32.0830327743
32.0327867687
31.9862503699
31.9431454468
31.9032255208
31.8662549164
31.8320115813
31.8002936561
31.7709345187
31.743739628
31.7185319071
31.6951527575
31.6734657162
31.6533303439
31.6346119752
31.6171928135
31.6009642312
31.585825194
31.5716841585
31.5584571619
31.546066131
31.5344384308
31.5235070192
31.5132102224
31.5034913096
31.494298124
31.4855826688
31.477300814
31.4694120547
31.461879277
31.45466851
31.4477486661
31.441091312
31.4346704146
31.4284621923
31.4224449434
31.4165988805
31.4109059613
31.4053497285
31.3999151796
31.3945886396
31.3893576625
31.3842108892
31.3791380095
31.37412959
31.3691770801
31.3642726541
31.359409187
31.3545801543
31.3497793289
31.3450009367
31.340239692
31.3354901102
31.3307466009
31.32600427
31.3212603775
31.3165108575
31.3117554253
31.3070125002
31.3022630043
31.2975033575
31.2927364534
31.2879881289
31.2832219546
31.2784260727
31.2735949156
31.2687255413
31.2638159457
31.2588638866
31.253866524
31.248820669
31.243723949
31.2385745298
31.2333701912
31.2281059577
31.2227696564
31.2173369719
31.2117743077
31.206084008
31.2006714635
31.1954850027
31.1903238561
31.1849445372
31.1794960198
31.1740332538
31.1685868433
31.1631857974
31.1578641678
31.1526642632
31.1476327879
31.1428211246
31.1382834727
31.1340728956
31.1302388561
31.1268290779
31.1238614875
31.121326825
31.1194192441
31.117854886
31.1165721121
31.1150424572
31.1117175206
31.1025045183
31.0775964369
31.0154670845
30.8750406966
30.5858798631
30.0428246546
29.1129833725
27.6633184722
25.6004401232
22.8977829914
19.611274033
15.8598556747
11.6128296716
6.595145947
1.56786109432
60.0282200244
55.9753956349
53.2634168144
51.1110952718
49.3092205024
47.7593894979
46.4033882371
45.2039755088
44.1349656275
43.1767109453
42.3138562562
41.5340410929
40.8270963487
40.1845191568
39.5991096251
39.0647096943
38.5760087119
38.1283949786
37.717839785
37.3408052829
36.9941701435
36.6751688312
36.3813415724
36.1104926506
35.860655592
35.6300638011
35.4171255776
35.2204029162
35.0385932556
34.8705139411
34.7150887085
34.5713360433
34.4383588956
34.31533595
34.2015140644
34.0962016931
33.9987635166
33.9086155393
33.825222276
33.7480960824
33.6767949766
33.6108894462
33.5498360002
33.4933039317
33.4409892227
33.3926069988
33.3478649927
33.3064832637
33.2682023471
33.2327822423
33.1999987549
33.1696388253
33.1415114656
33.1154459011
33.0912729027
33.0688371002
33.0480010443
33.0286398838
33.0106339467
32.9938722782
32.9782547179
32.9636830442
32.9500659875
32.9373211258
32.925372629
32.9141505597
32.9035906239
32.8936336843
32.884225356
32.8753155966
32.8668583964
32.8588115247
32.8511362785
32.8437972256
32.8367619325
32.8300007374
32.8234864597
32.8171942667
32.8111015073
32.8051875178
32.7994334598
32.7938221431
32.78833788
32.7829663795
32.7776946583
32.7725108885
32.7674042578
32.7623649721
32.7573839903
32.7524531341
32.7475648948
32.7427125929
32.737889465
32.7330899921
32.7283088554
32.7235427387
32.7187945905
32.7140512516
32.7093092009
32.7045637596
32.6998087927
32.6950212247
32.690213931
32.6853846444
32.680531523
32.6756472167
32.6707316123
32.6657868994
32.6608129622
32.6558078496
32.6507697728
32.6456966987
32.6405859155
32.635434738
32.6302412981
32.625005461
32.6197273254
32.6144066395
32.6090441646
32.6036468206
32.5982258144
32.5927722706
32.5872616065
32.5816272454
32.5757981907
32.5702044716
32.564659712
32.5591040194
32.5535946419
32.5481557983
32.5428282883
32.5376590482
32.5327002412
32.528011065
32.5236561926
32.5197007397
32.5162080303
32.5132458454
32.5108142569
32.5090239478
32.5078407563
32.5071664257
32.5067592841
32.5058754502
32.5024520589
32.4914013698
32.4609777441
32.3863935203
32.2216527268
31.8900465817
31.2803510702
30.2566907028
28.6890925516
26.4939365306
23.6565346895
20.2373591085
16.3533472553
11.9889716188
6.88299423868
1.70096656166
62.235663577
58.3022092159
55.4350720343
53.1511895422
51.2493100302
49.6229603861
48.2071061072
46.9597242398
45.8513803117
44.8601985549
43.9692665884
43.1651157765
42.4367759022
41.7751569931
41.1726236046
40.6226907826
40.1197996397
39.6591477178
39.2365578349
38.848374974
38.4913839691
38.1627429203
37.8599288528
37.5806928669
37.3230229796
37.0851130425
36.86533648
36.6622241617
36.4744454623
36.3007922104
36.1401647463
35.9915600323
35.8540611483
35.7268283662
35.6090913674
35.5001422331
35.3993296436
35.3060531363
35.2197582012
35.1399317929
35.066099045
34.99782696
34.9346690196
34.8760779376
34.8218869574
34.7717881138
34.7254599435
34.6826112282
34.6429748147
34.6063039766
34.5723711431
34.5409644647
34.5118870765
34.4849559464
34.4599999847
34.4368548482
34.4153730636
34.3954231307
34.3768806664
34.3596284826
34.3435546105
34.3285613473
34.3145595544
34.3014648953
34.2891987896
34.2776886134
34.2668677042
34.2566746227
34.2470527874
34.237950134
34.2293188023
34.2211148548
34.2132979972
34.2058313154
34.1986810132
34.1918162495
34.1852087506
34.1788326706
34.1726644208
34.1666824862
34.1608672421
34.1552007957
34.149666822
34.1442504195
34.1389380513
34.1337173509
34.1285770784
34.1235070001
34.1184978688
34.1135412439
34.1086293215
34.1037553085
34.0989116363
34.0940918457
34.0892897712
34.0844979738
34.0797053151
34.0749143259
34.0701200373
34.0653137095
34.0604757317
34.0556340055
34.0507830134
34.0459174584
34.041033711
34.0361284885
34.0311962851
34.0262332433
34.0212365853
34.0162038844
34.0111332867
34.0060227085
34.0008697698
33.9956723565
33.9904292012
33.9851398123
33.9798043101
33.9744219114
33.9689923297
33.9635177879
33.958005541
33.9524511953
33.9468515613
33.9412503171
33.9356976168
33.9300274517
33.924383988
33.9186088113
33.9129704401
33.9074647242
33.9021119471
33.8969547899
33.8920479547
33.8874559897
33.8832519547
33.879513472
33.8763278679
33.8737941815
33.8718416831
33.8705930303
33.870071727
33.8701172196
33.8703753527
33.8698436686
33.8658957527
33.8523894229
33.8156142696
33.727511539
33.537372388
33.1626966623
32.4870288065
31.3724625063
29.6925461592
27.3727262681
24.4084345981
20.8628744437
16.8496569803
12.3676670199
7.17045496215
1.83185850653
64.0398526276
60.3151403043
57.4111796954
55.0560625727
53.0860722725
51.4018711503
49.9382926507
48.651447084
47.5100737069
46.4908320469
45.5756929916
44.7503518382
44.0032153939
43.324728886
42.706908638