/*--------------------------------*- C++ -*----------------------------------*\
| =========                 |                                                 |
| \\      /  F ield         | OpenFOAM: The Open Source CFD Toolbox           |
|  \\    /   O peration     | Version:  2106                                  |
|   \\  /    A nd           | Website:  www.openfoam.com                      |
|    \\/     M anipulation  |                                                 |
\*---------------------------------------------------------------------------*/
FoamFile
{
    version     2.0;
    format      ascii;
    arch        "LSB;label=32;scalar=64";
    class       surfaceScalarField;
    location    "0.05";
    object      phi;
}
// * * * * * * * * * * * * * * * * * * * * * * * * * * * * * * * * * * * * * //

dimensions      [0 3 -1 0 0 0 0];

oriented        oriented;

internalField   nonuniform List<scalar> 
22100
(
3.38459866659e-05
1.61540133328e-05
2.24569234476e-05
1.13890629619e-05
1.62582480971e-05
6.19867521472e-06
1.27977693777e-05
3.46047871953e-06
1.0805475379e-05
1.99229415157e-06
9.60706550155e-06
1.19841006749e-06
8.85650141665e-06
7.50564200437e-07
8.37349470749e-06
4.83006672866e-07
8.05878562495e-06
3.14708931055e-07
7.85389332419e-06
2.04892134309e-07
7.72214740091e-06
1.31745823076e-07
7.63946110898e-06
8.26862824197e-08
7.58954428305e-06
4.99168725846e-08
7.56121082517e-06
2.83334812747e-08
7.54674600449e-06
1.44647873639e-08
7.54081927849e-06
5.92664082144e-09
7.53955670048e-06
1.26248866907e-09
7.54115495694e-06
-1.59830832033e-09
7.54402940156e-06
-2.87447369175e-09
7.54710920116e-06
-3.07983879174e-09
7.54994472309e-06
-2.83562689108e-09
7.55233631523e-06
-2.39178655915e-09
7.55422334721e-06
-1.88728122348e-09
7.55558170866e-06
-1.35860789747e-09
7.5566030196e-06
-1.02150495015e-09
7.55732227287e-06
-7.19391466451e-10
7.55780712273e-06
-4.84969646771e-10
7.55812137637e-06
-3.14400875842e-10
7.55831675961e-06
-1.95588392642e-10
7.55843259387e-06
-1.16107120071e-10
7.55849728077e-06
-6.50236969716e-11
7.5585291134e-06
-3.2224988618e-11
7.55853799946e-06
-9.34628238395e-12
7.5585341789e-06
3.28054986581e-12
7.55852423309e-06
9.29224339194e-12
7.55851149248e-06
1.20020754718e-11
7.55849777612e-06
1.28978750258e-11
7.55848397467e-06
1.2943149337e-11
7.55847035648e-06
1.27610014428e-11
7.55845686089e-06
1.26495679391e-11
7.55844330514e-06
1.26992808373e-11
7.55842950869e-06
1.28956816402e-11
7.55841535291e-06
1.32031393697e-11
7.55840076505e-06
1.36278570272e-11
7.55838564118e-06
1.42250256175e-11
7.55836978249e-06
1.50642427243e-11
7.55835286472e-06
1.62164761064e-11
7.55833444992e-06
1.77504023046e-11
7.55831403711e-06
1.97182328768e-11
7.55829104449e-06
2.22530089754e-11
7.55826479888e-06
2.55179255549e-11
7.55823448211e-06
2.96764675073e-11
7.55819907533e-06
3.48821072347e-11
7.55815736727e-06
4.12553918638e-11
7.55810803047e-06
4.88696163058e-11
7.55804973043e-06
5.77387583676e-11
7.55798129127e-06
6.77481003663e-11
7.557901996e-06
7.85024644785e-11
7.55781201109e-06
8.91707947165e-11
7.55771321916e-06
9.80249133946e-11
7.5576117358e-06
1.00765381022e-10
7.55752013e-06
9.08931095025e-11
7.55745203878e-06
6.73599679701e-11
7.55742579942e-06
2.55559000544e-11
7.5574813888e-06
-5.60936679729e-11
7.55768520516e-06
-2.04075603018e-10
7.55814567447e-06
-4.60505975525e-10
7.55903590221e-06
-8.90106092777e-10
7.56062757792e-06
-1.5914446333e-09
7.56332543776e-06
-2.69753240947e-09
7.56761288708e-06
-4.28706617863e-09
7.57508719118e-06
-7.47395222432e-09
7.58743889524e-06
-1.2351513194e-08
7.60821088051e-06
-2.07720183475e-08
7.64580137269e-06
-3.75907255254e-08
7.72318322403e-06
-7.73823316857e-08
7.90716446384e-06
-1.83981926919e-07
8.40671292256e-06
-4.99549295368e-07
1.00205390567e-05
-1.61382713511e-06
-6.08504375209e-06
1.61055817529e-05
5.02174954102e-05
1.59365177402e-05
4.42440548488e-05
1.73625033093e-05
3.77800181446e-05
1.26627119841e-05
3.26482179883e-05
8.59227912198e-06
2.89432486022e-05
5.69726382925e-06
2.63699689113e-05
3.77168991732e-06
2.46057006856e-05
2.51483238476e-06
2.34025247428e-05
1.68618242189e-06
2.2586604272e-05
1.13062918614e-06
2.20383058792e-05
7.53190408895e-07
2.16750952591e-05
4.94956456325e-07
2.14395245941e-05
3.18257028497e-07
2.12912655216e-05
1.98175993519e-07
2.12018806492e-05
1.17718309564e-07
2.11513380928e-05
6.50072105763e-08
2.11256546031e-05
3.16099711618e-08
2.11154931386e-05
1.14238330951e-08
2.1114237467e-05
-3.4273260595e-10
2.11170439363e-05
-5.68106169996e-09
2.1121812376e-05
-7.84849791739e-09
2.11269774273e-05
-8.00102496681e-09
2.11317275075e-05
-7.14229132436e-09
2.11357244026e-05
-5.8845922284e-09
2.11389442225e-05
-4.57877450602e-09
2.11413303474e-05
-3.40790454916e-09
2.11430472371e-05
-2.43653675359e-09
2.11442436222e-05
-1.68166603818e-09
2.11450539174e-05
-1.12511161593e-09
2.11455917547e-05
-7.33953899857e-10
2.11459499547e-05
-4.74933303454e-10
2.11461687099e-05
-2.84507519891e-10
2.11462846843e-05
-1.49047171515e-10
2.11463397709e-05
-6.5434744979e-11
2.11463606056e-05
-1.87203845361e-11
2.11463629742e-05
5.59037180557e-12
2.1146355217e-05
1.82985500366e-11
2.11463422595e-05
2.43434028728e-11
2.11463268825e-05
2.68006217113e-11
2.11463104396e-05
2.76723809757e-11
2.11462934275e-05
2.80765892523e-11
2.11462758774e-05
2.85806087059e-11
2.11462576033e-05
2.94517832537e-11
2.11462383414e-05
3.07943991525e-11
2.11462177899e-05
3.26399197166e-11
2.11461956066e-05
3.50093306862e-11
2.11461714102e-05
3.79491481039e-11
2.11461447668e-05
4.15745565429e-11
2.11461151896e-05
4.60255498805e-11
2.11460822236e-05
5.13710422298e-11
2.11460453974e-05
5.7820222886e-11
2.11460042378e-05
6.55599260432e-11
2.11459582888e-05
7.46887870581e-11
2.11459071599e-05
8.51869550606e-11
2.11458506594e-05
9.68868066896e-11
2.11457890351e-05
1.09441043371e-10
2.11457233262e-05
1.22189317911e-10
2.11456558906e-05
1.33797351925e-10
2.11455913589e-05
1.4160011382e-10
2.11455381355e-05
1.4094442858e-10
2.11455108066e-05
1.23917785425e-10
2.11455362634e-05
7.39564319289e-11
2.11456636047e-05
-3.76606907986e-11
2.11459710005e-05
-2.41065509232e-10
2.11465872922e-05
-5.91495994e-10
2.11476443006e-05
-1.11353367991e-09
2.11493296174e-05
-1.88952118051e-09
2.11520502988e-05
-3.18107506224e-09
2.11564344195e-05
-5.27390729604e-09
2.11634841876e-05
-8.64067470779e-09
2.11748484077e-05
-1.40610962887e-08
2.11934302509e-05
-2.28683123736e-08
2.12237855995e-05
-3.78289069912e-08
2.12740296736e-05
-6.25955748063e-08
2.13591609258e-05
-1.05903761167e-07
2.15086319431e-05
-1.87062698308e-07
2.17825506741e-05
-3.5130226711e-07
2.23048454212e-05
-7.06278110926e-07
2.33233269644e-05
-1.51803253166e-06
2.5235882734e-05
-3.52638473041e-06
-8.08928290196e-06
2.72401200182e-05
5.35171280655e-05
1.24193895372e-05
5.29353567223e-05
1.79442744899e-05
4.96554108159e-05
1.59426579284e-05
4.58443453784e-05
1.24033447165e-05
4.24489423049e-05
9.09266705448e-06
3.97455047968e-05
6.47512745412e-06
3.77145438309e-05
4.54579322152e-06
3.62396600207e-05
3.16106601246e-06
3.51933468711e-05
2.17694214789e-06
3.44655681876e-05
1.48096902159e-06
3.39693910997e-05
9.91133586155e-07
3.3638818678e-05
6.48829526244e-07
3.34247640771e-05
4.12230616855e-07
3.32912027191e-05
2.51279601161e-07
3.32120187156e-05
1.44191089935e-07
3.31685580183e-05
7.50705383691e-08
3.31477050103e-05
3.2276747137e-08
3.31401947128e-05
7.16749273587e-09
3.31404638879e-05
-5.95034207853e-09
3.31443045133e-05
-1.16893194264e-08
3.31494964863e-05
-1.31932911704e-08
3.31547337909e-05
-1.23799292844e-08
3.31593664885e-05
-1.05175992147e-08
3.3163147171e-05
-8.35971668341e-09
3.31660580402e-05
-6.31900143065e-09
3.31682009769e-05
-4.57971824467e-09
3.31697172632e-05
-3.1982579906e-09
3.31707500034e-05
-2.15823787099e-09
3.3171424434e-05
-1.40884794243e-09
3.3171839846e-05
-8.90880362595e-10
3.31721060377e-05
-5.51323805929e-10
3.31722922868e-05
-3.36038479449e-10
3.31723893662e-05
-1.63370705541e-10
3.31724368473e-05
-6.72274841323e-11
3.31724557778e-05
-1.44917766803e-11
3.31724577154e-05
1.51327332457e-11
3.3172450126e-05
3.06643609373e-11
3.31724374799e-05
3.81505455326e-11
3.31724221726e-05
4.16349706894e-11
3.317240534e-05
4.34861034994e-11
3.31723873957e-05
4.50228284774e-11
3.3172368368e-05
4.69495232585e-11
3.31723480956e-05
4.9595544927e-11
3.3172326321e-05
5.30662070667e-11
3.31723027428e-05
5.73632940869e-11
3.31722770333e-05
6.25046972755e-11
3.31722487559e-05
6.86974614379e-11
3.31722174191e-05
7.61769945308e-11
3.31721827966e-05
8.48218282621e-11
3.31721447289e-05
9.48140813188e-11
3.31721031286e-05
1.06243107329e-10
3.31720580654e-05
1.18982316426e-10
3.31720099131e-05
1.32623677631e-10
3.31719596037e-05
1.46396620216e-10
3.31719090351e-05
1.59030074743e-10
3.31718617185e-05
1.68356674573e-10
3.3171823846e-05
1.70451251694e-10
3.3171805852e-05
1.58391339267e-10
3.31718239392e-05
1.21664319462e-10
3.31719041692e-05
4.24605182341e-11
3.31720968417e-05
-1.19971254584e-10
3.31724914574e-05
-4.3345781427e-10
3.31731527839e-05
-9.03347134263e-10
3.31741359671e-05
-1.57533223376e-09
3.31757240742e-05
-2.70199835428e-09
3.31783531787e-05
-4.51872861564e-09
3.31825961477e-05
-7.42395226273e-09
3.31893861656e-05
-1.20636476121e-08
3.3200236006e-05
-1.9490075091e-08
3.3217642519e-05
-3.14671071126e-08
3.32458079759e-05
-5.1033370225e-08
3.3290972046e-05
-8.29927873893e-08
3.33646365417e-05
-1.36260137238e-07
3.34865527352e-05
-2.27820368675e-07
3.36907176001e-05
-3.91228311222e-07
3.40342350743e-05
-6.94820772837e-07
3.46036144442e-05
-1.27565870214e-06
3.54885295943e-05
-2.40294913178e-06
3.65720543058e-05
-4.60991101953e-06
-8.39552390039e-06
3.68782939321e-05
5.35106801623e-05
8.90870928713e-06
5.55748943862e-05
1.58800601862e-05
5.52445956901e-05
1.6272956687e-05
5.36027949786e-05
1.40451455602e-05
5.1551849387e-05
1.11436127216e-05
4.95980136237e-05
8.42896317689e-06
4.79531123602e-05
6.19069434775e-06
4.66615961202e-05
4.45258208217e-06
4.56923839097e-05
3.14615426534e-06
4.49890229998e-05
2.18432994091e-06
4.44929299655e-05
1.48722671116e-06
4.4152536805e-05
9.89222768449e-07
4.39258065097e-05
6.38960910483e-07
4.37799513586e-05
3.97134663716e-07
4.36901593278e-05
2.33982971031e-07
4.36381128944e-05
1.27116839111e-07
4.36106015113e-05
5.97880347349e-08
4.3598208082e-05
1.95608408002e-08
4.3594765552e-05
-2.50793206018e-09
4.35961794262e-05
-1.31033839838e-08
4.35997343183e-05
-1.67484297243e-08
4.36038983557e-05
-1.65442303939e-08
4.36078494195e-05
-1.44689135084e-08
4.36112166079e-05
-1.1727135403e-08
4.36138935471e-05
-8.99617505863e-09
4.36159163944e-05
-6.60284313198e-09
4.36173837546e-05
-4.6659589268e-09
4.36184111212e-05
-3.18600613555e-09
4.36191071814e-05
-2.10536440476e-09
4.36195620273e-05
-1.3462488025e-09
4.36198375568e-05
-8.27460494266e-10
4.36199785704e-05
-4.7778031597e-10
4.36200447862e-05
-2.30450217982e-10
4.36200789831e-05
-1.02407977151e-10
4.36200955489e-05
-3.21441844876e-11
4.36200988406e-05
1.06752638539e-11
4.36200939875e-05
3.42825777792e-11
4.36200843717e-05
4.64542776296e-11
4.36200718069e-05
5.28060165952e-11
4.36200571735e-05
5.66577829624e-11
4.36200408456e-05
5.9854421385e-11
4.36200228975e-05
6.34197159342e-11
4.36200032082e-05
6.7873701645e-11
4.36199815348e-05
7.34231465456e-11
4.36199575611e-05
8.0109744291e-11
4.36199309304e-05
8.79596588401e-11
4.3619901343e-05
9.71126621471e-11
4.36198686834e-05
1.07666206528e-10
4.36198328415e-05
1.19557516936e-10
4.36197937887e-05
1.32899607225e-10
4.36197516893e-05
1.47539418253e-10
4.361970697e-05
1.62997725584e-10
4.36196604981e-05
1.78369449233e-10
4.36196138519e-05
1.92197384569e-10
4.36195696352e-05
2.02245183721e-10
4.36195318402e-05
2.05014334541e-10
4.36195062088e-05
1.9486857662e-10
4.36195007683e-05
1.62601500914e-10
4.36195288493e-05
9.23656364069e-11
4.36196132182e-05
-4.31310882403e-11
4.36197743541e-05
-2.82333446455e-10
4.36200869993e-05
-7.47236141054e-10
4.36207245331e-05
-1.54179933216e-09
4.36218783942e-05
-2.7298388766e-09
4.36237641003e-05
-4.58807878109e-09
4.36267671683e-05
-7.52195200051e-09
4.36315186596e-05
-1.21753963055e-08
4.36390208436e-05
-1.95655862212e-08
4.36508638097e-05
-3.1332628329e-08
4.36695531421e-05
-5.01559382811e-08
4.36989894825e-05
-8.04693080129e-08
4.37457055739e-05
-1.29708727338e-07
4.38201876164e-05
-2.10742382884e-07
4.39388670525e-05
-3.46500271621e-07
4.41261224543e-05
-5.78484361991e-07
4.44133998744e-05
-9.82099210313e-07
4.48266360835e-05
-1.68889608761e-06
4.53353160617e-05
-2.91163061039e-06
4.56902116707e-05
-4.96480812744e-06
-7.95872471917e-06
4.52534112776e-05
5.27352747986e-05
6.17343438449e-06
5.57316049079e-05
1.28837299569e-05
5.73133748161e-05
1.46911867633e-05
5.76152232666e-05
1.37432971419e-05
5.71416307567e-05
1.16172052244e-05
5.63334290674e-05
9.2371647714e-06
5.54711388421e-05
7.05298442423e-06
5.46958902186e-05
5.22783058272e-06
5.40599854001e-05
3.78205905059e-06
5.35683159244e-05
2.67599948407e-06
5.3204371194e-05
1.85117155089e-06
5.29445604344e-05
1.24903359077e-06
5.2765255651e-05
8.18265667883e-07
5.26457669878e-05
5.16623214245e-07
5.25692375471e-05
3.10512266063e-07
5.25225666413e-05
1.7378762178e-07
5.24959322543e-05
8.64223303435e-08
5.24821922017e-05
3.33008124512e-08
5.24763878752e-05
3.29627921827e-09
5.24751618126e-05
-1.18774823059e-08
5.24762867071e-05
-1.78735099211e-08
5.24784006323e-05
-1.86583501843e-08
5.24807243642e-05
-1.67928485868e-08
5.24828584304e-05
-1.3861426901e-08
5.24846348373e-05
-1.07728511104e-08
5.24860198599e-05
-7.98819317604e-09
5.24870469679e-05
-5.69344403339e-09
5.24877759667e-05
-3.91541670839e-09
5.24882690027e-05
-2.59884595175e-09
5.24885848168e-05
-1.66257264978e-09
5.24887780056e-05
-1.02128388111e-09
5.24888974465e-05
-5.97956067957e-10
5.24889927477e-05
-3.26593623533e-10
5.24890535723e-05
-1.64169428263e-10
5.24890931284e-05
-7.27079254241e-11
5.24891082056e-05
-5.48787756141e-12
5.24891106703e-05
3.06230034111e-11
5.24891058123e-05
4.99955686429e-11
5.24890966732e-05
6.05233688234e-11
5.24890848046e-05
6.70429528905e-11
5.24890708626e-05
7.231503013e-11
5.24890550362e-05
7.7817911624e-11
5.24890372723e-05
8.42832039048e-11
5.24890174197e-05
9.19828711571e-11
5.24889953967e-05
1.00879209261e-10
5.24889715336e-05
1.10586190489e-10
5.24889453616e-05
1.22065159593e-10
5.24889147939e-05
1.37069952302e-10
5.24888809864e-05
1.52319549299e-10
5.2488843983e-05
1.69030199461e-10
5.24888039056e-05
1.86894972404e-10
5.24887611581e-05
2.05057704016e-10
5.24887165802e-05
2.22171386472e-10
5.24886716801e-05
2.36187618751e-10
5.24886289355e-05
2.43974037152e-10
5.24885923398e-05
2.40522999668e-10
5.24885690091e-05
2.17033998423e-10
5.24885769407e-05
1.53419599458e-10
5.24886393781e-05
2.86297977271e-11
5.24887542785e-05
-1.59321221176e-10
5.24889645072e-05
-4.93779185101e-10
5.24893790652e-05
-1.16288177745e-09
5.24900172938e-05
-2.18091993837e-09
5.24910353104e-05
-3.7485005038e-09
5.24926561464e-05
-6.20932320842e-09
5.2495213095e-05
-1.00791108421e-08
5.2499211233e-05
-1.61735664715e-08
5.25054334974e-05
-2.57877025445e-08
5.25150962782e-05
-4.09950836947e-08
5.25300812231e-05
-6.51404749152e-08
5.25532821773e-05
-1.03669944115e-07
5.25891227677e-05
-1.6554925346e-07
5.26440948642e-05
-2.65714738981e-07
5.27269004658e-05
-4.29306366848e-07
5.28469729081e-05
-6.98557324508e-07
5.30080284882e-05
-1.14315559675e-06
5.31901381343e-05
-1.87100687833e-06
5.33083759857e-05
-3.0298698315e-06
5.31289057775e-05
-4.78533956186e-06
-7.11319559099e-06
5.22833754481e-05
5.19835901571e-05
4.18984416173e-06
5.50590868061e-05
9.80823320618e-06
5.76396578788e-05
1.21106156523e-05
5.93280032659e-05
1.2054951733e-05
6.0231739173e-05
1.07134692546e-05
6.05989567562e-05
8.86994709216e-06
6.06573842995e-05
6.99455677241e-06
6.0566170136e-05
5.31904469522e-06
6.0420631722e-05
3.92759749888e-06
6.0271065023e-05
2.82556627947e-06
6.0140101958e-05
1.9821347189e-06
6.00350507088e-05
1.35408487606e-06
5.99555970502e-05
8.97719261331e-07
5.98981909289e-05
5.74029193547e-07
5.9858353542e-05
3.50349505108e-07
5.98317829912e-05
2.00358045037e-07
5.98148055595e-05
1.03399665607e-07
5.98044893626e-05
4.36169216291e-08
5.97986640424e-05
9.12149410595e-09
5.97956745137e-05
-8.88807481801e-09
5.9794420851e-05
-1.66199840086e-08
5.97941402021e-05
-1.83778522159e-08
5.97943499136e-05
-1.70027350487e-08
5.97947600206e-05
-1.4271759845e-08
5.97952085212e-05
-1.12216515563e-08
5.97956156415e-05
-8.39567066023e-09
5.97959498761e-05
-6.02805830585e-09
5.97962066953e-05
-4.17263365408e-09
5.97963967535e-05
-2.78934876909e-09
5.97965341293e-05
-1.80046912681e-09
5.97966338275e-05
-1.12160658214e-09
5.97967083113e-05
-6.7318851443e-10
5.97967600425e-05
-3.79164401598e-10
5.97967872976e-05
-1.92325925007e-10
5.97967861052e-05
-7.2487855529e-11
5.97967805691e-05
-1.03020769985e-12
5.97967748254e-05
3.51500205351e-11
5.97967698647e-05
5.35962236191e-11
5.97967634159e-05
6.55022593631e-11
5.9796754795e-05
7.41536229287e-11
5.97967440057e-05
8.16281336357e-11
5.97967310881e-05
8.93382616183e-11
5.97967159716e-05
9.80743488593e-11
5.97966984522e-05
1.08211357034e-10
5.97966781501e-05
1.19891629857e-10
5.97966542702e-05
1.33178939758e-10
5.97966269435e-05
1.48147692233e-10
5.97965981176e-05
1.64750395254e-10
5.97965666506e-05
1.82796242437e-10
5.97965326945e-05
2.02168624813e-10
5.9796496659e-05
2.22221232251e-10
5.97964592492e-05
2.41749242364e-10
5.9796421693e-05
2.58897730801e-10
5.97963859586e-05
2.70956811297e-10
5.97963548575e-05
2.74028655493e-10
5.97963315968e-05
2.62699481018e-10
5.97963172372e-05
2.3025108604e-10
5.97962986151e-05
1.7079794119e-10
5.97962782905e-05
4.76176582403e-11
5.97962997801e-05
-1.82143572994e-10
5.97964832097e-05
-6.7842508727e-10
5.97967455739e-05
-1.42629286281e-09
5.97971621944e-05
-2.59838976413e-09
5.97978270581e-05
-4.41401323329e-09
5.9798855609e-05
-7.23833401766e-09
5.98004190261e-05
-1.16428100419e-08
5.98027698201e-05
-1.85244376457e-08
5.98062813203e-05
-2.92990530203e-08
5.98115002121e-05
-4.62137025388e-08
5.98192052943e-05
-7.28452618801e-08
5.98304535587e-05
-1.14918038666e-07
5.98465373609e-05
-1.81633103673e-07
5.98686321512e-05
-2.87809704543e-07
5.9896540435e-05
-4.57214991275e-07
5.99253194726e-05
-7.27336901135e-07
5.99373664241e-05
-1.15520322379e-06
5.98869658322e-05
-1.82060739643e-06
5.96751382476e-05
-2.81804346388e-06
5.91174778548e-05
-4.22768060723e-06
-5.99575295554e-06
5.80000341149e-05
5.1437348153e-05
2.75249591814e-06
5.42658624872e-05
6.97971874047e-06
5.72494803668e-05
9.12699770311e-06
5.97892629104e-05
9.51516913082e-06
6.17181358537e-05
8.78459624457e-06
6.30842080516e-05
7.50387481592e-06
6.40094106694e-05
6.06935409991e-06
6.46174453824e-05
4.71100999225e-06
6.50082013668e-05
3.53684158303e-06
6.52544299616e-05
2.57933778493e-06
6.54062778668e-05
1.83028688287e-06
6.54972950607e-05
1.26306767499e-06
6.55495958554e-05
8.45418375016e-07
6.55776570797e-05
5.45967827963e-07
6.55909153022e-05
3.37091134637e-07
6.55954830491e-05
1.95790165387e-07
6.55952699303e-05
1.03612675443e-07
6.55927191235e-05
4.61676274831e-08
6.55893146335e-05
1.25258902326e-08
6.55858681902e-05
-5.44171685673e-09
6.55828046158e-05
-1.35565014538e-08
6.55802813322e-05
-1.58546838108e-08
6.55783148466e-05
-1.50364187435e-08
6.55768482002e-05
-1.28053627207e-08
6.55757945451e-05
-1.01683286789e-08
6.55750629581e-05
-7.66445066426e-09
6.55745712364e-05
-5.53670077357e-09
6.55742515856e-05
-3.8533733736e-09
6.55740518923e-05
-2.59009471071e-09
6.55739328173e-05
-1.6819704478e-09
6.55738638625e-05
-1.05334701881e-09
6.55738218072e-05
-6.31910308209e-10
6.55737957256e-05
-3.53905349403e-10
6.55737772891e-05
-1.74750697908e-10
6.55737721883e-05
-6.83261321332e-11
6.55737818162e-05
-1.1731193281e-11
6.55737845767e-05
3.11511292709e-11
6.55737815271e-05
5.52554366674e-11
6.55737765333e-05
6.90156047261e-11
6.5573770234e-05
7.89665924547e-11
6.55737625356e-05
8.78980837051e-11
6.55737531722e-05
9.73420145903e-11
6.55737418208e-05
1.08099212032e-10
6.55737281569e-05
1.20539924842e-10
6.55737118714e-05
1.34823079093e-10
6.55736926839e-05
1.51030466365e-10
6.557367038e-05
1.69198944304e-10
6.55736454052e-05
1.88623616668e-10
6.55736194066e-05
2.07873448911e-10
6.55735907679e-05
2.30022307505e-10
6.55735593978e-05
2.52853847908e-10
6.55735255624e-05
2.74808731616e-10
6.55734897824e-05
2.93811198783e-10
6.55734528774e-05
3.06897659231e-10
6.5573416068e-05
3.09794942096e-10
6.55733813219e-05
2.96343496263e-10
6.55733527118e-05
2.57704075792e-10
6.55733400347e-05
1.82236474272e-10
6.55733204949e-05
6.58350091619e-11
6.55733462837e-05
-2.0925818913e-10
6.55733715689e-05
-7.04945961356e-10
6.55734304585e-05
-1.48624597724e-09
6.55735259087e-05
-2.69470345724e-09
6.55736636869e-05
-4.55247966313e-09
6.55738391531e-05
-7.41435559247e-09
6.55740268149e-05
-1.18308745094e-08
6.55741620871e-05
-1.86598856586e-08
6.55741088864e-05
-2.92458075816e-08
6.55735977652e-05
-4.57024076872e-08
6.55720947592e-05
-7.13420761714e-08
6.55685462764e-05
-1.11369455246e-07
6.55608807036e-05
-1.73967590285e-07
6.55449921196e-05
-2.71921304441e-07
6.55126940985e-05
-4.24917292335e-07
6.54477826883e-05
-6.62425850742e-07
6.53189518166e-05
-1.02637294725e-06
6.50689566432e-05
-1.570613163e-06
6.46022412915e-05
-2.35132919458e-06
6.37785553399e-05
-3.40399588277e-06
-4.68039824172e-06
6.24631996036e-05
5.10850219621e-05
1.66747388295e-06
5.36114923755e-05
4.45324821026e-06
5.66859218391e-05
6.0525681765e-06
5.96857924452e-05
6.51529847271e-06
6.22920169813e-05
6.17837165889e-06
6.43995284218e-05
5.39636334328e-06
6.60236489079e-05
4.44523361158e-06
6.72324128481e-05
3.50224610191e-06
6.81076223173e-05
2.66163218729e-06
6.87262227028e-05
1.96073746787e-06
6.91532731164e-05
1.40323649222e-06
6.94406950043e-05
9.75645739415e-07
6.96284875969e-05
6.57625663986e-07
6.97467245071e-05
4.27730782036e-07
6.98175777339e-05
2.66237767661e-07
6.98570903601e-05
1.56277408563e-07
6.98766341592e-05
8.40687539164e-08
6.98840742462e-05
3.87274264842e-08
6.98846930703e-05
1.19069728552e-08
6.98818854517e-05
-2.63416876074e-09
6.98777403182e-05
-9.41143570517e-09
6.98734389728e-05
-1.15534397654e-08
6.98695803469e-05
-1.11779813785e-08
6.98664022928e-05
-9.62759502571e-09
6.98639365239e-05
-7.70291085585e-09
6.98621104892e-05
-5.83878036048e-09
6.98608101965e-05
-4.23675159038e-09
6.9859916126e-05
-2.95967791822e-09
6.98593213038e-05
-1.99574016743e-09
6.98589379189e-05
-1.29917649556e-09
6.98586980072e-05
-8.14145668214e-10
6.98585522326e-05
-4.8690460163e-10
6.98584690944e-05
-2.71543025955e-10
6.98584283898e-05
-1.3484369374e-10
6.98584094013e-05
-5.02339102478e-11
6.98583893293e-05
7.27119937615e-12
6.98583835645e-05
3.56449215374e-11
6.9858382059e-05
5.53335710353e-11
6.98583806279e-05
6.89635913367e-11
6.98583782846e-05
7.9864558462e-11
6.98583745914e-05
9.02184784078e-11
6.98583693053e-05
1.01294859763e-10
6.98583622691e-05
1.13788001832e-10
6.98583533767e-05
1.28043500487e-10
6.98583425681e-05
1.44220021754e-10
6.98583298554e-05
1.62369334511e-10
6.98583153418e-05
1.82462466882e-10
6.98582985818e-05
2.04327341492e-10
6.98582779213e-05
2.27665817036e-10
6.98582548238e-05
2.52350617409e-10
6.98582294513e-05
2.7744669916e-10
6.98582019291e-05
3.01482900334e-10
6.98581725065e-05
3.22327816624e-10
6.98581415446e-05
3.36914783069e-10
6.98581094238e-05
3.40919163726e-10
6.98580762315e-05
3.2846331415e-10
6.98580408243e-05
2.91943955818e-10
6.98579996163e-05
2.22202691821e-10
6.98579525657e-05
1.11612753825e-10
6.98578637512e-05
-1.21712523388e-10
6.9857773366e-05
-6.15779818391e-10
6.98576294257e-05
-1.34339644642e-09
6.98573856133e-05
-2.45181573453e-09
6.98569684554e-05
-4.13609999557e-09
6.98562458723e-05
-6.69241838317e-09
6.98549907432e-05
-1.05762068856e-08
6.98528183948e-05
-1.64877821069e-08
6.98490864095e-05
-2.55138842232e-08
6.98427321809e-05
-3.93481774843e-08
6.98319751205e-05
-6.05850280029e-08
6.98138182618e-05
-9.32126489493e-08
6.97832241945e-05
-1.43373601978e-07
6.9731707458e-05
-2.20404595255e-07
6.96449795213e-05
-3.38189573492e-07
6.9499173739e-05
-5.16620349824e-07
6.92552595073e-05
-7.82459238547e-07
6.88523024978e-05
-1.16765701828e-06
6.82028431063e-05
-1.70187081187e-06
6.71969007332e-05
-2.39805456857e-06
-3.22223971585e-06
6.57387413027e-05
5.08803439442e-05
7.87129857351e-07
5.31698013787e-05
2.16379068151e-06
5.62153758606e-05
3.00699363593e-06
5.94323214979e-05
3.29835280357e-06
6.2432726345e-05
3.17796679827e-06
6.50161245824e-05
2.81296511251e-06
6.7118498455e-05
2.34285976896e-06
6.87580794719e-05
1.86266513183e-06
6.99935320726e-05
1.42617963314e-06
7.08971284063e-05
1.05714114947e-06
7.15398276024e-05
7.60537261467e-07
7.19842455001e-05
5.3122775487e-07
7.2282266438e-05
3.59604619611e-07
7.24750944744e-05
2.3490262275e-07
7.25944127236e-05
1.46919388914e-07
7.2663919258e-05
8.67707447719e-08
7.2700874889e-05
4.71129871966e-08
7.27175037674e-05
2.20984221158e-08
7.27221955122e-05
7.21513729402e-09
7.2720483764e-05
-9.22476284231e-10
7.2715854841e-05
-4.78256639063e-09
7.27103715374e-05
-6.07023907396e-09
7.27051438507e-05
-5.95050253994e-09
7.27006789663e-05
-5.16301073975e-09
7.2697126897e-05
-4.1511721219e-09
7.26944455933e-05
-3.15778324456e-09
7.26925057302e-05
-2.29721678259e-09
7.26911527694e-05
-1.60708808455e-09
7.26902403266e-05
-1.08379465793e-09
7.26896443387e-05
-7.03842584929e-10
7.2689267341e-05
-4.37910901518e-10
7.26890371407e-05
-2.57487851711e-10
7.26889027928e-05
-1.37953107336e-10
7.26888273982e-05
-6.02257513186e-11
7.26887854138e-05
-9.13936569853e-12
7.26887694615e-05
2.21317947471e-11
7.26887615264e-05
4.22707768249e-11
7.26887589584e-05
5.64589276362e-11
7.26887586714e-05
6.77949749675e-11
7.26887588547e-05
7.82899534078e-11
7.26887585098e-05
8.92281094828e-11
7.26887570806e-05
1.01384910839e-10
7.26887542605e-05
1.15215535171e-10
7.26887498884e-05
1.30968575961e-10
7.2688743877e-05
1.48782379277e-10
7.26887361567e-05
1.68719063429e-10
7.26887266482e-05
1.90757957847e-10
7.26887152335e-05
2.14723425591e-10
7.26887017528e-05
2.4028642604e-10
7.26886861234e-05
2.67186406195e-10
7.26886681787e-05
2.94568817454e-10
7.2688647689e-05
3.21079469557e-10
7.26886243119e-05
3.44763284018e-10
7.2688597465e-05
3.62810981081e-10
7.26885661435e-05
3.71281379029e-10
7.26885287919e-05
3.64785440579e-10
7.26884833818e-05
3.36206113293e-10
7.26884276479e-05
2.76710118589e-10
7.26883616907e-05
1.76317874231e-10
7.26882426319e-05
-3.8964412015e-12
7.26880237186e-05
-3.98060901067e-10
7.26876820553e-05
-1.0028463359e-09
7.26871237675e-05
-1.89452543088e-09
7.26862087537e-05
-3.22196801623e-09
7.26846969444e-05
-5.18136122676e-09
7.26821924971e-05
-8.07232232331e-09
7.26780469907e-05
-1.23426134925e-08
7.26712084899e-05
-1.86755573401e-08
7.26599866068e-05
-2.81264064018e-08
7.26416324398e-05
-4.22309827298e-08
7.26116787734e-05
-6.32590576999e-08
7.25629278965e-05
-9.46227775106e-08
7.24838614716e-05
-1.41338281047e-07
7.23562430179e-05
-2.10571222672e-07
7.21517263595e-05
-3.12103944427e-07
7.18275787439e-05
-4.58312042967e-07
7.1322640365e-05
-6.6271928972e-07
7.05565851442e-05
-9.3581638906e-07
6.9437119686e-05
-1.27859003206e-06
-1.67130604472e-06
6.78861851773e-05
5.07870772991e-05
5.2492219093e-11
5.29508144146e-05
5.34987955725e-11
5.59577776777e-05
3.03374820053e-11
5.92561143252e-05
1.61481953059e-11
6.2434076104e-05
5.04078434456e-12
6.52470451995e-05
-3.95140467385e-12
6.75899146965e-05
-9.68143280262e-12
6.94525923143e-05
-1.24554862211e-11
7.08787846005e-05
-1.26588618624e-11
7.19359367177e-05
-1.10207824868e-11
7.26964822828e-05
-8.3811523351e-12
7.32277155743e-05
-5.62966191652e-12
7.35873236587e-05
-3.54668700601e-12
7.38222288983e-05
-2.70040399878e-12
7.39691514498e-05
-3.26336547343e-12
7.40559269905e-05
-4.92847697515e-12
7.41030468313e-05
-7.0090798602e-12
7.41251537448e-05
-8.63043258129e-12
7.41323774783e-05
-8.68925897245e-12
7.4131463307e-05
-8.35715386579e-12
7.41266892924e-05
-8.61183876474e-12
7.41206285105e-05
-9.59068822401e-12
7.41146886647e-05
-1.08934078297e-11
7.41095370944e-05
-1.17403423339e-11
7.41053969923e-05
-1.13799411514e-11
7.41022483157e-05
-9.37995934556e-12
7.4099956595e-05
-5.78827696946e-12
7.40983496512e-05
-5.41941748272e-13
7.40972608165e-05
4.47857804933e-12
7.40965463769e-05
9.89357745237e-12
7.40960924556e-05
1.52490177227e-11
7.40958137175e-05
2.05123460992e-11
7.40956490984e-05
2.59623358562e-11
7.40955565318e-05
3.15998698778e-11
7.40955090367e-05
3.74638368092e-11
7.40954866041e-05
4.34397455474e-11
7.40954779318e-05
4.96094150245e-11
7.40954764156e-05
5.65404791179e-11
7.40954782289e-05
6.45621948743e-11
7.40954812098e-05
7.39524527831e-11
7.4095484169e-05
8.49398893447e-11
7.40954864727e-05
9.77091787235e-11
7.40954878061e-05
1.12427934283e-10
7.40954880489e-05
1.29224507137e-10
7.40954871748e-05
1.48196106091e-10
7.40954851765e-05
1.69390946559e-10
7.40954820077e-05
1.92783806261e-10
7.40954775246e-05
2.18226704416e-10
7.40954714896e-05
2.45442127947e-10
7.40954637406e-05
2.74092860363e-10
7.4095454014e-05
3.03441282945e-10
7.40954418681e-05
3.32333497495e-10
7.40954266037e-05
3.5910212725e-10
7.40954070882e-05
3.81388386262e-10
7.40953814677e-05
3.95941136241e-10
7.40953467967e-05
3.98427907172e-10
7.40952986791e-05
3.83208047715e-10
7.40952310905e-05
3.43098617459e-10
7.40951378729e-05
2.68287997448e-10
7.40949846697e-05
1.48060384405e-10
7.40946750444e-05
-8.96632683714e-11
7.40942000363e-05
-5.29021749015e-10
7.40934295155e-05
-1.12510946607e-09
7.40921718874e-05
-1.96530006669e-09
7.40901224156e-05
-3.13266473443e-09
7.40867835224e-05
-4.73404911101e-09
7.40813456301e-05
-6.90521307891e-09
7.40725038322e-05
-9.83412267815e-09
7.40582011196e-05
-1.38239193666e-08
7.40351498893e-05
-1.91799502465e-08
7.39980788317e-05
-2.61882779359e-08
7.39386550591e-05
-3.51990484174e-08
7.38438463011e-05
-4.65295744292e-08
7.36935836211e-05
-6.03085943626e-08
7.34576767356e-05
-7.61972245719e-08
7.30922867642e-05
-9.29222862509e-08
7.25371450072e-05
-1.07577974385e-07
7.17161743481e-05
-1.1484633538e-07
7.05450481942e-05
-1.07464587284e-07
-7.66456648119e-08
6.89503871052e-05
5.07870761792e-05
-7.8702373117e-07