/*--------------------------------*- C++ -*----------------------------------*\
| =========                 |                                                 |
| \\      /  F ield         | OpenFOAM: The Open Source CFD Toolbox           |
|  \\    /   O peration     | Version:  2106                                  |
|   \\  /    A nd           | Website:  www.openfoam.com                      |
|    \\/     M anipulation  |                                                 |
\*---------------------------------------------------------------------------*/
FoamFile
{
    version     2.0;
    format      ascii;
    arch        "LSB;label=32;scalar=64";
    class       surfaceScalarField;
    location    "0.124";
    object      phi;
}
// * * * * * * * * * * * * * * * * * * * * * * * * * * * * * * * * * * * * * //

dimensions      [0 3 -1 0 0 0 0];

oriented        oriented;

internalField   nonuniform List<scalar> 
799
(
1.64825e-32
4.29552e-32
5.47912e-32
4.25924e-32
1.59927e-32
-5.21852e-32
-1.13097e-31
-1.60499e-31
-1.72066e-31
-1.35816e-31
-8.15276e-32
-2.07573e-32
1.62143e-32
2.44591e-32
1.37646e-33
-3.93462e-32
-9.17299e-32
-1.45572e-31
-1.87027e-31
-2.16124e-31
-2.09072e-31
-1.74039e-31
-1.13916e-31
-4.41805e-32
-4.61621e-33
3.46573e-33
-3.92055e-32
-1.10831e-31
-1.78119e-31
-2.317e-31
-2.35537e-31
-2.09212e-31
-1.63844e-31
-1.09754e-31
-8.58154e-32
-7.56791e-32
-9.381e-32
-1.32633e-31
-1.63428e-31
-2.01026e-31
-2.10881e-31
-1.99273e-31
-1.76666e-31
-1.30792e-31
-1.06371e-31
-9.68705e-32
-1.13552e-31
-1.63267e-31
-2.03957e-31
-2.40964e-31
-2.43591e-31
-2.10424e-31
-1.67897e-31
-1.14224e-31
-9.04154e-32
-9.71542e-32
-1.30814e-31
-1.90442e-31
-2.3636e-31
-2.62003e-31
-2.49309e-31
-1.96609e-31
-1.34939e-31
-8.04179e-32
-6.79974e-32
-1.09114e-31
-1.83263e-31
-2.67114e-31
-3.12857e-31
-2.95633e-31
-2.24525e-31
-1.23025e-31
-4.68095e-32
-3.04793e-32
-7.77293e-32
-1.71656e-31
-2.58288e-31
-3.03018e-31
-2.9158e-31
-2.32374e-31
-1.66155e-31
-1.17152e-31
-1.01772e-31
-1.16744e-31
-1.40812e-31
-1.66689e-31
-1.86183e-31
-2.04226e-31
-2.24422e-31
-2.36566e-31
-2.34467e-31
-2.03202e-31
-1.50494e-31
-9.69345e-32
-6.41169e-32
-8.28421e-32
-1.41262e-31
-2.22861e-31
-2.92037e-31
-3.05207e-31
-2.69735e-31
-1.83758e-31
-9.27192e-32
-3.92672e-32
-3.00076e-32
-8.77235e-32
-1.66756e-31
-2.40303e-31
-2.83983e-31
-2.66735e-31
-2.2265e-31
-1.5964e-31
-1.12747e-31
-1.03913e-31
-1.15099e-31
-1.45466e-31
-1.62056e-31
-1.59304e-31
-1.46313e-31
-1.32167e-31
-1.41834e-31
-1.72071e-31
-2.13345e-31
-2.43903e-31
-2.42216e-31
-2.07281e-31
-1.47651e-31
-8.79277e-32
-4.98492e-32
-4.42232e-32
-7.39033e-32
-1.26014e-31
-1.86711e-31
-2.4177e-31
-2.73372e-31
-2.75846e-31
-2.41868e-31
-1.77464e-31
-1.03457e-31
-3.84117e-32
-1.28561e-32
-3.51508e-32
-9.80871e-32
-1.82011e-31
-2.46581e-31
-2.72803e-31
-2.49038e-31
-1.88518e-31
-1.2551e-31
-8.19227e-32
-8.08578e-32
-1.15147e-31
-1.61863e-31
-1.98669e-31
-1.98897e-31
-1.65699e-31
-1.14591e-31
-7.25534e-32
-6.94147e-32
-1.09119e-31
-1.79884e-31
-2.46365e-31
-2.72934e-31
-2.41647e-31
-1.61056e-31
-7.12895e-32
-1.27781e-32
-2.02546e-32
-8.63057e-32
-1.75797e-31
-2.46073e-31
-2.52457e-31
-2.0553e-31
-1.27507e-31
-6.42448e-32
-5.72257e-32
-9.25571e-32
-1.60772e-31
-2.09683e-31
-2.11117e-31
-1.74113e-31
-1.02351e-31
-5.20633e-32
-3.77587e-32
-6.59255e-32
-1.32344e-31
-1.8731e-31
-2.22713e-31
-2.13926e-31
-1.65708e-31
-1.09155e-31
-5.1954e-32
-2.76025e-32
-3.47604e-32
-6.48655e-32
-1.11903e-31
-1.47932e-31
-1.70515e-31
-1.72578e-31
-1.53175e-31
-1.24851e-31
-8.74696e-32
-5.17582e-32
-2.72075e-32
-1.78352e-32
-3.41072e-32
-7.07418e-32
-1.13887e-31
-1.47082e-31
-1.46602e-31
-1.08791e-31
-4.66841e-32
1.47499e-32
4.02429e-32
1.64588e-32
-4.63954e-32
-1.1645e-31
-1.48193e-31
-1.16384e-31
-2.76672e-32
8.17143e-32
1.55277e-31
1.526e-31
7.36796e-32
-4.74065e-32
-1.43713e-31
-1.59807e-31
-8.35003e-32
6.24863e-32
2.06717e-31
2.85901e-31
2.72124e-31
1.70472e-31
4.63484e-32
-4.06426e-32
-4.85289e-32
3.52204e-32
1.62427e-31
2.87249e-31
3.6117e-31
3.59965e-31
3.08261e-31
2.3513e-31
1.85707e-31
1.88717e-31
2.41418e-31
3.26806e-31
4.10601e-31
4.63811e-31
4.77048e-31
4.6459e-31
4.50622e-31
4.65701e-31
5.20573e-31
5.96462e-31
6.71404e-31
7.09341e-31
7.02843e-31
6.76525e-31
6.58175e-31
6.9141e-31
7.84008e-31
9.10167e-31
1.03735e-30
1.11876e-30
1.14211e-30
1.1299e-30
1.10978e-30
1.12386e-30
1.18655e-30
1.28022e-30
1.39235e-30
1.49225e-30
1.57313e-30
1.64906e-30
1.71736e-30
1.79629e-30
1.87893e-30
1.95562e-30
2.03662e-30
2.11416e-30
2.20471e-30
2.31008e-30
2.41894e-30
2.5304e-30
2.63122e-30
2.7324e-30
2.85038e-30
2.99703e-30
3.17414e-30
3.35808e-30
3.51775e-30
3.62881e-30
3.69894e-30
3.76004e-30
3.86385e-30
4.04538e-30
4.29826e-30
4.58902e-30
4.85153e-30
5.0476e-30
5.17478e-30
5.26539e-30
5.38694e-30
5.57396e-30
5.83829e-30
6.14935e-30
6.45153e-30
6.71882e-30
6.93743e-30
7.13836e-30
7.36089e-30
7.62303e-30
7.93376e-30
8.26122e-30
8.58024e-30
8.87872e-30
9.15623e-30
9.4467e-30
9.76784e-30
1.01309e-29
1.05299e-29
1.093e-29
1.13172e-29
1.16771e-29
1.20214e-29
1.23854e-29
1.27835e-29
1.32381e-29
1.37333e-29
1.42372e-29
1.47298e-29
1.51791e-29
1.56027e-29
1.60257e-29
1.64785e-29
1.70034e-29
1.75883e-29
1.82201e-29
1.88553e-29
1.94411e-29
1.99628e-29
2.04231e-29
2.08252e-29
2.13877e-29
2.20597e-29
2.35589e-29
2.61218e-29
2.98775e-29
3.68945e-29
3.97182e-29
4.26462e-29
2.57155e-29
-1.68942e-29
-6.81253e-29
-1.73572e-28
-1.64065e-28
-1.03121e-28
1.85051e-28
8.29437e-28
1.19496e-27
1.83761e-27
1.07616e-27
-7.41543e-28
-3.01667e-27
-7.5229e-27
-7.19313e-27
-5.91063e-27
1.7689e-27
1.68971e-26
2.26888e-26
3.30698e-26
1.66694e-26
-1.35898e-26
-4.0986e-26
-9.04741e-26
-7.13008e-26
-4.21731e-26
3.1592e-26
1.54647e-25
1.62757e-25
1.9202e-25
5.43334e-26
-1.45578e-25
-2.4154e-25
-4.15688e-25
-2.36501e-25
-3.16208e-26
2.19177e-25
5.89218e-25
4.55179e-25
3.83057e-25
-3.70612e-26
-5.43979e-25
-5.80026e-25
-7.54229e-25
-2.54555e-25
2.23651e-25
5.06871e-25
9.15315e-25
5.06882e-25
2.23667e-25
-2.54542e-25
-7.54224e-25
-5.80032e-25
-5.43991e-25
-3.70753e-26
3.83048e-25
4.55177e-25
5.89222e-25
2.19184e-25
-3.1615e-26
-2.36499e-25
-4.1569e-25
-2.41545e-25
-1.45583e-25
5.43297e-26
1.92018e-25
1.62757e-25
1.54647e-25
3.15922e-26
-4.21735e-26
-7.13016e-26
-9.04749e-26
-4.0987e-26
-1.35907e-26
1.66685e-26
3.30688e-26
2.26879e-26
1.68961e-26
1.76809e-27
-5.91135e-27
-7.19376e-27
-7.52348e-27
-3.01728e-27
-7.42164e-28
1.07549e-27
1.8369e-27
1.19424e-27
8.28734e-28
1.8442e-28
-1.03672e-28
-1.64514e-28
-1.73955e-28
-6.8507e-29
-1.73202e-29
2.5184e-29
4.20326e-29
3.90725e-29
3.62904e-29
2.94017e-29
2.57831e-29
2.33409e-29
2.18899e-29
2.11779e-29
2.05315e-29
2.00195e-29
1.94839e-29
1.89472e-29
1.84008e-29
1.78641e-29
1.73464e-29
1.68618e-29
1.64025e-29
1.59453e-29
1.5469e-29
1.49594e-29
1.44256e-29
1.39031e-29
1.34188e-29
1.29996e-29
1.26385e-29
1.23061e-29
1.19767e-29
1.16144e-29
1.12212e-29
1.08049e-29
1.03858e-29
9.99547e-30
9.63995e-30
9.3329e-30
9.06292e-30
8.81019e-30
8.55762e-30
8.27819e-30
7.96716e-30
7.63446e-30
7.30263e-30
7.00592e-30
6.76678e-30
6.57894e-30
6.42376e-30
6.25804e-30
6.04672e-30
5.79081e-30
5.49699e-30
5.21645e-30
4.98537e-30
4.81422e-30
4.70763e-30
4.61366e-30
4.50147e-30
4.34367e-30
4.12717e-30
3.89147e-30
3.6621e-30
3.4806e-30
3.36863e-30
3.30796e-30
3.27444e-30
3.21871e-30
3.10386e-30
2.92451e-30
2.70076e-30
2.4828e-30
2.32562e-30
2.25389e-30
2.25943e-30
2.29516e-30
2.29589e-30
2.22234e-30
2.06507e-30
1.86255e-30
1.67241e-30
1.54252e-30
1.4937e-30
1.50316e-30
1.53335e-30
1.53613e-30
1.49166e-30
1.40062e-30
1.28129e-30
1.16979e-30
1.07752e-30
1.0239e-30
9.98661e-31
9.86903e-31
9.80217e-31
9.49432e-31
9.04983e-31
8.40241e-31
7.71832e-31
7.25478e-31
6.91462e-31
6.87435e-31
6.81462e-31
6.574e-31
6.16638e-31
5.43375e-31
4.8105e-31
4.38687e-31
4.28157e-31
4.56314e-31
4.79141e-31
4.89433e-31
4.6501e-31
4.07007e-31
3.48985e-31
2.95538e-31
2.67693e-31
2.57367e-31
2.44439e-31
2.33268e-31
2.17091e-31
2.16684e-31
2.45376e-31
2.86459e-31
3.25355e-31
3.17597e-31
2.44583e-31
1.27414e-31
-1.79277e-33
-6.91574e-32
-4.13714e-32
7.28835e-32
2.35573e-31
3.50223e-31
3.66456e-31
2.64405e-31
7.48303e-32
-1.0102e-31
-2.00261e-31
-1.68393e-31
-2.01726e-32
1.58371e-31
2.99756e-31
3.21059e-31
2.18963e-31
4.99775e-32
-1.22163e-31
-2.01779e-31
-1.71525e-31
-5.3788e-32
9.85015e-32
1.96276e-31
2.16125e-31
1.50718e-31
3.72968e-32
-5.94917e-32
-1.19792e-31
-1.18211e-31
-7.58395e-32
-2.21911e-32
3.35074e-32
6.42704e-32
8.01744e-32
7.78106e-32
5.57411e-32
2.66997e-32
-1.57836e-32
-5.27887e-32
-7.97591e-32
-8.99202e-32
-7.71685e-32
-5.18e-32
-1.32904e-32
2.33233e-32
5.50022e-32
6.96577e-32
6.10836e-32
3.28777e-32
-1.80362e-32
-6.45533e-32
-1.0204e-31
-1.12191e-31
-8.87402e-32
-5.3501e-32
-2.52327e-33
3.25736e-32
4.98515e-32
5.18045e-32
2.58601e-32
-1.92743e-33
-3.97614e-32
-7.33579e-32
-8.80255e-32
-9.14004e-32
-6.57126e-32
-2.88359e-32
1.0227e-32
4.16949e-32
4.4832e-32
2.89609e-32
-6.32096e-33
-4.51209e-32
-7.17281e-32
-8.28752e-32
-7.09996e-32
-4.49629e-32
-1.24819e-32
1.53382e-32
2.87144e-32
2.30015e-32
2.85278e-33
-2.18503e-32
-4.07665e-32
-4.08387e-32
-3.21186e-32
-1.81718e-32
-1.35923e-32
-2.64018e-32
-3.72682e-32
-4.39368e-32
-2.35836e-32
1.60313e-32
4.96153e-32
6.3995e-32
2.96473e-32
-3.14894e-32
-9.34753e-32
-1.23326e-31
-9.08798e-32
-1.97408e-32
6.53312e-32
1.14033e-31
1.00109e-31
3.61593e-32
-5.30308e-32
-1.11361e-31
-1.1645e-31
-6.57901e-32
1.47349e-32
7.4684e-32
9.28464e-32
5.57348e-32
-1.0066e-32
-6.46375e-32
-8.49323e-32
-5.25613e-32
6.9958e-33
6.27462e-32
8.76869e-32
6.07473e-32
3.00701e-33
-6.09035e-32
-1.00048e-31
-8.87177e-32
-3.90113e-32
3.26581e-32
9.55156e-32
1.18225e-31
1.00765e-31
4.50013e-32
-2.63882e-32
-8.22733e-32
-1.13074e-31
-1.0173e-31
-5.55209e-32
7.36433e-33
7.68649e-32
1.22357e-31
1.34778e-31
1.07744e-31
4.0938e-32
-3.69658e-32
-1.07136e-31
-1.37922e-31
-1.12251e-31
-4.06552e-32
5.82263e-32
1.39315e-31
1.69575e-31
1.3557e-31
4.71814e-32
-5.25117e-32
-1.20843e-31
-1.2658e-31
-6.61907e-32
2.8174e-32
1.12817e-31
1.48842e-31
1.18491e-31
4.27903e-32
-4.1725e-32
-9.42818e-32
-8.5324e-32
-2.8011e-32
5.44963e-32
1.19867e-31
1.32074e-31
9.79501e-32
2.4035e-32
-4.43747e-32
-7.28205e-32
-6.01116e-32
2.24792e-33
6.73006e-32
1.10247e-31
1.18849e-31
7.64842e-32
2.53696e-32
-2.28969e-32
-4.52466e-32
-2.56329e-32
7.50812e-33
5.26223e-32
8.33867e-32
8.89787e-32
8.08575e-32
5.64608e-32
3.44572e-32
2.13748e-32
1.4133e-32
1.61567e-32
1.85805e-32
1.67518e-32
1.78984e-32
1.79841e-32
2.77623e-32
5.05594e-32
7.4447e-32
1.03574e-31
1.12109e-31
9.81062e-32
6.29508e-32
4.84906e-33
-3.88406e-32
-6.4697e-32
-4.98818e-32
3.572e-33
6.7681e-32
1.30943e-31
1.54457e-31
1.39221e-31
8.73703e-32
2.36784e-32
-2.53849e-32
-4.5953e-32
-2.47196e-32
5.93803e-33
5.46738e-32
7.5033e-32
7.56379e-32
6.85902e-32
2.3738e-32
1.4303e-32
-1.82128e-32
-2.44627e-32
-4.58572e-33
)
;

boundaryField
{
    left
    {
        type            calculated;
        value           uniform 0;
    }
    right
    {
        type            calculated;
        value           uniform 0;
    }
    empty
    {
        type            empty;
        value           nonuniform List<scalar> 0();
    }
}


// ************************************************************************* //
