/*--------------------------------*- C++ -*----------------------------------*\
| =========                 |                                                 |
| \\      /  F ield         | OpenFOAM: The Open Source CFD Toolbox           |
|  \\    /   O peration     | Version:  2106                                  |
|   \\  /    A nd           | Website:  www.openfoam.com                      |
|    \\/     M anipulation  |                                                 |
\*---------------------------------------------------------------------------*/
FoamFile
{
    version     2.0;
    format      ascii;
    arch        "LSB;label=32;scalar=64";
    class       surfaceScalarField;
    location    "0.14";
    object      phi;
}
// * * * * * * * * * * * * * * * * * * * * * * * * * * * * * * * * * * * * * //

dimensions      [0 3 -1 0 0 0 0];

oriented        oriented;

internalField   nonuniform List<scalar> 
22100
(
3.38461202319e-05
1.61538797757e-05
2.24572094475e-05
1.13889106243e-05
1.62585522315e-05
6.19865709795e-06
1.27977749027e-05
3.46077721011e-06
1.08046407089e-05
1.99313408023e-06
9.60458739319e-06
1.200053194e-06
8.85131939417e-06
7.53267891789e-07
8.36435038609e-06
4.86968905687e-07
8.04433235408e-06
3.20017926736e-07
7.83283745611e-06
2.11494792724e-07
7.69339424349e-06
1.39443108783e-07
7.60223737081e-06
9.11567682224e-08
7.54347468415e-06
5.87625802891e-08
7.50633797491e-06
3.71366021175e-08
7.48349882264e-06
2.28390459829e-08
7.46997855877e-06
1.35201592952e-08
7.4624147553e-06
7.56370142351e-09
7.4585478374e-06
3.86681914572e-09
7.45683015679e-06
1.71758594042e-09
7.4564255931e-06
4.04473787762e-10
7.45677790227e-06
-3.52394267704e-10
7.45746695725e-06
-6.89136517262e-10
7.45822861571e-06
-7.61738342346e-10
7.45895773911e-06
-7.29204010263e-10
7.45960633636e-06
-6.48680186944e-10
7.46015494293e-06
-5.48692715316e-10
7.46060201999e-06
-4.47165943502e-10
7.46095591688e-06
-3.53986421184e-10
7.46122942221e-06
-2.73593253493e-10
7.46143650043e-06
-2.07163574515e-10
7.4615904166e-06
-1.53997707927e-10
7.46170275618e-06
-1.12418266857e-10
7.46178310818e-06
-8.04285952941e-11
7.46183957163e-06
-5.65360460705e-11
7.46187659784e-06
-3.70953911369e-11
7.46189863716e-06
-2.21055824223e-11
7.46191015315e-06
-1.15799509643e-11
7.46191488239e-06
-4.79108626806e-12
7.46191489871e-06
-7.48309636176e-14
7.46191139478e-06
3.4479021025e-12
7.46190530659e-06
6.03335583751e-12
7.46189727104e-06
7.98111797785e-12
7.46188768536e-06
9.53210651347e-12
7.46187676374e-06
1.08698115558e-11
7.46186454657e-06
1.21671657692e-11
7.46185094596e-06
1.35524855994e-11
7.46183577395e-06
1.51265770384e-11
7.46181874222e-06
1.69917890994e-11
7.46179943186e-06
1.92778308935e-11
7.46177734788e-06
2.20590179989e-11
7.46175189005e-06
2.54373575337e-11
7.46172234015e-06
2.95320815954e-11
7.46168786534e-06
3.44587081398e-11
7.46164753823e-06
4.03129902961e-11
7.46160038645e-06
4.71391546599e-11
7.46154548633e-06
5.48874403862e-11
7.46148208165e-06
6.33919963053e-11
7.46140982304e-06
7.22470642413e-11
7.46132931733e-06
8.04974556234e-11
7.4612429031e-06
8.64117330794e-11
7.46115648918e-06
8.6419270976e-11
7.4610824111e-06
7.40904605423e-11
7.46102949976e-06
5.29215429022e-11
7.46101599442e-06
1.35102922337e-11
7.46107785397e-06
-6.18542047744e-11
7.46127368582e-06
-1.95817128456e-10
7.46169875141e-06
-4.25044966505e-10
7.46250452326e-06
-8.0574852722e-10
7.4639286783e-06
-1.42412992861e-09
7.46633026771e-06
-2.40156887013e-09
7.47016224317e-06
-3.83196493915e-09
7.47665597976e-06
-6.49372383628e-09
7.48750819728e-06
-1.08521954582e-08
7.50582639648e-06
-1.83181802184e-08
7.5392631592e-06
-3.34367357667e-08
7.60896360439e-06
-6.97004003759e-08
7.77675309521e-06
-1.67789452816e-07
8.2348216793e-06
-4.58068519473e-07
9.71368385279e-06
-1.47886205327e-06
-5.5038122108e-06
1.52174962594e-05
5.02175947743e-05
1.59362848442e-05
4.42441112413e-05
1.73623938953e-05
3.77795007827e-05
1.26632673438e-05
3.26461429209e-05
8.59413484955e-06
2.89380904283e-05
5.70118637303e-06
2.63596196558e-05
3.77852376689e-06
2.45875148978e-05
2.52537245571e-06
2.33734725237e-05
1.70101108848e-06
2.25435232e-05
1.14996705913e-06
2.19782143054e-05
7.7680349636e-07
2.15955116683e-05
5.22145554031e-07
2.13387351453e-05
3.47933097993e-07
2.11684938861e-05
2.29003646287e-07
2.10573368543e-05
1.48293442478e-07
2.09861499463e-05
9.40257658488e-08
2.09416791298e-05
5.79907923391e-08
2.09147995659e-05
3.44430877693e-08
2.08993035556e-05
1.93626579827e-08
2.08910840047e-05
9.93697238807e-09
2.08872887202e-05
4.19960147122e-09
2.08862280259e-05
7.08149816611e-10
2.08864801475e-05
-9.41404753545e-10
2.08873603002e-05
-1.64203810469e-09
2.08885097769e-05
-1.87883081814e-09
2.08896941077e-05
-1.83316446775e-09
2.08907889506e-05
-1.6436906743e-09
2.08917390007e-05
-1.39736952275e-09
2.08925292807e-05
-1.14441698134e-09
2.08931671926e-05
-9.11652974845e-10
2.08936714956e-05
-7.11610904443e-10
2.08940663012e-05
-5.4894239266e-10
2.08943793777e-05
-4.25629036032e-10
2.0894602306e-05
-3.03486607442e-10
2.08947597559e-05
-2.14113185911e-10
2.08948691885e-05
-1.4665166842e-10
2.08949425081e-05
-9.55431402875e-11
2.08949891443e-05
-5.83269042961e-11
2.08950178818e-05
-3.3632527876e-11
2.08950338392e-05
-1.61312638685e-11
2.08950400471e-05
-2.85506626383e-12
2.0895038926e-05
7.06352996658e-12
2.08950322319e-05
1.45882183494e-11
2.08950211907e-05
2.04896996501e-11
2.08950066291e-05
2.53505111213e-11
2.08949890133e-05
2.97043906816e-11
2.0894968561e-05
3.39306435626e-11
2.0894945325e-05
3.82962441958e-11
2.08949192357e-05
4.30256666604e-11
2.08948900832e-05
4.8385746743e-11
2.08948576467e-05
5.44593878854e-11
2.08948216939e-05
6.13591675654e-11
2.08947820288e-05
6.91693673558e-11
2.0894738579e-05
7.78839308261e-11
2.08946915257e-05
8.73447073272e-11
2.08946415304e-05
9.71154192553e-11
2.08945901349e-05
1.06267574074e-10
2.08945403576e-05
1.13159557781e-10
2.08944976198e-05
1.1498190038e-10
2.08944711807e-05
1.06940265773e-10
2.08944760691e-05
8.15345952378e-11
2.08945382203e-05
2.42823446667e-11
2.0894706577e-05
-9.42526491566e-11
2.08950496866e-05
-2.9017132192e-10
2.08956852812e-05
-6.22059199101e-10
2.08967301256e-05
-1.10666484924e-09
2.08983532494e-05
-1.81891021961e-09
2.09009160582e-05
-2.98782831836e-09
2.09049716305e-05
-4.86128581567e-09
2.09113978181e-05
-7.85026434208e-09
2.09216334095e-05
-1.26370915356e-08
2.09381962372e-05
-2.03947136291e-08
2.09652659715e-05
-3.35633956624e-08
2.10098619845e-05
-5.54481937399e-08
2.10852939304e-05
-9.3750115335e-08
2.12177582363e-05
-1.65900988179e-07
2.14607340718e-05
-3.1267620039e-07
2.19233839493e-05
-6.30439340689e-07
2.28207146882e-05
-1.35539929557e-06
2.44868357498e-05
-3.14498312406e-06
-7.12670224375e-06
2.61097259013e-05
5.35171052711e-05
1.24191794596e-05
5.2934967994e-05
1.79445309376e-05
4.9653839499e-05
1.59443956501e-05
4.5840180481e-05
1.24077936812e-05
4.24400911078e-05
9.10127557028e-06
3.97291707642e-05
6.48944393222e-06
3.76873039131e-05
4.56723913681e-06
3.61976607276e-05
3.19065410722e-06
3.51326097662e-05
2.21501785244e-06
3.43823644536e-05
1.52704864064e-06
3.38606233316e-05
1.04388650781e-06
3.35023431487e-05
7.06213112025e-07
3.32595986066e-05
4.71748019374e-07
3.30975890924e-05
3.10302788738e-07
3.29913343931e-05
2.00280300005e-07
3.29230946474e-05
1.26230377381e-07
3.28804097731e-05
7.71278069899e-08
3.2854628855e-05
4.51434272233e-08
3.28398073151e-05
2.47583702139e-08
3.28318879118e-05
1.21188688184e-08
3.28280256477e-05
4.57028252186e-09
3.28270386564e-05
4.54566383532e-11
3.28272302474e-05
-1.83376031656e-09
3.2828091694e-05
-2.7404121055e-09
3.28292218839e-05
-2.96349333436e-09
3.2830384654e-05
-2.80660178689e-09
3.28314570115e-05
-2.46986655631e-09
3.28323843754e-05
-2.07191726933e-09
3.28331516274e-05
-1.67903691087e-09
3.28337646428e-05
-1.32475451184e-09
3.28342383428e-05
-1.02276771496e-09
3.28345882733e-05
-7.7568034271e-10
3.28348662627e-05
-5.81591846889e-10
3.28350914198e-05
-4.39382204649e-10
3.28352528668e-05
-3.08207384414e-10
3.28353624902e-05
-2.05271475185e-10
3.28354368298e-05
-1.32766573053e-10
3.28354854081e-05
-8.23063259018e-11
3.28355154267e-05
-4.62418017433e-11
3.2835531273e-05
-1.8791210844e-11
3.28355364398e-05
1.80867856869e-12
3.28355335179e-05
1.74249186927e-11
3.2835524446e-05
2.94786587699e-11
3.28355106325e-05
3.90831323599e-11
3.28354929763e-05
4.72834998877e-11
3.28354720643e-05
5.47717659501e-11
3.28354482934e-05
6.200612352e-11
3.28354218904e-05
6.9378868771e-11
3.28353928214e-05
7.74132736813e-11
3.28353612385e-05
8.60050256869e-11
3.28353274508e-05
9.51136045073e-11
3.2835291967e-05
1.04623985532e-10
3.28352556665e-05
1.14159105345e-10
3.28352200805e-05
1.22907187606e-10
3.28351878646e-05
1.29308038681e-10
3.28351634944e-05
1.30616318465e-10
3.28351539045e-05
1.22731598592e-10
3.28351695844e-05
9.92887035103e-11
3.28352274524e-05
4.90679348208e-11
3.2835356205e-05
-4.72124046042e-11
3.28356064061e-05
-2.25905712002e-10
3.28360650595e-05
-5.52892328163e-10
3.28367613372e-05
-9.86433590431e-10
3.28377756921e-05
-1.63639383012e-09
3.28393615681e-05
-2.69252043726e-09
3.28419061626e-05
-4.36348829918e-09
3.28459162312e-05
-6.99787927666e-09
3.28522127446e-05
-1.11577806777e-08
3.28621211563e-05
-1.77586626567e-08
3.28778281483e-05
-2.83440567475e-08
3.29030325992e-05
-4.55991103863e-08
3.29431505619e-05
-7.36813087676e-08
3.30081345967e-05
-1.2043218996e-07
3.31151831771e-05
-2.00798626942e-07
3.32937106253e-05
-3.44428336222e-07
3.35926647039e-05
-6.1163011951e-07
3.40844664368e-05
-1.12224087906e-06
3.48374344524e-05
-2.10836712289e-06
3.5717603914e-05
-4.02515277276e-06
-7.21741444185e-06
3.58083155752e-05
5.35105664099e-05
8.90861293307e-06
5.55742219814e-05
1.58808751473e-05
5.5242482045e-05
1.62761353936e-05
5.35977852517e-05
1.40524902891e-05
5.15418467354e-05
1.11572139118e-05
4.95802786919e-05
8.45101179811e-06
4.79243493951e-05
6.22316826446e-06
4.66181372546e-05
4.49686608202e-06
4.56304642137e-05
3.20269072712e-06
4.4905115092e-05
2.25239759666e-06
4.43840878514e-05
1.56491358365e-06
4.40166918486e-05
1.07360895035e-06
4.37619658028e-05
7.26473901031e-07
4.35882680715e-05
4.84000356972e-07
4.34718701655e-05
3.16678045335e-07
4.33953622947e-05
2.02738091033e-07
4.33461951436e-05
1.26294805762e-07
4.33154617621e-05
7.5876662925e-08
4.32969308787e-05
4.32891153291e-08
4.32863116218e-05
2.27379947383e-08
4.32807165335e-05
1.01652449998e-08
4.32779171856e-05
2.84468116038e-09
4.3277103105e-05
-1.01980338052e-09
4.32773336024e-05
-2.97103559253e-09
4.32780350511e-05
-3.66507115562e-09
4.32789131121e-05
-3.68479437535e-09
4.32798017347e-05
-3.35862202289e-09
4.32806154898e-05
-2.88580536197e-09
4.32813176759e-05
-2.38135430564e-09
4.32818997054e-05
-1.90691277465e-09
4.32823681181e-05
-1.49130493594e-09
4.32827357225e-05
-1.1434054239e-09
4.32830128084e-05
-8.58793269758e-10
4.32832048407e-05
-6.31523325926e-10
4.32833473579e-05
-4.50828210419e-10
4.3283447243e-05
-3.05254756488e-10
4.32835058441e-05
-1.91459574443e-10
4.32835515882e-05
-1.28136393925e-10
4.32835813638e-05
-7.61000128665e-11
4.32835973328e-05
-3.48412736678e-11
4.32836031941e-05
-4.13230605677e-12
4.32836011262e-05
1.94139618215e-11
4.3283592836e-05
3.76917997368e-11
4.32835797119e-05
5.21323024012e-11
4.32835625293e-05
6.43937195418e-11
4.32835417869e-05
7.54479332198e-11
4.32835178527e-05
8.58835387893e-11
4.32834910409e-05
9.61437747172e-11
4.32834618876e-05
1.06528879787e-10
4.32834307897e-05
1.17071499555e-10
4.32833983291e-05
1.27548794731e-10
4.3283365435e-05
1.37499418606e-10
4.32833335066e-05
1.460738048e-10
4.32833045879e-05
1.51813357147e-10
4.32832815854e-05
1.52297961233e-10
4.3283268605e-05
1.43584957885e-10
4.3283272196e-05
1.1912901321e-10
4.32833038344e-05
6.76426315261e-11
4.3283381225e-05
-2.83222770758e-11
4.32835264348e-05
-1.92414566152e-10
4.32837408479e-05
-4.40306415536e-10
4.32841523347e-05
-9.6436566269e-10
4.32848807607e-05
-1.71484189584e-09
4.32860921202e-05
-2.84773127742e-09
4.32879907152e-05
-4.59109703022e-09
4.32909258418e-05
-7.2985945229e-09
4.32954600858e-05
-1.15320883392e-08
4.33024787389e-05
-1.8176391098e-08
4.33133766329e-05
-2.8656517143e-08
4.33303349177e-05
-4.53022982316e-08
4.3356704734e-05
-7.19688909664e-08
4.33981273894e-05
-1.15103944882e-07
4.34635794798e-05
-1.85884252873e-07
4.35670025355e-05
-3.04221663268e-07
4.37287213156e-05
-5.0614712987e-07
4.39739325819e-05
-8.56841430829e-07
4.43201698824e-05
-1.46847820849e-06
4.47296463358e-05
-2.51784328361e-06
4.49612204127e-05
-4.25672653113e-06
-6.69832910056e-06
4.44421345138e-05
5.27351379457e-05
6.1734748699e-06
5.57309342174e-05
1.28850786654e-05
5.73114738801e-05
1.46955955407e-05
5.76109912068e-05
1.37529727798e-05
5.71335218822e-05
1.16346830636e-05
5.63194672256e-05
9.26506627833e-06
5.54489869556e-05
7.09364836566e-06
5.46629763237e-05
5.28287654806e-06
5.40136807216e-05
3.85198616282e-06
5.35061494064e-05
2.75992874643e-06
5.31242536072e-05
1.94680921854e-06
5.28449843432e-05
1.3528780506e-06
5.26454386124e-05
9.26019468376e-07
5.25057152065e-05
6.23723600669e-07
5.24097217023e-05
4.12671390196e-07
5.23450174968e-05
2.6744214089e-07
5.23022821365e-05
1.69030015501e-07
5.22746982074e-05
1.03460447908e-07
5.22573777639e-05
6.06094217965e-08
5.22468740811e-05
3.32415465932e-08
5.22407802472e-05
1.6258951569e-08
5.22374793552e-05
6.14544671062e-09
5.22359877684e-05
4.71655193129e-10
5.22354893642e-05
-2.47276252665e-09
5.22355644663e-05
-3.74030635102e-09
5.22359207771e-05
-4.04123930548e-09
5.2236386486e-05
-3.82446470392e-09
5.22368648114e-05
-3.3642628167e-09
5.2237304512e-05
-2.82118396661e-09
5.223768265e-05
-2.28517553054e-09
5.22379923487e-05
-1.8011242066e-09
5.22382359615e-05
-1.38713461355e-09
5.2238423139e-05
-1.04608385784e-09
5.22385653675e-05
-7.73861649529e-10
5.22386731451e-05
-5.5871163219e-10
5.22387594746e-05
-3.91685714452e-10
5.22388341756e-05
-2.66257058205e-10
5.2238881139e-05
-1.75192200978e-10
5.22389163894e-05
-1.11440004666e-10
5.22389368122e-05
-5.53510550464e-11
5.22389449109e-05
-1.23164240351e-11
5.22389443152e-05
1.99259790624e-11
5.22389371668e-05
4.47598568288e-11
5.2238924975e-05
6.42470123385e-11
5.22389087917e-05
8.05043154591e-11
5.22388893554e-05
9.48190578647e-11
5.22388673857e-05
1.07796589594e-10
5.2238844217e-05
1.19264830846e-10
5.22388175521e-05
1.33154182859e-10
5.22387886514e-05
1.45939521428e-10
5.22387584526e-05
1.5772255708e-10
5.22387279013e-05
1.68031465589e-10
5.22386983963e-05
1.7556169384e-10
5.22386720826e-05
1.78111299308e-10
5.22386526293e-05
1.71737732437e-10
5.22386482904e-05
1.47909134629e-10
5.22386709695e-05
9.64372010871e-11
5.22387289151e-05
9.68915070613e-12
5.22388379368e-05
-1.37343395727e-10
5.22390064976e-05
-3.60967864623e-10
5.2239316132e-05
-7.4993240844e-10
5.22398031901e-05
-1.45141050547e-09
5.22405364251e-05
-2.44805670604e-09
5.22416493956e-05
-3.96068538794e-09
5.22433453553e-05
-6.28704896658e-09
5.22459267515e-05
-9.8799840231e-09
5.22498473239e-05
-1.54526465726e-08
5.22558020275e-05
-2.41310677402e-08
5.22648581415e-05
-3.77125812696e-08
5.22786499228e-05
-5.90940214555e-08
5.22996667873e-05
-9.29857191838e-08
5.23316763847e-05
-1.47113505417e-07
5.23801127831e-05
-2.34320597337e-07
5.24520524433e-05
-3.76161264702e-07
5.25545911537e-05
-6.08685782263e-07
5.26885885413e-05
-9.90838811177e-07
5.28321189934e-05
-1.6120086807e-06
5.29036051818e-05
-2.58932945117e-06
5.26890723521e-05
-4.04219338071e-06
-5.88786349656e-06
5.1878606626e-05
5.19834864087e-05
4.18998834583e-06
5.50586637663e-05
9.80990109841e-06
5.76386128719e-05
1.21156462467e-05
5.93259026924e-05
1.20656827772e-05
6.02280146087e-05
1.07325709739e-05
6.05929256679e-05
8.90015504101e-06
6.06482824687e-05
7.03829139395e-06
6.05531878927e-05
5.37797095671e-06
6.04029532033e-05
4.00222068468e-06
6.02479125963e-05
2.91496918737e-06
6.01107869954e-05
2.08393465518e-06
5.99990274488e-05
1.46463743364e-06
5.99125123222e-05
1.01253443169e-06
5.98479205801e-05
6.88315180771e-07
5.98010172974e-05
4.59574513579e-07
5.97677331017e-05
3.00726181433e-07
5.9744592411e-05
1.92170556149e-07
5.97288147798e-05
1.19237935189e-07
5.97182678335e-05
7.11562306205e-08
5.97113631632e-05
4.01460844901e-08
5.97069457153e-05
2.06762703863e-08
5.97042142918e-05
8.87674173249e-09
5.97026076723e-05
2.07814481604e-09
5.97017063324e-05
-1.57155407913e-09
5.97012515187e-05
-3.2856248631e-09
5.97010657621e-05
-3.85561417753e-09
5.97010335316e-05
-3.79236420481e-09
5.97010820809e-05
-3.41294050728e-09
5.97011675676e-05
-2.90679642655e-09
5.97012642441e-05
-2.38197441576e-09
5.97013580866e-05
-1.89508623432e-09
5.97014423551e-05
-1.47151972316e-09
5.97015152359e-05
-1.11907916647e-09
5.97015775636e-05
-8.36301936043e-10
5.970163018e-05
-6.11436802692e-10
5.97016728448e-05
-4.34453432963e-10
5.97017037645e-05
-2.97273636948e-10
5.9701722911e-05
-1.94431647749e-10
5.97017270312e-05
-1.15650191644e-10
5.97017179103e-05
-4.6318148208e-11
5.97017106835e-05
-5.17524895427e-12
5.97017014695e-05
2.90587206975e-11
5.97016899024e-05
5.62478982125e-11
5.97016776866e-05
7.63861273511e-11
5.97016631255e-05
9.4994165438e-11
5.97016458151e-05
1.12064482795e-10
5.9701625573e-05
1.27980934278e-10
5.97016017369e-05
1.4305194233e-10
5.97015774983e-05
1.57351867299e-10
5.9701552689e-05
1.7071690841e-10
5.97015278743e-05
1.82513598064e-10
5.97015043122e-05
1.91572884655e-10
5.97014837587e-05
1.96095144389e-10
5.97014683258e-05
1.93525766991e-10
5.97014594726e-05
1.80573887133e-10
5.97014534808e-05
1.53886739499e-10
5.97014454841e-05
1.04421381559e-10
5.97014540938e-05
1.07162307518e-12
5.97014925991e-05
-1.75849849205e-10
5.97016545579e-05
-5.22922560873e-10
5.97019291283e-05
-1.02449562515e-09
5.97022850237e-05
-1.8072924877e-09
5.97028220103e-05
-2.98502510372e-09
5.97036238514e-05
-4.76250872118e-09
5.97048029453e-05
-7.46612516441e-09
5.9706522896e-05
-1.15999197345e-08
5.9709020586e-05
-1.79503298086e-08
5.97126385823e-05
-2.77490509948e-08
5.97178667111e-05
-4.29406703169e-08
5.97253893679e-05
-6.66166336984e-08
5.97361190355e-05
-1.03715350177e-07
5.97511304153e-05
-1.62124839011e-07
5.97712850953e-05
-2.54475217207e-07
5.97960272221e-05
-4.00903295549e-07
5.98202322212e-05
-6.32890702179e-07
5.98269975996e-05
-9.97604094361e-07
5.97740348455e-05
-1.55904579049e-06
5.95725720482e-05
-2.38786658425e-06
5.90625768449e-05
-3.5321979341e-06
-4.90433014754e-06
5.80790435219e-05
5.14373053052e-05
2.75268292229e-06
5.42658203759e-05
6.98138581543e-06
5.72496429366e-05
9.13182349676e-06
5.9790027197e-05
9.52529833283e-06
6.17201276078e-05
8.80247038713e-06
6.30883024741e-05
7.53197999448e-06
6.40167159643e-05
6.10987773107e-06
6.46292356955e-05
4.76545105707e-06
6.50258025771e-05
3.60565363565e-06
6.52790770534e-05
2.66169454588e-06
6.5438971961e-05
1.92403958432e-06
6.55386885829e-05
1.36492064919e-06
6.55999268134e-05
9.51296038732e-07
6.5636741184e-05
6.51500648952e-07
6.56581916533e-05
4.38123885752e-07
6.56700990044e-05
2.888186758e-07
6.56761870713e-05
1.86082339977e-07
6.56788218496e-05
1.16603013936e-07
6.56794903483e-05
7.04875948571e-08
6.56791117424e-05
4.05245581905e-08
6.56782414426e-05
2.15464410547e-08
6.5677207106e-05
9.91094971202e-09
6.56761939007e-05
3.09122044238e-09
6.56752809453e-05
-6.58729521708e-10
6.56745075027e-05
-2.51231384172e-09
6.56738741462e-05
-3.22238886698e-09
6.56733700951e-05
-3.28844359713e-09
6.5672977949e-05
-3.02092332416e-09
6.56726788034e-05
-2.60777783112e-09
6.56724545871e-05
-2.15788260885e-09
6.56722892802e-05
-1.72990042757e-09
6.567216931e-05
-1.35166809608e-09
6.56720830264e-05
-1.03291149644e-09
6.5672019674e-05
-7.73061822124e-10
6.56719730759e-05
-5.64945603999e-10
6.56719390845e-05
-4.00562242939e-10
6.56719127734e-05
-2.71056899505e-10
6.56718894211e-05
-1.71169773044e-10
6.56718698737e-05
-9.61919116379e-11
6.56718649811e-05
-4.15130655856e-11
6.56718631671e-05
-3.44537662705e-12
6.56718557884e-05
3.63559895789e-11
6.56718455959e-05
6.63616627241e-11
6.56718321402e-05
8.97662432889e-11
6.56718169146e-05
1.1014800431e-10
6.5671800045e-05
1.28869683425e-10
6.56717813546e-05
1.46616171772e-10
6.56717607365e-05
1.63623457e-10
6.56717394007e-05
1.7865022412e-10
6.56717181516e-05
1.91938231666e-10
6.56716960321e-05
2.04610505247e-10
6.5671673634e-05
2.13949824253e-10
6.56716519409e-05
2.17768132986e-10
6.5671632464e-05
2.12982409618e-10
6.56716178475e-05
1.95170711097e-10
6.56716136251e-05
1.58093201828e-10
6.56716225757e-05
9.54583047849e-11
6.56716294189e-05
-5.77790868081e-12
6.56716913427e-05
-2.37774924298e-10
6.56717668781e-05
-5.98454563864e-10
6.56718900401e-05
-1.14764510433e-09
6.5672067043e-05
-1.98427900648e-09
6.5672311298e-05
-3.22926440225e-09
6.5672637452e-05
-5.08864467865e-09
6.56730536868e-05
-7.88233141829e-09
6.56735542401e-05
-1.21004427266e-08
6.56741046911e-05
-1.8500760111e-08
6.56746114571e-05
-2.82557938706e-08
6.56748633331e-05
-4.31925156723e-08
6.56744203535e-05
-6.61736255592e-08
6.5672401946e-05
-1.0169691598e-07
6.56670371133e-05
-1.56759994163e-07
6.56547393421e-05
-2.42177416327e-07
6.5628292545e-05
-3.74456437159e-07
6.55733785574e-05
-5.77976675744e-07
6.54624304161e-05
-8.86655938143e-07
6.52456035455e-05
-1.34221879911e-06
6.48415060619e-05
-1.98376905326e-06
6.41351465027e-05
-2.82583821237e-06
-3.80120151534e-06
6.30320178467e-05
5.10850422902e-05
1.66764051014e-06
5.36118443679e-05
4.45458352592e-06
5.66873162175e-05
6.05635145828e-06
5.96894461857e-05
6.52316818025e-06
6.22997267784e-05
6.19218961732e-06
6.44136883373e-05
5.41801825473e-06
6.60471844942e-05
4.47638140168e-06
6.72686160588e-05
3.54401932443e-06
6.81598950958e-05
2.71437443245e-06
6.87977616471e-05
2.02382783108e-06
6.92467458807e-05
1.47505518923e-06
6.95579644071e-05
1.05370196157e-06
6.9770430524e-05
7.38829760753e-07
6.9913172673e-05
5.08758339797e-07
7.00073823914e-05
3.43914009381e-07
7.0068289948e-05
2.27910965249e-07
7.01066891941e-05
1.4768294533e-07
7.0130127773e-05
9.31642926667e-08
7.01438120774e-05
5.68031538237e-08
7.01512821292e-05
3.3054374086e-08
7.01549072275e-05
1.79212130486e-08
7.0156246218e-05
8.57182979809e-09
7.01563072044e-05
3.03010363885e-09
7.01557058827e-05
-5.75396445052e-11
7.01548317557e-05
-1.63831962644e-09
7.01538947389e-05
-2.28550509686e-09
7.01530120424e-05
-2.4058796968e-09
7.01522375795e-05
-2.24659146855e-09
7.01515888458e-05
-1.95917223661e-09
7.01510632607e-05
-1.63242315947e-09
7.01506482027e-05
-1.31496508816e-09
7.01503270159e-05
-1.03060004563e-09
7.01500823673e-05
-7.88377677448e-10
7.01498981304e-05
-5.88934875507e-10
7.01497612422e-05
-4.28161558891e-10
7.01496610217e-05
-3.00439644476e-10
7.0149589907e-05
-2.00035452565e-10
7.01495413397e-05
-1.22693735978e-10
7.01495083192e-05
-6.32619056759e-11
7.01494774303e-05
-1.07123385663e-11
7.01494492476e-05
2.46530607144e-11
7.01494323131e-05
5.32094615037e-11
7.01494198769e-05
7.87205967148e-11
7.01494085838e-05
1.00984725204e-10
7.01493974151e-05
1.21246440392e-10
7.0149385867e-05
1.40356033449e-10
7.01493737156e-05
1.58716118803e-10
7.01493609211e-05
1.76377365907e-10
7.0149346408e-05
1.93131603274e-10
7.01493298026e-05
2.08516855861e-10
7.01493126832e-05
2.21704462418e-10
7.01492955828e-05
2.31025923052e-10
7.01492791888e-05
2.34139675498e-10
7.01492642255e-05
2.27926389842e-10
7.01492509065e-05
2.08471998826e-10
7.01492376714e-05
1.71309600618e-10
7.01492203647e-05
1.1275088492e-10
7.01492114491e-05
3.12914986714e-12
7.01491974776e-05
-2.23806469664e-10
7.01492009834e-05
-6.01953772435e-10
7.01492019443e-05
-1.14858683403e-09
7.01491759866e-05
-1.95829736806e-09
7.01490934829e-05
-3.14674302858e-09
7.01488985375e-05
-4.89367905728e-09
7.01484880505e-05
-7.47181289009e-09
7.01476816091e-05
-1.12939673442e-08
7.01461709417e-05
-1.69900579164e-08
7.01434291438e-05
-2.55139574213e-08
7.01385604999e-05
-3.83238386922e-08
7.01300551268e-05
-5.76682199363e-08
7.0115396317e-05
-8.70380854919e-08
7.00903382879e-05
-1.31701960265e-07
7.00476667464e-05
-1.99505852947e-07
6.99752095516e-05
-3.01999189961e-07
6.98526629555e-05
-4.55430061138e-07
6.96470023403e-05
-6.80995363334e-07
6.93073202635e-05
-1.00253666549e-06
6.87623948489e-05
-1.43884367621e-06
6.79269498088e-05
-1.99039303433e-06
-2.61317063293e-06
6.67389189135e-05
5.08804131199e-05
7.87227268713e-07
5.31704660001e-05
2.16453043817e-06
5.62177495083e-05
3.00906776275e-06
5.94382694981e-05
3.30264800656e-06
6.2444969329e-05
3.18548960974e-06
6.50382527748e-05
2.82473462863e-06
6.71548663823e-05
2.35976762189e-06
6.88135649013e-05
1.88532063804e-06
7.00731708778e-05
1.45476829094e-06
7.10056677158e-05
1.0913308307e-06
7.16812637078e-05
7.99459036632e-07
7.21614224874e-05
5.73543021543e-07
7.24966024303e-05
4.0364965741e-07
7.27264774312e-05
2.78883179213e-07
7.28812740173e-05
1.89117265726e-07
7.29834604871e-05
1.25724341799e-07
7.30493997854e-05
8.17434985193e-08
7.3090795984e-05
5.1767951154e-08
7.31158823826e-05
3.17166175009e-08
7.31303575414e-05
1.85790812328e-08
7.31381009733e-05
1.01776490202e-08
7.31417082157e-05
4.96445583134e-09
7.31428816062e-05
1.8565810806e-09
7.31427155237e-05
1.08410054972e-10
7.31418743482e-05
-7.97277430561e-10
7.31407711731e-05
-1.18246292385e-09
7.31396349054e-05
-1.26974357979e-09
7.31385853903e-05
-1.19720644684e-09
7.31376755581e-05
-1.04946710256e-09
7.3136919684e-05
-8.7667268186e-10
7.31363109085e-05
-7.06310368382e-10
7.31358322446e-05
-5.52053763628e-10
7.31354631635e-05
-4.19410342997e-10
7.31351832568e-05
-3.09136537446e-10
7.31349742948e-05
-2.19301973172e-10
7.31348207531e-05
-1.46995043533e-10
7.31347096908e-05
-8.9067598792e-11
7.31346293453e-05
-4.24411967769e-11
7.31345670966e-05
-1.10344563166e-12
7.31345296882e-05
2.66091048e-11
7.31345026081e-05
5.16505050046e-11
7.31344820746e-05
7.36644501731e-11
7.31344668874e-05
9.38309482733e-11
7.3134455097e-05
1.1270011683e-10
7.31344452506e-05
1.31023218043e-10
7.31344362983e-05
1.4924762991e-10
7.31344274631e-05
1.67500943378e-10
7.31344181687e-05
1.8563166483e-10
7.31344080722e-05
2.03194481668e-10
7.31343970101e-05
2.19546795869e-10
7.3134384931e-05
2.33751262674e-10
7.31343718073e-05
2.4411905292e-10
7.31343576305e-05
2.48291607297e-10
7.31343424046e-05
2.43133419195e-10
7.31343262527e-05
2.24606086079e-10
7.31343096581e-05
1.8788562113e-10
7.31342938841e-05
1.28510616108e-10
7.31342648425e-05
3.21633194394e-11
7.3134215916e-05
-1.74883042112e-10
7.31341368727e-05
-5.2290628582e-10
7.3134005336e-05
-1.01703284573e-09
7.31337779611e-05
-1.73089902942e-09
7.31333840532e-05
-2.75281206046e-09
7.31327054466e-05
-4.21504583221e-09
7.31315435205e-05
-6.30985959684e-09
7.31295702318e-05
-9.3206557605e-09
7.31262520993e-05
-1.36718978396e-08
7.31207104964e-05
-1.99723249674e-08
7.31115016523e-05
-2.91149670044e-08
7.30962822809e-05
-4.24488139261e-08
7.30713055944e-05
-6.20613721962e-08
7.30305380008e-05
-9.09343467333e-08
7.29642852793e-05
-1.33253105789e-07
7.28572463898e-05
-1.9496023262e-07
7.26857883745e-05
-2.83971984636e-07
7.24146506611e-05
-4.09857673352e-07
7.19942531596e-05
-5.82139086849e-07
7.13614983842e-05
-8.06088919428e-07
7.04480115693e-05
-1.07690608313e-06
-1.37045053267e-06
6.9205291506e-05
5.0787172526e-05
5.46243698169e-11
5.29516496851e-05
5.30748034984e-11
5.59606882665e-05
2.89954671261e-11
5.92633217261e-05
1.43633216481e-11
6.24488082946e-05
2.86449038217e-12
6.52735488423e-05
-6.0991074314e-12
6.76333283616e-05
-1.20702441465e-11
6.951866389e-05
-1.50581435688e-11
7.09734475109e-05
-1.54948300466e-11
7.20647921589e-05
-1.39796293136e-11
7.28642621873e-05
-1.11525730008e-11
7.34378127251e-05
-7.67695284948e-12
7.38414664414e-05
-4.21945272055e-12
7.41203508946e-05
-1.43378844095e-12
7.43094679062e-05
9.67045792246e-14
7.44351921292e-05
-3.45193460349e-14
7.45169375635e-05
-2.08433882905e-12
7.45687111946e-05
-5.82367044401e-12
7.46004382873e-05
-1.0614805513e-11
7.46190327209e-05
-1.54890805361e-11
7.46292295667e-05
-1.93321539197e-11
7.46342149545e-05
-2.10664633121e-11
7.46360916809e-05
-2.02792113574e-11
7.4636218189e-05
-1.82307049879e-11
7.46354365684e-05
-1.57886588729e-11
7.46342667538e-05
-1.27789515947e-11
7.46330062928e-05
-9.41108362673e-12
7.46318146211e-05
-5.66080533918e-12
7.46307662267e-05
-1.19659759923e-12
7.46298863759e-05
3.05700544913e-12
7.46291723659e-05
7.58141315638e-12
7.46286076142e-05
1.25816682489e-11
7.46281701349e-05
1.79557375367e-11
7.46278371516e-05
2.37379731818e-11
7.46275876534e-05
3.00930074908e-11
7.46274034034e-05
3.71560944507e-11
7.46272692017e-05
4.50381598728e-11
7.46271728851e-05
5.37813525402e-11
7.46271081961e-05
6.34949508222e-11
7.4627061437e-05
7.32833888258e-11
7.46270293599e-05
8.36487381741e-11
7.46270077413e-05
9.52071288441e-11
7.46269934296e-05
1.08067406638e-10
7.46269839313e-05
1.22126046302e-10
7.462697747e-05
1.37417875564e-10
7.46269727762e-05
1.53882711891e-10
7.46269689217e-05
1.71306056543e-10
7.46269652049e-05
1.89307093121e-10
7.462696106e-05
2.07302923363e-10
7.46269560637e-05
2.24508520035e-10
7.46269499484e-05
2.3983322227e-10
7.46269424082e-05
2.5162861082e-10
7.46269330098e-05
2.57664693338e-10
7.46269210813e-05
2.5504017654e-10
7.46269055432e-05
2.40123655878e-10
7.46268847662e-05
2.08646073255e-10
7.46268572207e-05
1.56045720281e-10
7.46268130374e-05
7.63432553162e-11
7.46267204762e-05
-8.23223693096e-11
7.46265793036e-05
-3.81730043776e-10
7.46263468994e-05
-7.84620211642e-10
7.4625963498e-05
-1.34748173103e-09
7.46253305933e-05
-2.11987460403e-09
7.46242882051e-05
-3.17261501052e-09
7.46225743675e-05
-4.59599082044e-09
7.46197673367e-05
-6.51360491015e-09
7.46151984673e-05
-9.10300591747e-09
7.46077772439e-05
-1.2551078717e-08
7.45957272914e-05
-1.70649866815e-08
7.45762026712e-05
-2.29241659856e-08
7.45447868932e-05
-3.06455609904e-08
7.44945416274e-05
-4.06890338293e-08
7.4414535174e-05
-5.32465958052e-08
7.42880506893e-05
-6.8475659501e-08
7.40901865924e-05
-8.61077966232e-08
7.37852888164e-05
-1.04959869917e-07
7.33253864349e-05
-1.22236551553e-07
7.26520263671e-05
-1.32728794481e-07
7.17043341916e-05
-1.29213793722e-07
-1.03098696954e-07
7.04369824275e-05
5.07871714899e-05
-7.87116980658e-07
5.29516488347e-05