/*--------------------------------*- C++ -*----------------------------------*\
| =========                 |                                                 |
| \\      /  F ield         | OpenFOAM: The Open Source CFD Toolbox           |
|  \\    /   O peration     | Version:  2106                                  |
|   \\  /    A nd           | Website:  www.openfoam.com                      |
|    \\/     M anipulation  |                                                 |
\*---------------------------------------------------------------------------*/
FoamFile
{
    version     2.0;
    format      ascii;
    arch        "LSB;label=32;scalar=64";
    class       volScalarField;
    location    "0.005";
    object      p;
}
// * * * * * * * * * * * * * * * * * * * * * * * * * * * * * * * * * * * * * //

dimensions      [0 2 -2 0 0 0 0];

internalField   nonuniform List<scalar> 
11200
(
119.421604039
116.534504493
115.450897709
114.931731089
114.547347123
114.216242459
113.906582793
113.603318471
113.300401051
112.995085925
112.685713133
112.371106358
112.050350607
111.722670208
111.387363015
111.043767432
110.691239238
110.329142092
109.956844881
109.573688924
109.179009576
108.772138905
108.352398818
107.919098768
107.471535674
107.008993812
106.530747164
106.036058255
105.524177326
104.994343038
104.445783349
103.877715452
103.289345768
102.679870096
102.048473486
101.394330702
100.716607495
100.014460942
99.2870384946
98.5334779274
97.7529089042
96.9444541123
96.1072286012
95.2403386783
94.3428820371
93.4139485797
92.4526202676
91.4579697294
90.4290586449
89.364936411
88.2646384002
87.1271831946
85.9515687706
84.736767566
83.4817201552
82.1853274637
80.8464413021
79.4638521068
78.0362726782
76.5623179525
75.0404802569
73.4690991557
71.8463214664
70.1700482937
68.4378696488
66.6469811422
64.7940741902
62.8752007247
60.8856132303
58.8193663253
56.6690371437
54.4251808413
52.0754962156
49.6035416509
46.9866659067
44.1927717699
41.1734449368
37.855261386
34.0788595149
29.1760839106
117.59922355
116.268742513
115.493505261
114.998349658
114.59687205
114.247410079
113.92558205
113.615155201
113.308115238
113.000432819
112.68969448
112.374304137
112.053115646
111.725223077
111.389847666
111.046278579
110.693839161
110.331868144
109.959702195
109.576687994
109.182164328
108.775459306
108.355890233
107.922761175
107.475369822
107.013003975
106.534938081
106.040433795
105.528741096
104.999098663
104.450734075
103.882864057
103.294694999
102.685422838
102.054232544
101.400298818
100.722787485
100.020855596
99.2936506263
98.5403106542
97.7599657031
96.9517385688
96.1147443235
95.2480896715
94.3508731626
93.4221855845
92.4611096253
91.4667189489
90.4380769273
89.3742349977
88.2742306918
87.1370853464
85.9618008132
84.7473543883
83.4926922019
82.1967218387
80.8583037441
79.4762394916
78.0492557979
76.5759851747
75.0549407731
73.4844812717
71.8627670759
70.1877444251
68.4570568026
66.6679647115
64.8172418948
62.9010305714
60.9146386243
58.8523807715
56.7071201559
54.4697382772
52.1284978565
49.66789341
47.0668642595
44.2953138174
41.3092431732
38.0450200378
34.393848112
30.1356085227
116.598245193
115.958072331
115.414015605
114.978071919
114.596522367
114.252473835
113.930936528
113.619597832
113.311610791
113.003201732
112.691956898
112.376228522
112.054822377
111.726796487
111.391345036
111.047737643
110.695285548
110.333321302
109.961184797
109.578216678
109.183750679
108.777111957
108.35761752
107.924576843
107.477282638
107.015011728
106.537040343
106.0426314
105.531035062
105.001490354
104.45322483
103.885455426
103.297389062
102.688221939
102.057138964
101.403314979
100.725916271
100.024100279
99.2970147479
98.5437982946
97.7635818154
96.9554889552
96.1186355715
95.252129488
94.3550708582
93.4265523989
92.4656591213
91.4714676637
90.4430449503
89.3794465383
88.2797150951
87.1428785711
85.9679469402
84.753907111
83.4997168316
82.2042981301
80.8665290979
79.4852321375
78.059158351
76.5869695672
75.0672150621
73.4983124637
71.8785267408
70.2058757333
68.4781029538
66.6926039119
64.8463308501
62.9356700058
60.9562727367
58.9028300197
56.7688049602
54.5460322698
52.2241143287
49.789653623
47.2251683968
44.507498489
41.6061672669
38.4852375285
35.1069579889
31.4444411152
116.051332979
115.689591372
115.292519033
114.921866258
114.572717396
114.243502644
113.928160249
113.619332088
113.312317625
113.004238574
112.693062545
112.377305396
112.055843793
111.727764288
111.392271195
111.048638208
110.696177239
110.334218126
109.962097403
109.579151671
109.184711718
108.778101453
108.358636461
107.925621445
107.478351102
107.016114841
106.538183038
106.043817145
105.532268518
105.002774387
104.454561714
103.886847463
103.2988388
102.689731824
102.058711375
101.404952759
100.727622994
100.025879955
99.2988719479
98.545738702
97.7656123733
96.9576176971
96.1208718694
95.2544847385
94.3575590853
93.4291907473
92.468468362
91.4744726536
90.4462756375
89.3829392963
88.28351432
87.1470383772
85.9725330284
84.7589992408
83.5054122974
82.2107161673
80.873816186
79.4935691133
78.0687703752
76.5981394633
75.0803016437
73.5137391534
71.8967796541
70.2275671703
68.5040048732
66.7236906392
64.8838385833
62.9811803636
61.0118365163
58.9711456708
56.8534686619
54.6519409611
52.3581098708
49.9615878395
47.4497466512
44.8076810661
42.019299517
39.072871078
35.9719738236
32.7518467324
115.718651244
115.477539213
115.173438044
114.857795966
114.539948381
114.227405475
113.920548067
113.616007879
113.311151153
113.004142109
112.69348255
112.377963818
112.056605212
111.728566341
111.393089922
111.049467993
110.697020563
110.335081156
109.962987793
109.580076666
109.185678252
108.779116252
108.359705981
107.926752919
107.479551308
107.017383416
106.539520379
106.045223265
105.533741381
105.004313832
104.456167938
103.88852242
103.300585147
102.691552077
102.060608495
101.406930436
100.729685655
100.028032481
99.3011202087
98.5480900241
97.768075413
96.9602025812
96.1235908104
95.2573526317
94.3605939041
93.432413966
92.4719055064
91.4781556949
90.4502435597
89.3872393164
88.2882040192
87.1521881426
85.9782286341
84.7653450437
83.5125355421
82.2187722959
80.8829945943
79.5040980956
78.0809190914
76.612234964
75.0967470365
73.5330492108
71.9196070444
70.254721854
68.53649338
66.7627726771
64.9311030519
63.0386485048
61.0821065264
59.0576053955
56.9605892328
54.7857042575
52.5267043986
50.1764634787
47.7272553456
45.1716457534
42.5048026349
39.7303055681
36.8698223344
33.9728160888
115.512199621
115.319389141
115.070636053
114.795752132
114.504195396
114.207517134
113.909822897
113.610459861
113.308488682
113.003066897
112.693267963
112.37820733
112.057087767
111.729171993
111.393760059
111.05017492
110.697752784
110.335835535
109.963765545
109.580880436
109.186510801
108.779980016
108.360602713
107.927683124
107.480514705
107.018380078
106.54055121
106.046290249
105.534848245
105.005464246
104.457366707
103.88977329
103.301891041
102.692915883
102.062034375
101.408422937
100.731249862
100.029674203
99.3028466259
98.5499099862
97.7699994142
96.9622428756
96.125762218
95.2596732342
94.3630856901
93.4351037678
92.474826693
91.4813470458
90.4537518479
89.3911217243
88.2925300592
87.1570419817
85.9837123114
84.7715826549
83.5196781516
82.2270035751
80.8925382522
79.5152306651
78.0939967253
76.6276913921
75.1150827888
73.5548893508
71.9457191828
70.286055186
68.5742291267
66.8083873738
64.986452528
63.1060808223
61.164616882
59.1590515585
57.0859937072
54.9416808089
52.7220735431
50.4231287398
48.0414203767
45.5754118831
43.0279028535
40.410698599
37.7510753898
35.0956544116
115.382164451
115.206062426
114.988638829
114.741795414
114.470504584
114.187316207
113.898122365
113.603922919
113.305014757
113.00137675
112.692599255
112.378114283
112.057313911
111.729573179
111.394257829
111.050728197
110.698340811
110.336449182
109.964401733
109.581539114
109.187193683
108.780689106
108.361339899
107.928450854
107.481315839
107.019217689
106.541429006
106.047211536
105.53581542
105.006479043
104.458430361
103.890887612
103.303058383
102.69413938
102.063316933
101.409769521
100.732665889
100.031166413
99.3044229952
98.5515794454
97.7717727368
96.9641339668
96.1277883121
95.261855105
94.3654481503
93.437676569
92.4776457002
91.4844569553
90.457206719
89.3949868987
88.2968849405
87.1619834136
85.9893584008
84.778077349
83.5271969291
82.2357605219
80.902794398
79.527301523
78.1082525979
76.6445893067
75.1352132762
73.57896173
71.9746043484
70.3208273127
68.6162166597
66.8592395782
65.0482267227
63.1813576091
61.2566537259
59.2719884428
57.225131153
55.1138538093
52.9361507514
50.6906563395
48.3773996586
45.9990921623
43.5632109296
41.0852685395
38.5924602839
36.12406314
115.299762059
115.128392016
114.928278768
114.699630722
114.442733655
114.169838023
113.887538162
113.597743615
113.301561926
112.999571812
112.691770155
112.377853085
112.057378239
111.729821882
111.394610821
111.051141763
110.698792233
110.336927252
109.964901328
109.582058821
109.187734051
108.781251309
108.361925446
107.929061511
107.481953406
107.019883828
106.542125031
106.04793854
105.536574295
105.007271401
104.459258788
103.891754983
103.303967822
102.695094724
102.064323162
101.410831765
100.733790261
100.032360278
99.3056952914
98.5529410112
97.773236561
96.9657154996
96.1295061924
95.2637318257
94.3675108829
93.4399583171
92.4801865216
91.4873054284
90.4604223636
89.3986418853
88.301066889
87.1667986878
85.9949361269
84.7845744448
83.5348042224
82.2447101539
80.9133690696
79.5398472991
78.1231964561
76.6624432857
75.1566089752
73.6046657539
72.0055551601
70.3581812833
68.6613992041
66.9140104829
65.1147654313
63.2623740139
61.3555305551
59.3929653822
57.3735414331
55.2964247931
53.1613732651
50.9692087334
48.72256439
46.4270078362
44.0926167043
41.7360619688
39.3823392373
37.0635213644
115.250374657
115.079856294
114.888863704
114.671009276
114.423224673
114.157176621
113.879656611
113.593023591
113.29885496
112.998111065
112.691064271
112.377595526
112.057382702
111.729977856
111.394854538
111.051437144
110.699119756
110.337277041
109.965268705
109.582441975
109.188132629
108.781665769
108.362356881
107.929511259
107.482422701
107.020373896
106.542637239
106.048474383
105.537135646
105.007860567
104.459878271
103.892407374
103.304656146
102.695822683
102.065095191
101.411652869
100.734666622
100.03329947
99.3067064433
98.5540351052
97.7744269877
96.9670187396
96.1309422924
95.2653248683
94.3692899516
93.4419589326
92.482452067
91.4898883962
90.4633859319
89.4020628117
88.305038617
87.171434863
86.0003748084
84.7909832925
83.5423870452
82.253714943
80.9240973501
79.5526652377
78.1385499853
76.6808798722
75.1787719345
73.6313694406
72.0378021034
70.3971789013
68.7086236689
66.9712731287
65.1842934494
63.3469121362
61.4584657562
59.5184803899
57.526803691
55.4838113521
53.3907193982
51.2500517984
49.0663081645
46.8468664504
44.6030855546
42.3515298809
40.1145589713
37.9184489254
115.227076175
115.056517448
114.869457769
114.656610496
114.413224414
114.150582183
113.875498805
113.590509294
113.297405042
112.997330439
112.690694337
112.377472422
112.057405942
111.730087675
111.395015554
111.051628788
110.699330943
110.337502058
109.965504996
109.582688576
109.188389143
108.78193234
108.362634309
107.929800426
107.482724246
107.020688744
106.542966689
106.048819864
105.537498878
105.008243534
104.460283043
103.89283632
103.305112245
102.696309697
102.065617655
101.412216172
100.735277344
100.033965542
99.3074373255
98.5548422437
97.7753244108
96.9680235481
96.1320750844
95.2666104534
94.3707585064
93.4436472873
92.4844049236
91.4921598567
90.4660416526
89.4051826408
88.3087196132
87.175794909
86.0055569807
84.7971612127
83.5497715144
82.2625619656
80.9347179469
79.5654375371
78.1539335889
76.699436221
75.2011944406
73.6584697605
72.0705574594
70.4368095351
68.7566243667
67.0294746938
65.2549233004
63.4326678529
61.5626328173
59.6450577497
57.6806453541
55.6707794899
53.6178351658
51.5256047493
49.399865018
47.2490706861
45.0850908703
42.9238759762
40.7854365584
38.69177369
115.227080072
115.056534122
114.869485174
114.656647064
114.413269654
114.150634879
113.875557641
113.590573588
113.297474796
112.997405015
112.690772621
112.377554281
112.05749133
111.730176503
111.39510767
111.051724284
110.699429778
110.337604201
109.965610713
109.582798016
109.188502276
108.782049699
108.362756507
107.929927622
107.482856902
107.020827663
106.543112688
106.048973948
105.537662502
105.00841844
104.460471137
103.893040123
103.305334767
102.696554598
102.065889263
101.41251977
100.735619465
100.034354092
99.3078818169
98.5553542746
97.7759181793
96.9687162501
96.1328874245
95.267567542
94.3718910063
93.444992499
92.4860079825
91.4940754849
90.4683364242
89.4079374927
88.3120327431
87.1797853882
86.0103692687
84.8029707206
83.5567911728
82.2710499764
80.9449875316
79.5778688891
78.1689875793
76.71767074
75.2232873386
73.68525783
72.1030622273
70.4762520598
68.8044676654
67.0874705516
65.3251973616
63.5178154368
61.6657754607
59.7699333312
57.8317064476
55.8532835764
53.8379147765
51.7902836658
49.7169745465
47.6270009337
45.5322996657
43.4480862481
41.3925954242
39.3849872446
115.250384671
115.079906519
114.888946647
114.671120504
114.423360652
114.157334979
113.879834657
113.593218441
113.299064641
112.998333862
112.691298786
112.377840963
112.057638709
111.730244438
111.39513118
111.051723609
110.699416157
110.337583621
109.965586081
109.582770538
109.188472674
108.782018371
108.362723374
107.92989258
107.482820157
107.020789626
106.543073892
106.048935285
105.537625221
105.008383982
104.460441308
103.893017037
103.305321427
102.696554425
102.065906341
101.412559234
100.735687687
100.034458781
99.3080323091
98.555561998
97.776197082
96.9690831949
96.1333628093
95.2681762288
94.3726632995
93.4459651162
92.4872253911
91.4955917499
90.4702173189
89.4102628975
88.314899574
87.1833111259
86.0146962889
84.8082716987
83.5632755456
82.2789716982
80.9546544999
79.5896540995
78.1833426867
76.7351426023
75.2445364374
73.7110793408
72.1344143973
70.5142933004
68.8506027993
67.1433994044
65.3929545517
63.5998135779
61.7648796289
59.8895278752
57.9757549524
56.0263725046
54.0452671708
52.037720104
50.0107907828
47.9737302076
45.9383416578
43.9192007756
41.9333909674
39.9983679455
115.29977944
115.128477388
114.928418623
114.699817792
114.442962786
114.170103793
113.887836166
113.598069895
113.301912379
112.999943734
112.69216218
112.378263524
112.057806108
111.730266672
111.395072156
111.051619456
110.69928646
110.337438474
109.965430255
109.582606086
109.188300383
108.781838174
108.362534729
107.929695082
107.4826137
107.020574277
106.542849935
106.048703295
105.537386023
105.008138731
104.460191644
103.892765102
103.305069779
102.696306075
102.065665133
101.412330097
100.735476718
100.034273328
99.3078812517
98.5554561937
97.7761498142
96.9691106357
96.1334846447
95.2684164223
94.3730509266
93.4465354522
92.4880213541
91.4966654733
90.4716319663
89.4120951574
88.3172427077
87.1862782572
86.0184243284
84.8129264071
83.5690578373
82.2861251618
80.9634740831
79.60049646
78.1966390533
76.7514141508
75.2644124788
73.7353188167
72.1639306718
70.5501827681
68.8941777688
67.1962255698
65.4568933728
63.6770679977
61.8580382337
60.0016028314
58.1102086641
56.1871229907
54.2366572641
52.2644327959
50.2777005786
48.2856853059
46.2998997794
44.3343922586
42.405719178
40.530725413
115.382187989
115.206185222
114.98883964
114.7420614
114.470829574
114.187692583
113.898543655
113.60438302
113.305508324
113.001900471
112.693150438
112.378690686
112.057914108
111.730196255
111.394903258
111.051395916
110.69903146
110.337163591
109.965140559
109.582303308
109.187984621
108.78150858
108.362190171
107.929334724
107.482237039
107.020181008
106.542439991
106.048276895
105.536943688
105.00768137
104.45972066
103.892282529
103.30457754
102.69580662
102.065162028
101.411827993
100.734981308
100.033791432
99.3074210201
98.5550276229
97.7757652521
96.9687852386
96.1332368762
95.2682686517
94.3730302888
93.4466750296
92.4883614392
91.4972548246
90.472529625
89.4133729636
88.3189879834
87.1885967406
86.0214440105
84.8168023441
83.573977848
82.2923165888
80.9712118079
79.6101125689
78.208534418
76.7660722775
75.282415913
73.7573676661
72.1908645429
70.5830063181
68.9340884534
67.2446442308
65.5154963562
63.747819397
61.9432184526
60.1038267558
58.232427224
56.3325986427
54.4088975181
52.4670698812
50.5143167701
48.5595957877
46.6139469573
44.6909104939
42.8070099849
40.9794226674
115.512231146
115.319552736
115.070902652
114.796102903
114.504621683
114.208009896
113.910372677
113.611058294
113.309129516
113.003745896
112.693981764
112.378953456
112.057863995
111.729977004
111.394593364
111.051036669
110.698643429
110.336755799
109.964715938
109.581861971
109.187525314
108.781029464
108.3616896
107.928811463
107.481690057
107.019609487
106.541843533
106.047655532
105.536297643
105.007011049
104.45902671
103.891565772
103.303840358
102.695052045
102.064393218
101.41104888
100.734196746
100.033007224
99.3066443783
98.5542675816
97.7750330356
96.9680946013
96.1326045027
95.2677148031
94.3725797123
93.4463578314
92.4882140448
91.4973213035
90.4728636562
89.4140398882
88.320066859
87.1901832003
86.0236540844
84.8197767367
83.5778868188
82.2973658824
80.9776498674
79.618239263
78.2187112562
76.7787345132
75.2980866155
73.7766740938
72.2145572581
70.6119795798
68.9694031973
67.2875528035
65.5674666261
63.810556187
62.0186793956
60.1942268654
58.3402211908
56.4604327129
54.559515042
52.6431592206
50.7182953286
48.7933477119
46.8785823715
44.9867986204
43.1346388883
41.3401580569
115.718690757
115.477747712
115.173776534
114.85823818
114.540483217
114.228020644
113.921231863
113.616749981
113.311943788
113.004980026
112.694362528
112.378882695
112.057560226
111.72955617
111.394114543
111.050527967
110.698116284
110.336213012
109.964156366
109.58128286
109.186923393
108.78040177
108.36103381
107.928125613
107.480972441
107.018858922
106.541059441
106.046837784
105.535446671
105.006127672
104.45811191
103.89062078
103.302865397
102.69404818
102.063362984
101.409995589
100.733124238
100.031920393
99.305549681
98.5531731405
97.7739486149
96.9670318521
96.1315776409
95.2667414215
94.3716814509
93.4455607352
92.4875497489
91.4968284454
90.4725894497
89.4140415452
88.3204135228
87.1909587936
86.0249605253
84.8217369063
83.5806489705
82.3011090058
80.982590159
79.6246376643
78.2268819745
76.7890554316
75.3110111811
73.7927448758
72.2344213712
70.6364057642
68.9993002789
67.323988318
65.6116853311
63.8639944734
62.0829705493
60.2711967223
58.4318590419
56.568829611
54.6867523621
52.7911229325
50.8883990844
48.9861592001
47.0933817339
45.2214182698
43.3863693829
41.6065690254
116.051381706
115.689848979
115.292932696
114.922401741
114.573358843
114.244234525
113.928969005
113.62020589
113.313247435
113.00521815
112.694087815
112.378373188
112.056952174
111.728912401
111.393460392
111.049870241
110.697453124
110.335539138
109.963465668
109.580569469
109.186182285
108.779629013
108.360226183
107.927280247
107.48008692
107.017931269
106.540087897
106.045820766
105.534383097
105.00501757
104.456956024
103.889420159
103.301622097
102.692764231
102.062040428
101.408636944
100.731732944
100.0305007
99.3041066558
98.5517130764
97.7724793765
96.9655632166
96.1301216495
95.2653128818
94.3702987889
93.4442458666
92.4863292866
91.4957345216
90.4716609526
89.4133256253
88.3199674352
87.1908518521
86.0252763934
84.8225776828
83.5821384838
82.3033966768
80.9858560248
79.629098083
78.2327973325
76.7967387026
75.3208366665
73.8051594103
72.2499570654
70.6556938832
69.0230860593
67.3531443886
65.6472239102
63.9070781589
62.1349139182
60.3334570312
58.5060052185
56.6564790302
54.7894581822
52.9101696355
51.0244624681
49.1387470757
47.2599576189
45.3965178938
43.5615720279
41.7702089136
116.59830746
115.958392294
115.41451357
114.978704063
114.597270283
114.253319157
113.931863189
113.620592171
113.312662218
113.004302957
112.693102865
112.377415242
112.056047383
111.728057494
111.392641594
111.049071444
110.696659163
110.334737114
109.962645131
109.57972211
109.185301624
108.778710164
108.359266185
107.926277114
107.479039346
107.016838226
106.538948478
106.044634038
105.533148185
105.003733196
104.455621253
103.888034699
103.300185814
102.691277505
102.06050423
101.407052799
100.730102934
100.028827776
99.3023948134
98.549967154
97.7707051734
96.9637679052
96.1283141799
95.2635042372
94.3685017885
93.4424775326
92.4846097447
91.4940884022
90.4701184703
89.4119235825
88.3187503507
87.1898733259
86.0246013103
84.8222843602
83.5823212744
82.3041697009
80.987357116
79.6314935969
78.2362875944
76.8015638348
75.3272844436
73.8135739991
72.2607481163
70.6693466956
69.0401720341
67.374330908
65.6732844977
63.9389000548
62.1735015697
60.3799243063
58.5615562827
56.7223637308
54.8668746753
53.0000817082
51.1272624236
49.253559164
47.383199458
45.5197173074
43.6680245361
41.8277366384
117.599332198
116.269207161
115.494197265
114.99921165
114.597880814
114.248545519
113.92682665
113.616495195
113.30953896
113.00193208
112.69126432
112.375939496
112.054811124
111.726973104
111.391647177
111.048123084
110.695725995
110.333797666
109.961684345
109.578728926
109.18426674
108.777623319
108.358122066
107.925071603
107.477769293
107.015501416
106.53754351
106.043160547
105.531606144
105.002122735
104.453942581
103.886287812
103.298370732
102.689394429
102.05855364
101.405035593
100.728020529
100.02668205
99.3001879621
98.5477019389
97.7683853062
96.9613982009
96.1259006725
95.2610545609
94.3660257493
93.4399867092
92.4821182985
91.4916134207
90.4676804938
89.4095475276
88.3164668545
87.1877203423
86.0226247484
84.8205387117
83.580872337
82.3030971411
80.9867567516
79.6314802003
78.2369988207
76.80316472
75.3299721553
73.8175828613
72.266355705
70.6768806104
69.0500147461
67.3869305917
65.6891712917
63.9586882616
62.1978962691
60.4097257986
58.5976662085
56.7657826442
54.9186432325
53.061201924
51.1985956797
49.3353907605
47.4741516835
45.6145575344
43.7471023884
41.8129275347
119.421778684
116.535184976
115.451894679
114.93298918
114.548835719
114.21793778
113.908465333
113.605373102
113.302617337
112.997458422
112.688240503
112.37378832
112.05318732
111.725663807
111.39051795
111.047087295
110.694727136
110.33279873
109.960660901
109.577665031
109.183154099
108.776463715
108.356909825
107.923802735
107.476440809
107.014110841
106.536088915
106.041640185
105.530018342
105.000466139
104.452215948
103.884490169
103.296501378
102.687452828
102.056539461
101.402948848
100.725861543
100.024451268
99.2978859868
98.5453298408
97.7659447772
96.9588914911
96.1233306581
95.2584248666
94.3633408398
93.4372519861
92.4793408699
91.4888020893
90.4648457867
89.4067021353
88.3136260987
87.1849025591
86.0198521748
84.8178387189
83.5782783437
82.300649416
80.9845034907
79.6294799129
78.2353220563
76.8018961463
75.3292139753
73.8174583246
72.2670123267
70.6784966474
69.0528148679
67.391188232
65.6951962359
63.9668483119
62.2086299679
60.4235541244
58.6151989198
56.787720201
54.945938867
53.0953014635
51.2416267573
49.3907698768
47.5480583833
45.7182401858
43.8812865221
41.8293946071
21.1591977501
17.885242094
15.5142833228
13.5587638316
11.8688473976
10.3841858191
9.0679813384
7.89281530159
6.83806759938
5.88754623751
5.02807797337
4.24871529282
3.54021985041
2.89470539591
2.30538065766
1.76635521219
1.27248939279
0.819281224218
0.402769768883
0.0194539840808
-0.333769495075
-0.659655926273
-0.960662780764
-1.2389871912
-1.49659786726
-1.73526320199
-1.95657561468
-2.16197382496
-2.35275845332
-2.53010826875
-2.69509529342
-2.84869438754
-2.99179423807
-3.12520862927
-3.24968324805
-3.36590073547
-3.47448731855
-3.57602082376
-3.67103408437
-3.76001753351
-3.84342471592
-3.92167389239
-3.99514589216
-4.06417421417
-4.12908936403
-4.19020119924
-4.24780353738
-4.30218233129
-4.35359212111
-4.40226116192
-4.44839956634
-4.49220509897
-4.53385701007
-4.57352437226
-4.61136526541
-4.64752708042
-4.68214225345
-4.71532554729
-4.74720526917
-4.77789107505
-4.80748154377
-4.8360630394
-4.86372219301
-4.89054076192
-4.91658062586
-4.94187744893
-4.96653822329
-4.9906144382
-5.01415630187
-5.03720967343
-5.05981741584
-5.08201911679
-5.10385053066
-5.12534365754
-5.14652774249
-5.16742992766
-5.18807489068
-5.20848423641
-5.22867658667
-5.24866817937
-5.2684734451
-5.28810526318
-5.30757486665
-5.32689173052
-5.3460637141
-5.36509692005
-5.38399534805
-5.40276105517
-5.42139494721
-5.4398971374
-5.45826623813
-5.47649856722
-5.49458836307
-5.51252810077
-5.53030835778
-5.54791817126
-5.56534539666
-5.58257573773
-5.59959149077
-5.61637199648
-5.63289487883
-5.64913551519
-5.66506529724
-5.68065117537
-5.69585655782
-5.71064156603
-5.72496182227
-5.73876709426
-5.75200069449
-5.76459931169
-5.77649330295
-5.78760572723
-5.79785114611
-5.80713431344
-5.81534897212
-5.82237707847
-5.82808852879
-5.83233879746
-5.83496725082
-5.83579662206
-5.83463105289
-5.83125375387
-5.82542503413
-5.81688062804
-5.80532852113
-5.7904467072
-5.77188119979
-5.74924154367
-5.72209801063
-5.68998025618
-5.65237309308
-5.60871292866
-5.55838398494
-5.50071591077
-5.43498120879
-5.36039180574
-5.27609977787
-5.18119758431
-5.07471768114
-4.95563969766
-4.82289819868
-4.67539444961
-4.51201801905
-4.33167879266
-4.13334471998
-3.91610515599
-3.67923563502
-3.42231139641
-3.14534170183
-2.84894231144
-2.53455978093
-2.20474216157
-1.86347048864
-1.5165596944
-1.17195771775
-0.840342734785
-0.535043120816
-0.273504441114
-0.0728233582425
0.0820851797454
24.578881015
20.6498703704
17.9305220955
15.7593137191
13.9270496206
12.3417226017
10.9499636594
9.71589540731
8.6138606253
7.62443645911
6.73228959401
5.92497913856
5.19220677648
4.52531798489
3.91695510599
3.36080994793
2.85142228186
2.38404900151
1.9545397113
1.55924624256
1.19494890084
0.858797550685
0.548254805799
0.261062504555
-0.00480459554521
-0.251160213744
-0.479638205031
-0.69171277389
-0.888714967525
-1.07185428025
-1.2422267653
-1.40083267728
-1.54858115872
-1.6863087942
-1.8147799611
-1.93469579085
-2.04670015075
-2.15138776351
-2.2493072874
-2.34096393142
-2.42682570914
-2.50732736967
-2.5828721723
-2.65384120225
-2.72058725463
-2.78344173175
-2.84268994378
-2.8985950059
-2.95138746912
-3.00132160072
-3.04861120242
-3.09346491128
-3.1360766685
-3.17662451202
-3.21527086531
-3.25216630283
-3.2874533976
-3.32127513404
-3.35374354967
-3.38496965542
-3.4150571376
-3.44409812636
-3.47217869869
-3.49938291182
-3.52578309932
-3.55145098777
-3.57645791172
-3.60085596187
-3.62469654876
-3.64802777228
-3.6708944229
-3.69333774304
-3.71539514005
-3.73710009726
-3.75848331331
-3.77957340307
-3.80039622524
-3.82097449034
-3.84132790761
-3.86147375776
-3.88142758988
-3.90120341286
-3.92081348787
-3.94026827516
-3.95957663678
-3.97874565503
-3.99778025264
-4.01668365571
-4.03545792993
-4.05410459089
-4.0726236617
-4.0910127911
-4.10926737708
-4.12738158583
-4.14534770143
-4.1631565578
-4.18079825616
-4.19826086308
-4.21552880163
-4.23258343312
-4.24940569632
-4.26597430263
-4.28226383881
-4.29824517961
-4.31388531733
-4.32914924888
-4.34399780803
-4.35838551671
-4.372261949
-4.38557142075
-4.39825004741
-4.4102308782
-4.42143601928
-4.43178161047
-4.44117091522
-4.44950001759
-4.45665195311
-4.46249731671
-4.46689339412
-4.46968135321
-4.47068634162
-4.46971500992
-4.46655464489
-4.46096980245
-4.45269995154
-4.4414611567
-4.42693935834
-4.40878720379
-4.38662882863
-4.36004732429
-4.32859325331
-4.29177144881
-4.24904909717
-4.19984231695
-4.14352526348
-4.07942471702
-4.0068151441
-3.92493987577
-3.83298917409
-3.73012401942
-3.61548832
-3.48821498895
-3.34745934512
-3.1924221294
-3.02240573034
-2.83686727716
-2.63549281579
-2.41830704182
-2.18580372649
-1.93911231201
-1.68020501439
-1.41214817293
-1.13938747432
-0.868085819986
-0.606408258368
-0.364894440588
-0.156471000768
0.00228211740578
0.0957836962775
0.13726179652
26.9585327903
23.049030494
20.1512525478
17.8306013066
15.8877014553
14.2192235383
12.7631045467
11.4779756263
10.3344899567
9.31069609024
8.3895005335
7.55721104448
6.80262753064
6.1164385624
5.49079951226
4.91903853626
4.39542415347
3.9150037798
3.47346697095
3.06704028533
2.69240558574
2.3466332762
2.02712107483
1.73155642286
1.45786841502
1.20420381248
0.968895207667
0.750437108189
0.547470272625
0.358759484378
0.183185592273
0.0197254665283
-0.1325521145
-0.274502748231
-0.40690922692
-0.530491110485
-0.645909534983
-0.753774287252
-0.854649422986
-0.94905507092
-1.03747195235
-1.12034647877
-1.19808934664
-1.27108043171
-1.33967476131
-1.40421436813
-1.4650081997
-1.52233078058
-1.5764693501
-1.62764660762
-1.67609540663
-1.72202374766
-1.7656226502
-1.80707573341
-1.84655457442
-1.88423216981
-1.92022985115
-1.95468921046
-1.98773319655
-2.0194823485
-2.05004492246
-2.07951801577
-2.10799286505
-2.13555546127
-2.16228251912
-2.18824576279
-2.21351300719
-2.23814632046
-2.26220102643
-2.28572781638
-2.308773689
-2.3313816371
-2.35359074353
-2.37543627059
-2.39695039371
-2.4181629633
-2.43910109695
-2.4597887297
-2.48024682425
-2.50049403255
-2.52054709481
-2.5404208952
-2.56012857577
-2.57968161253
-2.59908981021
-2.61836109996
-2.63750137904
-2.65651518275
-2.67540579339
-2.69417551836
-2.712825357
-2.73135440467
-2.74975950702
-2.76803622947
-2.78617860584
-2.80417940759
-2.82203039316
-2.83972122008
-2.85723868716
-2.87456711752
-2.89169024446
-2.90858959051
-2.92524288977
-2.94162498406
-2.95770724496
-2.97345892248
-2.98884578495
-3.00382805788
-3.01836129619
-3.03239684132
-3.04587858548
-3.0587479742
-3.07093596234
-3.0823688718
-3.09296211002
-3.10262408173
-3.11125222535
-3.11873293002
-3.12494075012
-3.1297363337
-3.13296635677
-3.1344616195
-3.13403612101
-3.13148442682
-3.12657918966
-3.11907286843
-3.10869315747
-3.09513824575
-3.07808359272
-3.05717037989
-3.0320125747
-3.00218657436
-2.9672408152
-2.9266815088
-2.87998281962
-2.8265870245
-2.76589476547
-2.69729168011
-2.62013105437
-2.53375354841
-2.43750617215
-2.33074969055
-2.2128956682
-2.08343131618
-1.94197390638