/*--------------------------------*- C++ -*----------------------------------*\
| =========                 |                                                 |
| \\      /  F ield         | OpenFOAM: The Open Source CFD Toolbox           |
|  \\    /   O peration     | Version:  2106                                  |
|   \\  /    A nd           | Website:  www.openfoam.com                      |
|    \\/     M anipulation  |                                                 |
\*---------------------------------------------------------------------------*/
FoamFile
{
    version     2.0;
    format      ascii;
    arch        "LSB;label=32;scalar=64";
    class       surfaceScalarField;
    location    "0.005";
    object      phi;
}
// * * * * * * * * * * * * * * * * * * * * * * * * * * * * * * * * * * * * * //

dimensions      [0 3 -1 0 0 0 0];

oriented        oriented;

internalField   nonuniform List<scalar> 
22100
(
3.40026634506e-05
1.59973368848e-05
2.33154482584e-05
1.06872147502e-05
1.81445130408e-05
5.17093601729e-06
1.5720836792e-05
2.42367662384e-06
1.45870778011e-05
1.13375990184e-06
1.40329291289e-05
5.54149491025e-07
1.37438633064e-05
2.89065936494e-07
1.35832318488e-05
1.60632562527e-07
1.34894121316e-05
9.38202441578e-08
1.34328389407e-05
5.6573072187e-08
1.3398108779e-05
3.47292014335e-08
1.3376577206e-05
2.15296727183e-08
1.33631625282e-05
1.34144314352e-08
1.33547898016e-05
8.37406603414e-09
1.33495630242e-05
5.22712683053e-09
1.33462968207e-05
3.2659635941e-09
1.33442440282e-05
2.05233464707e-09
1.33429263055e-05
1.31689964772e-09
1.33421157519e-05
8.10238150206e-10
1.33416415194e-05
4.74594000279e-10
1.33413500105e-05
2.91892475337e-10
1.33411677223e-05
1.82104069788e-10
1.33410588558e-05
1.08351309375e-10
1.33409969348e-05
6.14731829101e-11
1.33409617096e-05
3.46858944075e-11
1.33409356152e-05
2.5553583029e-11
1.33409124074e-05
2.31831248814e-11
1.33408951685e-05
1.75534355739e-11
1.33408863186e-05
8.78661714827e-12
1.33408813853e-05
4.51207717453e-12
1.33408732566e-05
7.87929299719e-12
1.33408599879e-05
1.32815990376e-11
1.33408467408e-05
1.32530021255e-11
1.33408386744e-05
7.95513941144e-12
1.33408341643e-05
4.36839647533e-12
1.33408274383e-05
6.59828211464e-12
1.33408168937e-05
1.04321229542e-11
1.33408081791e-05
8.6989328344e-12
1.33408062261e-05
2.08780812645e-12
1.33408066199e-05
-2.04568862577e-13
1.33408007191e-05
6.02087980711e-12
1.3340787671e-05
1.30555013739e-11
1.33407750129e-05
1.25396770821e-11
1.33407677739e-05
7.03923165876e-12
1.33407618562e-05
5.81393318218e-12
1.33407495226e-05
1.24955986399e-11
1.33407289546e-05
2.09043940793e-11
1.33407056173e-05
2.35267530228e-11
1.33406834866e-05
2.19908839783e-11
1.33406588779e-05
2.4337980119e-11
1.33406255875e-05
3.32173419515e-11
1.33405831808e-05
4.25680555261e-11
1.33405364335e-05
4.68938121171e-11
1.33404878221e-05
4.85958625812e-11
1.33404339232e-05
5.38548737731e-11
1.33403698115e-05
6.42331411271e-11
1.33402959105e-05
7.4197174958e-11
1.3340220429e-05
7.57642127715e-11
1.33401572391e-05
6.3245386273e-11
1.33401255621e-05
3.14931624089e-11
1.33401445491e-05
-1.91834734544e-11
1.33402500857e-05
-1.05552989288e-10
1.33405079563e-05
-2.57770438934e-10
1.3341030355e-05
-5.22383962257e-10
1.33419874144e-05
-9.57289709392e-10
1.33436335902e-05
-1.64671389634e-09
1.33463355946e-05
-2.70272306523e-09
1.33505320263e-05
-4.19697083491e-09
1.33578223955e-05
-7.29044589727e-09
1.33697823184e-05
-1.19596725428e-08
1.3389195918e-05
-1.94132628287e-08
1.34206173403e-05
-3.14209456075e-08
1.34716661963e-05
-5.10483866825e-08
1.35551768582e-05
-8.35104878698e-08
1.36923702286e-05
-1.37193123986e-07
1.39320620479e-05
-2.39691528344e-07
1.43917235343e-05
-4.59661555461e-07
1.54236266654e-05
-1.03190294207e-06
1.84219391418e-05
-2.99831225423e-06
-1.11539389773e-05
2.95758785765e-05
5.06966838894e-05
1.53006523397e-05
4.62006434974e-05
1.51832547952e-05
4.18103485144e-05
9.56122913305e-06
3.88564619972e-05
5.37756132454e-06
3.70834479125e-05
2.90677285401e-06
3.60581704081e-05
1.57942535793e-06
3.54625051902e-05
8.84730756166e-07
3.51094780906e-05
5.13657297855e-07
3.48957848068e-05
3.07513070961e-07
3.47641583677e-05
1.8820159012e-07
3.46820402161e-05
1.16848755405e-07
3.46303604633e-05
7.3209884031e-08
3.45976506343e-05
4.61228198426e-08
3.45768743266e-05
2.91486129582e-08
3.45636512352e-05
1.84498178748e-08
3.45552262043e-05
1.16916662851e-08
3.45498628015e-05
7.41596280559e-09
3.45464897236e-05
4.68982689986e-09
3.45443695838e-05
2.9304189498e-09
3.45430207354e-05
1.82312327414e-09
3.45421665001e-05
1.14508701608e-09
3.45416293929e-05
7.18400642783e-10
3.45413097522e-05
4.27882070891e-10
3.4541129792e-05
2.4130065354e-10
3.45410099704e-05
1.54201490213e-10
3.45409287518e-05
1.06907159019e-10
3.45408723313e-05
7.99839992284e-11
3.4540834541e-05
5.52180174753e-11
3.45408127739e-05
3.00239149801e-11
3.45408005372e-05
1.64357778827e-11
3.45407897837e-05
1.86993792508e-11
3.45407771219e-05
2.61713834645e-11
3.45407653605e-05
2.5265511113e-11
3.45407580496e-05
1.55269228134e-11
3.45407540556e-05
8.58294670165e-12
3.45407490438e-05
1.17456224904e-11
3.45407415914e-05
1.8003240184e-11
3.45407356448e-05
1.48055301445e-11
3.45407345392e-05
3.33199181478e-12
3.45407345389e-05
-1.62743268803e-13
3.45407286785e-05
1.17923746375e-11
3.45407157199e-05
2.57674938377e-11
3.45407009128e-05
2.70242812327e-11
3.45406881483e-05
1.96753418589e-11
3.45406745331e-05
1.97044948538e-11
3.45406537816e-05
3.37465147902e-11
3.45406235081e-05
5.14368391231e-11
3.45405873637e-05
5.94651978201e-11
3.45405487263e-05
6.02654188039e-11
3.45405055243e-05
6.74742655862e-11
3.45404535082e-05
8.54843567056e-11
3.45403926689e-05
1.03609126097e-10
3.45403275416e-05
1.11997766092e-10
3.45402620461e-05
1.14087078246e-10
3.454019702e-05
1.19179351431e-10
3.45401342137e-05
1.27566298379e-10
3.45400829851e-05
1.25784601871e-10
3.45400646059e-05
9.40097862671e-11
3.45401155767e-05
1.1806058302e-11
3.45403006835e-05
-1.53871645762e-10
3.45407292291e-05
-4.47521922314e-10
3.45415455484e-05
-9.21620881019e-10
3.45428542453e-05
-1.5667339473e-09
3.45449852735e-05
-2.6541953492e-09
3.45484274463e-05
-4.40020408033e-09
3.45539324277e-05
-7.15183820235e-09
3.45626918347e-05
-1.14616535838e-08
3.45766984496e-05
-1.82032019976e-08
3.45983389537e-05
-2.89315957901e-08
3.4632539153e-05
-4.61614303402e-08
3.46867090342e-05
-7.35841715815e-08
3.47722560346e-05
-1.16967848554e-07
3.49081931732e-05
-1.86985415479e-07
3.5126731402e-05
-3.02048940491e-07
3.54861376229e-05
-4.96599427379e-07
3.60899349267e-05
-8.43488560363e-07
3.71373777521e-05
-1.50710341802e-06
3.90145456766e-05
-2.90907048214e-06
4.23375921379e-05
-6.32135831464e-06
-1.4702907857e-05
4.58865606671e-05
5.38910084093e-05
1.14096417239e-05
5.45379230167e-05
1.45363391978e-05
5.31612670269e-05
1.0937884755e-05
5.15372853976e-05
7.00154372307e-06
5.0250669748e-05
4.19338928736e-06
4.93633865743e-05
2.46670897713e-06
4.87853388122e-05
1.46277854677e-06
4.84165875615e-05
8.82407432811e-07
4.81826195041e-05
5.41479353512e-07
4.80340087787e-05
3.36810631141e-07
4.79393261061e-05
2.11531358284e-07
4.78788201775e-05
1.33716697742e-07
4.78400635819e-05
8.48794022596e-08
4.78152007334e-05
5.40113859094e-08
4.77992396481e-05
3.44108275604e-08
4.77889947739e-05
2.19361880569e-08
4.77824235647e-05
1.39865795898e-08
4.77782092553e-05
8.90434729442e-09
4.77754983393e-05
5.64167054356e-09
4.77737576919e-05
3.56347425108e-09
4.77726426109e-05
2.2599559862e-09
4.77719272109e-05
1.43406744702e-09
4.77714576424e-05
8.97800640246e-10
4.77711491057e-05
5.50192783268e-10
4.7770984434e-05
3.19396283391e-10
4.77708836803e-05
2.08148047448e-10
4.77708153441e-05
1.48493035909e-10
4.7770771072e-05
9.93866122666e-11
4.7770742961e-05
5.8070083213e-11
4.77707250839e-05
3.45423318539e-11
4.77707127218e-05
3.1499770721e-11
4.77707030304e-05
3.6235132061e-11
4.77706947371e-05
3.37680286438e-11
4.77706877245e-05
2.27128829297e-11
4.77706818957e-05
1.46409288711e-11
4.77706765517e-05
1.72951560447e-11
4.77706711631e-05
2.34580086413e-11
4.77706657593e-05
2.01440410506e-11
4.77706601518e-05
8.83042154307e-12
4.77706535077e-05
6.33877940256e-12
4.77706447501e-05
2.03025224744e-11
4.77706330499e-05
3.71416801046e-11
4.7770618208e-05
4.16763518011e-11
4.7770600499e-05
3.75465184112e-11
4.77705797483e-05
4.0898202294e-11
4.77705547044e-05
5.91360100284e-11
4.7770523462e-05
8.2612075658e-11
4.77704857262e-05
9.68497860715e-11
4.77704420319e-05
1.03762228458e-10
4.77703927102e-05
1.16956741589e-10
4.77703377311e-05
1.4073691941e-10
4.77702774241e-05
1.63988001013e-10
4.77702134281e-05
1.7586847278e-10
4.77701493207e-05
1.78113943143e-10
4.77700911534e-05
1.77489809978e-10
4.77700489266e-05
1.70101972846e-10
4.77700397852e-05
1.35141448185e-10
4.77700924357e-05
4.12840290682e-11
4.77702543784e-05
-1.50370230064e-10
4.77706203232e-05
-5.19896338199e-10
4.77712236944e-05
-1.05073749845e-09
4.77721731635e-05
-1.87093544654e-09
4.77738323141e-05
-3.22603844392e-09
4.7776577088e-05
-5.39957902442e-09
4.77810039932e-05
-8.82801381785e-09
4.77880439045e-05
-1.41924560338e-08
4.77991531154e-05
-2.25709271257e-08
4.78166185383e-05
-3.56682464817e-08
4.78438998333e-05
-5.62126622847e-08
4.78863040329e-05
-8.8565490623e-08
4.79522671053e-05
-1.39546833477e-07
4.80551822761e-05
-2.19882620996e-07
4.82161430017e-05
-3.47945813662e-07
4.84689026302e-05
-5.54808403753e-07
4.8867568805e-05
-8.95265963369e-07
4.94956205879e-05
-1.47154029426e-06
5.04708912036e-05
-2.48237436355e-06
5.18943531475e-05
-4.33253286249e-06
5.34811233468e-05
-7.9081285565e-06
-1.45698534759e-05
5.33480686605e-05
5.35840253426e-05
7.82561682526e-06
5.61374749673e-05
1.19828884547e-05
5.68201330171e-05
1.02552247906e-05
5.65764213322e-05
7.24525478175e-06
5.60679062975e-05
4.70190374791e-06
5.55860490384e-05
2.94856576499e-06
5.52143028238e-05
1.83452631602e-06
5.4951437558e-05
1.14527419334e-06
5.47732057008e-05
7.19711381965e-07
5.46548852176e-05
4.55130551614e-07
5.45771912021e-05
2.89225151159e-07
5.45264755874e-05
1.84432244427e-07
5.44934838221e-05
1.17871310252e-07
5.44720670479e-05
7.54286175073e-08
5.44581840738e-05
4.82935046115e-08
5.44491976497e-05
3.09218333404e-08
5.4443388811e-05
1.97952336777e-08
5.44396353751e-05
1.26579230187e-08
5.44372080746e-05
8.06897241851e-09
5.44356412207e-05
5.13044609477e-09
5.44346366433e-05
3.26472100566e-09
5.44339955796e-05
2.07511594668e-09
5.44335852166e-05
1.30807352286e-09
5.44333190355e-05
8.16312451144e-10
5.44331255988e-05
5.1274740087e-10
5.44330000641e-05
3.33600868194e-10
5.44329232186e-05
2.2503627776e-10
5.44328658806e-05
1.56036757408e-10
5.4432830405e-05
9.28203065759e-11
5.44328073545e-05
5.71766025494e-11
5.4432793665e-05
4.49693490862e-11
5.44327864804e-05
4.32053034474e-11
5.44327816924e-05
3.84897841797e-11
5.44327761708e-05
2.85059609961e-11
5.4432769829e-05
2.13886187464e-11
5.44327642204e-05
2.30628340235e-11
5.44327596324e-05
2.7902615344e-11
5.4432753526e-05
2.60356615603e-11
5.443274334e-05
1.88366079157e-11
5.44327303811e-05
1.90598216537e-11
5.44327178084e-05
3.25554300654e-11
5.44327053645e-05
4.93504585672e-11
5.44326892728e-05
5.78087178336e-11
5.44326669832e-05
6.0143288918e-11
5.44326395985e-05
6.85951504624e-11
5.44326093946e-05
8.93591722929e-11
5.44325765068e-05
1.15221256251e-10
5.44325377365e-05
1.35368071664e-10
5.44324908952e-05
1.50644421294e-10
5.44324375149e-05
1.70566070726e-10
5.44323802657e-05
1.98116568e-10
5.44323194172e-05
2.24766585178e-10
5.44322539354e-05
2.41204098232e-10
5.44321856817e-05
2.46293430448e-10
5.44321211385e-05
2.42075163943e-10
5.44320691333e-05
2.22192898677e-10
5.44320380463e-05
1.66255453355e-10
5.44320369046e-05
4.24121749593e-11
5.44320722553e-05
-1.85675331107e-10
5.44322145516e-05
-6.62114395777e-10
5.44326720197e-05
-1.50822168598e-09
5.44335714938e-05
-2.77051392776e-09
5.44350993648e-05
-4.75399071477e-09
5.44375907271e-05
-7.89104036253e-09
5.44415753365e-05
-1.28129204261e-08
5.44478741255e-05
-2.04917513534e-08
5.44577492962e-05
-3.24466644979e-08
5.4473134155e-05
-5.10536179444e-08
5.44969642097e-05
-8.00428488176e-08
5.45336233505e-05
-1.25224252754e-07
5.45897792605e-05
-1.95702697817e-07
5.46757690359e-05
-3.05872932065e-07
5.48068239677e-05
-4.79001013483e-07
5.50049190571e-05
-7.52903698222e-07
5.52996702287e-05
-1.19001712718e-06
5.57236771242e-05
-1.89554711567e-06
5.62888710165e-05
-3.04756824562e-06
5.6899723634e-05
-4.94338521848e-06
5.70688906087e-05
-8.07729576166e-06
-1.29544543226e-05
5.54534915757e-05
5.257769756e-05
5.24792001052e-06
5.53714428212e-05
9.18914229903e-06
5.69774454383e-05
8.64922275308e-06
5.76313068315e-05
6.59139315001e-06
5.77772007682e-05
4.55600954952e-06
5.77180493267e-05
3.00771604241e-06
5.76052796717e-05
1.94729463754e-06
5.74983735544e-05
1.25217989897e-06
5.74141176976e-05
8.03967092732e-07
5.73529121657e-05
5.16335796924e-07
5.73103091687e-05
3.31828164009e-07
5.72813730121e-05
2.13368129639e-07
5.72620125223e-05
1.37231995703e-07
5.72491803561e-05
8.82607737932e-08
5.72407261467e-05
5.67474186029e-08
5.72351809405e-05
3.64668177917e-08
5.7231556812e-05
2.34193015514e-08
5.72291911413e-05
1.50233885168e-08
5.7227643581e-05
9.61599974722e-09
5.72266303055e-05
6.14310070423e-09
5.7225970745e-05
3.92385625002e-09
5.72255411608e-05
2.5045172253e-09
5.72252540228e-05
1.59500597488e-09
5.72250569142e-05
1.0131281182e-09
5.72249255268e-05
6.44111215642e-10
5.72248454343e-05
4.13951847963e-10
5.72248000686e-05
2.70650934655e-10
5.72247809819e-05
1.75477720224e-10
5.72247668004e-05
1.0769132098e-10
5.72247605503e-05
6.4164337559e-11
5.72247543952e-05
5.14390505522e-11
5.72247513918e-05
4.61871165733e-11
5.72247493865e-05
4.06310591287e-11
5.72247454044e-05
3.28536814766e-11
5.72247394201e-05
2.75344267538e-11
5.72247334077e-05
2.8832522597e-11
5.72247281578e-05
3.27736132011e-11
5.72247209137e-05
3.29880159148e-11
5.7224708866e-05
3.06095789708e-11
5.72246935947e-05
3.40048983905e-11
5.72246788921e-05
4.70069910665e-11
5.72246648861e-05
6.33360815223e-11
5.72246477205e-05
7.5169219558e-11
5.72246246225e-05
8.34525768478e-11
5.72245974026e-05
9.58132995656e-11
5.72245712596e-05
1.15250047673e-10
5.72245380247e-05
1.48180385411e-10
5.72244991784e-05
1.74163530972e-10
5.72244533195e-05
1.96654777416e-10
5.72244007513e-05
2.23253261036e-10
5.72243428111e-05
2.55997038572e-10
5.72242793971e-05
2.87998369761e-10
5.72242093926e-05
3.1104131401e-10
5.72241338032e-05
3.21826544625e-10
5.72240574659e-05
3.18444004755e-10
5.72239892308e-05
2.90417226553e-10
5.72239497882e-05
2.05607801627e-10
5.72239732517e-05
1.89482372385e-11
5.72240305969e-05
-2.42827102871e-10
5.72241372137e-05
-7.68567776004e-10
5.72244039741e-05
-1.77516275803e-09
5.72249135155e-05
-3.28056019336e-09
5.72258221259e-05
-5.66309554919e-09
5.72273482742e-05
-9.41741741105e-09
5.72298247688e-05
-1.52893534882e-08
5.72337601925e-05
-2.44269789257e-08
5.72399209071e-05
-3.86073987549e-08
5.724944761e-05
-6.05805783059e-08
5.72640120277e-05
-9.46071893531e-08
5.72860483261e-05
-1.47260273298e-07
5.73190422207e-05
-2.28696840932e-07
5.73678404441e-05
-3.54671590465e-07
5.74385756661e-05
-5.49736434396e-07
5.75377216642e-05
-8.52049228848e-07
5.76684105909e-05
-1.32070528997e-06
5.78193162893e-05
-2.04645243506e-06
5.7936201436e-05
-3.16445279462e-06
5.78552307605e-05
-4.8624137532e-06
5.71539161158e-05
-7.37598107846e-06
-1.08306690408e-05
5.50301309557e-05
5.1738758128e-05
3.50916039336e-06
5.41936193972e-05
6.73428010467e-06
5.60564493338e-05
6.78639228131e-06
5.71740518021e-05
5.47378980405e-06
5.77591377606e-05
3.97092450241e-06
5.80380458705e-05
2.72880697561e-06
5.81614561797e-05
1.8238830975e-06
5.82118864678e-05
1.20174938434e-06
5.82300774301e-05
7.85776288514e-07
5.8234906321e-05
5.11505939847e-07
5.82347087323e-05
3.32025263667e-07
5.8232981686e-05
2.15094641604e-07
5.82310847169e-05
1.39128914247e-07
5.82294693959e-05
8.98762862022e-08
5.82282241072e-05
5.79924386231e-08
5.82273125778e-05
3.73779495303e-08
5.82266664474e-05
2.40651503087e-08
5.82262155132e-05
1.54739627217e-08
5.82258995937e-05
9.93179301681e-09
5.82256786094e-05
6.36456872765e-09
5.82255275234e-05
4.07576214709e-09
5.82254254313e-05
2.60729159067e-09
5.82253563303e-05
1.66458325049e-09
5.8225309889e-05
1.06001453278e-09
5.82252808303e-05
6.73488382096e-10
5.82252668363e-05
4.27871496263e-10
5.82252619635e-05
2.752382128e-10
5.82252585546e-05
1.78896349434e-10
5.82252505685e-05
1.1604752096e-10
5.82252368084e-05
7.82074567502e-11
5.82252296788e-05
5.85861668478e-11
5.82252270979e-05
4.89020294454e-11
5.82252256093e-05
4.25758760171e-11
5.82252212702e-05
3.75789126583e-11
5.82252152274e-05
3.35436129585e-11
5.82252090744e-05
3.47236151731e-11
5.82252032089e-05
3.84500033057e-11
5.82251951048e-05
4.09481524476e-11
5.8225181928e-05
4.3555387738e-11
5.82251656223e-05
5.00612110342e-11
5.82251503716e-05
6.21453496826e-11
5.82251361395e-05
7.76018923317e-11
5.82251189412e-05
9.23994955408e-11
5.82250955229e-05
1.06750119229e-10
5.82250661671e-05
1.24887107016e-10
5.82250314665e-05
1.49663397952e-10
5.82250002475e-05
1.79272974053e-10
5.822496492e-05
2.09517235593e-10
5.82249217709e-05
2.39834500874e-10
5.82248721231e-05
2.72840240513e-10
5.82248186842e-05
3.09294394348e-10
5.82247612282e-05
3.45265659193e-10
5.82246974956e-05
3.74594257317e-10
5.8224627076e-05
3.92159790938e-10
5.82245528573e-05
3.92659122944e-10
5.82244774963e-05
3.6574374246e-10
5.82243891683e-05
2.93855695412e-10
5.82242463109e-05
1.61796263246e-10
5.82241223009e-05
-1.18740620882e-10
5.82241030824e-05
-7.49352327672e-10
5.82240640063e-05
-1.73629303258e-09
5.82240882588e-05
-3.30516191948e-09
5.82242131799e-05
-5.78841468432e-09
5.8224486465e-05
-9.69103678786e-09
5.82249804237e-05
-1.57833158301e-08
5.82258001287e-05
-2.52463446033e-08
5.8227085165e-05
-3.98922236172e-08
5.82290001468e-05
-6.24956154274e-08
5.8231705152e-05
-9.7312351974e-08
5.82352842018e-05
-1.50839663874e-07
5.8239552685e-05
-2.32965442553e-07
5.82435769294e-05
-3.58695744218e-07
5.82445218036e-05
-5.50681186762e-07
5.82351379885e-05
-8.42664730377e-07
5.81983409329e-05
-1.28390849172e-06
5.80958432822e-05
-1.94395508523e-06
5.78461928566e-05
-2.91480265505e-06
5.72865199401e-05
-4.30274001462e-06
5.61123559496e-05
-6.20181732469e-06
-8.59601317601e-06
5.38777002001e-05
5.12029385752e-05
2.3062227704e-06
5.32476220603e-05
4.68959544206e-06
5.50829780102e-05
4.95103625681e-06
5.63978091149e-05
4.15895802456e-06
5.72428825474e-05
3.12585020953e-06
5.77583959387e-05
2.21329341452e-06
5.80667138325e-05
1.51556515596e-06
5.82507867372e-05
1.01767585737e-06
5.83614504786e-05
6.75112974246e-07
5.84286608512e-05
4.44295504601e-07
5.84699079969e-05
2.90777987315e-07
5.84954571218e-05
1.89545851533e-07
5.85114024349e-05
1.23183665971e-07
5.85214121888e-05
7.98659868047e-08
5.85277213176e-05
5.16830919889e-08
5.85317088327e-05
3.33908944246e-08
5.85342338924e-05
2.15405957101e-08
5.85358336271e-05
1.38744406481e-08
5.85368440061e-05
8.92158117719e-09
5.85374804436e-05
5.72814003424e-09
5.85378826587e-05
3.67326620691e-09
5.85381371636e-05
2.3524833388e-09
5.85382975596e-05
1.5040148632e-09
5.85383980491e-05
9.59385910953e-10
5.85384601938e-05
6.1110122129e-10
5.8538497631e-05
3.90130049638e-10
5.85385209369e-05
2.5180248003e-10
5.85385337841e-05
1.66149652838e-10
5.85385395542e-05
1.10289550545e-10
5.85385430743e-05
7.43982477869e-11
5.85385462244e-05
5.51579911811e-11
5.85385491226e-05
4.60995932327e-11
5.85385510523e-05
4.0917768555e-11
5.85385514892e-05
3.71677558876e-11
5.85385489454e-05
3.58725658225e-11
5.8538545114e-05
3.83939677961e-11
5.85385407332e-05
4.27931759227e-11
5.85385343534e-05
4.72706917315e-11
5.85385252222e-05
5.25828685289e-11
5.85385139116e-05
6.13226103773e-11
5.85385012931e-05
7.47691726655e-11
5.85384875371e-05
9.12738293454e-11
5.85384712876e-05
1.08368014078e-10
5.85384511556e-05
1.2647120861e-10
5.85384270682e-05
1.48620472146e-10
5.85383998135e-05
1.76739213651e-10
5.85383700562e-05
2.08952724652e-10
5.85383379819e-05
2.41458035236e-10
5.85383001097e-05
2.77491867841e-10
5.85382559405e-05
3.16825774467e-10
5.85382054691e-05
3.59660546397e-10
5.85381475359e-05
4.03093863736e-10
5.85380798066e-05
4.42164569215e-10
5.8537999824e-05
4.71962578945e-10
5.85379056206e-05
4.86721112408e-10
5.85377959022e-05
4.75427510742e-10
5.85376719532e-05
4.17888298789e-10
5.85375459898e-05
2.87785721305e-10
5.85373495963e-05
7.73735274991e-11
5.85370611205e-05
-4.61409393975e-10
5.85366773063e-05
-1.35285369243e-09
5.85361536607e-05
-2.7815053899e-09
5.85354177976e-05
-5.05244524806e-09
5.85343403307e-05
-8.61358393267e-09
5.85327220992e-05
-1.41649857521e-08
5.85302530695e-05
-2.27769981074e-08
5.8526435954e-05
-3.60746313946e-08
5.85204562024e-05
-5.6515284904e-08
5.85109846436e-05
-8.7840632161e-08
5.84958457585e-05
-1.35700898161e-07
5.84714501598e-05
-2.08569472337e-07
5.8431802611e-05
-3.19047864297e-07
5.83667482065e-05
-4.8562633198e-07
5.82589144838e-05
-7.3483093108e-07
5.80784298005e-05
-1.1034237949e-06
5.77740780774e-05
-1.63960307526e-06
5.72597662935e-05
-2.40049184422e-06
5.63974925087e-05
-3.4404666124e-06
5.49821664038e-05
-4.78649164341e-06
-6.38559032502e-06
5.27717438917e-05
5.08977396e-05
1.4084828854e-06
5.26253888658e-05
2.9619459388e-06
5.43556633128e-05
3.22076305393e-06
5.57351724746e-05
2.77944755349e-06
5.67211880958e-05
2.13983416239e-06
5.7387798912e-05
1.54668267883e-06
5.78261757393e-05
1.0771881477e-06
5.81107438915e-05
7.33107209728e-07
5.8294417958e-05
4.9143898027e-07
5.84126979792e-05
3.2601625125e-07
5.84888059863e-05
2.14670530284e-07
5.85377675138e-05
1.40584503286e-07
5.85692621489e-05
9.16892761633e-08
5.85895190831e-05
5.96092911574e-08
5.86025449692e-05
3.86571167177e-08
5.86109164262e-05
2.50189487535e-08
5.86162936818e-05
1.61627061694e-08
5.86197449422e-05
1.0422775484e-08
5.86219561749e-05
6.71008089275e-09
5.8623370729e-05
4.31338137113e-09
5.86242753974e-05
2.7688110972e-09
5.86248535731e-05
1.77495799806e-09
5.86252219838e-05
1.13628562356e-09
5.86254553446e-05
7.26462828307e-10
5.86256026683e-05
4.63995866083e-10
5.86256957761e-05
2.97245126153e-10
5.86257550315e-05
1.92937411953e-10
5.86257938451e-05
1.27735769782e-10
5.8625818693e-05
8.55536074677e-11
5.8625833527e-05
5.94107298181e-11
5.8625842501e-05
4.60933669562e-11
5.86258484417e-05
4.02536234253e-11
5.86258516412e-05
3.77893541518e-11
5.86258516011e-05
3.71467075443e-11
5.86258490937e-05
3.83392452272e-11
5.86258458166e-05
4.17396330693e-11
5.86258416962e-05
4.69778539965e-11
5.86258355016e-05
5.34482821905e-11
5.86258268821e-05
6.11782842052e-11
5.8625816919e-05
7.12876271488e-11
5.86258066262e-05
8.49592380552e-11
5.86257957515e-05
1.01808615392e-10
5.86257830317e-05
1.20576148725e-10
5.86257675924e-05
1.41452634209e-10
5.86257497581e-05
1.66201338077e-10
5.86257302961e-05
1.96065359756e-10
5.86257083723e-05
2.3064619383e-10
5.862568108e-05
2.68359405911e-10
5.86256488851e-05
3.09298193653e-10
5.862561125e-05
3.54246037533e-10
5.8625567432e-05
4.03419081722e-10
5.86255156442e-05
4.54837943508e-10
5.86254528375e-05
5.04829714938e-10
5.86253749968e-05
5.49540598955e-10
5.86252772231e-05
5.84234662857e-10
5.86251526115e-05
5.9999208872e-10
5.86249896586e-05
5.81027532465e-10
5.86247735255e-05
5.0402124856e-10
5.86245147924e-05
3.35816464754e-10
5.86240216467e-05
3.12258090365e-11
5.86233516426e-05
-6.83101334458e-10
5.86223549393e-05
-1.78471689346e-09
5.8620850643e-05
-3.54805902429e-09
5.86185564881e-05
-6.31941138212e-09
5.861503389e-05
-1.06423219827e-08
5.86096068126e-05
-1.734970973e-08
5.86012181313e-05
-2.76853064935e-08
5.85882037177e-05
-4.35001412271e-08
5.85679640429e-05
-6.76009142591e-08
5.85364424289e-05
-1.0417946462e-07
5.84873065875e-05
-1.5943383105e-07
5.84106714021e-05
-2.42412824888e-07
5.82911160259e-05
-3.6607118354e-07
5.81046862237e-05
-5.48401318968e-07
5.78145154748e-05
-8.13253588602e-07
5.73648770188e-05
-1.1899634855e-06
5.66743493629e-05
-1.70996442634e-06
5.56312830105e-05
-2.39740057103e-06
5.40976688667e-05
-3.2528780535e-06
-4.22827470408e-06
5.19403528403e-05
5.07381409908e-05
6.70342688495e-07
5.22662262616e-05
1.43385909527e-06
5.39024022604e-05
1.58458701903e-06
5.52932652668e-05
1.38858387575e-06
5.63491017997e-05
1.08399787453e-06
5.71027659454e-05
7.93018302461e-07
5.76221006772e-05
5.57853019851e-07
5.7972485965e-05
3.82722363654e-07
5.82057455872e-05
2.58179473929e-07
5.83596516061e-05
1.72110338476e-07
5.84605696662e-05
1.13752834965e-07
5.85264458021e-05
7.47089500784e-08
5.85693018832e-05
4.88334319269e-08
5.85971092167e-05
3.18018072044e-08
5.8615115119e-05
2.06510567579e-08
5.86267535049e-05
1.33806874731e-08
5.86342644422e-05
8.65219418659e-09
5.86391046351e-05
5.58314651865e-09
5.86422186061e-05
3.59651926175e-09
5.86442189968e-05
2.31321613984e-09
5.86455025674e-05
1.48533384768e-09
5.86463251606e-05
9.52219480718e-10
5.86468509963e-05
6.10026965505e-10
5.86471863568e-05
3.90501019512e-10
5.86473999089e-05
2.49838334496e-10
5.86475359091e-05
1.60854511082e-10
5.8647623201e-05
1.05595625921e-10
5.86476796648e-05
7.14403684538e-11
5.864771505e-05
5.03107665666e-11
5.86477363509e-05
3.81541203802e-11
5.8647749643e-05
3.28346999347e-11
5.86477581754e-05
3.17473343324e-11
5.86477631328e-05
3.28009338846e-11
5.864776526e-05
3.50120919621e-11
5.86477654211e-05
3.83045850063e-11
5.8647764164e-05
4.32002761367e-11
5.86477614081e-05
4.98822542136e-11
5.86477571197e-05
5.78110099507e-11
5.86477515543e-05
6.67758109093e-11
5.86477449287e-05
7.78237441758e-11
5.8647737393e-05
9.21558453778e-11
5.86477289832e-05
1.09662437072e-10
5.86477194009e-05
1.29610345547e-10
5.86477082592e-05
1.52251230218e-10
5.86476954091e-05
1.7887286302e-10
5.86476806895e-05
2.10542316119e-10
5.86476636736e-05
2.47210848719e-10
5.86476434956e-05
2.87993484004e-10
5.86476194348e-05
3.32947579176e-10
5.86475905356e-05
3.82933210701e-10
5.86475553309e-05
4.38501125574e-10
5.86475114996e-05
4.98530136651e-10
5.86474553897e-05
5.60760638556e-10
5.86473816535e-05
6.23083085991e-10
5.86472829096e-05
6.82817201248e-10
5.8647148598e-05
7.3420939053e-10
5.86469627962e-05
7.66776554583e-10
5.86467019045e-05
7.64836583067e-10
5.86463355855e-05
7.02061864197e-10
5.86458368648e-05
5.30033525421e-10
5.86449177003e-05
2.36303767389e-10
5.86435110853e-05
-3.77973710908e-10
5.86414379324e-05
-1.4748643437e-09
5.86382362065e-05
-3.1174019999e-09
5.8633278004e-05
-5.68367387992e-09
5.86256118094e-05
-9.68308813311e-09
5.86137686714e-05
-1.58417763464e-08
5.85954592356e-05
-2.51906887838e-08
5.85671619649e-05
-3.930367305e-08
5.85234809738e-05
-6.04982777308e-08
5.84561869863e-05
-9.21395689379e-08
5.83528121784e-05
-1.39037363463e-07
5.81946422584e-05
-2.07900870172e-07
5.7953984656e-05
-3.07742731551e-07
5.75907171847e-05
-4.49986824327e-07
5.70485478807e-05
-6.47794827796e-07
5.62523491713e-05
-9.13766586788e-07
5.51098297348e-05
-1.2548811585e-06
5.35221058736e-05
-1.6651538635e-06
-2.11602065617e-06
5.14098511807e-05
5.06703147293e-05
2.82033101445e-11
5.21041775304e-05
-4.95828769251e-12
5.36887834631e-05
-1.73500609201e-11
5.50773760728e-05
-7.56260506163e-12
5.61613747125e-05
-1.45691903867e-12
5.69543891055e-05
3.62493529249e-12
5.75122366858e-05
6.32539059534e-12
5.78949543036e-05
5.44243482605e-12
5.81531286984e-05
4.33429980673e-12
5.83252338237e-05
5.15847964757e-12
5.84389825862e-05
5.07975978088e-12
5.85136869776e-05
5.25466188698e-12
5.85625141994e-05
6.32795317096e-12
5.85943109902e-05
5.17318359721e-12
5.86149584375e-05
3.98163335463e-12
5.86283349938e-05
4.22434684028e-12
5.86369839725e-05
3.02498163381e-12
5.86425660497e-05
9.77551714086e-13
5.86461629642e-05
-1.51488314356e-13
5.86484772852e-05
-5.36163821829e-13
5.86499641244e-05
-9.29718493155e-13
5.86509178642e-05
-1.25872518131e-12
5.86515287035e-05
-9.17343379128e-13
5.86519192235e-05
-3.91263269655e-13
5.86521682818e-05
2.72414508636e-13
5.86523273407e-05
1.36343328943e-12
5.86524293597e-05
3.40059107005e-12
5.86524947118e-05
6.09839978013e-12
5.86525361506e-05
8.87905456173e-12
5.86525622483e-05
1.20457916378e-11
5.86525787191e-05
1.64128044403e-11
5.865258912e-05
2.14162922503e-11
5.86525953647e-05
2.6594760285e-11
5.86525988163e-05
3.1629905971e-11
5.86526003492e-05
3.6917943127e-11
5.86526003256e-05
4.33800691034e-11
5.86525989641e-05
5.13481523778e-11
5.86525965732e-05
6.02586011593e-11
5.86525933148e-05
7.00020079753e-11
5.86525892409e-05
8.16601469291e-11
5.86525845649e-05
9.63531730778e-11
5.86525794918e-05
1.14165085672e-10
5.86525739401e-05
1.34714121861e-10
5.86525676594e-05
1.58272658162e-10
5.86525603695e-05
1.85941022463e-10
5.86525517394e-05
2.1878520448e-10
5.86525414533e-05
2.569322751e-10
5.86525290703e-05
2.9983540077e-10
5.86525139198e-05
3.47741592647e-10
5.86524948229e-05
4.01796898421e-10
5.86524701481e-05
4.62914437423e-10
5.86524375082e-05
5.30861269035e-10
5.86523930227e-05
6.05020559946e-10
5.86523306973e-05
6.85372503803e-10
5.86522416988e-05
7.71908221206e-10
5.86521126409e-05
8.63321376275e-10
5.86519227996e-05
9.56532021895e-10
5.8651640607e-05
1.04687309732e-09
5.86512164097e-05
1.12625780089e-09
5.8650570534e-05
1.17615622928e-09
5.86496392207e-05
1.16778520324e-09
5.86481811404e-05
1.07998546685e-09
5.86458160629e-05
8.90289051332e-10
5.86421009409e-05
5.98306509507e-10
5.86362849291e-05
1.32988186629e-10
5.86272891852e-05
-6.86959839642e-10
5.86135251097e-05
-2.07781464619e-09
5.85922737513e-05
-3.93970998313e-09
5.85595149871e-05
-6.54462458252e-09
5.85091474232e-05
-1.01302016864e-08
5.84319693946e-05
-1.49613493577e-08
5.83142370632e-05
-2.13056919493e-08
5.81357005872e-05
-2.9365129712e-08
5.78670909908e-05
-3.91328844268e-08
5.74672449389e-05
-5.01409513742e-08
5.68805212387e-05
-6.10708270328e-08
5.60360168791e-05
-6.92624956093e-08
5.48515142417e-05
-7.03794364018e-08
5.32456666527e-05
-5.93059599267e-08
-2.99217316925e-08
5.11595674849e-05
5.06703125858e-05
-6.7028301769e-07
5.21041737863e-05
-1.43386704897e-06
5.3688780086e-05
-1.58462364595e-06
5.50773736175e-05
-1.38860131114e-06
5.61613731825e-05
-1.08400069215e-06
5.69543888244e-05
-7.93011342856e-07
5.75122362891e-05