/*--------------------------------*- C++ -*----------------------------------*\
| =========                 |                                                 |
| \\      /  F ield         | OpenFOAM: The Open Source CFD Toolbox           |
|  \\    /   O peration     | Version:  2106                                  |
|   \\  /    A nd           | Website:  www.openfoam.com                      |
|    \\/     M anipulation  |                                                 |
\*---------------------------------------------------------------------------*/
FoamFile
{
    version     2.0;
    format      ascii;
    arch        "LSB;label=32;scalar=64";
    class       volVectorField;
    location    "0.005";
    object      U;
}
// * * * * * * * * * * * * * * * * * * * * * * * * * * * * * * * * * * * * * //

dimensions      [0 1 -1 0 0 0 0];

internalField   nonuniform List<vector> 
11200
(
(0.661816749437 0.150258636585 0)
(0.566864752834 0.0989556422228 0)
(0.410965921715 0.0451225942893 0)
(0.33237574055 0.0189838684628 0)
(0.299991106541 0.00789042434471 0)
(0.28489310185 0.00346251079585 0)
(0.277120236368 0.0016682523349 0)
(0.272925829935 0.000887478635845 0)
(0.27054077951 0.000514081536172 0)
(0.269120391193 0.000317053678239 0)
(0.268253134935 0.000205276996448 0)
(0.267717360904 0.000139273016848 0)
(0.267384257832 9.93113855864e-05 0)
(0.267176571986 7.45169039316e-05 0)
(0.267047056156 5.86404036497e-05 0)
(0.266966295898 4.81023560284e-05 0)
(0.266915801776 4.08267916589e-05 0)
(0.266883914003 3.58723814619e-05 0)
(0.266863926205 3.35868307634e-05 0)
(0.26685198153 3.341205061e-05 0)
(0.266844976827 3.41962680277e-05 0)
(0.266840765686 3.53207323312e-05 0)
(0.266838278622 3.6613647174e-05 0)
(0.266836959151 3.82040763841e-05 0)
(0.266836336642 4.01294155966e-05 0)
(0.26683602642 4.22170404379e-05 0)
(0.266835819577 4.43199969934e-05 0)
(0.266835691054 4.63669622031e-05 0)
(0.266835697729 4.83774531487e-05 0)
(0.266835825217 5.04265214962e-05 0)
(0.26683595595 5.25478301254e-05 0)
(0.266835994682 5.46993986026e-05 0)
(0.266835972224 5.68249691208e-05 0)
(0.266835991877 5.89303713475e-05 0)
(0.266836091771 6.10724831431e-05 0)
(0.266836200564 6.32816488462e-05 0)
(0.266836243452 6.55208473559e-05 0)
(0.266836257399 6.77305714895e-05 0)
(0.266836348312 6.99154192598e-05 0)
(0.266836528207 7.21471110018e-05 0)
(0.26683666886 7.44555440094e-05 0)
(0.266836667149 7.67752741384e-05 0)
(0.266836587812 7.90370107152e-05 0)
(0.266836570208 8.12602718199e-05 0)
(0.266836638023 8.35181676897e-05 0)
(0.266836674781 8.58357758583e-05 0)
(0.266836580742 8.81563342065e-05 0)
(0.266836397662 9.04148613014e-05 0)
(0.266836240484 9.26246779704e-05 0)
(0.266836136377 9.485075026e-05 0)
(0.266836001275 9.7109829933e-05 0)
(0.266835780868 9.93466903318e-05 0)
(0.266835545738 0.00010151423359 0)
(0.266835411716 0.000103631686504 0)
(0.266835414825 0.000105746690018 0)
(0.266835516636 0.000107866754063 0)
(0.266835728758 0.000109941658273 0)
(0.266836211003 0.000111898900252 0)
(0.266837274008 0.000113677302176 0)
(0.266839381509 0.000115231673971 0)
(0.266843091866 0.00011665937632 0)
(0.266849161909 0.000118257586564 0)
(0.266858777891 0.000120511032747 0)
(0.266873985569 0.000123071072639 0)
(0.26689804136 0.000125628030554 0)
(0.26693567656 0.000127968822071 0)
(0.266993500762 0.000130203573112 0)
(0.267080687736 0.0001340888621 0)
(0.267218434164 0.000144674715365 0)
(0.267439695603 0.000152928528585 0)
(0.267791112899 0.000152257476971 0)
(0.26834902909 0.000135015726319 0)
(0.269240161735 8.25557781424e-05 0)
(0.270676314802 -4.22424097976e-05 0)
(0.27301435287 -0.000307203917497 0)
(0.276913532539 -0.000839804447056 0)
(0.283731069255 -0.00218140694287 0)
(0.298986275952 -0.00675231415313 0)
(0.343411337511 -0.0268550935098 0)
(0.410212159558 -0.118124625101 0)
(0.965888392592 0.283647363353 0)
(0.982021414546 0.230851820701 0)
(0.882102621622 0.128144891591 0)
(0.801099457275 0.0648973502473 0)
(0.755397504651 0.0321480664848 0)
(0.729304355434 0.0163404351201 0)
(0.713986676947 0.00873574251657 0)
(0.704994989017 0.00492351323759 0)
(0.699631076088 0.00289816277894 0)
(0.696352553586 0.00175801469849 0)
(0.694316184483 0.00108703733141 0)
(0.693039340747 0.000680620122837 0)
(0.692233371352 0.000429707098942 0)
(0.691722350354 0.000272648393747 0)
(0.691397540241 0.00017330388454 0)
(0.691190786014 0.000110118624979 0)
(0.691059226597 6.98560030708e-05 0)
(0.690976109251 4.42993296995e-05 0)
(0.690924007381 2.88899293179e-05 0)
(0.69089122426 2.03802216e-05 0)
(0.690870554666 1.59452746995e-05 0)
(0.690857669608 1.36002181877e-05 0)
(0.69084990662 1.22593613105e-05 0)
(0.690845512158 1.13590896636e-05 0)
(0.690843007673 1.07023392301e-05 0)
(0.690841473908 1.05420962269e-05 0)
(0.690840533722 1.06690389237e-05 0)
(0.690840001734 1.08075343242e-05 0)
(0.690839769345 1.09357899179e-05 0)
(0.690839754649 1.12201648549e-05 0)
(0.690839851007 1.17214216689e-05 0)
(0.690839966676 1.22920905045e-05 0)
(0.690840072769 1.27443478247e-05 0)
(0.690840189762 1.30775679914e-05 0)
(0.690840341747 1.34573939552e-05 0)
(0.69084051955 1.39825752969e-05 0)
(0.690840693563 1.45524498781e-05 0)
(0.690840857586 1.49932357102e-05 0)
(0.690841040482 1.53203941641e-05 0)
(0.690841253846 1.57570133453e-05 0)
(0.690841437941 1.6406100554e-05 0)
(0.690841512751 1.70808036329e-05 0)
(0.690841484067 1.75763534595e-05 0)
(0.690841434343 1.79523428662e-05 0)
(0.690841403069 1.84326814149e-05 0)
(0.690841331321 1.9106842145e-05 0)
(0.690841134722 1.98259231826e-05 0)
(0.69084080778 2.04061714308e-05 0)
(0.690840426105 2.08843726563e-05 0)
(0.690840045494 2.145191573e-05 0)
(0.690839645498 2.21689497952e-05 0)
(0.690839199976 2.28861604174e-05 0)
(0.690838768661 2.34703061964e-05 0)
(0.690838475783 2.39784564761e-05 0)
(0.690838428472 2.45545944179e-05 0)
(0.690838720677 2.52292518508e-05 0)
(0.690839538161 2.58696404455e-05 0)
(0.690841256615 2.63022287291e-05 0)
(0.690844528469 2.64324229072e-05 0)
(0.690850590101 2.61869557419e-05 0)
(0.690861341268 2.55208957335e-05 0)
(0.690879360168 2.34115217092e-05 0)
(0.690907418432 1.77209294278e-05 0)
(0.690950128353 7.45962320697e-06 0)
(0.691015866478 -8.87041211688e-06 0)
(0.691117390513 -3.38170773522e-05 0)
(0.691274487301 -7.1223887658e-05 0)
(0.69151859971 -0.000125728454666 0)
(0.691894335894 -0.000202626226273 0)
(0.692474512644 -0.000324480400168 0)
(0.69338124344 -0.000526534852304 0)
(0.69480103273 -0.000866483596903 0)
(0.697032756318 -0.00144203558285 0)
(0.700578484074 -0.00243032049309 0)
(0.706322225586 -0.00416868151316 0)
(0.715793943288 -0.00736239715635 0)
(0.731667015125 -0.013849991429 0)
(0.76028437257 -0.0292017429577 0)
(0.812987779213 -0.0739161524264 0)
(0.857791749412 -0.212038584396 0)
(1.02182101207 0.22434266579 0)
(1.09802219431 0.249394428547 0)
(1.08366407282 0.172705620718 0)
(1.04618001107 0.104003148941 0)
(1.01605039149 0.0592175650231 0)
(0.994781639872 0.0334316626593 0)
(0.980485664686 0.0192139871883 0)
(0.971331530364 0.0113319568 0)
(0.9655564567 0.00684311189347 0)
(0.961896159279 0.00420493387213 0)
(0.959566917403 0.00261244864208 0)
(0.958081180297 0.00163235108466 0)
(0.957131034185 0.00102099947315 0)
(0.956522147225 0.000636290775735 0)
(0.956131542994 0.000393030667186 0)
(0.955880879618 0.000239198340777 0)
(0.955720148458 0.000142254765971 0)
(0.955617336015 8.12685850665e-05 0)
(0.955551540792 4.27114337141e-05 0)
(0.955509263755 1.87017356158e-05 0)
(0.955482210606 4.22821692842e-06 0)
(0.95546507577 -4.48303465287e-06 0)
(0.955454158764 -9.81461508061e-06 0)
(0.955447122935 -1.31465785005e-05 0)
(0.955442899801 -1.52885665022e-05 0)
(0.955440644762 -1.68255287729e-05 0)
(0.955439433837 -1.809088796e-05 0)
(0.955438789159 -1.93488771172e-05 0)
(0.955438443589 -2.06653949847e-05 0)
(0.955438283008 -2.17999157758e-05 0)
(0.955438283637 -2.26691926892e-05 0)
(0.955438429987 -2.34586987521e-05 0)
(0.955438639556 -2.44079398101e-05 0)
(0.955438803688 -2.55264716261e-05 0)
(0.955438908177 -2.66076753295e-05 0)
(0.955439038754 -2.75173944858e-05 0)
(0.955439248682 -2.8378234888e-05 0)
(0.955439470564 -2.94148350823e-05 0)
(0.955439608478 -3.06052889317e-05 0)
(0.955439671471 -3.16555506265e-05 0)
(0.955439733788 -3.24284274004e-05 0)
(0.955439803647 -3.31624123815e-05 0)
(0.955439811881 -3.41225053328e-05 0)
(0.955439707799 -3.52383125423e-05 0)
(0.955439515893 -3.6224712005e-05 0)
(0.955439293413 -3.69601620699e-05 0)
(0.955439038732 -3.76248394232e-05 0)
(0.95543869017 -3.84536031698e-05 0)
(0.955438218285 -3.94025154402e-05 0)
(0.955437671424 -4.02285887162e-05 0)
(0.955437124157 -4.08506145586e-05 0)
(0.955436613478 -4.14545837054e-05 0)
(0.955436156048 -4.22155548139e-05 0)
(0.955435811468 -4.30779064517e-05 0)
(0.955435725376 -4.38866569772e-05 0)
(0.955436147425 -4.46604750868e-05 0)
(0.955437448257 -4.57025827394e-05 0)
(0.955440143719 -4.75077499296e-05 0)
(0.955444989039 -5.07190376245e-05 0)
(0.955453451539 -5.64674021155e-05 0)
(0.955467145056 -6.63490232236e-05 0)
(0.955487725558 -8.16092272899e-05 0)
(0.955519767811 -0.000104812790497 0)
(0.955570789744 -0.000138920126791 0)
(0.95565070339 -0.000188701805239 0)
(0.955774781496 -0.000261862884644 0)
(0.955966853398 -0.000370762845058 0)
(0.956264277888 -0.000535190455441 0)
(0.956723392231 -0.000787409352129 0)
(0.957430213309 -0.00117438600746 0)
(0.958519740057 -0.00177884855097 0)
(0.960204636487 -0.00274049560542 0)
(0.962819208251 -0.00428650752577 0)
(0.966892421742 -0.00680904373868 0)
(0.973275939304 -0.0110272075993 0)
(0.98328498199 -0.0183752707667 0)
(0.998740802576 -0.03186416367 0)
(1.02236477549 -0.0583704105544 0)
(1.05501491609 -0.115554057166 0)
(1.06424860277 -0.237817824165 0)
(1.02034410248 0.152910918232 0)
(1.10562966355 0.214908244239 0)
(1.13721763215 0.174272189123 0)
(1.13617719969 0.118112394571 0)
(1.12669199979 0.0739509631918 0)
(1.11630306 0.0449994707743 0)
(1.10758114315 0.0273439498888 0)
(1.10126319263 0.0167735747491 0)
(1.09696046259 0.0104087170292 0)
(1.09408903305 0.00652322196054 0)
(1.09219659463 0.00411830429699 0)
(1.0909600095 0.00261328305237 0)
(1.09015542385 0.00166381225395 0)
(1.08963308236 0.00106155654246 0)
(1.08929450482 0.000678276086152 0)
(1.08907531981 0.000434079731495 0)
(1.08893369073 0.00027852604513 0)
(1.08884244027 0.000179315887643 0)
(1.08878363408 0.000115933584232 0)
(1.08874562928 7.5811243373e-05 0)
(1.08872124164 5.08283525156e-05 0)
(1.08870586346 3.52508280055e-05 0)
(1.08869626287 2.54584145032e-05 0)
(1.08869016154 1.949439482e-05 0)
(1.08868601862 1.61034841038e-05 0)
(1.08868323741 1.40263734464e-05 0)
(1.08868166139 1.26392211195e-05 0)
(1.08868081057 1.16361041193e-05 0)
(1.08868029038 1.10321509085e-05 0)
(1.08867998489 1.08554991022e-05 0)
(1.08867989361 1.10957507349e-05 0)
(1.08868005364 1.15148547872e-05 0)
(1.08868034749 1.18663880775e-05 0)
(1.08868056692 1.21126694977e-05 0)
(1.0886806606 1.24128454351e-05 0)
(1.08868076884 1.28809767586e-05 0)
(1.08868099159 1.34110710513e-05 0)
(1.08868122647 1.3812499094e-05 0)
(1.088681307 1.41093756989e-05 0)
(1.08868123647 1.4548034949e-05 0)
(1.08868117167 1.52383249282e-05 0)
(1.08868119235 1.59829608332e-05 0)
(1.08868119188 1.65594630028e-05 0)
(1.08868102182 1.70161014427e-05 0)
(1.08868068085 1.75895011345e-05 0)
(1.08868030473 1.8402229229e-05 0)
(1.08867996266 1.93334991232e-05 0)
(1.08867957062 2.01438850088e-05 0)
(1.08867902529 2.0847279811e-05 0)
(1.08867834775 2.16405384863e-05 0)
(1.08867766437 2.25849865926e-05 0)
(1.08867705889 2.35110951492e-05 0)
(1.08867651357 2.42440125169e-05 0)
(1.08867601195 2.47829813826e-05 0)
(1.08867566928 2.51944893286e-05 0)
(1.08867574171 2.53835703219e-05 0)
(1.08867652866 2.50130903137e-05 0)
(1.08867826092 2.36548956911e-05 0)
(1.08868104659 2.09140789235e-05 0)
(1.08868573655 1.56077620946e-05 0)
(1.08869525805 5.44435727565e-06 0)
(1.08871311254 -1.17602234718e-05 0)
(1.08874260632 -3.87763880513e-05 0)
(1.08878897417 -8.13681374264e-05 0)
(1.08886082675 -0.000148105382587 0)
(1.08897166259 -0.000252119198499 0)
(1.08914218487 -0.000414044644905 0)
(1.08940407571 -0.000666483917735 0)
(1.08980515142 -0.00106135378177 0)
(1.09041678009 -0.00167925088001 0)
(1.09134659825 -0.00264823065736 0)
(1.09275988343 -0.00417484126409 0)
(1.09490428815 -0.00659691625186 0)
(1.09813913404 -0.0104763526985 0)
(1.10296775458 -0.0167752854421 0)
(1.11000324428 -0.0272066530094 0)
(1.11967115995 -0.0448828064564 0)
(1.13165638936 -0.07553869936 0)
(1.1421887648 -0.130084156984 0)
(1.12746000084 -0.222542293393 0)
(1.00965705105 0.102252651226 0)
(1.08308836555 0.168709553399 0)
(1.12978211469 0.152836938098 0)
(1.14909696526 0.112958907412 0)
(1.15543003844 0.0760240529729 0)
(1.15556106271 0.0490718266605 0)
(1.1533703198 0.0312055496696 0)
(1.15098800532 0.0197931012882 0)
(1.14904714364 0.012579798508 0)
(1.14760368194 0.00801966761731 0)
(1.1465840592 0.00512652289331 0)
(1.14588685201 0.00328389918485 0)
(1.14541872666 0.00210655522099 0)
(1.14510776092 0.00135254873633 0)
(1.1449026048 0.000868886632599 0)
(1.14476792609 0.000558373412828 0)
(1.1446799277 0.000358955330517 0)
(1.14462269444 0.000230720656187 0)
(1.14458546169 0.000148059506001 0)
(1.14456112309 9.48564670043e-05 0)
(1.14454529125 6.06828572646e-05 0)
(1.14453516151 3.84803216037e-05 0)
(1.1445287081 2.37340510833e-05 0)
(1.14452445953 1.37911759819e-05 0)
(1.14452156597 7.11779295043e-06 0)
(1.14451975668 2.85332672298e-06 0)
(1.14451891676 1.47633538665e-07 0)
(1.14451876282 -1.62691925529e-06 0)
(1.14451883506 -2.70999810971e-06 0)
(1.14451889469 -3.32886120201e-06 0)
(1.14451902242 -3.67373694458e-06 0)
(1.14451930328 -3.88222009701e-06 0)
(1.14451967027 -4.11895189356e-06 0)
(1.14451992666 -4.42167958871e-06 0)
(1.14452003153 -4.69210708858e-06 0)
(1.14452013745 -4.84918655943e-06 0)
(1.14452034787 -4.96522250252e-06 0)
(1.14452055998 -5.16773061403e-06 0)
(1.14452060278 -5.43637324646e-06 0)
(1.14452047642 -5.60825465325e-06 0)
(1.14452035082 -5.60814639685e-06 0)
(1.14452032506 -5.55710832014e-06 0)
(1.14452029078 -5.60264999188e-06 0)
(1.14452008434 -5.72152521802e-06 0)
(1.14451971035 -5.76199160586e-06 0)
(1.14451933492 -5.65688740009e-06 0)
(1.14451899577 -5.53448935994e-06 0)
(1.14451857601 -5.4713924263e-06 0)
(1.14451799226 -5.44613269163e-06 0)
(1.14451726047 -5.35432562942e-06 0)
(1.14451649529 -5.15850202277e-06 0)
(1.14451577468 -4.95111885539e-06 0)
(1.14451506282 -4.84367383729e-06 0)
(1.14451430899 -4.86247669299e-06 0)
(1.14451360356 -4.99746468479e-06 0)
(1.14451322077 -5.34075359852e-06 0)
(1.14451357985 -6.20219363171e-06 0)
(1.1445151773 -8.25581064274e-06 0)
(1.1445180255 -1.2642693179e-05 0)
(1.14452216217 -1.97602340317e-05 0)
(1.14452896534 -2.98860920652e-05 0)
(1.14454053224 -4.73831797062e-05 0)
(1.14455936538 -7.7676314907e-05 0)
(1.14458918056 -0.000128093552291 0)
(1.14463554831 -0.000209607468473 0)
(1.14470694112 -0.000339234449218 0)
(1.14481608386 -0.000543537134232 0)
(1.14498186189 -0.000863941363806 0)
(1.14523190697 -0.00136517886823 0)
(1.14560619625 -0.00214792708077 0)
(1.14616209386 -0.00336859468418 0)
(1.14698050427 -0.00527226418637 0)
(1.14816796371 -0.00824872888789 0)
(1.14984707871 -0.0129185180234 0)
(1.15211687456 -0.0202750835613 0)
(1.15491745053 -0.0319180714115 0)
(1.1576444687 -0.0503912705467 0)
(1.15848333238 -0.0795656829207 0)
(1.15273550749 -0.125027054725 0)
(1.12509150528 -0.191246921989 0)
(1.00118511595 0.0683781305605 0)
(1.05999493981 0.125994975201 0)
(1.10704982898 0.123586289716 0)
(1.13499332806 0.0974960308658 0)
(1.15101007599 0.0693748551162 0)
(1.15904408934 0.0468991320077 0)
(1.16252899093 0.0309328686903 0)
(1.16397488571 0.0201712228961 0)
(1.16453934688 0.0130855428068 0)
(1.16471344795 0.00846801943889 0)
(1.16473266647 0.00547269820492 0)
(1.16470166345 0.00353388388166 0)
(1.16466087437 0.00228030749261 0)
(1.16462422728 0.00147040703202 0)
(1.16459524485 0.000947453433491 0)
(1.16457376568 0.00060995979663 0)
(1.16455853225 0.000392299647427 0)
(1.16454804039 0.000251962641688 0)
(1.16454084888 0.000161450394574 0)
(1.16453585626 0.000103196825348 0)
(1.16453244474 6.58320011568e-05 0)
(1.16453027335 4.18500366056e-05 0)
(1.16452901327 2.64470607655e-05 0)
(1.164528284 1.66820982234e-05 0)
(1.16452782729 1.07244505078e-05 0)
(1.16452765279 7.29369311376e-06 0)
(1.16452782682 5.37647681832e-06 0)
(1.1645282046 4.27668058872e-06 0)
(1.1645284785 3.56707698944e-06 0)
(1.16452851719 3.14190674214e-06 0)
(1.16452855708 2.91225086122e-06 0)
(1.16452881155 2.8183107739e-06 0)
(1.16452917114 2.75027316674e-06 0)
(1.16452942268 2.67826427798e-06 0)
(1.16452952993 2.67437303734e-06 0)
(1.16452963743 2.77272861045e-06 0)
(1.16452982886 2.91749749309e-06 0)
(1.16453000686 3.0294826952e-06 0)
(1.1645300202 3.12914226387e-06 0)
(1.16452987291 3.32957176861e-06 0)
(1.16452972584 3.67920173013e-06 0)
(1.16452967215 4.08858002956e-06 0)
(1.1645296069 4.45237357697e-06 0)
(1.16452937013 4.78027888014e-06 0)
(1.16452894503 5.17077715554e-06 0)
(1.16452844422 5.66369909907e-06 0)
(1.16452799958 6.15881117943e-06 0)
(1.16452757127 6.62517577158e-06 0)
(1.16452699067 7.08968603395e-06 0)
(1.16452624534 7.60888546841e-06 0)
(1.16452547047 8.20191229746e-06 0)
(1.16452475221 8.80567504071e-06 0)
(1.1645240321 9.32263331784e-06 0)
(1.16452323012 9.68101360661e-06 0)
(1.16452240968 9.80871076565e-06 0)
(1.16452174063 9.53041130111e-06 0)
(1.1645212113 8.45893334589e-06 0)
(1.16452038745 5.90333914407e-06 0)
(1.1645194935 8.88921290448e-07 0)
(1.16452005179 -7.732562756e-06 0)
(1.16452204715 -2.19855552044e-05 0)
(1.16452518777 -4.51911802597e-05 0)
(1.16453065802 -8.23985205508e-05 0)
(1.16453945296 -0.000141439392517 0)
(1.16455285669 -0.000234452813459 0)
(1.16457279941 -0.000380209009379 0)
(1.16460189423 -0.000607714216141 0)
(1.16464327386 -0.000961702537721 0)
(1.16470015272 -0.0015112045684 0)
(1.16477480849 -0.00236236509817 0)
(1.16486600289 -0.00367811402196 0)
(1.1649625556 -0.00570854681598 0)
(1.16502752027 -0.00883756322432 0)
(1.16496317191 -0.0136497244674 0)
(1.16453749391 -0.0210244121277 0)
(1.1632272804 -0.0322565668888 0)
(1.1598913895 -0.049164381707 0)
(1.15229781089 -0.0740489005422 0)
(1.1363425786 -0.109348005954 0)
(1.10268791882 -0.15565429532 0)
(0.996116651751 0.0454815776108 0)
(1.0437518882 0.0901685338345 0)
(1.08649724409 0.0935213234594 0)
(1.11686933385 0.0773911676734 0)
(1.13803079945 0.0574076501238 0)
(1.15127175787 0.0401938114709 0)
(1.15901928086 0.0272703158091 0)
(1.16362148822 0.0181783362607 0)
(1.16639873932 0.011991509584 0)
(1.168076668 0.00785801060138 0)
(1.16909933369 0.00512633598652 0)
(1.16973041933 0.00333360478142 0)
(1.17012343652 0.00216254971465 0)
(1.17036974149 0.00140016695554 0)
(1.17052470735 0.000905107506673 0)
(1.17062255273 0.00058424037704 0)
(1.17068460864 0.000376601070299 0)
(1.17072409871 0.000242395729631 0)
(1.1707492111 0.000155741201238 0)
(1.17076510524 9.990931551e-05 0)
(1.17077517382 6.40317911067e-05 0)
(1.17078168526 4.10098781741e-05 0)
(1.17078602001 2.62613229782e-05 0)
(1.17078889066 1.68383658834e-05 0)
(1.17079071524 1.0846892546e-05 0)
(1.17079190116 7.03229964989e-06 0)
(1.17079281919 4.5273715437e-06 0)
(1.17079359605 2.78251033078e-06 0)
(1.17079414706 1.52338459498e-06 0)
(1.17079448118 6.80370841262e-07 0)
(1.17079478615 2.14416204145e-07 0)
(1.170795194 -3.52761902715e-08 0)
(1.17079563024 -2.05484171315e-07 0)
(1.17079595563 -3.45493055903e-07 0)
(1.17079614816 -4.25176706378e-07 0)
(1.17079631429 -4.37898144957e-07 0)
(1.17079652807 -4.18761448246e-07 0)
(1.17079672066 -4.03444055665e-07 0)
(1.17079678561 -3.7376155399e-07 0)
(1.17079672574 -2.67180221375e-07 0)
(1.17079664423 -5.43379522489e-08 0)
(1.1707965997 2.20191900733e-07 0)
(1.17079651908 5.00197786045e-07 0)
(1.17079629607 7.95153768705e-07 0)
(1.17079593398 1.17740204176e-06 0)
(1.17079552213 1.70898533924e-06 0)
(1.17079511946 2.39634521842e-06 0)
(1.17079468315 3.13646493811e-06 0)
(1.17079411208 3.88671206017e-06 0)
(1.17079339253 4.68879571575e-06 0)
(1.17079260937 5.55716346747e-06 0)
(1.17079179829 6.4264478922e-06 0)
(1.17079087985 7.18993386313e-06 0)
(1.17078975703 7.74872588749e-06 0)
(1.17078843365 7.98665134016e-06 0)
(1.17078699695 7.67605456856e-06 0)
(1.17078551541 6.41846729779e-06 0)
(1.17078401457 3.7812545874e-06 0)
(1.170782092 -3.54701731524e-07 0)
(1.17077891621 -6.8087827656e-06 0)
(1.17077419582 -1.95685928295e-05 0)
(1.170767718 -4.12363652025e-05 0)
(1.17075843701 -7.66191988648e-05 0)
(1.17074441212 -0.000133353501151 0)
(1.17072252746 -0.000223210424705 0)
(1.17068796755 -0.000364247549952 0)
(1.17063302897 -0.000584150750375 0)
(1.17054500656 -0.000925244215379 0)
(1.1704029495 -0.00145230151696 0)
(1.17017253035 -0.00226382934949 0)
(1.16979725656 -0.00350887242646 0)
(1.16918324855 -0.00541157621551 0)
(1.1681724786 -0.00830567863523 0)
(1.16649624447 -0.0126792724763 0)
(1.16369570502 -0.0192267152955 0)
(1.15898644912 -0.0288923880977 0)
(1.15103373477 -0.0428581916329 0)
(1.13770250969 -0.0623627841978 0)
(1.11581497788 -0.0882525581811 0)
(1.07970236442 -0.119836811814 0)
(0.993410347394 0.0291252962588 0)
(1.03389550549 0.0603719018954 0)
(1.07213677628 0.0649670481581 0)
(1.10240735657 0.0555677535806 0)
(1.12600869147 0.0424470387584 0)
(1.14238737906 0.0304757495304 0)
(1.15302698906 0.0211078343025 0)
(1.15994443076 0.0143024434622 0)
(1.16443789266 0.00955503972981 0)
(1.16733105973 0.00632231867578 0)
(1.16918976848 0.00415495195356 0)
(1.17038518679 0.00271709227048 0)
(1.17115428375 0.00177019334844 0)
(1.17164905455 0.00114994111697 0)
(1.17196713534 0.000745330056491 0)
(1.1721715426 0.000482186349912 0)
(1.17230298189 0.000311421261329 0)
(1.17238754539 0.000200794514247 0)
(1.17244190015 0.000129257156925 0)
(1.17247673673 8.30925451629e-05 0)
(1.17249904668 5.33540282276e-05 0)
(1.17251345485 3.42244182058e-05 0)
(1.17252286986 2.19330200017e-05 0)
(1.17252899467 1.40348203986e-05 0)
(1.1725329016 8.95925014539e-06 0)
(1.17253542976 5.71070603799e-06 0)
(1.17253721832 3.65912002066e-06 0)
(1.17253857705 2.37287788244e-06 0)
(1.17253954797 1.5907535765e-06 0)
(1.17254018074 1.16377643221e-06 0)
(1.1725406634 9.75338211818e-07 0)
(1.1725411511 9.14260378655e-07 0)
(1.17254161275 9.04542369246e-07 0)
(1.17254193982 9.17128329336e-07 0)
(1.17254212942 9.5146840908e-07 0)
(1.17254229216 1.01637399763e-06 0)
(1.17254249914 1.10319448017e-06 0)
(1.17254268696 1.20237267698e-06 0)
(1.17254275225 1.31778899615e-06 0)
(1.17254270098 1.4669094513e-06 0)
(1.17254264132 1.66944762137e-06 0)
(1.17254262698 1.92508719198e-06 0)
(1.17254258099 2.21722840932e-06 0)
(1.1725424085 2.5520887925e-06 0)
(1.17254212509 2.96565574771e-06 0)
(1.17254182009 3.48916737258e-06 0)
(1.17254152249 4.12891882254e-06 0)
(1.17254114422 4.85235278876e-06 0)
(1.1725406009 5.62877383714e-06 0)
(1.17253991621 6.47414379144e-06 0)
(1.1725391619 7.39870646447e-06 0)
(1.17253834506 8.37052794835e-06 0)
(1.17253736823 9.32449746431e-06 0)
(1.17253612014 1.01893527709e-05 0)
(1.17253455807 1.08756483976e-05 0)
(1.17253264836 1.12069491002e-05 0)
(1.1725302383 1.08337733302e-05 0)
(1.17252711593 9.15850945544e-06 0)
(1.17252317555 5.29100420466e-06 0)
(1.17251682952 -1.34300914982e-06 0)
(1.17250665377 -1.14892213329e-05 0)
(1.17249173232 -2.90306599231e-05 0)
(1.17246923365 -5.86369345761e-05 0)
(1.1724345681 -0.000106143793207 0)
(1.17238067326 -0.000181321356253 0)
(1.17229677451 -0.000299409269976 0)
(1.17216612748 -0.0004835470032 0)
(1.17196224691 -0.000768548788567 0)
(1.17164343377 -0.00120738801357 0)
(1.17114459482 -0.00187978291635 0)
(1.17036408173 -0.00290467570312 0)
(1.16914311674 -0.0044575970714 0)
(1.16723382791 -0.00679323995613 0)
(1.16425049464 -0.0102713886441 0)
(1.15959771576 -0.0153799466247 0)
(1.15236864777 -0.0227385085728 0)
(1.14121132295 -0.0330451984107 0)
(1.12424013188 -0.0468978850434 0)
(1.09905990856 -0.0644528589062 0)
(1.06210163266 -0.0848364173732 0)
(0.992072823682 0.0163356578203 0)
(1.02850963059 0.034696392906 0)
(1.06353298871 0.0381679553745 0)
(1.09307306245 0.0333249282808 0)
(1.11770336871 0.0259355122285 0)
(1.13579927937 0.0189250590154 0)
(1.14818784037 0.0132854186597 0)
(1.1565928528 0.00909994518366 0)
(1.16223626875 0.00613121037485 0)
(1.1659689296 0.00408356384127 0)
(1.16841840909 0.00269720540973 0)
(1.17001940875 0.00177063890819 0)
(1.17106221396 0.00115702592622 0)
(1.17173952384 0.000753350554904 0)
(1.1721783166 0.000489153157904 0)
(1.17246201173 0.000316922284499 0)
(1.17264527539 0.000204932995009 0)
(1.1727636214 0.00013226163308 0)
(1.17283995273 8.52177243618e-05 0)
(1.17288904527 5.48263173063e-05 0)
(1.17292058175 3.52221214052e-05 0)
(1.17294095166 2.25987551208e-05 0)
(1.17295420924 1.44852671259e-05 0)
(1.17296280648 9.27368273733e-06 0)
(1.17296831204 5.92984706675e-06 0)
(1.17297188867 3.80709192833e-06 0)
(1.17297436259 2.49100610859e-06 0)
(1.17297614972 1.68456311986e-06 0)
(1.1729773805 1.18281477821e-06 0)
(1.172978177 8.76765434799e-07 0)
(1.17297876393 7.1056405714e-07 0)
(1.17297931178 6.32242267608e-07 0)
(1.17297980949 6.01352603892e-07 0)
(1.17298017011 6.02021884779e-07 0)
(1.17298039817 6.36091661376e-07 0)
(1.17298059845 7.10582408824e-07 0)
(1.17298083616 8.24136505286e-07 0)
(1.17298105026 9.66925862971e-07 0)
(1.1729811478 1.1352529261e-06 0)
(1.17298114254 1.34711199944e-06 0)
(1.17298113224 1.62318778745e-06 0)
(1.17298115387 1.95835128987e-06 0)
(1.17298113474 2.33482414721e-06 0)
(1.17298100015 2.75658861536e-06 0)
(1.17298077176 3.24924967721e-06 0)
(1.17298052484 3.83146628719e-06 0)
(1.17298027576 4.49906117218e-06 0)
(1.17297994835 5.23684771437e-06 0)
(1.17297947035 6.05613093089e-06 0)
(1.17297885828 6.97369123253e-06 0)
(1.17297816559 7.99880444872e-06 0)
(1.17297737297 9.10859151524e-06 0)
(1.17297636557 1.02536704954e-05 0)
(1.17297501848 1.13814364423e-05 0)
(1.17297324983 1.24244165809e-05 0)
(1.17297094768 1.32478181267e-05 0)
(1.17296785203 1.36081523886e-05 0)
(1.17296355392 1.31324860395e-05 0)
(1.17295766061 1.11486540641e-05 0)
(1.17294945015 6.43386392585e-06 0)
(1.17293598995 -1.08509011619e-06 0)
(1.17291393832 -1.2784331838e-05 0)
(1.17288068756 -3.13819401157e-05 0)
(1.1728302043 -6.20382199283e-05 0)
(1.1727518392 -0.000111967516219 0)
(1.17263008136 -0.000192105403677 0)
(1.17244157334 -0.000318283016499 0)
(1.17214973688 -0.000513205547304 0)
(1.17169767299 -0.000812032855179 0)
(1.17099824449 -0.00126737673966 0)
(1.16991826708 -0.00195668641378 0)
(1.16825520606 -0.00299225609887 0)
(1.16570353854 -0.00453333301198 0)
(1.16180789405 -0.00679823111063 0)
(1.15590171232 -0.0100710607675 0)
(1.14703416139 -0.0146917891767 0)
(1.13389787331 -0.0210078431547 0)
(1.11483216132 -0.0292544002838 0)
(1.08795758564 -0.0393612223481 0)
(1.05082213942 -0.0506902830463 0)
(0.991526676877 0.00527434858065 0)
(1.02615854595 0.0113212226274 0)
(1.0595674172 0.012581845954 0)
(1.08859016221 0.0110942033411 0)
(1.11357447814 0.00871273115061 0)
(1.13241847727 0.00640831000661 0)
(1.14562333978 0.00452866397857 0)
(1.1547502714 0.0031186757428 0)
(1.16096662141 0.00211020638337 0)
(1.16512551317 0.00141013587908 0)
(1.16787916628 0.000933787065388 0)
(1.16969117861 0.000614226899171 0)
(1.17087748055 0.000402004498238 0)
(1.17165104627 0.000262064661879 0)
(1.1721537939 0.000170315468272 0)
(1.17247964342 0.000110444057067 0)
(1.17269051839 7.14627386442e-05 0)
(1.17282690038 4.61326431764e-05 0)
(1.1729149863 2.97274615575e-05 0)
(1.17297171061 1.91256707395e-05 0)
(1.17300819203 1.22811922081e-05 0)
(1.17303176574 7.87225962691e-06 0)
(1.17304709392 5.04532685685e-06 0)
(1.17305702282 3.23646630061e-06 0)
(1.17306338956 2.08070349904e-06 0)
(1.17306753045 1.35716844196e-06 0)
(1.1730703674 9.20739142334e-07 0)
(1.17307237622 6.64549425762e-07 0)
(1.17307374548 5.14543753331e-07 0)
(1.17307464319 4.39808031074e-07 0)
(1.1730753046 4.32315193511e-07 0)
(1.17307589865 4.66158964721e-07 0)
(1.17307642292 5.22874693388e-07 0)
(1.17307680122 5.9162911905e-07 0)
(1.17307704807 6.73121767406e-07 0)
(1.17307727215 7.79250728944e-07 0)
(1.17307753232 9.15565542638e-07 0)
(1.17307776355 1.07257198421e-06 0)
(1.17307788348 1.2469021278e-06 0)
(1.17307791634 1.45745437369e-06 0)
(1.17307795222 1.725204272e-06 0)
(1.17307801512 2.05110734978e-06 0)
(1.17307803508 2.42720847362e-06 0)
(1.17307795097 2.85911793096e-06 0)
(1.17307779076 3.36812207908e-06 0)
(1.17307762218 3.97489516147e-06 0)
(1.17307744802 4.68328972588e-06 0)
(1.17307719086 5.48325954605e-06 0)
(1.17307678994 6.37866494523e-06 0)
(1.17307626707 7.38976018721e-06 0)
(1.17307566359 8.53356651756e-06 0)
(1.17307494098 9.80298644389e-06 0)
(1.1730739773 1.11782779557e-05 0)
(1.17307264432 1.26471343541e-05 0)
(1.17307083313 1.41918015922e-05 0)
(1.17306837191 1.57535245031e-05 0)
(1.17306491919 1.72138559098e-05 0)
(1.17305991951 1.83894836211e-05 0)
(1.17305258497 1.8949433669e-05 0)
(1.17304180475 1.81262897994e-05 0)
(1.17302603513 1.48107554305e-05 0)
(1.17300224814 9.2523303191e-06 0)
(1.17296458156 3.37322551814e-07 0)
(1.17290484213 -1.4813210862e-05 0)
(1.17281134418 -3.885804741e-05 0)
(1.17266642212 -7.51449335046e-05 0)
(1.17244391644 -0.00012969982653 0)
(1.17210187035 -0.000213374354234 0)
(1.17157464901 -0.000340551379168 0)
(1.1707633114 -0.000531613443934 0)
(1.16951844214 -0.000815716372644 0)
(1.16761579827 -0.00123379885038 0)
(1.16472264427 -0.00184169028759 0)
(1.16035328527 -0.00271224871196 0)
(1.15381495123 -0.00393411917295 0)
(1.1441507329 -0.00560305452581 0)
(1.13009684321 -0.00779927360193 0)
(1.11012163591 -0.0105437740195 0)
(1.08259298187 -0.0137461319408 0)
(1.04554349862 -0.0171358082638 0)
(0.99152745196 -0.00527343823945 0)
(1.02615847542 -0.011321392579 0)
(1.05956729346 -0.012582433401 0)
(1.08859009835 -0.0110944786504 0)
(1.11357443483 -0.00871278497187 0)
(1.132418463 -0.00640821370166 0)
(1.14562332788 -0.00452849442451 0)
(1.15475025377 -0.00311853377826 0)
(1.16096662057 -0.0021100845282 0)
(1.16512551601 -0.00140997925169 0)