/*--------------------------------*- C++ -*----------------------------------*\
| =========                 |                                                 |
| \\      /  F ield         | OpenFOAM: The Open Source CFD Toolbox           |
|  \\    /   O peration     | Version:  2106                                  |
|   \\  /    A nd           | Website:  www.openfoam.com                      |
|    \\/     M anipulation  |                                                 |
\*---------------------------------------------------------------------------*/
FoamFile
{
    version     2.0;
    format      ascii;
    arch        "LSB;label=32;scalar=64";
    class       volVectorField;
    location    "0.15";
    object      U;
}
// * * * * * * * * * * * * * * * * * * * * * * * * * * * * * * * * * * * * * //

dimensions      [0 1 -1 0 0 0 0];

internalField   nonuniform List<vector> 
9600
(
(0.675396180362 0.157677437154 0)
(0.563826159155 0.102430807391 0)
(0.381538938444 0.0510646915726 0)
(0.283853199353 0.0244589862104 0)
(0.232281039515 0.0119348227787 0)
(0.201907724678 0.0062303593442 0)
(0.183178429339 0.00352192612024 0)
(0.171272010101 0.00212007496683 0)
(0.163512263195 0.00132523670053 0)
(0.158392683128 0.000841456937306 0)
(0.155010719928 0.000534135664282 0)
(0.152789998131 0.000335040106434 0)
(0.151348708241 0.00020552161641 0)
(0.150429259658 0.000121792130602 0)
(0.149856471233 6.84338738563e-05 0)
(0.149511135327 3.51729686108e-05 0)
(0.149312528249 1.50858564562e-05 0)
(0.14920648191 3.50256306997e-06 0)
(0.149157106874 -2.70826613383e-06 0)
(0.149141005545 -5.61322262616e-06 0)
(0.149143300823 -6.52990067467e-06 0)
(0.149154713246 -6.42188704105e-06 0)
(0.149169672725 -5.78721001214e-06 0)
(0.149185069541 -4.93443103263e-06 0)
(0.149199269522 -4.04936116478e-06 0)
(0.149211551044 -3.23060121925e-06 0)
(0.149221726072 -2.52248236344e-06 0)
(0.149229894031 -1.93689409946e-06 0)
(0.149236290895 -1.46786620345e-06 0)
(0.149241200837 -1.1016064682e-06 0)
(0.149244905551 -8.21581044994e-07 0)
(0.149247658966 -6.1134873119e-07 0)
(0.149249677828 -4.56468646725e-07 0)
(0.14925113921 -3.44351928101e-07 0)
(0.149252183523 -2.64069650159e-07 0)
(0.149252921032 -2.07217042241e-07 0)
(0.149253436259 -1.67268416527e-07 0)
(0.14925379173 -1.38626943779e-07 0)
(0.149254033712 -1.17415217253e-07 0)
(0.149254195941 -1.01237719116e-07 0)
(0.149254302332 -8.8391694807e-08 0)
(0.149254371015 -7.8669565218e-08 0)
(0.149254415108 -7.34707097528e-08 0)
(0.149254441265 -7.3533648924e-08 0)
(0.149254454788 -7.54480594017e-08 0)
(0.149254461176 -7.86100830607e-08 0)
(0.149254462904 -8.34991948719e-08 0)
(0.149254461519 -9.10292899568e-08 0)
(0.149254458561 -1.00376135974e-07 0)
(0.149254454402 -1.09906520912e-07 0)
(0.149254449469 -1.18813295638e-07 0)
(0.149254444797 -1.27829971773e-07 0)
(0.149254440413 -1.37610817637e-07 0)
(0.149254435885 -1.48508916163e-07 0)
(0.1492544313 -1.60875572144e-07 0)
(0.149254426164 -1.74135453948e-07 0)
(0.149254420424 -1.8753510854e-07 0)
(0.149254415492 -2.01370448318e-07 0)
(0.149254411938 -2.1593306075e-07 0)
(0.149254409065 -2.31253497871e-07 0)
(0.149254406573 -2.47917485472e-07 0)
(0.149254403859 -2.66223982613e-07 0)
(0.149254400106 -2.85931407699e-07 0)
(0.149254395698 -3.07120190059e-07 0)
(0.149254390975 -3.29574302161e-07 0)
(0.149254385654 -3.52718103028e-07 0)
(0.149254380376 -3.7690514729e-07 0)
(0.149254375866 -4.02939406208e-07 0)
(0.149254371724 -4.3107673087e-07 0)
(0.149254367378 -4.61288853601e-07 0)
(0.149254362013 -4.92979267456e-07 0)
(0.149254354871 -5.25320690033e-07 0)
(0.149254347002 -5.58925576763e-07 0)
(0.14925433993 -5.95257838206e-07 0)
(0.149254333365 -6.34584409444e-07 0)
(0.149254326512 -6.76031473931e-07 0)
(0.149254319518 -7.18640343789e-07 0)
(0.149254312909 -7.62364212616e-07 0)
(0.14925430696 -8.08594013077e-07 0)
(0.149254300857 -8.58393667685e-07 0)
(0.149254293354 -9.10880543141e-07 0)
(0.149254285308 -9.65090206889e-07 0)
(0.149254278546 -1.02153771636e-06 0)
(0.149254272461 -1.08089741783e-06 0)
(0.149254265486 -1.14315968296e-06 0)
(0.149254258107 -1.20801763456e-06 0)
(0.149254251806 -1.27513809864e-06 0)
(0.149254247116 -1.34471942302e-06 0)
(0.149254243336 -1.41746190841e-06 0)
(0.149254239441 -1.49368073512e-06 0)
(0.149254235554 -1.57311615251e-06 0)
(0.149254232459 -1.65515830993e-06 0)
(0.14925423003 -1.73920388509e-06 0)
(0.149254228173 -1.82564094555e-06 0)
(0.149254227729 -1.91572518879e-06 0)
(0.14925422876 -2.01004788872e-06 0)
(0.149254230401 -2.10803048735e-06 0)
(0.149254232923 -2.20815526201e-06 0)
(0.149254238239 -2.30861301291e-06 0)
(0.149254249092 -2.4095653757e-06 0)
(0.149254266692 -2.51303413053e-06 0)
(0.149254289841 -2.61996016168e-06 0)
(0.14925431838 -2.72967210911e-06 0)
(0.149254354997 -2.84154457296e-06 0)
(0.149254402896 -2.95502824775e-06 0)
(0.149254464509 -3.0695734229e-06 0)
(0.149254543033 -3.18566108164e-06 0)
(0.149254642699 -3.30457201822e-06 0)
(0.149254767973 -3.42822080409e-06 0)
(0.149254924127 -3.5615215617e-06 0)
(0.149255120005 -3.71296269359e-06 0)
(0.149255365798 -3.87869886482e-06 0)
(0.149255671277 -4.05437187279e-06 0)
(0.149256048964 -4.23695720176e-06 0)
(0.14925651793 -4.42739296482e-06 0)
(0.149257103777 -4.63049760244e-06 0)
(0.149257833775 -4.84903424837e-06 0)
(0.149258737712 -5.08194026239e-06 0)
(0.149259855023 -5.32860719237e-06 0)
(0.149261238635 -5.59072220832e-06 0)
(0.149262954436 -5.87160627341e-06 0)
(0.149265081763 -6.17743748641e-06 0)
(0.149267721184 -6.5199698872e-06 0)
(0.149271013775 -6.93437882531e-06 0)
(0.149275110825 -7.51353832944e-06 0)
(0.149280161659 -8.28995190092e-06 0)
(0.149286386119 -9.20714581981e-06 0)
(0.149294085461 -1.02438415397e-05 0)
(0.149303620466 -1.14063895993e-05 0)
(0.149315430918 -1.27110513984e-05 0)
(0.149330060183 -1.41795071103e-05 0)
(0.1493481805 -1.58401915605e-05 0)
(0.149370624212 -1.77283484916e-05 0)
(0.14939842623 -1.98878549375e-05 0)
(0.149432869462 -2.23741041546e-05 0)
(0.149475544892 -2.52581229402e-05 0)
(0.149528432304 -2.86296292277e-05 0)
(0.149593992901 -3.2599558647e-05 0)
(0.149675285953 -3.73059319831e-05 0)
(0.149776125007 -4.2925536188e-05 0)
(0.149901274159 -4.96888530122e-05 0)
(0.150056686452 -5.78882283418e-05 0)
(0.150249816905 -6.78916795409e-05 0)
(0.150490039783 -8.01736183872e-05 0)
(0.150789178921 -9.53441903487e-05 0)
(0.151162210815 -0.000114189455927 0)
(0.151628217091 -0.000137736042317 0)
(0.152211670235 -0.000167334690892 0)
(0.152944210602 -0.000204773555827 0)
(0.153867163891 -0.000252432764135 0)
(0.155035222584 -0.000313520879344 0)
(0.15652209651 -0.000392520497834 0)
(0.15842999563 -0.00049641725761 0)
(0.160908497234 -0.000639171345457 0)
(0.164199259218 -0.000859010101886 0)
(0.168748068564 -0.00128265745525 0)
(0.175548943151 -0.00236096032646 0)
(0.187558760146 -0.00578212321753 0)
(0.213863615905 -0.0180182529279 0)
(0.272096479227 -0.0634167726612 0)
(0.97720117043 0.296997121422 0)
(0.962687459194 0.250387273253 0)
(0.820646035715 0.158581010767 0)
(0.697824907228 0.0957993422155 0)
(0.610491680575 0.0579132750065 0)
(0.549133329631 0.0359038545545 0)
(0.506706007054 0.0229309371729 0)
(0.477662046011 0.014978878625 0)
(0.457815323177 0.00990973380583 0)
(0.444277698207 0.00658331118205 0)
(0.435087248681 0.00436198740465 0)
(0.428895574193 0.00286682737538 0)
(0.424768053047 0.00185972067557 0)
(0.422054243706 0.00118457065861 0)
(0.420301063753 0.00073610738342 0)
(0.419193695806 0.00044215406725 0)
(0.418514636226 0.000252852103388 0)
(0.418114874708 0.000133728066302 0)
(0.417893436102 6.10379687231e-05 0)
(0.417782819134 1.85593196467e-05 0)
(0.417738595146 -4.65779080427e-06 0)
(0.417732101092 -1.60393674685e-05 0)
(0.417745371135 -2.03420600461e-05 0)
(0.41776745996 -2.06511950227e-05 0)
(0.417791985408 -1.89036907344e-05 0)
(0.417815484958 -1.62739514401e-05 0)
(0.41783629823 -1.3440999067e-05 0)
(0.41785383202 -1.07679969363e-05 0)
(0.417868088237 -8.42322588431e-06 0)
(0.417879371279 -6.4614983498e-06 0)
(0.417888110613 -4.87506960702e-06 0)
(0.417894758208 -3.62493014565e-06 0)
(0.417899736251 -2.66086732356e-06 0)
(0.417903412622 -1.93120394043e-06 0)
(0.417906092515 -1.38693107583e-06 0)
(0.41790802253 -9.85874239116e-07 0)
(0.417909397537 -6.93816956459e-07 0)
(0.417910366131 -4.82763347319e-07 0)
(0.417911039785 -3.31258051068e-07 0)
(0.417911501819 -2.23652091954e-07 0)
(0.417911812743 -1.4770698879e-07 0)
(0.417912016737 -9.50900492618e-08 0)
(0.417912146974 -6.12639786707e-08 0)
(0.417912227648 -4.20887757592e-08 0)
(0.417912274896 -3.10145872471e-08 0)
(0.417912299137 -2.48966891012e-08 0)
(0.417912307083 -2.14634611815e-08 0)
(0.417912305094 -1.83573932745e-08 0)
(0.41791229938 -1.68082391445e-08 0)
(0.417912292068 -1.72018288113e-08 0)
(0.417912282788 -1.79197581088e-08 0)
(0.417912272122 -1.8939504929e-08 0)
(0.417912260728 -2.04944293604e-08 0)
(0.417912248491 -2.25971118326e-08 0)
(0.417912236392 -2.59939932359e-08 0)
(0.417912224914 -3.03015403123e-08 0)
(0.41791221326 -3.39671602854e-08 0)
(0.417912202046 -3.69698518786e-08 0)
(0.41791219206 -3.99478209704e-08 0)
(0.417912182227 -4.27666036591e-08 0)
(0.417912171903 -4.58866083713e-08 0)
(0.41791216103 -4.97808672277e-08 0)
(0.417912148897 -5.37676838143e-08 0)
(0.417912136008 -5.77719717325e-08 0)
(0.417912123306 -6.21018016766e-08 0)
(0.417912109847 -6.59127382619e-08 0)
(0.417912095046 -6.88056860071e-08 0)
(0.417912079735 -7.14503060422e-08 0)
(0.417912064139 -7.43469858354e-08 0)
(0.417912048441 -7.84085014924e-08 0)
(0.417912032688 -8.39801866294e-08 0)
(0.417912015218 -8.93673381982e-08 0)
(0.417911995185 -9.36769848606e-08 0)
(0.417911974249 -9.82305076684e-08 0)
(0.417911953658 -1.04049584768e-07 0)
(0.417911933491 -1.10622255623e-07 0)
(0.417911913684 -1.16805944678e-07 0)
(0.417911893328 -1.22180170301e-07 0)
(0.417911871717 -1.2827906748e-07 0)
(0.417911849486 -1.36518194423e-07 0)
(0.417911826896 -1.45183674429e-07 0)
(0.417911803988 -1.52207768924e-07 0)
(0.417911781499 -1.58792195281e-07 0)
(0.417911758977 -1.66883529976e-07 0)
(0.417911735402 -1.76323036483e-07 0)
(0.417911711758 -1.85975973547e-07 0)
(0.417911689415 -1.9520582398e-07 0)
(0.417911668204 -2.04542423912e-07 0)
(0.417911647598 -2.15147405119e-07 0)
(0.417911627594 -2.27224283604e-07 0)
(0.41791160897 -2.40333330184e-07 0)
(0.417911592585 -2.54344449734e-07 0)
(0.417911577712 -2.68600470989e-07 0)
(0.417911563674 -2.82350926212e-07 0)
(0.417911552342 -2.96685338673e-07 0)
(0.417911545603 -3.1383143274e-07 0)
(0.417911543692 -3.34635032825e-07 0)
(0.417911547811 -3.57561791747e-07 0)
(0.417911560038 -3.80504055725e-07 0)
(0.417911582601 -4.04884864836e-07 0)
(0.41791161818 -4.33399678937e-07 0)
(0.417911668958 -4.68055218679e-07 0)
(0.417911737491 -5.08217052317e-07 0)
(0.417911828937 -5.5363470328e-07 0)
(0.41791195001 -6.05021747076e-07 0)
(0.417912106747 -6.62667111018e-07 0)
(0.417912306397 -7.27213384843e-07 0)
(0.41791255858 -7.99476054806e-07 0)
(0.417912872198 -8.78552768397e-07 0)
(0.417913255893 -9.60578640058e-07 0)
(0.4179137385 -1.03781584058e-06 0)
(0.417914356214 -1.12164821462e-06 0)
(0.417915137156 -1.22013446062e-06 0)
(0.417916112671 -1.3352842485e-06 0)
(0.417917323343 -1.47002480025e-06 0)
(0.417918827777 -1.63366037427e-06 0)
(0.417920701212 -1.83776429326e-06 0)
(0.417923030099 -2.09167948161e-06 0)
(0.417925918925 -2.40522304769e-06 0)
(0.417929500748 -2.79197911304e-06 0)
(0.417933940217 -3.27108846563e-06 0)
(0.417939438033 -3.86952892781e-06 0)
(0.417946237212 -4.6230326426e-06 0)
(0.41795462603 -5.58841092988e-06 0)
(0.417964995201 -6.87622879474e-06 0)
(0.417977880081 -8.5719600779e-06 0)
(0.417993901292 -1.07106919574e-05 0)
(0.418013779866 -1.33668489435e-05 0)
(0.418038422263 -1.66547706266e-05 0)
(0.418068961641 -2.07198987541e-05 0)
(0.418106804444 -2.57441110634e-05 0)
(0.418153693025 -3.19550824046e-05 0)
(0.418211785426 -3.96319149543e-05 0)
(0.418283760276 -4.91199456786e-05 0)
(0.418372940662 -6.08489525857e-05 0)
(0.418483449743 -7.53524580629e-05 0)
(0.418620413362 -9.32959401626e-05 0)
(0.418790205094 -0.000115510294826 0)
(0.419000748574 -0.000143030245684 0)
(0.419261910092 -0.000177151762714 0)
(0.419586008511 -0.000219514815642 0)
(0.419988449376 -0.000272195111665 0)
(0.420488524732 -0.000337821998756 0)
(0.421110475814 -0.000419757426678 0)
(0.421884884503 -0.000522329318896 0)
(0.422850495327 -0.000651150509655 0)
(0.424056674813 -0.000813584538196 0)
(0.425566792988 -0.00101942270048 0)
(0.427462973187 -0.00128190755006 0)
(0.429852964933 -0.00161935013751 0)
(0.432880521878 -0.00205787562846 0)
(0.436741911664 -0.00263656834616 0)
(0.441713842042 -0.0034183151841 0)
(0.448204695204 -0.00451575414373 0)
(0.456855512851 -0.00616012275731 0)
(0.468733561033 -0.008891767741 0)
(0.485695508098 -0.0140900045536 0)
(0.5113122321 -0.0255069120805 0)
(0.552586252436 -0.0536827620813 0)
(0.614274533768 -0.124541682081 0)
(1.03387038842 0.239240958106 0)
(1.08314081596 0.293634381171 0)
(1.0329443769 0.239131937306 0)
(0.954408216844 0.174539017636 0)
(0.880112598737 0.12155146162 0)
(0.818677630269 0.083233596382 0)
(0.771466810316 0.0568258157312 0)
(0.736691595143 0.0388125735713 0)
(0.711672121586 0.026491319382 0)
(0.693953146839 0.0180235788924 0)
(0.68156821937 0.0121876205577 0)
(0.673018615546 0.00816650215609 0)
(0.667192243876 0.00540556302723 0)
(0.663277761844 0.00352225664418 0)
(0.660690328133 0.00224960166533 0)
(0.659012761958 0.00140001297249 0)
(0.657950568109 0.00084143489828 0)
(0.657298135004 0.000481094017474 0)
(0.656913619383 0.000254155113556 0)
(0.656700465313 0.000115660054126 0)
(0.656593904347 3.47323056209e-05 0)
(0.656551249634 -9.54408910181e-06 0)
(0.656544978892 -3.11037338667e-05 0)
(0.656557763389 -3.9183848709e-05 0)
(0.656579047743 -3.96727596394e-05 0)
(0.656602684939 -3.62603138402e-05 0)
(0.656625339411 -3.1183866434e-05 0)
(0.656645411454 -2.57333009544e-05 0)
(0.656662328085 -2.05965746441e-05 0)
(0.656676090306 -1.60931251876e-05 0)
(0.656686990431 -1.23264250877e-05 0)
(0.656695439882 -9.28025652899e-06 0)
(0.656701872613 -6.87994116502e-06 0)
(0.65670669486 -5.02853314864e-06 0)
(0.656710260031 -3.62525081612e-06 0)
(0.656712862132 -2.57686882227e-06 0)
(0.656714739225 -1.80427135e-06 0)
(0.656716077683 -1.24231014864e-06 0)
(0.656717019975 -8.38619625451e-07 0)
(0.656717674607 -5.5272616126e-07 0)
(0.65671812225 -3.52878555721e-07 0)
(0.656718422203 -2.14659741756e-07 0)
(0.656718619332 -1.20851920577e-07 0)
(0.656718745986 -5.86495840807e-08 0)
(0.656718823846 -1.87048375087e-08 0)
(0.656718868835 5.8830295719e-09 0)
(0.656718892651 2.06212265697e-08 0)
(0.656718900922 3.07602610854e-08 0)
(0.656718897694 3.73364001624e-08 0)
(0.656718888956 4.14501776794e-08 0)
(0.65671887771 4.42276920208e-08 0)
(0.65671886492 4.61205122799e-08 0)
(0.656718851329 4.75647577843e-08 0)
(0.656718836445 4.97294954794e-08 0)
(0.656718820877 5.26733815616e-08 0)
(0.656718806062 5.57605967037e-08 0)
(0.656718791731 5.95565035056e-08 0)
(0.656718777738 6.43556027766e-08 0)
(0.656718764844 6.93876218951e-08 0)
(0.656718752347 7.46549015417e-08 0)
(0.656718739196 8.02494734435e-08 0)
(0.656718725459 8.5906960503e-08 0)
(0.656718710655 9.22733624915e-08 0)
(0.656718694483 9.95950215862e-08 0)
(0.656718677945 1.06854064854e-07 0)
(0.656718661166 1.13966946958e-07 0)
(0.656718643539 1.21784506928e-07 0)
(0.656718625189 1.30672667184e-07 0)
(0.656718605471 1.40899925335e-07 0)
(0.656718583809 1.52069703802e-07 0)
(0.656718561551 1.62742405309e-07 0)
(0.656718539147 1.72932685463e-07 0)
(0.656718515324 1.8439847805e-07 0)
(0.656718489856 1.97626853509e-07 0)
(0.6567184635 2.11883455266e-07 0)
(0.656718437129 2.26570752626e-07 0)
(0.656718411338 2.41402836563e-07 0)
(0.656718384943 2.56774495636e-07 0)
(0.656718356546 2.73048003457e-07 0)
(0.656718327544 2.89852599294e-07 0)
(0.656718299561 3.07748699146e-07 0)
(0.656718271612 3.27957469205e-07 0)
(0.656718242543 3.49745686426e-07 0)
(0.656718212431 3.71614780326e-07 0)
(0.656718181733 3.93784549256e-07 0)
(0.65671815154 4.17053509057e-07 0)
(0.656718122601 4.41482254695e-07 0)
(0.656718094433 4.66776402891e-07 0)
(0.656718066878 4.92866351996e-07 0)
(0.656718040414 5.20321402611e-07 0)
(0.656718015395 5.49218772027e-07 0)
(0.656717992665 5.78182124641e-07 0)
(0.656717973146 6.06832057074e-07 0)
(0.656717956919 6.3710021608e-07 0)
(0.656717944122 6.69924637658e-07 0)
(0.656717935297 7.03724304621e-07 0)
(0.656717931717 7.37091488575e-07 0)
(0.656717936379 7.70277052439e-07 0)
(0.656717951801 8.04990248307e-07 0)
(0.656717981229 8.43525070504e-07 0)
(0.656718028712 8.83165339426e-07 0)
(0.656718097873 9.21408020438e-07 0)
(0.656718192887 9.57319808158e-07 0)
(0.656718319655 9.89812526647e-07 0)
(0.656718487309 1.01647013744e-06 0)
(0.656718706321 1.03472941862e-06 0)
(0.65671898868 1.04211448735e-06 0)
(0.656719350894 1.03559275992e-06 0)
(0.65671981475 1.01294823761e-06 0)
(0.656720407474 9.75237022021e-07 0)
(0.656721148001 9.28277040316e-07 0)
(0.656722060235 8.5773191386e-07 0)
(0.656723193796 7.46561748885e-07 0)
(0.656724606033 5.79909278554e-07 0)
(0.656726359936 3.46410157125e-07 0)
(0.656728535153 3.10658054929e-08 0)
(0.656731234553 -3.90807881415e-07 0)
(0.656734583353 -9.50524948846e-07 0)
(0.656738734576 -1.6837972538e-06 0)
(0.656743879075 -2.63426670103e-06 0)
(0.65675025225 -3.85668412175e-06 0)
(0.656758145608 -5.41932984581e-06 0)
(0.656767923613 -7.40785116388e-06 0)
(0.65678003259 -9.92376380336e-06 0)
(0.656795020732 -1.30784553937e-05 0)
(0.656813576329 -1.70356280064e-05 0)
(0.65683655259 -2.20248040875e-05 0)
(0.656865002333 -2.83126942183e-05 0)
(0.656900235238 -3.62218431804e-05 0)
(0.656943873315 -4.61508965543e-05 0)
(0.65699792223 -5.85968565764e-05 0)
(0.657064868172 -7.41779266578e-05 0)
(0.657147792667 -9.36563465298e-05 0)
(0.657250516908 -0.000117978110182 0)
(0.65737778134 -0.000148320217742 0)
(0.657535466389 -0.00018614201647 0)
(0.657730874215 -0.000233261151043 0)
(0.657973083364 -0.000291950019041 0)
(0.658273384488 -0.000365046728567 0)
(0.658645825335 -0.00045609922076 0)
(0.659107919103 -0.000569567671244 0)
(0.659681544552 -0.000711088279703 0)
(0.660394074345 -0.000887804966941 0)
(0.661279845727 -0.00110882515912 0)
(0.66238208542 -0.00138585363107 0)
(0.663755429608 -0.00173406431952 0)
(0.665469291701 -0.00217334404689 0)
(0.667612443529 -0.0027301186021 0)
(0.670299383105 -0.00344014882508 0)
(0.673679424308 -0.00435298883447 0)
(0.677950100749 -0.00553949058217 0)
(0.683377659866 -0.00710538439759 0)
(0.690329504599 -0.00921765217552 0)
(0.699327181592 -0.0121593274273 0)
(0.711134127476 -0.0164500537427 0)
(0.726886033284 -0.0231176170919 0)
(0.748223856451 -0.0342892239721 0)
(0.777378939889 -0.0544040951496 0)
(0.816710982723 -0.0925284258269 0)
(0.862434772382 -0.16418837059 0)
(1.03384128645 0.171306943855 0)
(1.10231585171 0.275556743427 0)
(1.11663620957 0.266312376552 0)
(1.09207925356 0.219892605747 0)
(1.05195421292 0.168210315965 0)
(1.0102222306 0.123615338195 0)
(0.973507735075 0.0888850642857 0)
(0.943885968429 0.0630494643681 0)
(0.92116282262 0.0442607999591 0)
(0.904299844201 0.0307744375791 0)
(0.892086156539 0.0211830164597 0)
(0.883411254333 0.0144172967809 0)
(0.877355081968 0.0096854370692 0)
(0.873196237152 0.00640757733982 0)
(0.87038809122 0.00416170655002 0)
(0.868526295808 0.00264229568936 0)
(0.867317353637 0.00162943993231 0)
(0.866551661812 0.000965973518531 0)
(0.86608176392 0.000540503542261 0)
(0.865805444357 0.00027483665376 0)
(0.865652917263 0.00011467775313 0)
(0.86557734385 2.28167173723e-05 0)
(0.865547802583 -2.58908517061e-05 0)
(0.86554434961 -4.82384866183e-05 0)
(0.865554496385 -5.51456772186e-05 0)
(0.865570611912 -5.35724420732e-05 0)
(0.865588272402 -4.7841406724e-05 0)
(0.865605094752 -4.0532099955e-05 0)
(0.865619947703 -3.30979025497e-05 0)
(0.865632438786 -2.62867987919e-05 0)
(0.865642587353 -2.04208284133e-05 0)
(0.865650618447 -1.55754799595e-05 0)
(0.865656840112 -1.16939707331e-05 0)
(0.865661575702 -8.65869021848e-06 0)
(0.8656651259 -6.33141159948e-06 0)
(0.865667750949 -4.57568787555e-06 0)
(0.865669667679 -3.2700390706e-06 0)
(0.865671050544 -2.31179127789e-06 0)
(0.865672035594 -1.61654744545e-06 0)
(0.865672728335 -1.11785698437e-06 0)
(0.86567320885 -7.64136203629e-07 0)
(0.865673535923 -5.1536506649e-07 0)
(0.865673753769 -3.42513503863e-07 0)
(0.865673895472 -2.24842805887e-07 0)
(0.865673983839 -1.46293355437e-07 0)
(0.865674035318 -9.51722758204e-08 0)
(0.865674062254 -6.34460175215e-08 0)
(0.865674072443 -4.48007689065e-08 0)
(0.86567407235 -3.35949003106e-08 0)
(0.86567406678 -2.72712031172e-08 0)
(0.865674056717 -2.59918806924e-08 0)
(0.865674043342 -2.83959337158e-08 0)
(0.865674028636 -3.34843298889e-08 0)
(0.865674012839 -3.9637981518e-08 0)
(0.865673995848 -4.60002443701e-08 0)
(0.86567397874 -5.27604112255e-08 0)
(0.865673961705 -5.92989746646e-08 0)
(0.865673944448 -6.50219792026e-08 0)
(0.865673927577 -7.08894566925e-08 0)
(0.865673910682 -7.75446718508e-08 0)
(0.865673892687 -8.47073910063e-08 0)
(0.865673873816 -9.23369312594e-08 0)
(0.865673853914 -9.97835917513e-08 0)
(0.865673832296 -1.06154184069e-07 0)
(0.865673809575 -1.12086770102e-07 0)
(0.865673786225 -1.18481784721e-07 0)
(0.86567376202 -1.25435482027e-07 0)
(0.865673737432 -1.33281809156e-07 0)
(0.865673712149 -1.41839448317e-07 0)
(0.865673684734 -1.50023349303e-07 0)
(0.865673655299 -1.58079276429e-07 0)
(0.865673624994 -1.67074156913e-07 0)
(0.865673593674 -1.76763784218e-07 0)
(0.865673560848 -1.86738250735e-07 0)
(0.865673526617 -1.96916443938e-07 0)
(0.865673491425 -2.07424887024e-07 0)
(0.865673456126 -2.19279131316e-07 0)
(0.865673420294 -2.32792686883e-07 0)
(0.865673382436 -2.46414671032e-07 0)
(0.865673343482 -2.5949592059e-07 0)
(0.865673305542 -2.7322968165e-07 0)
(0.865673267924 -2.88203970763e-07 0)
(0.865673228837 -3.04104612475e-07 0)
(0.865673188178 -3.20646682367e-07 0)
(0.865673146724 -3.37518691677e-07 0)
(0.865673105509 -3.55275143945e-07 0)
(0.865673065244 -3.75156545849e-07 0)
(0.865673025819 -3.97277334649e-07 0)
(0.865672987678 -4.21072112787e-07 0)
(0.865672951442 -4.4644083659e-07 0)
(0.865672916412 -4.73703516022e-07 0)
(0.865672882557 -5.03681204603e-07 0)
(0.865672851982 -5.36956314432e-07 0)
(0.865672826493 -5.73217413083e-07 0)
(0.865672806459 -6.12488663745e-07 0)
(0.865672792146 -6.55244441286e-07 0)
(0.865672785053 -7.01307670175e-07 0)
(0.865672789364 -7.51211272851e-07 0)
(0.865672810495 -8.06400141862e-07 0)
(0.865672849615 -8.66453972318e-07 0)
(0.865672907871 -9.33508178986e-07 0)
(0.865672991076 -1.009993855e-06 0)
(0.865673105148 -1.09793147645e-06 0)
(0.865673256816 -1.19898388235e-06 0)
(0.865673455885 -1.31587808497e-06 0)
(0.86567371423 -1.45250310029e-06 0)
(0.865674045295 -1.613534918e-06 0)
(0.865674466783 -1.80555130346e-06 0)
(0.865675001262 -2.03796762241e-06 0)
(0.865675676348 -2.32406964488e-06 0)
(0.865676523532 -2.68189735538e-06 0)
(0.86567758053 -3.11864670087e-06 0)
(0.865678898315 -3.65084555258e-06 0)
(0.865680541353 -4.30490806392e-06 0)
(0.865682586415 -5.10840370785e-06 0)
(0.865685126688 -6.09216350623e-06 0)
(0.865688279538 -7.29875842964e-06 0)
(0.865692190588 -8.78322927223e-06 0)
(0.865697039198 -1.06123993391e-05 0)
(0.865703048549 -1.28689481933e-05 0)
(0.86571049471 -1.56543277635e-05 0)
(0.86571971804 -1.90937383128e-05 0)
(0.865731142304 -2.33472584658e-05 0)
(0.865745292443 -2.86173302017e-05 0)
(0.865762814394 -3.51489965192e-05 0)
(0.865784509514 -4.32421771263e-05 0)
(0.865811371516 -5.32670023648e-05 0)
(0.865844630094 -6.56765366752e-05 0)
(0.865885811981 -8.10359581165e-05 0)
(0.865936807327 -0.000100052623183 0)
(0.865999954295 -0.000123606064174 0)
(0.866078153586 -0.000152788928615 0)
(0.866174999891 -0.000188956426897 0)
(0.866294946643 -0.000233792518898 0)
(0.866443519647 -0.00028939338731 0)
(0.866627573629 -0.000358364342208 0)
(0.866855610874 -0.000443947180852 0)
(0.867138190913 -0.00055018937733 0)
(0.867488440738 -0.000682153916951 0)
(0.867922680884 -0.000846176962155 0)
(0.868461224447 -0.00105021156728 0)
(0.869129400946 -0.001304288317 0)
(0.869958839055 -0.0016211047793 0)
(0.87098910643 -0.00201681540574 0)
(0.872269838284 -0.00251211829974 0)
(0.873863499538 -0.00313375124519 0)
(0.87584901487 -0.0039166149544 0)
(0.878326601824 -0.0049068557147 0)
(0.881424302974 -0.00616650169822 0)
(0.885306983512 -0.00778071375289 0)
(0.89018891583 -0.00986963312834 0)
(0.896351580246 -0.0126087486074 0)
(0.904168797701 -0.0162656774292 0)
(0.914140934935 -0.0212693556262 0)
(0.926936352629 -0.0283437115833 0)
(0.943418174686 -0.0387656662515 0)
(0.96456719213 -0.054829873564 0)
(0.991123914405 -0.0805484580062 0)
(1.02248631322 -0.122351529184 0)
(1.05250924409 -0.187976697428 0)
(1.02388346344 0.11932198545 0)
(1.08875436909 0.231514419946 0)
(1.13660483646 0.252868942504 0)
(1.15406273313 0.228905052915 0)
(1.15000113818 0.18833738812 0)
(1.13537625493 0.146577293814 0)
(1.11757779369 0.110164825636 0)
(1.10059201703 0.0808376104728 0)
(1.086122435 0.0582502028593 0)
(1.07458763978 0.041341788098 0)
(1.06578681643 0.0289362833604 0)
(1.05928158559 0.0199770162716 0)
(1.05459134528 0.0135949213844 0)
(1.05128028796 0.00910741205332 0)
(1.04898738581 0.00599310843156 0)
(1.04742908438 0.00386140425966 0)
(1.04639050314 0.00242408408644 0)
(1.04571305138 0.00147127655688 0)
(1.04528214143 0.000852041011674 0)
(1.04501648714 0.000459140439805 0)
(1.04485939909 0.000217335310151 0)
(1.04477201272 7.45292011366e-05 0)
(1.0447280834 -4.87139003327e-06 0)
(1.04471027837 -4.47069283783e-05 0)
(1.04470742402 -6.08326575664e-05 0)
(1.0447124286 -6.34235056648e-05 0)
(1.04472095872 -5.89037844744e-05 0)
(1.0447304967 -5.1195595124e-05 0)
(1.04473967348 -4.25823175764e-05 0)
(1.04474782651 -3.4304835462e-05 0)
(1.04475471404 -2.69618518512e-05 0)
(1.04476032977 -2.07704236393e-05 0)
(1.04476478634 -1.57327882788e-05 0)
(1.04476824777 -1.1743077282e-05 0)
(1.04477088943 -8.65089793603e-06 0)
(1.04477287458 -6.29638586262e-06 0)
(1.04477434574 -4.53048895296e-06 0)
(1.04477542222 -3.22374425584e-06 0)
(1.04477619955 -2.26766197304e-06 0)
(1.04477675339 -1.57547018145e-06 0)
(1.04477714292 -1.08000336595e-06 0)
(1.04477741208 -7.28861468603e-07 0)
(1.04477759398 -4.82275655031e-07 0)
(1.04477771438 -3.11194234027e-07 0)
(1.04477779145 -1.93571894441e-07 0)
(1.04477783806 -1.13250672705e-07 0)
(1.04477786456 -5.95180629648e-08 0)
(1.04477787717 -2.43176018904e-08 0)
(1.04477787875 -1.9072903577e-09 0)
(1.0447778718 1.01365603676e-08 0)
(1.04477785951 1.53962214537e-08 0)
(1.04477784459 1.72685728087e-08 0)
(1.04477782856 1.65090298945e-08 0)
(1.04477781147 1.45985808471e-08 0)
(1.04477779301 1.3238963035e-08 0)
(1.04477777469 1.19787904701e-08 0)
(1.0447777571 1.06093838659e-08 0)
(1.04477773904 9.80112349449e-09 0)
(1.04477772022 9.17452094094e-09 0)
(1.04477770087 8.14023583081e-09 0)
(1.04477768042 7.1534401258e-09 0)
(1.04477765927 6.29536834233e-09 0)
(1.04477763791 5.7928786536e-09 0)
(1.04477761531 6.66021292752e-09 0)
(1.04477759097 8.85267768028e-09 0)
(1.04477756529 1.16444457076e-08 0)
(1.04477753802 1.49310602725e-08 0)
(1.04477750951 1.80599432325e-08 0)
(1.04477748035 2.03685044804e-08 0)
(1.0447774495 2.2632507043e-08 0)
(1.04477741629 2.55787108947e-08 0)
(1.04477738178 2.90114335225e-08 0)
(1.04477734631 3.26277601278e-08 0)
(1.04477730939 3.61138343353e-08 0)
(1.04477727086 3.94453103491e-08 0)
(1.0447772306 4.32147477078e-08 0)
(1.04477718916 4.70946266786e-08 0)
(1.0447771475 5.03592196862e-08 0)
(1.04477710506 5.40248955875e-08 0)
(1.04477706123 5.90777379286e-08 0)
(1.04477701692 6.4408840822e-08 0)
(1.04477697238 6.89830781668e-08 0)
(1.04477692686 7.32675357615e-08 0)
(1.04477688039 7.80032877441e-08 0)
(1.04477683299 8.35356685678e-08 0)
(1.04477678439 8.93173261538e-08 0)
(1.04477673537 9.43386405153e-08 0)
(1.04477668705 9.86988969476e-08 0)
(1.04477664006 1.0266901899e-07 0)
(1.04477659464 1.05463869359e-07 0)
(1.04477655017 1.0665731691e-07 0)
(1.0447765066 1.0672829185e-07 0)
(1.04477646593 1.0583963148e-07 0)
(1.0447764299 1.03297305893e-07 0)
(1.04477639896 9.7788412191e-08 0)
(1.04477637416 8.82950402649e-08 0)
(1.04477635706 7.48987233604e-08 0)
(1.04477634978 5.68609657609e-08 0)
(1.04477635613 3.06435518003e-08 0)
(1.04477637978 -8.08760497123e-09 0)
(1.04477642402 -6.05530196589e-08 0)
(1.04477649429 -1.29631928064e-07 0)
(1.04477659712 -2.18959239246e-07 0)
(1.04477673974 -3.32254605813e-07 0)
(1.04477693212 -4.74650659418e-07 0)
(1.04477718717 -6.52754379902e-07 0)
(1.0447775193 -8.73617488404e-07 0)
(1.04477794603 -1.14590332382e-06 0)
(1.0447784901 -1.48155527844e-06 0)
(1.04477918029 -1.89552742361e-06 0)
(1.04478005087 -2.40626136779e-06 0)
(1.04478114094 -3.03379029982e-06 0)
(1.04478249951 -3.80528434609e-06 0)
(1.04478419254 -4.75787246813e-06 0)
(1.04478630326 -5.9352052032e-06 0)
(1.04478893006 -7.38772728542e-06 0)
(1.04479219323 -9.17937560326e-06 0)
(1.04479624329 -1.13906885385e-05 0)
(1.04480126691 -1.41204217818e-05 0)
(1.04480749627 -1.74909140829e-05 0)
(1.0448152192 -2.16538395058e-05 0)
(1.0448247888 -2.67964450732e-05 0)
(1.04483664299 -3.31534829472e-05 0)
(1.04485132779 -4.10189465206e-05 0)
(1.04486951577 -5.07545407458e-05 0)
(1.04489203655 -6.28070957995e-05 0)
(1.04491992067 -7.77294482217e-05 0)
(1.04495444586 -9.62015545003e-05 0)
(1.04499719491 -0.000119067287523 0)
(1.04505012691 -0.000147376014918 0)
(1.04511566668 -0.000182426711647 0)
(1.04519682172 -0.000225832586036 0)
(1.04529731776 -0.000279597342409 0)
(1.04542176699 -0.000346206094674 0)
(1.04557588903 -0.0004287489319 0)
(1.04576677871 -0.000531070653436 0)
(1.04600322961 -0.00065795333512 0)
(1.04629614577 -0.000815356981564 0)
(1.04665906528 -0.00101072829861 0)
(1.04710880102 -0.001253382188 0)
(1.04766623657 -0.0015549950517 0)
(1.04835734324 -0.00193026048464 0)
(1.04921445459 -0.00239773688511 0)
(1.05027786727 -0.00298096549598 0)
(1.05159788187 -0.00370999076087 0)
(1.0532374007 -0.00462343208942 0)
(1.05527525605 -0.00577138664667 0)