/*--------------------------------*- C++ -*----------------------------------*\
| =========                 |                                                 |
| \\      /  F ield         | OpenFOAM: The Open Source CFD Toolbox           |
|  \\    /   O peration     | Version:  2106                                  |
|   \\  /    A nd           | Website:  www.openfoam.com                      |
|    \\/     M anipulation  |                                                 |
\*---------------------------------------------------------------------------*/
FoamFile
{
    version     2.0;
    format      ascii;
    arch        "LSB;label=32;scalar=64";
    class       volScalarField;
    location    "0.365";
    object      p;
}
// * * * * * * * * * * * * * * * * * * * * * * * * * * * * * * * * * * * * * //

dimensions      [0 2 -2 0 0 0 0];

internalField   nonuniform List<scalar> 
11200
(
150.133295625
147.204693025
146.090839173
145.563503228
145.196167317
144.901381485
144.639729186
144.391181372
144.146652924
143.901574295
143.65324841
143.399920611
143.140358878
142.873627573
142.59895974
142.315681851
142.023167954
141.720811918
141.408014874
141.084188396
140.748708798
140.40092701
140.04018473
139.665814198
139.277130001
138.873431035
138.454001317
138.018110651
137.565015348
137.09395883
136.604172197
136.094874795
135.565274161
135.014566436
134.441936858
133.846561126
133.227605195
132.584225444
131.915569224
131.220775161
130.498973571
129.749286633
128.970828587
128.162705873
127.324016954
126.453852135
125.551293135
124.615412254
123.645271315
122.639920077
121.598394092
120.519711861
119.402871103
118.246843948
117.05057076
115.81295235
114.532840128
113.209023474
111.840214004
110.425025419
108.961949381
107.449322808
105.885288445
104.267745782
102.594284734
100.862100285
99.0678822951
97.2076705461
95.2766608457
93.2689385561
91.1771145927
88.9918292518
86.7008837274
84.2880914841
81.7313664292
78.9990481095
76.043536083
72.7922527177
69.0914669666
64.3281568997
148.340254179
146.982079133
146.191104579
145.691085487
145.300091003
144.976200946
144.691671199
144.427059429
144.171561276
143.919028447
143.6656337
143.408863475
143.146980709
142.878708867
142.603047422
142.31916144
142.026313381
141.723820287
141.411023546
141.087261269
140.751883094
140.404213563
140.043609018
139.6694014
139.280894872
138.877382608
138.458145796
138.022452413
137.569557488
137.098703477
136.609120453
136.100026233
135.570626445
135.020120891
134.447696746
133.852529796
133.233785619
132.59062061
131.922182093
131.227608787
130.506031173
129.756571652
128.978344783
128.170457403
127.332008569
126.462089331
125.559782355
124.624161172
123.654289119
122.649217867
121.607985347
120.529613016
119.41310227
118.257429817
117.061541725
115.824345847
114.544702328
113.221411412
111.853198349
110.43869366
108.976410353
107.464713119
105.901778251
104.285543167
102.613639866
100.883327828
99.091392027
97.2339949641
95.3064971968
93.3032139811
91.217076468
89.039128285
86.7578218306
84.358021094
81.8193307317
79.1132422206
76.1989572355
73.0186419986
69.4695075985
65.3567038586
147.345064109
146.690862693
146.138503867
145.700881346
145.329251317
145.007142095
144.718033667
144.447790317
144.187317173
143.930825477
143.674430318
143.415450027
143.151972537
142.88257081
142.606123675
142.321702384
142.02849716
141.725769305
141.412820342
141.088973332
140.753566122
140.405959122
140.045408365
139.671260299
139.282822988
138.879387049
138.460231369
138.024622837
137.571816176
137.101054072
136.611567547
136.102576495
135.573290089
135.022900942
134.450590995
133.855538569
133.236910355
132.593863244
131.925545404
131.231096403
130.509647588
129.760322265
128.982236129
128.174497318
127.336206456
126.466456522
125.564332492
124.628910745
123.659258123
122.654430589
121.613471354
120.535408314
119.419250758
118.263985085
117.068569241
115.831925513
114.552931663
113.230409748
111.863111872
110.449702103
108.988733527
107.478619179
105.917594699
104.303692273
102.634674296
100.90794702
99.1204688244
97.2686412657
95.3481503064
93.3537574741
91.2790132196
89.1158547731
86.8541873126
84.4810950726
81.9798572634
79.3286140104
76.4993923734
73.4605782963
70.1761959366
66.6232272245
146.795302986
146.431920621
146.032019469
145.663024167
145.325401013
145.017290702
144.731918288
144.46120427
144.198821419
143.940142876
143.681750685
143.421113335
143.156330975
142.885936281
142.608753078
142.323798695
142.030216698
141.727230741
141.414113581
141.09016518
140.754694541
140.407011494
140.046474892
139.672361677
139.283961297
138.880566245
138.461455165
138.025893721
137.573135501
137.10242216
136.612983534
136.104037745
135.574792234
135.024445167
134.452186562
133.857190556
133.238625003
132.595647512
131.927405268
131.233038335
130.511678847
129.762451148
128.984472348
128.176852477
127.338694482
126.469094239
125.567140315
124.63191345
123.662485833
122.657919923
121.61726676
120.539563794
119.423832015
118.269072167
117.074259892
115.838339347
114.56021513
113.238742925
111.872715791
110.460847618
109.001757446
107.493947329
105.935756168
104.325325223
102.660552798
100.939040468
99.158013113
97.3142187978
95.4038045729
93.4221606038
91.3637299259
89.2217831744
86.9880888462
84.6526052337
82.203243628
79.6259062011
76.905848286
74.0333637126
71.0120520764
67.8790942694
146.461255068
146.229458552
145.928043015
145.61706105
145.312214999
145.020183631
144.741198875
144.47206265
144.2090915
143.948995409
143.689014043
143.426910015
143.160890788
142.889507243
142.611562595
142.326039749
142.032045911
141.728771732
141.415461799
141.091393399
140.755861603
140.408170087
140.04762256
139.673508546
139.285131051
138.881773944
138.462710642
138.027204397
137.574507455
137.103860905
136.614494649
136.105627504
135.576467387
135.026210851
134.454044017
133.859143
133.240673125
132.597792299
131.929650951
131.235389627
130.514142931
129.765037552
128.987193037
128.17972222
127.341731316
126.472320063
125.570581648
124.635602434
123.666461396
122.662229085
121.621967105
120.544725588
119.429540944
118.275432675
117.081399177
115.846411976
114.569407651
113.249283227
111.88488086
110.474981314
109.018281349
107.51336941
105.958708442
104.352603882
102.693162179
100.978241462
99.2053943277
97.3717990471
95.4741762543
93.5086917931
91.4708489413
89.3553831902
87.1561862321
84.8663395194
82.4784224338
79.9854259811
77.3831540807
74.6760489015
71.8854707422
69.0621161955
146.257862562
146.081959484
145.840761649
145.573431082
145.296237723
145.019591614
144.747892875
144.48138115
144.218605045
143.957584615
143.696285036
143.432839291
143.165621904
142.893242003
142.61450658
142.328377857
142.033933639
141.730334371
141.416797218
141.09257629
140.756948151
140.409200928
140.048625276
139.674511583
139.286149437
138.882818278
138.463788868
138.028322399
137.575669652
137.105070417
136.6157536
136.106937218
135.577828566
135.02762436
134.455511295
133.860666555
133.242258552
132.599446924
131.931382961
131.237210864
130.516066164
129.767076276
128.989362789
128.182041226
127.344221167
126.475006903
125.573497259
124.638785461
123.669958889
122.666098703
121.6262782
120.549562271
119.435005393
118.281649031
117.088518605
115.854620893
114.578935374
113.260410779
111.897956416
110.490422386
109.036593276
107.535176104
105.984787808
104.383912188
102.730882403
101.023848741
99.2607403288
97.4392237105
95.5566591511
93.610060945
91.5960729659
89.5109836579
87.3508268099
85.1116612613
82.7902021472
80.3850978423
77.8994159842
75.3453105478
72.7497294149
70.1597693797
146.134745717
145.979137101
145.772832323
145.536265647
145.28078446
145.017497737
144.75287621
144.489358388
144.227215193
143.965618922
143.703235635
143.438588864
143.170248828
142.896906944
142.617390939
142.330653135
142.035748473
141.731810984
141.418032535
141.093645132
140.757906914
140.410091463
140.049480008
139.675355129
139.286998125
138.883683467
138.464679072
138.029243916
137.576627256
137.106068042
136.61679479
136.108025438
135.578967549
135.028818604
134.456766465
133.861989249
133.243655785
132.600926532
131.932953635
131.238880628
130.517842898
129.768971695
128.991393116
128.184226724
127.346587035
126.477583647
125.576321781
124.641902486
123.673422657
122.669974766
121.630646244
120.554519346
119.440669723
118.288164651
117.09606094
115.863400727
114.589210207
113.272492029
111.912221275
110.507338275
109.056741794
107.559271666
106.013698796
104.418710743
102.772895866
101.074725168
99.3225343211
97.5145096813
95.6486817208
93.7229361169
91.7350586283
89.6828432998
87.5643108034
85.3781285065
83.1243651528
80.8057782608
78.4299165034
76.0123779766
73.5800376555
71.1722515791
146.060665936
145.910654872
145.723896424
145.507786732
145.268075017
145.015246959
144.75660205
144.495855234
144.234479229
143.972547765
143.709320066
143.443672746
143.17436529
142.900176389
142.619962459
142.332673542
142.037348004
141.733098397
141.419095062
141.094550742
140.758707432
140.410825796
140.050176955
139.67603547
139.287677777
138.884373374
138.465387393
138.029976803
137.57738945
137.106863479
136.617627019
136.108897958
135.579883991
135.02978285
134.457782564
133.86306175
133.244790062
132.602128433
131.934229963
131.240241084
130.51930339
129.770550243
128.993108476
128.186101236
127.34864769
126.4798633
125.578860393
124.644748596
123.676635188
122.673625383
121.634822653
120.559327991
119.446239651
118.294652675
117.103657937
115.872340366
114.599777593
113.285034489
111.927164423
110.525198062
109.078144594
107.58498448
106.044662957
104.45608352
102.818101858
101.12952269
99.3891005997
97.5955498211
95.7475690308
93.8438933702
91.8833905278
89.8652306944
87.7891680912
85.6560149369
83.4683846007
81.2318103191
78.9563280229
76.6585423387
74.3631321378
72.1021048568
146.01838941
145.868940831
145.692522575
145.488780329
145.259242385
145.013527644
144.759160352
144.50051386
144.239798299
143.977694764
143.713887428
143.447518466
143.177496361
142.902672375
142.621929697
142.334220041
142.038571222
141.73408059
141.419902701
141.09523591
140.759310023
140.411375832
140.050696743
139.676542289
139.288181491
138.884883818
138.465911284
138.030519141
137.577954239
137.107454179
136.618246756
136.109549896
135.580571498
135.030509669
134.458553014
133.863880939
133.245664227
132.603065586
131.935240502
131.241337519
130.520497005
129.771855946
128.994546191
128.187695319
127.350427563
126.481864596
125.58112632
124.647331606
123.679598977
122.67704728
121.638796268
120.563967008
119.451682216
118.301066996
117.111248084
115.881353972
114.610515475
113.297860769
111.942523712
110.543634392
109.100321875
107.611712503
106.076930144
104.495098141
102.865343605
101.186806247
99.4586555591
97.6801204314
95.8505379341
93.9694352785
92.0366576967
90.052572061
88.0183734149
85.9365530744
83.8115573724
81.6506814083
79.4651748631
77.2714492421
75.0915478276
72.9516490833
145.999112754
145.849234019
145.67726847
145.479329096
145.254762642
145.012637371
144.760495104
144.502978263
144.242642548
143.980472198
143.716372
143.449626249
143.179225362
142.90406178
142.62303475
142.335098
142.039274334
141.734653259
141.420380986
141.095648185
140.759678109
140.41171622
140.051021692
139.676860757
139.288501081
138.885209421
138.466246854
138.030867903
137.578318971
137.107837564
136.618651433
136.109978698
135.581027639
135.030996895
134.459075816
133.864444779
133.24627571
132.603732658
131.935972263
131.242144422
130.521393946
129.772860229
128.995678389
128.188980327
127.351895612
126.483552437
125.583078578
124.649602456
123.682254173
122.680166659
121.642476803
120.568326431
119.456863736
118.307243812
117.118631073
115.890199665
114.62113474
113.310634237
111.957910415
110.562193975
109.12273343
107.63880213
106.109703873
104.534780705
102.91342679
101.245107967
99.5293916235
97.7659913228
95.954832383
94.0961524466
92.1906437291
90.2396755026
88.2455876852
86.2121337015
84.1450212256
82.0525949087
79.9465777145
77.8427236378
75.7607220713
73.7224965602
145.999115068
145.849249814
145.677295237
145.479365131
145.254807188
145.012689603
144.760554098
144.503043189
144.242712707
143.980547007
143.716450984
143.449709026
143.179311638
142.904151356
142.62312749
142.33519383
142.039373249
141.734755308
141.420486275
141.09575688
140.759790449
140.411832529
140.051142396
139.6769864
139.288632391
138.88534715
138.466391949
138.031021522
137.578482504
137.10801254
136.618839879
136.110183051
135.581250856
135.031242577
134.459348287
133.864749303
133.246618649
132.604121727
131.936417014
131.242656783
130.52198792
129.773552834
128.996490397
128.189937001
127.353027612
126.484896986
125.584680896
124.651517467
123.684548566
122.682921367
121.645790006
120.572317163
119.461676796
118.313054985
117.125652915
115.898690404
114.631406952
113.323068806
111.972967671
110.580435124
109.144836983
107.665591486
106.142177658
104.574149653
102.961157439
101.302973854
99.599531876
97.850981086
96.0577671407
94.2207401994
92.3413293316
90.4218357474
88.4653725764
86.4765619119
84.4619193786
82.4303461652
80.3936279313
78.3667818535
76.3677100163
74.4155048906
146.018396411
145.868988596
145.692603481
145.488889182
145.25937688
145.013685101
144.75933797
144.50070917
144.240009212
143.977919543
143.71412465
143.447766999
143.177755335
142.902941198
142.622207962
142.334507535
142.038867936
141.734386677
141.420218477
141.095561878
140.759646897
140.411724574
140.051058592
139.67691889
139.288574928
138.885296346
138.466345698
138.030978802
137.578443196
137.107977291
136.618809979
136.110160415
135.581238056
135.031242934
134.459365938
133.864789353
133.246687381
132.604226829
131.93656783
131.242864691
130.522266752
129.773919434
128.996965269
128.190545066
127.35379914
126.485868718
125.58589745
124.653033029
123.686428931
122.685246348
121.648656408
120.575842704
119.466003667
118.318355988
117.132137891
115.906613246
114.641075983
113.334857504
111.987327843
110.597910389
109.166092439
107.6914273
106.173558924
104.612239202
103.007353483
101.358957714
99.6673382592
97.9330799839
96.1570715253
94.3406883314
92.4859070465
90.5954114804
88.6731787232
86.7244666717
84.7562666025
82.777731265
80.8005335872
78.839077471
76.9100793199
75.0309786685
146.060677822
145.910735739
145.724033126
145.507970241
145.26830129
145.015511357
144.756899823
144.496182237
144.234831974
143.972923358
143.709716152
143.444087466
143.174797234
142.900624567
142.620426214
142.333152549
142.03784225
141.733608143
141.41962085
141.095093423
140.759268214
140.411406279
140.050779099
139.676662083
139.288331879
138.885058868
138.466108904
138.030739857
137.578200713
137.107730992
136.61856049
136.109909158
135.580987212
135.030995462
134.459125666
133.864561071
133.246477023
132.604041711
131.936416887
131.242758822
130.522219251
129.773946475
128.997086539
128.190784503
127.354185874
126.486438129
125.586692493
124.654105848
123.687842848
122.687078187
121.650999159
120.578809528
119.469731503
118.323010878
117.137920711
115.913767486
114.649896764
113.345700632
112.00062537
110.614183111
109.185965283
107.715659158
106.203064631
104.648121623
103.050944428
101.411847123
99.7313842626
98.01041502
96.2502601444
94.4527341101
92.6202918182
90.7561946746
88.8647511245
86.9515629054
85.023848486
83.0907793965
81.1637960938
79.2568440402
77.3860548127
75.568341769
146.134762879
145.979253232
145.773027908
145.536527221
145.281105916
145.017872266
144.753296995
144.489819559
144.227711855
143.966147044
143.703791963
143.439170847
143.170854548
142.897535023
142.618040503
142.331323741
142.036440089
141.732523968
141.418767621
141.094403465
140.758690129
140.410901796
140.050320273
139.676228972
139.28790979
138.88463823
138.465683274
138.030305147
137.57775462
137.107272565
136.61808983
136.109427251
135.580495857
135.030497234
134.45862398
133.864060276
133.245982534
132.603560241
131.935956726
131.242330131
130.521834452
129.773620697
128.996838206
128.190636016
127.354164471
126.486576933
125.587031727
124.654694313
123.688739784
122.68835554
121.652744133
120.581127725
119.472750892
118.326886882
117.142841273
115.919959889
114.657636044
113.355319103
112.0125252
110.628849137
109.20398154
107.737726774
106.230023698
104.680972317
103.090864612
101.460239862
99.7899328805
98.0811269684
96.3354335334
94.5549945361
92.7426081457
90.9018741539
89.0373738295
87.1548811
85.2616249882
83.3665887375
81.4808513783
79.617981461
77.7939887478
76.0262815122
146.257885692
146.082114606
145.84102133
145.573776507
145.296660236
145.020081923
144.748441945
144.481981356
144.219250106
143.958269407
143.697005465
143.433592169
143.166404838
142.894053283
142.615345127
142.329243095
142.034825486
141.731253186
141.417743731
141.093551617
140.757953747
140.41023892
140.049700335
139.675629836
139.287315783
138.884038693
138.465070971
138.029675393
137.577104633
137.106600987
136.617396394
136.108712583
135.579761396
135.029745185
134.457857356
133.86328295
133.245199327
132.602777072
131.935180889
131.241570616
130.521102353
129.772929645
128.996204887
128.1900808
127.35371214
126.486257609
125.586881971
124.654758458
123.689071594
122.689020269
121.653821013
120.582712403
119.47495954
118.329859732
117.146748428
115.925006679
114.664070517
113.363440806
112.02269527
110.641503337
109.219642537
107.757019875
106.253696812
104.709919885
103.126155883
101.503133494
99.8418959887
98.1438649059
96.4109150364
94.6454594941
92.850553363
91.0300138342
89.1885643362
87.331995414
85.467368033
83.6032753619
81.7502313867
79.9213161117
78.1325598312
76.4026356148
146.461284891
146.229657558
145.928373297
145.617497341
145.312745403
145.020795945
144.741881699
144.472806606
144.209888991
143.949840322
143.689901547
143.427836387
143.161853276
142.890503936
142.612592345
142.327102102
142.033141017
141.729900174
141.416624378
141.092591224
140.757096369
140.409443187
140.048936292
139.674876574
139.286557641
138.883265147
138.464274899
138.028852131
137.576251306
137.105716042
136.616479281
136.107763564
135.578781476
135.028736098
134.456821609
133.862223923
133.244121417
132.601685768
131.934082882
131.240473912
130.520016543
129.771866356
128.995178337
128.189108387
127.352815163
126.485462118
125.586219736
124.654268113
123.688800042
122.689024511
121.654170358
120.583490515
119.476268288
118.33182184
117.149512952
115.9287535
114.669015993
113.369845341
112.030872387
110.651829622
109.232570134
107.773090409
106.273556763
104.734336917
103.156037392
101.539547825
99.8860917913
98.197285809
96.475208707
94.7224783033
92.9423363925
91.1387406879
89.3164652336
87.4812069587
85.6397172058
83.7999899153
81.9716463908
80.1668408126
78.4010885881
76.6942446151
146.795339584
146.432167226
146.032422891
145.663551724
145.326036874
145.018019273
144.732725699
144.462079441
144.199755537
143.941128949
143.682783259
143.422188267
143.157445288
142.887088059
142.609941448
142.325023876
142.031479985
141.72853449
141.415460719
141.091559622
140.756145561
140.40853503
140.048044058
139.673980149
139.285643236
138.882323296
138.463299228
138.027838551
137.575197262
137.104620028
136.615340586
136.106582133
135.577557751
135.027470933
134.455516293
133.860880365
133.242742444
132.600275211
131.932645745
131.239016808
130.518548159
129.770396958
128.993720325
128.187676777
127.351428107
126.48414159
125.58499238
124.653166233
123.687862791
122.68829962
121.653715348
120.58337465
119.476575544
118.332653506
117.150991252
115.931026357
114.672263035
113.374283476
112.036762354
110.659484328
109.242364381
107.785471642
106.289057336
104.753587588
103.179781626
101.56865622
99.9215763766
98.2403121689
96.5271013285
94.7847161155
93.0165324063
91.226596795
89.4196854351
87.601349774
85.7779541145
83.9567155123
82.1459365627
80.3559986188
78.6001172263
76.8969454678
147.345112389
146.69117111
146.138990483
145.701505514
145.329993546
145.007983524
144.718958217
144.448785447
144.18837301
143.931934202
143.67558578
143.416647438
143.153208241
142.883842116
142.607428761
142.323040369
142.029868481
141.72717656
141.414268652
141.090469299
140.755110461
140.407521896
140.047024804
139.672939093
139.284569497
138.881209221
138.462139701
138.026630306
137.573938515
137.10330997
136.613979133
136.105169821
135.576095693
135.025960795
134.453960236
133.859280698
133.241100603
132.598593884
131.930928513
131.237267915
130.516772302
129.768601057
128.991913206
128.185869373
127.349633908
126.482377207
125.583278199
124.651527045
123.68632873
122.686906498
121.65250767
120.582406471
119.475912086
118.332374238
117.151191608
115.931821602
114.673790522
113.376708602
112.040284148
110.664341537
109.248842684
107.793912016
106.29986559
104.767244818
103.196855257
101.589810773
99.9475831556
98.272056353
96.5655836718
94.8310509737
93.0719318585
91.292336304
89.4970372074
87.6914634815
85.8816323692
84.0739318188
82.2750226681
80.4924644725
78.7333715695
77.0064397558
148.340349711
146.982532743
146.19178341
145.691936944
145.301092177
144.977331202
144.692913624
144.428400963
144.172991657
143.920539499
143.667218875
143.410517438
143.148698949
142.880487309
142.604882037
142.321047873
142.028246462
141.725793223
141.413030887
141.08931073
140.753973501
140.406369638
140.045847363
139.67172342
139.28330631
138.879892596
138.460765359
138.02519294
137.572434508
137.101737223
136.612336154
136.103455449
135.574309041
135.024101269
134.452027614
133.857275669
133.2390267
132.596453622
131.928724524
131.235003694
130.514452518
129.766230897
128.989498882
128.183418496
127.347155797
126.479883294
125.580782469
124.649046533
123.683884111
122.684523163
121.650215971
120.580243534
119.473922068
118.33061092
117.149719882
115.930720061
114.673155369
113.37665439
112.040948172
110.665888425
109.251469317
107.797852934
106.305398893
104.774698474
103.206613781
101.602322105
99.9633651888
98.2917010492
96.5897562867
94.8605053615
93.1074962693
91.3348972642
89.547513178
87.7507614083
85.9505389904
84.1527126123
82.3628118814
80.5855996896
78.8158790834
77.0241447788
150.133458035
147.20535902
146.091828482
145.564753929
145.197649404
144.903070493
144.641606628
144.39323371
144.148870206
143.903949347
143.655776338
143.402598489
143.143185648
142.876604097
142.602088933
142.318968754
142.026619682
141.724437038
141.411818219
141.088155816
140.75284429
140.405244188
140.044686635
139.670506524
139.282021872
138.878533656
138.459328218
138.023680713
137.570848905
137.10007847
136.610604504
136.101651309
135.57243289
135.022153634
134.450009019
133.855186358
133.236865777
132.594221196
131.926421356
131.232630854
130.512011462
129.763723728
128.986928483
128.180788558
127.344470868
126.477148954
125.578005604
124.646235887
123.681050273
122.68167892
121.647376597
120.577428085
119.471153524
118.327916905
117.147133843
115.928281865
114.670912439
113.374664401
112.039280418
110.664625866
109.250711071
107.797717233
106.306026529
104.776256709
103.209300602
101.606370619
99.9690483334
98.2993412646
96.5997464891
94.87326958
93.1235157817
91.3547221467
89.5717777684
87.7802013699
85.9860389556
84.1957875015
82.4158677875
80.6510631754
78.88091425
76.980964592
56.9340760494
53.3819453132
50.9905002719
49.033080467
47.3610458722
45.9042273349
44.6186415929
43.4745820203
42.4503741066
41.5292685361
40.6978551207
39.9451241201
39.2618693125
38.640287557
38.0736956131
37.5563215624
37.083146533
36.6497813814
36.2523688771
35.8875046875
35.5521727396
35.2436918358
34.9596709265
34.6979714791
34.4566756677
34.2340590002
34.0285670782
33.8387954411
33.663472195
33.5014429412
33.3516576125
33.2131590181
33.0850728761
32.9665989576
32.8570034025
32.7556117707
32.6618030006
32.5750037334
32.4946829544
32.4203467097
32.351532096
32.2877984109
32.2287240362
32.1739869263
32.1236138948
32.0771865165
32.0342975311
31.9945688599
31.9577607372
31.9236624355
31.8920722005
31.8627993613
31.8356687398
31.8105333098
31.7872418789
31.7656326671
31.745569757
31.7269332799
31.7096104205
31.6934808456
31.6784423537
31.6644022512
31.6512748484
31.6389818665
31.6274501329
31.6166136253
31.606411831
31.5967873821
31.5876872128
31.5790648984
31.5708739649
31.5630754696
31.5556299587
31.5485076092
31.5416705007
31.5350994333
31.5287590959
31.5226305263
31.5166928165
31.5109227791
31.5053042531
31.4998214319
31.4944571872
31.4891989402
31.4840363043
31.4789617978
31.4739675345
31.4690404215
31.4641709708
31.4593491574
31.4545678224
31.4498217448
31.4451169516
31.4404541164
31.4358109984
31.4311798126
31.4265561019
31.4219355983
31.4173140421
31.4126874511
31.4080519837
31.4034038626
31.3987393274
31.3940548207
31.3893469613
31.3846124634
31.3798482828
31.3750515483
31.3702195651
31.3653497723
31.3604396873
31.3554869212
31.3504892494
31.3454446523
31.3403513282
31.3352077189
31.3300125398
31.324764835
31.3194639751
31.3141093414
31.3087004033
31.3032364015
31.2977141363
31.2921195608
31.2864262071
31.2805528287
31.2750921591
31.2698654766
31.2645272894
31.2591593261
31.2538496853
31.2486660089
31.2436599136
31.2388859502
31.2344042416
31.2302717931
31.2265426391
31.2232567753
31.220428785
31.218006146
31.2162308442
31.214714246
31.213331309
31.2114694747
31.2074079689
31.196872188
31.1697035403
31.1042242185
30.9591696597
30.6640260784
30.1136117207
29.1752198686
27.7164152479
25.6446984624
22.9341854271
19.6409672113
15.883396885
11.6293121804
6.60344588487
1.57045254638
60.1154361002
56.0626106717
53.3506187591
51.198260046
49.3963189769
47.8463884187
46.490255787
45.2906859791
44.2215024705
43.2630690588
42.4000427957
41.6200749971
40.9130072848
40.2703452831
39.6848952253
39.1505023595
38.6618566269
38.2143444806
37.8039332306
37.4270795836
37.0806557168
36.7618891742
36.4683134117
36.1977263406
35.9481558306
35.7178304646
35.5051545957
35.3086871158
35.1271233303
34.9592790972
34.8040772365
34.6605358068
34.5277576367
34.4049216825
34.291274886
34.1861256771
34.088837961
33.998826158
33.9155508099
33.8385155276
33.7672647422
33.7013828961
33.6404929016
33.5842240554
33.5320800875
33.4837987879
33.4391247999
33.3978120623
33.3596084371
33.3242720605
33.2915789957
33.2613218287
33.2333070437
33.2073520215
33.1832899445
33.1609707961
33.1402546921
33.1210057982
33.1030998563
33.0864348476
33.0709085789
33.056425206
33.0428962387
33.0302412235
33.0183856907
33.0072585403
32.9967935755
32.9869294436
32.9776178829
32.9687976461
32.9604339352
32.9524762548
32.9448904827
32.9376403427
32.9306973572
32.9240257614
32.9176007625
32.9113982367
32.9053910748
32.8995642108
32.8938942475
32.8883665634
32.8829660631
32.8776787994
32.8724906225
32.8673830703
32.8623435111
32.8573671655
32.8524444009
32.8475683299
32.8427316036
32.837925606
32.8331416939
32.828373933
32.823620779
32.8188802463
32.8141490679
32.8094229387
32.8046975696
32.7999692783
32.7952341528
32.7904886384
32.7857289085
32.7809516369
32.7761533651
32.7713308231
32.7664810004
32.7616009784
32.7566879735
32.7517394544
32.7467527668
32.7417255047
32.7366553805
32.731540368
32.7263786663
32.7211688865
32.715910015
32.7106014484
32.705243544
32.6998368042
32.6943827663
32.6888845272
32.6833462867
32.6777748807
32.6721943907
32.6666129883
32.6610799612
32.6554291354
32.6498384477
32.6444693292
32.639192663
32.634076208
32.6291945463
32.624609072
32.6203905223
32.6166106137
32.6133427679
32.6106302567
32.6085336666
32.6070607202
32.6062355272
32.6058832432
32.6057131971
32.6048868119
32.6011582027
32.5892761261
32.5570884015
32.4796554317
32.3107299236
31.9734523541
31.3565119264
30.3242098632
28.747224583
26.542899209
23.6972343364
20.2708084354
16.3799714981
12.0078367069
6.8928991406
1.70411650485
62.322871879
58.3894202454
55.5222631355
53.2383335425
51.3363766083
49.7099167526
48.2939221646
47.0463768276
45.9378557787
44.9464948434
44.0553937406
43.2510952272
42.5226393109
41.8609439202
41.2583791085
40.7084625665
40.2056354652
39.7450929942
39.3226536336
38.9346566934
38.5778803624
38.2494758477
37.9469134877
37.6679382028
37.4105325697
37.1728858608
36.9533677751
36.7505063237
36.5629688121
36.3895456194
36.2291361296
36.080736697
35.9434300669
35.8163763893
35.6988051362
35.5900082911
35.4893342512
35.3961825512
35.3099989474
35.2302714615
35.1565264071
35.0883241185
35.0252578655
34.9669560757
34.9130199581
34.8629844715
34.8167139046
34.7739436578
34.7343951525
34.6978165675
34.663977335
34.6326638676
34.603678726
34.5768398762
34.5519778484
34.5289335558
34.5075610982
34.4877217265
34.4692812813
34.4521287765
34.4361580226
34.4212696851
34.4073718413
34.3943788613
34.3822100967
34.3707954128
34.3600707617
34.3499713271
34.3404459966
34.3314330055
34.3228949917
34.3147802879
34.3070500502
34.299668188
34.2925996537
34.2858178423
34.2792879446
34.272991277
34.2668992983
34.260990841
34.2552442898
34.2496464577
34.244177233
34.2388147561
34.2335538715
34.2283847303
34.2232964841
34.2182793183
34.2133213515
34.2084135037
34.2035478694
34.1987174462
34.1939163776
34.189138582
34.1843777394
34.1796289524
34.1748879898
34.1701504233
34.1654118404
34.1606682648
34.1559156576
34.1511503501
34.1463685308
34.1415667041
34.136741443
34.1318894142
34.1270075851
34.1220931001
34.1171431936
34.1121553998
34.1071271902
34.1020562779
34.0969405539
34.0917781923
34.0865675812
34.081307597
34.0759975956
34.0706373148
34.0652275367
34.0597695778
34.0542658731
34.0487206633
34.0431398122
34.037531725
34.0319162974
34.026296494
34.0206907228
34.0151258323
34.0096659009
34.0042559358
33.9989393864
33.9938188239
33.9890175781
33.9845846967
33.9805955448
33.9771330119
33.9742930511
33.9720915455
33.970630396
33.9699357211
33.9699976604
33.9706451846
33.9714721654
33.9713790373
33.9675486177
33.9536931266
33.9156385431
33.8251779017
33.6312870973
33.2512482285
32.5684612052
31.4451873122
29.7556731907
27.4263834589
24.453437657
20.9000878156
16.8793706662
12.3889231661
7.18198532471
1.83557920028
64.1270526405
60.4023315441
57.4983412299
55.1431658244
53.1730864196
51.4887645671
50.0250373888
48.7380229062
47.5964700966
46.5770501684
45.6617458559
44.8362634086
44.0890192892
43.4104659825
42.7926246698