/*--------------------------------*- C++ -*----------------------------------*\
| =========                 |                                                 |
| \\      /  F ield         | OpenFOAM: The Open Source CFD Toolbox           |
|  \\    /   O peration     | Version:  2106                                  |
|   \\  /    A nd           | Website:  www.openfoam.com                      |
|    \\/     M anipulation  |                                                 |
\*---------------------------------------------------------------------------*/
FoamFile
{
    version     2.0;
    format      ascii;
    arch        "LSB;label=32;scalar=64";
    class       volScalarField;
    location    "0.32";
    object      p;
}
// * * * * * * * * * * * * * * * * * * * * * * * * * * * * * * * * * * * * * //

dimensions      [0 2 -2 0 0 0 0];

internalField   nonuniform List<scalar> 
11200
(
150.065179976
147.136578003
146.02272652
145.495394312
145.128063377
144.83328359
144.571638235
144.32309808
144.078577845
143.833507842
143.58519089
143.331872266
143.072319931
142.805598278
142.530940427
142.24767295
141.955170033
141.652825695
141.340041129
141.016228195
140.680763145
140.332996966
139.972271331
139.597918398
139.2092526
138.805572633
138.386162294
137.950291157
137.497215309
137.026177981
136.536410129
136.027130942
135.497547962
134.946857305
134.374244341
133.778884851
133.159944891
132.516580981
131.847940541
131.153162299
130.431376603
129.681705636
128.903263609
128.095156843
127.256483709
126.386334407
125.483790504
124.547924196
123.577797194
122.572459171
121.530945613
120.452274983
119.335445006
118.179427861
116.983164015
115.745554383
114.4654504
113.141641519
111.772839416
110.357658135
108.894589071
107.381969389
105.817941717
104.200405463
102.526950635
100.794772007
99.000559093
97.1403518569
95.2093461726
93.2016273125
91.1098061042
88.9245228923
86.6335792073
84.2207886641
81.6640652505
78.9317486577
75.9762388681
72.7249592555
69.0241819261
64.2608795861
148.272138145
146.913963818
146.122991699
145.622976393
145.231986925
144.908102947
144.623580169
144.358976077
144.103486147
143.850961943
143.597576117
143.340815044
143.078941648
142.810679435
142.53502795
142.251152361
141.95831527
141.655833854
141.343049675
141.019300881
140.683937282
140.336283397
139.975695534
139.601505555
139.213017468
138.809524245
138.390306848
137.954633025
137.501757572
137.030922737
136.541358481
136.032282437
135.502900276
134.952411762
134.380004229
133.78485346
133.166125244
132.522976061
131.854553346
131.159995899
130.438434213
129.688990689
128.910779856
128.102908462
127.264475453
126.394571768
125.492279924
124.556673328
123.586815221
122.581757176
121.540537061
120.462176301
119.34567631
118.190013845
116.994135062
115.756947934
114.477312659
113.154029556
111.785823803
110.371326347
108.909050082
107.397359783
105.834431758
104.218203045
102.546305944
100.815999859
99.0240692386
97.166676681
95.2391828296
93.2359029678
91.1497681957
88.9718222188
86.6905175587
84.2907183397
81.7520291921
79.0459416461
76.1316576004
72.951343272
69.4022090118
65.2894007524
147.27694793
146.622747292
146.070390926
145.632772205
145.2611472
144.939044059
144.649942596
144.379706914
144.11924198
143.862758896
143.606372642
143.347401484
143.083933346
142.814541229
142.538104038
142.253693139
141.960498897
141.657782722
141.344846325
141.021012854
140.685620245
140.338028928
139.9774949
139.603364505
139.214945656
138.811528768
138.392392503
137.956803523
137.50401632
137.033273373
136.543805518
136.034832635
135.50556381
134.955191626
134.382898328
133.787862084
133.169249825
132.526218553
131.85791655
131.163483451
130.442050607
129.692741348
128.9146713
128.106948517
127.268673515
126.398939144
125.496830256
124.561423106
123.591784426
122.586970073
121.546023191
120.467971677
119.351824857
118.19656917
117.001162595
115.764527553
114.485541942
113.163027913
111.795737602
110.38233514
108.921373544
107.411266002
105.850248559
104.236352574
102.567340695
100.840619042
99.0531459422
97.2013229204
95.2808359376
93.2864464595
91.2117049186
89.0485486694
86.7868830283
84.4137922316
81.9125553705
79.2613125843
76.4320909852
73.3932761801
70.1088914752
66.5559176396
146.727186773
146.363805209
145.963906525
145.594915026
145.257296891
144.949192649
144.663827182
144.393120811
144.130746148
143.872076193
143.613692887
143.353064657
143.088291642
142.817906548
142.540733279
142.255789305
141.962218303
141.659244082
141.346139517
141.022204698
140.686748704
140.339081383
139.978561533
139.604466012
139.216084103
138.812708099
138.393616414
137.958074479
137.505335662
137.034641427
136.545221441
136.036293783
135.507065807
134.956735829
134.384493685
133.789513864
133.170964267
132.528002649
131.859776308
131.16542534
130.444081895
129.694870315
128.91690767
128.109303881
127.271161794
126.401577158
125.499638393
124.564426127
123.595012437
122.590459678
121.549818826
120.472127342
119.356406267
118.201656381
117.006853316
115.770941361
114.492825476
113.171361068
111.805341211
110.39348035
108.934397143
107.426593772
105.86840943
104.257984902
102.593218729
100.871712213
99.0906900929
97.2469004069
95.3364901637
93.3548494988
91.2964215116
89.1544770048
86.9207845502
84.5853023489
82.135941595
79.5586045157
76.8385464941
73.9660611004
70.9447475009
67.8117859698
146.393138879
146.161343176
145.859930107
145.548951938
145.244110891
144.952085571
144.673107735
144.403979129
144.141016136
143.880928603
143.620956094
143.35886117
143.092851286
142.821477348
142.543542648
142.258030211
141.9640474
141.660785008
141.347487728
141.023432968
140.687915865
140.340240112
139.979709371
139.605613056
139.217254023
138.813915944
138.394872003
137.959385217
137.506707611
137.036080088
136.5467324
136.037883309
135.508740662
134.95850113
134.386350792
133.791465966
133.173012124
132.53014721
131.862021847
131.167776559
130.44654599
129.697456811
128.919628538
128.112173871
127.274198921
126.404803296
125.503080045
124.568115395
123.598988173
122.594768935
121.554519218
120.47728914
119.362115126
118.208016731
117.01399239
115.77901365
114.502017884
113.181901468
111.817506747
110.407614284
108.950921434
107.446016395
105.891362104
104.285263976
102.625828339
100.910913261
99.1380713096
97.3044806574
95.406861822
93.4413806257
91.4035404697
89.2880770032
87.0888819433
84.7990366464
82.4111204663
79.9181245295
77.3158528556
74.6087475583
71.8181689736
68.9948134576
146.18974645
146.013844188
145.772648813
145.505322027
145.228133649
144.951493558
144.679801705
144.413297565
144.150529583
143.889517675
143.62822692
143.364790253
143.097582194
142.825211902
142.546486473
142.260368202
141.965935046
141.662347612
141.348823174
141.024615954
140.689002567
140.34127115
139.98071231
139.606616319
139.218272612
138.814960438
138.395950334
137.960503269
137.507869766
137.037289475
136.547991157
136.039192744
135.510101513
134.959914264
134.387817724
133.792989225
133.174597298
132.531801699
131.863753718
131.16959773
130.448469242
129.699495649
128.921798553
128.114493229
127.276689203
126.407490624
125.505996173
124.57129895
123.602486258
122.598639109
121.558830822
120.482126303
119.367580024
118.214233546
117.021112395
115.787222432
114.511545404
113.19302868
111.830581768
110.423055123
108.969232922
107.467822736
105.917441143
104.316572058
102.663548386
100.956520312
99.1934170749
97.371905116
95.4893445453
93.5427496349
91.5287644055
89.44367744
87.2835225371
85.0443584815
82.7229004672
80.3177970543
77.8321161072
75.2780117767
72.6824321674
70.0924743774
146.066629727
145.911021926
145.704719596
145.468156679
145.212680441
144.949399696
144.684785012
144.421274732
144.15913962
143.897551835
143.635177342
143.370539628
143.102208913
142.828876647
142.549370654
142.262643354
141.967749819
141.663824224
141.35005856
141.025684933
140.68996153
140.342161933
139.981567315
139.607460138
139.219121546
138.815825821
138.396840648
137.961424807
137.508827308
137.038286941
136.549032083
136.040280634
135.511240128
134.961108104
134.389072498
133.794311544
133.175994196
132.533281028
131.865324238
131.171267414
130.450245965
129.701391117
128.923828875
128.116678827
127.279055267
126.410067638
125.508821007
124.574416278
123.605950231
122.60251528
121.563198873
120.487083286
119.373244198
118.220749006
117.028654475
115.796003368
114.521820103
113.205109824
111.844846799
110.439971076
108.989381522
107.491918209
105.946352028
104.351370431
102.705561645
101.007396514
99.2552108234
97.4471908434
95.5813668933
93.6556246238
91.6677499368
89.615536996
87.4970064917
85.310825802
83.0570638103
80.7384782464
78.3626181407
75.9450820048
73.5127454371
71.1049647192
145.99255011
145.842539859
145.655783842
145.439677881
145.199971076
144.947148951
144.688510833
144.427771506
144.166403533
143.904480512
143.641261578
143.375623297
143.10632515
142.832145893
142.551942006
142.264663641
141.969349304
141.665111668
141.351121198
141.026590729
140.690762297
140.342896562
139.982264581
139.608140795
139.219801488
138.81651596
138.397549132
137.962157743
137.509589445
137.039082231
136.549864078
136.041152823
135.512156184
134.96207194
134.390088192
133.795383657
133.177128125
132.534482635
131.866600355
131.172627768
130.451706483
129.702969846
128.925544581
128.118553769
127.281116415
126.412347826
125.511360171
124.57726294
123.609163301
122.606166419
121.567375735
120.49189226
119.378814393
118.227237247
117.036251607
115.804942559
114.532387522
113.217652328
111.859789641
110.457830604
109.010784118
107.517630696
105.977315922
104.38874292
102.750767303
101.062193748
99.3217768514
97.5282307422
95.6802539688
93.776581661
91.8160816458
89.7979242139
87.7218636193
85.5887121592
83.4010833905
81.1645108779
78.8890310106
76.5912487546
74.295844134
72.0348248102
145.95027379
145.800826019
145.624410173
145.420671624
145.191138545
144.945429687
144.691069131
144.432430069
144.171722479
143.909627335
143.64582873
143.379468794
143.109455993
142.834641673
142.553909086
142.266210037
141.970572491
141.666093919
141.351928984
141.027276129
140.691365192
140.343446949
139.982784747
139.608648001
139.220305549
138.817026683
138.398073226
137.962700177
137.510154212
137.039672777
136.550483577
136.041804445
135.512843313
134.962798344
134.390858207
133.796202438
133.178001923
132.535419474
131.867610647
131.173724046
130.452900039
129.704275596
128.926982471
128.120148132
127.282896652
126.414349545
125.513626559
124.579846431
123.612127595
122.609588822
121.571349791
120.496531622
119.38425726
118.233651637
117.043841667
115.813955972
114.543124364
113.230478165
111.875148548
110.476266664
109.032961189
107.544358504
106.009582771
104.427757196
102.798008698
101.119477009
99.3913315766
97.6128011384
95.7832226501
93.9021233249
91.9693485031
89.9852651679
87.9510684867
85.8692498996
83.7442558312
81.583381857
79.3978782609
77.2041568442
75.0242621725
72.8843732274
145.930997377
145.781119446
145.609156282
145.411220564
145.186658926
144.944539482
144.692403893
144.434894419
144.174566613
143.912404594
143.648313088
143.381576347
143.111184771
142.836030874
142.555013986
142.26708791
141.971275596
141.66666667
141.35240745
141.027688677
140.691733628
140.343787741
139.983110122
139.608966885
139.22062552
138.817352603
138.398409015
137.963049046
137.510518949
137.040056046
136.550888038
136.042232952
135.513299092
134.963285171
134.391380598
133.796765867
133.178613034
132.536086234
131.868342177
131.174530816
130.453796962
129.705279968
128.928114866
128.121433427
127.284365073
126.416037823
125.515579304
124.582117794
123.614783307
122.612708699
121.575030787
120.500891481
119.389438919
118.239828649
117.051224847
115.822801691
114.553744685
113.243251548
111.890534962
110.494825705
109.055372137
107.57144774
106.042356082
104.467439275
102.846091423
101.177778348
99.4620673482
97.6986717971
95.8875168917
94.0288402383
92.1233341389
90.1723679322
88.1782818089
86.144829466
84.0777185222
81.9852941752
79.8792800132
77.775430464
75.6934360188
73.6552211553
145.930999971
145.781135516
145.609183294
145.411256803
145.18670362
144.944591799
144.692462908
144.434959303
144.174636665
143.912479239
143.648391864
143.381658898
143.111270833
142.836120261
142.555106585
142.267183675
141.971374531
141.666768836
141.352512954
141.02779768
140.691846355
140.343904494
139.983231295
139.609092992
139.220757252
138.817490687
138.39855437
137.963202806
137.510682509
137.040230953
136.551076309
136.042437044
135.51352198
134.963530462
134.391652665
133.797069994
133.178955599
132.536474979
131.868786673
131.175043006
130.454390871
129.705972617
128.928927014
128.122390322
127.285497382
126.417382785
125.517182127
124.584033366
123.617078259
122.61546391
121.578344428
120.504882703
119.394252345
118.24563978
117.058246635
115.831292396
114.564017422
113.25568589
111.905591825
110.513066385
109.077475231
107.598236596
106.074829443
104.506807846
102.893821788
101.235643956
99.5322071203
97.7836607338
95.9904504385
94.1534265182
92.274019519
90.3545290397
88.398067214
86.409257665
84.3946161769
82.3630444787
80.3263286658
78.2994864465
76.3004207758
74.3482250334
145.950281625
145.800874603
145.624491815
145.420781087
145.191273489
144.945587407
144.691246819
144.432625254
144.171933077
143.909851626
143.64606534
143.379716661
143.109714331
142.834909935
142.554186938
142.266497337
141.970869268
141.666400353
141.352245403
141.027603017
140.691703221
140.343797011
139.983147993
139.609025986
139.220700247
138.817440273
138.398508414
137.963160275
137.51064326
137.040195653
136.55104625
136.04241416
135.513508869
134.963530454
134.391669919
133.797109649
133.179023961
132.536579752
131.868937238
131.17525075
130.45466963
129.706339238
128.929401999
128.122998587
127.286269192
126.418354893
125.518399159
124.58554949
123.618959224
122.617789501
121.581211459
120.508408617
119.398579594
118.250941135
117.064731634
115.839215135
114.573686051
113.267474221
111.919951704
110.530540959
109.098729968
107.624071713
106.106209981
104.544896556
102.940016745
101.29162662
99.6000135123
97.8657608754
96.0897565936
94.2733766999
92.4185965163
90.5281016733
88.6058705011
86.6571597296
84.6889605287
82.7104262804
80.7332302397
78.77177695
76.8427836689
74.9636909958
145.99256337
145.842622077
145.655921762
145.439862408
145.200198105
144.947413801
144.688808734
144.42809831
144.166755763
143.904855313
143.641656678
143.376036944
143.106756054
142.83259316
142.552405097
142.265142333
141.969843656
141.665621994
141.35164805
141.027134922
140.69132497
140.343479203
139.982869018
139.60876967
139.220457673
138.81720321
138.398271942
137.962921555
137.510400881
137.03994934
136.550796636
136.042162684
135.513257736
134.96328265
134.391429284
133.796880999
133.17881326
132.53639433
131.868786051
131.175144713
130.454622043
129.706366281
128.929523362
128.123238217
127.286656201
126.418924646
125.519194603
124.586622765
123.620373605
122.619621766
121.583554738
120.511375854
119.402307704
118.255596059
117.070514418
115.846369259
114.58250622
113.278317247
111.933248672
110.546813613
109.118602586
107.648303285
106.135715554
104.580779292
102.983608894
101.344517531
99.6640589663
97.9430936607
96.182942847
94.3854202262
92.55298044
90.6888849138
88.7974424062
86.8842546841
84.9565402895
83.0234712155
81.0964881267
79.1895371256
77.3187505937
75.5010428762
146.066648781
145.911139921
145.704916867
145.46841967
145.21300296
144.949774873
144.685205993
144.421735645
144.159635593
143.898078899
143.635732353
143.371120175
143.102813224
142.829503503
142.550019324
142.263313536
141.968441594
141.664538015
141.350795112
141.026445341
140.69074733
140.34297521
139.982410717
139.60833708
139.220036052
138.816782986
138.397846637
137.962487075
137.509954913
137.039490924
136.550325879
136.041680589
135.512766116
134.962784111
134.390927262
133.796379859
133.17831844
132.535912566
131.86832564
131.174715835
130.454237136
129.706040491
128.929275115
128.123089918
127.286635078
126.419063789
125.519534209
124.587211639
123.621270983
122.620899522
121.585300034
120.513694361
119.405327483
118.259472252
117.0754349
115.852561435
114.590245093
113.287935337
111.94514836
110.56147904
109.136618264
107.670370276
106.162673858
104.613628831
103.023526921
101.392908113
99.7226067629
98.0138057467
96.2681163259
94.4876804722
92.6752963564
90.8345637837
88.97006418
87.0875714494
85.1943146094
83.2992772137
81.4135384599
79.5506674149
77.726674461
75.9589686836
146.189771961
146.014001657
145.772910625
145.505669255
145.228557527
144.951984713
144.680351056
144.413897483
144.151173823
143.890201195
143.628945756
143.365541383
143.098363408
142.826021688
142.547323925
142.261232937
141.96682712
141.663267452
141.349771529
141.025593881
140.6900114
140.342312817
139.981791284
139.607738453
139.219442496
138.816183828
138.397234633
137.961857533
137.509305046
137.038819364
136.549632362
136.040965757
135.512031416
134.962031771
134.390160321
133.795602215
133.177534927
132.535129127
131.867549577
131.173956148
130.453504928
129.705349412
128.928641872
128.122534882
127.286183025
126.418744813
125.519384839
124.587276209
123.621603283
122.621564789
121.58637734
120.515279495
119.407536445
118.26244542
117.079342092
115.857608003
114.596679245
113.296056655
111.955318016
110.574132689
109.152278574
107.689662649
106.186346312
104.642575998
103.058818345
101.435801865
99.7745696931
98.0765432895
96.3435973693
94.5781449889
92.783241126
90.9627029221
89.1212539317
87.2646845748
85.4000557517
83.5359608133
81.6829138134
79.8539949983
78.0652350313
76.3353076469
146.393171532
146.161544981
145.86026294
145.5493904
145.244642955
144.952698939
144.67379095
144.404722807
144.141812724
143.881772083
143.621841781
143.359785531
143.093811782
142.822472307
142.544571161
142.259092028
141.965142811
141.661914676
141.348652489
141.024633878
140.689154473
140.341517562
139.981027705
139.606985646
139.218684806
138.815410666
138.396438857
137.961034473
137.508451827
137.037934434
136.548715176
136.04001659
135.511051289
134.961022434
134.389124298
133.79454291
133.17645675
132.534037583
131.866451372
131.17285931
130.452419048
129.704286117
128.927615376
128.121562586
127.28528623
126.417949556
125.518722872
124.586786167
123.621332096
122.62156942
121.586726929
120.516057878
119.408845204
118.264407582
117.082106562
115.861354701
114.601624452
113.3024608
111.963494635
110.584458526
109.165205772
107.705732832
106.206205904
104.666992586
103.088699319
101.472215679
99.8187650507
98.1299637862
96.4078906452
94.6551634501
92.8750238911
91.071429531
89.2491544374
87.4138953741
85.5724036094
83.7326731401
81.9043251405
80.099513704
78.3337543538
76.6269023543
146.727226592
146.364055021
145.964312891
145.595445106
145.257934706
144.949922494
144.664635119
144.393995752
144.131679329
143.873060728
143.614723484
143.354137389
143.089403778
142.819056442
142.541920322
142.257013921
141.963481965
141.660549246
141.347489149
141.023602653
140.688204084
140.340609864
139.980135948
139.60608965
139.217770793
138.814469148
138.395463447
137.960021068
137.507397871
137.036838424
136.547576414
136.038835032
135.509827389
134.959757062
134.387818756
133.793199122
133.175077556
132.532626824
131.865014064
131.171402106
130.450950629
129.702816732
128.926157414
128.120131065
127.283899315
126.416629214
125.517495717
124.585684487
123.620395135
122.620844795
121.586272059
120.515942159
119.409152512
118.265239272
117.083584953
115.863627477
114.604871353
113.306898761
111.969384393
110.592113043
109.174999815
107.718113832
106.221706216
104.686242971
103.112443242
101.501323738
99.8542493184
98.1729898863
96.4597830783
94.7174011455
92.9492198649
91.1592856278
89.3523745341
87.5340378812
85.7106399087
83.8893975824
82.0786131625
80.2886676622
78.532776409
76.82959207
147.276999739
146.623059272
146.070880844
145.633399233
145.261891675
144.939886995
144.650867836
144.380701906
144.120296903
143.863866045
143.607526047
143.348596591
143.085166769
142.815810561
142.539407735
142.255030563
141.961870669
141.659191587
141.346297414
141.022512707
140.687169364
140.339597129
139.979117058
139.605048949
139.216697369
138.813355334
138.39430412
137.958812952
137.506139177
137.035528352
136.546214889
136.037422603
135.508365181
134.958246756
134.386262533
133.791599299
133.173435573
132.530945382
131.863296787
131.169653173
130.449174768
129.701020847
128.924350322
128.118323708
127.282105202
126.414864958
125.515781645
124.584045341
123.618860855
122.619451621
121.585064364
120.514973913
119.408489119
118.264959891
117.083785245
115.864422592
114.606398549
113.309323538
111.972905841
110.596969923
109.181477773
107.726553817
106.232514036
104.699899753
103.129516458
101.522477946
99.8802558427
98.2047338987
96.4982653424
94.763735991
93.0046193476
91.2250251837
89.4297263433
87.6241516247
85.8143182083
84.006613865
82.2076990279
80.4251327834
78.6660288177
76.9390809528
148.272237356
146.914421267
146.123674138
145.623831011
145.232990619
144.909234943
144.624823467
144.360317602
144.10491569
143.852471454
143.599159234
143.342466678
143.080657572
142.812455868
142.536861153
142.253038246
141.960248873
141.65780852
141.345059957
141.021354551
140.686032801
140.338445255
139.977939973
139.603833589
139.215434436
138.812038903
138.392929913
137.957375664
137.504635186
137.033955565
136.544571827
136.035708118
135.506578402
134.956387096
134.384329778
133.789594152
133.171361581
132.528805061
131.861092755
131.167388941
130.446854991
129.698650713
128.921936044
128.115872893
127.279627176
126.412371131
125.513285947
124.581564772
123.616416209
122.617068246
121.582772747
120.512810825
119.406498991
118.263196406
117.082313312
115.863320946
114.605763321
113.309269275
111.97356986
110.598516838
109.18410442
107.730494709
106.238047275
104.70735334
103.139274927
101.534989226
99.8960378233
98.2243785017
96.5224379052
94.7931903629
93.0401837561
91.2675861774
89.4802024582
87.6834499191
85.8832255238
84.0853958344
82.295490302
80.5182715885
78.7485421624
76.9567912666
150.06534588
147.137247915
146.023719574
145.496648335
145.129548154
144.834974505
144.573516705
144.325150545
144.080794404
143.835881444
143.587716826
143.334547855
143.075144404
142.808572806
142.534068225
142.250959337
141.958622331
141.656452575
141.343847525
141.020199718
140.68490385
140.337320087
139.976779525
139.602616938
139.214150199
138.810680114
138.391492866
137.955863452
137.503049546
137.032296735
136.542840077
136.033903874
135.504702162
134.954439396
134.382311148
133.787504836
133.169200663
132.52657265
131.858789597
131.165016125
130.444413996
129.696143639
128.919365708
128.113242911
127.276942108
126.409636655
125.510509065
124.578754077
123.613582181
122.614223651
121.579933165
120.509995173
119.403730184
118.260502146
117.079726989
115.860882535
114.60352027
113.307279183
111.971902002
110.597254166
109.183346048
107.730358878
106.238674794
104.708911485
103.141961691
101.539037702
99.9017209786
98.2320189437
96.532428363
94.8059548423
93.0562035597
91.2874114512
89.5044676184
87.712890713
85.9187267879
84.1284731572
82.3485508604
80.5837441421
78.8135948392
76.9136361533
56.8667478224
53.3146304757
50.9231842877
48.9657764169
47.2937719943
45.8370052899
44.551493194
43.4075262134
42.3834245092
41.462431687
40.6311297543
39.8785012174
39.1953324865
38.5738141391
38.0072580192
37.4898891905
37.0166874757
36.5832641001
36.1857636431
35.8207846577
35.4853149584
35.1766777033
34.8924861915
34.6306062881
34.3891240984
34.1663186887
33.9606385682
33.7706817489
33.5951781898
33.4329747755
33.2830221416
33.144363353
33.0161242231
32.8975040672
32.7877678663
32.6862398156
32.5922966397
32.5053612826
32.4248964565
32.3503975198
32.2813839713
32.2174247697
32.158279505
32.1038488969
32.0536146517
32.0071333508
31.9640767466
31.9241974747
31.8872634853
31.8530539037
31.8213629322
31.7920070075
31.7648328812
31.7396477941
31.7162901651
31.6946178649
31.6745045508
31.6558124239
31.6384205081
31.622220251
31.6071107946
31.5929994555
31.5798012933
31.5674388989
31.555839863
31.5449378242
31.5346710127
31.5249824902
31.5158195514
31.5071341046
31.4988827281
31.4910255956
31.4835253439
31.4763472848
31.4694600612
31.4628353038
31.4564478136
31.4502738309
31.4442910141
31.4384795953
31.4328218534
31.4273003981
31.4219001637
31.4166073105
31.4114097506
31.4062952525
31.4012568224
31.3962822767
31.3913669641
31.3864935345
31.3816638044
31.3768688266
31.3720996062
31.3673661251
31.3626581769
31.3579650944
31.353288481
31.3486193028
31.3439611679
31.3393327423
31.3347057332
31.3300710213
31.3254225783
31.3207574951
31.3160736876
31.3113678572
31.3066366596
31.3018767658
31.2970847722
31.2922586199
31.2873981133
31.2825022494
31.2775677387
31.2725914653
31.2675726093
31.262510694
31.2574038831
31.2522518653
31.2470544479
31.2418080944
31.2365118731
31.2311497148
31.2256973101
31.2201144095
31.2147233295
31.2096917062
31.2046579544
31.1995255464
31.1943966615
31.1893312004
31.1843787605
31.1795929159
31.1750255544
31.1707388281
31.1668014028
31.1632775364
31.1602344961
31.1577354714
31.1558227312
31.1544692145
31.1540083347
31.1540787019
31.1546398268
31.1551799354
31.1541002269
31.147172345
31.1243619169
31.0638311229
30.9242213439
30.6348431056
30.0903482121
29.1577341298
27.7040454381
25.6362399056
22.9282223314
19.6362914403
15.8794675599
11.6267423255
6.6030168894
1.57042175824
60.0481101378
55.9952833041
53.2832951997
51.1309545333
49.3290504362
47.7791786436
46.4231258784
45.2236536282
44.1545796744
43.1962605354
42.3333454747
41.5534783222
40.8464935134
40.2038907066
39.6184715773
39.0840787383
38.5954012755
38.1478262179
37.737323
37.3603514834
37.0137877291
36.6948638078
36.4011174742
36.130350821
35.8805956414
35.650083909
35.4372227552
35.2405734281
35.0588329655
34.8908184935
34.7354535997
34.5917567149
34.4588311995
34.335855984
34.2220778208
34.1168053621
34.0194031629
33.9292865463
33.8459186296
33.7688084622
33.6975085086
33.631601848
33.5706457708
33.514159909
33.4618705827
33.4135070266
33.3687820842
33.3274192793
33.2891591427
33.2537614334
33.2210032056
33.1906742049
33.1625775585
33.1365389405
33.1123963979
33.0899956021
33.0691884358
33.0498546103
33.0318758707
33.0151407376
32.9995461901
32.984999661
32.9714102383
32.9586936378
32.9467736155
32.935580608
32.9250504536
32.9151237787
32.9057456853
32.8968660167
32.8884395043
32.8804241479
32.8727809769
32.8654744791
32.8584716522
32.8517430939
32.8452624304
32.8390045709
32.8329460415
32.8270673294
32.8213485056
32.815771565
32.8103225187
32.8049846576
32.7997555963
32.79461067
32.7895469936
32.7845512838
32.7796148496
32.7747299736
32.7698884074
32.7650847136
32.7603105083
32.755553255
32.750806431
32.7460688995
32.7413386253
32.7366109347
32.7318831147
32.7271441337
32.7223931197
32.7176315536
32.7128575538
32.7080697043
32.7032657065
32.698442245
32.6935963719
32.6887248295
32.6838242907
32.6788928643
32.6739304751
32.6689364234
32.6639067718
32.6588386415
32.6537321543
32.6485863706
32.6433996892
32.6381740356
32.6329100376
32.6276078344
32.6222760605
32.6169188829
32.6115575121
32.6061986472
32.6008126846
32.5953495042
32.5897183129
32.5845031481
32.5793174329
32.5741911247
32.5692178968
32.5644487848
32.5599400305
32.5557678184
32.5520070501
32.5487342027
32.5460347357
32.5439788306
32.5426406464
32.5420685526
32.5423434984
32.5433333121
32.5448349638
32.5461063055
32.5450298135
32.5363899789
32.5082011865
32.4353774215
32.2716330078
31.939995018
31.3290227453
30.3027030507
28.7311340247
26.531047589
23.6882268255
20.2634971282
16.3738812949
12.003622092
6.89142892261
1.70372807278
62.255552277
58.3220957566
55.4549466027
53.1710415784
51.2691289445
49.6427349555
48.2268264029
46.9793832052
45.8709743437
44.8797283482
43.9887372026
43.1845363767
42.4561589607
41.7945173178
41.191977339
40.6420545236
40.1391895054
39.6785784343
39.2560422945
38.8679236615
38.5110047178
38.1824412414
37.8797077407
37.6005532628
37.3429642622
37.1051333062
36.885432602
36.68239229
36.4946813886
36.3210914603
36.1605227042
36.0119720001
35.8745227438
35.7473353168
35.629639274
35.5207269977
35.4199470574
35.326699368
35.2404299354
35.1606263455
35.08681487
35.0185641651
34.9554691179
34.8969688122
34.8427760774
34.7926876997
34.7463783087
34.7035512181
34.6639380719
34.6272913843
34.5933822717
34.5619989522
34.5329455303
34.5060381284
34.4811067729
34.4579936891
34.4365407366
34.41661855
34.3981031222
34.3808788867
34.3648373324
34.3498755448
34.3359031723
34.3228371495
34.3105996754
34.2991186828
34.2883275554
34.2781649402
34.2685739315
34.2595021433
34.2509018814
34.2427294109
34.2349443168
34.2275100436
34.2203929128
34.2135614499
34.2069878419
34.2006466495
34.1945134027
34.1885665673
34.1827867613
34.1771533899
34.1716534639
34.1662684665
34.1609878599
34.1557932844
34.1506818416
34.145641056
34.1406618989
34.1357306598
34.1308460702
34.1259937165
34.1211514136
34.1163437711
34.1115609947
34.1067900923
34.1020273544
34.0972733732
34.0925234639
34.0877696487
34.0830071842
34.0782343348
34.073447749
34.0686434346
34.0638181711
34.0589696739
34.0540953666
34.0491916439
34.0442552032
34.0392844572
34.0342793147
34.029238417
34.0241583435
34.019037359
34.0138749077
34.0086700747
34.0034224676
33.9981324397
33.9928023772
33.9874339318
33.9820327864
33.9766032034
33.9711613095
33.9657055734
33.9602278061
33.9547933978
33.9495153429
33.944033017
33.9387155612
33.9334253614
33.9283782146
33.9235920934
33.9191199249
33.9150316788
33.9114098105
33.908349281
33.9059552867
33.9042867794
33.9034235106
33.9034450563
33.9043857298
33.9061269728
33.9083406213
33.9100226837
33.9084929187
33.8974841084
33.8630457643
33.7768276698
33.587831403
33.2132828997
32.5364893998
31.4193861537
29.7355787243
27.4108605264
24.4411276558
20.8899174791
16.8709384244
12.3829171243
7.17936356615
1.83479056221
64.0597396622
60.3350199362
57.4310437021
55.0759002835
53.1058729875
51.4216241765
49.9579888915
48.6710805475
47.5296418451
46.5103366779
45.5951401466
44.7697514628
44.0225805151
43.344074605