/*--------------------------------*- C++ -*----------------------------------*\
| =========                 |                                                 |
| \\      /  F ield         | OpenFOAM: The Open Source CFD Toolbox           |
|  \\    /   O peration     | Version:  2106                                  |
|   \\  /    A nd           | Website:  www.openfoam.com                      |
|    \\/     M anipulation  |                                                 |
\*---------------------------------------------------------------------------*/
FoamFile
{
    version     2.0;
    format      ascii;
    arch        "LSB;label=32;scalar=64";
    class       volScalarField;
    location    "0.435";
    object      p;
}
// * * * * * * * * * * * * * * * * * * * * * * * * * * * * * * * * * * * * * //

dimensions      [0 2 -2 0 0 0 0];

internalField   nonuniform List<scalar> 
11200
(
150.099359782
147.170758553
146.056909645
145.529581615
145.16225632
144.867483545
144.605846463
144.357315766
144.112806107
143.867747746
143.619443477
143.366138559
143.106600935
142.839894968
142.565253724
142.282003711
141.989519043
141.687193661
141.374428657
141.05063576
140.715191223
140.367445914
140.006741438
139.632409914
139.243765733
138.840107559
138.420719173
137.984870128
137.531816506
137.060801538
136.571056195
136.061799662
135.532239469
134.981571768
134.408981948
133.813645724
133.194729178
132.551388823
131.882771973
131.188017348
130.466255286
129.716607906
128.938189433
128.130106182
127.291456537
126.421330723
125.518810309
124.582967513
123.612863995
122.607549412
121.566059217
120.487411833
119.370604945
118.214610648
117.018369303
115.780781749
114.5006994
113.176911706
111.808130189
110.392969053
108.929919579
107.417319162
105.853309962
104.235791601
102.562353818
100.830191467
99.0359939327
97.1758011499
95.2448089618
93.2371026207
91.1452929765
88.9600204084
86.6690860562
84.2563035591
81.6995869062
78.9672756326
76.0117692858
72.760490101
69.0597061565
64.2963984681
148.306317527
146.948144053
146.157174571
145.657163472
145.266179658
144.942302699
144.657788194
144.393193553
144.137714192
143.885201629
143.631828487
143.375081131
143.113222466
142.844975964
142.569341114
142.285483016
141.992664205
141.690201767
141.377437131
141.053708424
140.718365334
140.370732317
140.01016561
139.635997037
139.247530567
138.844059143
138.424863701
137.989211963
137.53635874
137.065546284
136.57600452
136.066951092
135.537591763
134.987126243
134.414741837
133.81961435
133.200909561
132.557783902
131.889384776
131.194850946
130.473312879
129.723892934
128.94570565
128.13785778
127.299448263
126.429568069
125.527299723
124.591716649
123.621882033
122.616847437
121.575650699
120.4973132
119.3808363
118.225196685
117.029340422
115.792175396
114.512561753
113.189299874
111.821114729
110.406637424
108.944380756
107.432709702
105.869800212
104.253589342
102.581709069
100.851419096
99.0595038249
97.2021257331
95.2746453574
93.2713779864
91.1852547445
89.0073192006
86.7260239219
84.3262329769
81.7875511271
79.0814699217
76.1671911388
72.9868812008
69.4377515633
65.3249536553
147.3111272
146.656927473
146.104573768
145.666959251
145.295339883
144.973243734
144.684150518
144.413924266
144.153469883
143.896998432
143.640624868
143.381667443
143.118214058
142.848837671
142.572417129
142.288023733
141.994847774
141.692150564
141.379233736
141.055420339
140.720048231
140.372477768
140.011964903
139.637855915
139.249458687
138.84606361
138.426949304
137.991382405
137.538617432
137.067896896
136.578451523
136.069501278
135.540255296
134.989906096
134.417635891
133.822622955
133.20403411
132.561026342
131.892747923
131.198338438
130.476929208
129.727643539
128.949597049
128.1418978
127.303646301
126.433935435
125.53185007
124.59646644
123.626851253
122.622060351
121.581136862
120.503108631
119.386984921
118.2317521
117.036368079
115.799755167
114.52079115
113.198298301
111.831028591
110.417646075
108.956704059
107.446615602
105.885616523
104.271738452
102.602743816
100.876038478
99.0885807818
97.2367721613
95.3162985377
93.3219214607
91.2471913938
89.0840455847
86.8223892901
84.4493068326
81.9480775395
79.2968416656
76.4676264671
73.4288181986
70.1444414046
66.59147848
146.761366087
146.397985454
145.998089434
145.629102117
145.291489587
144.983392296
144.698035037
144.427338063
144.16497393
143.906315601
143.647944993
143.387330516
143.122572281
142.852202944
142.575046347
142.290119897
141.996567184
141.693611936
141.380526935
141.056612178
140.72117668
140.373530209
140.013031508
139.638957391
139.250597111
138.847242925
138.428173207
137.992653371
137.539936783
137.069264944
136.579867482
136.070962487
135.541757349
134.99145028
134.419231291
133.82427475
133.205748517
132.56281038
131.894607607
131.200280243
130.478960405
129.729772423
128.951833357
128.14425313
127.306134572
126.436573435
125.53465819
124.599469424
123.630079207
122.625549881
121.584932411
120.507264198
119.391566221
118.23683922
117.042058754
115.806168965
114.528074714
113.206631548
111.84063264
110.428791838
108.969728573
107.461944281
105.903778621
104.29337183
102.628622504
100.907132041
99.1261251376
97.2823497003
95.3719527258
93.3903244359
91.3319079004
89.1899737739
86.9562905772
84.6208167205
82.1714636073
79.5941335171
76.8740819594
74.0016030096
70.980296455
67.8473434607
146.427318339
146.195523567
145.894113145
145.583139126
145.278303635
144.986285214
144.707315538
144.438196291
144.175243806
143.915167892
143.655208095
143.393126949
143.127131877
142.855773727
142.577855727
142.292360831
141.998396319
141.695152894
141.381875164
141.057840454
140.722343836
140.374688927
140.014179332
139.640104425
139.251767028
138.848450772
138.42942881
137.993964154
137.54130879
137.070703665
136.58137853
136.0725521
135.54343224
134.993215653
134.421088424
133.82622681
133.207796306
132.564954846
131.896853041
131.202631356
130.481424407
129.732358854
128.954554198
128.147123113
127.309171725
126.439799632
125.538099906
124.603158771
123.634055078
122.629859306
121.589633003
120.512426225
119.397275376
118.24319994
117.04919817
115.814241291
114.537267129
113.217171737
111.852797701
110.442925389
108.986252139
107.481366219
105.926730564
104.320650287
102.661231688
100.946332814
99.1735061379
97.3399297545
95.4423242186
93.4768554186
91.4390266632
89.323573495
87.1243876414
84.834550644
82.4466419789
79.9536527139
77.3513868682
74.6442867435
71.8537126742
69.0303612884
146.223926121
146.048024787
145.806832032
145.539509352
145.262326473
144.985693218
144.714009472
144.447514649
144.184757152
143.92375686
143.66247883
143.399055968
143.131862751
142.859508276
142.580799577
142.294698862
142.000284007
141.696715534
141.383210635
141.059023457
140.723430544
140.375719964
140.01518227
139.641107697
139.252785636
138.849495296
138.430507197
137.995082285
137.542471046
137.071913156
136.5826374
136.073861635
135.544793184
134.994628874
134.422555386
133.827750064
133.209381449
132.566609281
131.898584821
131.20445242
130.483347554
129.734397614
128.956724149
128.149442403
127.311661963
126.44248693
125.541015991
124.606342256
123.637553026
122.63372933
121.593944375
120.517263074
119.402739895
118.249416237
117.056317501
115.822449636
114.546794717
113.228299217
111.865873624
110.458367131
109.00456453
107.503173344
105.952810252
104.351958882
102.698952117
100.991940166
99.2288521153
97.4073543426
95.524807025
93.5782244517
91.5642505183
89.4791737227
87.3190279184
85.0798719935
82.7584211393
80.3533237685
77.8676475549
75.3135464326
72.7179681446
70.1280092363
146.100809658
145.94520278
145.738903036
145.502344173
145.246873373
144.983599399
144.718992765
144.45549176
144.19336711
143.931790941
143.669429191
143.404805311
143.136489468
142.863173047
142.5836838
142.296974067
142.002098833
141.698192195
141.384446059
141.060092462
140.724389523
140.376610757
140.016037288
139.641951539
139.25363461
138.850360731
138.431397573
137.996003896
137.543428681
137.072910717
136.583678403
136.074949621
135.545931877
134.995822746
134.423810155
133.829072346
133.210778277
132.568088499
131.900155215
131.206121989
130.485124185
129.736293031
128.958754428
128.151628003
127.314028037
126.445063963
125.543840859
124.609459655
123.641017134
122.637605675
121.598312663
120.522220386
119.408404495
118.255932188
117.06385995
115.831231171
114.557069217
113.240380451
111.880137999
110.475282733
109.024712965
107.527268866
105.981721203
104.386757358
102.74096555
101.042816576
99.2906460484
97.4826402112
95.6168294982
93.6910995303
91.703236077
89.6510332256
87.5325117174
85.3463389489
83.0925836606
80.7740033557
78.3981466736
75.9806115657
73.5482729466
71.1404860921
146.026730338
145.876721003
145.689967535
145.473865569
145.234164139
144.981348722
144.722718599
144.461988511
144.200630979
143.938719576
143.675513402
143.409888978
143.140605725
142.866442333
142.586255207
142.298994417
142.003698382
141.699479697
141.385508745
141.060998295
140.725190316
140.377345409
140.016734581
139.642632227
139.254314602
138.851050942
138.432106143
137.996736917
137.544190912
137.073706116
136.584510495
136.075821882
135.546847979
134.996786597
134.424825845
133.830144427
133.211912149
132.569290041
131.901431263
131.207482269
130.486584618
129.737871651
128.960470043
128.153502877
127.316089127
126.447344101
125.546379989
124.612306301
123.644230189
122.64125676
121.602489433
120.527029217
119.413974404
118.2624201
117.071456951
115.840170034
114.56763688
113.252922605
111.895081128
110.493142693
109.046115988
107.552981817
106.012685504
104.424130197
102.786171571
101.09761413
99.3572123241
97.5636803068
95.7157167674
93.812056761
91.8515679471
89.8334205679
87.7573688991
85.6242251671
83.436602714
81.2000347511
78.9245570778
76.6267739349
74.3313643305
72.0703347401
145.984454341
145.835007475
145.65859414
145.454859529
145.22533176
144.979629549
144.725276934
144.466647075
144.205949909
143.943866384
143.680080557
143.413734503
143.143736616
142.868938176
142.588222359
142.300540889
142.004921641
141.700462007
141.386316579
141.061683733
140.725793246
140.377895835
140.017254796
139.643139503
139.25481873
138.851561747
138.432630331
137.997279456
137.544755794
137.07429677
136.585130088
136.076473568
135.547535153
134.997513026
134.425595861
133.83096318
133.21278589
132.570226798
131.902441442
131.208578455
130.487778103
129.73917734
128.961907897
128.155097219
127.317869356
126.449345828
125.548646406
124.614889832
123.647194515
122.644679201
121.606463559
120.53166864
119.419417232
118.268834544
117.079047224
115.849183469
114.578373081
113.265748783
111.910440031
110.51157871
109.068293283
107.579709932
106.044952707
104.463144857
102.833413353
101.154897728
99.4267673245
97.6482509552
95.818685697
93.9375987197
92.0048352148
90.0207620907
87.9865744038
85.9047634382
83.7797754685
81.6189055856
79.4334033269
77.2396796464
75.0597778796
72.9198756332
145.965178272
145.81530123
145.64334054
145.445408708
145.22085232
144.978739468
144.726611771
144.469111468
144.208794074
143.946643677
143.68256496
143.415842116
143.145465469
142.87032746
142.589327344
142.301418841
142.005624815
141.701034814
141.386795087
141.062096315
140.726161715
140.378236664
140.017580214
139.643458433
139.25513876
138.851887739
138.432966205
137.997628418
137.54512063
137.07468013
136.585534623
136.076902134
135.547990978
134.997999881
134.42611825
133.831526587
133.213396955
132.570893485
131.903172896
131.209385113
130.488674918
129.740181602
128.963040197
128.156382441
127.319337732
126.451034084
125.550599144
124.617161195
123.649850236
122.647799118
121.610144613
120.536028509
119.424598919
118.27501142
117.086430309
115.858029082
114.588993948
113.278522377
111.925826577
110.53013794
109.090704616
107.606799558
106.077726403
104.502827383
102.881496517
101.213199451
99.4975034188
97.7341219137
95.9229801991
94.0643159678
92.1588214238
90.2078658801
88.2137891774
86.18034462
84.1132398601
82.0208195305
79.9148064021
77.8109539959
75.7289514987
73.6907217035
145.965181217
145.815317637
145.643367859
145.445445206
145.220897225
144.978791935
144.726670895
144.469176432
144.208864195
143.946718392
143.682643815
143.415924752
143.145551619
142.870416935
142.589420028
142.301514682
142.005723814
141.701137031
141.386900633
141.062205359
140.726274489
140.378353476
140.017701457
139.643584618
139.255270576
138.852025915
138.433111659
137.997782276
137.545284275
137.07485511
136.585722956
136.077106278
135.548213905
134.998245198
134.426390326
133.831830708
133.213739494
132.571282189
131.903617329
131.20989721
130.489268716
129.740874134
128.963852244
128.157339262
127.320469999
126.452379029
125.552201955
124.619076751
123.65214519
122.650554369
121.613458301
120.540019738
119.429412488
118.280822724
117.093452149
115.866519941
114.599267104
113.290956919
111.940883878
110.548378834
109.112807817
107.633588611
106.110199986
104.542196139
102.929226944
101.271065176
99.5676437785
97.8191122151
96.025915927
94.188904943
92.309507045
90.3900250103
88.4335731294
86.4447721951
84.4301376141
82.3985706278
80.3618566223
78.3350125244
76.3359401104
74.3837314198
145.984463231
145.835057065
145.658676696
145.454969762
145.225467318
144.979787723
144.725454949
144.466842503
144.206160715
143.944090883
143.680317395
143.413982618
143.143995216
142.869206699
142.588500462
142.300828415
142.005218612
141.700768604
141.386633139
141.062010756
140.726131422
140.378246067
140.017618239
139.643517706
139.255213668
138.851975593
138.433065792
137.997739829
137.545245096
137.074819874
136.58569295
136.077083438
135.548200827
134.998245208
134.426407587
133.831870359
133.213807828
132.571386916
131.903767828
131.210104861
130.489547361
129.741240641
128.96432713
128.157947453
127.321241756
126.453351101
125.553418951
124.620592847
123.654026157
122.652879977
121.616325356
120.543545734
119.433739772
118.286124073
117.099937154
115.874442832
114.608935605
113.302744752
111.955243286
110.565853959
109.134063076
107.659424205
106.141581198
104.580285878
102.975423491
101.327049684
99.6354497354
97.9012095908
96.125218414
94.3088510489
92.4540852997
90.5636033884
88.6413814953
86.6926787362
84.7244864297
82.7459573364
80.7687639965
78.8073101115
76.8783117495
74.9992079388
146.026745348
145.876804896
145.69010698
145.474051381
145.234392192
144.981614337
144.723017052
144.462315724
144.200983552
143.939094713
143.675908865
143.410303023
143.14103705
142.866890023
142.586718706
142.299473485
142.004193067
141.699990309
141.386035849
141.061542728
140.725753243
140.377928338
140.017339348
139.643261465
139.254971182
138.851738619
138.4328294
137.997501186
137.545002785
137.074573617
136.585443382
136.076832002
135.547949731
134.997997426
134.426166954
133.831641693
133.213597096
132.571201442
131.903616567
131.209998736
130.489499677
129.741267593
128.964448403
128.158186998
127.321628684
126.45392078
125.554214343
124.621666108
123.655440562
122.654712266
121.618668638
120.546513128
119.437468028
118.290779049
117.105719916
115.881597095
114.617755824
113.313588245
111.968540451
110.58212598
109.15393513
107.683655255
106.171086047
104.616167149
103.019012542
101.379937079
99.6994957673
97.9785463715
96.2184089975
94.4208987469
92.5884706756
90.7243862322
88.8329538598
86.9197753733
84.9920691004
83.0590066575
81.1320282282
79.2250790761
77.3542904985
75.536575383
146.100831138
145.945323109
145.739102435
145.502608969
145.247197339
144.983975673
144.719414549
144.455953273
144.193863579
143.932318481
143.669984707
143.405386402
143.137094351
142.863800484
142.584333038
142.297644785
142.002791099
141.698906423
141.385183007
141.060853244
140.7251757
140.377424442
140.016881149
139.642828981
139.254549653
138.851318478
138.432404163
137.997066757
137.544556856
137.074115231
136.584972651
136.076349931
135.547458138
134.997498913
134.425664951
133.83114055
133.213102259
132.570719648
131.903156105
131.209569799
130.489114699
129.740941733
128.964200079
128.158038607
127.321607464
126.454059832
125.55455389
124.622254958
123.656337924
122.655990038
121.620413959
120.548831723
119.440487898
118.294655397
117.110640461
115.887789399
114.625494851
113.323206474
111.980440751
110.596791865
109.171951045
107.705722449
106.198044826
104.649018027
103.058934068
101.428331251
99.7580446243
98.0492577091
96.3035819059
94.5231590347
92.710787132
90.8700660004
89.0055770188
87.1230941714
85.2298464652
83.3348172063
81.4490853063
79.5862191595
77.762228287
75.9945206267
146.223954702
146.048185229
145.807096561
145.539858905
145.262752234
144.986185819
144.714559897
144.448115375
144.185402051
143.924440996
143.663198307
143.399807787
143.132644693
142.860318809
142.581637764
142.295564298
142.001176729
141.697635961
141.384159529
141.060001898
140.72443989
140.376762172
140.016261834
139.642230467
139.253956194
138.850719391
138.431792211
137.996437247
137.543907008
137.073443682
136.584279147
136.075635113
135.546723453
134.996746589
134.424898031
133.830362921
133.212318743
132.569936195
131.902380019
131.208810084
130.488382448
129.740250591
128.963566755
128.157483481
127.321155319
126.453740764
125.554404438
124.622319462
123.656670165
122.6566553
121.62149133
120.550416867
119.442696841
118.297628658
117.114547749
115.892836007
114.631929057
113.331327845
111.990610343
110.609445759
109.187611854
107.725015396
106.221717678
104.677965061
103.094224298
101.471224012
99.8100072859
98.1119954909
96.3790633807
94.6136240348
92.8187324796
90.9982059297
89.1567679059
87.300208968
85.435590211
83.5715048568
81.7184668825
79.88955628
78.1008031897
76.3708804734
146.427354658
146.19572894
145.894449257
145.583580422
145.278838023
144.986900391
144.708000118
144.438941006
144.176041237
143.916012146
143.65609457
143.39405215
143.128093259
142.856769598
142.578885149
142.293423524
141.99949255
141.696283317
141.383040627
141.05904204
140.723583113
140.375967068
140.015498395
139.641477787
139.253198624
138.849946321
138.430996495
137.995614221
137.54305381
137.07255876
136.583361956
136.074685939
135.545743322
134.995737252
134.423862008
133.829303615
133.211240558
132.568844638
131.901281798
131.207713218
130.487296526
129.739187241
128.9625402
128.156511145
127.320258507
126.452945493
125.553742451
124.62182944
123.656399106
122.656660037
121.621841092
120.551195466
119.44400584
118.299591088
117.117312486
115.896582783
114.636874394
113.337732211
111.998787109
110.619771624
109.200538925
107.741085329
106.24157703
104.702381602
103.124105448
101.507638052
99.8542028351
98.1654162016
96.4433569292
94.690642785
92.9105155069
91.1069328208
89.2846689059
87.4494206801
85.6079396754
83.768219941
81.9398828393
80.1350826916
78.3693349449
76.6624944759
146.761410097
146.39823937
145.9984996
145.629635519
145.292130159
144.984124322
144.698844646
144.42821429
144.165908159
143.907301087
143.648976547
143.38840426
143.123685485
142.85335394
142.576234497
142.291345587
141.997831864
141.694918049
141.381877453
141.058010978
140.722632873
140.375059508
140.014606775
139.640581912
139.252284712
138.849004879
138.430021132
137.994600843
137.541999871
137.071462766
136.582223204
136.073504382
135.54451942
134.994471883
134.422556468
133.827959833
133.209861385
132.5674339
131.899844512
131.20625602
130.485828103
129.73771784
128.961082229
128.15507963
127.318871594
126.451625137
125.5525153
124.620727852
123.655462337
122.655935432
121.621386368
120.551079786
119.444313219
118.300422804
117.118790922
115.898855509
114.640121119
113.342169937
112.004676578
110.62742582
109.210332622
107.753465975
106.257076995
104.721631689
103.147849144
101.536745984
99.8896870389
98.2084422498
96.4952492988
94.7528803769
92.9847113096
91.1947887071
89.3878888703
87.5695632667
85.7461763565
83.9249453543
82.1141730099
80.3242409428
78.568364972
76.8651985484
147.311183603
146.65724401
146.105067955
145.667590051
145.296087529
144.974089214
144.685077744
144.41492081
144.154526081
143.898106729
143.64177941
143.382863737
143.119448732
142.850108298
142.573722135
142.28936244
141.996220769
141.693560586
141.380685904
141.056921198
140.721598307
140.374046914
140.013587997
139.639541312
139.251211365
138.847891124
138.428861848
137.993392755
137.540741191
137.070152702
136.580861687
136.072091961
135.543057213
134.99296157
134.421000234
133.82636
133.208219409
132.565752458
131.898127227
131.204507094
130.484052244
129.73592195
128.959275133
128.153272266
127.317077465
126.449860877
125.550801291
124.619088844
123.653927979
122.654542443
121.620178788
120.550111606
119.443649936
118.300143519
117.11899137
115.899650879
114.641648644
113.34459508
112.008198406
110.63228304
109.216810857
107.7619062
106.267885019
104.73528863
103.16492244
101.557900178
99.915693458
98.2401860869
96.5337312973
94.7992148826
93.040110386
91.2605278042
89.4652401346
87.6596763584
85.8498538539
84.0421607076
82.2432579738
80.4607055934
78.7016183703
76.974693187
148.306421533
146.948606397
146.157861658
145.658022247
145.267186893
144.943437576
144.659033782
144.394536902
144.139145247
143.886712495
143.633412935
143.376734148
143.114939842
142.846753894
142.571175821
142.287370373
141.994599209
141.692177738
141.379448646
141.055763217
140.720461943
140.372895198
140.012411037
139.638326057
139.249948509
138.846574747
138.427487681
137.991955509
137.539237243
137.068579958
136.579218669
136.07037753
135.541270498
134.991101984
134.419067571
133.824354952
133.206145483
132.563612185
131.895923243
131.202242902
130.481732488
129.733551818
128.95686084
128.150821426
127.314599429
126.447367093
125.548305627
124.616608219
123.651483396
122.652159094
121.617887098
120.547948381
119.441659703
118.298379977
117.11751939
115.898549129
114.641013136
113.34454039
112.00886188
110.633829322
109.21943684
107.765846466
106.273417683
104.742741672
103.174680387
101.570410963
99.9314749874
98.2598303556
96.5579034477
94.8286687785
93.075674238
91.3030881373
89.5157153469
87.7189732919
85.9187591739
84.1209397854
82.3310447761
80.5538373477
78.7841210787
76.9923936051
150.099530274
147.17143344
146.057907495
145.530839969
145.163744826
144.869177538
144.607727416
144.359370234
144.115024337
143.870122847
143.621970871
143.368815648
143.109426973
142.842871108
142.568383149
142.285291704
141.992972884
141.690821972
141.378236369
141.054608601
140.719333147
140.371770185
140.011250728
139.637109521
139.248664367
138.845216039
138.426050702
137.990443342
137.537651636
137.066921156
136.577486946
136.068573314
135.539394289
134.989154316
134.417048967
133.822265642
133.203984573
132.561379801
131.893620128
131.199870119
130.479291502
129.731044726
128.95429047
128.148191428
127.311914441
126.444632839
125.545528859
124.613797538
123.648649405
122.649314518
121.615047525
120.54513273
119.438890891
118.295685754
117.114933114
115.896110749
114.638770143
113.342550347
112.007194061
110.63256669
109.218678512
107.765710651
106.274045141
104.744299636
103.177366854
101.574459055
99.9371576067
98.267469787
96.5678928135
94.8414321183
93.0916927895
91.322911934
89.5399787201
87.7484118615
85.9542573942
84.1640121839
82.384096844
80.6192944401
78.8491455796
76.9492001361
56.90233898
53.3502056782
50.9587674289
49.0013471632
47.3293012418
45.872456671
44.5868279569
43.4427087256
42.4184264701
41.4972352498
40.6657293779
39.9129041671
39.2295586013
38.6078942368
38.0412322652
37.5238040067
37.0505931718
36.6172119159
36.2198036156
35.8549636046
35.5196747534
35.2112544438
34.9273093655
34.6656987327
34.4245024101
34.2019933289
33.9966149145
33.8069604094
33.6317559243
33.4698451962
33.3201762842
33.1817907709
33.0538132779
32.9354433002
32.8259469659
32.7246509519
32.6309355099
32.5442295661
32.4640054093
32.3897746609
32.321084721
32.257513093
32.1986642327
32.1441644479
32.0936578979
32.0468566033
32.0036903012
31.9639160395
31.9271824786
31.8932146798
31.8617377252
31.8325578851
31.8055029193
31.7804100238
31.757132148
31.7355555429
31.7155240257
31.6969154842
31.679603977
31.6634973534
31.6484981515
31.6345019141
31.6214207524
31.6091749326
31.5976921373
31.5869039207
31.5767491883
31.5671719239
31.558116236
31.5495385335
31.5413893613
31.5336312634
31.5262262674
31.5191408019
31.5123449427
31.5058106925
31.4995100639
31.4934221329
31.4875226973
31.4817928318
31.476214963
31.4707721468
31.4654547621
31.4602532853
31.4551498445
31.4501342933
31.4451926423
31.4403194014
31.435500557
31.4307383151
31.4260441302
31.421389269
31.4167643017
31.4121630764
31.4075801203
31.4030105429
31.398449708
31.3938929101
31.3893358803
31.3847751559
31.3802075153
31.375629666
31.3710385985
31.366431449
31.3618048844
31.3571553367
31.3524790355
31.3477726425
31.3430331837
31.338258382
31.3334462857
31.3285954686
31.3237044788
31.3187721043
31.3137967925
31.30877656
31.3037094447
31.2985935648
31.293428004
31.2882120344
31.2829463973
31.2776302823
31.2722629976
31.266834502
31.2613250126
31.2556678198
31.250259475
31.2452044703
31.2400681666
31.2349050171
31.2298107245
31.2248523796
31.2200818273
31.2155572859
31.2113391418
31.207488114
31.2040573827
31.2010908253
31.1985977825
31.1965568076
31.1951754639
31.1940022326
31.1930913099
31.1917885936
31.1884433822
31.1788379105
31.1528859464
31.0888912779
30.945561639
30.6523248512
30.1039408004
29.1676021105
27.7106901804
25.640500875
22.9310525978
19.6384853232
15.8813742757
11.6279546929
6.60301272544
1.57034661393
60.0836966759
56.0308760208
53.3188894947
51.1665262936
49.3645693658
47.8146078417
46.4584275452
45.2587936068
44.1895326416
43.231011167
42.367891527
41.5878296139
40.8806725867
40.2379301447
39.6524131892
39.1179697232
38.6292920828
38.1817678636
37.7713644603
37.3945385568
37.0481605536
36.7294569272
36.435958511
36.1654611004
35.9159899959
35.6857715397
35.4732076566
35.2768553421
35.095407684
34.9276785794
34.7725895178
34.629156357
34.4964818853
34.3737428981
34.2601875342
34.1551227681
34.0579139682
33.9679730516
33.8847615995
33.8077787274
33.7365656673
33.6706964976
33.6097804179
33.5534596872
33.5014035724
33.4532932103
33.408742701
33.3675041506
33.3293219615
33.293986301
33.2612950787
33.2310496131
33.2030533382
33.1771283282
33.1531050329
33.1308262831
33.1101480652
33.0909495015
33.0730960344
33.0564839457
33.0410002797
33.0265581178
33.0130746513
33.0004618396
32.9886462191
32.9775612106
32.9671360626
32.9573186481
32.9480457597
32.9392778774
32.9309545249
32.9230464871
32.9155030426
32.908298402
32.9013920955
32.8947647596
32.8883778411
32.8822172054
32.8762529558
32.8704679317
32.8648450076
32.8593618951
32.8539993272
32.8487399138
32.8435792788
32.838503364
32.8335019159
32.8285683535
32.8236883232
32.8188565661
32.8140604071
32.809297554
32.8045651419
32.7998594361
32.7951730682
32.7905032625
32.7858433833
32.7811898833
32.7765381503
32.7718848009
32.7672266798
32.762560573
32.7578839801
32.7531925279
32.7484845134
32.7437545076
32.7390005766
32.7342170997
32.7294033406
32.7245545795
32.7196707955
32.7147489399
32.7097889331
32.7047881503
32.6997458654
32.6946600771
32.6895285163
32.6843508872
32.6791254794
32.673853861
32.668537802
32.663180651
32.6577875048
32.6523662315
32.6469359121
32.6415066807
32.6361254888
32.6306756361
32.6252573588
32.620080783
32.6150020292
32.6100965833
32.6054345483
32.6010791448
32.5971023654
32.593578734
32.5905790684
32.5881621263
32.5863397901
32.5851910215
32.5846771364
32.5846728928
32.5849052197
32.5845524867
32.5814433115
32.5703766379
32.5392831378
32.4632085234
32.2958966111
31.9604543989
31.3455289295
30.3153185453
28.7403038278
26.5375972548
23.693097843
20.2674527767
16.3772263508
12.0059284943
6.89211706434
1.70389151387
62.2911291642
58.3576833932
55.4905282494
53.206589913
51.3046116489
49.6781152458
48.2620678816
47.0144540941
45.905852361
44.9144014581
44.0232064469
43.2188145238
42.490271327
41.8284984431
41.2258705501
40.6759076664
40.1730532636
39.7125032938
39.2900762708
38.9021111911
38.5453841569
38.2170454966
37.914562713
37.6356784663
37.3783728446
37.1408327291
36.9214256391
36.7186775479
36.5312536665
36.3579426024
36.1976424335
36.0493472202
35.9121396131
35.7851777267
35.6676917391
35.5589718872
35.4583678628
35.3652765264
35.2791454216
35.1994599949
35.1257471891
35.0575667177
34.9945124066
34.9362041964
34.8822916741
34.8324628152
34.7864153813
34.7436817008
34.704099586
34.667516206
34.6336891004
34.6023973471
34.5734363982
34.5466230264
34.5217870941
34.4987729762
34.4774284007
34.4576248379
34.4392266121
34.4221240823
34.4061976693
34.3913541076
34.3775037407
34.3645567822
34.3524373123
34.3410739862
34.3303968426
34.3203450596
34.3108629502
34.3018963434
34.2933979134
34.2853244994
34.27763358
34.2702910231
34.263260858
34.2565192126
34.2500255318
34.2437664665
34.2377113405
34.2318375402
34.2261214517
34.2205522015
34.2151151318
34.2097977717
34.2045886547
34.1994710755
34.1944309778
34.1894600295
34.1845491537
34.179693217
34.1748823652
34.1701087172
34.1653658253
34.1606491465
34.1559512698
34.1512685616
34.146594582
34.1419255459
34.1372564628
34.1325838337
34.1279048635
34.1232158717
34.1185140014
34.1137947079
34.1090563633
34.1042937938
34.0995051451
34.0946847424
34.0898316722
34.0849415065
34.0800140951
34.0750465636
34.0700385414
34.0649877341
34.0598933317
34.0547538221
34.0495672868
34.0443336551
34.0390523888
34.0337247385
34.0283539781
34.0229446467
34.0175022439
34.0120373529
34.0065674854
34.0010989859
33.9956474982
33.9902467048
33.9849608621
33.9797341698
33.974578103
33.9696582206
33.9650608632
33.9608426214
33.9570714649
33.953839322
33.9512313876
33.9493230699
33.9481212878
33.9476711042
33.9480069223
33.9489369203
33.9500847928
33.9503775539
33.9470661994
33.9339045251
33.8968165428
33.8075813925
33.6151871569
33.2369057862
32.5561109811
31.4349603115
29.7474857936
27.4199027305
24.4482289096
20.895798126
16.8758589119
12.3864265169
7.18081976495
1.83522011514
64.0953061318
60.3705870286
57.4665939059
55.1114046106
53.1412978533
51.4569335068
49.9931483336
48.7060611631
47.5644247442
46.5449132417
45.6295149075
44.8039402086
44.0566113282
43.3779839586
42.7600838191
42.1961674354