/*--------------------------------*- C++ -*----------------------------------*\
| =========                 |                                                 |
| \\      /  F ield         | OpenFOAM: The Open Source CFD Toolbox           |
|  \\    /   O peration     | Version:  2106                                  |
|   \\  /    A nd           | Website:  www.openfoam.com                      |
|    \\/     M anipulation  |                                                 |
\*---------------------------------------------------------------------------*/
FoamFile
{
    version     2.0;
    format      ascii;
    arch        "LSB;label=32;scalar=64";
    class       volScalarField;
    location    "0.45";
    object      p;
}
// * * * * * * * * * * * * * * * * * * * * * * * * * * * * * * * * * * * * * //

dimensions      [0 2 -2 0 0 0 0];

internalField   nonuniform List<scalar> 
9600
(
2.27186900546
-0.6261441289
-1.53037204192
-1.91598386692
-2.13531564171
-2.27525859114
-2.3791635175
-2.46671314166
-2.54621222098
-2.62160207578
-2.69497606597
-2.76748475715
-2.83975815382
-2.91212666638
-2.98474762776
-3.05767611019
-3.13091178022
-3.20442732543
-3.27818202987
-3.3521322653
-3.42623842986
-3.50046584821
-3.57478362005
-3.64916803418
-3.72359973012
-3.79806358814
-3.87254760803
-3.94704278638
-4.02154276568
-4.09604206213
-4.17053661534
-4.24502356996
-4.31949994098
-4.39396331508
-4.46841179831
-4.54284333496
-4.61725597999
-4.69164788978
-4.76601708057
-4.84036121658
-4.91467786143
-4.98896465063
-5.06321941032
-5.13743884393
-5.21161984596
-5.28575947338
-5.35985428273
-5.43390028513
-5.50789354495
-5.58182981855
-5.65570426448
-5.72951159715
-5.80324628997
-5.87690260485
-5.95047436224
-6.02395491974
-6.09733717671
-6.17061345219
-6.24377562714
-6.31681502396
-6.38972227262
-6.46248750519
-6.53510028073
-6.60754932642
-6.67982255249
-6.75190733732
-6.82379038535
-6.89545747041
-6.96689342137
-7.03808218194
-7.10900682245
-7.17964948375
-7.24999126571
-7.32001216808
-7.38969106073
-7.45900559982
-7.52793233134
-7.59644660989
-7.66452236744
-7.73213223778
-7.79924751173
-7.86583803516
-7.93187226089
-7.997317118
-8.06213804232
-8.12629889681
-8.18976170306
-8.25248686499
-8.31443326168
-8.37555806815
-8.43581659149
-8.49516199097
-8.55354568772
-8.61091742523
-8.66722481478
-8.72241381535
-8.77642841106
-8.8292102262
-8.88069919188
-8.93083333172
-8.97954852349
-9.02677860637
-9.07245539064
-9.11650898797
-9.1588674882
-9.19945667445
-9.23820064659
-9.27502185251
-9.30984030175
-9.34257446844
-9.37314106854
-9.40145497689
-9.42742965752
-9.45097673999
-9.47200629419
-9.49042727191
-9.50614730362
-9.51907239043
-9.52910742098
-9.53615647459
-9.54012214282
-9.54090600591
-9.538409456
-9.53253288743
-9.52317591966
-9.51023828235
-9.49362011495
-9.47321799587
-9.44893048513
-9.4206556334
-9.38829072487
-9.35173250716
-9.31087774517
-9.26562252811
-9.21586173383
-9.16148906881
-9.10239722121
-9.03847612212
-8.96961178334
-8.89568698064
-8.81657897498
-8.7321566892
-8.64227945606
-8.54679439127
-8.44553266767
-8.3383031995
-8.22488621192
-8.10502477096
-7.97840946333
-7.84466166117
-7.70330605126
-7.55372440832
-7.39508232098
-7.22620300249
-7.04535607431
-6.84993848132
-6.63598938497
-6.3976827966
-6.1356423383
-5.90973364695
0.36032994103
-0.82202950114
-1.43070084591
-1.78472567709
-2.02734250603
-2.19790594079
-2.32597737965
-2.43048001008
-2.52155553137
-2.60483365511
-2.68360658773
-2.75982362015
-2.83464465863
-2.90875697891
-2.98256351509
-3.0562906389
-3.1300569967
-3.20391936998
-3.27789686501
-3.35198638803
-3.42617718401
-3.5004531107
-3.57479689803
-3.64919345705
-3.7236290833
-3.79809247027
-3.87257400519
-3.94706568648
-4.0215620233
-4.09605816302
-4.17054994948
-4.24503464423
-4.3195094199
-4.39397163946
-4.46841932982
-4.54285045125
-4.61726295236
-4.69165487454
-4.76602424366
-4.84036886686
-4.91468621262
-4.98897385262
-5.06322908974
-5.13744930117
-5.21163119061
-5.28577172911
-5.35986761038
-5.43391485184
-5.50790929375
-5.58184670594
-5.65572244986
-5.72953129316
-5.80326757874
-5.8769255348
-5.9504990911
-6.02398158277
-6.09736590092
-6.17064438385
-6.24380889954
-6.31685083105
-6.38976079941
-6.46252884561
-6.53514454413
-6.60759676921
-6.67987345651
-6.75196186493
-6.82384868606
-6.89551979785
-6.96696007413
-7.03815340692
-7.10908283654
-7.17973054488
-7.25007767386
-7.32010420111
-7.38978899064
-7.45910974675
-7.52804304498
-7.59656425052
-7.6646472712
-7.73226474432
-7.79938801694
-7.86598693175
-7.93202994583
-7.99748400079
-8.06231447743
-8.12648529729
-8.18995858876
-8.2526947115
-8.3146524974
-8.37578915548
-8.43606004497
-8.49541822824
-8.5538150339
-8.61120049577
-8.66752229667
-8.72272609444
-8.77675595168
-8.82955362012
-8.88105892367
-8.93120989483
-8.97994249848
-9.02719060585
-9.07288596241
-9.11695864297
-9.15933680626
-9.19994617027
-9.23871070199
-9.27555308003
-9.31039327586
-9.343149502
-9.37373858123
-9.40207525318
-9.42807290854
-9.45164332387
-9.47269663375
-9.49114166575
-9.50688627459
-9.51983660856
-9.52989701604
-9.53697152158
-9.54096340803
-9.54177426435
-9.53930487209
-9.53345598405
-9.52412733951
-9.51121732022
-9.49462514117
-9.47425175561
-9.44999423497
-9.42175110958
-9.38942060673
-9.3529002294
-9.31208723635
-9.26687907403
-9.21717248162
-9.16286246911
-9.1038434089
-9.04000850764
-8.9712473185
-8.89744635976
-8.81848839059
-8.73424916518
-8.64459610348
-8.5493867449
-8.4484662976
-8.34166192214
-8.22877679859
-8.10958593935
-7.98382472974
-7.85117634582
-7.7112568435
-7.56359175394
-7.40758481197
-7.24247899891
-7.06732830262
-6.88103978445
-6.68256627368
-6.47069332703
-6.24526203456
-6.02698217461
-0.615511718931
-1.09688423906
-1.48814146471
-1.77975773462
-2.00133143957
-2.16926758414
-2.30136897946
-2.41115743143
-2.50701610806
-2.5941604772
-2.67590260653
-2.75433700272
-2.83078476662
-2.90607431613
-2.98072245498
-3.05504497247
-3.12922765517
-3.20337695553
-3.27754994612
-3.35177097753
-3.42604806892
-3.50037979267
-3.57475894196
-3.64917714352
-3.72362534472
-3.79809545939
-3.87258037931
-3.94707343333
-4.02156987218
-4.09606568096
-4.1705568754
-4.24504072761
-4.31951477674
-4.3939764551
-4.46842369686
-4.54285453789
-4.61726696999
-4.69165884759
-4.76602813292
-4.84037277714
-4.91469033277
-4.98897812007
-5.06323352079
-5.1374539766
-5.21163628685
-5.28577718039
-5.35987348359
-5.43392135074
-5.50791649129
-5.58185452253
-5.65573080961
-5.72954024469
-5.80327722811
-5.8769359617
-5.95051033581
-6.02399368442
-6.09737892123
-6.17065840579
-6.24382394172
-6.31686693709
-6.38977812413
-6.46254750252
-6.53516452289
-6.60761810174
-6.67989630441
-6.75198639157
-6.82387498221
-6.89554795305
-6.96699020419
-7.03818562062
-7.10911722954
-7.17976722546
-7.25011676148
-7.32014577728
-7.3898331428
-7.45915664861
-7.52809287458
-7.5966171576
-7.66470343353
-7.73232432914
-7.79945116627
-7.86605378878
-7.93210069812
-7.99755888831
-8.06239367956
-8.1265689482
-8.19004690237
-8.25278794402
-8.31475089193
-8.37589286671
-8.43616917239
-8.49553297949
-8.5539356013
-8.61132710025
-8.66765527085
-8.72286559531
-8.77690207005
-8.82970658198
-8.88121897565
-8.93137722513
-8.98011721331
-9.02737289278
-9.07307607333
-9.11715667121
-9.15954285446
-9.2001605235
-9.2389335635
-9.27578453706
-9.31063355668
-9.34339887819
-9.37399757256
-9.40234450619
-9.42835267802
-9.45193398242
-9.47299865615
-9.49145534341
-9.50721189166
-9.52017482292
-9.53024843977
-9.53733648772
-9.54134256794
-9.54216844398
-9.53971503514
-9.53388308198
-9.52457323352
-9.51168476172
-9.49511660961
-9.47476905763
-9.45054036683
-9.42232892602
-9.39003370753
-9.35355295458
-9.31278467667
-9.26762741732
-9.21797964443
-9.16373816991
-9.10479900148
-9.04105810986
-8.97240883075
-8.89874149428
-8.8199439186
-8.73589885312
-8.64648239898
-8.55156285719
-8.45099901978
-8.3446363451
-8.23230132519
-8.11379944393
-7.98890959176
-7.85737448279
-7.71889329504
-7.5731154198
-7.41963341266
-7.25798423689
-7.08768201186
-6.90832167065
-6.7198479732
-6.52265934658
-6.31768931248
-6.11305156067
-1.16697271582
-1.35332194621
-1.59576857429
-1.81823684061
-2.00542741362
-2.15945552308
-2.2878926365
-2.39818293704
-2.4959775007
-2.58533736094
-2.66910845239
-2.74923499376
-2.82702554838
-2.90334795308
-2.97877258298
-3.05366912211
-3.12827031204
-3.20272008047
-3.2771059146
-3.35147619556
-3.42585615551
-3.50025763601
-3.57468391128
-3.64913294473
-3.7236010021
-3.79808341916
-3.87257579499
-3.94707326303
-4.0215719875
-4.0960689306
-4.17056064498
-4.24504446855
-4.31951828073
-4.39397972758
-4.46842669187
-4.54285728672
-4.61726958645
-4.69166146977
-4.76603076151
-4.8403753629
-4.91469299493
-4.98898094302
-5.06323647021
-5.13745708304
-5.21163970742
-5.28578093899
-5.3598774674
-5.433925587
-5.50792109146
-5.58185943535
-5.65573600426
-5.72954574009
-5.80328313342
-5.8769423757
-5.9505172789
-6.02400116764
-6.09738691106
-6.17066694812
-6.2438330982
-6.31687670456
-6.38978858606
-6.46255879388
-6.53517668636
-6.60763111138
-6.67991021955
-6.75200136117
-6.82389113399
-6.89556530442
-6.96700873655
-7.03820538852
-7.10913832855
-7.17978971872
-7.25014068552
-7.32017116486
-7.38986005111
-7.45918518987
-7.52812314518
-7.59664922896
-7.66473743257
-7.73236036941
-7.79948930128
-7.86609408262
-7.93214327141
-7.99760393313
-8.06244138487
-8.12661942937
-8.1901002714
-8.25284435348
-8.31481050753
-8.37595572003
-8.43623517061
-8.49560230334
-8.55400857263
-8.61140382845
-8.66773588424
-8.72295021563
-8.77699075067
-8.82979950395
-8.88131641373
-8.93147942281
-8.98022436335
-9.02748531656
-9.07319414593
-9.11728049177
-9.15967248634
-9.20029639691
-9.2390760947
-9.2759337745
-9.31078964358
-9.34356201023
-9.37416784719
-9.40252205093
-9.42853767639
-9.45212652829
-9.47319903656
-9.49166393136
-9.50742884473
-9.52040039279
-9.53048322743
-9.53758104961
-9.54159713897
-9.54243377121
-9.53999211028
-9.53417264482
-9.52487652061
-9.51200338744
-9.49545222186
-9.47512358665
-9.45091671422
-9.42273062897
-9.39046474551
-9.35401830319
-9.31329069634
-9.26818153037
-9.21859076233
-9.16441762907
-9.1055604437
-9.0419179767
-8.97338788058
-8.89986498999
-8.82124232022
-8.73741013124
-8.64825398422
-8.55365377038
-8.45348240515
-8.34760421021
-8.23587088071
-8.11811900703
-7.99417005948
-7.86382577601
-7.72686367386
-7.58304248676
-7.43210834781
-7.27381009052
-7.10794537796
-6.9344365367
-6.75349189044
-6.56566529383
-6.37175483088
-6.17482837622
-1.50431877053
-1.55608391175
-1.69997841156
-1.86427213677
-2.01860474559
-2.15666277811
-2.27881637609
-2.38760444147
-2.4860483909
-2.57687845494
-2.66228632863
-2.74392408175
-2.82299474999
-2.90034930648
-2.97657862483
-3.05208750102
-3.12714640355
-3.20193260297
-3.2765618013
-3.35110605433
-3.42560869098
-3.50009543132
-3.5745800129
-3.64906821459
-3.7235622795
-3.79806150119
-3.87256450096
-3.9470686595
-4.02157125665
-4.09607026694
-4.17056312215
-4.24504743365
-4.31952132822
-4.3939827008
-4.46842952677
-4.54285993798
-4.61727208382
-4.69166397388
-4.76603331544
-4.84037791159
-4.91469554141
-4.98898361647
-5.0632393405
-5.13746011461
-5.21164305211
-5.28578473907
-5.35988165655
-5.43393011599
-5.50792603695
-5.58186485562
-5.65574184979
-5.72955195766
-5.80328980504
-5.87694957581
-5.95052497991
-6.02400944645
-6.09739587806
-6.17067666494
-6.24384359467
-6.31688795956
-6.38980061354
-6.46257169708
-6.53519053993
-6.60764592206
-6.67992604572
-6.75201832071
-6.82390932693
-6.89558479804
-6.96702957649
-7.03822765001
-7.10916211441
-7.17981510012
-7.25016772054
-7.32019994813
-7.38989068093
-7.45921773014
-7.52815763785
-7.59668576526
-7.66477613329
-7.73240131068
-7.79953263738
-7.8661400385
-7.93219195161
-7.99765544618
-8.06249599028
-8.12667725709
-8.19016129548
-8.25290876212
-8.31487854857
-8.37602734887
-8.43631033654
-8.49568125855
-8.55409154801
-8.6114907466
-8.66782683631
-8.72304549347
-8.77709047168
-8.8299037721
-8.88142536657
-8.93159316395
-8.98034293455
-9.02760875128
-9.07332258897
-9.11741399954
-9.15981107392
-9.20044023822
-9.23922539472
-9.27608862389
-9.31095020757
-9.34372848478
-9.3743403794
-9.40270104738
-9.42872349862
-9.4523192291
-9.47339881726
-9.49187131871
-9.50764415055
-9.52062374189
-9.53071523165
-9.53782229193
-9.54184805433
-9.54269523047
-9.54026515995
-9.53445843737
-9.52517612042
-9.51231886816
-9.49578595533
-9.47547762926
-9.45129422166
-9.42313543112
-9.39090117879
-9.3544917405
-9.31380795943
-9.26875077512
-9.21922163846
-9.16512220451
-9.10635345929
-9.04281709837
-8.97441533921
-8.90104824811
-8.82261428568
-8.73901130433
-8.65013470328
-8.55587655656
-8.45612425439
-8.35076022387
-8.23966130358
-8.12269483798
-7.99972111255
-7.87059526028
-7.73516284364
-7.59327084434
-7.44478030533
-7.2895802337
-7.12763107949
-6.95900303152
-6.78394132441
-6.60283498636
-6.41600193216
-6.22412558702
-1.70839347524
-1.70341634672
-1.7873909979
-1.90818087693
-2.034823545
-2.15750339936
-2.27240026816
-2.3785963299
-2.47687921558
-2.56866830099
-2.65542977997
-2.73844477187
-2.81874920692
-2.89713676218
-2.97419414351
-3.05034652221
-3.1258944849
-3.20104548252
-3.2759420148
-3.35067944402
-3.42531978918
-3.49990319287
-3.57445437272
-3.64898852917
-3.72351321528
-3.79803255046
-3.87254845446
-3.94706090083
-4.02156855458
-4.09607035232
-4.17056476038
-4.24504989027
-4.31952406937
-4.39398547247
-4.46843224139
-4.54286250966
-4.61727451346
-4.69166629646
-4.76603565181
-4.84038022391
-4.91469780564
-4.98898594705
-5.06324181316
-5.13746271487
-5.21164586521
-5.28578791079
-5.35988517379
-5.4339338942
-5.50793003989
-5.58186914002
-5.65574644875
-5.72955687853
-5.80329499442
-5.87695502739
-5.95053076803
-6.02401563946
-6.09740253563
-6.17068385655
-6.24385140899
-6.3168964042
-6.38980964105
-6.46258134706
-6.5352009184
-6.60765706657
-6.67993797084
-6.75203110235
-6.82392304257
-6.89559948031
-6.96704526955
-7.03824444532
-7.10918010362
-7.17983430235
-7.25018811575
-7.32022156949
-7.38991360168
-7.45924204089
-7.52818340426
-7.5967129633
-7.66480475893
-7.73243145578
-7.79956443805
-7.86617367992
-7.93222763847
-7.99769332001
-8.06253616321
-8.1267199051
-8.19020656596
-8.25295662119
-8.3149289627
-8.37608047172
-8.43636623901
-8.49573995474
-8.55415324661
-8.61155557414
-8.66789482792
-8.7231168224
-8.77716533754
-8.82998236073
-8.88150781268
-8.93167969197
-8.98043377924
-9.02770396594
-9.07342232309
-9.11751853444
-9.15992060549
-9.20055483323
-9.23934508625
-9.27621351647
-9.31108062792
-9.34386472757
-9.3744825122
-9.40284923893
-9.42887803812
-9.45248029737
-9.47356660861
-9.49204632327
-9.50782672746
-9.52081415291
-9.53091395194
-9.5380298396
-9.54206528034
-9.54292275285
-9.54050447212
-9.53471086563
-9.52544289108
-9.5126019128
-9.49608785511
-9.47580107358
-9.45164232193
-9.42351205467
-9.39131115755
-9.35494089465
-9.31430329516
-9.26930081305
-9.21983659953
-9.16581465177
-9.1071388531
-9.04371372485
-8.9754455728
-8.90224008997
-8.82400149121
-8.74063466799
-8.65204425334
-8.55813411239
-8.45880600549
-8.35395891627
-8.24349210952
-8.12730144141
-8.00528046726
-7.87732797496
-7.74334376115
-7.60323921802
-7.45695351985
-7.30445908246
-7.14579622033
-6.98108551465
-6.81053870749
-6.63439490315
-6.45270997689
-6.26537672958
-1.83152254336
-1.80606747778
-1.85542604773
-1.94558634881
-2.05051087092
-2.15983312641
-2.2676700509
-2.37089382193
-2.46856762826
-2.5609578292
-2.64882993909
-2.7330740056
-2.8145293095
-2.89390792265
-2.9717758879
-3.0485675725
-3.12460674198
-3.20012744417
-3.27529699654
-3.35023290975
-3.42501556397
-3.4996995159
-3.57432071538
-3.64890277014
-3.723459695
-3.79800049357
-3.87253022726
-3.94705152775
-4.02156472425
-4.09606968964
-4.17056586032
-4.24505193597
-4.31952647977
-4.39398796195
-4.46843469226
-4.54286490431
-4.61727673246
-4.69166835155
-4.76603761584
-4.8403821694
-4.91469973971
-4.98898791214
-5.06324391864
-5.1374649708
-5.21164827196
-5.28579056241
-5.35988812982
-5.43393711489
-5.50793348833
-5.58187284043
-5.65575040818
-5.72956108368
-5.80329943659
-5.87695976008
-5.95053588716
-6.02402121875
-6.09740858716
-6.17069036399
-6.2438584118
-6.31690394513
-6.38981769733
-6.4625899076
-6.53521005662
-6.60766685657
-6.6799484529
-6.75204233497
-6.823935095
-6.89561240973
-6.96705912538
-7.03825927927
-7.10919596642
-7.17985122278
-7.25020611722
-7.32024070644
-7.38993392806
-7.4592636049
-7.52820625552
-7.5967371223
-7.66483027443
-7.73245841313
-7.79959291379
-7.86620379865
-7.93225958514
-7.99772723354
-8.06257208616
-8.12675791262
-8.19024678179
-8.25299903881
-8.31497354397
-8.37612736498
-8.43641558494
-8.49579171649
-8.55420748176
-8.61161238561
-8.66795423566
-8.7231789696
-8.77723038657
-8.83005041798
-8.88157889801
-8.93175390477
-8.98051133954
-9.02778487609
-9.07350662409
-9.11760652794
-9.16001246849
-9.20065061741
-9.23944482908
-9.27631725189
-9.31118856394
-9.34397731754
-9.37459997695
-9.40297157839
-9.4290054349
-9.45261310054
-9.47370516063
-9.49219100025
-9.50797791975
-9.52097225008
-9.53107924736
-9.53820314798
-9.5422471786
-9.54311426289
-9.54070664445
-9.53492555194
-9.52567160811
-9.51284613465
-9.49635019835
-9.47608456478
-9.45195021415
-9.42384826596
-9.39168058292
-9.35534951397
-9.31475828017
-9.26981079929
-9.22041184738
-9.16646770061
-9.10788544413
-9.04457252779
-8.97643851944
-8.90339438695
-8.82535047221
-8.74221839741
-8.65391106705
-8.56034281729
-8.46142895576
-8.35708366248
-8.24722491352
-8.13177338031
-8.01065049042
-7.8837888285
-7.75112997579
-7.61263035702
-7.46827985423
-7.31809993303
-7.16216780501
-7.00061804082
-6.83363071718
-6.66138085659
-6.48389720546
-6.30104073624
-1.90556448597
-1.87451610147
-1.9044457427
-1.97421862519
-2.06338668821
-2.16226341171
-2.26414260648
-2.36461513048
-2.46154202323
-2.55428797188
-2.6430256409
-2.72829240693
-2.81073733141
-2.89098542904
-2.96957459205
-3.0469409183
-3.12342479243
-3.19928208296
-3.27470136266
-3.34981944546
-3.42473307656
-3.49950983837
-3.57419585323
-3.64882247855
-3.72340924852
-3.79797011328
-3.87251283487
-3.94704235833
-4.02156073037
-4.09606876371
-4.17056666589
-4.24505366353
-4.31952860084
-4.39399013758
-4.46843681082
-4.54286694254
-4.61727864311
-4.69167004794
-4.76603919513
-4.8403837289
-4.91470126778
-4.98898943674
-5.06324557427
-5.13746683275
-5.21165030258
-5.28579278887
-5.35989057744
-5.43393977794
-5.50793633015
-5.58187585461
-5.65575356609
-5.72956436747
-5.80330286672
-5.87696339895
-5.95053985312
-6.02402560208
-6.09741340855
-6.17069556597
-6.24386395561
-6.31690986364
-6.3898239987
-6.46259656041
-6.53521710571
-6.60767440306
-6.67995656537
-6.75205106308
-6.82394449679
-6.8956225453
-6.96707001608
-7.03827090233
-7.10920832556
-7.17986437109
-7.2502201201
-7.32025562726
-7.38994977641
-7.45928034362
-7.52822389142
-7.59675570202
-7.66484988253
-7.73247914924
-7.79961483298
-7.86622696318
-7.93228412373
-7.99775329458
-8.06259970146
-8.12678707672
-8.19027761407
-8.25303161446
-8.3150078295
-8.37616342999
-8.43645355945
-8.49583158158
-8.5542492681
-8.6116562352
-8.66800018752
-8.72322711991
-8.7772808578
-8.83010331242
-8.88163427584
-8.93181180853
-8.9805719854
-9.02784832146
-9.07357286398
-9.11767572929
-9.16008475104
-9.20072604141
-9.23952355117
-9.27639927385
-9.31127388683
-9.34406624866
-9.37469279699
-9.40306831218
-9.4291062078
-9.4527183478
-9.47381524614
-9.49230612395
-9.5080985597
-9.52109864448
-9.53121191162
-9.53834282288
-9.54239485087
-9.5432706715
-9.54087285883
-9.53510312489
-9.52586241623
-9.51305190055
-9.49657311232
-9.47632758512
-9.45221684527
-9.42414257594
-9.39200740275
-9.35571475407
-9.31516918279
-9.27027606543
-9.22094165963
-9.16707423808
-9.10858401652
-9.04538178578
-8.97738007842
-8.90449418745
-8.82664038156
-8.74373693655
-8.65570440729
-8.56246629786
-8.46394985155
-8.36008314378
-8.25079978496
-8.13604103493
-8.01575193351
-7.88989087994
-7.75843142565
-7.62136317986
-7.47870992694
-7.33052642538
-7.17691279301
-7.01801691349
-6.85401839364
-6.68510292207
-6.51139417959
-6.33296544509
-1.94779741311
-1.91623495319
-1.93587895059
-1.99332510445
-2.07233832927
-2.16411704674
-2.26173463044
-2.36012234551
-2.45640441309
-2.54933803387
-2.63867077015
-2.72467526314
-2.80785101449
-2.88875022898
-2.96788471866
-3.04568863888
-3.12251275556
-3.19862852328
-3.27424019703
-3.34949894363
-3.42451381941
-3.49936236705
-3.57409845363
-3.64875866655
-3.72336966712
-3.79794630367
-3.87249918675
-3.947035087
-4.02155747206
-4.09606795728
-4.17056723745
-4.24505497225
-4.31953025906
-4.39399185365
-4.4684384557
-4.54286849273
-4.61728007471
-4.691671357
-4.76604043772
-4.84038496276
-4.91470246246
-4.98899056468
-5.06324675554
-5.13746820622
-5.2116518466
-5.2857944694
-5.35989239034
-5.43394175042
-5.50793845694
-5.58187808032
-5.65575586579
-5.72956675809
-5.80330542784
-5.8769662081
-5.95054293377
-6.02402898328
-6.09741712359
-6.17069956988
-6.24386817364
-6.31691430483
-6.38982870142
-6.46260151107
-6.53522232558
-6.6076799932
-6.67996261788
-6.752057616
-6.82395156827
-6.89563016205
-6.96707818705
-7.03827960096
-7.10921755191
-7.17987416997
-7.25023054728
-7.32026674722
-7.38996160784
-7.45929284539
-7.52823707564
-7.59676961963
-7.66486457188
-7.73249466272
-7.79963122155
-7.86624426789
-7.93230239423
-7.99777261807
-8.06262012942
-8.12680859419
-8.19030030405
-8.25305562312
-8.31503316148
-8.37619002777
-8.43648146725
-8.49586081307
-8.55427983336
-8.61168828221
-8.66803380431
-8.72326233092
-8.77731766719
-8.83014175835
-8.88167449433
-8.93185383485
-8.98061596044
-9.02789441742
-9.07362109036
-9.11772614388
-9.16013737484
-9.20078087041
-9.23958079764
-9.27645912128
-9.31133629672
-9.34413122339
-9.37476056005
-9.40313901575
-9.42918006833
-9.45279582938
-9.47389654863
-9.49239140072
-9.50818825975
-9.52119309597
-9.53131171567
-9.5384487078
-9.54250776073
-9.54339180603
-9.54100299124
-9.53524334476
-9.52601471898
-9.51321835864
-9.49675588923
-9.47652948548
-9.4524413195
-9.42439374049
-9.39229013888
-9.35603489491
-9.31553380061
-9.27069381197
-9.22142284116
-9.16763084997
-9.10923054995
-9.04613623461
-8.97826379191
-8.90553216391
-8.82786287381
-8.74518055947
-8.65741294949
-8.56449195142
-8.46635510435
-8.36294302668
-8.25420295013
-8.14009274537
-8.02057808539
-7.89563830964
-7.76527191078
-7.62949595128
-7.48836021176
-7.34194751088
-7.19038185585
-7.03383429805
-6.87251512651
-6.70666559379
-6.53654221554
-6.36245210967
-1.9670458401
-1.93595099571
-1.9511739527
-2.00284175306
-2.07689912798
-2.16510070815
-2.26050476015
-2.35777342004
-2.45368596663
-2.54669668881
-2.63633198144
-2.72272313217
-2.80628766276
-2.88753606679
-2.96696473119
-3.04500584202
-3.12201482591
-3.1982712914
-3.27398791879
-3.34932353624
-3.42439378232
-3.4992815597
-3.57404521264
-3.64872467581
-3.72334809205
-3.79793322666
-3.87249172384
-3.94703112053
-4.02155572439
-4.09606760522
-4.17056764943
-4.24505578676
-4.31953125354
-4.39399291459
-4.46843942999
-4.54286937672
-4.61728092859
-4.69167216716
-4.76604122563
-4.84038578884
-4.91470330244
-4.98899136675
-5.06324758679
-5.13746918651
-5.211652974
-5.28579565559
-5.35989362573
-5.43394307043
-5.50793985451
-5.58187950697
-5.65575730397
-5.72956827464
-5.80330710751
-5.87696811408
-5.9505450682
-6.02403133502
-6.09741968906
-6.17070230439
-6.24387099995
-6.31691721743
-6.38983177028
-6.4626047644
-6.53522576365
-6.60768368825
-6.67996666165
-6.75206203344
-6.82395632445
-6.89563522193
-6.9670835603
-7.03828530973
-7.10922361282
-7.17988059389
-7.25023731419
-7.32027386986
-7.3899691458
-7.45930082913
-7.52824556341
-7.59677867565
-7.66487416766
-7.73250477547
-7.7996419019
-7.86625557291
-7.93231429631
-7.99778510439
-8.06263327503
-8.12682238291
-8.19031473574
-8.25307083439
-8.31504918417
-8.37620679133
-8.4364990312
-8.49587925871
-8.55429910904
-8.61170844495
-8.6680549548
-8.72328450293
-8.77734083487
-8.83016591302
-8.88169976571
-8.93188022524
-8.98064346948
-9.02792324365
-9.07365129477
-9.11775774814
-9.16017046007
-9.20081534132
-9.23961668852
-9.27649666233
-9.31137552848
-9.34417208801
-9.3748032015
-9.4031836421
-9.42922693968
-9.45284528556
-9.47394880266
-9.49244663027
-9.50824669733
-9.52125552139
-9.53137859372
-9.53852082864
-9.54258581739
-9.54347678543
-9.54109618861
-9.53534577421
-9.52612785931
-9.51334447562
-9.49689744457
-9.47668927339
-9.4526226773
-9.42460066239
-9.39252753638
-9.3563086413
-9.31585076584
-9.27106240172
-9.22185332478
-9.16813528482
-9.10982305307
-9.04683402584
-8.97908775439
-8.90650676159
-8.82901725732
-8.74654990611
-8.65903903582
-8.56642427759
-8.46865242544
-8.36567554669
-8.2574535879
-8.14395819155
-8.0251731604
-7.90109700756
-7.77174885288
-7.63717063798
-7.49743640817
-7.35265630549
-7.20298412708
-7.04862328853
-6.88983213066
-6.72692461448
-6.56028240164
-6.39039434702
-1.96704582497
-1.93595077653
-1.95117398196
-2.00284183826
-2.07689902352
-2.16510068741
-2.26050487991
-2.35777346224
-2.45368590808
-2.54669689535
-2.63633208796
-2.72272309385
-2.8062878209
-2.8875360904
-2.96696460206
-3.04500585676
-3.12201485705
-3.19827129068
-3.27398794127
-3.34932361312
-3.42439392946
-3.49928165809
-3.57404529667
-3.64872479888
-3.7233481326
-3.7979332397
-3.872491801
-3.94703119993
-4.02155585036
-4.09606781477
-4.17056789269
-4.24505601571
-4.3195315115
-4.39399322237
-4.46843972335
-4.54286962692
-4.61728121862
-4.69167248853
-4.76604149381
-4.84038601002
-4.91470355094
-4.98899168402
-5.06324797657
-5.13746969013
-5.2116535966
-5.28579633963
-5.35989435463
-5.43394383524
-5.50794063356
-5.58188027323
-5.655758064
-5.72956906576
-5.80330796722
-5.87696909436
-5.95054620618
-6.02403259816
-6.09742103921
-6.17070372079
-6.24387244175
-6.31691865382
-6.38983324502
-6.46260632207
-6.53522740336
-6.60768544447
-6.67996861093
-6.7520642142
-6.82395869812
-6.89563772072
-6.96708617323
-7.03828806351
-7.10922651872
-7.17988365888
-7.25024051622
-7.32027718629
-7.38997261511
-7.45930451165
-7.52824951923
-7.59678290665
-7.66487859203
-7.73250935916
-7.79964669586
-7.86626063143
-7.93231959504
-7.99779059327
-8.0626390063
-8.12682838876
-8.19032096156
-8.25307730093
-8.31505592136
-8.37621378393
-8.43650635721
-8.49588703521
-8.55430728689
-8.61171693096
-8.66806371732
-8.72329352611
-8.77735016313
-8.83017560226
-8.88170992365
-8.93189083543
-8.98065445256
-9.02793474696
-9.07366342566
-9.11777050559
-9.160183919
-9.20082944299
-9.2396312909
-9.27651187052
-9.31139145748
-9.34418874339
-9.37482069392
-9.40320222067
-9.42924680853
-9.45286655571
-9.47397185318
-9.49247167525
-9.50827409317
-9.52128578882
-9.53141242576
-9.53855892406
-9.5426287864
-9.54352539343
-9.54115179693
-9.53540977035
-9.52620162103
-9.51343005927
-9.49699732362
-9.47680625259
-9.45276012479
-9.42476255439
-9.39271871179
-9.35653503598
-9.31611935865
-9.27138150295
-9.22223293876
-9.16858738137
-9.11036179242
-9.04747626087
-8.97985392663
-8.90742107717
-8.83010822811
-8.74785195773
-8.66059302494
-8.56827813601
-8.4708626647
-8.36830915797
-8.26059027434
-8.14769044627
-8.02960927309
-7.90636433623
-7.77799385971
-7.64456331702
-7.50617168256
-7.36295687464
-7.21510715399
-7.06286339561
-6.90653565604
-6.74650759012
-6.58325781416
-6.4173925595
-1.94779745554
-1.91623446557
-1.9358789645
-1.99332529746
-2.07233806798
-2.16411700087
-2.2617349437
-2.36012244529
-2.4564042806
-2.54933859016
-2.63867102934
-2.72467515947
-2.8078514103
-2.88875029547
-2.96788441299
-3.04568867621
-3.12251279126
-3.1986285025
-3.27424029068
-3.34949919211
-3.42451425756
-3.49936269472
-3.57409874573
-3.6487590474
-3.72336982657
-3.79794640365
-3.87249945237
-3.94703533699
-4.02155780784
-4.09606851619
-4.17056791479
-4.24505563637
-4.31953096314
-4.39399273054
-4.46843934187
-4.54286930183
-4.61728101509
-4.69167241255
-4.76604137613
-4.84038577733
-4.9147033103
-4.98899155089
-5.06324793788
-5.13746968501
-5.21165364542
-5.28579643065
-5.35989446243
-5.43394389803
-5.507940604
-5.581880196
-5.65575799047
-5.72956900975
-5.80330793955
-5.87696912371
-5.95054632238
-6.02403276265
-6.09742117811
-6.17070383127
-6.24387254156
-6.31691872201
-6.38983327102
-6.46260632746
-6.53522738071
-6.60768538062
-6.6799685237
-6.75206412349
-6.82395860119
-6.89563757937
-6.96708595553
-7.03828775267
-7.10922609518
-7.17988315275
-7.25023995934
-7.32027656083
-7.38997195246
-7.45930387464
-7.52824892067
-7.59678232828
-7.66487797173
-7.73250863298
-7.79964584815
-7.8662596744
-7.93231848483
-7.99778922031
-8.06263740552
-8.12682661676
-8.19031892608
-8.25307494742
-8.31505333548
-8.37621100927
-8.43650338663
-8.49588392861
-8.55430406922
-8.61171349498
-8.66805998445
-8.72328945413
-8.77734574102
-8.83017084174
-8.88170490515
-8.93188565054
-8.98064900594
-9.02792906213
-9.07365755465
-9.117764395
-9.16017758411
-9.20082290782
-9.23962448903
-9.27650475197
-9.31138412899
-9.34418122427
-9.37481304051
-9.40319472637
-9.42923958932
-9.45285966428
-9.47396568531
-9.49246644917
-9.50827030267
-9.52128400658
-9.53141301907
-9.53856254516
-9.54263638298
-9.54353759304
-9.54116959086
-9.53543482133
-9.5262355746
-9.51347484507
-9.49705527557
-9.47688005287
-9.4528531743
-9.42487899037
-9.3928633547
-9.35671379304
-9.31633931933
-9.27165106175
-9.22256207137
-9.16898801292
-9.11084821662
-9.04806536065
-8.98056608073
-8.90828070072
-8.83114370508
-8.74909727047
-8.66208892205
-8.57007241151
-8.4730114593
-8.37087841569
-8.26365852057
-8.15134950032
-8.03396532102
-7.91154228353
-7.78413824855
-7.65184133979
-7.51477666402
-7.37310934784
-7.22706253958
-7.07691551459
-6.9230244262
-6.76582823642
-6.60586899213
-6.44381401807
-1.90556471196
-1.87451572119
-1.90444558831
-1.97421882891
-2.0633864505
-2.1622633889
-2.26414297802
-2.36461524896
-2.46154198015
-2.55428880685
-2.64302605468
-2.72829239099
-2.81073781392
-2.89098542974
-2.96957417906
-3.04694090738
-3.12342473405
-3.19928207908
-3.27470165045
-3.34981995465
-3.4247338349
-3.49951047053
-3.57419638791
-3.64882303775
-3.72340949226
-3.79797033869
-3.8725132983
-3.94704278197
-4.02156124307
-4.09606955837
-4.17056764478
-4.24505474929
-4.31952981095
-4.39399155783