/*--------------------------------*- C++ -*----------------------------------*\
| =========                 |                                                 |
| \\      /  F ield         | OpenFOAM: The Open Source CFD Toolbox           |
|  \\    /   O peration     | Version:  2106                                  |
|   \\  /    A nd           | Website:  www.openfoam.com                      |
|    \\/     M anipulation  |                                                 |
\*---------------------------------------------------------------------------*/
FoamFile
{
    version     2.0;
    format      ascii;
    arch        "LSB;label=32;scalar=64";
    class       surfaceScalarField;
    location    "0.39";
    object      phi;
}
// * * * * * * * * * * * * * * * * * * * * * * * * * * * * * * * * * * * * * //

dimensions      [0 3 -1 0 0 0 0];

oriented        oriented;

internalField   nonuniform List<scalar> 
18840
(
3.37543043112e-05
1.62456956673e-05
2.25359628969e-05
1.12183415238e-05
1.63023776613e-05
6.23358455383e-06
1.28098255957e-05
3.49255284286e-06
1.08065799688e-05
2.00324504392e-06
9.60476923751e-06
1.20181093071e-06
8.85167877664e-06
7.53090432001e-07
8.36503077368e-06
4.86647766921e-07
8.04518626599e-06
3.19844573555e-07
7.83374218989e-06
2.11444107431e-07
7.69428222476e-06
1.39459906417e-07
7.60308055405e-06
9.12017136052e-08
7.54426571705e-06
5.88149431725e-08
7.50707746712e-06
3.71882868836e-08
7.48418952314e-06
2.28879817354e-08
7.47062407287e-06
1.35655633021e-08
7.46302153098e-06
7.60254674805e-09
7.4591387543e-06
3.88275415475e-09
7.45749902887e-06
1.63970921875e-09
7.45714593779e-06
3.53047122451e-10
7.45748329052e-06
-3.37392187978e-10
7.45813433854e-06
-6.51101369089e-10
7.45888633074e-06
-7.52026470517e-10
7.45962004302e-06
-7.3372734976e-10
7.4602765097e-06
-6.56484046276e-10
7.46083299327e-06
-5.56461675487e-10
7.46128721233e-06
-4.54186359228e-10
7.46164745675e-06
-3.60256264353e-10
7.46192661724e-06
-2.79217274592e-10
7.4621387967e-06
-2.12196012017e-10
7.46229737404e-06
-1.58538552749e-10
7.46241405211e-06
-1.16658993262e-10
7.46249864365e-06
-8.45928138256e-11
7.46255913937e-06
-6.0461557001e-11
7.46260182593e-06
-4.2634521742e-11
7.46263151011e-06
-2.96765773213e-11
7.46265184158e-06
-2.03731922364e-11
7.46266556874e-06
-1.37733247009e-11
7.46267469656e-06
-9.16203460122e-12
7.4626806517e-06
-5.99769116917e-12
7.46268449764e-06
-3.86896166413e-12
7.46268703146e-06
-2.4979724192e-12
7.46268862323e-06
-1.55960361315e-12
7.46268954648e-06
-8.9866953019e-13
7.46269011001e-06
-5.27907758203e-13
7.46269047554e-06
-3.25321486845e-13
7.46269071214e-06
-2.02563111771e-13
7.4626908881e-06
-1.68895938205e-13
7.46269103633e-06
-2.03146021771e-13
7.46269118977e-06
-2.59136210676e-13
7.46269137606e-06
-2.87114200447e-13
7.46269161949e-06
-2.91662668471e-13
7.46269191285e-06
-3.28099588834e-13
7.46269222433e-06
-3.91257215684e-13
7.46269257328e-06
-4.29022148559e-13
7.46269300945e-06
-4.30891431728e-13
7.46269351505e-06
-4.33668250981e-13
7.46269401748e-06
-4.45430502964e-13
7.46269449894e-06
-4.52526351149e-13
7.46269500047e-06
-4.68935065339e-13
7.46269552331e-06
-5.17358725451e-13
7.46269606607e-06
-5.79016544033e-13
7.46269666416e-06
-6.32270422658e-13
7.46269734883e-06
-6.74998979964e-13
7.46269810659e-06
-6.98272681526e-13
7.46269889961e-06
-7.08166875637e-13
7.4626996784e-06
-7.42240712137e-13
7.46270042998e-06
-8.1876604126e-13
7.46270118962e-06
-9.0035458187e-13
7.46270200678e-06
-9.53472068479e-13
7.46270289635e-06
-9.87361894503e-13
7.46270383842e-06
-1.01919186387e-12
7.46270482018e-06
-1.05052963893e-12
7.4627058515e-06
-1.07344477723e-12
7.46270693908e-06
-1.09159976294e-12
7.46270808576e-06
-1.12305263368e-12
7.46270927877e-06
-1.17354844118e-12
7.46271050818e-06
-1.2234031051e-12
7.46271177496e-06
-1.25983828249e-12
7.46271308409e-06
-1.29471058923e-12
7.46271444234e-06
-1.34275967889e-12
7.46271586022e-06
-1.40590117666e-12
7.46271734396e-06
-1.47386264347e-12
7.46271888034e-06
-1.52557647049e-12
7.46272047099e-06
-1.56805204975e-12
7.46272212918e-06
-1.63956867064e-12
7.46272385517e-06
-1.73009143197e-12
7.46272565088e-06
-1.78846343051e-12
7.46272749762e-06
-1.80791844785e-12
7.46272938734e-06
-1.83612743632e-12
7.46273135811e-06
-1.91869523149e-12
7.4627334318e-06
-2.04527904269e-12
7.46273558617e-06
-2.14068182655e-12
7.46273782631e-06
-2.14789579819e-12
7.46274019538e-06
-2.14866315349e-12
7.46274263452e-06
-2.24052157268e-12
7.46274511936e-06
-2.39485028443e-12
7.46274774709e-06
-2.57834579978e-12
7.46275057539e-06
-2.77911914886e-12
7.4627536305e-06
-2.94655072878e-12
7.46275696501e-06
-3.11036391622e-12
7.46276061635e-06
-3.35446258974e-12
7.46276457358e-06
-3.78998785934e-12
7.46276888653e-06
-4.29609742651e-12
7.46277376209e-06
-4.78865964705e-12
7.46277935661e-06
-5.37864427454e-12
7.46278574648e-06
-6.17242823609e-12
7.46279303624e-06
-7.15402933223e-12
7.46280151418e-06
-8.38699073933e-12
7.46281156564e-06
-9.97500822775e-12
7.46282354738e-06
-1.19175754783e-11
7.46283793768e-06
-1.43012736009e-11
7.46285530793e-06
-1.72531382787e-11
7.4628763393e-06
-2.08703855932e-11
7.46290184886e-06
-2.53583554683e-11
7.4629329171e-06
-3.09775122857e-11
7.46297102834e-06
-3.80215535926e-11
7.46301785474e-06
-4.68462195133e-11
7.46307536681e-06
-5.77166551391e-11
7.46314621353e-06
-7.10427080281e-11
7.46323367072e-06
-8.75377113985e-11
7.46334168457e-06
-1.07982492614e-10
7.46347512167e-06
-1.33390452567e-10
7.46364069083e-06
-1.65567339123e-10
7.46384958327e-06
-2.08889931079e-10
7.46410393465e-06
-2.54431433417e-10
7.46441761211e-06
-3.13662792669e-10
7.46480600627e-06
-3.88108351212e-10
7.46528670967e-06
-4.80707410067e-10
7.46588191927e-06
-5.95301451706e-10
7.46661909436e-06
-7.37089877615e-10
7.46753215453e-06
-9.12901076995e-10
7.4686632122e-06
-1.13095487617e-09
7.47006434783e-06
-1.40119024213e-09
7.47180031241e-06
-1.73606087916e-09
7.47395167839e-06
-2.15129773737e-09
7.47661827845e-06
-2.66655341198e-09
7.47992437944e-06
-3.3062172259e-09
7.48402473222e-06
-4.10050404128e-09
7.48911240003e-06
-5.08754597365e-09
7.4954284187e-06
-6.31572177978e-09
7.50327402946e-06
-7.84558268161e-09
7.51302797533e-06
-9.7538664557e-09
7.52516690924e-06
-1.21387260328e-08
7.54029325397e-06
-1.51260666986e-08
7.55917275656e-06
-1.88791255551e-08
7.58278412208e-06
-2.3611291195e-08
7.61238926785e-06
-2.96051524528e-08
7.64963023617e-06
-3.72409128519e-08
7.69667125397e-06
-4.70407867794e-08
7.7564152607e-06
-5.97436693576e-08
7.83286054894e-06
-7.6445128861e-08
7.93176576394e-06
-9.89052548381e-08
8.06210972915e-06
-1.30344172549e-07
8.23985648319e-06
-1.77747148069e-07
8.49861586731e-06
-2.58760006595e-07
8.92125395791e-06
-4.22638518665e-07
9.74023443256e-06
-8.18980613801e-07
1.16691825086e-05
-1.92894813944e-06
-5.21960921771e-06
1.68887913297e-05
5.01388815218e-05
1.61068140174e-05
4.4159130105e-05
1.71980940391e-05
3.77598733101e-05
1.26328400305e-05
3.26495149558e-05
8.60291212587e-06
2.89465821477e-05
5.70617730442e-06
2.63676031361e-05
3.78078983203e-06
2.45938853885e-05
2.52680834477e-06
2.33783982932e-05
1.70213459981e-06
2.25473237873e-05
1.15091903032e-06
2.19811569323e-05
7.77611176197e-07
2.15978046199e-05
5.22812355326e-07
2.13405416487e-05
3.48464704571e-07
2.11699442673e-05
2.29412429303e-07
2.1058536653e-05
1.48595991142e-07
2.09871855886e-05
9.42390103809e-08
2.09426221435e-05
5.8129059221e-08
2.09157076281e-05
3.45170322463e-08
2.09002077955e-05
1.93824958173e-08
2.08919203121e-05
9.92713943267e-09
2.0888055146e-05
4.21814688693e-09
2.08867854627e-05
9.32245031374e-10
2.08869504276e-05
-8.16122231523e-10
2.08878287125e-05
-1.63034979981e-09
2.08889872329e-05
-1.89222976893e-09
2.08901806416e-05
-1.84991515407e-09
2.08912811768e-05
-1.65705816614e-09
2.08922326553e-05
-1.4056732759e-09
2.08930203738e-05
-1.14792019539e-09
2.08936519758e-05
-9.1081609761e-10
2.08941458219e-05
-7.06109729178e-10
2.08945240642e-05
-5.36802458653e-10
2.08948086363e-05
-4.01180942058e-10
2.08950192912e-05
-2.95227908701e-10
2.08951729221e-05
-2.14129364385e-10
2.08952834247e-05
-1.53166235158e-10
2.08953618303e-05
-1.08101902796e-10
2.08954166975e-05
-7.52847423712e-11
2.08954545436e-05
-5.16976516138e-11
2.08954802714e-05
-3.49657023458e-11
2.08954974829e-05
-2.32441403279e-11
2.08955087526e-05
-1.512628058e-11
2.08955159126e-05
-9.58664531877e-12
2.08955203783e-05
-5.90942336388e-12
2.0895523113e-05
-3.53833257217e-12
2.08955246996e-05
-2.05503253521e-12
2.08955255517e-05
-1.1548315064e-12
2.0895525923e-05
-6.34811028998e-13
2.08955261085e-05
-4.85059862062e-13
2.08955262048e-05
-4.33051555843e-13
2.08955262845e-05
-4.49464975473e-13
2.08955263657e-05
-4.70899190586e-13
2.08955264459e-05
-4.80098999627e-13
2.08955265661e-05
-5.24601013182e-13
2.08955267485e-05
-6.17577513447e-13
2.0895526979e-05
-6.92472272573e-13
2.08955272665e-05
-7.10299624271e-13
2.08955276288e-05
-7.13903471674e-13
2.0895528001e-05
-7.50278225493e-13
2.08955283289e-05
-8.05955137942e-13
2.08955286663e-05
-8.52308883703e-13
2.08955290401e-05
-9.10439555637e-13
2.08955294341e-05
-9.92325387372e-13
2.08955298834e-05
-1.07798283225e-12
2.08955304267e-05
-1.14621165412e-12
2.0895531029e-05
-1.1998839684e-12
2.08955316388e-05
-1.26808803851e-12
2.08955322205e-05
-1.37995693888e-12
2.08955327831e-05
-1.53367089085e-12
2.08955333575e-05
-1.6694717285e-12
2.08955339784e-05
-1.74213745898e-12
2.08955346631e-05
-1.77388832637e-12
2.08955353953e-05
-1.81133780078e-12
2.08955361609e-05
-1.8726279206e-12
2.08955369674e-05
-1.93951327839e-12
2.08955378145e-05
-1.99092923302e-12
2.08955387087e-05
-2.03301083685e-12
2.08955396563e-05
-2.08734609795e-12
2.08955406482e-05
-2.16408384437e-12
2.08955416657e-05
-2.25802152459e-12
2.08955427092e-05
-2.35532489297e-12
2.08955438027e-05
-2.4480797751e-12
2.08955449667e-05
-2.5413427111e-12
2.08955461969e-05
-2.64476509325e-12
2.08955474666e-05
-2.75596750686e-12
2.08955487952e-05
-2.86445683035e-12
2.08955502299e-05
-2.97995711897e-12
2.08955517596e-05
-3.11842007067e-12
2.08955533606e-05
-3.28063366945e-12
2.08955550253e-05
-3.44931281177e-12
2.08955567602e-05
-3.59061412042e-12
2.08955586221e-05
-3.70741889474e-12
2.08955606741e-05
-3.8570790995e-12
2.08955628935e-05
-4.06224503686e-12
2.08955652264e-05
-4.2799301712e-12
2.08955677671e-05
-4.52051178683e-12
2.08955705576e-05
-4.85361723332e-12
2.08955735653e-05
-5.28637879153e-12
2.0895576929e-05
-5.80342047221e-12
2.08955808112e-05
-6.4120620986e-12
2.08955852335e-05
-7.08693282299e-12
2.08955902488e-05
-7.89849271502e-12
2.08955960238e-05
-8.89426239877e-12
2.08956027509e-05
-1.01984753119e-11
2.08956105796e-05
-1.18443686985e-11
2.08956198122e-05
-1.37790063023e-11
2.08956307943e-05
-1.60956296577e-11
2.08956439134e-05
-1.90078615956e-11
2.0895659559e-05
-2.26600222323e-11
2.08956782416e-05
-2.70645192442e-11
2.08957005283e-05
-3.21466341564e-11
2.08957273755e-05
-3.84926800141e-11
2.08957612294e-05
-4.78217575649e-11
2.08958029656e-05
-5.87113450934e-11
2.08958543017e-05
-7.20809050204e-11
2.08959175366e-05
-8.86579087858e-11
2.0895995449e-05
-1.09119656733e-10
2.08960916211e-05
-1.34377662649e-10
2.08962104971e-05
-1.65706612892e-10
2.08963573684e-05
-2.04552285565e-10
2.08965389282e-05
-2.52630262053e-10
2.08967635283e-05
-3.12077775131e-10
2.08970412894e-05
-3.85609696355e-10
2.08973845162e-05
-4.76603968477e-10
2.08978080863e-05
-5.89229693679e-10
2.0898328398e-05
-7.29191833325e-10
2.0898977413e-05
-9.03532617661e-10
2.08997835966e-05
-1.11985753257e-09
2.09007837812e-05
-1.38785175228e-09
2.09020234041e-05
-1.71994208182e-09
2.09035593565e-05
-2.13115902372e-09
2.09054624743e-05
-2.64033651945e-09
2.0907820372e-05
-3.27101545773e-09
2.09107418826e-05
-4.0524490522e-09
2.09143617841e-05
-5.02098687889e-09
2.09188471934e-05
-6.22153980905e-09
2.0924405926e-05
-7.71007268154e-09
2.09312960312e-05
-9.55660333013e-09
2.09398384326e-05
-1.18484183564e-08
2.09504324452e-05
-1.46944088566e-08
2.09635759807e-05
-1.82310774117e-08
2.09798911639e-05
-2.26305116186e-08
2.10001556873e-05
-2.81098131922e-08
2.10253458698e-05
-3.49438755398e-08
2.10566908445e-05
-4.34834147472e-08
2.10957438851e-05
-5.41788758684e-08
2.11444793541e-05
-6.76141575007e-08
2.1205422628e-05
-8.45542116998e-08
2.12818330399e-05
-1.0601508087e-07
2.13779642888e-05
-1.33371603087e-07
2.14994531137e-05
-1.68529139667e-07
2.16539274993e-05
-2.14217510423e-07
2.18520174637e-05
-2.74534524891e-07
2.210915495e-05
-3.56042103696e-07
2.24489896157e-05
-4.70178191726e-07
2.29102068124e-05
-6.38963486487e-07
2.35604036448e-05
-9.08955968383e-07
2.45224109448e-05
-1.38464538994e-06
2.60105319501e-05
-2.30710170288e-06
2.83180957497e-05
-4.23651227414e-06
-8.29716944952e-06
3.13956569675e-05
5.35844260938e-05
1.25223873208e-05
5.29166017426e-05
1.78659199284e-05
4.9639301057e-05
1.5910139329e-05
4.58382174159e-05
1.2403996592e-05
4.24428747894e-05
9.10151971536e-06
3.97331592714e-05
6.49050508621e-06
3.76912455017e-05
4.56872235355e-06
3.62011670956e-05
3.19221292625e-06
3.51355936371e-05
2.21649239822e-06
3.43848446466e-05
1.5283602706e-06
3.38626591826e-05
1.04499794631e-06
3.35040067915e-05
7.07117060581e-07
3.32609628099e-05
4.72456446613e-07
3.30987208841e-05
3.10838028466e-07
3.29922908752e-05
2.00668975637e-07
3.29239197325e-05
1.2650019135e-07
3.28811298358e-05
7.730690476e-08
3.28552512119e-05
4.52610531766e-08
3.28403347147e-05
2.48436162909e-08
3.28323547808e-05
1.21980665426e-08
3.28286288857e-05
4.65814644265e-09
3.2827404938e-05
4.07831310661e-10
3.28275643345e-05
-1.78976017827e-09
3.28284103881e-05
-2.73827459494e-09
3.28295264946e-05
-2.96603468091e-09
3.28306761448e-05
-2.80678529325e-09
3.28317362721e-05
-2.46588523971e-09
3.28326527832e-05
-2.06442519763e-09
3.2833411487e-05
-1.66947094116e-09
3.2834019768e-05
-1.31440446416e-09
3.28344953803e-05
-1.01244110923e-09
3.28348596511e-05
-7.65411481899e-10
3.28351336613e-05
-5.69181670354e-10
3.28353364561e-05
-4.16920498103e-10
3.28354843344e-05
-3.01075496158e-10
3.28355906648e-05
-2.14451309083e-10
3.28356660635e-05
-1.50680271094e-10
3.28357187517e-05
-1.04400840312e-10
3.28357550378e-05
-7.12590172968e-11
3.28357796566e-05
-4.78497376432e-11
3.28357960681e-05
-3.15357343618e-11
3.28358068237e-05
-2.03368416726e-11
3.28358137421e-05
-1.2798527046e-11
3.28358180655e-05
-7.84603058824e-12
3.2835820694e-05
-4.68270078112e-12
3.28358222768e-05
-2.7504855147e-12
3.28358232041e-05
-1.62827089868e-12
3.28358236161e-05
-1.00752491822e-12
3.28358237237e-05
-6.32299628295e-13
3.28358237629e-05
-5.31395847607e-13
3.28358237648e-05
-5.08580828284e-13
3.28358237233e-05
-5.42388115026e-13
3.28358237005e-05
-6.10470818764e-13
3.28358237548e-05
-6.9723182247e-13
3.28358238795e-05
-7.78933641842e-13
3.28358240447e-05
-8.20871854355e-13
3.28358242483e-05
-8.42349837974e-13
3.28358244728e-05
-9.0319794588e-13
3.28358246767e-05
-1.00409839601e-12
3.28358248631e-05
-1.09160912005e-12
3.28358250744e-05
-1.18149632985e-12
3.28358253184e-05
-1.27719032896e-12
3.28358256073e-05
-1.35882921512e-12
3.28358259726e-05
-1.44016596777e-12
3.28358263847e-05
-1.55076510179e-12
3.28358267871e-05
-1.69733596716e-12
3.28358271541e-05
-1.85834724959e-12
3.28358275288e-05
-2.03549600209e-12
3.28358279231e-05
-2.1670975314e-12
3.28358283383e-05
-2.24877432031e-12
3.28358287796e-05
-2.29987175166e-12
3.28358292515e-05
-2.35301349779e-12
3.28358297617e-05
-2.42089898225e-12
3.28358303192e-05
-2.50300424415e-12
3.28358309087e-05
-2.59431283832e-12
3.28358315207e-05
-2.67940333368e-12
3.28358321639e-05
-2.75559590212e-12
3.28358328423e-05
-2.83839468761e-12
3.28358335472e-05
-2.94215357674e-12
3.28358342789e-05
-3.06854171829e-12
3.28358350516e-05
-3.20595949189e-12
3.28358358796e-05
-3.34086895575e-12
3.28358367745e-05
-3.48474109215e-12
3.28358377159e-05
-3.66189682879e-12
3.28358386962e-05
-3.85841447936e-12
3.2835839769e-05
-4.04569800557e-12
3.28358409582e-05
-4.23151575265e-12
3.28358422385e-05
-4.44644372001e-12
3.28358435906e-05
-4.70746405836e-12
3.28358450207e-05
-4.99136529484e-12
3.28358465772e-05
-5.25114362752e-12
3.28358483415e-05
-5.49291611473e-12
3.28358503457e-05
-5.80527464426e-12
3.28358525136e-05
-6.23873722141e-12
3.28358548848e-05
-6.77340549547e-12
3.28358575754e-05
-7.44137167786e-12
3.28358606161e-05
-8.24984683968e-12
3.28358640919e-05
-9.14165453438e-12
3.2835868133e-05
-1.01425680778e-11
3.28358727483e-05
-1.1338681286e-11
3.28358783382e-05
-1.32344284824e-11
3.28358849551e-05
-1.5368362941e-11
3.28358929712e-05
-1.79614960332e-11
3.28359026667e-05
-2.11791977868e-11
3.28359143441e-05
-2.51521295309e-11
3.28359284993e-05
-3.00435567075e-11
3.28359457756e-05
-3.60960053155e-11
3.28359668994e-05
-4.36422314535e-11
3.28359929062e-05
-5.29551609687e-11
3.28360253181e-05
-6.44012510234e-11
3.28360655749e-05
-7.8565297569e-11
3.2836114178e-05
-9.61966443774e-11
3.2836173764e-05
-1.18094350651e-10
3.28362470686e-05
-1.45267231078e-10
3.2836337472e-05
-1.78961955655e-10
3.28364489762e-05
-2.20676006221e-10
3.28365866079e-05
-2.7220321784e-10
3.28367567145e-05
-3.35912716788e-10
3.28369669509e-05
-4.14839154762e-10
3.28372268745e-05
-5.12575487427e-10
3.28375483658e-05
-6.33524546129e-10
3.28379460796e-05
-7.83276158643e-10
3.28384382003e-05
-9.68690107489e-10
3.28390472163e-05
-1.19835631011e-09
3.28398012972e-05
-1.48316839883e-09
3.28407343701e-05
-1.8363869255e-09
3.28418888918e-05
-2.27446897222e-09
3.28433183827e-05
-2.81737026929e-09
3.28450886149e-05
-3.49000187159e-09
3.28472808231e-05
-4.32322529251e-09
3.28499958568e-05
-5.35534131523e-09
3.28533585851e-05
-6.63385802255e-09
3.28575239818e-05
-8.21791380608e-09
3.28626841782e-05
-1.01810738424e-08
3.2869077237e-05
-1.26145825303e-08
3.28769988601e-05
-1.56318559155e-08
3.28868163726e-05
-1.9374265348e-08
3.2898986472e-05
-2.40183200103e-08
3.29140770079e-05
-2.97846047743e-08
3.29327951657e-05
-3.69491564631e-08
3.29560239072e-05
-4.58589830308e-08
3.29848662237e-05
-5.69518168319e-08
3.30207042351e-05
-7.07815907562e-08
3.30652749507e-05
-8.80537014047e-08
3.31207687188e-05
-1.09672527507e-07
3.31899621023e-05
-1.36807464021e-07
3.32763949455e-05
-1.70986977078e-07
3.33846159939e-05
-2.14235891589e-07
3.35205293284e-05
-2.69284534718e-07
3.36918996023e-05
-3.39899184773e-07
3.39091159711e-05
-4.31433789234e-07
3.41863899822e-05
-5.51808595347e-07
3.45436911186e-05
-7.13343558694e-07
3.50099009553e-05
-9.36388652802e-07
3.56277348945e-05
-1.25679784373e-06
3.64602663199e-05
-1.74148744042e-06
3.75949472868e-05
-2.51932644156e-06
3.91237953717e-05
-3.83595004872e-06
4.10217165931e-05
-6.13443505125e-06
-1.00465816678e-05
4.27711283552e-05
5.35705191617e-05
8.95186720717e-06
5.55863066199e-05
1.58501343508e-05
5.52410585067e-05
1.62553860319e-05
5.35976160145e-05
1.404743968e-05
5.15429061984e-05
1.11562296464e-05
4.95819403987e-05
8.45147050724e-06
4.79262513288e-05
6.22441161393e-06
4.66200400096e-05
4.49842432752e-06
4.56322340578e-05
3.20429830226e-06
4.49066879127e-05
2.25390642323e-06
4.43854426665e-05
1.56624329614e-06
4.40178333243e-05
1.0747263614e-06
4.37629128249e-05
7.2737689965e-07
4.35890454154e-05
4.84705507478e-07
4.34725021778e-05
3.17212187088e-07
4.33958691362e-05
2.03133188427e-07
4.33465911046e-05
1.26584921835e-07
4.33157569596e-05
7.6095185553e-08
4.32971355194e-05
4.3465085588e-08
4.32864339218e-05
2.2899685513e-08
4.32807406017e-05
1.03514939565e-08
4.32781178488e-05
3.03060131496e-09
4.32772911148e-05
-9.63089890906e-10
4.32774555792e-05
-2.90281263682e-09
4.32781069764e-05
-3.61746595851e-09
4.3278945e-05
-3.64483206091e-09
4.32797999829e-05
-3.3209145667e-09
4.32805843365e-05
-2.84880817265e-09
4.32812601765e-05
-2.34529477462e-09
4.3281818294e-05
-1.87251975904e-09
4.3282264947e-05
-1.45911886722e-09
4.32826136754e-05
-1.11413971535e-09
4.32828803992e-05
-8.35877200038e-10
4.32830807697e-05
-6.17286376086e-10
4.32832288973e-05
-4.49232890715e-10
4.32833368028e-05
-3.22378123551e-10
4.32834143019e-05
-2.28175963338e-10
4.32834691684e-05
-1.59258045215e-10
4.32835074583e-05
-1.09544505739e-10
4.32835338142e-05
-7.41800914092e-11
4.32835516606e-05
-4.93727000752e-11
4.32835635289e-05
-3.22121373256e-11
4.32835712672e-05
-2.05512546507e-11
4.32835761821e-05
-1.27984887107e-11
4.32835791928e-05
-7.76458549721e-12
4.32835809635e-05
-4.59078635619e-12
4.32835819555e-05
-2.66682196655e-12
4.32835824744e-05
-1.55735741508e-12
4.32835827688e-05
-9.4318338398e-13
4.32835828795e-05
-6.30632345484e-13
4.328358289e-05
-5.2189016491e-13
4.3283582807e-05
-5.23411122975e-13
4.3283582703e-05
-5.94207989414e-13
4.32835826516e-05
-6.60537992993e-13
4.32835826615e-05
-7.20579629611e-13
4.32835826775e-05
-7.79304835076e-13
4.32835826846e-05
-8.36739804367e-13
4.32835827031e-05
-9.12760366439e-13
4.32835827007e-05
-1.02478677639e-12
4.3283582671e-05
-1.14015000676e-12
4.32835826441e-05
-1.239575571e-12
4.32835826421e-05
-1.32670432843e-12
4.32835826799e-05
-1.40966765147e-12
4.32835827593e-05
-1.5055309247e-12
4.32835828487e-05
-1.64046780317e-12
4.32835829271e-05
-1.82059909149e-12
4.32835830073e-05
-2.01033561836e-12
4.32835830936e-05
-2.17569320369e-12
4.32835831972e-05
-2.29664143901e-12
4.3283583296e-05
-2.3779987458e-12
4.3283583387e-05
-2.45189390155e-12
4.32835834837e-05
-2.52098184863e-12
4.32835835981e-05
-2.58234593442e-12
4.32835837415e-05
-2.65446792306e-12
4.32835839063e-05
-2.75394666643e-12
4.32835840815e-05
-2.86805995456e-12
4.32835842694e-05
-2.97721203298e-12
4.32835844741e-05
-3.07646757161e-12
4.32835846936e-05
-3.18007408466e-12
4.32835849313e-05
-3.31183315011e-12
4.32835851954e-05
-3.47433075907e-12
4.32835854942e-05
-3.64307374294e-12
4.3283585847e-05
-3.81454933995e-12
4.32835862509e-05
-4.02633830665e-12
4.32835866953e-05
-4.28933953864e-12
4.32835872205e-05
-4.56180844575e-12
4.32835878498e-05
-4.81669728309e-12
4.32835885685e-05
-5.07493808971e-12
4.32835893872e-05
-5.38612056834e-12
4.32835903249e-05
-5.77132752955e-12
4.32835913876e-05
-6.19011974238e-12
4.32835926275e-05
-6.61829018137e-12
4.32835941272e-05
-7.12965349686e-12
4.32835958501e-05
-7.80163030705e-12
4.32835978117e-05
-8.63967824512e-12
4.32836001747e-05
-9.6779351971e-12
4.32836030283e-05
-1.0950726295e-11
4.32836064559e-05
-1.24357222356e-11
4.32836106861e-05
-1.41849272005e-11
4.32836160048e-05
-1.63344503667e-11
4.32836221688e-05
-1.91202176457e-11
4.32836295072e-05
-2.25593770768e-11
4.3283638423e-05
-2.66950432329e-11
4.32836493106e-05
-3.17796165944e-11
4.32836625538e-05
-3.81063118758e-11
4.32836786639e-05
-4.59561194707e-11
4.32836983725e-05
-5.56699107085e-11
4.32837225871e-05
-6.76933580134e-11
4.32837523576e-05
-8.25267118679e-11
4.32837889959e-05
-1.0084798994e-10
4.32838341676e-05
-1.23587586245e-10
4.32838899429e-05
-1.51883086474e-10
4.32839587778e-05
-1.86917145606e-10
4.32840437335e-05
-2.30254745148e-10
4.32841487424e-05
-2.83908895352e-10
4.32842785185e-05
-3.50351572817e-10
4.32844388385e-05
-4.32525483186e-10
4.32846370402e-05
-5.34179580215e-10
4.32848821603e-05
-6.60021213119e-10
4.3285185379e-05
-8.15801516865e-10
4.32855604909e-05
-1.00866621469e-09
4.32860246862e-05
-1.24746168422e-09
4.32865992619e-05
-1.5432275082e-09
4.32873103058e-05
-1.90953465056e-09
4.3288190489e-05
-2.36339682182e-09
4.3289280343e-05
-2.9259193755e-09
4.3290629155e-05
-3.6232505857e-09
4.32922988431e-05
-4.48714012793e-09
4.32943660814e-05
-5.55723589864e-09
4.32969256075e-05
-6.88273429056e-09
4.33000949768e-05
-8.52462784456e-09
4.33040196299e-05
-1.05585813811e-08
4.3308880012e-05
-1.30784560841e-08
4.33148999631e-05
-1.6200963069e-08
4.33223567388e-05
-2.0071210069e-08
4.33315944101e-05
-2.48694622729e-08
4.33430400927e-05
-3.08200102842e-08
4.33572245156e-05
-3.82026337379e-08
4.33748071921e-05
-4.73668889284e-08
4.33966081764e-05
-5.8749975548e-08
4.34236496768e-05
-7.2900347423e-08
4.34572066727e-05
-9.05085882917e-08
4.34988725962e-05
-1.12447223563e-07
4.35506439045e-05
-1.39824527174e-07
4.36150284615e-05
-1.74056889656e-07
4.36951894208e-05
-2.16968339778e-07
4.37951339474e-05
-2.70931365058e-07
4.39199677576e-05
-3.39069449386e-07
4.40762433369e-05
-4.25559609269e-07
4.42724435514e-05
-5.3609891853e-07
4.45196653987e-05
-6.78655117697e-07
4.48325850939e-05
-8.64727755496e-07
4.52307929821e-05
-1.11155111508e-06
4.57404694561e-05
-1.44606501533e-06
4.63958415091e-05
-1.91216994224e-06
4.72381203241e-05
-2.58376618447e-06
4.83049541342e-05
-3.58615989838e-06
4.95924925993e-05
-5.1234882436e-06
5.09505665253e-05
-7.49250989665e-06
-1.09874648257e-05
5.18914487463e-05
5.27606074129e-05
6.19125867725e-06
5.57402415543e-05
1.28705023312e-05
5.73124117793e-05
1.46832145812e-05
5.7611197903e-05
1.37486537539e-05
5.71338689001e-05
1.16335590455e-05
5.63199840963e-05
9.26535493137e-06
5.54496450549e-05
7.09475071038e-06
5.46637031011e-05
5.28436641554e-06
5.40144132511e-05
3.85358815169e-06
5.35068426771e-05
2.76147693005e-06
5.31248782957e-05
1.9482077364e-06
5.28455243254e-05
1.35408033072e-06
5.26458881494e-05
9.27013020989e-07
5.25060755658e-05
6.24518094974e-07
5.24099979106e-05
4.13289802053e-07
5.234521634e-05
2.67914691179e-07
5.23024113822e-05
1.69389878736e-07
5.22747664935e-05
1.03740099446e-07
5.22573943344e-05
6.08373100359e-08
5.2246852286e-05
3.3441788771e-08
5.22407560299e-05
1.64477843613e-08
5.22374830239e-05
6.30361679031e-09
5.22359417442e-05
5.78111528657e-10
5.22354263818e-05
-2.38758324376e-09
5.2235478297e-05
-3.66945796594e-09
5.22358131973e-05
-3.97971546726e-09
5.22362605338e-05
-3.76822261694e-09
5.22367234096e-05
-3.31169929978e-09
5.22371512797e-05
-2.77317261514e-09
5.22375217313e-05
-2.24295283813e-09
5.2237828691e-05
-1.76607090735e-09
5.22380749815e-05
-1.36043284902e-09
5.22382676593e-05
-1.02855559738e-09
5.22384152678e-05
-7.64896641432e-10
5.22385263335e-05
-5.60292528149e-10
5.22386085694e-05
-4.04594711924e-10
5.22386685593e-05
-2.88127933105e-10
5.22387116787e-05
-2.0235274238e-10
5.2238742228e-05
-1.4009283704e-10
5.22387635917e-05
-9.55353466781e-11
5.22387783106e-05
-6.40927167321e-11
5.22387882643e-05
-4.22133813913e-11
5.22387948806e-05
-2.72324110934e-11
5.22387991972e-05
-1.71887555662e-11
5.22388019418e-05
-1.06169646332e-11
5.22388036601e-05
-6.40992689709e-12
5.22388047258e-05
-3.77364871845e-12
5.2238805344e-05
-2.16110727369e-12
5.22388056296e-05
-1.20449734214e-12
5.22388056728e-05
-6.82319370247e-13
5.22388055722e-05
-4.53539018947e-13
5.22388054103e-05
-4.14951330017e-13
5.22388052359e-05
-4.64976700746e-13
5.22388051196e-05
-5.08056635194e-13
5.22388050717e-05
-5.54052878927e-13
5.22388050186e-05
-6.34071713908e-13
5.2238804926e-05
-7.34271425567e-13
5.22388048405e-05
-8.48850776729e-13
5.22388047545e-05
-9.86179524641e-13
5.22388046297e-05
-1.11293747574e-12
5.22388044905e-05
-1.20810511301e-12
5.22388043735e-05
-1.28479025995e-12
5.22388042796e-05
-1.36745834647e-12
5.2238804204e-05
-1.4815207909e-12
5.22388041383e-05
-1.63515610916e-12
5.22388040735e-05
-1.81044602536e-12
5.22388040096e-05
-1.97256710556e-12
5.22388039473e-05
-2.096121603e-12
5.22388038805e-05
-2.18683159799e-12
5.22388037931e-05
-2.26563578954e-12
5.22388036888e-05
-2.35020216664e-12
5.22388035915e-05
-2.44157413673e-12
5.22388035018e-05
-2.53318993655e-12
5.22388034107e-05
-2.62444629826e-12
5.22388033258e-05
-2.72512253805e-12
5.22388032564e-05
-2.83545356812e-12
5.22388031944e-05
-2.94416389783e-12
5.22388031251e-05
-3.04588932575e-12
5.22388030482e-05
-3.15173442018e-12
5.22388029864e-05
-3.28681471985e-12
5.22388029582e-05
-3.4619450141e-12
5.22388029537e-05
-3.65400110679e-12
5.22388029754e-05
-3.84538804008e-12
5.22388030461e-05
-4.0633235251e-12
5.22388031655e-05
-4.33048597122e-12
5.22388033315e-05
-4.63051614805e-12
5.22388035525e-05
-4.94975984988e-12
5.22388038443e-05
-5.28776440581e-12
5.22388042417e-05
-5.66180764862e-12
5.22388047636e-05
-6.11593661245e-12
5.22388053946e-05
-6.6619942469e-12
5.22388061511e-05
-7.27701448565e-12
5.22388071226e-05
-8.00600498178e-12
5.22388083261e-05
-8.9395457467e-12
5.22388097438e-05
-1.00665340417e-11
5.22388115145e-05
-1.13925999164e-11
5.22388137995e-05
-1.30342398682e-11
5.22388166379e-05
-1.50452623185e-11
5.22388201329e-05
-1.74676480207e-11
5.22388245125e-05
-2.04638984379e-11
5.22388299747e-05
-2.42891686117e-11
5.22388367308e-05
-2.9038245297e-11
5.22388451123e-05
-3.48240925539e-11
5.22388555344e-05
-4.19143631057e-11
5.22388684271e-05
-5.07245213751e-11
5.22388843328e-05
-6.16820648396e-11
5.22389040114e-05
-7.52335001376e-11
5.22389284409e-05
-9.19454103153e-11
5.22389587209e-05
-1.12595662971e-10
5.22389962237e-05
-1.38144999654e-10
5.2239042604e-05
-1.69800722471e-10
5.22390998755e-05
-2.09067897408e-10
5.22391706599e-05
-2.57695382339e-10
5.22392581544e-05
-3.17837444705e-10
5.2239366448e-05
-3.92222731668e-10
5.2239500509e-05
-4.84283574282e-10
5.22396662893e-05
-5.98216671244e-10
5.22398713597e-05
-7.39227290916e-10
5.22401251344e-05
-9.1377209768e-10
5.22404392267e-05
-1.12990276985e-09
5.22408279678e-05
-1.39748447499e-09
5.22413091584e-05
-1.7287092736e-09
5.22419050129e-05
-2.13893115624e-09
5.22426425507e-05
-2.64705942832e-09
5.22435554648e-05
-3.27642845117e-09
5.22446858702e-05
-4.0561964047e-09
5.22460851351e-05
-5.02242582228e-09
5.22478172105e-05
-6.21929248216e-09
5.22499615522e-05
-7.70165657182e-09
5.22526163786e-05
-9.53760785778e-09
5.22559035044e-05
-1.18116887471e-08
5.22599736325e-05
-1.46287132196e-08
5.22650135181e-05
-1.81185070482e-08
5.22712547597e-05
-2.24423317746e-08
5.227898425e-05
-2.78006991442e-08
5.22885577224e-05
-3.44427810891e-08
5.23004161904e-05
-4.26783865919e-08
5.2315107031e-05
-5.28933587558e-08
5.23333097709e-05
-6.5569222793e-08
5.23558678003e-05
-8.13077265374e-08
5.23838299061e-05
-1.00862306765e-07
5.24185009323e-05
-1.25179419385e-07
5.24615057792e-05
-1.55451932216e-07
5.2514871413e-05
-1.93189914708e-07
5.25811298687e-05
-2.4031524086e-07
5.26634513593e-05
-2.99289836218e-07
5.27658144075e-05
-3.73294316842e-07
5.2893225086e-05
-4.66480043099e-07
5.30520013372e-05
-5.84335679486e-07
5.32501366449e-05
-7.34234140132e-07
5.34977560316e-05
-9.26274508941e-07
5.3807645756e-05
-1.17461749881e-06
5.41957483178e-05
-1.49965378387e-06