/*--------------------------------*- C++ -*----------------------------------*\
| =========                 |                                                 |
| \\      /  F ield         | OpenFOAM: The Open Source CFD Toolbox           |
|  \\    /   O peration     | Version:  2106                                  |
|   \\  /    A nd           | Website:  www.openfoam.com                      |
|    \\/     M anipulation  |                                                 |
\*---------------------------------------------------------------------------*/
FoamFile
{
    version     2.0;
    format      ascii;
    arch        "LSB;label=32;scalar=64";
    class       surfaceScalarField;
    location    "0.129";
    object      phi;
}
// * * * * * * * * * * * * * * * * * * * * * * * * * * * * * * * * * * * * * //

dimensions      [0 3 -1 0 0 0 0];

oriented        oriented;

internalField   nonuniform List<scalar> 
799
(
1.63727e-32
4.27408e-32
5.44707e-32
4.21613e-32
1.54607e-32
-5.28156e-32
-1.13831e-31
-1.61339e-31
-1.73017e-31
-1.36878e-31
-8.26995e-32
-2.20365e-32
1.48296e-32
2.29691e-32
-2.16667e-34
-4.10422e-32
-9.3528e-32
-1.47471e-31
-1.89024e-31
-2.1822e-31
-2.11265e-31
-1.76338e-31
-1.16317e-31
-4.66857e-32
-7.21923e-33
7.65858e-34
-4.20007e-32
-1.1372e-31
-1.81102e-31
-2.34772e-31
-2.38689e-31
-2.1245e-31
-1.67174e-31
-1.13175e-31
-8.93264e-32
-7.92765e-32
-9.7494e-32
-1.36401e-31
-1.67279e-31
-2.0496e-31
-2.149e-31
-2.0337e-31
-1.80837e-31
-1.35039e-31
-1.1069e-31
-1.01261e-31
-1.18017e-31
-1.67802e-31
-2.0856e-31
-2.45634e-31
-2.48328e-31
-2.15228e-31
-1.72766e-31
-1.19155e-31
-9.5409e-32
-1.02209e-31
-1.3593e-31
-1.95613e-31
-2.41587e-31
-2.67285e-31
-2.54643e-31
-2.01995e-31
-1.40373e-31
-8.59008e-32
-7.35269e-32
-1.14689e-31
-1.88889e-31
-2.72784e-31
-3.18565e-31
-3.01384e-31
-2.30317e-31
-1.28853e-31
-5.26716e-32
-3.63745e-32
-8.36636e-32
-1.77623e-31
-2.64286e-31
-3.09049e-31
-2.97641e-31
-2.38466e-31
-1.72277e-31
-1.23301e-31
-1.07946e-31
-1.22943e-31
-1.47034e-31
-1.72932e-31
-1.92447e-31
-2.10509e-31
-2.3072e-31
-2.42882e-31
-2.408e-31
-2.09555e-31
-1.56864e-31
-1.03317e-31
-7.05086e-32
-8.92458e-32
-1.47677e-31
-2.29286e-31
-2.98472e-31
-3.1165e-31
-2.76183e-31
-1.90214e-31
-9.9182e-32
-4.57341e-32
-3.64813e-32
-9.42041e-32
-1.73237e-31
-2.46784e-31
-2.90469e-31
-2.7322e-31
-2.2913e-31
-1.66118e-31
-1.19221e-31
-1.1038e-31
-1.21564e-31
-1.51926e-31
-1.6851e-31
-1.65753e-31
-1.52754e-31
-1.38599e-31
-1.48255e-31
-1.78482e-31
-2.19746e-31
-2.50295e-31
-2.486e-31
-2.1365e-31
-1.54001e-31
-9.42592e-32
-5.61642e-32
-5.05214e-32
-8.01845e-32
-1.32278e-31
-1.92953e-31
-2.47991e-31
-2.79571e-31
-2.82021e-31
-2.48018e-31
-1.83588e-31
-1.09554e-31
-4.448e-32
-1.88955e-32
-4.11585e-32
-1.04062e-31
-1.8795e-31
-2.52482e-31
-2.78666e-31
-2.54861e-31
-1.94296e-31
-1.31246e-31
-8.76133e-32
-8.6502e-32
-1.20744e-31
-1.67412e-31
-2.04167e-31
-2.0434e-31
-1.71081e-31
-1.19904e-31
-7.7797e-32
-7.45877e-32
-1.14218e-31
-1.84905e-31
-2.51304e-31
-2.77785e-31
-2.46409e-31
-1.65728e-31
-7.58624e-32
-1.72446e-32
-2.46105e-32
-9.05458e-32
-1.79913e-31
-2.50066e-31
-2.5632e-31
-2.09259e-31
-1.31092e-31
-6.76784e-32
-6.04953e-32
-9.56578e-32
-1.63689e-31
-2.12408e-31
-2.13646e-31
-1.76436e-31
-1.04456e-31
-5.39381e-32
-3.93921e-32
-6.73052e-32
-1.33455e-31
-1.88138e-31
-2.23244e-31
-2.14148e-31
-1.65603e-31
-1.0871e-31
-5.11572e-32
-2.64439e-32
-3.32182e-32
-6.29237e-32
-1.0954e-31
-1.45127e-31
-1.67247e-31
-1.68825e-31
-1.48912e-31
-1.20054e-31
-8.21108e-32
-4.58191e-32
-2.06609e-32
-1.06528e-32
-2.62621e-32
-6.22022e-32
-1.04622e-31
-1.37058e-31
-1.3579e-31
-9.71541e-32
-3.41836e-32
2.81502e-32
5.45836e-32
3.17729e-32
-3.00656e-32
-9.9059e-32
-1.29699e-31
-9.67434e-32
-6.82802e-33
1.038e-31
1.78662e-31
1.77336e-31
9.98143e-32
-1.98141e-32
-1.14608e-31
-1.29128e-31
-5.11891e-32
9.64955e-32
2.42487e-31
3.23501e-31
3.1162e-31
2.11935e-31
8.98507e-32
4.97432e-33
-7.20719e-34
8.53006e-32
2.14858e-31
3.42116e-31
4.18557e-31
4.1996e-31
3.70953e-31
3.00612e-31
2.54071e-31
2.60058e-31
3.15837e-31
4.04403e-31
4.91481e-31
5.48081e-31
5.64817e-31
5.55965e-31
5.45715e-31
5.64626e-31
6.23457e-31
7.0342e-31
7.82563e-31
8.24825e-31
8.22778e-31
8.01045e-31
7.87408e-31
8.25489e-31
9.2307e-31
1.05435e-30
1.18679e-30
1.27361e-30
1.3025e-30
1.29599e-30
1.28172e-30
1.3018e-30
1.37063e-30
1.47061e-30
1.5892e-30
1.69572e-30
1.78339e-30
1.86627e-30
1.94169e-30
2.02789e-30
2.11796e-30
2.20227e-30
2.29105e-30
2.37654e-30
2.47522e-30
2.58888e-30
2.70621e-30
2.82632e-30
2.93596e-30
3.04613e-30
3.17328e-30
3.32928e-30
3.51591e-30
3.70955e-30
3.8791e-30
4.00022e-30
4.08057e-30
4.15208e-30
4.26647e-30
4.45877e-30
4.72257e-30
5.02443e-30
5.29822e-30
5.50573e-30
5.64452e-30
5.74689e-30
5.88038e-30
6.0795e-30
6.3561e-30
6.67957e-30
6.99433e-30
7.27434e-30
7.50582e-30
7.71976e-30
7.95546e-30
8.2309e-30
8.55506e-30
8.89608e-30
9.22879e-30
9.54108e-30
9.83253e-30
1.0137e-29
1.04723e-29
1.08497e-29
1.12631e-29
1.16776e-29
1.20793e-29
1.24538e-29
1.28128e-29
1.31915e-29
1.36045e-29
1.4074e-29
1.45842e-29
1.5103e-29
1.56107e-29
1.6075e-29
1.65137e-29
1.69518e-29
1.74196e-29
1.79596e-29
1.85596e-29
1.92066e-29
1.98568e-29
2.04577e-29
2.09944e-29
2.14696e-29
2.18866e-29
2.24639e-29
2.31507e-29
2.46646e-29
2.72421e-29
3.10123e-29
3.80437e-29
4.08817e-29
4.38239e-29
2.69072e-29
-1.56886e-29
-6.6906e-29
-1.7234e-28
-1.62818e-28
-1.01862e-28
1.86324e-28
8.30723e-28
1.19626e-27
1.83892e-27
1.07749e-27
-7.40208e-28
-3.01532e-27
-7.52154e-27
-7.19176e-27
-5.90925e-27
1.77029e-27
1.68985e-26
2.26903e-26
3.30712e-26
1.66709e-26
-1.35884e-26
-4.09845e-26
-9.04727e-26
-7.12994e-26
-4.21717e-26
3.15935e-26
1.54648e-25
1.62759e-25
1.92021e-25
5.43349e-26
-1.45576e-25
-2.41539e-25
-4.15687e-25
-2.365e-25
-3.16192e-26
2.19178e-25
5.8922e-25
4.55181e-25
3.83059e-25
-3.70597e-26
-5.43978e-25
-5.80025e-25
-7.54228e-25
-2.54554e-25
2.23653e-25
5.06873e-25
9.15317e-25
5.06883e-25
2.23668e-25
-2.5454e-25
-7.54223e-25
-5.8003e-25
-5.4399e-25
-3.70738e-26
3.8305e-25
4.55179e-25
5.89224e-25
2.19186e-25
-3.16135e-26
-2.36498e-25
-4.15689e-25
-2.41544e-25
-1.45581e-25
5.43312e-26
1.92019e-25
1.62759e-25
1.54648e-25
3.15937e-26
-4.2172e-26
-7.13001e-26
-9.04734e-26
-4.09855e-26
-1.35892e-26
1.66699e-26
3.30702e-26
2.26893e-26
1.68975e-26
1.76947e-27
-5.90997e-27
-7.1924e-27
-7.52212e-27
-3.01594e-27
-7.40837e-28
1.0768e-27
1.8382e-27
1.19553e-27
8.30011e-28
1.85685e-28
-1.02421e-28
-1.63276e-28
-1.72731e-28
-6.72964e-29
-1.61233e-29
2.63669e-29
4.32014e-29
4.02271e-29
3.74306e-29
3.05276e-29
2.68945e-29
2.44376e-29
2.2972e-29
2.22452e-29
2.1584e-29
2.10571e-29
2.05066e-29
1.99549e-29
1.93935e-29
1.88418e-29
1.83091e-29
1.78094e-29
1.73351e-29
1.68628e-29
1.63716e-29
1.5847e-29
1.52982e-29
1.47607e-29
1.42616e-29
1.38275e-29
1.34516e-29
1.31045e-29
1.27605e-29
1.23836e-29
1.19759e-29
1.15451e-29
1.11117e-29
1.07072e-29
1.03376e-29
1.00165e-29
9.7326e-30
9.46609e-30
9.19986e-30
8.90688e-30
8.58244e-30
8.23647e-30
7.8915e-30
7.58178e-30
7.32979e-30
7.12923e-30
6.96149e-30
6.78335e-30
6.55979e-30
6.29179e-30
5.98604e-30
5.69373e-30
5.45104e-30
5.26845e-30
5.15058e-30
5.04551e-30
4.92239e-30
4.75383e-30
4.52674e-30
4.28063e-30
4.04101e-30
3.84945e-30
3.72759e-30
3.6572e-30
3.61415e-30
3.54905e-30
3.42501e-30
3.23665e-30
3.00406e-30
2.77743e-30
2.61177e-30
2.53172e-30
2.52911e-30
2.55686e-30
2.54979e-30
2.4686e-30
2.30387e-30
2.09405e-30
1.89677e-30
1.7599e-30
1.70427e-30
1.70707e-30
1.73077e-30
1.72722e-30
1.67656e-30
1.5795e-30
1.4543e-30
1.33706e-30
1.23921e-30
1.18016e-30
1.14962e-30
1.1327e-30
1.12101e-30
1.08534e-30
1.03615e-30
9.66788e-31
8.93899e-31
8.43191e-31
8.04945e-31
7.96808e-31
7.86852e-31
7.58922e-31
7.14409e-31
6.37502e-31
5.71648e-31
5.25863e-31
5.12016e-31
5.36961e-31
5.56673e-31
5.63953e-31
5.36618e-31
4.75798e-31
4.15048e-31
3.58968e-31
3.28574e-31
3.15786e-31
3.00476e-31
2.87007e-31
2.68613e-31
2.66062e-31
2.92687e-31
3.31776e-31
3.68749e-31
3.59137e-31
2.84336e-31
1.65446e-31
3.45862e-32
-3.43763e-32
-8.12502e-33
1.04653e-31
2.6592e-31
3.79201e-31
3.94119e-31
2.90801e-31
1.0001e-31
-7.70079e-32
-1.77365e-31
-1.46569e-31
6.15395e-34
1.78164e-31
3.18592e-31
3.38982e-31
2.36013e-31
6.61888e-32
-1.06757e-31
-1.8714e-31
-1.57622e-31
-4.05972e-32
1.11018e-31
2.08142e-31
2.27371e-31
1.61377e-31
4.73869e-32
-4.99373e-32
-1.10748e-31
-1.0966e-31
-6.77589e-32
-1.45573e-32
4.07129e-32
7.10683e-32
8.65924e-32
8.38592e-32
6.1437e-32
3.20637e-32
-1.07378e-32
-4.80461e-32
-7.53046e-32
-8.574e-32
-7.32497e-32
-4.81242e-32
-9.8576e-33
2.65327e-32
5.8004e-32
7.24597e-32
6.36971e-32
3.53137e-32
-1.57715e-32
-6.24468e-32
-1.00084e-31
-1.1038e-31
-8.70686e-32
-5.19527e-32
-1.09312e-33
3.38939e-32
5.10687e-32
5.29149e-32
2.68675e-32
-1.01713e-33
-3.89444e-32
-7.26266e-32
-8.7374e-32
-9.08241e-32
-6.52044e-32
-2.83928e-32
1.06092e-32
4.20184e-32
4.50991e-32
2.91752e-32
-6.15019e-33
-4.49885e-32
-7.16329e-32
-8.2815e-32
-7.09701e-32
-4.49629e-32
-1.25011e-32
1.53051e-32
2.86708e-32
2.29449e-32
2.78658e-33
-2.1927e-32
-4.08523e-32
-4.09335e-32
-3.22185e-32
-1.82753e-32
-1.37006e-32
-2.65146e-32
-3.73856e-32
-4.40572e-32
-2.371e-32
1.58981e-32
4.94753e-32
6.38491e-32
2.94968e-32
-3.16435e-32
-9.36333e-32
-1.2349e-31
-9.10446e-32
-1.99063e-32
6.51687e-32
1.13883e-31
9.99721e-32
3.6036e-32
-5.31391e-32
-1.11458e-31
-1.16535e-31
-6.58638e-32
1.46732e-32
7.46351e-32
9.28103e-32
5.57126e-32
-1.00735e-32
-6.463e-32
-8.49142e-32
-5.25327e-32
7.03311e-33
6.27989e-32
8.77507e-32
6.08225e-32
3.09729e-33
-6.08012e-32
-9.99349e-32
-8.85943e-32
-3.88744e-32
3.28085e-32
9.56781e-32
1.18398e-31
1.00952e-31
4.52007e-32
-2.61753e-32
-8.20446e-32
-1.12831e-31
-1.01474e-31
-5.52509e-32
7.64842e-33
7.71636e-32
1.22666e-31
1.35096e-31
1.08069e-31
4.12721e-32
-3.66243e-32
-1.06779e-31
-1.37561e-31
-1.11877e-31
-4.027e-32
5.8622e-32
1.39722e-31
1.69993e-31
1.36004e-31
4.76285e-32
-5.20483e-32
-1.20371e-31
-1.26105e-31
-6.57111e-32
2.86564e-32
1.13303e-31
1.4933e-31
1.18988e-31
4.32875e-32
-4.12254e-32
-9.37762e-32
-8.48086e-32
-2.74844e-32
5.50297e-32
1.20406e-31
1.32615e-31
9.84933e-32
2.45767e-32
-4.38306e-32
-7.2278e-32
-5.95639e-32
2.79862e-33
6.7847e-32
1.10789e-31
1.19387e-31
7.70188e-32
2.58992e-32
-2.23649e-32
-4.47124e-32
-2.51048e-32
8.02797e-33
5.31391e-32
8.39043e-32
8.94986e-32
8.13766e-32
5.69737e-32
3.49623e-32
2.18698e-32
1.4619e-32
1.66358e-32
1.90499e-32
1.72092e-32
1.83474e-32
1.84197e-32
2.81848e-32
5.09687e-32
7.48457e-32
1.03961e-31
1.12483e-31
9.84658e-32
6.32916e-32
5.17406e-33
-3.85336e-32
-6.43998e-32
-4.95965e-32
3.84659e-33
6.79451e-32
1.31195e-31
1.54697e-31
1.39449e-31
8.75832e-32
2.38763e-32
-2.52007e-32
-4.5783e-32
-2.45654e-32
6.07571e-33
5.47972e-32
7.51399e-32
7.57282e-32
6.86654e-32
2.38006e-32
1.43549e-32
-1.81737e-32
-2.44362e-32
-4.57126e-33
)
;

boundaryField
{
    left
    {
        type            calculated;
        value           uniform 0;
    }
    right
    {
        type            calculated;
        value           uniform 0;
    }
    empty
    {
        type            empty;
        value           nonuniform List<scalar> 0();
    }
}


// ************************************************************************* //
