/*--------------------------------*- C++ -*----------------------------------*\
| =========                 |                                                 |
| \\      /  F ield         | OpenFOAM: The Open Source CFD Toolbox           |
|  \\    /   O peration     | Version:  2106                                  |
|   \\  /    A nd           | Website:  www.openfoam.com                      |
|    \\/     M anipulation  |                                                 |
\*---------------------------------------------------------------------------*/
FoamFile
{
    version     2.0;
    format      ascii;
    arch        "LSB;label=32;scalar=64";
    class       volVectorField;
    location    "0.31";
    object      U;
}
// * * * * * * * * * * * * * * * * * * * * * * * * * * * * * * * * * * * * * //

dimensions      [0 1 -1 0 0 0 0];

internalField   nonuniform List<vector> 
9600
(
(0.675396191371 0.157677429066 0)
(0.563826158651 0.102430801225 0)
(0.381538918488 0.0510646973438 0)
(0.283853188597 0.0244589895995 0)
(0.23228103078 0.0119348212261 0)
(0.201907707497 0.0062303580099 0)
(0.183178405779 0.00352192719538 0)
(0.171271987045 0.00212007538205 0)
(0.163512240949 0.00132523582598 0)
(0.158392658866 0.000841456843696 0)
(0.155010696304 0.000534135695591 0)
(0.152789977099 0.000335039328516 0)
(0.15134868805 0.000205521138074 0)
(0.150429240397 0.000121792176987 0)
(0.149856453339 6.84338790294e-05 0)
(0.14951111695 3.5173203804e-05 0)
(0.149312507589 1.50866683993e-05 0)
(0.149206457524 3.5038055664e-06 0)
(0.149157076015 -2.70676117579e-06 0)
(0.149140964908 -5.61139921431e-06 0)
(0.149143247042 -6.52740405033e-06 0)
(0.149154642631 -6.41833562867e-06 0)
(0.149169581731 -5.78231892275e-06 0)
(0.149184954547 -4.92847457967e-06 0)
(0.149199126466 -4.04282880117e-06 0)
(0.14921137557 -3.2236969691e-06 0)
(0.149221513755 -2.51474998845e-06 0)
(0.149229641146 -1.92793018411e-06 0)
(0.149235994826 -1.45794598772e-06 0)
(0.149240859763 -1.09130512529e-06 0)
(0.149244518857 -8.11539776975e-07 0)
(0.149247227352 -6.02055325123e-07 0)
(0.149249202674 -4.47788235161e-07 0)
(0.149250622967 -3.35930129671e-07 0)
(0.14925162987 -2.55925334792e-07 0)
(0.149252333393 -1.9927468566e-07 0)
(0.149252817388 -1.59307274986e-07 0)
(0.149253144669 -1.30849745494e-07 0)
(0.149253361696 -1.1005729093e-07 0)
(0.149253502488 -9.43838173805e-08 0)
(0.149253591496 -8.23968448354e-08 0)
(0.149253646304 -7.38883955466e-08 0)
(0.149253678822 -7.0168432782e-08 0)
(0.149253696305 -7.08971270593e-08 0)
(0.149253704184 -7.3684361356e-08 0)
(0.149253706486 -7.78333407343e-08 0)
(0.14925370542 -8.36262258007e-08 0)
(0.149253702411 -9.10881097539e-08 0)
(0.149253698386 -9.96371487473e-08 0)
(0.149253694035 -1.08791706852e-07 0)
(0.149253689908 -1.18321137956e-07 0)
(0.149253686341 -1.28228569286e-07 0)
(0.149253683284 -1.38579124339e-07 0)
(0.149253680371 -1.49499129906e-07 0)
(0.149253677287 -1.61130520553e-07 0)
(0.149253673852 -1.73542039907e-07 0)
(0.149253670109 -1.86786932831e-07 0)
(0.149253666304 -2.00967418025e-07 0)
(0.149253662523 -2.16122172006e-07 0)
(0.149253658656 -2.32238594099e-07 0)
(0.149253654664 -2.49378455369e-07 0)
(0.149253650486 -2.67672315005e-07 0)
(0.149253645973 -2.87210285955e-07 0)
(0.149253641076 -3.08073755748e-07 0)
(0.149253635943 -3.30290697961e-07 0)
(0.14925363086 -3.53799445266e-07 0)
(0.149253626207 -3.78588849264e-07 0)
(0.149253622269 -4.04752709494e-07 0)
(0.149253618965 -4.32420831529e-07 0)
(0.149253615922 -4.61719593996e-07 0)
(0.149253612754 -4.9275757594e-07 0)
(0.149253609234 -5.25629788476e-07 0)
(0.149253605346 -5.60400330585e-07 0)
(0.149253601275 -5.97087675165e-07 0)
(0.149253597313 -6.35699679905e-07 0)
(0.149253593712 -6.76291150264e-07 0)
(0.149253590552 -7.18952500167e-07 0)
(0.149253587747 -7.63737864719e-07 0)
(0.149253585187 -8.10662421146e-07 0)
(0.149253582765 -8.59815595432e-07 0)
(0.149253580312 -9.11414160775e-07 0)
(0.149253577607 -9.65641375305e-07 0)
(0.149253574568 -1.02247399251e-06 0)
(0.14925357138 -1.08179060781e-06 0)
(0.149253568308 -1.14361791117e-06 0)
(0.149253565386 -1.20814914671e-06 0)
(0.149253562479 -1.27554054614e-06 0)
(0.149253559589 -1.3457670476e-06 0)
(0.149253556883 -1.41873689434e-06 0)
(0.14925355455 -1.49455741817e-06 0)
(0.149253552827 -1.57348702875e-06 0)
(0.149253551954 -1.65550944987e-06 0)
(0.149253552064 -1.74029894722e-06 0)
(0.149253553089 -1.82769608859e-06 0)
(0.149253554622 -1.91794177454e-06 0)
(0.149253556294 -2.01143623209e-06 0)
(0.14925355832 -2.10822460733e-06 0)
(0.149253561545 -2.20779659348e-06 0)
(0.149253567172 -2.30943874956e-06 0)
(0.149253576697 -2.41283954457e-06 0)
(0.149253591232 -2.51789457179e-06 0)
(0.14925361121 -2.62471219446e-06 0)
(0.149253637397 -2.73347989834e-06 0)
(0.149253671005 -2.84415398937e-06 0)
(0.149253714202 -2.95695367516e-06 0)
(0.14925376999 -3.07227750713e-06 0)
(0.149253841289 -3.19014505381e-06 0)
(0.149253931246 -3.31026771132e-06 0)
(0.149254044589 -3.43356336486e-06 0)
(0.149254187372 -3.56354988924e-06 0)
(0.149254366556 -3.70697462086e-06 0)
(0.149254591537 -3.86686215286e-06 0)
(0.149254872476 -4.03796095679e-06 0)
(0.149255221759 -4.2182441182e-06 0)
(0.149255656526 -4.40839882171e-06 0)
(0.149256197064 -4.60957529434e-06 0)
(0.149256867343 -4.82245867421e-06 0)
(0.149257697815 -5.04787950552e-06 0)
(0.149258727566 -5.28784515849e-06 0)
(0.149260004629 -5.5447794295e-06 0)
(0.149261586711 -5.82086342519e-06 0)
(0.149263544703 -6.11903929865e-06 0)
(0.149265969392 -6.44492100037e-06 0)
(0.149268985414 -6.81739350528e-06 0)
(0.149272762722 -7.29993512924e-06 0)
(0.149277433072 -8.01163141341e-06 0)
(0.14928316768 -8.88285578687e-06 0)
(0.149290252202 -9.87748383285e-06 0)
(0.149299024545 -1.09943463177e-05 0)
(0.149309890551 -1.22468301786e-05 0)
(0.149323348021 -1.36543716075e-05 0)
(0.149340013167 -1.52419311107e-05 0)
(0.149360651516 -1.70411735061e-05 0)
(0.149386214938 -1.90935255154e-05 0)
(0.14941788384 -2.14515397545e-05 0)
(0.149457120327 -2.41786219137e-05 0)
(0.149505740998 -2.73535610367e-05 0)
(0.149566006681 -3.10777947931e-05 0)
(0.149640730584 -3.5481626248e-05 0)
(0.1497334146 -4.07299611851e-05 0)
(0.149848425689 -4.70302690873e-05 0)
(0.149991225179 -5.46467895726e-05 0)
(0.150168658291 -6.39187874745e-05 0)
(0.150389323614 -7.52802581486e-05 0)
(0.150664059576 -8.92872184157e-05 0)
(0.151006592419 -0.00010666028318 0)
(0.151434402163 -0.000128340404367 0)
(0.151969895754 -0.000155561206833 0)
(0.15264202907 -0.000189951019577 0)
(0.153488602577 -0.000233674807346 0)
(0.154559626943 -0.000289649391907 0)
(0.155922515165 -0.000361964342358 0)
(0.157670886634 -0.00045706934762 0)
(0.159942340738 -0.000588130627411 0)
(0.162960941793 -0.000791836630834 0)
(0.167144375778 -0.00119022614802 0)
(0.173436845557 -0.0022160335423 0)
(0.184661645377 -0.00547922557393 0)
(0.20935536492 -0.017075901357 0)
(0.263776442922 -0.059516099129 0)
(0.977201183862 0.29699711635 0)
(0.962687471022 0.250387260028 0)
(0.820646022736 0.158581016225 0)
(0.697824891129 0.0957993489788 0)
(0.610491668442 0.0579132739194 0)
(0.54913331482 0.0359038511711 0)
(0.506705984812 0.022930937458 0)
(0.477662021629 0.0149788792208 0)
(0.457815301377 0.00990973203676 0)
(0.444277675886 0.00658331027999 0)
(0.435087226091 0.00436198753791 0)
(0.428895554617 0.00286682671693 0)
(0.424768034992 0.00185972069167 0)
(0.42205422484 0.00118457240618 0)
(0.420301043047 0.000736110345808 0)
(0.419193670166 0.000442158792357 0)
(0.418514601079 0.000252859647915 0)
(0.418114825202 0.000133738859465 0)
(0.417893365987 6.10522133886e-05 0)
(0.417782721287 1.85774961808e-05 0)
(0.417738461768 -4.63493343414e-06 0)
(0.417731923153 -1.60109186926e-05 0)
(0.417745138659 -2.03069228406e-05 0)
(0.417767162402 -2.06093377535e-05 0)
(0.417791612377 -1.88556707705e-05 0)
(0.417815026835 -1.62206083404e-05 0)
(0.417835745848 -1.33826919876e-05 0)
(0.417853177002 -1.07050927143e-05 0)
(0.417867324346 -8.3570079863e-06 0)
(0.417878494522 -6.39366903266e-06 0)
(0.417887119438 -4.80747253319e-06 0)
(0.417893654073 -3.55945471561e-06 0)
(0.417898522713 -2.59834596395e-06 0)
(0.41790209487 -1.87155889988e-06 0)
(0.417904678015 -1.33066859694e-06 0)
(0.4179065197 -9.33828771831e-07 0)
(0.417907814252 -6.46518782496e-07 0)
(0.417908710861 -4.41038744817e-07 0)
(0.417909321921 -2.95740919363e-07 0)
(0.417909730819 -1.94363382672e-07 0)
(0.417909998317 -1.24899837476e-07 0)
(0.417910167844 -7.87618443286e-08 0)
(0.417910271051 -5.03966697288e-08 0)
(0.417910331334 -3.46816514958e-08 0)
(0.417910364132 -2.63834715651e-08 0)
(0.417910378594 -2.23335914771e-08 0)
(0.417910381219 -2.00283633266e-08 0)
(0.417910377334 -1.83785149257e-08 0)
(0.417910370282 -1.77437655438e-08 0)
(0.417910361772 -1.83911162383e-08 0)
(0.417910352795 -1.97783793354e-08 0)
(0.417910343904 -2.15321757936e-08 0)
(0.417910335128 -2.35105991678e-08 0)
(0.417910326141 -2.56688243941e-08 0)
(0.417910316787 -2.80824126223e-08 0)
(0.417910307002 -3.07583393445e-08 0)
(0.417910296765 -3.35380887728e-08 0)
(0.417910286288 -3.64245456376e-08 0)
(0.417910275705 -3.94250491763e-08 0)
(0.417910264847 -4.24729842763e-08 0)
(0.417910253526 -4.55454601495e-08 0)
(0.417910241607 -4.87091153404e-08 0)
(0.417910228949 -5.19955833822e-08 0)
(0.417910215585 -5.54142965389e-08 0)
(0.417910201781 -5.89135093499e-08 0)
(0.417910187798 -6.23655784658e-08 0)
(0.417910173859 -6.58035734233e-08 0)
(0.417910160154 -6.9377770695e-08 0)
(0.417910146592 -7.32452985967e-08 0)
(0.417910132808 -7.75008859605e-08 0)
(0.417910118416 -8.21864731817e-08 0)
(0.417910103206 -8.73319412312e-08 0)
(0.417910087236 -9.28897322297e-08 0)
(0.417910070749 -9.86980906999e-08 0)
(0.417910054003 -1.0460285921e-07 0)
(0.417910037177 -1.10615820351e-07 0)
(0.417910020373 -1.16860233471e-07 0)
(0.417910003596 -1.23380566433e-07 0)
(0.417909986698 -1.30109814105e-07 0)
(0.417909969378 -1.37040793553e-07 0)
(0.417909951384 -1.44324305006e-07 0)
(0.417909932737 -1.52080066424e-07 0)
(0.41790991368 -1.60188497496e-07 0)
(0.41790989442 -1.6847302963e-07 0)
(0.417909874963 -1.77001450367e-07 0)
(0.417909855261 -1.85984949772e-07 0)
(0.417909835524 -1.95535887135e-07 0)
(0.417909816159 -2.05672467649e-07 0)
(0.417909797285 -2.16381053382e-07 0)
(0.417909778833 -2.27680056699e-07 0)
(0.417909761324 -2.39710847118e-07 0)
(0.417909745785 -2.52515371346e-07 0)
(0.417909732784 -2.659026883e-07 0)
(0.417909722029 -2.79827749815e-07 0)
(0.417909712895 -2.94624763922e-07 0)
(0.41790970565 -3.10874544296e-07 0)
(0.417909701942 -3.29023435406e-07 0)
(0.417909703918 -3.49054958223e-07 0)
(0.417909713345 -3.70889358184e-07 0)
(0.417909732295 -3.95910319851e-07 0)
(0.417909763149 -4.25662491669e-07 0)
(0.417909808003 -4.59798343268e-07 0)
(0.417909869801 -4.98502062186e-07 0)
(0.417909952136 -5.41825543423e-07 0)
(0.417910059871 -5.90158448444e-07 0)
(0.417910200041 -6.44818415757e-07 0)
(0.417910380827 -7.07061832295e-07 0)
(0.417910610477 -7.76906802339e-07 0)
(0.417910897852 -8.53810147908e-07 0)
(0.41791125293 -9.364154247e-07 0)
(0.417911694299 -1.01921842503e-06 0)
(0.417912255732 -1.10141197094e-06 0)
(0.417912968592 -1.19300659485e-06 0)
(0.417913861349 -1.299282304e-06 0)
(0.417914974526 -1.42578728773e-06 0)
(0.417916360561 -1.5794833335e-06 0)
(0.417918083566 -1.76750643777e-06 0)
(0.417920222541 -1.99813956861e-06 0)
(0.417922876542 -2.28300958651e-06 0)
(0.417926168911 -2.63744622314e-06 0)
(0.417930250621 -3.07962745443e-06 0)
(0.417935307024 -3.63080749887e-06 0)
(0.417941564742 -4.31840197875e-06 0)
(0.417949294718 -5.18517190972e-06 0)
(0.417958826185 -6.31530907892e-06 0)
(0.417970643066 -7.8506362969e-06 0)
(0.41798534789 -9.8111369517e-06 0)
(0.418003601957 -1.22534434165e-05 0)
(0.418026235283 -1.52779934345e-05 0)
(0.418054287243 -1.90195676863e-05 0)
(0.418089047644 -2.36463000827e-05 0)
(0.418132114242 -2.93650959399e-05 0)
(0.418185467738 -3.64311510203e-05 0)
(0.418251566605 -4.51631799044e-05 0)
(0.418333463665 -5.59586307536e-05 0)
(0.41843494626 -6.93079757843e-05 0)
(0.41856071505 -8.58188643789e-05 0)
(0.418716612509 -0.000106250741715 0)
(0.418909908712 -0.000131556551014 0)
(0.419149659559 -0.000162932185565 0)
(0.419447159426 -0.000201879124875 0)
(0.419816523475 -0.000250293674377 0)
(0.420275437164 -0.000310587026506 0)
(0.420846120405 -0.000385839540685 0)
(0.421556585051 -0.000480010506445 0)
(0.422442308102 -0.000598236804861 0)
(0.423548489251 -0.000747256905558 0)
(0.424933140293 -0.000936028196964 0)
(0.426671425419 -0.00117666566401 0)
(0.428861966093 -0.00148593272584 0)
(0.431636395369 -0.00188779485725 0)
(0.435174624231 -0.00241824650471 0)
(0.439730823819 -0.00313557756508 0)
(0.445681372998 -0.00414514075508 0)
(0.453619677764 -0.00566520474333 0)
(0.464537792955 -0.00820863507372 0)
(0.480168882045 -0.0130861832032 0)
(0.503860475478 -0.023856467325 0)
(0.542119226481 -0.0504355573126 0)
(0.599082264542 -0.116693638277 0)
(1.03387039292 0.239240967691 0)
(1.08314082571 0.293634370575 0)
(1.03294437275 0.239131933424 0)
(0.954408201951 0.174539021606 0)
(0.880112583255 0.121551462704 0)
(0.818677615348 0.0832335925688 0)
(0.771466790504 0.056825813224 0)
(0.736691571133 0.0388125734836 0)
(0.711672099278 0.0264913176386 0)
(0.69395312531 0.0180235768592 0)
(0.681568197028 0.0121876206491 0)
(0.673018595083 0.00816650320522 0)
(0.667192224738 0.00540556546636 0)
(0.663277740738 0.00352226246855 0)
(0.660690302578 0.00224961154573 0)
(0.659012728116 0.00140002770086 0)
(0.657950520148 0.00084145630354 0)
(0.657298066091 0.000481123694738 0)
(0.656913521124 0.000254194799577 0)
(0.656700328292 0.000115711566944 0)
(0.656593718474 3.4797155243e-05 0)
(0.656551003821 -9.46442190248e-06 0)
(0.656544660386 -3.10083645154e-05 0)
(0.65655735815 -3.90716662811e-05 0)
(0.656578541638 -3.95436491233e-05 0)
(0.656602064875 -3.61157702892e-05 0)
(0.65662459377 -3.10263513874e-05 0)
(0.656644529978 -2.55654769514e-05 0)
(0.656661302996 -2.04216188817e-05 0)
(0.656674916656 -1.59144781723e-05 0)
(0.65668566603 -1.21474235269e-05 0)
(0.656693966267 -9.10448189573e-06 0)
(0.656700254646 -6.71048895367e-06 0)
(0.656704939214 -4.86734133975e-06 0)
(0.656708375386 -3.47441195819e-06 0)
(0.656710858968 -2.4391341922e-06 0)
(0.656712628304 -1.68175088564e-06 0)
(0.656713870475 -1.13627911723e-06 0)
(0.656714729099 -7.49644665606e-07 0)
(0.656715312706 -4.80236354562e-07 0)
(0.656715702051 -2.9605218601e-07 0)
(0.656715956321 -1.72583739762e-07 0)
(0.65671611825 -9.11578994771e-08 0)
(0.656716218017 -3.84819266665e-08 0)
(0.656716276519 -5.64897246647e-09 0)
(0.656716308469 1.38487278845e-08 0)
(0.65671632336 2.52167323099e-08 0)
(0.656716326373 3.18523881175e-08 0)
(0.656716321277 3.55932049793e-08 0)
(0.656716312027 3.82270666881e-08 0)
(0.656716301322 4.05935865842e-08 0)
(0.656716290244 4.303460213e-08 0)
(0.656716279043 4.57027423365e-08 0)
(0.656716267423 4.8731505279e-08 0)
(0.656716255243 5.21076694315e-08 0)
(0.656716242662 5.57855907412e-08 0)
(0.656716229742 5.98316801112e-08 0)
(0.65671621655 6.42851930816e-08 0)
(0.656716203172 6.89754359412e-08 0)
(0.656716189455 7.39448532347e-08 0)
(0.656716175229 7.9332726217e-08 0)
(0.65671616035 8.51959070633e-08 0)
(0.65671614464 9.15979151225e-08 0)
(0.656716128114 9.86318001107e-08 0)
(0.656716111039 1.06326734382e-07 0)
(0.656716093558 1.14670309906e-07 0)
(0.656716075766 1.23749095998e-07 0)
(0.656716057871 1.33394290098e-07 0)
(0.656716039864 1.43335559373e-07 0)
(0.656716021451 1.53514682912e-07 0)
(0.656716002258 1.63996639464e-07 0)
(0.656715982099 1.74889107766e-07 0)
(0.656715961125 1.8635308492e-07 0)
(0.656715939638 1.98591495269e-07 0)
(0.656715917795 2.11770975686e-07 0)
(0.656715895617 2.25931528152e-07 0)
(0.656715873186 2.4097858276e-07 0)
(0.656715850617 2.56783251118e-07 0)
(0.656715827811 2.73296177634e-07 0)
(0.656715804408 2.90603493726e-07 0)
(0.656715780151 3.08871412358e-07 0)
(0.65671575516 3.28226693129e-07 0)
(0.656715729689 3.48705220839e-07 0)
(0.656715703811 3.7024274782e-07 0)
(0.65671567751 3.92735623299e-07 0)
(0.656715650913 4.16232255247e-07 0)
(0.656715624325 4.40865280993e-07 0)
(0.656715598107 4.66490528388e-07 0)
(0.656715572482 4.92833056056e-07 0)
(0.656715547626 5.20036253613e-07 0)
(0.656715524164 5.48501463485e-07 0)
(0.656715503082 5.78334292907e-07 0)
(0.656715485039 6.09276728595e-07 0)
(0.65671547004 6.40936218546e-07 0)
(0.656715457722 6.73208752407e-07 0)
(0.656715448423 7.06314152599e-07 0)
(0.656715443971 7.402344302e-07 0)
(0.656715446854 7.74742634453e-07 0)
(0.656715458482 8.10131113496e-07 0)
(0.656715480968 8.47413381304e-07 0)
(0.656715519583 8.86503020532e-07 0)
(0.656715578981 9.25257462191e-07 0)
(0.656715663218 9.61881519224e-07 0)
(0.656715777606 9.95148021187e-07 0)
(0.656715928658 1.02433052744e-06 0)
(0.656716125514 1.0474851146e-06 0)
(0.65671638046 1.06115929251e-06 0)
(0.656716708155 1.06201902056e-06 0)
(0.656717126875 1.04781850114e-06 0)
(0.65671766194 1.01736995899e-06 0)
(0.656718339728 9.72816242063e-07 0)
(0.656719182731 9.10701377222e-07 0)
(0.656720226069 8.15204303274e-07 0)
(0.656721522144 6.74098403006e-07 0)
(0.65672313232 4.73923243558e-07 0)
(0.656725132035 1.96780814206e-07 0)
(0.656727613958 -1.79309885253e-07 0)
(0.656730691504 -6.80318767628e-07 0)
(0.656734505239 -1.3381840027e-06 0)
(0.656739230291 -2.19417777746e-06 0)
(0.656745083947 -3.29990760403e-06 0)
(0.656752335049 -4.718184845e-06 0)
(0.656761316385 -6.52635416749e-06 0)
(0.6567724398 -8.81912027324e-06 0)
(0.656786209255 -1.17075562044e-05 0)
(0.656803253673 -1.53184677198e-05 0)
(0.656824355404 -1.98682156519e-05 0)
(0.656850478837 -2.56047378834e-05 0)
(0.656882825625 -3.28250107443e-05 0)
(0.656922884491 -4.1896917115e-05 0)
(0.656972497489 -5.32776768658e-05 0)
(0.657033945609 -6.75330874775e-05 0)
(0.657110054103 -8.5362935873e-05 0)
(0.657204325911 -0.000107635167271 0)
(0.657321109666 -0.000135429980944 0)
(0.657465802353 -0.000170090886154 0)
(0.657645101889 -0.000213287993623 0)
(0.657867327545 -0.0002671017517 0)
(0.658142824146 -0.000334132000959 0)
(0.658484471568 -0.000417637213915 0)
(0.658908323337 -0.000521710710953 0)
(0.659434419709 -0.00065151320713 0)
(0.660087834975 -0.000813585755956 0)
(0.660900024658 -0.00101627128444 0)
(0.661910572473 -0.00127028667011 0)
(0.663169496309 -0.00158951727833 0)
(0.664740335726 -0.00199215742771 0)
(0.666704346154 -0.00250239324808 0)
(0.669166333709 -0.00315297376825 0)
(0.672263001713 -0.00398932597787 0)
(0.676175292967 -0.00507654396131 0)
(0.681147338826 -0.00651209397862 0)
(0.687516544337 -0.00845065396159 0)
(0.695762857185 -0.0111559658702 0)
(0.706590405378 -0.0151150314191 0)
(0.721047905376 -0.0212947188383 0)
(0.740649307698 -0.0316970757657 0)
(0.76744719026 -0.05048825699 0)
(0.803563491688 -0.0861116994226 0)
(0.845243525164 -0.152700640098 0)
(1.03384128226 0.171306955196 0)
(1.10231585321 0.275556741297 0)
(1.11663620885 0.266312369917 0)
(1.0920792426 0.219892605059 0)
(1.05195419633 0.168210317061 0)
(1.0102222144 0.123615335148 0)
(0.973507716875 0.0888850600064 0)
(0.943885945105 0.0630494628033 0)
(0.921162798953 0.0442607980962 0)
(0.904299821995 0.0307744349145 0)
(0.892086133586 0.0211830162431 0)
(0.883411232001 0.0144172993849 0)
(0.877355060672 0.0096854426293 0)
(0.873196213652 0.00640758818921 0)
(0.870388062146 0.0041617246361 0)
(0.868526257398 0.00264232252966 0)
(0.867317300182 0.00162947804442 0)
(0.866551586548 0.00096602544075 0)
(0.866081658877 0.000540572362898 0)
(0.8658053003 0.000274925851576 0)
(0.865652724382 0.00011479029591 0)
(0.865577091042 2.29549211615e-05 0)
(0.865547477943 -2.57262116173e-05 0)
(0.865543940342 -4.80459757082e-05 0)
(0.865553988158 -5.49254561013e-05 0)
(0.865569991051 -5.33264985935e-05 0)
(0.865587527205 -4.75733975551e-05 0)
(0.865604215317 -4.02465006909e-05 0)
(0.865618926583 -3.2800016011e-05 0)
(0.865631271379 -2.59824708688e-05 0)
(0.865641271493 -2.01155008809e-05 0)
(0.865649155302 -1.52744815131e-05 0)
(0.865655234516 -1.14027124612e-05 0)
(0.865659834215 -8.38177282018e-06 0)
(0.865663256177 -6.07291002364e-06 0)
(0.865665762442 -4.33978535281e-06 0)
(0.865667570899 -3.05990300741e-06 0)
(0.865668856888 -2.12909357729e-06 0)
(0.865669757772 -1.46191146627e-06 0)
(0.865670378986 -9.9032895362e-07 0)
(0.865670800104 -6.61620450102e-07 0)
(0.865671080092 -4.35801558769e-07 0)
(0.8656712619 -2.83214210512e-07 0)
(0.865671376206 -1.82209697925e-07 0)
(0.865671444507 -1.17041067134e-07 0)
(0.865671481965 -7.65387742039e-08 0)
(0.865671499189 -5.31281942565e-08 0)
(0.865671503555 -4.09640695565e-08 0)
(0.865671500568 -3.53820666861e-08 0)
(0.865671493482 -3.33478737154e-08 0)
(0.865671483664 -3.37082779733e-08 0)
(0.865671472222 -3.5859123856e-08 0)
(0.86567145975 -3.9462370021e-08 0)
(0.865671446173 -4.4042068853e-08 0)
(0.865671431459 -4.91433460349e-08 0)
(0.865671415841 -5.4559274877e-08 0)
(0.865671399467 -6.01543955358e-08 0)
(0.86567138241 -6.58321814998e-08 0)
(0.865671364836 -7.17305041068e-08 0)
(0.865671346794 -7.78686757078e-08 0)
(0.865671328085 -8.41449137769e-08 0)
(0.865671308516 -9.04929255076e-08 0)
(0.865671287945 -9.68249394218e-08 0)
(0.865671266351 -1.03011695979e-07 0)
(0.865671243914 -1.09096261375e-07 0)
(0.865671220918 -1.15283811403e-07 0)
(0.865671197424 -1.21696698069e-07 0)
(0.865671173326 -1.28594440571e-07 0)
(0.865671148615 -1.36274046639e-07 0)
(0.86567112317 -1.44840256663e-07 0)
(0.865671096722 -1.54233898242e-07 0)
(0.865671069143 -1.6427783402e-07 0)
(0.865671040582 -1.74781280822e-07 0)
(0.865671011318 -1.8564072418e-07 0)
(0.865670981491 -1.96823557066e-07 0)
(0.865670951051 -2.08319558454e-07 0)
(0.865670919942 -2.20163989836e-07 0)
(0.865670888202 -2.32488636878e-07 0)
(0.865670855838 -2.45475947949e-07 0)
(0.865670822708 -2.59174197632e-07 0)
(0.865670788656 -2.73445772493e-07 0)
(0.865670753698 -2.8822603608e-07 0)
(0.865670717922 -3.03693914347e-07 0)
(0.865670681383 -3.20093637378e-07 0)
(0.865670644253 -3.37540789638e-07 0)
(0.865670606834 -3.56022926585e-07 0)
(0.865670569343 -3.75544566221e-07 0)
(0.865670531949 -3.96361063389e-07 0)
(0.865670495036 -4.18894472886e-07 0)
(0.865670459246 -4.43274948968e-07 0)
(0.865670425415 -4.69381540013e-07 0)
(0.865670394324 -4.97374822682e-07 0)
(0.865670366393 -5.27852773384e-07 0)
(0.865670341892 -5.61637031482e-07 0)
(0.86567032121 -5.99243100096e-07 0)
(0.865670305218 -6.4058732344e-07 0)
(0.865670295922 -6.85718720422e-07 0)
(0.865670296612 -7.35442589534e-07 0)
(0.865670311087 -7.90574535749e-07 0)
(0.865670342594 -8.50774270737e-07 0)
(0.865670392893 -9.16418833843e-07 0)
(0.8656704648 -9.89871100327e-07 0)
(0.865670564659 -1.07334130059e-06 0)
(0.865670700133 -1.16946263657e-06 0)
(0.865670879369 -1.28048098991e-06 0)
(0.865671112159 -1.40921968057e-06 0)
(0.865671411782 -1.56038656149e-06 0)
(0.865671794828 -1.74037052043e-06 0)
(0.865672280955 -1.95665240356e-06 0)
(0.86567289492 -2.21953848057e-06 0)
(0.865673667225 -2.54503651177e-06 0)
(0.865674634929 -2.94920215705e-06 0)
(0.865675844816 -3.44400030809e-06 0)
(0.865677353954 -4.04833271219e-06 0)
(0.865679231221 -4.78695291111e-06 0)
(0.865681563159 -5.69193591886e-06 0)
(0.865684458082 -6.80391364223e-06 0)
(0.86568804957 -8.17226880499e-06 0)
(0.865692501905 -9.85708942139e-06 0)
(0.865698018725 -1.19331497374e-05 0)
(0.865704853425 -1.44938077371e-05 0)
(0.865713320501 -1.76556356034e-05 0)
(0.865723809062 -2.15637301522e-05 0)
(0.865736799431 -2.64002163953e-05 0)
(0.865752883694 -3.23942231472e-05 0)
(0.865772797377 -3.98243897852e-05 0)
(0.865797452255 -4.90326625051e-05 0)
(0.865827975221 -6.04338213736e-05 0)
(0.865865764701 -7.45444628708e-05 0)
(0.865912553343 -9.20108464084e-05 0)
(0.865970487487 -0.000113638820652 0)
(0.866042226652 -0.00014043081835 0)
(0.866131065513 -0.000173631216505 0)
(0.866241086486 -0.000214783512588 0)
(0.866377353257 -0.000265807210129 0)
(0.866546148746 -0.000329092721388 0)
(0.866755268937 -0.000407617334241 0)
(0.867014391193 -0.000505092832387 0)
(0.867335537325 -0.000626154706586 0)
(0.867733658109 -0.000776608760557 0)
(0.868227366079 -0.000963747570343 0)
(0.868839859452 -0.00119675776115 0)
(0.869600099832 -0.00148726157239 0)
(0.870544319448 -0.00185004858618 0)
(0.871717962482 -0.00230406628781 0)
(0.873178211307 -0.0028737862153 0)
(0.874997309886 -0.00359114688275 0)
(0.877266990581 -0.00449838732055 0)
(0.88010446835 -0.00565231858119 0)
(0.883660698407 -0.00713102652164 0)
(0.888131952054 -0.00904487953498 0)
(0.893776228615 -0.011555538862 0)
(0.90093641751 -0.0149104585664 0)
(0.910071777033 -0.0195079701574 0)
(0.921795755935 -0.0260231136687 0)
(0.93689876904 -0.0356498052494 0)
(0.956271199506 -0.050533296808 0)
(0.980561155985 -0.0744094579825 0)
(1.00912752484 -0.113205278747 0)
(1.03610659905 -0.173828915016 0)
(1.02388345582 0.119321990524 0)
(1.08875436398 0.231514423018 0)
(1.13660483399 0.252868937446 0)
(1.15406272533 0.22890504837 0)
(1.15000112238 0.188337387254 0)
(1.13537623698 0.146577291275 0)
(1.11757777584 0.110164820142 0)
(1.10059199468 0.0808376070541 0)
(1.08612241 0.0582502008887 0)
(1.07458761592 0.0413417858756 0)
(1.06578679241 0.028936283639 0)
(1.0592815614 0.0199770207847 0)
(1.05459132186 0.0135949304572 0)
(1.05128026322 0.00910742787908 0)
(1.04898735653 0.0059931338568 0)
(1.04742904745 0.00386144193154 0)
(1.04639045423 0.00242413709468 0)
(1.04571298553 0.00147134843134 0)
(1.04528205331 0.000852135616812 0)
(1.04501637035 0.000459262213404 0)
(1.04485924664 0.000217488385749 0)
(1.04477181666 7.47170033755e-05 0)
(1.04472783582 -4.64647950634e-06 0)
(1.04470997028 -4.44453343405e-05 0)
(1.04470704431 -6.05346830853e-05 0)
(1.04471196661 -6.30916400247e-05 0)
(1.04472040556 -5.8542355798e-05 0)
(1.04472984508 -5.08101073858e-05 0)
(1.04473891784 -4.21795409518e-05 0)
(1.04474696364 -3.3892629364e-05 0)
(1.0447537426 -2.65477067007e-05 0)
(1.04475925048 -2.03612960687e-05 0)
(1.04476360264 -1.53360396744e-05 0)
(1.04476696439 -1.1365815459e-05 0)
(1.04476951119 -8.29919102028e-06 0)
(1.04477140748 -5.97553364566e-06 0)
(1.04477279705 -4.24430924422e-06 0)
(1.04477380003 -2.9741364488e-06 0)
(1.04477451316 -2.05548973746e-06 0)
(1.04477501243 -1.40004792516e-06 0)
(1.04477535632 -9.38514670058e-07 0)
(1.0447755889 -6.1777821171e-07 0)
(1.04477574279 -3.97881135769e-07 0)
(1.04477584166 -2.49330261782e-07 0)
(1.04477590239 -1.50485414266e-07 0)
(1.04477593709 -8.57310832559e-08 0)
(1.04477595441 -4.41393363179e-08 0)
(1.04477595996 -1.80639085332e-08 0)
(1.04477595744 -2.46333533763e-09 0)
(1.04477594958 5.84885097319e-09 0)
(1.04477593838 9.7412514135e-09 0)
(1.04477592516 1.13856239204e-08 0)
(1.04477591075 1.18595810591e-08 0)
(1.04477589543 1.16721636946e-08 0)
(1.04477587911 1.1178598239e-08 0)
(1.04477586196 1.05319913381e-08 0)
(1.04477584411 9.86167436837e-09 0)
(1.04477582551 9.31019479248e-09 0)
(1.04477580622 8.96695605497e-09 0)
(1.04477578629 8.808294652e-09 0)
(1.04477576559 8.89554779744e-09 0)
(1.04477574401 9.34358578366e-09 0)
(1.04477572142 1.03013655312e-08 0)
(1.04477569771 1.19516359585e-08 0)
(1.04477567289 1.43252480629e-08 0)
(1.04477564704 1.71855434901e-08 0)
(1.04477562023 2.01127804504e-08 0)
(1.04477559248 2.28785754015e-08 0)
(1.04477556383 2.54235987901e-08 0)
(1.04477553426 2.77208272731e-08 0)
(1.04477550365 2.98232941864e-08 0)
(1.04477547195 3.19128220564e-08 0)
(1.04477543928 3.42372163883e-08 0)
(1.04477540578 3.69447322394e-08 0)
(1.04477537154 3.99981445664e-08 0)
(1.0447753365 4.32785838438e-08 0)
(1.04477530057 4.67683290902e-08 0)
(1.04477526379 5.05650547804e-08 0)
(1.04477522615 5.46929144548e-08 0)
(1.04477518755 5.90580164891e-08 0)
(1.04477514779 6.36332409792e-08 0)
(1.04477510681 6.84638712362e-08 0)
(1.04477506466 7.34877708218e-08 0)
(1.04477502146 7.85599633278e-08 0)
(1.04477497741 8.36031509142e-08 0)
(1.04477493281 8.86255465738e-08 0)
(1.04477488783 9.36792782917e-08 0)
(1.04477484255 9.87152945496e-08 0)
(1.04477479733 1.03459432914e-07 0)
(1.04477475289 1.07640779138e-07 0)
(1.04477471009 1.11143021371e-07 0)
(1.04477466958 1.1369399462e-07 0)
(1.04477463161 1.14761024814e-07 0)
(1.04477459651 1.13677700914e-07 0)
(1.04477456508 1.09788292372e-07 0)
(1.04477453842 1.02747783102e-07 0)
(1.04477451804 9.20692538344e-08 0)
(1.04477450639 7.62542907209e-08 0)
(1.04477450655 5.28538400591e-08 0)
(1.04477452186 1.87109473786e-08 0)
(1.04477455647 -2.92576068219e-08 0)
(1.04477461508 -9.24821337122e-08 0)
(1.0447747034 -1.73345133551e-07 0)
(1.04477482893 -2.76273828727e-07 0)
(1.04477500051 -4.0642679174e-07 0)
(1.04477522843 -5.69272745418e-07 0)
(1.04477552627 -7.71588669287e-07 0)
(1.04477591143 -1.02233936875e-06 0)
(1.04477640501 -1.33237470916e-06 0)
(1.04477703295 -1.71447654119e-06 0)
(1.04477782609 -2.18437696941e-06 0)
(1.0447788216 -2.76199200304e-06 0)
(1.0447800671 -3.47319882329e-06 0)
(1.0447816223 -4.3509287054e-06 0)
(1.04478355963 -5.43411712784e-06 0)
(1.04478596873 -6.77029481178e-06 0)
(1.04478896176 -8.41870025649e-06 0)
(1.04479267785 -1.04531211222e-05 0)
(1.04479728829 -1.29644207436e-05 0)
(1.04480300466 -1.60638453558e-05 0)
(1.04481008954 -1.98897764566e-05 0)
(1.04481886902 -2.46147964797e-05 0)
(1.04482974713 -3.04544995612e-05 0)
(1.04484322245 -3.76774582221e-05 0)
(1.04485990953 -4.6616537938e-05 0)
(1.04488057054 -5.76827018457e-05 0)
(1.04490615092 -7.13845221628e-05 0)
(1.04493782087 -8.83473137604e-05 0)
(1.04497703042 -0.000109344688228 0)
(1.0450255753 -0.000135335913251 0)
(1.04508567908 -0.000167512022016 0)
(1.0451600967 -0.000207352804559 0)
(1.04525224196 -0.000256695804841 0)
(1.04536634345 -0.000317821030838 0)
(1.04550764144 -0.000393560326834 0)
(1.04568263306 -0.00048743588924 0)
(1.04589937494 -0.000603832979597 0)
(1.04616786019 -0.000748217266541 0)
(1.04650048737 -0.000927409453306 0)
(1.04691264958 -0.00114994049 0)
(1.04742347435 -0.00142650929515 0)
(1.04805674781 -0.0017705718194 0)
(1.04884207493 -0.00219911520458 0)
(1.04981634865 -0.00273368853907 0)
(1.05102561724 -0.00340178966594 0)
(1.0525274638 -0.00423876427932 0)