/*--------------------------------*- C++ -*----------------------------------*\
| =========                 |                                                 |
| \\      /  F ield         | OpenFOAM: The Open Source CFD Toolbox           |
|  \\    /   O peration     | Version:  v1706                                 |
|   \\  /    A nd           | Web:      www.OpenFOAM.com                      |
|    \\/     M anipulation  |                                                 |
\*---------------------------------------------------------------------------*/
FoamFile
{
    version     2.0;
    format      ascii;
    class       volScalarField;
    location    "0.12";
    object      pB;
}
// * * * * * * * * * * * * * * * * * * * * * * * * * * * * * * * * * * * * * //

dimensions      [1 1 -3 0 0 -1 0];


internalField   nonuniform List<scalar> 
800
(
-2.90564e-13
-1.06524e-12
-1.94904e-12
-2.83284e-12
-3.71664e-12
-4.60045e-12
-5.48425e-12
-6.36805e-12
-7.25185e-12
-8.13565e-12
-9.01945e-12
-9.90325e-12
-1.07871e-11
-1.16709e-11
-1.25547e-11
-1.34385e-11
-1.43223e-11
-1.52061e-11
-1.60899e-11
-1.69737e-11
-1.75797e-11
-1.84635e-11
-1.93473e-11
-2.02311e-11
-2.11149e-11
-2.19987e-11
-2.28825e-11
-2.37663e-11
-2.43724e-11
-2.52562e-11
-2.614e-11
-2.70238e-11
-2.76299e-11
-2.79582e-11
-2.82866e-11
-2.86149e-11
-2.9221e-11
-2.98271e-11
-3.07109e-11
-3.15947e-11
-3.24785e-11
-3.33623e-11
-3.42461e-11
-3.51299e-11
-3.60137e-11
-3.68975e-11
-3.77813e-11
-3.86651e-11
-3.95489e-11
-4.04327e-11
-4.13165e-11
-4.22003e-11
-4.28064e-11
-4.34124e-11
-4.42962e-11
-4.518e-11
-4.63416e-11
-4.75031e-11
-4.83869e-11
-4.92707e-11
-5.01545e-11
-5.10383e-11
-5.19221e-11
-5.28059e-11
-5.36897e-11
-5.45735e-11
-5.54573e-11
-5.63411e-11
-5.72249e-11
-5.81087e-11
-5.89925e-11
-5.98763e-11
-6.07601e-11
-6.16439e-11
-6.25277e-11
-6.34115e-11
-6.42953e-11
-6.51791e-11
-6.60629e-11
-6.75022e-11
-6.89414e-11
-7.06584e-11
-7.20977e-11
-7.35369e-11
-7.44207e-11
-7.53046e-11
-7.61884e-11
-7.70722e-11
-7.7956e-11
-7.88398e-11
-7.97236e-11
-8.06074e-11
-8.14912e-11
-8.2375e-11
-8.32588e-11
-8.41426e-11
-8.47486e-11
-8.53547e-11
-8.62385e-11
-8.71223e-11
-8.80061e-11
-8.88899e-11
-8.97737e-11
-9.06575e-11
-9.15413e-11
-9.24251e-11
-9.33089e-11
-9.41927e-11
-9.50765e-11
-9.59603e-11
-9.68441e-11
-9.77279e-11
-9.86117e-11
-9.94955e-11
-1.00379e-10
-1.01263e-10
-1.01869e-10
-1.02753e-10
-1.03637e-10
-1.04521e-10
-1.05404e-10
-1.06288e-10
-1.07172e-10
-1.08056e-10
-1.0894e-10
-1.09823e-10
-1.10707e-10
-1.11591e-10
-1.12475e-10
-1.13359e-10
-1.14242e-10
-1.14848e-10
-1.15732e-10
-1.16338e-10
-1.16944e-10
-1.17273e-10
-1.17601e-10
-1.17929e-10
-1.18536e-10
-1.18864e-10
-1.19192e-10
-1.19798e-10
-1.20682e-10
-1.21566e-10
-1.2245e-10
-1.23334e-10
-1.24217e-10
-1.25101e-10
-1.25985e-10
-1.26869e-10
-1.27753e-10
-1.28636e-10
-1.29798e-10
-1.30959e-10
-1.32121e-10
-1.33005e-10
-1.33889e-10
-1.34772e-10
-1.35656e-10
-1.3654e-10
-1.37424e-10
-1.38308e-10
-1.39469e-10
-1.40353e-10
-1.41237e-10
-1.41843e-10
-1.42171e-10
-1.41944e-10
-1.41995e-10
-1.42045e-10
-1.42374e-10
-1.4298e-10
-1.43863e-10
-1.45025e-10
-1.45909e-10
-1.46793e-10
-1.47676e-10
-1.48838e-10
-1.49999e-10
-1.50883e-10
-1.51767e-10
-1.52651e-10
-1.53257e-10
-1.53863e-10
-1.54469e-10
-1.55353e-10
-1.56237e-10
-1.5712e-10
-1.58004e-10
-1.58888e-10
-1.59772e-10
-1.60656e-10
-1.61539e-10
-1.62423e-10
-1.63029e-10
-1.63358e-10
-1.63964e-10
-1.64848e-10
-1.65731e-10
-1.66615e-10
-1.67499e-10
-1.68383e-10
-1.69267e-10
-1.7015e-10
-1.71034e-10
-1.71918e-10
-1.72802e-10
-1.73686e-10
-1.74569e-10
-1.75453e-10
-1.76337e-10
-1.77221e-10
-1.78105e-10
-1.78711e-10
-1.79317e-10
-1.802e-10
-1.81084e-10
-1.81968e-10
-1.82852e-10
-1.83736e-10
-1.84619e-10
-1.85781e-10
-1.8722e-10
-1.88382e-10
-1.89543e-10
-1.90705e-10
-1.91866e-10
-1.93028e-10
-1.94189e-10
-1.95351e-10
-1.96513e-10
-1.97952e-10
-1.99391e-10
-2.0083e-10
-2.01992e-10
-2.02876e-10
-2.03759e-10
-2.04643e-10
-2.05527e-10
-2.06411e-10
-2.07295e-10
-2.08178e-10
-2.09062e-10
-2.09946e-10
-2.1083e-10
-2.11714e-10
-2.12597e-10
-2.13481e-10
-2.14365e-10
-2.15249e-10
-2.16133e-10
-2.17016e-10
-2.179e-10
-2.18784e-10
-2.19668e-10
-2.20552e-10
-2.21435e-10
-2.22319e-10
-2.23203e-10
-2.24087e-10
-2.25248e-10
-2.26688e-10
-2.27849e-10
-2.28733e-10
-2.29617e-10
-2.30501e-10
-2.31107e-10
-2.31713e-10
-2.32597e-10
-2.3348e-10
-2.34364e-10
-2.35248e-10
-2.36132e-10
-2.36738e-10
-2.37066e-10
-2.37117e-10
-2.37167e-10
-2.37773e-10
-2.3838e-10
-2.39263e-10
-2.40147e-10
-2.41031e-10
-2.41915e-10
-2.42799e-10
-2.43682e-10
-2.44566e-10
-2.45728e-10
-2.47167e-10
-2.48328e-10
-2.49212e-10
-2.50096e-10
-2.5098e-10
-2.51864e-10
-2.52747e-10
-2.53631e-10
-2.54515e-10
-2.55399e-10
-2.56283e-10
-2.57166e-10
-2.5805e-10
-2.58934e-10
-2.59818e-10
-2.60424e-10
-2.6103e-10
-2.61636e-10
-2.61964e-10
-2.62293e-10
-2.62621e-10
-2.63227e-10
-2.63833e-10
-2.64439e-10
-2.65045e-10
-2.65651e-10
-2.66535e-10
-2.67419e-10
-2.68303e-10
-2.69187e-10
-2.7007e-10
-2.70954e-10
-2.71838e-10
-2.72722e-10
-2.73606e-10
-2.74489e-10
-2.75373e-10
-2.76257e-10
-2.77141e-10
-2.78025e-10
-2.78908e-10
-2.79792e-10
-2.80676e-10
-2.8156e-10
-2.82444e-10
-2.83605e-10
-2.84489e-10
-2.85373e-10
-2.86257e-10
-2.87418e-10
-2.88857e-10
-2.90297e-10
-2.91736e-10
-2.93175e-10
-2.94059e-10
-2.94943e-10
-2.95827e-10
-2.97266e-10
-2.99538e-10
-3.02644e-10
-3.0686e-10
-3.12188e-10
-3.18904e-10
-3.27842e-10
-3.39002e-10
-3.52383e-10
-3.67987e-10
-3.85812e-10
-4.04748e-10
-4.24795e-10
-4.45954e-10
-4.67389e-10
-4.89658e-10
-5.13038e-10
-5.36973e-10
-5.61464e-10
-5.86233e-10
-6.10724e-10
-6.34937e-10
-6.58316e-10
-6.80585e-10
-7.01466e-10
-7.20402e-10
-7.37394e-10
-7.52442e-10
-7.64713e-10
-7.74484e-10
-7.81478e-10
-7.85972e-10
-7.87411e-10
-7.86073e-10
-7.82513e-10
-7.76732e-10
-7.69006e-10
-7.59058e-10
-7.46611e-10
-7.3222e-10
-7.15884e-10
-6.9816e-10
-6.79325e-10
-6.59657e-10
-6.39433e-10
-6.18654e-10
-5.97875e-10
-5.76818e-10
-5.55762e-10
-5.34983e-10
-5.14759e-10
-4.95091e-10
-4.76534e-10
-4.59365e-10
-4.43585e-10
-4.29471e-10
-4.17024e-10
-4.05688e-10
-3.95463e-10
-3.8607e-10
-3.77511e-10
-3.70063e-10
-3.63171e-10
-3.57111e-10
-3.51052e-10
-3.44992e-10
-3.38378e-10
-3.31763e-10
-3.2487e-10
-3.17977e-10
-3.10529e-10
-3.02804e-10
-2.94522e-10
-2.85408e-10
-2.75182e-10
-2.63568e-10
-2.50566e-10
-2.36174e-10
-2.20395e-10
-2.0267e-10
-1.8328e-10
-1.61945e-10
-1.395e-10
-1.15666e-10
-9.04432e-11
-6.43873e-11
-3.77759e-11
-1.08867e-11
1.57246e-11
4.17806e-11
6.75588e-11
9.22261e-11
1.1606e-10
1.39339e-10
1.60951e-10
1.81175e-10
2.00287e-10
2.18289e-10
2.34902e-10
2.49571e-10
2.62296e-10
2.73633e-10
2.83025e-10
2.90473e-10
2.96255e-10
2.99814e-10
3.01986e-10
3.0249e-10
3.01607e-10
2.99612e-10
2.96784e-10
2.93401e-10
2.90017e-10
2.86634e-10
2.83528e-10
2.81256e-10
2.79539e-10
2.78655e-10
2.78049e-10
2.77721e-10
2.77392e-10
2.77064e-10
2.76458e-10
2.75852e-10
2.75246e-10
2.7464e-10
2.74034e-10
2.7315e-10
2.72266e-10
2.71104e-10
2.70221e-10
2.69337e-10
2.68731e-10
2.68402e-10
2.68074e-10
2.67746e-10
2.6714e-10
2.66534e-10
2.6565e-10
2.64488e-10
2.63049e-10
2.61332e-10
2.59893e-10
2.58454e-10
2.57292e-10
2.56408e-10
2.55802e-10
2.55474e-10
2.55145e-10
2.54817e-10
2.54211e-10
2.53327e-10
2.52443e-10
2.5156e-10
2.50676e-10
2.49792e-10
2.48908e-10
2.48024e-10
2.47141e-10
2.46257e-10
2.45373e-10
2.44767e-10
2.44439e-10
2.4411e-10
2.43782e-10
2.43176e-10
2.42292e-10
2.41408e-10
2.40524e-10
2.39641e-10
2.39035e-10
2.38428e-10
2.37822e-10
2.37216e-10
2.3661e-10
2.36282e-10
2.35954e-10
2.35348e-10
2.34741e-10
2.34135e-10
2.33529e-10
2.33201e-10
2.32873e-10
2.32544e-10
2.31938e-10
2.31054e-10
2.30171e-10
2.29287e-10
2.28403e-10
2.27519e-10
2.26635e-10
2.25752e-10
2.24868e-10
2.23984e-10
2.231e-10
2.22216e-10
2.21333e-10
2.20449e-10
2.19565e-10
2.18681e-10
2.17797e-10
2.16914e-10
2.1603e-10
2.15146e-10
2.14262e-10
2.13378e-10
2.12495e-10
2.11611e-10
2.10727e-10
2.09843e-10
2.08959e-10
2.08076e-10
2.06914e-10
2.05475e-10
2.04036e-10
2.02874e-10
2.0199e-10
2.01106e-10
2.005e-10
2.00172e-10
1.99844e-10
1.99515e-10
1.99187e-10
1.98859e-10
1.98253e-10
1.97369e-10
1.96485e-10
1.95601e-10
1.94717e-10
1.94111e-10
1.93783e-10
1.93455e-10
1.93126e-10
1.92798e-10
1.9247e-10
1.92141e-10
1.91257e-10
1.90374e-10
1.8949e-10
1.88606e-10
1.87722e-10
1.86838e-10
1.85955e-10
1.85071e-10
1.84187e-10
1.83303e-10
1.82419e-10
1.81536e-10
1.80652e-10
1.79768e-10
1.78884e-10
1.78e-10
1.77117e-10
1.76233e-10
1.75071e-10
1.73632e-10
1.72193e-10
1.70753e-10
1.69314e-10
1.68153e-10
1.66991e-10
1.66107e-10
1.65224e-10
1.6434e-10
1.63456e-10
1.62572e-10
1.61688e-10
1.60805e-10
1.59921e-10
1.59037e-10
1.58153e-10
1.57269e-10
1.56386e-10
1.55779e-10
1.55173e-10
1.5429e-10
1.53406e-10
1.52522e-10
1.51638e-10
1.50754e-10
1.49871e-10
1.48709e-10
1.4727e-10
1.45831e-10
1.44669e-10
1.43507e-10
1.42346e-10
1.41462e-10
1.40578e-10
1.39695e-10
1.38533e-10
1.37371e-10
1.36488e-10
1.35604e-10
1.3472e-10
1.33836e-10
1.32952e-10
1.32069e-10
1.31185e-10
1.30301e-10
1.29695e-10
1.29367e-10
1.28761e-10
1.27877e-10
1.27271e-10
1.26665e-10
1.26059e-10
1.25175e-10
1.24291e-10
1.23407e-10
1.22523e-10
1.2164e-10
1.20756e-10
1.19872e-10
1.18988e-10
1.18104e-10
1.17221e-10
1.16337e-10
1.15453e-10
1.14847e-10
1.14241e-10
1.13357e-10
1.12473e-10
1.11589e-10
1.10706e-10
1.09822e-10
1.08938e-10
1.08054e-10
1.0717e-10
1.06287e-10
1.05681e-10
1.05074e-10
1.04468e-10
1.03862e-10
1.02978e-10
1.02095e-10
1.01211e-10
1.00327e-10
9.94433e-11
9.85595e-11
9.76757e-11
9.67919e-11
9.59081e-11
9.50243e-11
9.41405e-11
9.32567e-11
9.23729e-11
9.12113e-11
9.00498e-11
8.88883e-11
8.77267e-11
8.68429e-11
8.62369e-11
8.56308e-11
8.50247e-11
8.44187e-11
8.35349e-11
8.26511e-11
8.17673e-11
8.08835e-11
7.99996e-11
7.91158e-11
7.8232e-11
7.73482e-11
7.64644e-11
7.55806e-11
7.46968e-11
7.3813e-11
7.29292e-11
7.20454e-11
7.11616e-11
7.02778e-11
6.9394e-11
6.85102e-11
6.76264e-11
6.67426e-11
6.58588e-11
6.4975e-11
6.40912e-11
6.32074e-11
6.23236e-11
6.14398e-11
6.0556e-11
5.96722e-11
5.87884e-11
5.73492e-11
5.59099e-11
5.44706e-11
5.30314e-11
5.18698e-11
5.07083e-11
4.98245e-11
4.89407e-11
4.80569e-11
4.71731e-11
4.62893e-11
4.54055e-11
4.45217e-11
4.36379e-11
4.27541e-11
4.18703e-11
4.09865e-11
3.9825e-11
3.89412e-11
3.83351e-11
3.7729e-11
3.74007e-11
3.70723e-11
3.64663e-11
3.55825e-11
3.46987e-11
3.38149e-11
3.29311e-11
3.20473e-11
3.14412e-11
3.08351e-11
2.99513e-11
2.90675e-11
2.81837e-11
2.72999e-11
2.64161e-11
2.55323e-11
2.46485e-11
2.37647e-11
2.31586e-11
2.25526e-11
2.19465e-11
2.10627e-11
2.01789e-11
1.92951e-11
1.84113e-11
1.72498e-11
1.6366e-11
1.54822e-11
1.48761e-11
1.427e-11
1.33862e-11
1.27801e-11
1.21741e-11
1.1568e-11
1.06842e-11
9.80039e-12
9.19432e-12
8.86597e-12
8.2599e-12
7.65383e-12
7.04776e-12
6.16396e-12
5.55788e-12
4.67408e-12
3.79028e-12
2.90648e-12
2.30041e-12
1.69434e-12
8.10535e-13
2.21088e-13
)
;

boundaryField
{
    left
    {
        type            fixedValue;
        value           uniform 0;
    }
    right
    {
        type            fixedValue;
        value           uniform 0;
    }
    empty
    {
        type            empty;
    }
}


// ************************************************************************* //
