/*--------------------------------*- C++ -*----------------------------------*\
| =========                 |                                                 |
| \\      /  F ield         | OpenFOAM: The Open Source CFD Toolbox           |
|  \\    /   O peration     | Version:  2106                                  |
|   \\  /    A nd           | Website:  www.openfoam.com                      |
|    \\/     M anipulation  |                                                 |
\*---------------------------------------------------------------------------*/
FoamFile
{
    version     2.0;
    format      ascii;
    arch        "LSB;label=32;scalar=64";
    class       volScalarField;
    location    "0.44";
    object      p;
}
// * * * * * * * * * * * * * * * * * * * * * * * * * * * * * * * * * * * * * //

dimensions      [0 2 -2 0 0 0 0];

internalField   nonuniform List<scalar> 
11200
(
150.102551605
147.173949517
146.06009783
145.532765208
145.165433506
144.870652473
144.609005237
144.360462484
144.115938872
143.870864764
143.62254307
143.369219221
143.109661352
142.842934019
142.568270467
142.284997333
141.992488793
141.690138815
141.377348544
141.053529806
140.718058843
140.370286673
140.009555095
139.635196421
139.246525178
138.842840207
138.423425407
137.987550398
137.534471263
137.063431197
136.573661144
136.064380348
135.534796414
134.984105534
134.411493171
133.816135293
133.197197906
132.553837394
131.885201019
131.190427225
130.46864611
129.718979622
128.940541858
128.132439087
127.293769741
126.423624208
125.521084038
124.585221515
123.615098492
122.609764774
121.568256019
120.489590812
119.372766976
118.216756651
117.020500107
115.782897955
114.502801297
113.178999262
111.810203188
110.395026929
108.931961727
107.419344613
105.855318475
104.237782837
102.564327692
100.8321483
99.0379342632
97.1777258831
95.2467191045
93.2389989545
91.1471761527
88.9618909947
86.6709444324
84.2581497725
81.7014209531
78.9690975536
76.0135789917
72.7622873746
69.0614908132
64.2981701886
148.309509809
146.951335422
146.160363115
145.660347423
145.269357215
144.945472001
144.660947331
144.39634062
144.140847279
143.888318924
143.634928314
143.378161989
143.116283048
142.848015153
142.572357973
142.288476733
141.995634018
141.693146945
141.380357041
141.056602414
140.721232889
140.373572993
140.012979199
139.638783484
139.250289989
138.8467918
138.427569963
137.991892274
137.539013529
137.06817594
136.578609443
136.069531716
135.540148545
134.989659786
134.417252863
133.822103741
133.20337816
132.560232457
131.891813848
131.197260847
130.475703705
129.726264614
128.948058017
128.14019063
127.301761394
126.431861455
125.529573352
124.593970552
123.62411641
122.619062646
121.577847334
120.499492035
119.382998242
118.227342668
117.031471253
115.794291648
114.514663684
113.191387417
111.8231877
110.408695279
108.946422933
107.43473524
105.871808671
104.255580433
102.583682774
100.853375776
99.0614440783
97.2040504217
95.2765555247
93.2732744531
91.1871381045
89.0091900133
86.7278824622
84.3280793591
81.7893853701
79.0832920348
76.1690010644
72.9886789347
69.4395371829
65.3267273816
147.314319657
146.660118968
146.107762432
145.670143335
145.298517593
144.976413213
144.687309846
144.417071527
144.156603162
143.900115903
143.643724847
143.384748423
143.121274738
142.851876953
142.575434084
142.291017538
141.997817661
141.695095837
141.382153697
141.058314356
140.722915783
140.375318487
140.014778515
139.640642386
139.252218145
138.848796318
138.429655629
137.994062775
137.541272254
137.070526512
136.581056375
136.0720818
135.542811913
134.992439477
134.420146875
133.825112257
133.206502626
132.563474819
131.895176887
131.200748184
130.479319827
129.730014957
128.951949127
128.144230392
127.305959226
126.436228628
125.5341235
124.598720175
123.629085496
122.624275461
121.583333438
120.505287474
119.389146938
118.233898192
117.038499001
115.801871476
114.522893135
113.200385845
111.83310151
110.419703896
108.958746013
107.44864093
105.887624741
104.273729286
102.6047172
100.877994972
99.0905210385
97.2386970276
95.318208994
93.3238183216
91.2490752435
89.0859168027
86.8242481543
84.4511535341
81.9499121478
79.2986641478
76.4694368003
73.4306165053
70.1462279439
66.5932536706
146.764558559
146.401176951
146.001278107
145.632286235
145.294667359
144.986561867
144.701194481
144.430485451
144.168107337
143.90943319
143.651045066
143.390411556
143.125632984
142.855242223
142.578063281
142.29311366
141.99953702
141.696557132
141.383446819
141.05950612
140.72404417
140.37637087
140.015845112
139.641743875
139.253356601
138.849975688
138.430879608
137.995333795
137.542591623
137.071894548
136.582472239
136.073542835
135.544313756
134.993983592
134.421742144
133.826763966
133.208216952
132.565258715
131.897036359
131.202689697
130.481350658
129.732143435
128.954184993
128.146585277
127.308447127
126.438866343
125.536931399
124.601722995
123.632313342
122.627764958
121.587129051
120.509443222
119.39372851
118.238985609
117.04418995
115.808285523
114.530176867
113.208719164
111.84270533
110.430849462
108.971770333
107.463969451
105.905786627
104.295362445
102.630595822
100.909088595
99.1280656643
97.2842750207
95.3738637235
93.3922218991
91.3337923891
89.1918456031
86.9581499937
84.6226639406
82.1732987333
79.5959565337
76.8758929527
74.0034022912
70.9820843773
67.8491202522
146.430510731
146.198714982
145.897301751
145.586323203
145.281481403
144.989454819
144.710475045
144.441343755
144.178377292
143.918285556
143.658308226
143.396208024
143.130192589
142.858812988
142.580872612
142.295354522
142.001366059
141.698097974
141.384794927
141.060734289
140.725211221
140.3775295
140.016992879
139.642890903
139.254526544
138.85118359
138.432135284
137.996644616
137.543963616
137.073333205
136.583983144
136.075132263
135.545988546
134.995748759
134.423599091
133.828715878
133.210264582
132.567402965
131.899281507
131.205040405
130.483814167
129.734729337
128.956905286
128.149454767
127.311483899
126.442092218
125.540372866
124.605412167
123.636289122
122.632074426
121.591829838
120.514605584
119.399438072
118.24534677
117.051329838
115.816358289
114.539369403
113.219259486
111.854870325
110.444982709
108.988293536
107.483391086
105.928738275
104.322640734
102.663205027
100.948289557
99.1754470787
97.3418556948
95.4442359441
93.4787536563
91.4409119516
89.3254460971
87.126247759
84.8363984994
82.4484776998
79.955476303
77.3531984729
74.6460869005
71.8555017889
69.0321397396
146.227118351
146.051216043
145.810020497
145.542693318
145.265504172
144.988862798
144.717168988
144.450662138
144.187890664
143.926874541
143.665578963
143.402137028
143.134923434
142.862547484
142.583816374
142.297692439
142.003253616
141.699660465
141.386130231
141.061917119
140.726297771
140.378560404
140.017995741
139.643894167
139.255545207
138.852228207
138.433213763
137.997762811
137.545125881
137.074542642
136.585241886
136.076441663
135.547349342
134.997161818
134.425065944
133.830239037
133.211849594
132.569057228
131.901012962
131.206861007
130.485736757
129.736767458
128.959074585
128.151773552
127.313973699
126.444779166
125.543288713
124.608595507
123.639787021
122.635944496
121.596141438
120.519442794
119.404902993
118.251563491
117.058449554
115.824566881
114.548897135
113.230386986
111.867946098
110.4604243
109.006605698
107.505197955
105.954817803
104.353949274
102.700925588
100.993897233
99.2307935969
97.4092810363
95.5267196444
93.5801236306
91.5661367167
89.4810471805
87.3208888179
85.0817205529
82.7602575434
80.3551480573
77.8694598731
75.3153473952
72.7197581356
70.129789038
146.104001654
145.94839381
145.7420913
145.505527973
145.250050947
144.986768899
144.72215224
144.458639235
144.196500617
143.934908612
143.6725293
143.407886333
143.139550098
142.866212182
142.586700497
142.299967508
142.005068279
141.701136938
141.387365453
141.062985924
140.727256574
140.379451071
140.018850701
139.644738038
139.256394298
138.853093795
138.434104299
137.998684556
137.546083593
137.075540222
136.586282839
136.07752951
135.54848788
134.998355563
134.426320591
133.831561181
133.213246228
132.570536121
131.902582889
131.208530055
130.48751284
129.738662301
128.961104488
128.153958729
127.316339376
126.447355881
125.546113355
124.611712775
123.643251124
122.63982102
121.600510043
120.524400517
119.410568049
118.258079875
117.065992328
115.833348365
114.559171766
113.242467999
111.882210252
110.477339315
109.026753599
107.529292967
105.983728442
104.388747624
102.7429391
101.044773974
99.2925881102
97.4845677318
95.6187431164
93.6929997449
91.7051232211
89.6529075198
87.5343733515
85.3481881465
83.0944206677
80.7758282574
78.3999596394
75.9824132677
73.5500637017
71.1422669021
146.029922043
145.879911746
145.693155541
145.477049151
145.237341534
144.984518081
144.725877967
144.465135905
144.203764428
143.941837194
143.678613455
143.412969937
143.143666281
142.869481378
142.589271791
142.30198771
142.006667636
141.702424218
141.3884279
141.063891529
140.728057186
140.380185612
140.01954797
139.645418806
139.257074439
138.853784218
138.434813082
137.999417762
137.546845926
137.076335636
136.587114898
136.0784017
135.549403906
134.999319362
134.427336215
133.832633164
133.214379915
132.571737362
131.903858546
131.209889859
130.488972685
129.740240391
128.962819577
128.155833141
127.318400102
126.449635752
125.548652305
124.614559364
123.646464296
122.64347239
121.60468719
120.529209803
119.416138526
118.264568182
117.073589622
115.842287595
114.569739089
113.255009902
111.897153197
110.495198752
109.048155985
107.555005258
106.014692257
104.426120277
102.788145205
101.099571897
99.3591549935
97.5656086565
95.7176313689
93.8139579875
91.8534560242
89.8352956644
87.7592312038
85.6260749408
83.4384402689
81.2018602229
78.9263706454
76.6285762802
74.3331557796
72.072116327
145.98764571
145.838197885
145.661781838
145.458042842
145.228508927
144.982798714
144.728436141
144.469794338
144.209083255
143.946983921
143.68318054
143.416815391
143.146797092
142.871977117
142.591238808
142.303534009
142.007890682
141.703406285
141.389235477
141.064576726
140.728659931
140.380735948
140.020068206
139.645926183
139.25757879
138.854295305
138.435337556
137.999960541
137.547410961
137.076926367
136.587734523
136.07905338
135.550091034
135.000045725
134.428106144
133.833451791
133.215253456
132.572673827
131.904868358
131.21098557
130.490165657
129.741545542
128.9642569
128.157427051
127.32018002
126.451637278
125.550918626
124.617142949
123.649428855
122.646895243
121.608661841
120.533849818
119.421582014
118.270983264
117.081180247
115.8513011
114.580475375
113.267835714
111.912511693
110.513634211
109.070332575
107.581732711
106.046958893
104.465134666
102.835387094
101.156855927
99.4287106398
97.6501800856
95.8206011759
93.9395008481
92.0067241592
90.0226379545
87.9884373468
85.906613766
83.7816135285
81.6207315624
79.4352174262
77.2414825297
75.061569957
72.9216578617
145.968369261
145.818491265
145.646527882
145.448591697
145.224029204
144.981908384
144.72977077
144.472258555
144.211927275
143.949761096
143.685664847
143.418922919
143.148525859
142.873366298
142.59234365
142.304411777
142.008593632
141.703978843
141.389713733
141.064989083
140.729028242
140.381076734
140.0203937
139.646245336
139.257899131
138.854621656
138.435673778
138.0003098
137.547776012
137.077309865
136.588139145
136.079482003
135.550546869
135.000532542
134.428628471
133.834015086
133.215864337
132.573340262
131.90559948
131.21179183
130.491062056
129.742549395
128.965388814
128.158711965
127.321648186
126.453325452
125.552871441
124.619414578
123.652085026
122.650015789
121.612343642
120.538210458
119.42676436
118.277160804
117.088563683
115.860146972
114.591096176
113.280608984
111.927897654
110.532192808
109.092743136
107.608821662
106.079732059
104.504816863
102.883470272
101.215158004
99.4994473192
97.7360517127
95.9248963755
94.0662188129
92.1607111042
90.2097424605
88.2156527388
86.1821954728
84.1150783972
82.0226459721
79.9166209841
77.8127573336
75.7307441315
73.6925045041
145.968371792
145.818507262
145.646554806
145.448627829
145.224073781
144.981960575
144.729829662
144.472323327
144.21199724
143.949835688
143.685743601
143.419005466
143.14861192
142.873455672
142.5924362
142.304507437
142.008692411
141.70408082
141.389819054
141.065097949
140.729140923
140.38119357
140.020515126
139.646371838
139.258031349
138.85476029
138.43581968
138.000464066
137.547939981
137.077485044
136.588327599
136.079686244
135.550769877
135.000777899
134.428900534
133.834319116
133.216206702
132.573728726
131.906043566
131.212303552
130.491655531
129.743241672
128.966200663
128.159668658
127.322780405
126.454670479
125.554474525
124.621330613
123.654380626
122.652771831
121.615658215
120.542202536
119.431578541
118.282972549
117.095585691
115.868637821
114.60136912
113.293043165
111.942954308
110.550433074
109.114845657
107.635610057
106.112205132
104.544185286
102.931200625
101.273023933
99.5695881346
97.8210426194
96.0278327191
94.1908083685
92.3113972417
90.3919020178
88.4354370886
86.4466234206
84.4319765035
82.4003974191
80.3636715815
78.3368161971
76.3377331624
74.3855147441
145.987653365
145.838246261
145.661863225
145.458151996
145.228643527
144.982956065
144.728613467
144.469989194
144.209293594
143.947208047
143.683417076
143.41706324
143.147055419
142.872245319
142.591516489
142.303820988
142.00818699
141.70371216
141.389551351
141.06490321
140.728997831
140.381086273
140.020432165
139.646305325
139.257974934
138.854710481
138.435774321
138.000422071
137.547901197
137.077450111
136.588297799
136.079663554
135.55075693
135.000778006
134.428917827
133.834358719
133.216274913
132.573833256
131.906193842
131.212510958
130.491933941
129.743607997
128.966675445
128.160276837
127.323552255
126.455642792
125.555691955
124.622847338
123.656262356
122.655098261
121.618526124
120.545729261
119.43590648
118.288274368
117.102070881
115.876560527
114.611037217
113.304830357
111.957312727
110.567907315
109.136100106
107.661445024
106.143585891
104.582274769
102.977397132
101.329008597
99.6373943516
97.9031402985
96.1271355276
94.3107548451
92.4559758851
90.5654808083
88.6432458759
86.6945303387
84.7263256544
82.7477844387
80.7705792854
78.8091140705
76.8801051084
75.0009916456
146.029935012
145.879993633
145.693293064
145.477233202
145.237568025
144.984782349
144.726175294
144.465462191
144.20411625
143.942211727
143.679008422
143.413383535
143.144097137
142.869928506
142.589734569
142.302465862
142.007161226
141.702933645
141.38895388
141.064435093
140.728619694
140.380768725
140.020153577
139.646049521
139.257732966
138.854474053
138.43553846
138.000183894
137.547659304
137.077204231
136.58804854
136.079412349
135.550506008
135.000530352
134.428677255
133.83413004
133.21606409
132.573647634
131.906042457
131.212404729
130.49188617
129.743634905
128.966796752
128.160516523
127.323939452
126.45621287
125.556487875
124.623921281
123.657677566
122.656931366
121.620870222
120.548697288
119.439635189
118.29292955
117.107853813
115.883714555
114.619857019
113.315673125
111.970609065
110.584178093
109.155971143
107.685675256
106.173090165
104.618155702
103.020985981
101.381895946
99.7014405162
97.9804772989
96.2203264262
94.4228028643
92.5903615496
90.7262639221
88.8348185088
86.9216272297
84.9939085396
83.0608339349
81.1338436814
79.2268831743
77.356084018
75.5383593363
146.104020308
145.948511358
145.742288051
145.505790351
145.250372771
144.987143324
144.72257248
144.459099479
144.196996056
143.935435303
143.673084092
143.408466755
143.140154278
142.866838788
142.587348694
142.300636931
142.005759018
141.701849538
141.388100874
141.06374555
140.728042232
140.380265055
140.019695726
139.645617467
139.257311945
138.854054447
138.435113753
137.999749951
137.54721382
137.076746268
136.587578195
136.078930591
135.550014641
135.000031985
134.428175313
133.833628899
133.215569194
132.573165718
131.905581887
131.211975742
130.491501238
129.743309174
128.966548639
128.160368447
127.323918675
126.456352475
125.556828049
124.624510868
123.658575783
122.658209964
121.622616305
120.551016513
119.442655503
118.296805947
117.112774296
115.889906523
114.627595496
113.325290784
111.982508696
110.598843436
109.173986399
107.70774179
106.200048466
104.65100634
103.060907462
101.430290159
99.7599894531
98.0511887943
96.305499508
94.5250633296
92.7126782328
90.8719439484
89.0074418893
87.1249462264
85.231686063
83.3366445821
81.4509007974
79.5880232567
77.7640218334
75.9963046971
146.227143366
146.051372968
145.810281687
145.543039823
145.265927239
144.98935308
144.717717477
144.45126127
144.18853425
143.927557567
143.666297461
143.402887916
143.135704396
142.86335688
142.584653176
142.298556194
142.004144411
141.700578879
141.387077269
141.062894166
140.727306494
140.379602998
140.019076742
139.645019366
139.256718949
138.853455843
138.434502294
137.999120918
137.546564398
137.076075121
136.586885083
136.078216132
135.549280241
134.999279865
134.427408479
133.832851257
133.214785629
132.572382192
131.90480575
131.211216051
130.490769144
129.742618328
128.965915711
128.15981381
127.323467137
126.456034115
125.556679355
124.624576179
123.658908922
122.658876086
121.623694383
120.552602292
119.444864916
118.299779342
117.116681441
115.894952814
114.634029256
113.333411469
111.992677703
110.611497042
109.189646974
107.727034514
106.223721103
104.679953178
103.096197526
101.473182823
99.8119521483
98.1139267559
96.3809812508
94.6155285995
92.8206238188
91.0000841308
89.1586329853
87.3020611675
85.4374298716
83.5733322004
81.7202822667
79.8913602319
78.1025965855
76.3726644597
146.430542816
146.198916167
145.897633883
145.586760861
145.282012574
144.990067223
144.711157296
144.442086526
144.179173087
143.919128391
143.659193415
143.397131981
143.131152671
142.859807385
142.581900285
142.296415158
142.00246
141.699226057
141.385958264
141.061934285
140.726449778
140.378808074
140.018313598
139.644267055
139.255961784
138.852683191
138.433707017
137.998298347
137.545711618
137.075190589
136.585968278
136.077267316
135.548300398
134.99827074
134.42637258
133.831791958
133.213707413
132.571290643
131.90370761
131.210119337
130.489683445
129.741555348
128.964889629
128.158841997
127.322570893
126.455239486
125.55601807
124.624086852
123.658638557
122.658881525
121.624044578
120.55338117
119.446174046
118.301741765
117.119445978
115.898699357
114.638974286
113.339815485
112.000854101
110.621822524
109.202573736
107.743104207
106.243580242
104.704369571
103.126078645
101.509596935
99.8561478454
98.1673476842
96.4452750912
94.6925476651
92.9124070815
91.1088112141
89.286534142
87.451272939
85.6097792746
83.7700470955
81.9416979323
80.1368863002
78.3711279362
76.6642780682
146.764597768
146.401426097
146.001683727
145.632815467
145.29530423
144.987290685
144.702001368
144.431359369
144.169039585
143.910416924
143.652075002
143.39148372
143.126744545
142.856391395
142.579249323
142.294336943
142.000799075
141.6978606
141.384794975
141.06090322
140.725499642
140.377900692
140.017422212
139.643371445
139.255048167
138.85174207
138.432731995
137.997285352
137.544658083
137.074094985
136.584829902
136.076086103
135.547076771
134.997005547
134.425067132
133.830448183
133.212328247
132.569880015
131.90227054
131.208662441
130.488215466
129.74008648
128.963432265
128.157411092
127.321184552
126.453919725
125.55479156
124.622985815
123.657702246
122.658157301
121.623590227
120.553265734
119.446481425
118.302573542
117.120924313
115.900971809
114.64222071
113.344252958
112.006743211
110.629476313
109.212367118
107.755484627
106.259080028
104.723619513
103.149822291
101.538704956
99.8916322468
98.2103739706
96.4971677141
94.7547855306
92.9866031173
91.1966672633
89.3897542193
87.5714155141
85.7480158044
83.9267722436
82.1159877096
80.3260440584
78.570157348
76.8669814337
147.314370828
146.660430256
146.108251587
145.670769499
145.299261096
144.977255072
144.688233956
144.41806538
144.157657006
143.901222083
143.644877408
143.385942773
143.122507395
142.853145381
142.576736621
142.292353498
141.999187723
141.696502921
141.383603283
141.059813416
140.724465124
140.37688817
140.016403599
139.642331037
139.253975037
138.850628554
138.431572948
137.996077545
137.543399744
137.072785266
136.58346871
136.074673979
135.545614831
134.995495432
134.423511035
133.828848445
133.210686331
132.568198582
131.900553256
131.206913771
130.486439941
129.738290945
128.961625568
128.155604151
127.31939081
126.452155832
125.553077955
124.621347093
123.656167848
122.656764224
121.62238266
120.552297459
119.445818033
118.302294133
117.121124618
115.901766977
114.643748053
113.346677977
112.01026493
110.634333427
109.218845279
107.763924799
106.269888019
104.737276435
103.166895618
101.559859277
99.9176388736
98.2421180287
96.5356499201
94.801120243
93.0420023731
91.2624064458
89.4671055108
87.6615285514
85.8516931271
84.0439873295
82.2450722707
80.4625081407
78.7034099883
76.9764751207
148.309608378
146.951792179
146.161044807
145.661201188
145.270359933
144.946602889
144.662189427
144.397680893
144.1422756
143.889827299
143.636510411
143.379812691
143.117998043
142.849790554
142.574189937
142.290361114
141.997565899
141.695119877
141.382365906
141.058655383
140.723328675
140.375736492
140.015226718
139.64111587
139.252712282
138.849312303
138.430198908
137.994640447
137.541895982
137.071212751
136.581825929
136.072959761
135.543828302
134.993636002
134.421578544
133.826843639
133.208612588
132.566058488
131.898349533
131.204649855
130.484120471
129.735921078
128.959211539
128.153153595
127.31691302
126.449662203
125.550582521
124.618866687
123.65372352
122.654381046
121.620091053
120.550134312
119.44382771
118.300530368
117.119652451
115.900665052
114.643112238
113.34662299
112.01092819
110.635879524
109.221471113
107.767864988
106.275420702
104.744729567
103.176653691
101.572370232
99.9334206039
98.2617624465
96.559822192
94.8305742057
93.0775662922
91.304966774
89.5175806467
87.7208253879
85.9205982966
84.1227661799
82.3328587288
80.5556393825
78.7859119327
76.9941743595
150.102716857
147.174618784
146.061090187
145.534018434
145.166917361
144.872342312
144.610882496
144.362513643
144.118154112
143.873237093
143.625067823
143.371893709
143.112484744
142.845907395
142.571396941
142.288282158
141.995939347
141.693763981
141.381153548
141.057500564
140.722199838
140.374611444
140.014066382
139.639899326
139.251428152
138.84795365
138.42876202
137.993128332
137.54031045
137.069554059
136.580094343
136.071155689
135.541952215
134.991688433
134.419560061
133.824754446
133.206451832
132.563826321
131.896046631
131.202277234
130.481679643
129.733414142
128.956641296
128.15052369
127.31422806
126.446927817
125.547805577
124.616056009
123.650889613
122.651536455
121.617251436
120.547318689
119.441058876
118.297836064
117.117066114
115.898226645
114.640869208
113.344632913
112.009260354
110.634616856
109.220712711
107.767729093
106.276048124
104.746287572
103.179340257
101.576418441
99.9391033785
98.2694021647
96.5698117505
94.8433376332
93.0935848837
91.3247905687
89.5418439696
87.7502638922
85.9560964233
84.1658384179
82.3859105493
80.6210961247
78.8509358114
76.9509794911
56.9040937384
53.3519503331
50.9605062426
49.0030823068
47.331034529
45.8741893327
44.5885608763
43.4444425009
42.4201614707
41.4989720447
40.6674686767
39.9146469664
39.2313057854
38.6096468703
38.04299111
37.5255700432
37.0523671432
36.6189947812
36.2215961027
35.8567664647
35.5214886062
35.2130797642
34.9291470332
34.6675496609
34.4263675028
34.2038736723
33.9985111795
33.8088731027
33.6336854505
33.4717918321
33.3221404493
33.1837724881
33.0558121823
32.9374583215
32.8279766328
32.7266931046
32.632987938
32.5462902944
32.4660730383
32.3918488752
32.3231653166
32.259601172
32.2007616119
32.1462744332
32.0957866959
32.048996827
32.0057781576
31.9659817096
31.9292434877
31.8952627395
31.8637818666
31.8345940866
31.8075279931
31.782423465
31.7591331163
31.7375405716
31.7174985861
31.6988725506
31.6815516325
31.6654289712
31.6504135059
31.6364026458
31.6233044883
31.6110407343
31.5995386026
31.588731214
31.5785618559
31.5689696849
31.5599079693
31.5513230901
31.5431719612
31.5354155722
31.5280157148
31.5209376889
31.5141533483
31.5076293908
31.5013420881
31.4952652644
31.4893812421
31.483666171
31.4781047184
31.4726816342
31.4673878745
31.4622099403
31.457130036
31.4521377435
31.4472229428
31.4423688834
31.437573386
31.4328387907
31.4281635633
31.4235246821
31.4189116122
31.4143186468
31.409741536
31.4051757273
31.4006165672
31.3960595246
31.3915005157
31.3869357759
31.3823617496
31.3777741937
31.3731692544
31.3685438719
31.3638956931
31.3592224477
31.3545213717
31.3497895211
31.3450239988
31.3402226345
31.3353840231
31.3305073176
31.3255912406
31.3206334853
31.3156311225
31.3105810944
31.3054818661
31.300332999
31.2951354047
31.2898899474
31.2845965011
31.2792548798
31.2738636297
31.2684139245
31.2628866017
31.2572227933
31.251761115
31.2466916788
31.2415556397
31.2363879726
31.23128738
31.2263241795
31.2215518285
31.2170277115
31.2128116927
31.208962633
31.2055327587
31.2025663702
31.2000740791
31.1980357307
31.1966433653
31.195484699
31.1945655246
31.1932406836
31.1898582443
31.1802022727
31.1541853932
31.0901122823
30.946684533
30.6533268309
30.1048031776
29.1683177219
27.7112670645
25.6409601174
22.9314204202
19.6387851877
15.881616401
11.6281248046
6.60309711673
1.57037667005
60.085457873
56.0326248818
53.320630806
51.1682635422
49.366304152
47.8163415199
46.4601608628
45.2605278155
44.1912675113
43.2327480598
42.369630662
41.5895726349
40.882420051
40.2396834936
39.6541729333
39.1197369053
38.6310673346
38.183551933
37.7731582924
37.3963425356
37.049975525
36.7312832144
36.4377971157
36.1673129062
35.9178560821
35.6876528454
35.4751050069
35.2787690976
35.0973383392
34.9296263026
34.7745547193
34.6311391591
34.4984812398
34.375758318
34.2622169876
34.1571640614
34.0599645423
33.9700310143
33.8868249202
33.8098466961
33.7386371165
33.6727701384
33.6118549926
33.5555308212
33.5034719971
33.4553597352
33.4108441623
33.3696009608
33.3314050884
33.2960605122
33.2633575294
33.2330947083
33.2050815019
33.1791404734
33.1551005883
33.1328071147
33.1121180371
33.0929012611
33.0750407069
33.0584164823
33.0429183053
33.0284637534
33.0149607305
33.0023308537
32.9904972385
32.9793909177
32.9689557878
32.9591187084
32.9498471386
32.9410648213
32.9327441573
32.9248337802
32.91729591
32.9100964317
32.9032034797
32.8965839431
32.8902124227
32.8840622338
32.8781121545
32.8723443941
32.8667370737
32.8612721375
32.8559270665
32.8506890988
32.8455490751
32.8404960753
32.8355186028
32.8306029607
32.8257463364
32.8209323415
32.8161535654
32.8114066294
32.8066868266
32.8019898751
32.7973102564
32.7926443667
32.7879869487
32.7833335642
32.7786803391
32.7740239089
32.7693607411
32.7646860743
32.7599964508
32.7552880904
32.7505593277
32.7458069053
32.7410290821
32.7362217762
32.7313829701
32.7265094019
32.7216005625
32.7166544813
32.7116706847
32.7066459354
32.7015776516
32.6964628746
32.6913004629
32.6860902879
32.6808341633
32.6755339238
32.6701909774
32.6648085251
32.6593910143
32.6539455964
32.6484920414
32.6430442658
32.6376457141
32.632198845
32.6267562573
32.6215775068
32.6164964415
32.6115872917
32.6069248287
32.6025717105
32.5985988505
32.5950790119
32.59208233
32.589668034
32.5878496677
32.5867080707
32.5862000109
32.586204219
32.5864335606
32.5860656467
32.5829270909
32.5718197825
32.5406714253
32.4645279023
32.2971252011
31.9615658139
31.3464993298
30.3161386129
28.7409801041
26.5381491876
23.6935503675
20.2678240398
16.3775287399
12.0061452867
6.89223113769
1.70393203056
62.2928930876
58.3594355082
55.4922722326
53.2083291908
51.3063480681
49.6798501317
48.2638018251
47.0161885422
45.9075871831
44.9161382199
44.0249453414
43.2205574477
42.4920187942
41.8302521073
41.2276308002
40.6776756316
40.1748294321
39.7142884182
39.2918710156
38.9039159885
38.5472000829
38.2188726914
37.9164022592
37.6375312871
37.3802398979
37.1427150041
36.9233239874
36.7205923091
36.5331854775
36.3598914788
36.1996084999
36.0513304996
35.9141389669
35.7871921732
35.6697193312
35.5610105587
35.4604148381
35.367330351
35.2812039782
35.2015223686
35.1278126545
35.0596343616
34.9965810497
34.9382727508
34.8843613916
34.8345261916
34.7884695929
34.7457608858
34.7061823473
34.6695873007
34.6357476282
34.6044394389
34.5754626739
34.5486341836
34.5237809205
34.5007524092
34.4793956406
34.4595776432
34.4411687124
34.4240543584
34.4081127851
34.3932554896
34.3793858917
34.3664208765
34.3542845382
34.3429007876
34.3322128687
34.3221460042
34.3126584698
34.3036852828
34.2951850434
34.2871093818
34.2794248448
34.2720857956
34.2650678627
34.2583338824
34.2518561427
34.2456055234
34.2395636706
34.2337048262
34.2280055121
34.2224551875
34.2170376322
34.2117414647
34.2065498136
34.2014552234
34.1964378182
34.1914898083
34.1866004652
34.1817630704
34.1769693358
34.1722110038
34.1674807877
34.1627730939
34.1580820047
34.1534031003
34.1487308446
34.1440608689
34.1393896837
34.1347135695
34.1300290533
34.1253313648
34.1206167985
34.1158811094
34.111122653
34.1063383638
34.1015263145
34.0966824032
34.0918049095
34.086890898
34.0819396421
34.0769487567
34.071917572
34.0668431172
34.0617233747
34.056555639
34.0513396359
34.0460754844
34.0407647748
34.0354099035
34.0300132646
34.0245789802
34.0191132746
34.0136261041
34.0081352963
34.0026515203
33.9971865885
33.991775625
33.9864890167
33.9812440514
33.9760958858
33.971171976
33.9665750515
33.9623587725
33.9585924151
33.9553661918
33.9527632001
33.950860234
33.9496667244
33.9492261302
33.9495721554
33.9505141293
33.9516650193
33.9519500595
33.9486190797
33.9354280536
33.8982950511
33.8089994519
33.6165213359
33.2381279174
32.5571944024
31.4358910742
29.7482664642
27.4205511123
24.4487676818
20.8962433415
16.8762237413
12.3866918074
7.18096458523
1.83526994095
64.0970718486
60.3723416419
57.4683401283
55.1131455407
53.1430354806
51.4586692351
49.9948825752
48.7077955615
47.5661591286
46.5466494687
45.6312531104
44.8056825886
44.0583583357