/*--------------------------------*- C++ -*----------------------------------*\
| =========                 |                                                 |
| \\      /  F ield         | OpenFOAM: The Open Source CFD Toolbox           |
|  \\    /   O peration     | Version:  2106                                  |
|   \\  /    A nd           | Website:  www.openfoam.com                      |
|    \\/     M anipulation  |                                                 |
\*---------------------------------------------------------------------------*/
FoamFile
{
    version     2.0;
    format      ascii;
    arch        "LSB;label=32;scalar=64";
    class       surfaceScalarField;
    location    "0.44";
    object      phi;
}
// * * * * * * * * * * * * * * * * * * * * * * * * * * * * * * * * * * * * * //

dimensions      [0 3 -1 0 0 0 0];

oriented        oriented;

internalField   nonuniform List<scalar> 
22100
(
3.38461202111e-05
1.61538797826e-05
2.24572092861e-05
1.13889105063e-05
1.6258552091e-05
6.1986568886e-06
1.27977749064e-05
3.46077696629e-06
1.08046409249e-05
1.99313385622e-06
9.60458786484e-06
1.20005302417e-06
8.85132007309e-06
7.53267798077e-07
8.36435116932e-06
4.86968895877e-07
8.04433306984e-06
3.20017998654e-07
7.83283790334e-06
2.11494933854e-07
7.69339421219e-06
1.39443299863e-07
7.60223667678e-06
9.11569968565e-08
7.54347318413e-06
5.87628519562e-08
7.50633555894e-06
3.7136945263e-08
7.48349539863e-06
2.28395092725e-08
7.46997402444e-06
1.35208102161e-08
7.46240895792e-06
7.56461897868e-09
7.45854055251e-06
3.86805327212e-09
7.45682124229e-06
1.71902295959e-09
7.45641428893e-06
4.06711868211e-10
7.45676378684e-06
-3.49737419158e-10
7.45744959923e-06
-6.8609198611e-10
7.45820755286e-06
-7.58296120437e-10
7.4589325046e-06
-7.25289443007e-10
7.45957649489e-06
-6.44354559158e-10
7.46012018362e-06
-5.44029425882e-10
7.46056214971e-06
-4.42240647264e-10
7.46091084541e-06
-3.48889008499e-10
7.46117915484e-06
-2.68428592364e-10
7.46138111594e-06
-2.02040950801e-10
7.4615300329e-06
-1.49013632392e-10
7.46163755895e-06
-1.07664971015e-10
7.46171340902e-06
-7.60689780666e-11
7.46176570826e-06
-5.26280817434e-11
7.46179842248e-06
-3.31749565132e-11
7.46181661451e-06
-1.87638077475e-11
7.46182517196e-06
-9.11400684499e-12
7.46182755972e-06
-2.92795829025e-12
7.46182580682e-06
1.35083819238e-12
7.46182102893e-06
4.53676865886e-12
7.46181413119e-06
6.82121756517e-12
7.46180564922e-06
8.51121913589e-12
7.46179589229e-06
9.81382928796e-12
7.46178499028e-06
1.09212634175e-11
7.46177290816e-06
1.20364869663e-11
7.46175959104e-06
1.32600682744e-11
7.46174482214e-06
1.46880473277e-11
7.46172828972e-06
1.64226422528e-11
7.46170958206e-06
1.85759149548e-11
7.46168815137e-06
2.12717459266e-11
7.46166340942e-06
2.45556154962e-11
7.46163466711e-06
2.85084357947e-11
7.46160117681e-06
3.32321631117e-11
7.46156213357e-06
3.88041889215e-11
7.46151669303e-06
4.52499984182e-11
7.46146402629e-06
5.25495990175e-11
7.46140349101e-06
6.0511501684e-11
7.46133503511e-06
6.85583810775e-11
7.46125929487e-06
7.58852832954e-11
7.46117879748e-06
8.07300264681e-11
7.46110000365e-06
7.90731164896e-11
7.4610348102e-06
6.54727038154e-11
7.4609908211e-06
4.4386282953e-11
7.46098753417e-06
3.70103197096e-12
7.46106080745e-06
-7.30317530887e-11
7.46126904647e-06
-2.0807046878e-10
7.4617067584e-06
-4.37736880143e-10
7.46252411371e-06
-8.17485096885e-10
7.46395649962e-06
-1.43249904386e-09
7.46635932331e-06
-2.4029130733e-09
7.47018162807e-06
-3.82234157043e-09
7.47663587096e-06
-6.45415034483e-09
7.48741154064e-06
-1.07753973544e-08
7.50559076497e-06
-1.81789288317e-08
7.53877897631e-06
-3.31879755756e-08
7.60799227509e-06
-6.92130550088e-08
7.77464111261e-06
-1.66648588478e-07
8.22950540809e-06
-4.5486415946e-07
9.69697432276e-06
-1.46746900141e-06
-5.45079033342e-06
1.51477645232e-05
5.02175946879e-05
1.59362847194e-05
4.42441110541e-05
1.73623935632e-05
3.7779500672e-05
1.2663266879e-05
3.26461430429e-05
8.5941343608e-06
2.89380908707e-05
5.70118592325e-06
2.63596204718e-05
3.77852338443e-06
2.45875160335e-05
2.52537214518e-06
2.33734738613e-05
1.70101084179e-06
2.25435245391e-05
1.14996686564e-06
2.19782154009e-05
7.76803361332e-07
2.15955122526e-05
5.22145506541e-07
2.13387349515e-05
3.47933200852e-07
2.1168492648e-05
2.29003998317e-07
2.10573342833e-05
1.48294178147e-07
2.09861457066e-05
9.4027060609e-08
2.09416727977e-05
5.79928514895e-08
2.091479058e-05
3.44461200274e-08
2.08992911698e-05
1.93668414307e-08
2.08910671368e-05
9.94250214235e-09
2.08872665965e-05
4.20670094836e-09
2.08861973304e-05
7.18970851611e-10
2.08864426788e-05
-9.32043385105e-10
2.08873137487e-05
-1.62995354808e-09
2.08884528984e-05
-1.86499411872e-09
2.08896259229e-05
-1.81784464072e-09
2.08907086778e-05
-1.62714601719e-09
2.08916461178e-05
-1.37993086459e-09
2.08924235598e-05
-1.12647758595e-09
2.08930487324e-05
-8.93683976594e-10
2.08935407925e-05
-6.94206000527e-10
2.08939244502e-05
-5.32904539523e-10
2.0894225687e-05
-4.09305330856e-10
2.08944362161e-05
-2.87168387621e-10
2.08945826566e-05
-1.99855345078e-10
2.08946822986e-05
-1.33795653865e-10
2.08947469498e-05
-8.43514698066e-11
2.08947868327e-05
-4.98269464686e-11
2.08948102058e-05
-2.69120523445e-11
2.08948219415e-05
-1.07341341463e-11
2.08948249381e-05
1.39746365314e-12
2.08948215722e-05
1.01866850504e-11
2.08948134312e-05
1.67043869655e-11
2.08948016156e-05
2.16899820041e-11
2.0894786802e-05
2.57349892953e-11
2.0894769331e-05
2.93847681897e-11
2.0894749426e-05
3.30176246383e-11
2.08947270636e-05
3.68896735443e-11
2.08947021378e-05
4.11756688898e-11
2.08946744643e-05
4.60444337579e-11
2.08946437455e-05
5.17128620448e-11
2.08946097806e-05
5.81853756384e-11
2.08945724376e-05
6.54693846833e-11
2.08945317797e-05
7.35199985592e-11
2.08944881783e-05
8.21235770068e-11
2.08944425427e-05
9.07295610134e-11
2.08943966922e-05
9.83636168809e-11
2.08943539921e-05
1.03228487993e-10
2.08943205083e-05
1.02189632221e-10
2.08943057556e-05
9.09109460747e-11
2.08943250981e-05
6.186055561e-11
2.08944058483e-05
-9.51882287652e-13
2.08945962167e-05
-1.24243333155e-10
2.089496493e-05
-3.23766887725e-10
2.08956310627e-05
-6.61881829016e-10
2.08967007182e-05
-1.1423942633e-09
2.0898352837e-05
-1.86012127861e-09
2.0900945261e-05
-3.03022328385e-09
2.09050259639e-05
-4.89831784283e-09
2.09114643009e-05
-7.87083184993e-09
2.09216839312e-05
-1.26223786808e-08
2.09381749691e-05
-2.03131252342e-08
2.09650811591e-05
-3.33598879389e-08
2.1009341834e-05
-5.50355218142e-08
2.10841266775e-05
-9.29632212604e-08
2.12153559261e-05
-1.64416713948e-07
2.14559252544e-05
-3.09781886516e-07
2.19136645003e-05
-6.24387376619e-07
2.28004317226e-05
-1.34163081785e-06
2.44439414183e-05
-3.11097797321e-06
-7.03660036171e-06
2.60297511182e-05
5.35171051355e-05
1.24191792816e-05
5.29349677287e-05
1.79445304839e-05
4.96538392756e-05
1.59443950153e-05
4.58401804518e-05
1.2407793007e-05
4.24400913717e-05
9.10127493486e-06
3.97291713799e-05
6.48944336182e-06
3.76873048289e-05
4.56723862808e-06
3.61976618252e-05
3.19065365189e-06
3.51326108441e-05
2.2150174521e-06
3.43823652542e-05
1.52704833111e-06
3.38606235613e-05
1.0438863778e-06
3.35023424923e-05
7.06213313639e-07
3.32595967209e-05
4.71748768045e-07
3.30975855829e-05
3.10304359399e-07
3.29913287726e-05
2.00283027516e-07
3.29230862826e-05
1.26234640373e-07
3.288039782e-05
7.71339960423e-08
3.28546122575e-05
4.51519396703e-08
3.28397847679e-05
2.4769568948e-08
3.28318578584e-05
1.21331638035e-08
3.28279879407e-05
4.5884062222e-09
3.28269888711e-05
6.65039121159e-11
3.28271691732e-05
-1.81079935511e-09
3.2828017138e-05
-2.71348618104e-09
3.28291325107e-05
-2.93368359245e-09
3.283027943e-05
-2.77443270572e-09
3.28313351479e-05
-2.43591572832e-09
3.2832245336e-05
-2.03685219057e-09
3.28329951093e-05
-1.64360137507e-09
3.28335905001e-05
-1.2897502746e-09
3.28340463753e-05
-9.89024901655e-10
3.28343807924e-05
-7.44111662306e-10
3.2834646393e-05
-5.53393527871e-10
3.28348617904e-05
-4.16009741143e-10
3.2835008046e-05
-2.80880673965e-10
3.28351062929e-05
-1.83472893123e-10
3.28351712588e-05
-1.15587411072e-10
3.28352124519e-05
-6.86938470559e-11
3.28352367906e-05
-3.54310495784e-11
3.28352481913e-05
-1.01805326849e-11
3.28352501841e-05
8.1686132429e-12
3.2835245172e-05
2.1715902782e-11
3.2835234944e-05
3.19215388064e-11
3.28352207297e-05
3.99591384357e-11
3.28352032153e-05
4.67933126931e-11
3.28351829542e-05
5.31278804831e-11
3.28351602389e-05
5.93892283167e-11
3.28351353048e-05
6.58675511619e-11
3.28351083094e-05
7.27875007943e-11
3.2835079214e-05
8.0494326174e-11
3.28350483428e-05
8.86914040693e-11
3.28350163348e-05
9.70971835585e-11
3.28349842873e-05
1.05222940106e-10
3.28349540338e-05
1.12078498042e-10
3.28349286261e-05
1.15913497719e-10
3.28349127266e-05
1.14177608532e-10
3.2834913525e-05
1.02500035293e-10
3.28349425857e-05
7.32685519545e-11
3.2835017389e-05
1.64687346919e-11
3.28351676816e-05
-8.81933922164e-11
3.28354452253e-05
-2.7801524456e-10
3.28359393619e-05
-6.179751382e-10
3.28366610108e-05
-1.04516210017e-09
3.28377087865e-05
-1.70940734813e-09
3.28393423604e-05
-2.77603182884e-09
3.28419358298e-05
-4.45366380713e-09
3.28459935505e-05
-7.0880088104e-09
3.28523301552e-05
-1.12349852518e-08
3.28622587279e-05
-1.77993819689e-08
3.28779433874e-05
-2.83069060665e-08
3.29030437078e-05
-4.54131133284e-08
3.29429085422e-05
-7.32243064412e-08
3.3007364307e-05
-1.19490853541e-07
3.31133860125e-05
-1.98984475164e-07
3.32899738186e-05
-3.41004051841e-07
3.35853089002e-05
-6.05116584289e-07
3.40704323994e-05
-1.10951064777e-06
3.48114212647e-05
-2.08261940749e-06
3.56720136581e-05
-3.97156934364e-06
-7.10446382481e-06
3.57398787949e-05
5.35105662417e-05
8.9086127554e-06
5.5574221617e-05
1.58808746552e-05
5.52424816484e-05
1.62761347049e-05
5.35977849593e-05
1.40524895452e-05
5.15418466399e-05
1.11572131939e-05
4.95802788479e-05
8.45101113299e-06
4.79243497507e-05
6.22316764745e-06
4.66181376906e-05
4.49686550837e-06
4.56304645327e-05
3.20269021412e-06
4.49051150436e-05
2.25239721295e-06
4.43840871491e-05
1.56491347509e-06
4.40166901803e-05
1.07360935188e-06
4.37619628264e-05
7.26475139681e-07
4.35882633988e-05
4.84002850026e-07
4.34718633148e-05
3.1668228235e-07
4.33953526345e-05
2.02744616293e-07
4.33461818537e-05
1.2630419299e-07
4.33154438145e-05
7.58894795172e-08
4.32969070648e-05
4.33058798765e-08
4.32862805972e-05
2.2759168968e-08
4.32806773356e-05
1.01912037554e-08
4.32778692324e-05
2.8741311917e-09
4.32770410198e-05
-9.83070402149e-10
4.32772585121e-05
-2.93143855018e-09
4.32779457151e-05
-3.62127861929e-09
4.32788085214e-05
-3.63753407999e-09
4.32796811612e-05
-3.30874708838e-09
4.32804784769e-05
-2.83429306031e-09
4.32811640738e-05
-2.32929680227e-09
4.32817296769e-05
-1.85549235587e-09
4.32821820645e-05
-1.44164594558e-09
4.32825338997e-05
-1.09633964774e-09
4.32827948966e-05
-8.1501747295e-10
4.32829694682e-05
-5.91313959015e-10
4.3283101569e-05
-4.13773228892e-10
4.32831861381e-05
-2.68845429601e-10
4.32832393227e-05
-1.69450960224e-10
4.32832785367e-05
-1.08425534398e-10
4.32833025917e-05
-5.97992198955e-11
4.32833144307e-05
-2.21269745144e-11
4.32833174132e-05
5.17267879569e-12
4.32833134522e-05
2.56969719086e-11
4.32833041683e-05
4.11878498937e-11
4.32832907515e-05
5.33103383898e-11
4.32832738348e-05
6.35399153577e-11
4.32832539209e-05
7.28701610662e-11
4.32832313555e-05
8.17734321814e-11
4.32832064545e-05
9.05732068427e-11
4.32831795664e-05
9.94595453716e-11
4.32831512773e-05
1.08509448805e-10
4.3283122278e-05
1.17385323981e-10
4.32830935597e-05
1.25511548172e-10
4.32830666323e-05
1.31886601502e-10
4.32830436201e-05
1.34867755529e-10
4.32830274984e-05
1.31912625636e-10
4.32830228468e-05
1.18851834168e-10
4.32830377516e-05
8.77899259651e-11
4.32830842883e-05
2.68171756658e-11
4.3283181997e-05
-8.08330769636e-11
4.32833462543e-05
-2.52087294109e-10
4.32835948364e-05
-5.26238524813e-10
4.32840435155e-05
-1.06631208531e-09
4.32848232452e-05
-1.82461934589e-09
4.32860855454e-05
-2.97149885511e-09
4.32880386799e-05
-4.72916388765e-09
4.32910333541e-05
-7.44840244722e-09
4.32956295608e-05
-1.16842744938e-08
4.33027061574e-05
-1.83116182335e-08
4.3313645356e-05
-2.8738564117e-08
4.33306048872e-05
-4.52662396265e-08
4.3356893097e-05
-7.17009397939e-08
4.3398078135e-05
-1.14408869895e-07
4.3463007012e-05
-1.84419258794e-07
4.35653954657e-05
-3.01372437407e-07
4.37251826004e-05
-5.00790667532e-07
4.39669379576e-05
-8.46871455339e-07
4.4307284667e-05
-1.44985696436e-06
4.47074628474e-05
-2.48279745317e-06
4.49265067846e-05
-4.19061300984e-06
-6.57496918658e-06
4.43970130672e-05
5.2735137766e-05
6.17347473428e-06
5.57309338045e-05
1.28850782059e-05
5.73114733703e-05
1.46955948812e-05
5.76109907179e-05
1.37529720594e-05
5.71335214911e-05
1.16346823582e-05
5.63194669743e-05
9.2650656115e-06
5.54489867862e-05
7.09364773149e-06
5.46629761145e-05
5.28287594531e-06
5.40136802861e-05
3.85198562294e-06
5.35061485211e-05
2.75992836626e-06
5.31242520283e-05
1.94680918551e-06
5.28449818203e-05
1.35287865854e-06
5.26454348927e-05
9.2602112374e-07
5.25057100186e-05
6.23726820188e-07
5.24097147228e-05
4.12676780846e-07
5.23450083024e-05
2.67450364822e-07
5.23022701697e-05
1.69041763706e-07
5.22746827541e-05
1.03476400623e-07
5.22573579654e-05
6.06302049605e-08
5.22468490104e-05
3.32676867729e-08
5.22407489635e-05
1.62907806987e-08
5.22374396772e-05
6.18293743528e-09
5.22359405239e-05
5.15608588887e-10
5.22354320662e-05
-2.423425402e-09
5.22354965158e-05
-3.68611495103e-09
5.22358415199e-05
-3.98282774911e-09
5.22362953728e-05
-3.76277178065e-09
5.22367613903e-05
-3.30042454971e-09
5.22371884152e-05
-2.75644571906e-09
5.22375536828e-05
-2.22092731464e-09
5.22378504454e-05
-1.73867139414e-09
5.22380814198e-05
-1.32780586466e-09
5.22382569152e-05
-9.91136871543e-10
5.2238388884e-05
-7.24055033062e-10
5.22384882899e-05
-5.1401196975e-10
5.22385719024e-05
-3.53261495124e-10
5.22386366874e-05
-2.34923605394e-10
5.22386783369e-05
-1.50579440208e-10
5.22387107514e-05
-9.25092608985e-11
5.22387259353e-05
-3.7471307649e-11
5.2238731044e-05
-1.11868768435e-14
5.22387286204e-05
2.80929923941e-11
5.22387205228e-05
4.92031250392e-11
5.22387080992e-05
6.55372023091e-11
5.22386922799e-05
7.9233892287e-11
5.22386735786e-05
9.1385521122e-11
5.22386525059e-05
1.02619058922e-10
5.22386296947e-05
1.13126643577e-10
5.22386064696e-05
1.2239582502e-10
5.22385806636e-05
1.34004356717e-10
5.2238553995e-05
1.43770563914e-10
5.22385276615e-05
1.51629873781e-10
5.22385032879e-05
1.56114874766e-10
5.22384836093e-05
1.54519208054e-10
5.22384746197e-05
1.41028775791e-10
5.22384841905e-05
1.09509188149e-10
5.22385166772e-05
5.52126841822e-11
5.2238595823e-05
-5.20871314715e-11
5.22387179943e-05
-2.02668082179e-10
5.22389168855e-05
-4.50636849089e-10
5.22392574804e-05
-8.66229133414e-10
5.22397803346e-05
-1.58880217146e-09
5.2240559295e-05
-2.60332971171e-09
5.22417274401e-05
-4.13949577403e-09
5.2243488316e-05
-6.4900137633e-09
5.22461434342e-05
-1.01036191488e-08
5.22501451337e-05
-1.56860270562e-08
5.22561849185e-05
-2.43513806539e-08
5.22653219407e-05
-3.78754998022e-08
5.22791738589e-05
-5.91179032501e-08
5.23001984312e-05
-9.27250462933e-08
5.23321107895e-05
-1.46320672954e-07
5.2380253103e-05
-2.32561037777e-07
5.24515488216e-05
-3.72667600823e-07
5.25528567319e-05
-6.02098040802e-07
5.26847147447e-05
-9.78729082083e-07
5.28248898231e-05
-1.59003171175e-06
5.28918959159e-05
-2.54980300997e-06
5.26732968768e-05
-3.97201367771e-06
-5.7661281737e-06
5.18644564349e-05
5.19834862291e-05
4.18998827051e-06
5.50586633454e-05
9.80990071799e-06
5.76386123114e-05
1.21156456736e-05
5.93259020843e-05
1.20656821445e-05
6.02280140088e-05
1.07325703515e-05
6.05929251023e-05
8.90015444794e-06
6.06482818722e-05
7.03829081847e-06
6.05531871443e-05
5.37797039287e-06
6.04029521348e-05
4.00222016851e-06
6.02479110258e-05
2.91496882941e-06
6.011078475e-05
2.08393466186e-06
5.99990243868e-05
1.46463812358e-06
5.99125083462e-05
1.01253624409e-06
5.9847915626e-05
6.88318662709e-07
5.98010113085e-05
4.59580310938e-07
5.97677260016e-05
3.00735001181e-07
5.9744584073e-05
1.92183128866e-07
5.97288050051e-05
1.19254977377e-07
5.97182563446e-05
7.11783929021e-08
5.97113496348e-05
4.01739208369e-08
5.97069297481e-05
2.07101749251e-08
5.97041953052e-05
8.91686885585e-09
5.97025857458e-05
2.12467832527e-09
5.97016807395e-05
-1.51885680337e-09
5.97012220415e-05
-3.22778345196e-09
5.97010322031e-05
-3.79325149967e-09
5.97009956877e-05
-3.72642816832e-09
5.9701039789e-05
-3.34464682854e-09
5.97011207215e-05
-2.83751938162e-09
5.97012127659e-05
-2.31319604643e-09
5.97013019628e-05
-1.82825279102e-09
5.97013817126e-05
-1.4080411057e-09
5.97014505664e-05
-1.06065406471e-09
5.97015091708e-05
-7.83469936571e-10
5.97015584248e-05
-5.64092344436e-10
5.97015972942e-05
-3.92909015322e-10
5.970162432e-05
-2.62587670121e-10
5.97016391323e-05
-1.65826472488e-10
5.97016371761e-05
-9.08325132488e-11
5.97016288571e-05
-2.93348357256e-11
5.97016221652e-05
6.56319254738e-12
5.9701612956e-05
3.71924545461e-11
5.97016023272e-05
5.96300929246e-11
5.97015906369e-05
7.70609961991e-11
5.97015767507e-05
9.29389938949e-11
5.97015605123e-05
1.07418301291e-10
5.97015420467e-05
1.20889284536e-10
5.97015214119e-05
1.3354547425e-10
5.97014982348e-05
1.45335376431e-10
5.97014760178e-05
1.56003083725e-10
5.97014548017e-05
1.64847572611e-10
5.97014357912e-05
1.70545738312e-10
5.97014206359e-05
1.71206659127e-10
5.9701410841e-05
1.64422067847e-10
5.97014046248e-05
1.47305481901e-10
5.97013964002e-05
1.1779820174e-10
5.97014029278e-05
4.90225490247e-11
5.97014157142e-05
-6.43546221257e-11
5.97015047618e-05
-2.9156071621e-10
5.97016974412e-05
-6.42799387853e-10
5.97020005669e-05
-1.1688023972e-09
5.97023916489e-05
-1.97953839952e-09
5.9702975408e-05
-3.18679340072e-09
5.97038341181e-05
-4.99807473702e-09
5.97050820489e-05
-7.73789661011e-09
5.97068845177e-05
-1.19061248102e-08
5.97094799991e-05
-1.82814594774e-08
5.97132128204e-05
-2.80840628177e-08
5.97185730381e-05
-4.32354837195e-08
5.97262417021e-05
-6.67861670748e-08
5.97371203155e-05
-1.03603111044e-07
5.97522712882e-05
-1.61471063695e-07
5.97725320342e-05
-2.52821220919e-07
5.97973103563e-05
-3.97445366096e-07
5.98214490342e-05
-6.26236156076e-07
5.98280736984e-05
-9.85353215429e-07
5.97751493281e-05
-1.53710693622e-06
5.95747730859e-05
-2.3494263333e-06
5.90691658889e-05
-3.46640610945e-06
-4.79516728681e-06
5.8098205637e-05
5.14373051331e-05
2.75268292071e-06
5.42658199656e-05
6.98138554381e-06
5.72496423607e-05
9.13182305384e-06
5.97900265178e-05
9.52529783999e-06
6.1720126858e-05
8.80246990668e-06
6.30883016617e-05
7.53197954039e-06
6.40167150185e-05
6.10987728448e-06
6.4629234503e-05
4.76545059937e-06
6.50258009969e-05
3.60565319166e-06
6.52790749545e-05
2.66169421467e-06
6.54389692571e-05
1.92403956095e-06
6.55386852651e-05
1.36492123599e-06
6.55999229661e-05
9.51297649538e-07
6.56367369946e-05
6.51503798271e-07
6.56581873879e-05
4.381291639e-07
6.56700949978e-05
2.88826735984e-07
6.56761837072e-05
1.86093861165e-07
6.56788195354e-05
1.16618649952e-07
6.56794895133e-05
7.05079381975e-08
6.56791128429e-05
4.05501037458e-08
6.56782449684e-05
2.15775370254e-08
6.56772135746e-05
9.94774464185e-09
6.56762038797e-05
3.13388316272e-09
6.56752942247e-05
-6.09612995073e-10
6.56745252534e-05
-2.4591272058e-09
6.56738966889e-05
-3.16495205873e-09
6.56733976744e-05
-3.22757794503e-09
6.56730106807e-05
-2.95778034642e-09
6.56727166541e-05
-2.54364093704e-09
6.56724973918e-05
-2.09414499679e-09
6.56723366825e-05
-1.66795294034e-09
6.56722208764e-05
-1.29281413434e-09
6.56721378487e-05
-9.78362257431e-10
6.56720770333e-05
-7.23489859409e-10
6.56720327374e-05
-5.20640127491e-10
6.5672000798e-05
-3.61750271798e-10
6.56719752099e-05
-2.37586533814e-10
6.56719532837e-05
-1.44314145933e-10
6.56719379369e-05
-7.57887795044e-11
6.56719359558e-05
-2.75473260167e-11
6.56719342669e-05
8.09433194332e-12
6.56719267999e-05
4.44597775925e-11
6.56719167698e-05
6.94499325291e-11
6.56719041859e-05
8.93949035697e-11
6.56718900195e-05
1.0679453319e-10
6.56718743426e-05
1.22772639382e-10
6.56718570516e-05
1.37884376631e-10
6.56718380657e-05
1.52226660943e-10
6.5671817862e-05
1.65245122508e-10
6.56717985964e-05
1.75039716326e-10
6.56717792543e-05
1.84035661533e-10
6.56717603158e-05
1.89405631051e-10
6.56717429501e-05
1.88597638839e-10
6.5671729078e-05
1.78408118444e-10
6.5671722573e-05
1.53757360896e-10
6.56717311888e-05
1.09306588122e-10
6.56717368205e-05
4.3770266703e-11
6.56717741781e-05
-1.01270859953e-10
6.5671842917e-05
-3.60081000893e-10
6.56719440383e-05
-7.43438497491e-10
6.56720976238e-05
-1.32204093193e-09
6.56723109049e-05
-2.19248965331e-09
6.5672600665e-05
-3.47624522248e-09
6.5672983537e-05
-5.38085526437e-09
6.56734707749e-05
-8.22517989285e-09
6.56740604652e-05
-1.24958418314e-08
6.56747229577e-05
-1.89438280286e-08
6.56753732791e-05
-2.87340976446e-08
6.56758113305e-05
-4.36730889517e-08
6.56756105531e-05
-6.65847991246e-08
6.56739027744e-05
-1.0189467126e-07
6.56689560858e-05
-1.56523726523e-07
6.56572394853e-05
-2.41103982561e-07
6.56316291423e-05
-3.71834407863e-07
6.55779821131e-05
-5.72588560713e-07
6.54690800484e-05
-8.76450643706e-07
6.52557825673e-05
-1.32380898564e-06
6.48580928121e-05
-1.95173599165e-06
6.41636264942e-05
-2.77193948922e-06
-3.71385997905e-06
6.30823197561e-05
5.1085042131e-05
1.66764058779e-06
5.36118439734e-05
4.4545833759e-06
5.66873156387e-05
6.05635117169e-06
5.96894454579e-05
6.52316786191e-06
6.22997259121e-05
6.19218931841e-06
6.44136873237e-05
5.41801798096e-06
6.60471832565e-05
4.47638112453e-06
6.72686144976e-05
3.54401900946e-06
6.8159893102e-05
2.71437408036e-06
6.87977591459e-05
2.02382750813e-06
6.92467428733e-05
1.47505504656e-06
6.95579610147e-05
1.05370224297e-06
6.97704270096e-05
7.38830793996e-07
6.99131694589e-05
5.08760537765e-07
7.000738006e-05
3.43917840728e-07
7.00682892329e-05
2.27916932223e-07
7.01066909641e-05
1.47691569374e-07
7.0130133021e-05
9.31760740187e-08
7.01438219132e-05
5.68185423014e-08
7.01512977704e-05
3.30737373698e-08
7.0154929988e-05
1.79447990292e-08
7.015627751e-05
8.59970213764e-09
7.01563491758e-05
3.06173862244e-09
7.01557569849e-05
-1.78100286248e-11
7.01548960579e-05
-1.5984926179e-09
7.0153972476e-05
-2.24156569699e-09
7.01531039342e-05
-2.35916495842e-09
7.01523440312e-05
-2.19799400515e-09
7.01517098988e-05
-1.90969241212e-09
7.01511986437e-05
-1.5831841569e-09
7.01507972691e-05
-1.26704403018e-09
7.01504888186e-05
-9.85005740211e-10
7.01502556955e-05
-7.46000463649e-10
7.01500817944e-05
-5.50402058038e-10
7.01499541899e-05
-3.93835807952e-10
7.01498623187e-05
-2.7056984623e-10
7.01497991201e-05
-1.74952056139e-10
7.01497571457e-05
-1.02776602293e-10
7.01497283733e-05
-4.73470337429e-11
7.01496984005e-05
2.2043215337e-12
7.01496748291e-05
3.14138282357e-11
7.01496615792e-05
5.75123143187e-11
7.01496509936e-05
7.98747952166e-11
7.01496409874e-05
9.91637057131e-11
7.014963082e-05
1.16657128342e-10
7.0149620133e-05
1.33115468955e-10
7.01496088078e-05
1.48845047865e-10
7.01495968868e-05
1.63773216893e-10
7.01495842918e-05
1.77518910498e-10
7.01495696144e-05
1.89476166138e-10
7.01495547417e-05
1.98747288287e-10
7.01495405543e-05
2.03545921134e-10
7.01495278855e-05
2.01445736418e-10
7.01495170403e-05
1.89101705677e-10
7.01495076512e-05
1.63282386777e-10
7.01494970364e-05
1.20302093586e-10
7.01494920523e-05
4.88209987528e-11
7.0149480349e-05
-8.93039380001e-11
7.01494939905e-05
-3.73237452707e-10
7.01495190257e-05
-7.68133263214e-10
7.01495443337e-05
-1.34712524675e-09
7.01495487949e-05
-2.19672896711e-09
7.01495056834e-05
-3.43296923959e-09
7.01493618853e-05
-5.23698063644e-09
7.01490186653e-05
-7.88200960939e-09
7.01483012904e-05
-1.17784771383e-08
7.01469084841e-05
-1.75508880396e-08
7.01443293643e-05
-2.61546275986e-08
7.01396907799e-05
-3.90339169537e-08
7.01315127569e-05
-5.84060676697e-08
7.01173070071e-05
-8.76882277039e-08
7.00929218986e-05
-1.32137993743e-07
7.00512732496e-05
-1.99454773915e-07
6.99803954707e-05
-3.00956160803e-07
6.98603363592e-05
-4.52528955756e-07
6.96586739816e-05
-6.74787729908e-07
6.93255318283e-05
-9.90666513472e-07
6.87914205151e-05
-1.41762401752e-06
6.79738422258e-05
-1.9543608935e-06
-2.55485766499e-06
6.68148403291e-05
5.08804129771e-05
7.87227427118e-07
5.31704656213e-05
2.16453041208e-06
5.62177489273e-05
3.00906764346e-06
5.94382687293e-05
3.30264788188e-06
6.24449683655e-05
3.18548951436e-06
6.50382515933e-05
2.82473455978e-06
6.71548649026e-05
2.35976753157e-06
6.88135630392e-05
1.88532048074e-06
7.00731685565e-05
1.45476803627e-06
7.10056649124e-05
1.09133049719e-06
7.16812604991e-05
7.99458704487e-07
7.21614190944e-05
5.73542836302e-07
7.24965992601e-05
4.03649820513e-07
7.27264750881e-05
2.78883942823e-07
7.28812733214e-05
1.8911891449e-07
7.29834624818e-05
1.25727163055e-07
7.30494057151e-05
8.1747777063e-08
7.30908072955e-05
5.17739576243e-08
7.31159007115e-05
3.17245904814e-08
7.31303846861e-05
1.85892152034e-08
7.31381388562e-05
1.01900787825e-08
7.31417587711e-05
4.97926172528e-09
7.3142946012e-05
1.8740332219e-09
7.31427992524e-05
1.28563006869e-10
7.31419757649e-05
-7.75269099588e-10
7.31408926921e-05
-1.1586645366e-09
7.31397777279e-05
-1.24431049908e-09
7.31387502052e-05
-1.17060571109e-09
7.3137862501e-05
-1.02221643975e-09
7.31371284878e-05
-8.49523358507e-10
7.31365407442e-05
-6.79814782972e-10
7.31360818652e-05
-5.2683262736e-10
7.3135731037e-05
-3.95994493602e-10
7.3135467702e-05
-2.87911471888e-10
7.31352735897e-05
-2.00526646704e-10
7.31351331473e-05
-1.30817636746e-10
7.31350331609e-05
-7.55222464784e-11
7.31349611452e-05
-3.12075916882e-11
7.31349075569e-05
5.94609624462e-12
7.3134877531e-05
3.19863880296e-11
7.31348542479e-05
5.44656911713e-11
7.3134837204e-05
7.4240806477e-11
7.31348246076e-05
9.21319353259e-11
7.31348146399e-05
1.08775955845e-10
7.31348060427e-05
1.24883456772e-10
7.31347979297e-05
1.40814139457e-10
7.31347897006e-05
1.56616733558e-10
7.31347809749e-05
1.72065666051e-10
7.31347715191e-05
1.86610654446e-10
7.31347613217e-05
1.99381961731e-10
7.31347504285e-05
2.09398361286e-10
7.31347389652e-05
2.14886523327e-10
7.31347269326e-05
2.13284100957e-10
7.31347147657e-05
2.01376276407e-10
7.31347032418e-05
1.75203758929e-10
7.31346935587e-05
1.30228953138e-10
7.31346764959e-05
6.58196619667e-11
7.31346547276e-05
-6.74491165356e-11
7.31346147865e-05
-3.32756430057e-10
7.31345501436e-05
-7.03380882362e-10
7.31344376315e-05
-1.23441032829e-09
7.31342340184e-05
-1.99287502934e-09
7.31338712361e-05
-3.07015200027e-09
7.31332345824e-05
-4.60032080498e-09
7.31321313174e-05
-6.7786914397e-09
7.3130240037e-05
-9.88707217092e-09
7.31270333336e-05
-1.4343969691e-08
7.31216567517e-05
-2.07776534989e-08
7.31126987533e-05
-3.00753041882e-08
7.30978556731e-05
-4.35622722772e-08
7.3073420638e-05
-6.32525200852e-08
7.30334988807e-05
-9.22156895517e-08
7.29685815379e-05
-1.34536978452e-07
7.2863657171e-05
-1.96031439758e-07
7.26955689358e-05
-2.84440381865e-07
7.24298312233e-05
-4.09049507365e-07
7.20181045367e-05
-5.78939607176e-07
7.13992254137e-05
-7.98744338237e-07
7.05076895713e-05
-1.06282468572e-06
-1.34610227824e-06
6.92989345008e-05
5.07871723984e-05
5.48545828695e-11
5.2951649319e-05
5.3166705485e-11
5.59606876796e-05
2.90421232563e-11
5.92633209168e-05
1.44364747202e-11
6.24488072468e-05
2.9728551105e-12
6.52735475176e-05
-5.95869625481e-12
6.76333266894e-05
-1.19685874431e-11
6.95186617953e-05
-1.50570644662e-11
7.09734449439e-05
-1.56566313469e-11
7.20647891344e-05
-1.43408172788e-11
7.28642588317e-05
-1.1713279407e-11
7.3437809319e-05
-8.40758376442e-12
7.38414634708e-05
-5.07069665035e-12
7.41203490626e-05
-2.34755079234e-12
7.43094681495e-05
-8.24842787905e-13
7.44351956488e-05
-9.32066561015e-13
7.45169458038e-05
-2.94031610714e-12
7.45687258434e-05
-6.64222665021e-12
7.46004612657e-05
-1.14130033029e-11
7.46190661522e-05
-1.62799900699e-11
7.46292757357e-05
-2.01157234267e-11
7.46342762604e-05
-2.18115117971e-11
7.46361706937e-05
-2.09066069031e-11
7.46363174793e-05
-1.86238900019e-11
7.46355580536e-05
-1.61105615713e-11
7.46344121479e-05
-1.29526572073e-11
7.46331770022e-05
-9.29350096409e-12
7.46320114945e-05
-5.24812960678e-12
7.46309893353e-05
-3.28520155002e-13
7.46301355727e-05
3.8222713081e-12
7.46294466665e-05
8.52674033877e-12
7.46289056303e-05
1.34801307366e-11
7.46284901128e-05
1.8682523687e-11
7.46281770854e-05
2.42299035854e-11
7.46279454344e-05
3.03145156418e-11
7.46277768735e-05
3.70724722699e-11
7.46276562345e-05
4.45788466166e-11
7.46275718464e-05
5.27999115766e-11
7.46275157027e-05
6.17943237695e-11
7.46274763386e-05
7.10820401887e-11
7.46274499065e-05
8.06188379395e-11
7.46274324844e-05
9.13183806656e-11
7.46274210984e-05
1.03118582102e-10
7.46274135152e-05
1.15929151466e-10
7.46274082096e-05
1.29745614399e-10
7.46274040957e-05
1.44437543208e-10
7.46274004403e-05
1.59755830876e-10
7.46273967519e-05
1.75272295158e-10
7.46273926395e-05
1.90325044194e-10
7.46273878175e-05
2.03975831848e-10
7.46273820192e-05
2.15061029963e-10
7.46273750522e-05
2.2187976242e-10
7.46273664929e-05
2.2190548574e-10
7.46273558626e-05
2.12274823402e-10
7.46273416911e-05
1.89636269553e-10
7.46273224228e-05
1.49684196194e-10
7.46272972413e-05
9.11300892995e-11
7.46272520143e-05
-2.19212048103e-11
7.46271648928e-05
-2.45330184305e-10
7.46270300798e-05
-5.68540503485e-10
7.46268083195e-05
-1.01240469664e-09
7.46264387707e-05
-1.62312517767e-09
7.46258251582e-05
-2.45650388753e-09
7.46248109486e-05
-3.58614346195e-09
7.46231413959e-05
-5.10903344753e-09
7.46204003056e-05
-7.14573429181e-09
7.46159206606e-05
-9.86395996155e-09
7.46086454833e-05
-1.35020060669e-08
7.4596839982e-05
-1.82691518223e-08
7.45777049085e-05
-2.44264613363e-08
7.4546821836e-05
-3.23687619745e-08
7.44974663178e-05
-4.28595568254e-08
7.44189091767e-05
-5.59794257349e-08
7.42947616909e-05
-7.1883730396e-08
7.41006597544e-05
-9.03382169652e-08
7.38018083994e-05
-1.10197766041e-07
7.33515777683e-05
-1.28708773089e-07
7.26935401396e-05
-1.40706289167e-07
7.17697241526e-05
-1.39008302517e-07
-1.15132282666e-07
7.05387544153e-05
5.0787171375e-05
-7.87116694972e-07