/*--------------------------------*- C++ -*----------------------------------*\
| =========                 |                                                 |
| \\      /  F ield         | OpenFOAM: The Open Source CFD Toolbox           |
|  \\    /   O peration     | Version:  2106                                  |
|   \\  /    A nd           | Website:  www.openfoam.com                      |
|    \\/     M anipulation  |                                                 |
\*---------------------------------------------------------------------------*/
FoamFile
{
    version     2.0;
    format      ascii;
    arch        "LSB;label=32;scalar=64";
    class       surfaceScalarField;
    location    "0.225";
    object      phi;
}
// * * * * * * * * * * * * * * * * * * * * * * * * * * * * * * * * * * * * * //

dimensions      [0 3 -1 0 0 0 0];

oriented        oriented;

internalField   nonuniform List<scalar> 
22100
(
3.38461203116e-05
1.61538796923e-05
2.24572097209e-05
1.13889104316e-05
1.62585527303e-05
6.19865685494e-06
1.27977756413e-05
3.46077696387e-06
1.08046416585e-05
1.99313386245e-06
9.60458853088e-06
1.20005301201e-06
8.85132067806e-06
7.53267747241e-07
8.36435177292e-06
4.86968809064e-07
8.04433379425e-06
3.20017887177e-07
7.83283888173e-06
2.11494812387e-07
7.69339557451e-06
1.39443186674e-07
7.60223852302e-06
9.11569088704e-08
7.54347556852e-06
5.87628021104e-08
7.50633848445e-06
3.71369401346e-08
7.48349881107e-06
2.28395484286e-08
7.46997782119e-06
1.35208819523e-08
7.46241301899e-06
7.56470084118e-09
7.45854479043e-06
3.86812005863e-09
7.45682565205e-06
1.71902160759e-09
7.45641881762e-06
4.067211986e-10
7.45676845461e-06
-3.49739147876e-10
7.45745446043e-06
-6.86099586327e-10
7.45821262929e-06
-7.58264418542e-10
7.45893775461e-06
-7.25235670636e-10
7.4595818895e-06
-6.44263289894e-10
7.46012566888e-06
-5.43914045781e-10
7.46056766348e-06
-4.421160818e-10
7.46091633426e-06
-3.48762664805e-10
7.46118458337e-06
-2.68306648303e-10
7.46138648552e-06
-2.01935022878e-10
7.46153539927e-06
-1.48939215405e-10
7.46164302462e-06
-1.07662594747e-10
7.46171908923e-06
-7.61252643348e-11
7.46177173575e-06
-5.27233673146e-11
7.46180492897e-06
-3.32720939693e-11
7.46182366976e-06
-1.88056578664e-11
7.46183272436e-06
-9.09844406066e-12
7.46183552423e-06
-2.82397932415e-12
7.46183400545e-06
1.50845619289e-12
7.46182929997e-06
4.70534457932e-12
7.46182233287e-06
6.97202268776e-12
7.46181369911e-06
8.636040073e-12
7.46180376079e-06
9.93165903875e-12
7.46179268879e-06
1.10556877122e-11
7.46178048874e-06
1.21783629872e-11
7.46176703845e-06
1.34237225462e-11
7.46175210995e-06
1.48873158487e-11
7.46173538312e-06
1.66581209176e-11
7.46171644505e-06
1.88426827939e-11
7.46169479251e-06
2.15573051153e-11
7.46166984347e-06
2.48970910783e-11
7.46164089247e-06
2.89700908374e-11
7.46160709965e-06
3.38632646292e-11
7.46156753573e-06
3.96228560304e-11
7.4615212765e-06
4.62445399732e-11
7.4614675e-06
5.36683506816e-11
7.46140552127e-06
6.18079980049e-11
7.46133520737e-06
7.01327109457e-11
7.46125726717e-06
7.77846632236e-11
7.46117406776e-06
8.30736765935e-11
7.4610916619e-06
8.23036528972e-11
7.46102243093e-06
6.91516110732e-11
7.46097426921e-06
4.81066072622e-11
7.46096603116e-06
8.19500774526e-12
7.46103356061e-06
-6.75898196377e-11
7.46123507479e-06
-2.016117805e-10
7.46166509802e-06
-4.30149111482e-10
7.46247381249e-06
-8.088383091e-10
7.46389673538e-06
-1.42303256563e-09
7.46628986265e-06
-2.39324662473e-09
7.47010358703e-06
-3.81388322145e-09
7.47654976558e-06
-6.44636707092e-09
7.4873238792e-06
-1.07742841992e-08
7.50551210728e-06
-1.81883506324e-08
7.53873032139e-06
-3.32182969027e-08
7.60802130721e-06
-6.9291048084e-08
7.77487349325e-06
-1.66852252588e-07
8.2303160363e-06
-4.55442586873e-07
9.69975699562e-06
-1.46944087472e-06
-5.45938101996e-06
1.51591378294e-05
5.0217594809e-05
1.59362847174e-05
4.42441114417e-05
1.73623935401e-05
3.77795012041e-05
1.26632668657e-05
3.26461436073e-05
8.59413434574e-06
2.89380913714e-05
5.70118589442e-06
2.6359620852e-05
3.77852333925e-06
2.4587516329e-05
2.5253720919e-06
2.33734741625e-05
1.70101079878e-06
2.25435250019e-05
1.14996685604e-06
2.1978216192e-05
7.76803399517e-07
2.15955135247e-05
5.22145600367e-07
2.1338736816e-05
3.4793335205e-07
2.11684951596e-05
2.2900420556e-07
2.10573374357e-05
1.48294435885e-07
2.09861494275e-05
9.40273484881e-08
2.09416769682e-05
5.7993139628e-08
2.09147950773e-05
3.44463825466e-08
2.08992959052e-05
1.93670761323e-08
2.08910720304e-05
9.94268931909e-09
2.08872716834e-05
4.20687370787e-09
2.08862025758e-05
7.19184536477e-10
2.08864481739e-05
-9.31886349564e-10
2.08873194626e-05
-1.62976467347e-09
2.08884587931e-05
-1.86480130486e-09
2.08896319469e-05
-1.81765529801e-09
2.08907147775e-05
-1.62695730114e-09
2.08916522438e-05
-1.37974785442e-09
2.08924296781e-05
-1.12631150751e-09
2.0893054838e-05
-8.93545397321e-10
2.08935469276e-05
-6.94093369789e-10
2.08939307033e-05
-5.32799323415e-10
2.08942321519e-05
-4.09227242532e-10
2.08944430235e-05
-2.87135730545e-10
2.08945899854e-05
-1.99823446149e-10
2.08946902781e-05
-1.33679597079e-10
2.08947556076e-05
-8.42140207363e-11
2.08947961382e-05
-4.96713137781e-11
2.08948200253e-05
-2.6727686036e-11
2.08948320719e-05
-1.05391190235e-11
2.0894835208e-05
1.57364239388e-12
2.08948318436e-05
1.03343686566e-11
2.08948236379e-05
1.68254459527e-11
2.08948117286e-05
2.18110709562e-11
2.08947968269e-05
2.59178407406e-11
2.08947792956e-05
2.9658941886e-11
2.08947592557e-05
3.33893879287e-11
2.08947366706e-05
3.73612873522e-11
2.0894711411e-05
4.17757490809e-11
2.08946832854e-05
4.68363926075e-11
2.08946520635e-05
5.27151327986e-11
2.08946175392e-05
5.94550497964e-11
2.0894579529e-05
6.70769033589e-11
2.08945379615e-05
7.5502401301e-11
2.08944930533e-05
8.44901773401e-11
2.08944455959e-05
9.35200839153e-11
2.08943973774e-05
1.01607758467e-10
2.08943516119e-05
1.07275779008e-10
2.08943141691e-05
1.0731593237e-10
2.08942944786e-05
9.72683759566e-11
2.08943075716e-05
6.98144761924e-11
2.08943797485e-05
9.99167933087e-12
2.08945604216e-05
-1.11622451711e-10
2.08949175994e-05
-3.0916349798e-10
2.08955692187e-05
-6.43537893408e-10
2.08966262259e-05
-1.12476777585e-09
2.08982622788e-05
-1.83788540554e-09
2.09008357598e-05
-3.00385646681e-09
2.09048951941e-05
-4.86848551258e-09
2.09113107968e-05
-7.8388640795e-09
2.09215082152e-05
-1.25909444913e-08
2.09379812812e-05
-2.02872617671e-08
2.09648827768e-05
-3.33481473167e-08
2.10091632548e-05
-5.50549765103e-08
2.10840182016e-05
-9.30434474662e-08
2.12154174445e-05
-1.64617650091e-07
2.14563598394e-05
-3.1023354212e-07
2.19149046813e-05
-6.25397294817e-07
2.28034338544e-05
-1.34397224774e-06
2.44507001565e-05
-3.11670779265e-06
-7.05140150989e-06
2.60427234278e-05
5.35171052546e-05
1.24191793269e-05
5.2934968082e-05
1.79445304898e-05
4.96538397362e-05
1.5944395016e-05
4.58401809089e-05
1.24077929889e-05
4.24400917387e-05
9.10127489141e-06
3.97291716133e-05
6.48944330194e-06
3.76873049797e-05
4.56723857383e-06
3.61976619973e-05
3.19065362828e-06
3.51326111988e-05
2.21501748518e-06
3.43823659641e-05
1.52704843714e-06
3.38606247823e-05
1.04388656044e-06
3.35023443379e-05
7.06213566172e-07
3.32595992441e-05
4.71749077811e-07
3.30975887665e-05
3.10304709155e-07
3.29913325373e-05
2.00283389797e-07
3.29230905116e-05
1.26234984716e-07
3.28804024055e-05
7.71343053296e-08
3.28546171034e-05
4.51522035307e-08
3.28397898209e-05
2.4769804738e-08
3.28318631357e-05
1.21333977381e-08
3.28279934879e-05
4.58866951522e-09
3.28269946479e-05
6.67742414481e-11
3.28271752039e-05
-1.81052402312e-09
3.28280233806e-05
-2.71319761756e-09
3.28291389069e-05
-2.93339831809e-09
3.28302859149e-05
-2.7741570106e-09
3.28313416696e-05
-2.43565348815e-09
3.28322518681e-05
-2.03661938612e-09
3.28330016525e-05
-1.64341041861e-09
3.2833597086e-05
-1.28960243559e-09
3.28340530968e-05
-9.88904828423e-10
3.2834387791e-05
-7.44043218508e-10
3.28346538589e-05
-5.53342464636e-10
3.28348698947e-05
-4.1599138639e-10
3.28350168083e-05
-2.806949809e-10
3.28351157688e-05
-1.83237843658e-10
3.28351813863e-05
-1.15319768656e-10
3.28352230699e-05
-6.84239795092e-11
3.28352476859e-05
-3.51619296486e-11
3.28352591963e-05
-9.94564458759e-12
3.28352611551e-05
8.36046480754e-12
3.28352560539e-05
2.19070805968e-11
3.28352457145e-05
3.21292035914e-11
3.28352313574e-05
4.025202239e-11
3.28352137251e-05
4.725754102e-11
3.28351932645e-05
5.37887739799e-11
3.28351702558e-05
6.02717580378e-11
3.2835144891e-05
6.70193761554e-11
3.28351172604e-05
7.43681308185e-11
3.28350874266e-05
8.25227070542e-11
3.28350556964e-05
9.1243382584e-11
3.2835022598e-05
1.0027029197e-10
3.28349890475e-05
1.09099175562e-10
3.28349567006e-05
1.16772184595e-10
3.28349284844e-05
1.21559466724e-10
3.28349091695e-05
1.2068829726e-10
3.2834905538e-05
1.10680653271e-10
3.28349288514e-05
8.38147639888e-11
3.28349963562e-05
2.96092104104e-11
3.28351374107e-05
-7.13648810787e-11
3.28354032499e-05
-2.55951913056e-10
3.28358818569e-05
-5.90307756813e-10
3.2836591963e-05
-1.01935470479e-09
3.28376242764e-05
-1.67597465598e-09
3.28392347247e-05
-2.73539211511e-09
3.28418023284e-05
-4.40569814776e-09
3.28458309759e-05
-7.03270456582e-09
3.28521355645e-05
-1.11732613732e-08
3.28620303826e-05
-1.77338908873e-08
3.28776825489e-05
-2.8243360142e-08
3.29027577517e-05
-4.53627205932e-08
3.29426163855e-05
-7.3206998571e-08
3.30071049501e-05
-1.19543705134e-07
3.31132375417e-05
-1.99176158067e-07
3.32900858851e-05
-3.4146608664e-07
3.35859628941e-05
-6.06110632933e-07
3.40721445952e-05
-1.11157901749e-06
3.48150860275e-05
-2.08691388203e-06
3.56789205261e-05
-3.9805444871e-06
-7.1232235049e-06
3.5750736099e-05
5.35105663725e-05
8.90861283209e-06
5.55742219797e-05
1.58808746716e-05
5.52424821149e-05
1.62761346923e-05
5.35977854238e-05
1.40524894998e-05
5.15418470261e-05
1.11572131176e-05
4.95802791236e-05
8.45101104219e-06
4.7924349973e-05
6.2231675707e-06
4.66181379689e-05
4.49686547528e-06
4.56304650272e-05
3.20269025342e-06
4.49051159231e-05
2.25239734388e-06
4.43840885656e-05
1.56491370153e-06
4.40166922447e-05
1.0736096648e-06
4.37619655885e-05
7.26475518697e-07
4.35882668338e-05
4.84003263098e-07
4.34718673404e-05
3.16682697203e-07
4.3395357141e-05
2.02745003454e-07
4.3346186737e-05
1.26304535787e-07
4.33154489973e-05
7.588977273e-08
4.32969125024e-05
4.33061363761e-08
4.32862863081e-05
2.27594286329e-08
4.32806833382e-05
1.01914653405e-08
4.32778755285e-05
2.87439168092e-09
4.32770475777e-05
-9.82782127545e-10
4.32772653114e-05
-2.93114653012e-09
4.32779526947e-05
-3.62098729264e-09
4.32788156104e-05
-3.63725307237e-09
4.32796882976e-05
-3.30848585439e-09
4.32804856406e-05
-2.83407357078e-09
4.32811712781e-05
-2.32913758467e-09
4.32817369725e-05
-1.85538978698e-09
4.32821895466e-05
-1.4415937094e-09
4.3282541695e-05
-1.09632802512e-09
4.32828031852e-05
-8.14974340677e-10
4.3282978332e-05
-5.91258894654e-10
4.32831111785e-05
-4.1362439737e-10
4.32831964048e-05
-2.68509571504e-10
4.3283250277e-05
-1.69214138667e-10
4.32832899686e-05
-1.08129874041e-10
4.32833142707e-05
-5.94802325715e-11
4.32833261842e-05
-2.1878024673e-11
4.32833291231e-05
5.40470367147e-12
4.32833250426e-05
2.59750393349e-11
4.32833156495e-05
4.15122663258e-11
4.32833020903e-05
5.37974961505e-11
4.32832849983e-05
6.43191492964e-11
4.32832647878e-05
7.39389737626e-11
4.32832417774e-05
8.31903163204e-11
4.32832162588e-05
9.24378678138e-11
4.3283188646e-05
1.01915960289e-10
4.3283159498e-05
1.11677916843e-10
4.32831294254e-05
1.21389531619e-10
4.32830993311e-05
1.30444410348e-10
4.32830706033e-05
1.37838863711e-10
4.32830453077e-05
1.41973874441e-10
4.32830263835e-05
1.40305763121e-10
4.32830181288e-05
1.28737477543e-10
4.32830282593e-05
1.00363136119e-10
4.32830686626e-05
4.32553558796e-11
4.32831584554e-05
-6.0312186498e-11
4.32833164358e-05
-2.29455193677e-10
4.32835452098e-05
-4.84816700197e-10
4.32839802763e-05
-1.02545351861e-09
4.32847381564e-05
-1.77733810648e-09
4.32859775694e-05
-2.91554121567e-09
4.32879049527e-05
-4.66297861737e-09
4.32908694532e-05
-7.3704150194e-09
4.3295430658e-05
-1.15941052661e-08
4.33024676402e-05
-1.82104278767e-08
4.33133637367e-05
-2.86301915794e-08
4.33302795443e-05
-4.51593952884e-08
4.33565294954e-05
-7.16128889523e-08
4.33976932452e-05
-1.14370926263e-07
4.34626386376e-05
-1.84489238469e-07
4.35651190015e-05
-3.01656641877e-07
4.37251383734e-05
-5.01485605589e-07
4.39673724621e-05
-8.48344905282e-07
4.43085996948e-05
-1.45280616595e-06
4.47102318166e-05
-2.48854525567e-06
4.49313048034e-05
-4.20161656595e-06
-6.5955679447e-06
4.44036460728e-05
5.27351379039e-05
6.17347480905e-06
5.5730934163e-05
1.28850782029e-05
5.7311473831e-05
1.46955948332e-05
5.761099118e-05
1.37529719661e-05
5.71335218886e-05
1.16346822323e-05
5.63194672852e-05
9.26506547853e-06
5.54489870715e-05
7.093647625e-06
5.46629764868e-05
5.28287589726e-06
5.40136809023e-05
3.85198566122e-06
5.35061495422e-05
2.75992850857e-06
5.31242535986e-05
1.94680943671e-06
5.28449840433e-05
1.35287900874e-06
5.26454378096e-05
9.26021547121e-07
5.25057136038e-05
6.23727276102e-07
5.24097188944e-05
4.12677225398e-07
5.23450129573e-05
2.67450769023e-07
5.23022752109e-05
1.69042115005e-07
5.22746881177e-05
1.03476702733e-07
5.22573636257e-05
6.06304666276e-08
5.22468549615e-05
3.32679243436e-08
5.22407552293e-05
1.62910158278e-08
5.22374462519e-05
6.18317429108e-09
5.22359473994e-05
5.15868670352e-10
5.22354391939e-05
-2.42314061121e-09
5.22355038363e-05
-3.68581660952e-09
5.22358489584e-05
-3.98253976282e-09
5.22363028553e-05
-3.76251942904e-09
5.22367688934e-05
-3.30022182036e-09
5.22371959638e-05
-2.75630660858e-09
5.22375613277e-05
-2.2208617364e-09
5.22378582769e-05
-1.73867370684e-09
5.22380896082e-05
-1.3278044025e-09
5.22382656241e-05
-9.91126847444e-10
5.22383982561e-05
-7.23994133357e-10
5.22384984022e-05
-5.13831763185e-10
5.22385828306e-05
-3.52969139868e-10
5.22386481888e-05
-2.34592547933e-10
5.22386903438e-05
-1.50308457057e-10
5.22387229346e-05
-9.20994530092e-11
5.22387381984e-05
-3.71677630286e-11
5.22387432845e-05
3.01349190548e-13
5.22387407591e-05
2.84902226408e-11
5.22387325643e-05
4.96962220362e-11
5.22387200231e-05
6.63173358329e-11
5.22387039946e-05
8.03065932094e-11
5.22386850464e-05
9.28194030251e-11
5.22386637011e-05
1.0444801939e-10
5.22386408251e-05
1.15231903905e-10
5.22386165505e-05
1.26151618069e-10
5.22385897769e-05
1.38474887419e-10
5.2238561987e-05
1.4924270606e-10
5.22385341891e-05
1.58285896203e-10
5.22385078423e-05
1.6415348271e-10
5.22384853092e-05
1.64384778355e-10
5.22384710368e-05
1.54399188989e-10
5.22384771668e-05
1.2241878357e-10
5.2238504797e-05
7.25681604483e-11
5.2238574621e-05
-2.67038257954e-11
5.22386903225e-05
-1.76134532248e-10
5.22388750793e-05
-4.14314420035e-10
5.22392072561e-05
-8.17088515934e-10
5.2239713115e-05
-1.53141697379e-09
5.22404723502e-05
-2.53671430083e-09
5.22416165079e-05
-4.05989059198e-09
5.22433484128e-05
-6.39511159122e-09
5.22459692525e-05
-9.99147334285e-09
5.2249930744e-05
-1.55557829364e-08
5.22559239338e-05
-2.42037918721e-08
5.22650080961e-05
-3.77145428347e-08
5.227880229e-05
-5.89537892581e-08
5.22997682166e-05
-9.25790034842e-08
5.23316280485e-05
-1.46230921627e-07
5.237973734e-05
-2.32598671509e-07
5.24510432619e-05
-3.72962699777e-07
5.25524424574e-05
-6.0288499526e-07
5.26845253244e-05
-9.80428072518e-07
5.28251108235e-05
-1.59339198301e-06
5.28927054911e-05
-2.55613971362e-06
5.2674645479e-05
-3.98355534828e-06
-5.78642089106e-06
5.18654969163e-05
5.19834863692e-05
4.18998832042e-06
5.50586636865e-05
9.80990067406e-06
5.76386127466e-05
1.21156455776e-05
5.93259025237e-05
1.20656819995e-05
6.02280143975e-05
1.07325701779e-05
6.05929254266e-05
8.90015427842e-06
6.06482821952e-05
7.03829069235e-06
6.0553187579e-05
5.37797034624e-06
6.04029528338e-05
4.00222022778e-06
6.02479121431e-05
2.9149690071e-06
6.01107864206e-05
2.08393495853e-06
5.99990267028e-05
1.46463852457e-06
5.99125113377e-05
1.01253671578e-06
5.98479192634e-05
6.88319164031e-07
5.98010155173e-05
4.59580792254e-07
5.9767730688e-05
3.00735427897e-07
5.97445891513e-05
1.92183488705e-07
5.97288104172e-05
1.19255273993e-07
5.9718262072e-05
7.11786437622e-08
5.97113556768e-05
4.01741406207e-08
5.97069361202e-05
2.07103838579e-08
5.97042020144e-05
8.91708804063e-09
5.97025927705e-05
2.12492367036e-09
5.97016880247e-05
-1.51857587469e-09
5.97012295165e-05
-3.22747719295e-09
5.97010397888e-05
-3.79296323989e-09
5.97010033144e-05
-3.72617369075e-09
5.97010474314e-05
-3.34445174529e-09
5.97011284086e-05
-2.83739364672e-09
5.97012205621e-05
-2.31314044254e-09
5.97013100095e-05
-1.82826621213e-09
5.97013901484e-05
-1.40809169359e-09
5.97014595763e-05
-1.06067781467e-09
5.9701518909e-05
-7.83406744368e-10
5.97015689482e-05
-5.63911367361e-10
5.97016085681e-05
-3.92610442854e-10
5.97016361792e-05
-2.62227274986e-10
5.97016512875e-05
-1.65450385464e-10
5.97016494557e-05
-9.03043886342e-11
5.97016412841e-05
-2.9024448054e-11
5.97016345504e-05
7.01797082009e-12
5.97016251175e-05
3.79095055317e-11
5.9701614611e-05
6.01819514414e-11
5.9701602837e-05
7.805645624e-11
5.97015887478e-05
9.43443286294e-11
5.97015721648e-05
1.09335213633e-10
5.97015530934e-05
1.23445303253e-10
5.97015313622e-05
1.36904745134e-10
5.97015077958e-05
1.49699716219e-10
5.97014847316e-05
1.61565917633e-10
5.9701462258e-05
1.7175716944e-10
5.97014415848e-05
1.78964190317e-10
5.97014243927e-05
1.81279078302e-10
5.97014124876e-05
1.76152375918e-10
5.9701406126e-05
1.60583314455e-10
5.97013963136e-05
1.32058396763e-10
5.97013969957e-05
7.17407202136e-11
5.97014075183e-05
-3.73444003861e-11
5.97014775553e-05
-2.46279372706e-10
5.97016572214e-05
-5.94090683601e-10
5.9701949067e-05
-1.1090454065e-09
5.97023254761e-05
-1.90797011499e-09
5.97028898557e-05
-3.10127551741e-09
5.97037249813e-05
-4.89523462482e-09
5.97049441671e-05
-7.61452375355e-09
5.97067117114e-05
-1.17592137523e-08
5.97092649365e-05
-1.81091723502e-08
5.9712946764e-05
-2.78857820086e-08
5.97182457616e-05
-4.30137153353e-08
5.97258419419e-05
-6.65501413683e-08
5.97366370982e-05
-1.03374324846e-07
5.97516929969e-05
-1.61286982756e-07
5.97718477911e-05
-2.52753622927e-07
5.97965117622e-05
-3.97626830935e-07
5.98205289782e-05
-6.26902398807e-07
5.9827015848e-05
-9.86915122489e-07
5.97738912674e-05
-1.54026767442e-06
5.95731081852e-05
-2.35535679244e-06
5.90665258951e-05
-3.47697221357e-06
-4.81314066005e-06
5.80932450292e-05
5.14373052707e-05
2.75268292917e-06
5.42658202856e-05
6.98138544682e-06
5.72496427636e-05
9.1318229014e-06
5.97900269299e-05
9.52529764292e-06
6.1720127236e-05
8.80246969079e-06
6.30883020003e-05
7.53197934134e-06
6.40167153811e-05
6.10987714414e-06
6.46292349984e-05
4.76545055835e-06
6.50258017703e-05
3.60565327682e-06
6.5279076153e-05
2.6616944363e-06
6.54389710057e-05
1.92403991248e-06
6.55386876424e-05
1.36492169375e-06
6.5599925996e-05
9.51298171932e-07
6.56367406408e-05
6.51504334491e-07
6.56581915836e-05
4.3812967164e-07
6.56700996619e-05
2.88827179182e-07
6.56761887653e-05
1.86094219071e-07
6.56788249412e-05
1.16618927385e-07
6.5679495249e-05
7.05081546125e-08
6.56791189139e-05
4.05502846677e-08
6.56782513932e-05
2.15777116518e-08
6.56772203585e-05
9.947936942e-09
6.56762109958e-05
3.13411171907e-09
6.56753016046e-05
-6.09348644576e-10
6.56745328041e-05
-2.45883012731e-09
6.56739043477e-05
-3.16464695193e-09
6.56734053638e-05
-3.22731534271e-09
6.56730183827e-05
-2.95758918076e-09
6.56727244054e-05
-2.54354220818e-09
6.56725052575e-05
-2.09413594675e-09
6.56723448285e-05
-1.66799348216e-09
6.56722294653e-05
-1.29287187882e-09
6.5672147053e-05
-9.78369625124e-10
6.5672086979e-05
-7.23389343755e-10
6.56720434551e-05
-5.20411054395e-10
6.56720122261e-05
-3.6139838985e-10
6.56719871442e-05
-2.37175170718e-10
6.56719655413e-05
-1.4388942919e-10
6.56719505822e-05
-7.53859996579e-11
6.56719488418e-05
-2.73131638886e-11
6.56719472717e-05
8.5673667439e-12
6.56719398268e-05
4.53302591929e-11
6.56719295597e-05
7.04128579055e-11
6.56719168668e-05
9.07018456036e-11
6.56719025853e-05
1.08572000166e-10
6.56718867155e-05
1.25148444107e-10
6.56718690957e-05
1.41010245911e-10
6.56718496627e-05
1.56300030966e-10
6.56718291054e-05
1.7024962936e-10
6.56718092601e-05
1.81429341336e-10
6.56717889457e-05
1.92087008992e-10
6.56717686957e-05
1.99188988569e-10
6.56717495705e-05
2.00315726421e-10
6.56717333485e-05
1.92226752129e-10
6.56717234679e-05
1.7029199468e-10
6.56717270963e-05
1.28274352559e-10
6.56717359091e-05
6.28089322977e-11
6.56717565479e-05
-5.80857035875e-11
6.56718230413e-05
-3.12883926575e-10
6.56719143068e-05
-6.85482435469e-10
6.56720563256e-05
-1.25121112066e-09
6.5672255328e-05
-2.10714828859e-09
6.56725271771e-05
-3.37332826403e-09
6.56728879707e-05
-5.25624738159e-09
6.56733479128e-05
-8.0746661216e-09
6.56739036106e-05
-1.23150767354e-08
6.56745239158e-05
-1.87296272684e-08
6.5675121251e-05
-2.84832763554e-08
6.56754919539e-05
-4.33845836205e-08
6.56752054997e-05
-6.62638387079e-08
6.56733903686e-05
-1.01559342255e-07
6.56683042515e-05
-1.56201024354e-07
6.56564022002e-05
-2.40851752441e-07
6.56305397892e-05
-3.71764629615e-07
6.55765382691e-05
-5.7290107955e-07
6.54671129289e-05
-8.77489920942e-07
6.52529964321e-05
-1.3261513317e-06
6.48539499523e-05
-1.9563105529e-06
6.41571495426e-05
-2.78017132211e-06
-3.72777898462e-06
6.30717876498e-05
5.10850422612e-05
1.66764054671e-06
5.36118442724e-05
4.45458322401e-06
5.66873160129e-05
6.05635096318e-06
5.96894458493e-05
6.52316761889e-06
6.22997262889e-05
6.19218907168e-06
6.44136876886e-05
5.41801776821e-06
6.60471836746e-05
4.47638098725e-06
6.72686150698e-05
3.54401898862e-06
6.81598939632e-05
2.71437420279e-06
6.87977604324e-05
2.02382778137e-06
6.92467446984e-05
1.47505545765e-06
6.95579634441e-05
1.05370275834e-06
6.97704300593e-05
7.3883136966e-07
6.99131730961e-05
5.08761114511e-07
7.00073842218e-05
3.43918367652e-07
7.00682938482e-05
2.27917377792e-07
7.0106695976e-05
1.47691915044e-07
7.01301383948e-05
9.31763238841e-08
7.01438276377e-05
5.68187161475e-08
7.01513038554e-05
3.30738663749e-08
7.01549364503e-05
1.79449226346e-08
7.01562843519e-05
8.59985698511e-09
7.01563563609e-05
3.06194056553e-09
7.01557644383e-05
-1.75762266494e-11
7.0154903676e-05
-1.59821006413e-09
7.01539801762e-05
-2.24128104131e-09
7.01531116504e-05
-2.35891645785e-09
7.01523517512e-05
-2.19781840816e-09
7.01517176746e-05
-1.90960849643e-09
7.01512065621e-05
-1.58318257567e-09
7.01508054935e-05
-1.26708524937e-09
7.01504975389e-05
-9.85050219831e-10
7.01502650783e-05
-7.45992805275e-10
7.0150091944e-05
-5.50291064854e-10
7.01499651211e-05
-3.93599923714e-10
7.01498739373e-05
-2.7023132131e-10
7.01498112866e-05
-1.74559720654e-10
7.01497697222e-05
-1.0237152334e-10
7.0149741152e-05
-4.68579071052e-11
7.01497110853e-05
2.72235959255e-12
7.01496877103e-05
3.19139888732e-11
7.0149674716e-05
5.82869150737e-11
7.01496641564e-05
8.09236138545e-11
7.01496541643e-05
1.00642466784e-10
7.01496439904e-05
1.18699611997e-10
7.01496332496e-05
1.35847056244e-10
7.01496218023e-05
1.52419798243e-10
7.01496096849e-05
1.68389989421e-10
7.01495965268e-05
1.83398989525e-10
7.01495811162e-05
1.96845669199e-10
7.01495653796e-05
2.07819880547e-10
7.01495499991e-05
2.14524255543e-10
7.01495357056e-05
2.14502905383e-10
7.01495231749e-05
2.04600402432e-10
7.01495122766e-05
1.81031153906e-10
7.01495008044e-05
1.3962326968e-10
7.01494861341e-05
7.73787714471e-11
7.01494805477e-05
-5.25946856572e-11
7.0149482155e-05
-3.14606881037e-10
7.01494982239e-05
-7.01702717264e-10
7.01495141915e-05
-1.2673602356e-09
7.01495071178e-05
-2.10027103571e-09
7.01494493975e-05
-3.31581287589e-09
7.01492871057e-05
-5.0941502858e-09
7.01489203473e-05
-7.70807525497e-09
7.01481724761e-05
-1.15673533188e-08
7.01467407964e-05
-1.72980982082e-08
7.01441105733e-05
-2.58532115083e-08
7.01394027924e-05
-3.86769558421e-08
7.0131130761e-05
-5.79919461528e-08
7.01168014273e-05
-8.72301515054e-08
7.00922419827e-05
-1.31641742948e-07
7.00503405505e-05
-1.98950510347e-07
6.99790907281e-05
-3.00515059595e-07
6.98584730181e-05
-4.52283615007e-07
6.96559532648e-05
-6.74970313242e-07
6.93214679028e-05
-9.91666032234e-07
6.87852188621e-05
-1.42006168441e-06
6.79642217615e-05
-1.95917396968e-06
-2.56335826382e-06
6.67998009974e-05
5.08804130953e-05
7.87227330792e-07
5.31704658999e-05
2.16453020959e-06
5.62177492803e-05
3.00906738846e-06
5.94382691114e-05
3.30264760453e-06
6.24449687555e-05
3.18548925086e-06
6.50382520001e-05
2.82473434973e-06
6.71548653929e-05
2.35976741951e-06
6.88135637048e-05
1.8853204972e-06
7.00731695191e-05
1.45476820528e-06
7.10056662941e-05
1.09133082266e-06
7.16812623985e-05
7.99459169778e-07
7.21614215698e-05
5.73543403541e-07
7.24966023168e-05
4.03650438461e-07
7.27264786972e-05
2.78884549877e-07
7.28812774314e-05
1.89119450939e-07
7.29834670312e-05
1.2572759555e-07
7.30494106637e-05
8.17480955797e-08
7.30908126204e-05
5.17741703275e-08
7.31159064109e-05
3.17247193625e-08
7.31303907766e-05
1.85892943331e-08
7.31381453537e-05
1.01901525922e-08
7.31417656649e-05
4.97937399716e-09
7.31429532573e-05
1.87419554047e-09
7.31428067618e-05
1.28778046255e-10
7.3141983428e-05
-7.7501166152e-10
7.31409004215e-05
-1.1584063477e-09
7.3139785455e-05
-1.24408092403e-09
7.31387579269e-05
-1.17043010639e-09
7.31378702858e-05
-1.02212409588e-09
7.31371364457e-05
-8.49511525904e-10
7.3136549039e-05
-6.79837571144e-10
7.31360907029e-05
-5.26833793801e-10
7.31357405822e-05
-3.9593697063e-10
7.31354780389e-05
-2.87768789915e-10
7.31352847056e-05
-2.00273877459e-10
7.3135144931e-05
-1.30476449057e-10
7.31350454512e-05
-7.51205034134e-11
7.31349737177e-05
-3.06877296487e-11
7.31349205762e-05
6.23985145897e-12
7.31348907619e-05
3.25001328369e-11
7.31348675358e-05
5.51004079682e-11
7.31348506411e-05
7.51315356136e-11
7.31348381699e-05
9.33410561667e-11
7.31348283273e-05
1.10440479749e-10
7.31348198425e-05
1.27151029901e-10
7.31348118219e-05
1.43838547595e-10
7.31348036414e-05
1.60569403003e-10
7.31347948714e-05
1.77133252619e-10
7.31347852568e-05
1.93001522571e-10
7.31347747389e-05
2.07363291133e-10
7.31347633323e-05
2.19213371518e-10
7.31347510476e-05
2.26748451962e-10
7.31347379446e-05
2.27476526284e-10
7.31347241911e-05
2.18190650079e-10
7.31347101662e-05
1.94911261678e-10
7.31346965032e-05
1.53185686717e-10
7.31346837512e-05
9.00555171073e-11
7.31346572426e-05
-2.61716517498e-11
7.31346128413e-05
-2.70325335883e-10
7.31345425522e-05
-6.31592226986e-10
7.31344231954e-05
-1.14821051857e-09
7.31342112314e-05
-1.88850854653e-09
7.31338379297e-05
-2.94270007222e-09
7.31331875934e-05
-4.44397883208e-09
7.31320661467e-05
-6.58677539141e-09
7.31301497693e-05
-9.65112436522e-09
7.31269109094e-05
-1.40593980641e-08
7.31214899152e-05
-2.04323762421e-08
7.31124671119e-05
-2.96542986875e-08
7.30975309654e-05
-4.30559456839e-08
7.30729692278e-05
-6.26685599587e-08
7.30328571054e-05
-9.15297927807e-08
7.29676480591e-05
-1.33741674638e-07
7.28622754136e-05
-1.95142660984e-07
7.26934928664e-05
-2.83501324249e-07
7.24266711741e-05
-4.0814878032e-07
7.20132442671e-05
-5.78239152249e-07
7.13916978918e-05
-7.98515398905e-07
7.04960103746e-05
-1.0634863212e-06
-1.34825127349e-06
6.92809034032e-05
5.07871725031e-05
5.47077242506e-11
5.29516495799e-05
5.29263945283e-11
5.59606880205e-05
2.87580954009e-11
5.92633213036e-05
1.41427254412e-11
6.24488076668e-05
2.71345183929e-12
6.52735479863e-05
-6.14485092239e-12
6.76333272654e-05
-1.20392488868e-11
6.95186625657e-05
-1.49877921767e-11
7.0973446016e-05
-1.54301617719e-11
7.20647906148e-05
-1.39579967264e-11
7.28642608037e-05
-1.11986395171e-11
7.34378118316e-05
-7.8046227437e-12
7.38414665227e-05
-4.43647173129e-12
7.41203526259e-05
-1.74003336118e-12
7.43094721897e-05
-2.99729651558e-13
7.44352001197e-05
-5.22237613628e-13
7.45169506781e-05
-2.65670067132e-12
7.45687311089e-05
-6.4655685881e-12
7.46004669298e-05
-1.13151323569e-11
7.46190722394e-05
-1.62248577405e-11
7.46292822625e-05
-2.00619910206e-11
7.46342831951e-05
-2.17258568396e-11
7.463617799e-05
-2.07460842959e-11
7.46363250303e-05
-1.83978879701e-11
7.46355657415e-05
-1.58540173607e-11
7.46344198873e-05
-1.26813051236e-11
7.46331847282e-05
-9.05611136168e-12
7.46320192043e-05
-5.05375906719e-12
7.46309971141e-05
-1.99459035185e-13
7.46301435575e-05
3.87173855379e-12
7.46294550301e-05
8.53575219863e-12
7.462891457e-05
1.3520101831e-11
7.46284997854e-05
1.87977670281e-11
7.46281875714e-05
2.44334409369e-11
7.46279566902e-05
3.06010742032e-11
7.46277887747e-05
3.74138301121e-11
7.46276686591e-05
4.49487451535e-11
7.46275847265e-05
5.31920554018e-11
7.46275287552e-05
6.21632726302e-11
7.46274896695e-05
7.15414276924e-11
7.46274634532e-05
8.12669181702e-11
7.4627446263e-05
9.22671572911e-11
7.46274351107e-05
1.04445549765e-10
7.4627427772e-05
1.17746915822e-10
7.46274227069e-05
1.32192677952e-10
7.46274188376e-05
1.4768108741e-10
7.46274154109e-05
1.63965082892e-10
7.46274118912e-05
1.80629342474e-10
7.46274078504e-05
1.97037321912e-10
7.4627402922e-05
2.12296059792e-10
7.46273968868e-05
2.25228054286e-10
7.46273894819e-05
2.34065630588e-10
7.46273803356e-05
2.36467589147e-10
7.46273688446e-05
2.29506000218e-10
7.462735394e-05
2.09682265273e-10
7.46273339131e-05
1.73136517373e-10
7.46273075851e-05
1.16337822839e-10
7.46272636493e-05
1.7696904187e-11
7.46271731365e-05
-1.79945289357e-10
7.46270357225e-05
-4.94374005572e-10
7.46268106767e-05
-9.23375283308e-10
7.46264371353e-05
-1.51516504971e-09
7.46258182262e-05
-2.32395803529e-09
7.46247964585e-05
-3.42235657738e-09
7.46231157376e-05
-4.90619653948e-09
7.4620356973e-05
-6.89251325183e-09
7.46158556244e-05
-9.55822232709e-09
7.46085477394e-05
-1.31246659516e-08
7.45966873949e-05
-1.77941145555e-08
7.45774665769e-05
-2.38352625213e-08
7.45464760998e-05
-3.16782407007e-08
7.44969418261e-05
-4.19956885807e-08
7.44180940183e-05
-5.48940703392e-08
7.42934834053e-05
-7.05322896307e-08
7.40986460162e-05
-8.86641826247e-08
7.37986282036e-05
-1.08131151162e-07
7.33465544019e-05
-1.26165394502e-07
7.26856266242e-05
-1.37587660463e-07
7.17573430275e-05
-1.35202641972e-07
-1.1049089276e-07
7.05195826937e-05
5.07871714674e-05
-7.87116878706e-07
5.29516487262e-05