/*--------------------------------*- C++ -*----------------------------------*\
| =========                 |                                                 |
| \\      /  F ield         | OpenFOAM: The Open Source CFD Toolbox           |
|  \\    /   O peration     | Version:  2106                                  |
|   \\  /    A nd           | Website:  www.openfoam.com                      |
|    \\/     M anipulation  |                                                 |
\*---------------------------------------------------------------------------*/
FoamFile
{
    version     2.0;
    format      ascii;
    arch        "LSB;label=32;scalar=64";
    class       volVectorField;
    location    "0.07";
    object      U;
}
// * * * * * * * * * * * * * * * * * * * * * * * * * * * * * * * * * * * * * //

dimensions      [0 1 -1 0 0 0 0];

internalField   nonuniform List<vector> 
9600
(
(0.675396130859 0.157677490758 0)
(0.563825799784 0.102430961869 0)
(0.381538059071 0.0510649125433 0)
(0.283851841903 0.024459231124 0)
(0.232279477897 0.0119350330706 0)
(0.201906609545 0.00623044083985 0)
(0.183178953044 0.00352174066857 0)
(0.171276037078 0.0021194466912 0)
(0.163522385773 0.00132397785267 0)
(0.158412193165 0.00083939631175 0)
(0.15504348397 0.000531141428208 0)
(0.152840219305 0.000331045291787 0)
(0.151420609771 0.000200543127892 0)
(0.150526739767 0.000115933511581 0)
(0.149982763223 6.18774560427e-05 0)
(0.149668523223 2.81622351348e-05 0)
(0.149502163195 7.89604609683e-06 0)
(0.149428306856 -3.59816082251e-06 0)
(0.149409857519 -9.46684612737e-06 0)
(0.149422493839 -1.16848573729e-05 0)
(0.149450555329 -1.18903914856e-05 0)
(0.149484237396 -1.09613003651e-05 0)
(0.149517806504 -9.47480750156e-06 0)
(0.149548167243 -7.80985007655e-06 0)
(0.149573931991 -6.19371811117e-06 0)
(0.149594772711 -4.74907013656e-06 0)
(0.149610972822 -3.53012614044e-06 0)
(0.149623126786 -2.54767956626e-06 0)
(0.149631945327 -1.7866631787e-06 0)
(0.149638135791 -1.21840655761e-06 0)
(0.149642335501 -8.08935307855e-07 0)
(0.149645081268 -5.24284941e-07 0)
(0.149646802183 -3.335019691e-07 0)
(0.149647826374 -2.10079971269e-07 0)
(0.149648394918 -1.32341196381e-07 0)
(0.149648678593 -8.3471146208e-08 0)
(0.149648794823 -5.24165103221e-08 0)
(0.14964882002 -3.60925347669e-08 0)
(0.149648798192 -3.49607567841e-08 0)
(0.14964875561 -4.23019819977e-08 0)
(0.149648709968 -4.84384306587e-08 0)
(0.149648669494 -5.40201360553e-08 0)
(0.149648636209 -5.99221413392e-08 0)
(0.149648610135 -6.57975865751e-08 0)
(0.149648590575 -7.15565718818e-08 0)
(0.149648576441 -7.73873167426e-08 0)
(0.149648566405 -8.38071502144e-08 0)
(0.149648559334 -9.15136949722e-08 0)
(0.149648554416 -1.00104686912e-07 0)
(0.149648551035 -1.09238165807e-07 0)
(0.149648548706 -1.18576753813e-07 0)
(0.149648547085 -1.28314030485e-07 0)
(0.149648545778 -1.38542610356e-07 0)
(0.149648544474 -1.49336024448e-07 0)
(0.149648543109 -1.60901829714e-07 0)
(0.149648541576 -1.73232273676e-07 0)
(0.149648539781 -1.86443225925e-07 0)
(0.149648537707 -2.00604099934e-07 0)
(0.149648535437 -2.15746403527e-07 0)
(0.149648533046 -2.31912081042e-07 0)
(0.149648530541 -2.49140392379e-07 0)
(0.149648527914 -2.67464637351e-07 0)
(0.149648525147 -2.86937607395e-07 0)
(0.149648522221 -3.07638521722e-07 0)
(0.149648519135 -3.29641825432e-07 0)
(0.149648515906 -3.53011070252e-07 0)
(0.149648512527 -3.77808833508e-07 0)
(0.149648508943 -4.0410037598e-07 0)
(0.1496485051 -4.31956449546e-07 0)
(0.149648500928 -4.61422869842e-07 0)
(0.149648496382 -4.92551589843e-07 0)
(0.149648491469 -5.25383704784e-07 0)
(0.149648486198 -5.59980986862e-07 0)
(0.149648480566 -5.96449204048e-07 0)
(0.149648474585 -6.34873136003e-07 0)
(0.149648468289 -6.75327852779e-07 0)
(0.149648461711 -7.17882909795e-07 0)
(0.149648454898 -7.62603489494e-07 0)
(0.149648447891 -8.09561586639e-07 0)
(0.149648440681 -8.58838321208e-07 0)
(0.149648433211 -9.10514006422e-07 0)
(0.14964842542 -9.64661537244e-07 0)
(0.149648417318 -1.02134722359e-06 0)
(0.149648409038 -1.08062731745e-06 0)
(0.149648400802 -1.14253954152e-06 0)
(0.149648392803 -1.20710910387e-06 0)
(0.149648385088 -1.2743785934e-06 0)
(0.149648377542 -1.34443270127e-06 0)
(0.149648369999 -1.41738084291e-06 0)
(0.149648362406 -1.49330356153e-06 0)
(0.149648354908 -1.57221145031e-06 0)
(0.149648347804 -1.65405407975e-06 0)
(0.149648341418 -1.73876860892e-06 0)
(0.149648335999 -1.82633285877e-06 0)
(0.149648331718 -1.91678482955e-06 0)
(0.14964832877 -2.01018834017e-06 0)
(0.149648327485 -2.1065417968e-06 0)
(0.149648328376 -2.20561295751e-06 0)
(0.149648332186 -2.30682519873e-06 0)
(0.149648340226 -2.4096750266e-06 0)
(0.14964835364 -2.51412939917e-06 0)
(0.149648373263 -2.62056641461e-06 0)
(0.149648400237 -2.72914369106e-06 0)
(0.149648436173 -2.83991803818e-06 0)
(0.149648483519 -2.9527916435e-06 0)
(0.149648545313 -3.06776015223e-06 0)
(0.149648624944 -3.18504763603e-06 0)
(0.149648726377 -3.3053240257e-06 0)
(0.149648854358 -3.43048962843e-06 0)
(0.149649014251 -3.56564882116e-06 0)
(0.149649215011 -3.71880081279e-06 0)
(0.149649467202 -3.88415106915e-06 0)
(0.149649781953 -4.05922360357e-06 0)
(0.149650174052 -4.24387856144e-06 0)
(0.149650662072 -4.43884367325e-06 0)
(0.14965126879 -4.64521793623e-06 0)
(0.149652022282 -4.86428821888e-06 0)
(0.149652957405 -5.09746363695e-06 0)
(0.149654117439 -5.34641005578e-06 0)
(0.149655555874 -5.61325994702e-06 0)
(0.149657338714 -5.90090961394e-06 0)
(0.149659548536 -6.2142747775e-06 0)
(0.149662295516 -6.56639600212e-06 0)
(0.149665735247 -7.0032204129e-06 0)
(0.149670008931 -7.63460575597e-06 0)
(0.149675271494 -8.44710119103e-06 0)
(0.149681770905 -9.39304130999e-06 0)
(0.149689823428 -1.04604996683e-05 0)
(0.149699807239 -1.16582196454e-05 0)
(0.14971218551 -1.30040061909e-05 0)
(0.149727531283 -1.45218950153e-05 0)
(0.1497465557 -1.6242118974e-05 0)
(0.149770142026 -1.82023942216e-05 0)
(0.14979938735 -2.04501085908e-05 0)
(0.149835654854 -2.30448391373e-05 0)
(0.149880639347 -2.60616172243e-05 0)
(0.149936448719 -2.95954921116e-05 0)
(0.150005706432 -3.3766974467e-05 0)
(0.150091681943 -3.87283911729e-05 0)
(0.150198455347 -4.46726071194e-05 0)
(0.150331124933 -5.18450416864e-05 0)
(0.150496073186 -6.05586643905e-05 0)
(0.150701311373 -7.12131440054e-05 0)
(0.150956926059 -8.43212082021e-05 0)
(0.151275662383 -0.000100544195176 0)
(0.151673698119 -0.000120739215829 0)
(0.152171683632 -0.000146024790349 0)
(0.15279615683 -0.000177873154365 0)
(0.153581504998 -0.000218235882721 0)
(0.154572746103 -0.000269716021402 0)
(0.155829586205 -0.000335822586396 0)
(0.157432616137 -0.000421433669268 0)
(0.159493598266 -0.000534026980445 0)
(0.162175621909 -0.000688179986905 0)
(0.165740575526 -0.000923389891906 0)
(0.170667672689 -0.00137150979665 0)
(0.178011100149 -0.00250741710138 0)
(0.190898580361 -0.00613361674361 0)
(0.219238942969 -0.019308225193 0)
(0.283100702255 -0.0694060134809 0)
(0.977201081796 0.29699738484 0)
(0.96268691693 0.250387824916 0)
(0.820644888783 0.158581611199 0)
(0.697823618848 0.0957996489548 0)
(0.61049143571 0.0579127878558 0)
(0.549136318078 0.0359018690364 0)
(0.506715736016 0.0229265480069 0)
(0.477683591532 0.0149710364663 0)
(0.457855421562 0.00989736725461 0)
(0.444344625907 0.00656548222573 0)
(0.435190488025 0.00433803818577 0)
(0.429045255674 0.00283651046549 0)
(0.424974222239 0.0018232883445 0)
(0.422326061325 0.00114279148724 0)
(0.420646036244 0.000690212570039 0)
(0.419617034576 0.000393723874341 0)
(0.419018835677 0.000203654235799 0)
(0.418699568206 8.55303892755e-05 0)
(0.418555557839 1.54511148593e-05 0)
(0.418516842706 -2.29884444444e-05 0)
(0.4185371655 -4.12987426654e-05 0)
(0.41858681788 -4.72360560974e-05 0)
(0.418647250428 -4.59673655501e-05 0)
(0.418707565599 -4.0926775499e-05 0)
(0.418761953862 -3.43161036528e-05 0)
(0.418807869691 -2.74765795652e-05 0)
(0.418844766446 -2.116352082e-05 0)
(0.418873232682 -1.57423462782e-05 0)
(0.418894416047 -1.13289927763e-05 0)
(0.418909654957 -7.88988444005e-06 0)
(0.418920258122 -5.31144821836e-06 0)
(0.418927386784 -3.44672441596e-06 0)
(0.418932005171 -2.1447391314e-06 0)
(0.418934873669 -1.26737597012e-06 0)
(0.418936566145 -6.97612151832e-07 0)
(0.418937498234 -3.42306751891e-07 0)
(0.418937958009 -1.32050957013e-07 0)
(0.418938136476 -1.8825962226e-08 0)
(0.418938160235 3.33314019399e-08 0)
(0.418938115164 5.10665390649e-08 0)
(0.418938046418 5.21327855679e-08 0)
(0.418937972695 4.47070511146e-08 0)
(0.418937905639 3.33491481029e-08 0)
(0.418937849995 2.11718811078e-08 0)
(0.41893780609 9.87081268358e-09 0)
(0.418937772298 1.96943775476e-10 0)
(0.418937746115 -7.42432877657e-09 0)
(0.418937726226 -1.23593582605e-08 0)
(0.418937711735 -1.53529956944e-08 0)
(0.418937701187 -1.78856376416e-08 0)
(0.418937693036 -2.04450626426e-08 0)
(0.418937686077 -2.30144152339e-08 0)
(0.418937679672 -2.57420892639e-08 0)
(0.418937673199 -2.83989979935e-08 0)
(0.418937666544 -3.09944735421e-08 0)
(0.418937659562 -3.35298059026e-08 0)
(0.418937652004 -3.60679007684e-08 0)
(0.418937643862 -3.86507511024e-08 0)
(0.418937635191 -4.12597311849e-08 0)
(0.418937626022 -4.39178367309e-08 0)
(0.418937616378 -4.66395868121e-08 0)
(0.418937606265 -4.94600988576e-08 0)
(0.418937595652 -5.24293139287e-08 0)
(0.418937584504 -5.55897723159e-08 0)
(0.418937572783 -5.89668002527e-08 0)
(0.418937560444 -6.2541062476e-08 0)
(0.418937547452 -6.62855506332e-08 0)
(0.418937533769 -7.02197766958e-08 0)
(0.418937519398 -7.42995997682e-08 0)
(0.418937504317 -7.85855466226e-08 0)
(0.41893748851 -8.31039637574e-08 0)
(0.418937472013 -8.78590045105e-08 0)
(0.418937454803 -9.28587662035e-08 0)
(0.418937436834 -9.81336598863e-08 0)
(0.418937418067 -1.03694839723e-07 0)
(0.418937398468 -1.09547038765e-07 0)
(0.418937378076 -1.15670642187e-07 0)
(0.418937357027 -1.2204475741e-07 0)
(0.418937335466 -1.28682557415e-07 0)
(0.418937313436 -1.35634651751e-07 0)
(0.418937290871 -1.4295653389e-07 0)
(0.418937267667 -1.50682997035e-07 0)
(0.418937243807 -1.58820362194e-07 0)
(0.418937219444 -1.67338256483e-07 0)
(0.418937194885 -1.76174384753e-07 0)
(0.418937170459 -1.8528261778e-07 0)
(0.418937146364 -1.947050043e-07 0)
(0.418937122609 -2.04595036816e-07 0)
(0.418937099126 -2.151478251e-07 0)
(0.418937075976 -2.26489234844e-07 0)
(0.418937053489 -2.38628676816e-07 0)
(0.418937032235 -2.51519863672e-07 0)
(0.418937012863 -2.65165381755e-07 0)
(0.418936995969 -2.79678272677e-07 0)
(0.418936982111 -2.95284058393e-07 0)
(0.418936971973 -3.12297061874e-07 0)
(0.4189369666 -3.31062261719e-07 0)
(0.418936967584 -3.51900575444e-07 0)
(0.418936976812 -3.75414894928e-07 0)
(0.418936996688 -4.03341546395e-07 0)
(0.418937029469 -4.35412133101e-07 0)
(0.418937077694 -4.71560857739e-07 0)
(0.418937144841 -5.12406427258e-07 0)
(0.418937235339 -5.58460984264e-07 0)
(0.41893735509 -6.10103196617e-07 0)
(0.41893751121 -6.67918966417e-07 0)
(0.418937711928 -7.32714673898e-07 0)
(0.418937966455 -8.05186759392e-07 0)
(0.41893828386 -8.85111335228e-07 0)
(0.418938673876 -9.68633209547e-07 0)
(0.418939167754 -1.04678592735e-06 0)
(0.418939800111 -1.13164326595e-06 0)
(0.418940596343 -1.23028181238e-06 0)
(0.4189415921 -1.3474617364e-06 0)
(0.418942834138 -1.4886926755e-06 0)
(0.418944380977 -1.66084910262e-06 0)
(0.418946305279 -1.87236971994e-06 0)
(0.418948697089 -2.13362124033e-06 0)
(0.41895166788 -2.45755053743e-06 0)
(0.418955355521 -2.86042096769e-06 0)
(0.418959930185 -3.36257991467e-06 0)
(0.418965600676 -3.98993976868e-06 0)
(0.418972618035 -4.7791129318e-06 0)
(0.418981281607 -5.79718149724e-06 0)
(0.418992017641 -7.17178267641e-06 0)
(0.41900538618 -8.95859019116e-06 0)
(0.4190220175 -1.12024146046e-05 0)
(0.419042672594 -1.39890975353e-05 0)
(0.419068307316 -1.74404498041e-05 0)
(0.419100113311 -2.17123267856e-05 0)
(0.419139570271 -2.69988475967e-05 0)
(0.419188515298 -3.35400880654e-05 0)
(0.419249229757 -4.16333389877e-05 0)
(0.419324547419 -5.16474820241e-05 0)
(0.41941798959 -6.40406565374e-05 0)
(0.419533933636 -7.93831107265e-05 0)
(0.419677824351 -9.83865153434e-05 0)
(0.419856440915 -0.000121940342068 0)
(0.420078233449 -0.000151158440118 0)
(0.42035374702 -0.000187440895013 0)
(0.420696160415 -0.00023255467342 0)
(0.421121977004 -0.000288737620847 0)
(0.421651914632 -0.000358837068432 0)
(0.422312059936 -0.000446498803019 0)
(0.423135383052 -0.000556424593046 0)
(0.424163749151 -0.000694729278111 0)
(0.425450628121 -0.000869451947669 0)
(0.427064817428 -0.00109130460758 0)
(0.429095681159 -0.00137479887037 0)
(0.431660743523 -0.00174002394395 0)
(0.434917139312 -0.0022156477824 0)
(0.439079779796 -0.00284447337869 0)
(0.444451965814 -0.00369501533525 0)
(0.451481260146 -0.00488903188885 0)
(0.460869610613 -0.00667462091776 0)
(0.473785695542 -0.00962990390262 0)
(0.492260712376 -0.0152339359325 0)
(0.520192294426 -0.0275309599181 0)
(0.565369494051 -0.0580330432236 0)
(0.633741098665 -0.136025304219 0)
(1.03387031381 0.239241469266 0)
(1.08314044237 0.293635306155 0)
(1.03294380248 0.239132607397 0)
(0.954408301181 0.174538468891 0)
(0.880115219573 0.121548303957 0)
(0.818686011005 0.0832259489705 0)
(0.771485853271 0.0568113537975 0)
(0.736728143207 0.0387886891661 0)
(0.71173504634 0.0264553998136 0)
(0.694053180693 0.0179733722535 0)
(0.681717525855 0.0121216036573 0)
(0.673230103572 0.00808418905869 0)
(0.667478671182 0.00530770715738 0)
(0.663650747283 0.00341089270668 0)
(0.661159399787 0.0021279120012 0)
(0.659584560264 0.00127204219162 0)
(0.658628311491 0.00071169613723 0)
(0.658081416594 0.000354127875283 0)
(0.657798561406 0.000134097220028 0)
(0.657680131825 5.86096599641e-06 0)
(0.657658966931 -6.23034423565e-05 0)
(0.657690874299 -9.2477158881e-05 0)
(0.657747604035 -9.96129880928e-05 0)
(0.657811821613 -9.37679156601e-05 0)
(0.657873629077 -8.15260873192e-05 0)
(0.657928007449 -6.70268313284e-05 0)
(0.657973019485 -5.2722316356e-05 0)
(0.658008568372 -3.99244810531e-05 0)
(0.658035554795 -2.91993499207e-05 0)
(0.658055324689 -2.06499695005e-05 0)
(0.658069326272 -1.4115250584e-05 0)
(0.658078914082 -9.30541660947e-06 0)
(0.658085252651 -5.88980146487e-06 0)
(0.658089284412 -3.54951740681e-06 0)
(0.658091735801 -2.00540206253e-06 0)
(0.658093143574 -1.0292538755e-06 0)
(0.658093889595 -4.43973023649e-07 0)
(0.658094236523 -1.16537326138e-07 0)
(0.658094354634 5.24014065655e-08 0)
(0.6580943518 1.3351608372e-07 0)
(0.658094294585 1.59998616039e-07 0)
(0.658094219612 1.56594078345e-07 0)
(0.658094145624 1.39770605152e-07 0)
(0.65809408116 1.18608973471e-07 0)
(0.658094028896 9.78732846655e-08 0)
(0.658093988607 7.96699471122e-08 0)
(0.658093958919 6.49025163983e-08 0)
(0.658093937054 5.41710631991e-08 0)
(0.658093919459 4.66468166701e-08 0)
(0.658093904679 4.21475706421e-08 0)
(0.658093892505 4.06593200373e-08 0)
(0.658093882112 4.13825497928e-08 0)
(0.658093872748 4.35680301619e-08 0)
(0.658093863869 4.66256694072e-08 0)
(0.658093854997 5.04290335127e-08 0)
(0.658093845815 5.45739303748e-08 0)
(0.658093836048 5.90418467533e-08 0)
(0.658093825611 6.38544030721e-08 0)
(0.6580938145 6.90446641103e-08 0)
(0.658093802706 7.46115597831e-08 0)
(0.658093790232 8.056912535e-08 0)
(0.658093777093 8.68959125781e-08 0)
(0.658093763307 9.35609916413e-08 0)
(0.658093748858 1.00547838336e-07 0)
(0.658093733688 1.07855079469e-07 0)
(0.658093717729 1.15541827743e-07 0)
(0.658093700899 1.23675879976e-07 0)
(0.658093683204 1.32446350594e-07 0)
(0.658093664633 1.41920347501e-07 0)
(0.658093645114 1.52062777294e-07 0)
(0.658093624679 1.629049413e-07 0)
(0.658093603393 1.74443180503e-07 0)
(0.658093581275 1.86615044713e-07 0)
(0.658093558274 1.99378965576e-07 0)
(0.658093534294 2.12748664895e-07 0)
(0.658093509269 2.26779235108e-07 0)
(0.658093483255 2.41581383047e-07 0)
(0.658093456419 2.57262640203e-07 0)
(0.65809342892 2.73866767551e-07 0)
(0.658093400806 2.91366930229e-07 0)
(0.658093372017 3.09710616737e-07 0)
(0.658093342477 3.28873886193e-07 0)
(0.658093312206 3.48903348603e-07 0)
(0.658093281382 3.69929465568e-07 0)
(0.658093250299 3.92120689062e-07 0)
(0.658093219266 4.15591727608e-07 0)
(0.658093188502 4.40330274224e-07 0)
(0.658093158106 4.66205180017e-07 0)
(0.658093128145 4.93061398529e-07 0)
(0.658093098817 5.20824498181e-07 0)
(0.658093070559 5.49524570406e-07 0)
(0.658093044023 5.7921403143e-07 0)
(0.65809301996 6.09860942254e-07 0)
(0.658092999158 6.41320145833e-07 0)
(0.658092982448 6.73381229207e-07 0)
(0.658092970783 7.05847497474e-07 0)
(0.658092965364 7.38662745731e-07 0)
(0.658092967557 7.72096642296e-07 0)
(0.658092978527 8.06963665915e-07 0)
(0.658093002874 8.4456764406e-07 0)
(0.658093046259 8.82613075807e-07 0)
(0.658093112124 9.1960909879e-07 0)
(0.658093204844 9.5403974725e-07 0)
(0.658093330791 9.84606117358e-07 0)
(0.658093498253 1.00974307e-06 0)
(0.65809371743 1.02730029558e-06 0)
(0.658094000894 1.03450476185e-06 0)
(0.658094364774 1.0282224715e-06 0)
(0.65809483118 1.0056052199e-06 0)
(0.658095429217 9.66757238222e-07 0)
(0.658096178397 9.16527519157e-07 0)
(0.658097103542 8.38602768759e-07 0)
(0.658098254202 7.19952509874e-07 0)
(0.658099687344 5.47767260651e-07 0)
(0.658101470763 3.0649825859e-07 0)
(0.658103687924 -2.3105238794e-08 0)
(0.658106442171 -4.64977205294e-07 0)
(0.658109861489 -1.04907193433e-06 0)
(0.658114104424 -1.81289466728e-06 0)
(0.65811936751 -2.80313384212e-06 0)
(0.658125894745 -4.07753805312e-06 0)
(0.658133989711 -5.70767464681e-06 0)
(0.658144029728 -7.78201596337e-06 0)
(0.658156477446 -1.04054497412e-05 0)
(0.658171907223 -1.36935294651e-05 0)
(0.658191036201 -1.78322130409e-05 0)
(0.658214751757 -2.30580336011e-05 0)
(0.658244157732 -2.96497924027e-05 0)
(0.658280624989 -3.79488908375e-05 0)
(0.658325852299 -4.83792104209e-05 0)
(0.658381946175 -6.14669619938e-05 0)
(0.658451520985 -7.78653819913e-05 0)
(0.658537822954 -9.83859288877e-05 0)
(0.658644884558 -0.000124036812257 0)
(0.658777716585 -0.000156071793047 0)
(0.658942547665 -0.000196052463472 0)
(0.659147125048 -0.000245926171768 0)
(0.659401092934 -0.000308124393507 0)
(0.659716467508 -0.000385690511459 0)
(0.660108236047 -0.000482446027255 0)
(0.660595118195 -0.000603204834472 0)
(0.661200537284 -0.000754053510817 0)
(0.6619538654 -0.000942726008644 0)
(0.662892033704 -0.00117910926588 0)
(0.664061635483 -0.00147593393706 0)
(0.665521700286 -0.00184973966165 0)
(0.667347405743 -0.00232225583239 0)
(0.669635136036 -0.00292242852226 0)
(0.672509522288 -0.00368950328616 0)
(0.676133497847 -0.00467792892552 0)
(0.680723126709 -0.00596559845609 0)
(0.68657028112 -0.00766864990364 0)
(0.694078511213 -0.00997006969376 0)
(0.703821604919 -0.0131789404498 0)
(0.716640967463 -0.0178607813421 0)
(0.733792604012 -0.0251328318908 0)
(0.757101965427 -0.0373138958192 0)
(0.789070781669 -0.0592742295417 0)
(0.832448394252 -0.101083674943 0)
(0.883489956474 -0.18059777369 0)
(1.0338412522 0.171307560013 0)
(1.10231575624 0.2755577472 0)
(1.11663636979 0.266312601582 0)
(1.09208070409 0.219890362536 0)
(1.05195900751 0.168203216812 0)
(1.01023374468 0.123600223544 0)
(0.973530936073 0.0888580949516 0)
(0.94392761667 0.0630063933907 0)
(0.921231536169 0.0441974121054 0)
(0.904405940797 0.0306871197645 0)
(0.892241257492 0.0210693485556 0)
(0.883627665175 0.0142765494512 0)
(0.877644979532 0.00951889480127 0)
(0.873570759204 0.00621861171813 0)
(0.870856447607 0.00395556912253 0)
(0.869095011296 0.00242566029032 0)
(0.867989742495 0.00140976536598 0)
(0.867327600692 0.000750784773845 0)
(0.866957791129 0.000336697112969 0)
(0.866775156721 8.80976632302e-05 0)
(0.866707511201 -5.08492002662e-05 0)
(0.86670644448 -0.000119171707186 0)
(0.86674031244 -0.000143678362146 0)
(0.866789052765 -0.00014257529487 0)
(0.866840677887 -0.000127941522473 0)
(0.866888591522 -0.000107513498171 0)
(0.866929682847 -8.60006639775e-05 0)
(0.866963000645 -6.60452019776e-05 0)
(0.866988838351 -4.89185129844e-05 0)
(0.8670081216 -3.50235198896e-05 0)
(0.867022016605 -2.42505288974e-05 0)
(0.867031695633 -1.62221753052e-05 0)
(0.867038210864 -1.04545882101e-05 0)
(0.867042439807 -6.45663065907e-06 0)
(0.867045074933 -3.78486405827e-06 0)
(0.867046638299 -2.06830637582e-06 0)
(0.867047507713 -1.01395118251e-06 0)
(0.867047947058 -4.01667108822e-07 0)
(0.867048136533 -7.36011298057e-08 0)
(0.867048186836 8.36883106926e-08 0)
(0.867048162628 1.41754326696e-07 0)
(0.867048107831 1.46522863106e-07 0)
(0.867048046312 1.26137091157e-07 0)
(0.86704798896 9.67098641215e-08 0)
(0.867047939948 6.67039050024e-08 0)
(0.867047899966 4.0108321699e-08 0)
(0.867047868123 1.81020008088e-08 0)
(0.867047843028 3.0774096193e-10 0)
(0.867047823641 -1.35217108699e-08 0)
(0.867047809206 -2.3029007998e-08 0)
(0.867047797452 -3.05504799451e-08 0)
(0.867047786319 -3.7313480197e-08 0)
(0.867047775088 -4.35813862201e-08 0)
(0.86704776343 -4.92194843078e-08 0)
(0.867047751242 -5.43462452553e-08 0)
(0.867047738359 -5.92081429129e-08 0)
(0.867047724759 -6.39867139943e-08 0)
(0.867047710364 -6.87593805683e-08 0)
(0.867047695124 -7.36042201484e-08 0)
(0.867047679013 -7.85904109539e-08 0)
(0.867047662025 -8.37786941299e-08 0)
(0.867047644163 -8.92367174048e-08 0)
(0.867047625413 -9.50601579208e-08 0)
(0.867047605725 -1.01330061098e-07 0)
(0.867047585036 -1.08051425058e-07 0)
(0.867047563277 -1.15152062901e-07 0)
(0.86704754049 -1.22551105624e-07 0)
(0.867047516681 -1.30198882721e-07 0)
(0.867047491726 -1.38173097054e-07 0)
(0.867047465599 -1.46552011966e-07 0)
(0.867047438319 -1.55369231295e-07 0)
(0.867047409854 -1.64652478044e-07 0)
(0.867047380149 -1.74406244778e-07 0)
(0.867047349182 -1.84634859473e-07 0)
(0.867047316914 -1.9535903264e-07 0)
(0.867047283329 -2.06607593943e-07 0)
(0.867047248514 -2.18409149792e-07 0)
(0.867047212632 -2.30816461103e-07 0)
(0.86704717581 -2.43899523226e-07 0)
(0.867047138068 -2.57704103306e-07 0)
(0.867047099345 -2.72232048282e-07 0)
(0.867047059611 -2.87463112983e-07 0)
(0.867047018959 -3.03390627962e-07 0)
(0.867046977625 -3.20045276216e-07 0)
(0.867046935932 -3.37501986465e-07 0)
(0.867046894191 -3.55885865378e-07 0)
(0.867046852627 -3.75390852172e-07 0)
(0.867046811372 -3.96285166297e-07 0)
(0.867046770566 -4.18872008884e-07 0)
(0.867046730523 -4.43433692664e-07 0)
(0.867046691823 -4.70215841326e-07 0)
(0.867046655236 -4.99463039169e-07 0)
(0.867046621619 -5.31465255578e-07 0)
(0.867046591901 -5.66593832467e-07 0)
(0.867046567169 -6.05321225647e-07 0)
(0.867046548861 -6.48173403488e-07 0)
(0.86704653907 -6.95619344548e-07 0)
(0.867046540902 -7.48013232926e-07 0)
(0.867046558244 -8.05666564821e-07 0)
(0.867046592764 -8.67379691711e-07 0)
(0.867046646487 -9.35649455932e-07 0)
(0.867046724921 -1.01299263973e-06 0)
(0.867046834467 -1.10144222567e-06 0)
(0.867046982924 -1.20321203439e-06 0)
(0.867047179778 -1.32123935403e-06 0)
(0.867047436478 -1.45946911824e-06 0)
(0.867047767005 -1.62299148194e-06 0)
(0.867048188676 -1.81827859878e-06 0)
(0.867048723246 -2.05414013678e-06 0)
(0.867049398772 -2.3443151841e-06 0)
(0.867050248339 -2.70915377664e-06 0)
(0.867051312483 -3.15706008923e-06 0)
(0.867052643203 -3.70402464258e-06 0)
(0.867054303496 -4.37301151922e-06 0)
(0.867056371413 -5.19315252122e-06 0)
(0.867058943938 -6.20058806898e-06 0)
(0.867062141171 -7.44007518093e-06 0)
(0.867066111783 -8.96717471883e-06 0)
(0.86707104007 -1.08509546437e-05 0)
(0.86707715497 -1.31770943805e-05 0)
(0.867084740825 -1.60516245199e-05 0)
(0.867094150702 -1.96068514221e-05 0)
(0.867105822542 -2.40094723588e-05 0)
(0.867120297687 -2.94708816694e-05 0)
(0.867138247996 -3.6249563522e-05 0)
(0.86716050724 -4.46613111181e-05 0)
(0.867188107586 -5.50915467722e-05 0)
(0.867222330923 -6.80190577252e-05 0)
(0.867264769323 -8.40431408298e-05 0)
(0.867317398201 -0.000103911474048 0)
(0.867382668271 -0.000128554675749 0)
(0.867463620934 -0.000159130745081 0)
(0.867564032639 -0.000197080347075 0)
(0.867688594196 -0.000244195854856 0)
(0.867843133028 -0.000302709183985 0)
(0.86803489101 -0.000375402779412 0)
(0.86827287325 -0.000465748663115 0)
(0.868568284264 -0.000578085035417 0)
(0.868935073781 -0.000717843494235 0)
(0.8693906246 -0.000891841109342 0)
(0.869956622968 -0.00110865766304 0)
(0.870660161519 -0.0013791301016 0)
(0.871535144562 -0.00171700779449 0)
(0.8726240922 -0.00213982969767 0)
(0.873980471165 -0.00267011889749 0)
(0.875671730897 -0.00333704161892 0)
(0.87778330486 -0.00417875835969 0)
(0.880423953676 -0.00524584334571 0)
(0.883733004086 -0.00660642010247 0)
(0.887890321247 -0.00835417030743 0)
(0.893130283974 -0.0106213877533 0)
(0.899761614396 -0.0136013330513 0)
(0.908195462674 -0.01758848971 0)
(0.918983891575 -0.0230541725043 0)
(0.93286735408 -0.0307927954186 0)
(0.950808798951 -0.0422059245832 0)
(0.973918417471 -0.0598211661531 0)
(1.00307263189 -0.0880945452227 0)
(1.03773117449 -0.134282286711 0)
(1.07131113062 -0.207528770021 0)
(1.02388346733 0.119322584217 0)
(1.08875449764 0.231515227637 0)
(1.13660548576 0.252868385174 0)
(1.15406480383 0.228900809793 0)
(1.1500062696 0.188326226697 0)
(1.13538703738 0.14655500501 0)
(1.11759792577 0.110126353699 0)
(1.10062640486 0.0807774109328 0)
(1.08617722207 0.0581628010387 0)
(1.0746701046 0.0412224966063 0)
(1.06590511441 0.0287819610093 0)
(1.05944435186 0.0197867173102 0)
(1.0548071673 0.0133703209287 0)
(1.05155709753 0.00885291525755 0)
(1.04933184956 0.00571559919806 0)
(1.04784606761 0.00356966348817 0)
(1.04688267628 0.0021279650491 0)
(1.04628069206 0.00118076529736 0)
(1.0459231607 0.000576342541979 0)
(1.04572666357 0.000205906624234 0)
(1.04563266688 -7.86209432943e-06 0)
(1.04560111534 -0.00011924092008 0)
(1.04560518643 -0.000166165484029 0)
(1.04562731035 -0.000174490611527 0)
(1.04565654499 -0.000161531115027 0)
(1.04568646957 -0.000138537949542 0)
(1.04571365311 -0.000112494016343 0)
(1.04573658162 -8.74400119684e-05 0)
(1.04575490618 -6.54451188214e-05 0)
(1.04576892777 -4.73105468696e-05 0)
(1.04577925794 -3.30713340379e-05 0)
(1.04578660653 -2.23446937768e-05 0)
(1.04579165893 -1.45619979378e-05 0)
(1.0457950138 -9.11435866664e-06 0)
(1.04579715978 -5.43596304594e-06 0)
(1.04579847529 -3.04447477546e-06 0)
(1.04579924078 -1.55365248248e-06 0)
(1.04579965608 -6.69288282003e-07 0)
(1.04579985856 -1.7774947038e-07 0)
(1.04579993679 6.62826623971e-08 0)
(1.04579994685 1.66578290937e-07 0)
(1.04579992459 1.89368078426e-07 0)
(1.04579988994 1.74288030949e-07 0)
(1.04579985341 1.44311923603e-07 0)
(1.04579982009 1.11794871795e-07 0)
(1.04579979184 8.29260084217e-08 0)
(1.04579976879 5.99893633305e-08 0)
(1.04579975003 4.31536448002e-08 0)
(1.04579973428 3.12485912381e-08 0)
(1.04579971925 2.25412099552e-08 0)
(1.04579970384 1.52478829356e-08 0)
(1.04579968906 1.02874739674e-08 0)
(1.04579967529 7.45259962896e-09 0)
(1.04579966213 5.73116651514e-09 0)
(1.04579964876 4.76150345944e-09 0)
(1.04579963471 4.40595073431e-09 0)
(1.04579961973 4.5113641013e-09 0)
(1.04579960375 5.00564839328e-09 0)
(1.0457995867 5.83527767881e-09 0)
(1.04579956859 6.96199340467e-09 0)
(1.04579954942 8.32896882918e-09 0)
(1.04579952915 9.87185327602e-09 0)
(1.04579950778 1.15150514528e-08 0)
(1.04579948531 1.3219839261e-08 0)
(1.04579946174 1.50079646899e-08 0)
(1.04579943705 1.69419899952e-08 0)
(1.04579941117 1.91320205256e-08 0)
(1.04579938401 2.1480205363e-08 0)
(1.0457993555 2.39341190763e-08 0)
(1.04579932558 2.64682002132e-08 0)
(1.04579929429 2.90491252844e-08 0)
(1.04579926168 3.16851638459e-08 0)
(1.04579922779 3.44971697424e-08 0)
(1.04579919252 3.75996712315e-08 0)
(1.04579915574 4.10084304028e-08 0)
(1.04579911739 4.46634433212e-08 0)
(1.04579907751 4.84659316459e-08 0)
(1.04579903629 5.23203538194e-08 0)
(1.04579899391 5.61957582414e-08 0)
(1.04579895047 6.01634256857e-08 0)
(1.04579890594 6.43670978995e-08 0)
(1.04579886026 6.89398187689e-08 0)
(1.0457988134 7.39214722504e-08 0)
(1.04579876551 7.92301487427e-08 0)
(1.04579871687 8.46983814888e-08 0)
(1.04579866779 9.012926534e-08 0)
(1.0457986185 9.53309347152e-08 0)
(1.0457985691 1.00125655633e-07 0)
(1.04579851974 1.04345060467e-07 0)
(1.04579847074 1.07807108139e-07 0)
(1.04579842268 1.10275462511e-07 0)
(1.04579837635 1.11440170844e-07 0)
(1.04579833265 1.10926554003e-07 0)
(1.04579829252 1.08275354147e-07 0)
(1.04579825703 1.02877291019e-07 0)
(1.04579822753 9.39370901855e-08 0)
(1.04579820587 8.04017903326e-08 0)
(1.04579819416 6.06768992791e-08 0)
(1.04579819559 3.21317835184e-08 0)
(1.04579821388 -8.65444631951e-09 0)
(1.04579825301 -6.32403764801e-08 0)
(1.04579831831 -1.34153411741e-07 0)
(1.04579841631 -2.24624542497e-07 0)
(1.04579855501 -3.3884076697e-07 0)
(1.0457987441 -4.82234270653e-07 0)
(1.04579899539 -6.61512096577e-07 0)
(1.0457993236 -8.84651802162e-07 0)
(1.0457997472 -1.16112080974e-06 0)
(1.04580028909 -1.50231982073e-06 0)
(1.04580097736 -1.92245004487e-06 0)
(1.04580184522 -2.44043512869e-06 0)
(1.04580293413 -3.07872605847e-06 0)
(1.04580429735 -3.86643080761e-06 0)
(1.0458060006 -4.83929099982e-06 0)
(1.04580812492 -6.04117248241e-06 0)
(1.04581077074 -7.52623496423e-06 0)
(1.0458140624 -9.36137321716e-06 0)
(1.04581815372 -1.16292171258e-05 0)
(1.04582323541 -1.44319139684e-05 0)
(1.04582954458 -1.78960889374e-05 0)
(1.04583737565 -2.2179590898e-05 0)
(1.04584709392 -2.74791137955e-05 0)
(1.04585915208 -3.40400825417e-05 0)
(1.04587411 -4.21686493179e-05 0)
(1.04589266259 -5.22442023819e-05 0)
(1.04591567248 -6.47361634754e-05 0)
(1.04594420815 -8.02232915015e-05 0)
(1.04597959533 -9.94220383327e-05 0)
(1.04602348024 -0.000123222249977 0)
(1.04607790609 -0.000152729917944 0)
(1.04614540757 -0.00018932007458 0)
(1.04622912995 -0.000234702181141 0)
(1.04633297814 -0.000291001317334 0)
(1.04646180108 -0.000360860691391 0)
(1.04662161996 -0.000447571085395 0)
(1.04681991371 -0.000555232891365 0)
(1.04706597623 -0.000688960091421 0)
(1.04737136096 -0.00085513989526 0)
(1.04775043582 -0.00106176363931 0)
(1.0482210796 -0.00131884944728 0)
(1.04880555608 -0.00163898818541 0)
(1.04953161331 -0.00203805554378 0)
(1.05043387219 -0.00253614675417 0)
(1.05155558676 -0.00315881843549 0)
(1.05295088098 -0.00393876579141 0)
(1.05468760547 -0.00491812400995 0)
(1.05685100793 -0.00615168458138 0)