/*--------------------------------*- C++ -*----------------------------------*\
| =========                 |                                                 |
| \\      /  F ield         | OpenFOAM: The Open Source CFD Toolbox           |
|  \\    /   O peration     | Version:  2106                                  |
|   \\  /    A nd           | Website:  www.openfoam.com                      |
|    \\/     M anipulation  |                                                 |
\*---------------------------------------------------------------------------*/
FoamFile
{
    version     2.0;
    format      ascii;
    arch        "LSB;label=32;scalar=64";
    class       volScalarField;
    location    "0.112";
    object      p;
}
// * * * * * * * * * * * * * * * * * * * * * * * * * * * * * * * * * * * * * //

dimensions      [0 2 -2 0 0 0 0];

internalField   nonuniform List<scalar> 
800
(
-3.83249e-17
-8.68463e-32
-7.00147e-18
-6.279e-17
-4.04938e-17
-4.5456e-17
-1.05361e-16
-7.51698e-17
-3.06494e-18
1.9365e-18
-3.37094e-17
-4.09973e-17
-3.87722e-17
-3.77356e-17
-3.68442e-17
-3.36884e-17
-3.64431e-17
-7.27646e-17
-1.1244e-16
-1.14796e-16
-7.02032e-17
-4.80903e-19
5.5529e-18
-3.29491e-17
-7.54391e-17
-1.1061e-16
-1.16645e-16
-1.01037e-16
-3.73252e-17
-4.28772e-17
-9.87412e-17
-4.31323e-17
-3.20254e-18
-3.04962e-17
-3.97439e-17
-3.86078e-17
-3.83755e-17
-4.04735e-17
-3.54733e-17
-5.16362e-18
1.02457e-18
-4.11751e-20
-8.43556e-18
-3.25001e-17
-5.00507e-18
-2.64832e-18
-3.5064e-17
-4.44085e-17
-3.92773e-17
-2.75894e-18
3.26934e-17
3.55765e-17
3.22806e-17
3.12439e-17
3.24438e-17
3.57355e-17
3.15422e-17
-6.32453e-18
-3.47414e-17
-2.14215e-18
-1.8706e-18
-6.87315e-17
-1.11553e-16
-1.15756e-16
-1.07491e-16
-6.77209e-17
-3.64136e-17
-7.32093e-17
-1.11043e-16
-7.34638e-17
-2.42492e-18
2.54668e-18
-2.97957e-17
-3.96977e-17
-7.47297e-17
-1.1543e-16
-1.11528e-16
-3.4437e-17
3.43505e-17
4.63692e-18
-3.72757e-17
-4.1036e-17
-3.52009e-17
-4.00394e-17
-7.36754e-17
-7.7132e-17
-4.0753e-17
4.13755e-18
3.44072e-17
-1.88583e-19
-4.1119e-17
-3.89288e-17
-2.26133e-18
1.90634e-18
-3.35661e-17
-7.5043e-17
-1.0916e-16
-1.15294e-16
-1.11427e-16
-6.91135e-17
-1.30898e-18
2.59244e-18
-3.17792e-17
-4.62407e-17
-6.90052e-17
-4.25636e-17
-3.41426e-17
-3.52279e-17
-4.59611e-17
-6.61739e-17
-9.85941e-18
6.96115e-18
2.87615e-18
-4.06576e-17
-1.09549e-16
-1.14539e-16
-7.37042e-17
-3.63809e-17
-3.36137e-17
-3.70973e-17
-3.79249e-17
-3.65323e-17
-3.52055e-17
-4.46497e-17
-7.31937e-17
-3.45787e-17
3.03206e-17
3.88122e-18
-3.71052e-17
-4.10562e-17
-3.44274e-17
-3.71938e-17
-7.59295e-17
-1.08529e-16
-7.60888e-17
-3.74711e-17
-3.35483e-17
-3.68437e-17
-3.78667e-17
-3.7731e-17
-3.77431e-17
-3.78748e-17
-3.67229e-17
-3.32626e-17
-3.8112e-17
-7.9978e-17
-1.09448e-16
-4.04424e-17
3.58284e-17
3.63538e-17
-2.71103e-18
-2.55903e-18
3.5618e-17
3.17969e-17
-4.06907e-17
-7.1253e-17
-8.43229e-18
4.1218e-18
-3.25023e-17
-7.50876e-17
-1.09286e-16
-1.15187e-16
-1.11107e-16
-6.9748e-17
-5.43699e-18
1.21426e-18
5.1557e-18
3.37893e-17
6.33594e-19
-7.32266e-17
-1.1362e-16
-1.05861e-16
-7.85314e-17
-1.08391e-16
-1.07934e-16
-3.90815e-17
7.01022e-18
-3.4513e-18
-7.04869e-17
-7.66124e-17
-4.06333e-17
-3.10298e-17
-3.92744e-17
-7.37136e-17
-7.69194e-17
-4.25866e-17
-2.49739e-18
3.99367e-17
7.334e-17
3.92067e-17
-4.07581e-17
-1.12537e-16
-1.1323e-16
-7.77307e-17
-6.34006e-17
-4.17819e-17
-7.01546e-17
-7.237e-17
-4.17218e-17
-3.66361e-17
-3.14486e-17
-8.41932e-18
-3.47126e-17
-3.47465e-17
-8.56643e-18
-3.14828e-17
-3.53351e-17
-3.90384e-17
-7.99336e-17
-1.09481e-16
-4.07313e-17
3.65933e-17
4.06628e-17
-2.28667e-18
-4.29815e-17
-4.16174e-17
5.34714e-19
3.27582e-17
-3.33765e-18
-3.7268e-17
5.68633e-19
3.35747e-17
-3.29888e-17
-1.09017e-16
-1.22375e-16
-1.10051e-16
-3.73217e-17
3.42143e-17
4.31087e-17
3.37847e-17
-3.46549e-18
-3.84729e-17
-4.10838e-17
-3.89631e-17
-4.13778e-17
-3.76286e-17
8.69473e-19
3.34229e-17
1.01831e-18
-3.8523e-17
-4.45061e-17
-3.5978e-17
-5.76816e-18
-3.05454e-18
8.69085e-19
3.34717e-17
3.46582e-17
-6.30601e-18
-3.88174e-17
-1.98351e-18
3.61274e-17
-2.49235e-18
-7.71064e-17
-7.83045e-17
-5.02191e-18
4.29155e-17
3.32941e-17
-4.00042e-17
-6.77938e-17
-1.26826e-17
-3.90947e-17
-7.02002e-17
-7.83398e-18
4.24622e-17
3.8705e-17
-3.83775e-17
-1.16745e-16
-1.15575e-16
-3.50848e-17
3.45515e-17
4.73601e-18
-3.63348e-17
-3.90954e-17
-4.07314e-17
-6.87238e-17
-7.27985e-17
-7.90919e-17
-1.0528e-16
-7.48796e-17
-3.82629e-17
-3.75638e-17
-3.77869e-17
-2.39118e-18
3.54122e-17
3.34729e-17
1.30056e-19
-6.951e-18
-6.9225e-18
-8.0135e-19
3.03368e-17
3.85395e-17
3.33334e-17
-2.95134e-18
-3.81919e-17
-4.19968e-17
-4.21196e-17
-3.85133e-17
-2.44161e-18
3.71986e-17
4.06527e-17
-2.74801e-18
-8.08816e-17
-1.1343e-16
-4.25573e-17
3.42478e-17
4.72811e-17
3.47017e-17
-3.80529e-17
-1.08506e-16
-1.15169e-16
-1.12009e-16
-1.07207e-16
-7.20741e-17
-3.6852e-17
-3.37318e-17
-3.66943e-17
-3.85096e-17
-4.14969e-17
-3.83643e-17
-2.89379e-18
3.25616e-17
3.55759e-17
3.24149e-17
3.13904e-17
3.15239e-17
3.26999e-17
3.48289e-17
2.86188e-17
-2.87341e-18
-6.74818e-19
2.65397e-17
2.20835e-18
-5.15384e-18
-1.89053e-18
2.3809e-18
-1.21025e-17
-6.98946e-17
-3.53659e-17
2.32637e-17
-2.83094e-17
-3.57903e-17
-7.40265e-18
-3.75939e-17
-6.7686e-17
-3.92575e-17
-4.78056e-17
-1.01623e-16
-3.68284e-17
3.03011e-17
-2.73642e-17
-7.54703e-17
-8.06776e-17
-7.00471e-17
-3.52591e-17
-3.42971e-17
-7.62287e-17
-1.10767e-16
-7.09471e-17
-8.30261e-18
-3.0805e-17
-3.29644e-17
-4.34583e-18
-3.31639e-17
-8.12469e-17
-1.07391e-16
-4.26597e-17
3.33965e-18
-1.06808e-18
-3.67145e-17
-3.66628e-17
-1.24652e-17
-3.14726e-17
1.84207e-18
2.93335e-17
-3.34875e-17
-7.08521e-17
-5.08138e-17
-6.77813e-17
-3.64506e-17
-4.22807e-18
-2.9507e-17
-4.51043e-17
-6.79527e-17
-4.04576e-17
-4.04571e-17
-6.79525e-17
-4.51081e-17
-2.95163e-17
-4.20533e-18
-3.63162e-17
-6.77523e-17
-5.20383e-17
-7.33489e-17
-2.63139e-17
6.61637e-17
-1.29874e-20
-1.09084e-16
-8.26545e-17
3.43351e-18
3.69006e-17
-4.00063e-17
-1.05187e-16
-4.07608e-17
-2.49176e-18
-6.85617e-17
-1.11804e-16
-8.05752e-17
-3.36622e-17
5.02607e-18
-3.47284e-18
-6.72077e-17
-7.92235e-17
-7.67141e-17
-7.05062e-17
-4.34796e-17
-3.44708e-17
7.50092e-19
2.8948e-17
1.6836e-18
4.16276e-18
2.53814e-17
-3.96993e-17
-7.22713e-17
-1.76059e-18
3.60459e-17
-3.83995e-17
-1.14205e-16
-7.13703e-17
3.05398e-17
6.40832e-18
-6.68158e-17
-8.85184e-17
-1.04968e-16
-4.31565e-17
-2.77852e-18
3.78191e-18
3.07503e-17
3.80274e-17
3.31969e-17
-1.85951e-18
-3.60815e-17
-4.8455e-17
-7.382e-17
-3.42024e-17
3.06014e-17
3.23295e-18
-3.98304e-17
-3.98387e-17
-6.31771e-18
2.04812e-18
4.17292e-18
-8.18565e-18
-7.09401e-17
-7.69794e-17
-4.34674e-17
-2.92007e-17
-7.55502e-18
-3.38677e-17
-3.03727e-17
-8.78698e-18
-7.48369e-17
-1.11935e-16
-4.10679e-17
4.04074e-17
4.16516e-17
-3.66691e-17
-1.13669e-16
-1.18561e-16
-7.13387e-17
-3.65828e-18
4.25292e-18
-2.28131e-18
-6.32315e-18
-9.22596e-19
2.93172e-17
3.4242e-17
3.40916e-17
3.96229e-17
3.17983e-17
-4.43891e-17
-1.07305e-16
-4.75549e-17
1.44506e-18
7.40863e-18
-1.06915e-17
-6.82777e-17
-3.95221e-17
-3.42367e-18
-3.82998e-17
-7.63829e-17
-3.7902e-17
3.64845e-17
3.67134e-17
-3.65369e-17
-7.50343e-17
-4.85664e-17
-3.49418e-17
1.43966e-18
2.93891e-17
-1.88906e-19
-2.14591e-18
3.16824e-17
3.18033e-17
-3.01768e-18
-4.25579e-18
3.0336e-17
4.21376e-17
2.97239e-17
-4.26987e-17
-7.43946e-17
-5.30124e-18
3.98571e-17
3.38252e-18
-7.37112e-17
-1.19486e-16
-1.13316e-16
-3.85005e-17
3.49819e-17
4.7012e-17
3.48231e-17
-3.77071e-17
-1.10301e-16
-1.21706e-16
-1.06558e-16
-3.4869e-17
6.81201e-18
-2.99051e-17
-1.14364e-16
-1.81992e-16
-1.42891e-16
-7.57144e-17
-1.05612e-16
-1.36235e-16
-8.08129e-17
-6.82595e-17
-7.36141e-17
-6.83885e-17
-3.47074e-17
-4.28633e-17
-1.02625e-16
-7.84522e-17
-3.75958e-17
-3.14207e-17
-4.19725e-17
-6.72869e-17
-4.09041e-17
-3.98281e-17
-6.40257e-17
-4.51007e-17
-6.70612e-17
-7.21479e-17
-7.82246e-17
-1.02357e-16
-7.80669e-17
-7.27898e-17
-6.97646e-17
-4.37736e-17
-3.57791e-17
-1.37121e-18
3.6457e-17
3.55879e-17
-6.05512e-18
-3.94019e-17
-6.78728e-18
3.19372e-17
3.5745e-17
3.22475e-17
3.20087e-17
3.53971e-17
3.37599e-17
-3.79465e-19
-4.52702e-17
-7.78766e-17
-3.83792e-17
3.34817e-17
3.94626e-17
-4.70932e-19
-3.59231e-17
-4.49469e-17
-7.18764e-17
-6.64686e-17
-4.6509e-17
-1.05503e-16
-1.07786e-16
-4.30125e-17
-2.85865e-17
-3.79252e-17
-6.90339e-17
-7.37856e-17
-8.28612e-17
-1.06374e-16
-4.10378e-17
3.38049e-17
4.72922e-17
3.51362e-17
-3.96994e-17
-1.15679e-16
-1.12193e-16
-3.80491e-17
-1.74627e-18
-3.25183e-17
-3.47323e-17
-1.05343e-17
-3.78452e-17
-3.05467e-17
3.02126e-17
-7.3165e-20
-7.12179e-17
-7.39858e-17
-4.45167e-17
-6.99029e-17
-7.22019e-17
-3.87878e-17
-2.92107e-17
-4.58539e-17
-1.05783e-16
-7.34711e-17
-7.52569e-18
-2.44185e-17
-3.79923e-17
-7.41895e-17
-1.10576e-16
-1.09189e-16
-7.89214e-17
-6.88346e-17
-3.46224e-17
-7.91765e-18
-2.9168e-17
-2.82336e-18
4.01134e-18
-3.74156e-17
-1.14677e-16
-1.45161e-16
-7.83164e-17
-3.04407e-17
-3.1727e-17
-7.13287e-17
-1.08762e-16
-1.15615e-16
-1.10461e-16
-6.68879e-17
-7.55281e-18
-2.98988e-17
-3.08377e-17
-1.17143e-17
-6.81058e-17
-7.4099e-17
-3.80955e-17
-3.80631e-17
-7.60731e-17
-7.44166e-17
-4.49823e-18
4.27215e-17
3.44115e-17
-3.86691e-17
-7.72102e-17
-4.24373e-17
-2.88768e-18
2.03717e-18
2.03323e-18
-2.89684e-18
-4.24174e-17
-7.70907e-17
-3.86433e-17
3.33176e-17
4.04947e-17
1.92016e-18
-4.1526e-17
-7.78354e-17
-7.78739e-17
-4.07314e-17
4.76671e-18
3.81257e-17
1.74192e-18
-7.32061e-17
-1.156e-16
-1.12146e-16
-7.23644e-17
-3.71818e-17
-3.77764e-17
-3.71269e-17
7.01901e-19
3.34928e-17
2.35719e-19
-4.1624e-17
-4.25749e-17
-2.74039e-18
3.59756e-17
3.25758e-17
-3.2085e-18
-3.18079e-18
3.16458e-17
3.28532e-17
3.97837e-19
-6.9613e-18
-7.09393e-18
1.14149e-19
3.35937e-17
3.55658e-17
-3.18071e-18
-4.06439e-17
-3.51963e-17
-6.68979e-18
-4.03329e-17
-6.67701e-17
-9.20378e-18
-3.04749e-18
-3.0518e-17
-5.45208e-18
-3.42449e-18
-3.35702e-17
-3.65351e-17
-3.95744e-17
-7.83226e-17
-1.0121e-16
-4.01735e-17
-4.12344e-17
-1.05641e-16
-7.88849e-17
4.28651e-19
4.12928e-17
2.91729e-18
-7.30493e-17
-1.16368e-16
-1.16066e-16
-7.33891e-17
-1.72374e-18
3.63145e-17
3.59008e-17
3.29009e-17
3.54491e-17
3.16789e-17
-6.92961e-18
-3.83488e-17
-2.74627e-18
3.16481e-17
-2.26265e-18
-3.38476e-17
-2.27971e-18
-3.06641e-18
-7.20217e-17
-1.07345e-16
-7.66907e-17
-7.68332e-17
-1.07792e-16
-7.16535e-17
1.71356e-18
2.84648e-18
-7.02114e-17
-1.17061e-16
-1.06393e-16
-4.13705e-17
-3.8643e-17
-6.01154e-17
-1.09578e-17
-3.50422e-17
-6.53476e-17
-4.2883e-17
-6.97816e-17
-1.07195e-16
-1.15358e-16
-1.11365e-16
-6.96747e-17
-5.14271e-18
7.25656e-19
1.64037e-18
3.216e-17
3.12568e-17
-2.22909e-18
-4.41341e-20
2.93027e-17
7.82254e-20
-3.64272e-17
-3.82408e-17
-4.21646e-17
-7.56636e-17
-7.05448e-17
-8.90731e-18
1.05977e-19
6.05519e-19
2.9628e-17
3.90665e-17
3.72607e-17
-3.19075e-18
-7.61814e-17
-1.08254e-16
-7.67007e-17
-7.59551e-17
-1.03595e-16
-7.11507e-17
-3.7484e-17
-7.30606e-17
-1.10797e-16
-7.31699e-17
-2.93132e-18
-1.06089e-18
-3.16053e-17
-8.54785e-18
-1.04247e-18
-2.00963e-18
)
;

boundaryField
{
    left
    {
        type            zeroGradient;
    }
    right
    {
        type            zeroGradient;
    }
    empty
    {
        type            empty;
    }
}


// ************************************************************************* //
