/*--------------------------------*- C++ -*----------------------------------*\
| =========                 |                                                 |
| \\      /  F ield         | OpenFOAM: The Open Source CFD Toolbox           |
|  \\    /   O peration     | Version:  2106                                  |
|   \\  /    A nd           | Website:  www.openfoam.com                      |
|    \\/     M anipulation  |                                                 |
\*---------------------------------------------------------------------------*/
FoamFile
{
    version     2.0;
    format      ascii;
    arch        "LSB;label=32;scalar=64";
    class       volScalarField;
    location    "0.27";
    object      p;
}
// * * * * * * * * * * * * * * * * * * * * * * * * * * * * * * * * * * * * * //

dimensions      [0 2 -2 0 0 0 0];

internalField   nonuniform List<scalar> 
9600
(
2.24492159153
-0.653091743076
-1.55731918027
-1.94293154335
-2.16226219312
-2.30220573519
-2.40611025896
-2.49365955165
-2.57315907288
-2.64854902699
-2.72192288504
-2.79443153999
-2.86670450863
-2.93907280563
-3.01169296606
-3.08462097108
-3.15785680343
-3.23137207693
-3.30512651305
-3.3790771337
-3.45318317845
-3.52741016525
-3.60172772515
-3.67611171719
-3.75054281364
-3.82500590883
-3.89948932864
-3.97398422869
-4.04848388049
-4.12298303767
-4.19747760026
-4.27196420365
-4.34644007914
-4.42090295645
-4.49535080968
-4.56978172553
-4.64419376041
-4.7185849341
-4.79295320181
-4.86729639587
-4.94161229973
-5.01589859378
-5.09015274567
-5.16437185242
-5.23855279211
-5.31269227697
-5.38678682774
-5.46083266604
-5.53482569354
-5.60876150021
-5.68263534201
-5.75644205646
-5.83017620214
-5.90383201152
-5.97740333005
-6.05088357885
-6.12426570853
-6.19754214844
-6.2707046627
-6.34374437647
-6.41665193377
-6.48941750869
-6.56203063661
-6.63448010645
-6.70675400126
-6.77883970869
-6.85072376315
-6.92239176183
-6.99382847888
-7.06501796846
-7.13594344949
-7.20658712098
-7.2769300933
-7.34695232996
-7.41663255815
-7.48594829632
-7.55487596516
-7.62339089152
-7.69146721016
-7.75907770785
-7.82619370791
-7.89278507059
-7.95882025859
-8.02426630722
-8.08908857562
-8.15325071071
-8.21671487132
-8.2794416476
-8.34138980505
-8.40251623625
-8.46277619083
-8.52212317638
-8.58050856412
-8.63788183505
-8.69419090852
-8.7493818866
-8.8033985746
-8.85618255791
-8.90767374101
-8.95781016451
-9.00652759385
-9.05375978766
-9.09943885169
-9.14349494017
-9.18585586016
-9.22644750178
-9.26519413487
-9.30201781308
-9.33683856341
-9.36957496666
-9.40014408549
-9.42846090369
-9.45443835168
-9.47798811647
-9.49902064794
-9.51744444939
-9.53316675752
-9.54609399944
-9.55613124449
-9.56318211388
-9.56714909075
-9.56793428406
-9.56543907325
-9.55956367631
-9.55020799112
-9.53727304766
-9.52065634824
-9.50025598287
-9.47597039254
-9.44769773074
-9.41533575369
-9.37878127168
-9.33793076637
-9.29268038737
-9.24292528401
-9.18855985518
-9.12947677571
-9.06556605041
-8.99671514037
-8.92280691661
-8.84371889645
-8.75932166221
-8.66947622271
-8.57403190066
-8.47282078767
-8.3656539204
-8.2523153763
-8.13255159918
-8.006058891
-7.87246566148
-7.73130410391
-7.58196690684
-7.42363409542
-7.25514646666
-7.07479467245
-6.87999987359
-6.66683103275
-6.42946547142
-6.16855697661
-5.94646140582
0.333382596924
-0.848977181871
-1.45764764795
-1.81167359264
-2.05428899705
-2.22485290656
-2.35292434292
-2.45742647033
-2.54850228415
-2.63178069657
-2.71055353236
-2.78677051974
-2.86159091586
-2.9357030864
-3.00950895558
-3.08323530014
-3.15700188474
-3.23086439849
-3.30484145481
-3.37893116057
-3.45312197429
-3.52739742328
-3.60174089476
-3.67613705037
-3.75057216954
-3.82503481362
-3.89951562379
-3.97400709851
-4.04850325549
-4.12299919239
-4.19749098099
-4.27197535688
-4.34644953599
-4.42091119951
-4.49535827837
-4.56978880656
-4.64420073581
-4.71859197042
-4.79296046224
-4.86730408738
-4.94162058837
-5.01590756772
-5.09016243496
-5.16438233396
-5.23856414425
-5.31270456442
-5.3868001373
-5.46084710035
-5.53484133962
-5.60877840615
-5.68265359
-5.75646173788
-5.83019739472
-5.90385482508
-5.97742795513
-6.05091021761
-6.12429447989
-6.19757311233
-6.2707379459
-6.34378016829
-6.41669039376
-6.48945877461
-6.56207490943
-6.63452763497
-6.70680498478
-6.77889426546
-6.85078203318
-6.9224539909
-6.99389498269
-7.06508903664
-7.13601933899
-7.20666812012
-7.27701650806
-7.34704441067
-7.41673051232
-7.48605240117
-7.55498661678
-7.6235085021
-7.69159210688
-7.75921019132
-7.82633417141
-7.89293398212
-7.95897801336
-8.02443322012
-8.08926503964
-8.15343720199
-8.21691181996
-8.27964946001
-8.34160900887
-8.40274738809
-8.46301966134
-8.52237930227
-8.58077787239
-8.63816493577
-8.69448833092
-8.74969412835
-8.80372620173
-8.85652606993
-8.9080335157
-8.95818670119
-9.00692159645
-9.05417184989
-9.09986943337
-9.14394459365
-9.1863251731
-9.22693692283
-9.26570412598
-9.3025490125
-9.33739157493
-9.37015015771
-9.40074167379
-9.42908118511
-9.45508177171
-9.47865489024
-9.49971102904
-9.51815895518
-9.53390582331
-9.54685785092
-9.55692028594
-9.56399709301
-9.56799059103
-9.5688025394
-9.56633461841
-9.56048736478
-9.55116017956
-9.53825150565
-9.52166192118
-9.50128994589
-9.47703452632
-9.44879402672
-9.41646674624
-9.37995047142
-9.33914256589
-9.29394039604
-9.2442405715
-9.18993913723
-9.13093109562
-9.06710900201
-8.99836375552
-8.92458290444
-8.84564947779
-8.76144084647
-8.67182618654
-8.57666591165
-8.47580682488
-8.36907836251
-8.25628892764
-8.13721799487
-8.01160709682
-7.87914886352
-7.73947023772
-7.5921109761
-7.43649534613
-7.27189488183
-7.09740428811
-6.91199361506
-6.71472612762
-6.50457022261
-6.28161731784
-6.06752584778
-0.64245890381
-1.12383206772
-1.5150877923
-1.80670566026
-2.02827806953
-2.1962143308
-2.32831610468
-2.43810416807
-2.53396291471
-2.62110755916
-2.70284961126
-2.78128399125
-2.85773095221
-2.93302025346
-3.00766802094
-3.08198966778
-3.15617233102
-3.23032206599
-3.30449474263
-3.37871568967
-3.45299282693
-3.52732414881
-3.60170287283
-3.67612056971
-3.75056829559
-3.82503784701
-3.89952206024
-3.9740148526
-4.04851117608
-4.12300668785
-4.19749776238
-4.27198136497
-4.34645485503
-4.42091597516
-4.49536267282
-4.56979297889
-4.64420481862
-4.71859600959
-4.79296446289
-4.86730810524
-4.94162471951
-5.01591187025
-5.09016694956
-5.16438711976
-5.23856928121
-5.312710118
-5.38680614363
-5.46085362356
-5.53484842323
-5.60878605039
-5.68266183442
-5.7564706311
-5.8302069916
-5.90386518683
-5.9774391625
-6.05092235149
-6.12430758703
-6.19758719354
-6.27075302848
-6.34379636926
-6.41670784668
-6.48947753649
-6.5620950218
-6.63454919824
-6.70682811608
-6.77891900298
-6.85080838813
-6.9224820684
-6.99392499059
-7.06512114879
-7.13605365358
-7.20670472193
-7.27705548782
-7.34708584655
-7.41677449248
-7.48609906862
-7.5550361968
-7.62356126339
-7.69164826154
-7.75926985233
-7.82639743602
-7.89300102346
-7.95904901289
-8.0245082887
-8.08934431951
-8.1535209257
-8.2170002069
-8.27974266474
-8.34170723561
-8.40285093802
-8.46312875329
-8.52249403445
-8.58089843162
-8.63829163719
-8.69462138317
-8.7498335778
-8.80387222164
-8.85667898375
-8.90819349167
-8.95835372575
-9.007095893
-9.05435383969
-9.10005933409
-9.14414246161
-9.18653123952
-9.22715139082
-9.26592695767
-9.30278029537
-9.3376317187
-9.37039958752
-9.4010006699
-9.42935032345
-9.45536156276
-9.47894557328
-9.50001280199
-9.5184724419
-9.53423174083
-9.54719659925
-9.55727210576
-9.56436249234
-9.56837039503
-9.56919755102
-9.56674572836
-9.56091586231
-9.55160783563
-9.53872088157
-9.52215505534
-9.50180946321
-9.47758318716
-9.44937473162
-9.4170827927
-9.38060606548
-9.33984299624
-9.29469223637
-9.2450518449
-9.19081944524
-9.13189231906
-9.06816566037
-8.99953350568
-8.92588772601
-8.84711691181
-8.76310564636
-8.67373146276
-8.5788652642
-8.47836825448
-8.37208822532
-8.25985707637
-8.14148602716
-8.01676015805
-7.88543196704
-7.74721351794
-7.60176979915
-7.44871615025
-7.28762131003
-7.11804401793
-6.93964767959
-6.75248481925
-6.55712323091
-6.35470322593
-6.15367747668
-1.19391947944
-1.38027009182
-1.62271452224
-1.84518462951
-2.03237432522
-2.18640214931
-2.31483976728
-2.42512987176
-2.52292442849
-2.6122845068
-2.69605544935
-2.77618203753
-2.85397172647
-2.93029363081
-3.00571816748
-3.08061406007
-3.15521495136
-3.22966515643
-3.30405088184
-3.37842089896
-3.45280081047
-3.5272019614
-3.60162778953
-3.67607626118
-3.75054382897
-3.82502583133
-3.89951757446
-3.97401469303
-4.04851333747
-4.12300995722
-4.19750138766
-4.2719849359
-4.34645822964
-4.42091915556
-4.49536568339
-4.56979582217
-4.64420753064
-4.71859865528
-4.79296708158
-4.86731073213
-4.94162742621
-5.01591473109
-5.09016998953
-5.16439035279
-5.23857275044
-5.31271386455
-5.3868101594
-5.46085784703
-5.53485283829
-5.60879070576
-5.68266676882
-5.75647592375
-5.83021275838
-5.90387150737
-5.9774460626
-6.05092984126
-6.12431571144
-6.19759597462
-6.27076245722
-6.34380649281
-6.4167187911
-6.48948938582
-6.56210773387
-6.63456270745
-6.70684242021
-6.77893416395
-6.85082449157
-6.92249924492
-6.99394336051
-7.06514081401
-7.13607467748
-7.20672711469
-7.27707922807
-7.34711095629
-7.41680108485
-7.48612729391
-7.55506618825
-7.62359316544
-7.69168224981
-7.75930605983
-7.8264358852
-7.89304170783
-7.95909200196
-8.0245536927
-8.08939224669
-8.15357151241
-8.2170536209
-8.27979901411
-8.34176656783
-8.40291341618
-8.46319461205
-8.52256338164
-8.58097133944
-8.63836832675
-8.69470207696
-8.74991825088
-8.80396084475
-8.85677184089
-8.9082909382
-8.95845602723
-9.00720314349
-9.0544664062
-9.10017751181
-9.14426634592
-9.18666115107
-9.22728775503
-9.26606985925
-9.3029297437
-9.33778802857
-9.37056312684
-9.40117145446
-9.4295281283
-9.45554653702
-9.47913801728
-9.50021285647
-9.51868041421
-9.53444826293
-9.54742229514
-9.55750726847
-9.56460727529
-9.56862534118
-9.56946343552
-9.5670233191
-9.56120605935
-9.55191191343
-9.53904035363
-9.52249140747
-9.50216474525
-9.47796020371
-9.44977700199
-9.41751442067
-9.38107212437
-9.34034968233
-9.29524708352
-9.24566412155
-9.19150025975
-9.1326553756
-9.06902794445
-9.00051557468
-8.92701461237
-8.84841939722
-8.76462224307
-8.67550996639
-8.58096461826
-8.48086214443
-8.37506941365
-8.26344268977
-8.1458250126
-8.02204463812
-7.89191193768
-7.75521754556
-7.61173573095
-7.4612342036
-7.3034924154
-7.13834741121
-6.96577919151
-6.78607440395
-6.59988912685
-6.40811074813
-6.21386882664
-1.53126489606
-1.58303244287
-1.72692420149
-1.89121967108
-2.04555196786
-2.18360941475
-2.3057634521
-2.41455148926
-2.51299541755
-2.60382563467
-2.68923319607
-2.77087107037
-2.84994101467
-2.92729481887
-3.00352411709
-3.07903270172
-3.15409122268
-3.22887768831
-3.30350688014
-3.37805077087
-3.45255319946
-3.52703961194
-3.60152376993
-3.67601143157
-3.75050499218
-3.82500389463
-3.89950635628
-3.97401005666
-4.04851256268
-4.123011321
-4.19750380373
-4.27198775964
-4.34646114836
-4.42092206423
-4.49536854569
-4.56979857674
-4.644210152
-4.71860120023
-4.792969623
-4.8673133094
-4.94163008698
-5.01591755084
-5.09017301333
-5.16439359593
-5.23857624889
-5.31271767128
-5.38681431163
-5.4608623637
-5.5348577524
-5.60879604796
-5.682672482
-5.756482065
-5.83021944922
-5.90387880827
-5.97745393136
-6.05093826999
-6.12432472993
-6.19760565287
-6.27077286478
-6.34381769528
-6.41673087478
-6.48950242888
-6.56212174514
-6.63457765039
-6.70685830451
-6.77895109483
-6.85084263794
-6.92251873535
-6.99396426121
-7.06516317891
-7.13609857524
-7.20675259135
-7.27710628808
-7.34713962946
-7.41683149271
-7.48615960034
-7.55510051137
-7.62362960662
-7.69172094851
-7.75934715427
-7.82647946331
-7.89308785721
-7.95914086375
-8.0246054002
-8.08944690183
-8.1536292709
-8.21711464766
-8.27986335643
-8.34183423355
-8.40298456829
-8.4632694942
-8.52264212706
-8.58105403021
-8.63845510011
-8.69479306156
-8.75001346846
-8.80406031363
-8.85687572991
-8.90839948464
-8.95856938756
-9.00732135202
-9.05458950483
-9.1003056466
-9.14439958081
-9.18679953774
-9.2274315141
-9.26621917107
-9.30308461471
-9.33794855696
-9.37072963127
-9.40134421935
-9.4297071554
-9.45573195203
-9.47933030595
-9.50041238796
-9.51888736723
-9.53466300977
-9.54764543843
-9.55773930733
-9.5648485508
-9.56887638475
-9.56972515586
-9.56729667183
-9.56149206446
-9.55221195646
-9.53935646062
-9.52282569254
-9.50251941088
-9.47833796927
-9.45018156456
-9.41795033224
-9.38154489157
-9.34086593957
-9.2958149354
-9.24629364748
-9.19220342152
-9.13344660236
-9.06992520884
-9.0015410235
-8.92819538272
-8.84978835651
-8.76621981784
-8.67738630776
-8.58318155742
-8.4834961899
-8.37821577252
-8.26722060274
-8.15038386122
-8.02757327813
-7.89865113084
-7.76347509865
-7.62190627356
-7.4738227114
-7.3191398704
-7.15784748417
-6.99005567623
-6.81605621128
-6.63628208164
-6.45106025842
-6.26101227296
-1.73533888825
-1.73036514906
-1.81433689482
-1.93512805881
-2.06177097365
-2.18445013246
-2.29934732364
-2.40554341326
-2.50382626571
-2.59561554499
-2.68237649162
-2.76539155853
-2.84569556484
-2.92408225058
-3.00113952618
-3.07729193128
-3.15283958483
-3.22799065648
-3.30288719123
-3.37762422651
-3.45226421199
-3.52684722772
-3.60139800514
-3.67593167509
-3.75045583075
-3.82497487753
-3.89949036589
-3.97400227751
-4.04850974795
-4.12301136349
-4.19750539497
-4.27199011345
-4.34646381012
-4.42092479136
-4.49537123009
-4.56980115552
-4.64421259706
-4.71860355394
-4.7929719605
-4.86731567843
-4.94163251301
-5.01592009031
-5.09017571462
-5.1643964657
-5.23857928927
-5.31272089966
-5.38681772461
-5.46086592512
-5.5348614278
-5.60879987513
-5.68267655727
-5.75648649441
-5.83022430229
-5.90388417917
-5.97745985247
-6.050944697
-6.1243316406
-6.19761309479
-6.27078090586
-6.34382636216
-6.41674019402
-6.48951245224
-6.56213249013
-6.63458906355
-6.70687035603
-6.77896386065
-6.85085624988
-6.92253329966
-6.993979849
-7.06517982707
-7.13611629353
-7.20677140278
-7.27712624707
-7.34716078253
-7.41685390345
-7.48618341985
-7.55512592558
-7.62365670912
-7.69174975748
-7.75937772593
-7.82651186429
-7.89312211902
-7.95917708775
-8.02464376239
-8.08948748897
-8.15367207446
-8.2171597818
-8.27991106085
-8.34188457312
-8.4030374715
-8.46332510007
-8.52270073693
-8.58111574859
-8.63851987239
-8.69486104825
-8.75008493026
-8.80413530207
-8.85695429215
-8.90848189706
-8.95865595189
-9.00741221388
-9.05468472643
-9.10040550535
-9.14450429257
-9.18690907483
-9.22754598874
-9.26633893733
-9.30320985346
-9.33807928341
-9.37086603361
-9.40148654578
-9.42985540317
-9.4558861598
-9.47949095781
-9.50058006315
-9.51906233036
-9.53484547571
-9.5478358056
-9.55793807361
-9.56505624289
-9.56909371705
-9.56995309129
-9.56753638359
-9.56174483147
-9.55247914901
-9.53963992834
-9.52312779676
-9.50284282256
-9.47868566857
-9.45055740238
-9.41835909526
-9.38199233806
-9.341358993
-9.2963619785
-9.24690514001
-9.19289191587
-9.1342269762
-9.07081562601
-9.00256386152
-8.92937825592
-8.85116445787
-8.76782932158
-8.67927872482
-8.5854176792
-8.48615057701
-8.38137990627
-8.27100794489
-8.15493472307
-8.03306083346
-7.90529071915
-7.77153403623
-7.63171434668
-7.48578177433
-7.33372842329
-7.17561307728
-7.01157680859
-6.84185170064
-6.66667934398
-6.48608597412
-6.29986306458
-1.85846740432
-1.83301634979
-1.88237225689
-1.97253316017
-2.07745838041
-2.18677991015
-2.29461706507
-2.39784091298
-2.49551456932
-2.58790510044
-2.67577659462
-2.76002049477
-2.84147565141
-2.92085352099
-2.9987212565
-3.07551314832
-3.15155213045
-3.22707273981
-3.30224225318
-3.37717779279
-3.45195998537
-3.5266434412
-3.60126422077
-3.67584586573
-3.75040223609
-3.82494269094
-3.89947212818
-3.97399292545
-4.0485058415
-4.1230106334
-4.19750643362
-4.27199208545
-4.34646620651
-4.42092728135
-4.49537364458
-4.56980344304
-4.6442147545
-4.71860560998
-4.79297398542
-4.86731774723
-4.94163465407
-5.01592231371
-5.09017804031
-5.16439889985
-5.23858182915
-5.31272356603
-5.38682054306
-5.46086890923
-5.53486459326
-5.60880329704
-5.68268033482
-5.75649063425
-5.83022878843
-5.90388904273
-5.97746514815
-6.05095043132
-6.12433779737
-6.1976196931
-6.27078801799
-6.34383403705
-6.41674843059
-6.48952124776
-6.56214185266
-6.63459899918
-6.7068809006
-6.77897510281
-6.85086828542
-6.92254618984
-6.9939936403
-7.0651945645
-7.13613200633
-7.20678811922
-7.27714402619
-7.34717968848
-7.41687397948
-7.48620472482
-7.5551485585
-7.62368076132
-7.69177527925
-7.75940477528
-7.82654053001
-7.89315248562
-7.95920925869
-8.02467788118
-8.08952364868
-8.15371023785
-8.21719991987
-8.27995331775
-8.34192910085
-8.40308426325
-8.46337417736
-8.52275230064
-8.58116995253
-8.63857662803
-8.69492033543
-8.75014699558
-8.80420034404
-8.8570223306
-8.9085529614
-8.95873017984
-9.00748968233
-9.0547654488
-9.10048970757
-9.14459225926
-9.18700080368
-9.22764143621
-9.26643836991
-9.30331362386
-9.33818747919
-9.37097871494
-9.4016039452
-9.42997770741
-9.45601343538
-9.47962350784
-9.50071844782
-9.51920698287
-9.53499663768
-9.54799379001
-9.55810334839
-9.56522938774
-9.56927564157
-9.57014479823
-9.56773897536
-9.56195971798
-9.55270782913
-9.5398840824
-9.52338966963
-9.50312535401
-9.47899220282
-9.45089187122
-9.41872623896
-9.38239802445
-9.34181036263
-9.2968673363
-9.2474746832
-9.19353826138
-9.13496523555
-9.07166389374
-9.00354392881
-8.93051693813
-8.85249410565
-8.7693887756
-8.68111536943
-8.58758908297
-8.4887267215
-8.38444543458
-8.27466635326
-8.15931261613
-8.03831122802
-7.91159895706
-7.77912359961
-7.64085157881
-7.49677780925
-7.34693506014
-7.19140975219
-7.03034045951
-6.86390946314
-6.69226858331
-6.51540127453
-6.33306894546
-1.93250908647
-1.90146478654
-1.93139248449
-2.00116514783
-2.09033423416
-2.1892103119
-2.29108958848
-2.39156226333
-2.48848882005
-2.58123514398
-2.66997231267
-2.7552386323
-2.83768353603
-2.91793116003
-2.99652001571
-3.07388659908
-3.1503704075
-3.22622748673
-3.30164665361
-3.37676440072
-3.45167755367
-3.5264537418
-3.60113927664
-3.67576555214
-3.75035176975
-3.8249121643
-3.89945463338
-3.97398376474
-4.04850182939
-4.12300965717
-4.19750716113
-4.27199371398
-4.34646824783
-4.42092941393
-4.49537569896
-4.56980537742
-4.64421657445
-4.71860732732
-4.7929756531
-4.86731946239
-4.94163645957
-5.0159241763
-5.09017993231
-5.16440083474
-5.23858382967
-5.31272565665
-5.38682276345
-5.46087130194
-5.53486716074
-5.60880602276
-5.68268324034
-5.75649378263
-5.83023225285
-5.90389286248
-5.97746934513
-6.05095498895
-6.12434268775
-6.19762491903
-6.27079362832
-6.34384008187
-6.41675489924
-6.48952811147
-6.56214912158
-6.63460671859
-6.70688912811
-6.77898390812
-6.85087772559
-6.92255627496
-6.99400436908
-7.06520598597
-7.13614419368
-7.20680109911
-7.27715780654
-7.34719432734
-7.4168895562
-7.48622127254
-7.55516608681
-7.62369931572
-7.69179492296
-7.75942557863
-7.82656259683
-7.89317590431
-7.95923406428
-8.0247041302
-8.08955145669
-8.15373964817
-8.21723085482
-8.27998579403
-8.34196329257
-8.40312028353
-8.46341201193
-8.52279199916
-8.58121168844
-8.63862045756
-8.69496621011
-8.75019505355
-8.80425080845
-8.85707530471
-8.9086084304
-8.95878818452
-9.00755032793
-9.05482874657
-9.10055573218
-9.14466125315
-9.18707292156
-9.22771663573
-9.26651671177
-9.3033954081
-9.33827285036
-9.37106762137
-9.4016965354
-9.43007436804
-9.45611438803
-9.47972881347
-9.50082839219
-9.51932205962
-9.53511720433
-9.54812014931
-9.55823602477
-9.56536900674
-9.5694230925
-9.57030114536
-9.56790526102
-9.56213722186
-9.5528981514
-9.54008899238
-9.52361134063
-9.50336674148
-9.47925678858
-9.45118362088
-9.41904981306
-9.38275921081
-9.34221634132
-9.29732634087
-9.24799657487
-9.19413533057
-9.13565235477
-9.07245885333
-9.00446771128
-8.9315950425
-8.85375744838
-8.77087421287
-8.68286739058
-8.58966117403
-8.49118349107
-8.38736427407
-8.27813995544
-8.16345292772
-8.04325190077
-7.91749817374
-7.78616735263
-7.64925595585
-7.5067886618
-7.35882290606
-7.20546051376
-7.04684084651
-6.88313524698
-6.71449479745
-6.54099393723
-6.36262238437
-1.97474210404
-1.94318313322
-1.96282636332
-2.02027150307
-2.09928582818
-2.1910640331
-2.28868152849
-2.38706951916
-2.4833511438
-2.57628501414
-2.66561744868
-2.75162130158
-2.83479701662
-2.91569609214
-2.99483029715
-3.07263444804
-3.14945860614
-3.22557410049
-3.30118555588
-3.37644393341
-3.45145833895
-3.52630630856
-3.60104183614
-3.6757017022
-3.75031218768
-3.82488826223
-3.89944087999
-3.973976501
-4.04849858927
-4.12300882149
-4.19750769284
-4.27199495467
-4.34646979689
-4.42093103231
-4.49537726312
-4.56980685058
-4.6442179574
-4.71860864352
-4.79297695327
-4.86732081467
-4.94163787942
-5.01592559923
-5.09018130766
-5.16440220349
-5.23858525673
-5.31272717518
-5.38682439267
-5.46087308832
-5.5348691288
-5.60880814537
-5.68268549826
-5.75649623215
-5.83023495902
-5.90389586027
-5.9774726267
-6.05095852094
-6.12434644514
-6.19762890628
-6.27079787655
-6.34384462308
-6.41675972744
-6.48953319968
-6.56215449206
-6.63461244722
-6.70689528164
-6.77899051652
-6.85088480261
-6.92256381869
-6.9940123676
-7.06521447314
-7.13615325707
-7.20681079647
-7.27716814225
-7.34720531989
-7.4169012532
-7.48623368773
-7.55517919735
-7.62371313285
-7.69180949897
-7.75944099128
-7.8265789674
-7.89319333552
-7.95925255173
-8.02472362329
-8.08957201156
-8.15376138984
-8.21725377909
-8.2800098278
-8.34198850359
-8.4031468214
-8.4634398928
-8.52282113555
-8.5812421677
-8.63865247187
-8.69499980305
-8.75023020843
-8.80428760339
-8.85711384441
-8.90864874038
-8.95883028066
-9.00759436222
-9.05487479312
-9.10060375095
-9.14471132377
-9.18712526264
-9.22777134338
-9.26657376401
-9.30345497086
-9.33833509913
-9.37113249164
-9.4017640644
-9.43014496671
-9.4561884688
-9.47980644553
-9.50090965313
-9.51940733666
-9.53520694252
-9.54821462307
-9.55833583938
-9.56547497947
-9.56953599303
-9.5704219289
-9.56803495233
-9.56227695922
-9.55304953692
-9.54025402628
-9.52379229937
-9.50356645537
-9.47947864025
-9.45143161087
-9.4193286239
-9.38307439238
-9.34257486305
-9.29773651363
-9.24846817491
-9.19468017476
-9.13628467488
-9.07319594575
-9.00532989846
-8.93260656105
-8.85494768275
-8.77227797523
-8.68452630031
-8.59162479862
-8.49351129512
-8.39012730284
-8.28142179053
-8.16735288768
-8.04788764148
-7.92300710329
-7.7927084536
-7.65701125021
-7.51596386916
-7.36964478976
-7.21817406268
-7.06170678149
-6.90043738576
-6.73457159456
-6.56431991567
-6.3899242129
-1.99399109031
-1.96289847998
-1.97812199444
-2.02978817584
-2.10384652902
-2.19204779425
-2.28745158969
-2.3847205921
-2.48063268672
-2.57364340741
-2.66327859518
-2.74966908477
-2.83323346992
-2.91448204227
-2.99391051999
-3.07195172836
-3.14896078752
-3.22521699895
-3.30093337564
-3.37626858736
-3.45133834965
-3.52622558047
-3.60098859688
-3.67566763542
-3.75029059467
-3.82487515941
-3.89943335894
-3.97397253507
-4.04849682642
-4.12300839291
-4.197508037
-4.27199569464
-4.34647071393
-4.42093200824
-4.49537821901
-4.56980773884
-4.64421878047
-4.71860946034
-4.79297782307
-4.86732174356
-4.94163882207
-5.01592648977
-5.09018212766
-5.16440302097
-5.23858615868
-5.31272819965
-5.38682553214
-5.4608743383
-5.53487049053
-5.60880960382
-5.68268703461
-5.7564978876
-5.83023680808
-5.90389792079
-5.97747487335
-6.05096092979
-6.12434901408
-6.19763163105
-6.27080074661
-6.34384764811
-6.41676292294
-6.48953656225
-6.56215803606
-6.63461623568
-6.70689937807
-6.77899492643
-6.85088949557
-6.92256877857
-6.99401759463
-7.06521999474
-7.13615914131
-7.20681712481
-7.27717495373
-7.34721259065
-7.41690893938
-7.48624176999
-7.55518768512
-7.62372205751
-7.69181889952
-7.75945091186
-7.82658948764
-7.89320454864
-7.95926447904
-8.0247361829
-8.08958514469
-8.15377518243
-8.2172683305
-8.28002511893
-8.34200450689
-8.40316361536
-8.46345755665
-8.52283961609
-8.58126144076
-8.63867267336
-8.69502101699
-8.75025240039
-8.80431076806
-8.8571380371
-8.90867397518
-8.95885654422
-9.00762179858
-9.05490355167
-9.10063382439
-9.14474266607
-9.1871579652
-9.22780555783
-9.26660947855
-9.30349221548
-9.33837407188
-9.37117329314
-9.40180668324
-9.43018955639
-9.45623538072
-9.47985598015
-9.50096194697
-9.51946260332
-9.53526559984
-9.54827708181
-9.55840259467
-9.56554691527
-9.56961390836
-9.57050662318
-9.5681274545
-9.56237840995
-9.55316148835
-9.54037855076
-9.5239317568
-9.50372362357
-9.47965679976
-9.45163474459
-9.41956148024
-9.3833423768
-9.3428847364
-9.29809662913
-9.24888825535
-9.19517169808
-9.13686132898
-9.07387453997
-9.00613028308
-8.93355191178
-8.85606603884
-8.77360263017
-8.68609681729
-8.59348796008
-8.49572259087
-8.39275295465
-8.28453924738
-8.17105267902
-8.05227616242
-7.9282085426
-7.79886587937
-7.66428783444
-7.52454463898
-7.37973841842
-7.23001390457
-7.07555700572
-6.91660508581
-6.7534395663
-6.58640261907
-6.41593466501
-1.99399206475
-1.96289751352
-1.97812243977
-2.02978836532
-2.10384628225
-2.1920478624
-2.28745165422
-2.38472055632
-2.48063264762
-2.57364335112
-2.66327854834
-2.74966907941
-2.83323355011
-2.9144821727
-2.99391065514
-3.07195183457
-3.14896082792
-3.22521700944
-3.30093342467
-3.37626870745
-3.45133851686
-3.52622572704
-3.60098868799
-3.67566768293
-3.75029063679
-3.82487523686
-3.89943346646
-3.97397265244
-4.04849695082
-4.12300853213
-4.19750819486
-4.27199586924
-4.34647092664
-4.42093227129
-4.4953784934
-4.56980798144
-4.64421900355
-4.7186097283
-4.79297817322
-4.86732213263
-4.94163918388
-5.01592680183
-5.09018241001
-5.16440332646
-5.23858654957
-5.3127287199
-5.38682618742
-5.46087508695
-5.53487127543
-5.60881040336
-5.68268787464
-5.75649882113
-5.83023787572
-5.90389909889
-5.97747611866
-6.05096223901
-6.1243504064
-6.19763309079
-6.27080222072
-6.34384911546
-6.41676441805
-6.48953812906
-6.56215969836
-6.63461802494
-6.70690133722
-6.77899705846
-6.85089175122
-6.92257111981
-6.99402004984
-7.0652226042
-7.13616194813
-7.2068201746
-7.2771782551
-7.34721609161
-7.41691256537
-7.48624550036
-7.555191553
-7.62372611612
-7.69182319166
-7.75945543213
-7.8265942167
-7.89320953331
-7.95926980195
-8.02474181757
-8.08959095715
-8.15378114534
-8.21727455657
-8.28003166103
-8.34201132078
-8.40317069845
-8.46346499672
-8.52284743064
-8.58126955199
-8.63868108907
-8.69502977011
-8.75026145696
-8.80432013241
-8.85714777364
-8.90868410857
-8.95886702789
-9.00763270378
-9.05491501038
-9.10064587329
-9.14475527072
-9.18717111993
-9.22781935103
-9.26662387934
-9.3035071242
-9.33838964936
-9.37118982455
-9.40182427893
-9.4302081888
-9.45625520645
-9.47987737568
-9.50098519142
-9.51948780721
-9.53529308457
-9.54830743991
-9.55843629541
-9.56558464049
-9.56965651321
-9.57055485076
-9.56818231775
-9.56244121818
-9.55323381121
-9.54046234527
-9.52402934824
-9.50383781262
-9.47979086407
-9.45179257558
-9.41974785956
-9.38356281883
-9.3431459367
-9.29840685069
-9.24925715813
-9.19561072038
-9.1373839309
-9.07449709698
-9.00687243762
-8.93443640114
-8.85712015708
-8.77485887904
-8.68759363872
-8.59527082265
-8.49784481798
-8.39527772147
-8.28754094507
-8.1746177988
-8.05650545448
-7.93321935195
-7.80479415079
-7.6712901286
-7.53279953259
-7.38945112363
-7.2414188998
-7.08892827406
-6.93226702571
-6.77179044139
-6.60794475495
-6.44130098701
-1.97474488084
-1.94318056798
-1.96282759595
-2.020271965
-2.09928510367
-2.19106420081
-2.28868169459
-2.3870694124
-2.48335106229
-2.57628490504
-2.66561733852
-2.75162129466
-2.83479725711
-2.91569647102
-2.99483067247
-3.07263473196
-3.14945872643
-3.22557416185
-3.30118571494
-3.37644427011
-3.45145881373
-3.52630674948
-3.60104213492
-3.67570186861
-3.75031232612
-3.82488850009
-3.89944121168
-3.97397686235
-4.04849895709
-4.12300922
-4.19750815821
-4.27199549094
-4.34647044267
-4.42093180229
-4.49537806042
-4.56980757833
-4.64421865766
-4.71860947188
-4.7929779922
-4.86732196486
-4.94163898832
-5.0159266103
-5.0901822614
-5.16440321491
-5.23858647889
-5.31272871533
-5.38682627295
-5.46087522176
-5.53487138137
-5.60881044878
-5.68268790867
-5.75649890288
-5.83023803599
-5.90389931733
-5.97747635608
-6.05096247914
-6.12435065375
-6.19763332776
-6.27080239312
-6.34384916916
-6.41676434973
-6.48953798432
-6.56215952749
-6.63461786541
-6.70690120766
-6.77899693818
-6.85089158226
-6.92257086923
-6.9940197472
-7.06522230786
-7.13616168596
-7.20681992986
-7.27717797521
-7.34721570897
-7.41691204268
-7.48624485414
-7.55519081123
-7.62372529398
-7.69182231252
-7.75945449609
-7.82659317718
-7.89320834852
-7.95926848702
-8.02474038176
-8.08958931618
-8.1537792298
-8.21727241591
-8.28002938843
-8.34200893863
-8.40316815406
-8.46346228082
-8.5228445636
-8.58126648415
-8.63867775122
-8.69502611591
-8.75025744038
-8.80431572122
-8.85714302285
-8.90867911911
-8.95886179279
-9.0076271779
-9.05490921465
-9.10063983489
-9.14474899874
-9.18716457209
-9.22781254401
-9.26661684106
-9.30349975462
-9.33838196886
-9.37118208609
-9.40181670645
-9.43020080447
-9.45624805238
-9.47987070373
-9.50097931779
-9.5194828478
-9.53528926925
-9.5483054508
-9.55843675071
-9.56558801071
-9.56966355511
-9.57056638676
-9.56819937892
-9.56246515252
-9.55326623202
-9.540505198
-9.52408490278
-9.50390880644
-9.47988059443
-9.4519049441
-9.41988773615
-9.38373590458
-9.34335888192
-9.29866781643
-9.24957588817
-9.19599888677
-9.13785506687
-9.07506726666
-9.00756129848
-8.93526693769
-8.8581196587
-8.77605984565
-8.6890344056
-8.59699688177
-8.4999092932
-8.39774303769
-8.29048091773
-8.17811851996
-8.06066702076
-7.93815813288
-7.81064513009
-7.67820969329
-7.54096739052
-7.39907596599
-7.25274016704
-7.10222497728
-6.94786603778
-6.7900789221
-6.62938011883
-6.46641177336
-1.93251318771
-1.90146132372
-1.93139416032
-2.00116571788
-2.09033324368
-2.18921049743
-2.29108971687
-2.39156206927
-2.48848876904
-2.58123509637
-2.66997223985
-2.75523869884
-2.83768393545
-2.91793172259
-2.9965205415
-3.07388697302
-3.15037058034
-3.22622762985
-3.301646933
-3.37676491373
-3.4516782807
-3.52645445346
-3.60113979751
-3.67576586908
-3.75035203218
-3.82491258463
-3.89945521239
-3.9739843959
-4.04850244944
-4.1230102958
-4.19750791598
-4.27199463185
-4.3464693536
-4.42093067041
-4.49537696084