/*--------------------------------*- C++ -*----------------------------------*\
| =========                 |                                                 |
| \\      /  F ield         | OpenFOAM: The Open Source CFD Toolbox           |
|  \\    /   O peration     | Version:  2106                                  |
|   \\  /    A nd           | Website:  www.openfoam.com                      |
|    \\/     M anipulation  |                                                 |
\*---------------------------------------------------------------------------*/
FoamFile
{
    version     2.0;
    format      ascii;
    arch        "LSB;label=32;scalar=64";
    class       surfaceScalarField;
    location    "0.03";
    object      phi;
}
// * * * * * * * * * * * * * * * * * * * * * * * * * * * * * * * * * * * * * //

dimensions      [0 3 -1 0 0 0 0];

oriented        oriented;

internalField   nonuniform List<scalar> 
799
(
1.95482e-32
4.90892e-32
6.39875e-32
5.48514e-32
3.13014e-32
-3.38332e-32
-9.17171e-32
-1.36112e-31
-1.44689e-31
-1.05469e-31
-4.82325e-32
1.54598e-32
5.53276e-32
6.64359e-32
4.61885e-32
8.26758e-33
-4.13473e-32
-9.24552e-32
-1.31213e-31
-1.57652e-31
-1.47984e-31
-1.10377e-31
-4.77254e-32
2.44969e-32
6.65033e-32
7.69817e-32
3.66604e-32
-3.26641e-32
-9.76994e-32
-1.49084e-31
-1.50763e-31
-1.22337e-31
-7.49217e-32
-1.88357e-32
7.04366e-33
1.90715e-32
2.77873e-33
-3.42573e-32
-6.33172e-32
-9.92322e-32
-1.0746e-31
-9.42773e-32
-7.01445e-32
-2.27974e-32
3.04707e-33
1.39209e-32
-1.4437e-33
-4.98891e-32
-8.93571e-32
-1.2519e-31
-1.26693e-31
-9.24483e-32
-4.88915e-32
5.7673e-33
3.05153e-32
2.46717e-32
-8.13856e-33
-6.69562e-32
-1.12108e-31
-1.37025e-31
-1.23646e-31
-7.03025e-32
-8.02327e-33
4.7066e-32
6.00198e-32
1.94015e-32
-5.42841e-32
-1.37707e-31
-1.83054e-31
-1.6547e-31
-9.40262e-32
7.77594e-33
8.42655e-32
1.00842e-31
5.38072e-32
-3.99275e-32
-1.26392e-31
-1.70986e-31
-1.59435e-31
-1.00138e-31
-3.38534e-32
1.51957e-32
3.06025e-32
1.56354e-32
-8.44673e-33
-3.43553e-32
-5.3899e-32
-7.20072e-32
-9.22821e-32
-1.04522e-31
-1.02538e-31
-7.13993e-32
-1.88325e-32
3.4575e-32
6.723e-32
4.83303e-32
-1.02791e-32
-9.20767e-32
-1.61459e-31
-1.74846e-31
-1.39596e-31
-5.38508e-32
3.69496e-32
9.01561e-32
9.91598e-32
4.1179e-32
-3.81139e-32
-1.11933e-31
-1.55891e-31
-1.38918e-31
-9.51124e-32
-3.23823e-32
1.42293e-32
2.27771e-32
1.12938e-32
-1.93661e-32
-3.62511e-32
-3.38002e-32
-2.11057e-32
-7.25774e-33
-1.72213e-32
-4.77563e-32
-8.93293e-32
-1.20187e-31
-1.18801e-31
-8.41661e-32
-2.48377e-32
3.45855e-32
7.23661e-32
7.76928e-32
4.77141e-32
-4.69445e-33
-6.569e-32
-1.21048e-31
-1.52949e-31
-1.55726e-31
-1.2205e-31
-5.79487e-32
1.57556e-32
8.04973e-32
1.05748e-31
8.3147e-32
1.9903e-32
-6.43308e-32
-1.29212e-31
-1.55751e-31
-1.32302e-31
-7.2105e-32
-9.42838e-33
3.38272e-32
3.45535e-32
-7.67363e-35
-4.71417e-32
-8.43016e-32
-8.48944e-32
-5.20693e-32
-1.341e-33
4.03076e-32
4.3043e-32
2.92651e-33
-6.82609e-32
-1.35177e-31
-1.62193e-31
-1.31368e-31
-5.12615e-32
3.80118e-32
9.60106e-32
8.79992e-32
2.13959e-32
-6.86639e-32
-1.39539e-31
-1.46546e-31
-1.00268e-31
-2.29146e-32
3.96471e-32
4.59349e-32
9.83729e-33
-5.91712e-32
-1.08915e-31
-1.11219e-31
-7.5132e-32
-4.32714e-33
4.49599e-32
5.82176e-32
2.89506e-32
-3.86194e-32
-9.47919e-32
-1.31464e-31
-1.24004e-31
-7.71786e-32
-2.2088e-32
3.35645e-32
5.62883e-32
4.74226e-32
1.55203e-32
-3.34036e-32
-7.14132e-32
-9.60798e-32
-1.00336e-31
-8.32359e-32
-5.7334e-32
-2.2498e-32
1.05312e-32
3.22556e-32
3.8651e-32
1.9246e-32
-2.06819e-32
-6.72932e-32
-1.04134e-31
-1.07491e-31
-7.3718e-32
-1.58541e-32
4.11156e-32
6.19111e-32
3.31843e-32
-3.48699e-32
-1.10392e-31
-1.47884e-31
-1.22126e-31
-3.97689e-32
6.2926e-32
1.29462e-31
1.19399e-31
3.27149e-32
-9.65278e-32
-2.01401e-31
-2.26495e-31
-1.5964e-31
-2.35795e-32
1.10229e-31
1.78475e-31
1.53222e-31
3.95276e-32
-9.72308e-32
-1.97473e-31
-2.19255e-31
-1.50074e-31
-3.81387e-32
7.06816e-32
1.27833e-31
1.0906e-31
3.89564e-32
-5.34413e-32
-1.23034e-31
-1.41135e-31
-1.10529e-31
-4.82566e-32
1.13615e-32
3.92875e-32
2.60903e-32
-1.40021e-32
-5.6845e-32
-7.1942e-32
-4.85816e-32
-5.60024e-33
3.49838e-32
3.70561e-32
-6.86865e-33
-7.22344e-32
-1.31316e-31
-1.40561e-31
-9.2252e-32
-1.22567e-32
6.68114e-32
9.8099e-32
6.92402e-32
2.66804e-33
-7.4049e-32
-1.18881e-31
-1.17498e-31
-8.76012e-32
-4.18077e-32
-1.088e-32
-1.69422e-33
-2.81084e-34
-9.41242e-33
-1.09236e-32
-1.18287e-32
-2.18668e-32
-3.08916e-32
-4.67765e-32
-5.31451e-32
-4.83153e-32
-4.36964e-32
-4.02971e-32
-5.14695e-32
-6.63353e-32
-6.85522e-32
-4.63683e-32
1.88098e-33
5.24547e-32
7.41348e-32
4.24743e-32
-3.49904e-32
-1.26465e-31
-1.80336e-31
-1.61707e-31
-7.70869e-32
3.99463e-32
1.23147e-31
1.34192e-31
7.05124e-32
-3.56929e-32
-1.17015e-31
-1.39049e-31
-9.00557e-32
-7.46298e-34
7.31883e-32
1.05601e-31
8.26297e-32
3.51633e-32
2.4029e-33
2.275e-33
4.36685e-32
9.46502e-32
1.29994e-31
1.3753e-31
1.16782e-31
1.01639e-31
1.09754e-31
1.52418e-31
2.23555e-31
2.88295e-31
3.32736e-31
3.42467e-31
3.29229e-31
3.28249e-31
3.54137e-31
4.29361e-31
5.38025e-31
6.48249e-31
7.40384e-31
7.82284e-31
7.91961e-31
7.94437e-31
8.20413e-31
9.12378e-31
1.05842e-30
1.24573e-30
1.43095e-30
1.56163e-30
1.62327e-30
1.61889e-30
1.55202e-30
1.64156e-30
1.83711e-30
2.85651e-30
4.93676e-30
8.20731e-30
1.47371e-29
1.7072e-29
1.951e-29
2.08848e-30
-4.10122e-29
-9.27342e-29
-1.98672e-28
-1.89653e-28
-1.29197e-28
1.5849e-28
8.02394e-28
1.16744e-27
1.80961e-27
1.0477e-27
-7.70478e-28
-3.04607e-27
-7.55275e-27
-7.22342e-27
-5.94137e-27
1.73772e-27
1.68655e-26
2.26568e-26
3.30374e-26
1.66366e-26
-1.3623e-26
-4.10195e-26
-9.05081e-26
-7.13352e-26
-4.22078e-26
3.1557e-26
1.54611e-25
1.62722e-25
1.91984e-25
5.42972e-26
-1.45614e-25
-2.41577e-25
-4.15725e-25
-2.36538e-25
-3.16581e-26
2.19139e-25
5.8918e-25
4.55141e-25
3.83019e-25
-3.70993e-26
-5.44017e-25
-5.80065e-25
-7.54267e-25
-2.54594e-25
2.23613e-25
5.06833e-25
9.15277e-25
5.06843e-25
2.23628e-25
-2.5458e-25
-7.54262e-25
-5.8007e-25
-5.4403e-25
-3.71133e-26
3.8301e-25
4.5514e-25
5.89185e-25
2.19147e-25
-3.16522e-26
-2.36536e-25
-4.15727e-25
-2.41582e-25
-1.45619e-25
5.42938e-26
1.91982e-25
1.62722e-25
1.54612e-25
3.15576e-26
-4.22078e-26
-7.13356e-26
-9.05085e-26
-4.10202e-26
-1.36235e-26
1.6636e-26
3.30367e-26
2.26562e-26
1.68649e-26
1.73729e-27
-5.94171e-27
-7.22368e-27
-7.55294e-27
-3.04629e-27
-7.70713e-28
1.04741e-27
1.80929e-27
1.16711e-27
8.02076e-28
1.58243e-28
-1.29366e-28
-1.89723e-28
-1.98678e-28
-9.27435e-29
-4.10696e-29
1.92149e-30
1.92563e-29
1.67813e-29
1.44827e-29
8.07572e-30
4.93638e-30
2.97068e-30
1.99311e-30
1.75099e-30
1.57076e-30
1.5207e-30
1.44259e-30
1.35866e-30
1.25992e-30
1.16567e-30
1.08486e-30
1.03133e-30
9.97233e-31
9.58933e-31
8.95269e-31
7.91763e-31
6.57356e-31
5.27449e-31
4.28929e-31
3.88383e-31
3.98906e-31
4.31002e-31
4.58812e-31
4.46377e-31
3.95811e-31
3.14739e-31
2.23583e-31
1.53891e-31
1.11636e-31
1.10526e-31
1.39215e-31
1.7792e-31
2.09601e-31
2.07272e-31
1.66276e-31
9.6608e-32
2.08723e-32
-2.65914e-32
-2.32421e-32
2.47392e-32
9.88174e-32
1.55865e-31
1.60966e-31
1.15213e-31
2.54008e-32
-5.7176e-32
-9.62145e-32
-8.11381e-32
-7.19426e-33
7.3794e-32
1.31115e-31
1.37483e-31
7.99456e-32
-1.89885e-33
-8.23952e-32
-1.19868e-31
-9.2562e-32
-1.85687e-32
7.80664e-32
1.48101e-31
1.5475e-31
9.27426e-32
-1.77186e-32
-1.26328e-31
-1.77971e-31
-1.47896e-31
-4.41613e-32
8.6258e-32
1.78272e-31
1.92695e-31
1.202e-31
-6.56396e-34
-1.12152e-31
-1.6633e-31
-1.42256e-31
-6.26529e-32
3.50339e-32
1.02739e-31
1.20703e-31
8.9716e-32
2.80945e-32
-2.79501e-32
-6.69306e-32
-6.93655e-32
-4.54548e-32
-1.00156e-32
2.86012e-32
4.12916e-32
3.85577e-32
1.38336e-32
-1.61917e-32
-2.57409e-32
-2.44744e-32
5.31135e-33
3.17426e-32
3.8721e-32
2.76898e-32
-1.71062e-32
-5.21797e-32
-6.846e-32
-5.40291e-32
-1.99439e-33
4.36676e-32
7.57955e-32
7.2251e-32
3.42029e-32
-4.75013e-33
-3.99796e-32
-5.04233e-32
-4.41294e-32
-4.11923e-32
-3.72156e-32
-3.89339e-32
-2.55487e-32
1.63021e-32
6.99332e-32
1.20793e-31
1.2444e-31
6.22948e-32
-4.45146e-32
-1.6385e-31
-2.21811e-31
-1.85073e-31
-6.22988e-32
1.08502e-31
2.30869e-31
2.54445e-31
1.59374e-31
-2.35607e-32
-1.93096e-31
-2.8633e-31
-2.48752e-31
-9.51108e-32
8.85789e-32
2.34851e-31
2.60796e-31
1.63111e-31
-1.69045e-33
-1.69864e-31
-2.45713e-31
-2.11888e-31
-9.07771e-32
6.4715e-32
1.65522e-31
1.88245e-31
1.25564e-31
1.47213e-32
-7.96237e-32
-1.37617e-31
-1.33854e-31
-8.94211e-32
-3.38234e-32
2.37117e-32
5.62086e-32
7.37541e-32
7.29326e-32
5.23129e-32
2.46436e-32
-1.65517e-32
-5.23457e-32
-7.81822e-32
-8.72826e-32
-7.35363e-32
-4.72364e-32
-7.85418e-33
2.95781e-32
6.20213e-32
7.73897e-32
6.94809e-32
4.1889e-32
-8.45712e-33
-5.44474e-32
-9.14493e-32
-1.01155e-31
-7.7296e-32
-4.16806e-32
9.63943e-33
4.5044e-32
6.26002e-32
6.47925e-32
3.90527e-32
1.14397e-32
-2.62513e-32
-5.97259e-32
-7.42943e-32
-7.75939e-32
-5.18519e-32
-1.49416e-32
2.41343e-32
5.55932e-32
5.87085e-32
4.27963e-32
7.45997e-33
-3.14092e-32
-5.80961e-32
-6.93395e-32
-5.75753e-32
-3.1662e-32
6.84279e-34
2.83563e-32
4.15715e-32
3.56826e-32
1.53473e-32
-9.55141e-33
-2.86753e-32
-2.89612e-32
-2.04643e-32
-6.7522e-33
-2.41099e-33
-1.54676e-32
-2.65869e-32
-3.35217e-32
-1.34484e-32
2.58769e-32
5.91652e-32
7.32425e-32
3.85893e-32
-2.286e-32
-8.51652e-32
-1.15344e-31
-8.3228e-32
-1.24283e-32
7.23036e-32
1.20667e-31
1.06407e-31
4.21177e-32
-4.74215e-32
-1.06103e-31
-1.11548e-31
-6.12461e-32
1.89155e-32
7.84974e-32
9.62905e-32
5.88115e-32
-7.36066e-33
-6.23053e-32
-8.29769e-32
-5.0986e-32
8.18626e-33
6.35467e-32
8.80926e-32
6.07578e-32
2.61712e-33
-6.16967e-32
-1.01244e-31
-9.03163e-32
-4.10095e-32
3.02612e-32
9.27125e-32
1.15015e-31
9.71481e-32
4.09757e-32
-3.08201e-32
-8.71062e-32
-1.18311e-31
-1.07372e-31
-6.15711e-32
9.02827e-34
6.99918e-32
1.15069e-31
1.27073e-31
9.96157e-32
3.23865e-32
-4.5941e-32
-1.16529e-31
-1.47732e-31
-1.22476e-31
-5.12959e-32
4.71763e-32
1.27858e-31
1.57707e-31
1.23291e-31
3.44928e-32
-6.56065e-32
-1.34346e-31
-1.40489e-31
-8.04988e-32
1.34675e-32
9.77168e-32
1.33351e-31
1.02617e-31
2.6538e-32
-5.83497e-32
-1.11269e-31
-1.02666e-31
-4.56942e-32
3.64791e-32
1.01522e-31
1.1341e-31
7.89767e-32
4.76893e-33
-6.39229e-32
-9.2641e-32
-8.01849e-32
-1.80616e-32
4.67605e-32
8.94865e-32
9.78914e-32
5.5349e-32
4.07906e-33
-4.43277e-32
-6.67989e-32
-4.72876e-32
-1.42286e-32
3.08284e-32
6.1562e-32
6.71495e-32
5.90448e-32
3.4685e-32
1.27439e-32
-2.51274e-34
-7.38022e-33
-5.21167e-33
-2.61677e-33
-4.25209e-33
-2.88295e-33
-2.5511e-33
7.50389e-33
3.06057e-32
5.48281e-32
8.43166e-32
9.32413e-32
7.96557e-32
4.49434e-32
-1.26889e-32
-5.58806e-32
-8.12058e-32
-6.58381e-32
-1.18084e-32
5.29025e-32
1.16791e-31
1.40952e-31
1.26389e-31
7.52286e-32
1.22485e-32
-3.60822e-32
-5.59031e-32
-3.39069e-32
-2.46835e-33
4.70664e-32
6.82336e-32
6.966e-32
6.34443e-32
1.9436e-32
1.08544e-32
-2.08008e-32
-2.61889e-32
-5.44757e-33
)
;

boundaryField
{
    left
    {
        type            calculated;
        value           uniform 0;
    }
    right
    {
        type            calculated;
        value           uniform 0;
    }
    empty
    {
        type            empty;
        value           nonuniform List<scalar> 0();
    }
}


// ************************************************************************* //
