/*--------------------------------*- C++ -*----------------------------------*\
| =========                 |                                                 |
| \\      /  F ield         | OpenFOAM: The Open Source CFD Toolbox           |
|  \\    /   O peration     | Version:  2106                                  |
|   \\  /    A nd           | Website:  www.openfoam.com                      |
|    \\/     M anipulation  |                                                 |
\*---------------------------------------------------------------------------*/
FoamFile
{
    version     2.0;
    format      ascii;
    arch        "LSB;label=32;scalar=64";
    class       volScalarField;
    location    "0.065";
    object      p;
}
// * * * * * * * * * * * * * * * * * * * * * * * * * * * * * * * * * * * * * //

dimensions      [0 2 -2 0 0 0 0];

internalField   nonuniform List<scalar> 
11200
(
160.038363779
157.109762055
155.995914755
155.468592387
155.101279535
154.806528522
154.544924346
154.296438137
154.051983203
153.806986455
153.558745295
153.305497833
153.046003693
152.779318591
152.504667449
152.221369422
151.928791992
151.626330226
151.313419191
150.989453055
150.653783092
150.305769847
149.944770725
149.570125286
149.181165055
148.777186128
148.35747286
147.921296953
147.46791624
146.996575223
146.506505789
145.996927573
145.467047894
144.916062287
144.343156012
143.747504458
143.12827315
142.484618322
141.815687252
141.120618552
140.398542467
139.648581159
138.869848919
138.061452233
137.222489658
136.352051483
135.449219184
134.513064672
133.542649254
132.537022182
131.495218633
130.416256923
129.299134787
128.14282452
126.946266742
125.708362513
124.427963392
123.103858953
121.734761045
120.319283955
118.855919357
117.343004662
115.778682799
114.160852801
112.487105109
110.754635186
108.960133147
107.099639544
105.16835111
103.160354645
101.068265581
98.8827377759
96.5915673139
94.1785983364
91.6217978488
88.8896129464
85.934626302
82.6847351524
78.9884253943
74.230912499
158.245322054
156.887147781
156.096178576
155.596169865
155.205192529
154.881328109
154.596833669
154.332267092
154.076823013
153.824350676
153.571018805
153.314308343
153.052475731
152.784237707
152.508587696
152.224686418
151.931794848
151.62922821
151.316305094
150.992353939
150.656754781
150.308880301
149.948062391
149.573622787
149.184864083
148.781088897
148.361582787
147.925615902
147.472444845
147.001313199
146.511451662
146.002077953
145.47239926
144.92161635
144.348915948
143.753473377
143.134453972
142.491013942
141.822300599
141.127452633
140.40560044
139.655866436
138.877365275
138.069203923
137.23048153
136.360289107
135.457709035
134.521814378
133.551667935
132.54632087
131.504810766
130.426158931
129.309366805
128.153411264
126.957238598
125.719756887
124.439826409
123.116247609
121.747745885
120.332952442
118.870380323
117.358394355
115.79517148
114.178649489
112.506461086
110.775863153
108.983641091
107.12595816
105.198175394
103.194608532
101.108188274
98.9299546117
96.6483720835
94.2483078786
91.7093772808
89.0030927077
86.088664767
82.9081698428
79.3585914165
75.2432486182
157.250129762
156.595929322
156.043574714
155.605959904
155.234342275
154.912251518
154.623168725
154.352958655
154.092526001
153.83608036
153.579733732
153.320799948
153.057361377
152.787984951
152.511543649
152.227103548
151.933850664
151.631043441
151.317987899
150.994038182
150.658457294
150.310620325
149.949852652
149.575471521
149.186785393
148.783089881
148.363666768
147.927785301
147.474702381
147.003662623
146.513898764
146.004632234
145.475070699
144.924403135
144.351815977
143.756486518
143.137581485
142.494258173
141.825664708
141.130940522
140.409216801
139.659616863
138.881256428
138.07324373
137.234679444
136.364656441
135.462259385
134.52656416
133.556637069
132.551533585
131.510296577
130.431953833
129.315514723
128.159965817
126.964265277
125.72733573
124.448055282
123.125246205
121.757660701
120.343963133
118.88270708
117.372306166
115.81099707
114.196805856
112.527497741
110.800482467
109.012717514
107.160603523
105.239825505
103.245143651
101.170106451
99.0066483609
96.7446715842
94.3712475028
91.8696353123
89.2179322273
86.3880644779
83.3482132571
80.0621580572
76.5062978171
156.700365813
156.336984649
155.937086977
155.568097491
155.23048322
154.922385899
154.637031653
154.366341727
154.103988955
153.845345465
153.586990926
153.326390073
153.061638223
152.791262653
152.514081792
152.229108042
151.935480915
151.632421162
151.319196598
150.995099962
150.659501005
150.311664098
149.95091207
149.576561117
149.187914504
148.7842639
148.364888968
147.92905726
147.47602412
147.005032613
146.515313538
146.006085868
145.476558681
144.925933648
144.353397753
143.75812882
143.139290447
142.496039144
141.827523041
141.132882029
140.411248196
139.661746139
138.88349319
138.07559955
137.237168287
136.367295196
135.465068524
134.529568468
133.559866603
132.555024859
131.514094013
130.436111495
129.320098414
128.16505566
126.969958899
125.733752258
124.45534045
123.133579039
121.767261909
120.355104438
118.895724188
117.387622095
115.829142174
114.218426522
112.553370437
110.831573985
109.050261663
107.206181133
105.295478539
103.313542601
101.254813916
99.1125575354
96.8785331588
94.5426832496
92.0928911679
89.5150091937
86.7942049101
83.9206425442
80.8978065824
77.7626594639
156.366315056
156.134519905
155.833107425
155.522130091
155.21729061
154.925268436
154.646296431
154.377177374
154.114228169
153.854158218
153.594205354
153.332129071
153.066132699
152.794762404
152.516816591
152.231273643
151.937236958
151.633894342
151.320487797
150.99629335
150.660610042
150.312737405
149.951983744
149.577653117
149.189041835
148.785437317
148.366116637
147.930345781
147.477379265
147.006460017
146.51681973
146.007678759
145.478245705
144.927716924
144.355276736
143.76009823
143.141349887
142.498190591
141.82977104
141.135233241
140.413711124
139.664331127
138.886212679
138.078468502
137.240204719
136.37052081
135.468509434
134.53325636
133.563840261
132.559331526
131.518791236
130.441269409
129.325802524
128.171410237
126.977091176
125.74181759
124.464528452
123.144120155
121.779433772
120.369246518
118.912257775
117.407059329
115.852109512
114.245716014
112.585986031
110.870778018
109.097644197
107.263761937
105.365850605
103.400074328
101.361933744
99.2461598728
97.0466371835
94.7564345111
92.3681108476
89.874626267
87.271742861
84.5638670598
81.7723726079
78.948001898
156.162919912
155.987018158
155.745822977
155.47849618
155.201307866
154.924668504
154.652978975
154.38647973
154.123719801
153.862718839
153.601440499
153.33801512
153.070813684
152.798441214
152.519700422
152.233549274
151.939061783
151.635395371
151.321765026
150.997423793
150.661647541
150.313726324
149.952955173
149.578628974
149.190037656
148.786463941
148.367181564
147.931454181
147.47853472
147.007664961
146.518075055
146.008983717
145.479598559
144.929116316
144.356724273
143.761601142
143.14291727
142.499833626
141.831499025
141.137055107
140.415636962
139.666373124
138.888385647
138.080790398
137.242697292
136.373210454
135.471428354
134.536443663
133.567342972
132.563206808
131.523108583
130.446113222
129.331275307
128.177636531
126.984222393
125.750037987
124.474062833
123.155245227
121.792496297
120.384672649
118.930558549
117.428855669
115.87818044
114.277018965
112.623704034
110.916385735
109.152993186
107.331192545
105.448343522
103.501459852
101.487184526
99.4018044319
97.2413516796
95.001882174
92.6801076326
90.2746756042
87.7886643223
85.2342738411
82.6385630446
80.0488250727
156.039800786
155.884193214
155.677890516
155.44132669
155.185849224
154.922567441
154.657952742
154.394444348
154.132313518
153.870732117
153.608364792
153.343732709
153.075402964
152.802063335
152.52253767
152.235774344
151.940824628
151.63681951
151.322948703
150.998443346
150.662562335
150.31457952
149.953778797
149.579445747
149.190863798
148.787310927
148.368057505
147.932364853
147.4794843
147.008656636
146.519111792
146.010068851
145.480736268
144.930312674
144.357986431
143.762936015
143.144329674
142.501324209
141.833072549
141.13872117
140.417407697
139.668262867
138.890411496
138.08297291
137.245061288
136.375785957
135.474251685
134.539559036
133.570804369
132.567079578
131.527472233
130.451064616
129.33693244
128.184143178
126.991753822
125.758807909
124.484331479
123.167327357
121.806769578
120.401600619
118.95071441
117.452954764
115.907093548
114.311818672
112.665718498
110.967263988
109.21479098
107.406485849
105.540379349
103.614358235
101.626209962
99.5737312076
97.4549490514
95.2685405788
93.0145911888
90.6958890516
88.3200400136
85.9027486669
83.471059938
81.0645788725
155.965719255
155.815708828
155.628951756
155.412843845
155.173134452
154.920309681
154.66166972
154.400930184
154.139564014
153.8776444
153.61442913
153.348792563
153.079491285
152.805300662
152.525073475
152.237756081
151.942383407
151.638065137
151.323969622
150.999308804
150.663325184
150.315279521
149.954445486
149.580100427
149.191521713
148.787983002
148.368751596
147.933086676
147.480238149
147.009445956
146.519939703
146.010938519
145.481651044
144.931275632
144.359000501
143.76400372
143.145454892
142.502517698
141.834345892
141.140084578
140.418873409
139.669846057
138.8921307
138.084850637
137.247124809
136.378068295
135.47679285
134.542407477
133.57401898
132.570732548
131.531651307
130.455876309
129.342506099
128.190635928
126.999356591
125.767752881
124.494901655
123.179869482
121.821709022
120.419452583
118.972111215
117.478663431
115.938054933
114.349189612
112.710923597
111.022061971
109.281359807
107.487532033
105.639278918
103.735338967
101.774584057
99.7561905601
97.6799279503
95.5466305864
93.3589468477
91.1224672169
88.8473200149
86.550255337
84.2561520374
81.9972708892
155.923441717
155.773993405
155.597575872
155.393834391
155.164297446
154.918584501
154.664220599
154.405579782
154.144872343
153.882778746
153.618981688
153.352621107
153.082602652
152.807774388
152.527015999
152.23927566
151.943577969
151.639017635
151.324747412
150.999964845
150.663899966
150.315803987
149.954942363
149.580586341
149.192008696
148.788479776
148.369264521
147.933620474
147.480796473
147.010031863
146.520555979
146.011587955
145.482336639
144.932000727
144.359769158
143.764821771
143.146330111
142.503456322
141.835355951
141.141177568
140.420063167
139.671149122
138.893566995
138.086444254
137.248904928
136.380070304
135.479059734
134.544991508
133.576983693
132.574154861
131.535624682
130.460514372
129.347946977
128.197047534
127.006943085
125.776762494
124.505636015
123.192694553
121.837068438
120.437889184
118.994288137
117.505390256
115.970320289
114.388202146
112.758163343
111.07934423
109.350915053
107.572105816
105.742255877
103.860896418
101.927879072
99.9435822346
97.9092237121
95.8273251428
93.7023810735
91.5417627526
89.3568354044
87.1641787223
84.9860494423
82.8488728194
155.904164977
155.754286307
155.582321073
155.384381794
155.159815451
154.917690982
154.665551076
154.408038884
154.147710258
153.885548787
153.621457789
153.354719326
153.084320978
152.809151966
152.528108059
152.240139503
151.944266017
151.639574646
151.325209941
151.000361771
150.66425352
150.316131125
149.955255596
149.580894998
149.19231967
148.788798212
148.369594331
147.933964736
147.481157774
147.010412653
146.52095869
146.012015237
145.482791531
144.932486869
144.360291004
143.765384648
143.146939939
142.504121335
141.83608597
141.141984181
140.420960369
139.672153889
138.894699917
138.087730285
137.250374299
136.381759653
135.481013514
134.54726372
133.579639997
132.577275108
131.539305909
130.464874418
129.353128901
128.203225019
127.014327011
125.785608962
124.516256247
123.20546719
121.852454461
120.456446629
119.016695912
117.532476645
116.003090785
114.427881536
112.806244192
111.137645187
109.421652559
107.657980678
105.846554891
103.987615095
102.08186433
100.130688079
98.1364593634
96.1029618576
94.0359562064
91.9438733331
89.8385638977
87.7359614158
85.6559746631
83.6207743719
155.904168238
155.75430307
155.582348765
155.38441864
155.159860641
154.917743625
154.665610232
154.408103685
154.147779984
153.885622889
153.621535896
153.354801208
153.084406471
152.809240915
152.528200306
152.240234931
151.944364609
151.6396765
151.325315241
151.000470726
150.664366334
150.316248069
149.955377012
149.581021352
149.192451585
148.788936467
148.369739864
147.934118669
147.481321475
147.01058764
146.521146994
146.012219307
145.483014297
144.932731839
144.360562414
143.765687706
143.147281242
142.504508922
141.836529534
141.14249545
140.421553538
139.67284615
138.895512108
138.088687646
137.251507403
136.383105568
135.482617252
134.549180006
133.581935373
132.580030426
131.542619346
130.46886513
129.357941498
128.209034998
127.021347348
125.79409809
124.526527684
123.217901171
121.867512379
120.474687825
119.038797015
117.559262599
116.035562391
114.467246585
112.853963687
111.195486699
109.491751015
107.742908708
105.949414627
104.112191096
102.232645815
100.312937887
98.3563097713
96.3674361212
94.3528828578
92.3216346956
90.285603519
88.2599856412
86.2629033178
84.3136823782
155.923451523
155.774044021
155.597659492
155.393945608
155.164433787
154.918743164
154.664398689
154.405774729
154.145082004
153.883001481
153.61921637
153.352867022
153.082859298
152.808041309
152.527292752
152.239561934
151.943873731
151.639323178
151.325063275
151.000291637
150.664238271
150.316154587
149.955306297
149.580965
149.192403915
148.788893851
148.369700205
147.93408105
147.481285918
147.010555022
146.521118815
146.012197666
145.483001885
144.932732017
144.360579373
143.765726667
143.147348642
142.504612589
141.836678979
141.142702211
140.421831599
139.673212469
138.895987237
138.089296476
137.252280074
136.384078638
135.483835148
134.550696767
133.583816702
132.582356122
131.545486244
130.472390698
129.362268212
128.214335655
127.027831476
125.80201972
124.536194752
123.229686866
121.881869015
120.492164431
119.060053852
117.585092471
116.06692936
114.505321306
112.900162649
111.251513619
109.559649428
107.825124566
106.048847434
104.232137681
102.377010296
100.486311846
98.5639291638
96.6151347492
94.6469740561
92.6686780375
90.6920358091
88.7316218677
86.804372431
84.9279790585
155.965735712
155.815794298
155.629092821
155.41303114
155.173363654
154.920575965
154.661968195
154.401256578
154.139914785
153.878016801
153.614821233
153.349203106
153.079919396
152.805745614
152.525534626
152.238233013
151.942876118
151.638574107
151.324495722
150.999853017
150.663888379
150.315862877
149.955050824
149.580730062
149.192178636
148.788670946
148.369475071
147.933851097
147.481050091
147.010313454
146.520872526
146.011948404
145.482752053
144.932484721
144.360338568
143.765497345
143.147136978
142.504426103
141.836526758
141.142595283
140.421783378
139.673239251
138.896108777
138.089536688
137.25266792
136.384649273
135.484631341
134.551770568
133.585231378
132.584188462
131.547829371
130.475357525
129.365995643
128.218989641
127.033613117
125.809172613
124.545013833
123.240528996
121.895165601
120.508437179
119.07993635
117.609349404
116.096473682
114.54124644
112.943769036
111.304354518
109.623574698
107.902322567
106.141897881
104.344108291
102.5114061
100.647065043
98.7554004655
96.8420400272
94.9142393798
92.9812269035
91.0545354395
89.1482589361
87.2787391698
85.4631565274
156.039824164
155.884315543
155.678091951
155.441593317
155.186174547
154.922944401
154.65837436
154.394904652
154.132807601
153.87125614
153.608915977
153.344309177
153.076003433
152.802686839
152.523183454
152.236441969
151.941514142
151.637531507
151.323684274
150.999203794
150.663348916
150.315393754
149.954623366
149.580323806
149.191779366
148.788269028
148.369064276
147.933427743
147.480612384
147.009860995
146.520405942
146.011469102
145.482262111
144.931986908
144.359836453
143.764995462
143.146641014
142.503943061
141.836065203
141.142165542
140.421397972
139.672913427
138.89586094
138.089389113
137.252647637
136.384789175
135.484971506
134.552359783
133.586128903
132.585466169
131.549574386
130.477675467
129.369014542
128.222864643
127.038532103
125.815362935
124.552750404
123.250143935
121.907059622
120.523092764
119.097933141
117.631384013
116.12338475
114.574038215
112.98364398
111.35273899
109.682149397
107.973055064
106.227069972
104.446340275
102.633666658
100.792650356
98.9278739009
97.0451206138
95.1516360727
93.2564335166
91.3706491509
89.5079609281
87.6845617206
85.9181241204
156.162950776
155.987180938
155.746089869
155.478847821
155.201735091
154.925161693
154.653528932
154.387078798
154.124361776
153.863398837
153.602154897
153.338761386
153.071590103
152.799246611
152.520534003
152.234410627
151.93995093
151.636312733
151.322711454
150.998400457
150.662656422
150.314771443
149.954039002
149.579755022
149.191210674
148.787689923
148.368467938
147.932810063
147.479971229
147.009195667
146.519716762
146.010757161
145.481529197
144.931235534
144.359069827
143.764217456
143.145856361
142.503157779
141.835286827
141.141403526
140.420663846
139.672221029
138.895227091
138.088834097
137.252195981
136.384470729
135.484822673
134.552424869
133.586461682
132.586131817
131.550651881
130.479260532
129.371223168
128.225837277
127.04243872
125.820409188
124.559184886
123.258266689
121.917232279
120.535750677
119.113599613
117.65068636
116.147072562
114.60300423
113.018947333
111.395631233
109.73410029
108.035775791
106.302529955
104.536773224
102.741559356
100.920705088
99.0789290695
97.2220171427
95.3570255611
93.4925452751
91.6390999416
89.8098168286
88.0208517984
86.2910872421
156.366353989
156.134727916
155.833446202
155.522573715
155.217826547
154.92588406
154.646980177
154.37791992
154.115022124
153.854997782
153.595086142
153.333047957
153.067087608
152.795752084
152.517840432
152.232331573
151.938329275
151.635021549
151.321651314
150.997495231
150.661849788
150.314020391
149.953313522
149.579033661
149.190478517
148.786936915
148.367687577
147.931998434
147.479126259
147.008316533
146.518803482
146.009810397
145.480550295
144.930226681
144.358034253
143.763159475
143.144781044
142.502070525
141.834193265
141.140311054
140.419581817
139.671161076
138.894203243
138.087863603
137.251300216
136.383675873
135.484160642
134.551934424
133.586189787
132.586135441
131.551000141
130.480037276
129.372530059
128.227797483
127.045201282
125.824153643
124.564127306
123.264667536
121.9254051
120.546072289
119.126522112
117.666751001
116.166925494
114.627413688
113.048822234
111.432040181
109.778290223
108.089188115
106.366810792
104.613772936
102.833312454
101.029382301
99.2067474331
97.3710907294
95.529141669
93.6888612908
91.8598261146
90.0541547849
88.2873863074
86.5794118053
156.700412708
156.337241473
155.937500092
155.568633461
155.231125442
154.92311824
154.637840049
154.367215247
154.10491913
153.846325715
153.588016249
153.327456867
153.062744171
152.792406615
152.515263722
152.230328973
151.93674292
151.633727617
151.320555382
150.996525936
150.660954719
150.313160223
149.952460989
149.578169634
149.189589876
148.786014925
148.366726671
147.930995374
147.478079488
147.007225429
146.517667905
146.008630528
145.479326429
144.928959224
144.356724105
143.761808473
143.143392631
142.500649679
141.832747016
141.138846675
140.418107775
139.669687524
138.892742651
138.086430833
137.249912953
136.382355751
135.48293414
134.55083386
133.585254399
132.585412538
131.550546944
130.479923105
129.372838798
128.228630491
127.046680955
125.826428739
124.567378093
123.2691108
121.931301296
120.55373399
119.136323651
117.679139369
116.182432523
114.646669508
113.072569865
111.461150449
109.813775832
108.132214897
106.418703096
104.676009351
102.90750536
101.117231904
99.3099551223
97.4912095431
95.6673305625
93.8454840563
92.0338817502
90.2427708327
88.485242554
86.7796334304
157.250189247
156.596248945
156.044072038
155.606593446
155.235091649
154.913097205
154.624094405
154.353951988
154.09357758
153.837182883
153.580881529
153.321988714
153.058588034
152.789247516
152.512841096
152.228435844
151.935219434
151.632453464
151.319441365
150.995504747
150.659975015
150.312190029
149.951477558
149.577157321
149.188538255
148.784917247
148.365578773
147.92979498
147.476825648
147.005918407
146.516308717
146.007220793
145.477868467
144.927455683
144.355176275
143.76021769
143.141759871
142.49897647
141.831035955
141.137102132
140.416335526
139.667894696
138.890937853
138.084624858
137.248119454
136.380591562
135.481219724
134.549193803
133.583718439
132.584017164
131.549336686
130.47895201
129.372172348
128.228347903
127.046877711
125.827218935
124.568899266
123.271528639
121.93481498
120.558582501
119.142793091
117.687571278
116.193233274
114.660320678
113.089639223
111.482302824
109.839782863
108.163961739
106.457191308
104.722354753
102.962922966
101.183002288
99.3873595074
97.581412897
95.7711591368
93.9629420868
92.1633201268
90.3796457743
88.6187919988
86.8885649262
158.245429299
156.887613238
156.096868805
155.597031389
155.206201473
154.882463089
154.598077465
154.333606848
154.078248999
153.825855323
153.57259607
153.315953313
153.054184304
152.786006193
152.510412186
152.226561795
151.933713129
151.631179561
151.318297284
150.994403487
150.658886096
150.311084856
149.95033653
149.575968198
149.187293686
148.783613072
148.364212801
147.928365533
147.475328154
147.004349699
146.514667042
146.005504648
145.476076449
144.925587183
144.35323419
143.758204881
143.139679094
142.496830669
141.828828104
141.134835589
140.414014269
139.665523579
138.888522909
138.082173594
137.245641149
136.378097622
135.478724101
134.546713608
133.58127456
132.581634747
131.547046139
130.476790153
129.370183718
128.226586394
127.045408844
125.826122727
124.568270927
123.271482447
121.935488158
120.560139516
119.145430518
117.691523217
116.198777348
114.667784525
113.099407344
111.494823479
109.855574129
108.183614532
106.481375968
104.75182874
102.998520236
101.225619609
99.4379342784
97.6408873297
95.8403806843
94.0422801465
92.2520987228
90.4745367406
88.7045009728
86.9105355455
160.03853793
157.110440105
155.996915676
155.469853388
155.102769669
154.808222555
154.546803429
154.298488876
154.054196167
153.809355114
153.561265338
153.308166854
153.048821249
152.782286464
152.507789998
152.224654134
151.932249838
151.629969185
151.317219598
150.993422555
150.657918728
150.31008344
149.949274407
149.574829528
149.186069502
148.782298887
148.362806827
147.92686837
147.473748682
147.002693366
146.512936129
146.003700936
145.474201549
144.923642107
144.351218016
143.756116891
143.13751921
142.494599169
141.826525674
141.132463351
140.411573771
139.663016881
138.885952749
138.079543583
137.242955917
136.375362925
135.475946961
134.543902557
133.578439997
132.578789483
131.544205824
130.47397378
129.367414246
128.223891472
127.042821536
125.823682329
124.566025354
123.269489476
121.933817187
120.558873714
119.144669313
117.691385251
116.199403911
114.669343509
113.102097493
111.498878785
109.861269885
108.19128166
106.491402115
104.764641653
103.01460817
101.245543439
99.4623457999
97.670553618
95.8762707612
94.0861280624
92.3067619117
90.5435586894
88.7777087381
86.88170333
66.7966343177
63.2543050847
60.8728788508
58.9298397224
57.2731990632
55.8297044146
54.5534614404
53.4140168788
52.3899282214
51.465286576
50.6277486538
49.8673203491
49.1756157463
48.5454192486
47.9704265851
47.4450842573
46.9644794431
46.5242557545
46.1205443329
45.7499057779
45.4092795301
45.0959379454
44.8074442642
44.5416154761
44.2964909139
44.0703061457
43.8614708101
43.6685491221
43.4902423437
43.3253728478
43.1728697617
43.0317567627
42.9011425166
42.7802127841
42.6682229728
42.5644905639
42.4683883742
42.3793395827
42.2968139228
42.2203236709
42.1494195297
42.0836873032
42.022747773
41.9662598713
41.9138724481
41.8652660411
41.8201521918
41.7782651509
41.7393564417
41.7031936516
41.6695612913
41.6382615728
41.6091124729
41.5819450531
41.5566051786
41.5329651214
41.5108609363
41.490167159
41.4707672438
41.4525536198
41.4354261287
41.4192912517
41.4040619066
41.38965782
41.3760064952
41.3630413848
41.3506992828
41.338920187
41.3276496447
41.3168395789
41.306445986
41.2964259985
41.2867376662
41.2773430182
41.2682092492
41.2593063799
41.2506047368
41.2420746397
41.2336893405
41.2254260495
41.2172630459
41.2091779404
41.2011479985
41.1931516045
41.1851682523
41.1771783729
41.1691632598
41.1611025707
41.152973619
41.1447532166
41.136419792
41.1279520933
41.1193259514
41.1105132387
41.1014844255
41.0922103014
41.0826592868
41.0727952192
41.0625785103
41.0519661598
41.040910965
41.0293617393
41.017262056
41.0045482433
40.991151494
40.9769977611
40.9620026212
40.9460704166
40.9290970268
40.9109688536
40.8915583233
40.8707231604
40.8483065628
40.8241361233
40.7980184913
40.7697394805
40.739062576
40.7057202384
40.6694232393
40.629832151
40.5865755995
40.5392432775
40.4873540962
40.4303689207
40.3676900017
40.2986087251
40.2223089118
40.1378654263
40.0441785981
39.9399552486
39.8236297214
39.6932822734
39.5465123929
39.3802673029
39.1905802728
38.972118028
38.7175262592
38.416947533
38.0567461658
37.6175896389
37.0753488451
36.4024484606
35.5752578572
34.5857576964
33.452235405
32.2208858303
30.9516913023
29.7001024331
28.4985969546
27.3424392693
26.1816103421
24.9247314821
23.4565249751
21.6606544765
19.4453661389
16.7824199795
13.6903646289
10.0217787374
5.51720674474
1.20077080646
69.9856663093
65.9360227274
63.2348051549
61.0973226141
59.3108118036
57.7740033979
56.4268466796
55.2314441327
54.1619296307
53.1995643275
52.3301035629
51.5422227511
50.8265762392
50.1752411189
49.5813840567
49.0390516265
48.5430258113
48.0887151266
47.6720677899
47.2895006071
46.9378385647
46.6142615075
46.3162567021
46.0415778264
45.7882108385
45.5543458039
45.3383528967
45.1387615974
44.9542423363
44.7835898951
44.6257084006
44.4795986442
44.3443480396
44.219122126
44.1031566044
43.995749675
43.8962553164
43.8040781392
43.7186692979
43.6395217951
43.5661658569
43.4981647959
43.4351111573
43.3766269283
43.3223715294
43.2720308213
43.2253107312
43.1819366573
43.1416516804
43.1042168792
43.0694110968
43.037030819
43.0068874329
42.9788052853
42.9526194551
42.9281746799
42.9053274999
42.8839485023
42.8639182642
42.8451256663
42.8274670643
42.8108454202
42.7951699906
42.7803576246
42.7663333473
42.7530280938
42.7403761532
42.7283149107
42.716788181
42.7057464923
42.6951438859
42.684935789
42.6750789696
42.6655343873
42.6562683684
42.647249899
42.6384478902
42.6298322419
42.621376361
42.6130563838
42.6048507134
42.5967359877
42.5886889688
42.580690027
42.5727173611
42.5647521859
42.5567763627
42.5487687335
42.5407087971
42.5325735763
42.5243428345
42.5159969691
42.5075132526
42.4988642937
42.4900233909
42.4809612811
42.4716520063
42.4620627139
42.4521523814
42.4418848266
42.4312161716
42.4200982901
42.4084817216
42.396306907
42.3835122137
42.3700291161
42.3557815817
42.3406823743
42.3246354519
42.3075367193
42.2892743092
42.2697155498
42.2487163119
42.2261258475
42.2017597597
42.1754313296
42.1469305261
42.1160063722
42.0824094264
42.0458312
42.0059216851
41.9623341776
41.9146246587
41.862299467
41.8048428659
41.7416072322
41.6718539144
41.5947483429
41.5093011025
41.4143652804
41.3085272755
41.1900519637
41.0567597107
40.9058841777
40.7338202427
40.5356650624
40.3046214763
40.031923607
39.7042707264
39.3041269168
38.8085754218
38.1913993996
37.4294224505
36.5132621087
35.4572347016
34.2996318955
33.0901053443
31.8719120206
30.6656982792
29.4577094071
28.1943561486
26.7878422404
25.1332159924
23.1283019685
20.6945252285
17.8105911376
14.496761475
10.6156385632
5.91880420745
1.36885059238
72.1993439885
68.2671795542
65.4107068236
63.1414902262
61.2545374224
59.6406048303
58.2329081333
56.9888550053
55.8793994596
54.8836153869
53.9857149654
53.1732585512
52.4360800491
51.7656454782
51.1546625914
50.5968309704
50.0866686621
49.6193821353
49.1907639053
48.7971092107
48.4351464485
48.1019773438
47.7950252502
47.5119910651
47.2508164584
47.0096534786
46.7868388916
46.5808721792
46.3903962805
46.2141803774
46.0511046336
45.9001473994
45.7603748022
45.6309318669
45.5110345098
45.3999623343
45.2970523312
45.2016935146
45.1133223637
45.0314181766
44.9554990127
44.8851186131
44.8198640274
44.7593534303
44.7032311066
44.651167242
44.6028563591
44.5580148862
44.5163784417
44.4777007491
44.4417533173
44.4083250104
44.3772205457
44.3482583781
44.3212688441
44.2960939915
44.2725840504
44.2506023231
44.2300238046
44.2107329448
44.1926216496
44.1755885847
44.1595396158
44.1443890428
44.1300593426
44.1164786416
44.1035786149
44.0912947203
44.0795690153
44.0683498916
44.0575891975
44.0472407889
44.0372606287
44.0276090449
44.018251119
44.0091542284
44.0002867268
43.9916188682
43.9831238502
43.9747765117
43.9665540582
43.9584337143
43.9503930433
43.9424127261
43.9344714381
43.9265496739
43.9186291992
43.9106899432
43.9027132007
43.8946784367
43.886565776
43.8783553468
43.8700261412
43.8615534481
43.8529129722
43.8440776385
43.8350233191
43.8257209118
43.816132381
43.8062240731
43.7959567163
43.7852870955
43.774171766
43.7625570157
43.7503864243
43.7375979765
43.7241227777
43.7098829869
43.6947936214
43.6787598259
43.6616808288
43.64344078
43.6239064162
43.6029424119
43.5803855321
43.5560680987
43.5298095665
43.5013877646
43.4705746353
43.4370987243
43.4006442025
43.3609301256
43.3175340307
43.2700150448
43.2179576656
43.160761976
43.0977665749
43.0282474558
42.9513242497
42.8659965439
42.7710222278
42.6648639704
42.5455795218
42.4107047961
42.2570212067
42.0801224424
41.8739265962
41.6303116563
41.3372985959
40.9786443908
40.5330588522
39.9757712009
39.284061806
38.4469595518
37.4741265171
36.3954322428
35.2497704546
34.0682837317
32.8602330132
31.6034995787
30.24159906
28.6906787094
26.8557841889
24.6477450437
21.9992232476
18.8938178476
15.352967129
11.2505105068
6.34792951121
1.54451519841
74.007534335
70.2862081785
67.3928042754
65.0518221382
63.0959813943
61.4232793704
59.9669204237
58.682540025
57.5393274079
56.5149184541
55.5924075048
54.758499103