/*--------------------------------*- C++ -*----------------------------------*\
| =========                 |                                                 |
| \\      /  F ield         | OpenFOAM: The Open Source CFD Toolbox           |
|  \\    /   O peration     | Version:  2106                                  |
|   \\  /    A nd           | Website:  www.openfoam.com                      |
|    \\/     M anipulation  |                                                 |
\*---------------------------------------------------------------------------*/
FoamFile
{
    version     2.0;
    format      ascii;
    arch        "LSB;label=32;scalar=64";
    class       surfaceScalarField;
    location    "0.065";
    object      phi;
}
// * * * * * * * * * * * * * * * * * * * * * * * * * * * * * * * * * * * * * //

dimensions      [0 3 -1 0 0 0 0];

oriented        oriented;

internalField   nonuniform List<scalar> 
22100
(
3.3846101295e-05
1.61538987099e-05
2.24571555565e-05
1.13889468091e-05
1.62584626378e-05
6.19869375768e-06
1.27976725411e-05
3.46079077966e-06
1.08045808025e-05
1.99309226909e-06
9.60466986387e-06
1.19991135789e-06
8.85169939849e-06
7.52970809905e-07
8.36524298083e-06
4.86456667467e-07
8.0460086823e-06
3.19234384189e-07
7.83561157458e-06
2.1039697553e-07
7.69760151158e-06
1.38009725594e-07
7.6082070988e-06
8.93939534406e-08
7.55150108505e-06
5.67055281934e-08
7.51665395747e-06
3.48466577895e-08
7.49625642389e-06
2.03970588247e-08
7.48523672321e-06
1.10191898232e-08
7.48011797641e-06
5.1182160263e-09
7.47842231925e-06
1.69519060414e-09
7.47879056259e-06
-3.68557358384e-10
7.48032882775e-06
-1.5384046875e-09
7.48227637118e-06
-1.94758853953e-09
7.48421898317e-06
-1.9426871706e-09
7.48596998279e-06
-1.75120518277e-09
7.48740112712e-06
-1.43149194536e-09
7.48857287948e-06
-1.17217303045e-09
7.48948401433e-06
-9.11536147522e-10
7.49016101919e-06
-6.77325645991e-10
7.49064516777e-06
-4.84382021554e-10
7.49097874877e-06
-3.33754284429e-10
7.49119977687e-06
-2.21164162698e-10
7.49134007696e-06
-1.40387387736e-10
7.49142497687e-06
-8.48863041259e-11
7.49147269888e-06
-4.75442270217e-11
7.49149376157e-06
-2.06941380274e-11
7.49149762067e-06
-3.34755094718e-12
7.49149242136e-06
5.73145161627e-12
7.49148250076e-06
1.03209094103e-11
7.49147033036e-06
1.23251672192e-11
7.49145736772e-06
1.28554302432e-11
7.49144434652e-06
1.27381100058e-11
7.49143152556e-06
1.24940010314e-11
7.49141886148e-06
1.23950693812e-11
7.49140614369e-06
1.25401880125e-11
7.49139311525e-06
1.29351044073e-11
7.49137954481e-06
1.3574632984e-11
7.49136521375e-06
1.44885400989e-11
7.49134983004e-06
1.57444447358e-11
7.49133296646e-06
1.7398516349e-11
7.49131406946e-06
1.94787417202e-11
7.49129246663e-06
2.20701388188e-11
7.49126740948e-06
2.53101208402e-11
7.49123807692e-06
2.93780398542e-11
7.49120354222e-06
3.44583640039e-11
7.4911627563e-06
4.0689901584e-11
7.49111458464e-06
4.81371476666e-11
7.49105790551e-06
5.67776631058e-11
7.49099177151e-06
6.64422646065e-11
7.49091564742e-06
7.6692605821e-11
7.49082964853e-06
8.6794313606e-11
7.4907356748e-06
9.48560728071e-11
7.49063947957e-06
9.69786910715e-11
7.49055320229e-06
8.68363783304e-11
7.4904887958e-06
6.47063705795e-11
7.49046369776e-06
2.51353417154e-11
7.49051542629e-06
-5.19699381136e-11
7.49070598243e-06
-1.91083175077e-10
7.49113658862e-06
-4.31359817838e-10
7.49196855781e-06
-8.32824799147e-10
7.49345496638e-06
-1.48723231062e-09
7.49597539683e-06
-2.52114136201e-09
7.49999605042e-06
-4.02128557213e-09
7.50690694273e-06
-6.91152952015e-09
7.51839636398e-06
-1.14900871932e-08
7.53775038828e-06
-1.9354675286e-08
7.57293760669e-06
-3.51877980554e-08
7.64596232472e-06
-7.30251939837e-08
7.8212836898e-06
-1.75321671221e-07
8.29973686257e-06
-4.78453261246e-07
9.84953047842e-06
-1.54979346561e-06
-5.82608741976e-06
1.56756182127e-05
5.02175698862e-05
1.59363298243e-05
4.42440495222e-05
1.73624687976e-05
3.7779437087e-05
1.26633074233e-05
3.2646174603e-05
8.59405424103e-06
2.89384007279e-05
5.70086692978e-06
2.63605018344e-05
3.77781087438e-06
2.458939054e-05
2.52408252285e-06
2.33768969024e-05
1.6989504179e-06
2.254917241e-05
1.14695861087e-06
2.1986852279e-05
7.72716498998e-07
2.16079391225e-05
5.16922068386e-07
2.13557262276e-05
3.41605980268e-07
2.11907289841e-05
2.21701927381e-07
2.10853410999e-05
1.40233702788e-07
2.10202460513e-05
8.54912330649e-08
2.09819607183e-05
4.93036411165e-08
2.09611430486e-05
2.59351057696e-08
2.09515242436e-05
1.13134382939e-08
2.09487720753e-05
2.3832981856e-09
2.0949619377e-05
-2.38588697786e-09
2.0952225194e-05
-4.55363247387e-09
2.09555603906e-05
-5.27829541753e-09
2.09589491334e-05
-5.14055676509e-09
2.0962071664e-05
-4.5547274865e-09
2.09646879579e-05
-3.78913377421e-09
2.09667745764e-05
-2.99869697812e-09
2.09683731414e-05
-2.27629757947e-09
2.09695544274e-05
-1.66597138117e-09
2.09704000174e-05
-1.17956370411e-09
2.09709898983e-05
-8.11151536804e-10
2.09713972914e-05
-5.47696631091e-10
2.09716696187e-05
-3.56861139306e-10
2.09718236643e-05
-2.00954261376e-10
2.0971904964e-05
-1.01166661471e-10
2.09719410127e-05
-3.85652357627e-11
2.0971951657e-05
-4.29696388277e-12
2.09719478069e-05
1.44132993483e-11
2.09719359685e-05
2.40117254319e-11
2.09719201287e-05
2.82720169298e-11
2.09719025104e-05
2.98539173226e-11
2.09718841706e-05
3.0410793005e-11
2.09718654272e-05
3.08646654396e-11
2.0971846167e-05
3.16864526804e-11
2.09718260806e-05
3.30946075536e-11
2.09718047993e-05
3.51861880621e-11
2.09717819218e-05
3.80027490929e-11
2.09717569571e-05
4.15855768356e-11
2.09717293329e-05
4.59400694927e-11
2.09716985031e-05
5.10336059509e-11
2.09716639753e-05
5.69967441786e-11
2.09716253646e-05
6.40159188517e-11
2.09715824052e-05
7.2262835533e-11
2.09715349533e-05
8.18238851252e-11
2.09714830613e-05
9.26141075351e-11
2.09714271706e-05
1.0429193929e-10
2.09713684398e-05
1.16114938856e-10
2.09713093201e-05
1.26574239967e-10
2.09712545671e-05
1.32803940257e-10
2.09712123918e-05
1.30456316039e-10
2.09711972244e-05
1.11340190585e-10
2.09712349198e-05
6.02063244651e-11
2.09713733493e-05
-5.11449782213e-11
2.09716857193e-05
-2.47694051443e-10
2.09722938208e-05
-5.83472775026e-10
2.09733275812e-05
-1.08669261985e-09
2.09749573796e-05
-1.8221873903e-09
2.09775662597e-05
-3.04169264888e-09
2.09817423881e-05
-5.01035909991e-09
2.09884220207e-05
-8.1681106049e-09
2.09991433729e-05
-1.32436196411e-08
2.1016606653e-05
-2.14856800063e-08
2.10451820485e-05
-3.54880568184e-08
2.10924233939e-05
-5.87325287041e-08
2.1172497935e-05
-9.94301956299e-08
2.13133002564e-05
-1.75990913614e-07
2.15718667251e-05
-3.31592187826e-07
2.20654193613e-05
-6.68874490645e-07
2.30278260482e-05
-1.4408597528e-06
2.48300672775e-05
-3.35203419136e-06
-7.6651525246e-06
2.66691329156e-05
5.35170919438e-05
1.2419238725e-05
5.29349508997e-05
1.79446113105e-05
4.96538880054e-05
1.59443714649e-05
4.58404496516e-05
1.2407493553e-05
4.24408498934e-05
9.10046749169e-06
3.97308283232e-05
6.48783307517e-06
3.76904279502e-05
4.56448327569e-06
3.62029807152e-05
3.18639768486e-06
3.5140999148e-05
2.20893984463e-06
3.43947994474e-05
1.5189155927e-06
3.38781204938e-05
1.03360030025e-06
3.3525882296e-05
6.93843468295e-07
3.32900410681e-05
4.57542480267e-07
3.31356027971e-05
2.94671272453e-07
3.30373367547e-05
1.83756504037e-07
3.29772226e-05
1.09416995696e-07
3.2942522086e-05
6.06349190142e-08
3.29243063227e-05
2.95287022326e-08
3.29162191593e-05
1.04701681851e-08
3.29146019113e-05
-7.68843642531e-10
3.29161190346e-05
-6.071020622e-09
3.29192369252e-05
-8.39659955823e-09
3.29228655032e-05
-8.76967649914e-09
3.29263827647e-05
-8.07256624015e-09
3.29294742634e-05
-6.88115613146e-09
3.2932022008e-05
-5.54687291613e-09
3.29340197492e-05
-4.27438836022e-09
3.29355210956e-05
-3.16760713539e-09
3.29366054318e-05
-2.2641240727e-09
3.29373564244e-05
-1.56225420843e-09
3.29378495565e-05
-1.04074943802e-09
3.29381649686e-05
-6.71946335128e-10
3.29383956788e-05
-4.3109438187e-10
3.29385310784e-05
-2.35843527463e-10
3.29386012964e-05
-1.08070770693e-10
3.29386330073e-05
-3.54858300619e-11
3.29386412113e-05
6.42194036319e-12
3.29386356407e-05
2.94819653837e-11
3.29386225238e-05
4.10794654132e-11
3.29386055283e-05
4.64761939377e-11
3.29385866017e-05
4.90106783437e-11
3.2938566593e-05
5.06429026565e-11
3.29385457079e-05
5.24642395193e-11
3.29385238393e-05
5.5030589605e-11
3.29385007556e-05
5.8579121848e-11
3.29384761386e-05
6.31860608413e-11
3.29384494966e-05
6.89561288917e-11
3.29384202717e-05
7.58741429948e-11
3.29383881358e-05
8.3688483198e-11
3.29383529131e-05
9.24756380728e-11
3.29383146452e-05
1.02319929306e-10
3.29382736544e-05
1.13176082239e-10
3.29382306298e-05
1.2476827436e-10
3.29381868256e-05
1.36440209073e-10
3.29381444331e-05
1.46927147317e-10
3.29381072271e-05
1.53898761442e-10
3.29380816566e-05
1.53101217025e-10
3.29380781492e-05
1.37550862471e-10
3.29381117865e-05
9.81139511463e-11
3.2938209002e-05
1.52285097473e-11
3.29384193438e-05
-1.49376646486e-10
3.29388296017e-05
-4.61043410475e-10
3.29394958864e-05
-9.14028959775e-10
3.29404759206e-05
-1.56396797705e-09
3.29420315579e-05
-2.64315450287e-09
3.29445797308e-05
-4.37142574994e-09
3.29486573095e-05
-7.12041074415e-09
3.2955138195e-05
-1.14923043394e-08
3.29654381923e-05
-1.84690602236e-08
3.29818965359e-05
-2.97028904256e-08
3.30084641336e-05
-4.80542468111e-08
3.30509799168e-05
-7.80048596892e-08
3.31201965826e-05
-1.27950222381e-07
3.32346752411e-05
-2.13909830831e-07
3.34263302715e-05
-3.67646769028e-07
3.37486641388e-05
-6.53926634037e-07
3.42821455945e-05
-1.20235614831e-06
3.51077286656e-05
-2.26644263292e-06
3.61027593059e-05
-4.34706437516e-06
-7.88170121606e-06
3.63193084753e-05
5.35105676885e-05
8.90867187217e-06
5.55742530644e-05
1.588092741e-05
5.52426280726e-05
1.62759976382e-05
5.3598216562e-05
1.40519060771e-05
5.15428445364e-05
1.11558403669e-05
4.95822569235e-05
8.44842131149e-06
4.79278685921e-05
6.21887191242e-06
4.6623905289e-05
4.49036090868e-06
4.563931914e-05
3.19352557227e-06
4.49179877715e-05
2.2402463478e-06
4.44019457036e-05
1.54964172986e-06
4.40404690179e-05
1.05531956807e-06
4.37924882562e-05
7.05522669234e-07
4.36261837754e-05
4.60975096578e-07
4.35175940722e-05
2.92345436348e-07
4.34490432674e-05
1.77966989722e-07
4.34077070662e-05
1.01970408749e-07
4.33844203925e-05
5.28148660338e-08
4.33727475496e-05
2.21426788948e-08
4.33679519133e-05
4.02652548532e-09
4.33675958786e-05
-5.71531196634e-09
4.33694098213e-05
-1.02109746958e-08
4.33721545764e-05
-1.1514932235e-08
4.33750929676e-05
-1.10114556817e-08
4.33778215749e-05
-9.61021246168e-09
4.33801544329e-05
-7.88012491362e-09
4.33820369206e-05
-6.15722839642e-09
4.3383488483e-05
-4.61948089894e-09
4.33845651798e-05
-3.34105974346e-09
4.33853360251e-05
-2.33320593486e-09
4.33858685789e-05
-1.57321189419e-09
4.33862170972e-05
-1.02013542098e-09
4.33864124785e-05
-6.25921794704e-10
4.33865211952e-05
-3.43867974442e-10
4.33865667245e-05
-1.52917350981e-10
4.33865931912e-05
-6.14406047968e-11
4.33866013238e-05
-1.47475925219e-12
4.33865978178e-05
3.29450379851e-11
4.33865874854e-05
5.11797606371e-11
4.33865731223e-05
6.05395997577e-11
4.33865562431e-05
6.56148157521e-11
4.33865375891e-05
6.90967490815e-11
4.33865174193e-05
7.255054061e-11
4.33864957139e-05
7.6825464743e-11
4.33864722914e-05
8.23102465686e-11
4.33864468528e-05
8.91319920609e-11
4.33864190907e-05
9.73147833979e-11
4.33863887695e-05
1.06730845663e-10
4.3386355708e-05
1.17110976522e-10
4.33863199e-05
1.28442400969e-10
4.33862816596e-05
1.40564537441e-10
4.33862416852e-05
1.53078332011e-10
4.33862011716e-05
1.65217617171e-10
4.33861620026e-05
1.75658954468e-10
4.33861270043e-05
1.82220969119e-10
4.33861002341e-05
1.8132396207e-10
4.33860872358e-05
1.67126838301e-10
4.33860960589e-05
1.2998120614e-10
4.33861423212e-05
5.30822703414e-11
4.33862493969e-05
-9.08579257897e-11
4.33864297085e-05
-3.29050624488e-10
4.33867727365e-05
-8.03808652975e-10
4.3387429101e-05
-1.57050409589e-09
4.33885829627e-05
-2.71829161073e-09
4.33904406894e-05
-4.50162639486e-09
4.3393366604e-05
-7.29825185721e-09
4.33979551878e-05
-1.17099200975e-08
4.34051481785e-05
-1.8686146718e-08
4.34164370407e-05
-2.97587302534e-08
4.34341677245e-05
-4.74344180573e-08
4.34619752072e-05
-7.58626710238e-08
4.35059711368e-05
-1.22001836538e-07
4.35759446059e-05
-1.97924829717e-07
4.3687209878e-05
-3.25176241925e-07
4.38623782621e-05
-5.42816134817e-07
4.41302612007e-05
-9.218102312e-07
4.45134200755e-05
-1.5855152254e-06
4.49788448705e-05
-2.73186717497e-06
4.52821117436e-05
-4.65033072962e-06
-7.41434171956e-06
4.4814752727e-05
5.27351489234e-05
6.17352381498e-06
5.57309913265e-05
1.28850864802e-05
5.73116516362e-05
1.46953385205e-05
5.76114260344e-05
1.37521327049e-05
5.71344293669e-05
1.16328378751e-05
5.63211549969e-05
9.26169624869e-06
5.54518616046e-05
7.08816551238e-06
5.46675422291e-05
5.27468011589e-06
5.40205282726e-05
3.84053908618e-06
5.35159309723e-05
2.74484310679e-06
5.31376474498e-05
1.92792474725e-06
5.28626490939e-05
1.33031746841e-06
5.26679632372e-05
9.00208018689e-07
5.2533570762e-05
5.95366914201e-07
5.24432213182e-05
3.82694067209e-07
5.23842900689e-05
2.36897392368e-07
5.23472637866e-05
1.38995962079e-07
5.2325141313e-05
7.49368056074e-08
5.23128568293e-05
3.44267839408e-08
5.23068512327e-05
1.00317900287e-08
5.23047289487e-05
-3.59340035986e-09
5.23048179204e-05
-1.03003729267e-08
5.23060211153e-05
-1.27185716362e-08
5.23076641249e-05
-1.26548937196e-08
5.23093541096e-05
-1.13006052192e-08
5.2310884895e-05
-9.41131030643e-09
5.23121676401e-05
-7.44036496775e-09
5.23131831977e-05
-5.63539071634e-09
5.23139500587e-05
-4.10817817568e-09
5.23145018882e-05
-2.88513739425e-09
5.23148785744e-05
-1.94979503439e-09
5.23151221995e-05
-1.26342698928e-09
5.23152767639e-05
-7.79938864827e-10
5.23153838276e-05
-4.50247665809e-10
5.23154688409e-05
-2.37244099112e-10
5.23155203896e-05
-1.12452502795e-10
5.2315545976e-05
-2.67799792878e-11
5.23155526306e-05
2.6305367425e-11
5.23155486279e-05
5.50085595075e-11
5.23155386726e-05
7.0243600443e-11
5.23155252581e-05
7.87921141104e-11
5.23155095037e-05
8.46860647287e-11
5.23154918372e-05
9.01687409334e-11
5.23154723836e-05
9.63901034774e-11
5.23154512058e-05
1.03771556398e-10
5.23154286545e-05
1.12090879214e-10
5.2315403969e-05
1.22430801113e-10
5.23153756767e-05
1.35372598243e-10
5.23153446535e-05
1.48345366546e-10
5.2315310977e-05
1.6219538849e-10
5.23152749085e-05
1.76615608448e-10
5.23152371038e-05
1.90825535919e-10
5.23151987049e-05
2.03592111337e-10
5.23151615126e-05
2.12969222819e-10
5.23151282888e-05
2.15841334345e-10
5.23151034508e-05
2.06939523708e-10
5.23150956643e-05
1.76040713339e-10
5.23151297155e-05
9.72139142469e-11
5.23152104611e-05
-2.64809136244e-11
5.23153408719e-05
-2.20375682757e-10
5.23155829028e-05
-5.70540921754e-10
5.23160201051e-05
-1.24081815126e-09
5.23166844115e-05
-2.23495016846e-09
5.23177217469e-05
-3.75606630728e-09
5.23193443706e-05
-6.12491660131e-09
5.23218694618e-05
-9.82411036211e-09
5.23257750813e-05
-1.5616295461e-08
5.23317990215e-05
-2.47108078002e-08
5.23410837763e-05
-3.90442235404e-08
5.23553937065e-05
-6.17451904238e-08
5.23774345194e-05
-9.79044914673e-08
5.24113314039e-05
-1.55899915523e-07
5.24631093098e-05
-2.49704051102e-07
5.2540777649e-05
-4.0284589496e-07
5.26528137725e-05
-6.54853365913e-07
5.28018432218e-05
-1.07084033511e-06
5.29673741969e-05
-1.7510462655e-06
5.30664545447e-05
-2.8309471132e-06
5.28745361591e-05
-4.45841170526e-06
-6.58854007528e-06
5.20487350056e-05
5.19835007795e-05
4.19002390659e-06
5.5058720304e-05
9.80986833741e-06
5.76387512401e-05
1.211530871e-05
5.93261843665e-05
1.20647005528e-05
6.02285275196e-05
1.07304955084e-05
6.05937855657e-05
8.89643870561e-06
6.06496319195e-05
7.03231930595e-06
6.05551940099e-05
5.36911784834e-06
6.04058042463e-05
3.98992848513e-06
6.02518129438e-05
2.89883401984e-06
6.0115949708e-05
2.06378764342e-06
6.00056640427e-05
1.44060278621e-06
5.99208200451e-05
9.85051529845e-07
5.98580682746e-05
6.58117986456e-07
5.98131315274e-05
4.27629959429e-07
5.97818867002e-05
2.68141357278e-07
5.97607978063e-05
1.60084131702e-07
5.97470224024e-05
8.87116646646e-08
5.97383676843e-05
4.30810798565e-08
5.97332131559e-05
1.51859304412e-08
5.97303754054e-05
-7.56046756438e-10
5.97290177363e-05
-8.94310223381e-09
5.97285485454e-05
-1.22497656531e-08
5.97285761726e-05
-1.26829036764e-08
5.97288488539e-05
-1.15736971565e-08
5.97292131952e-05
-9.77610223435e-09
5.97295818143e-05
-7.80944355724e-09
5.97299100037e-05
-5.96398188397e-09
5.97301799554e-05
-4.37840292209e-09
5.97303913928e-05
-3.09666774019e-09
5.97305514914e-05
-2.10977622425e-09
5.97306706119e-05
-1.38220601098e-09
5.97307612955e-05
-8.70071947656e-10
5.97308290841e-05
-5.1734324867e-10
5.973087203e-05
-2.79481436308e-10
5.97308845255e-05
-1.24377152086e-10
5.97308765761e-05
-1.85082195931e-11
5.97308701644e-05
3.2772964683e-11
5.97308651816e-05
5.98545096324e-11
5.97308586395e-05
7.65703738503e-11
5.97308495455e-05
8.76906845144e-11
5.97308379546e-05
9.61620467866e-11
5.97308240057e-05
1.04115224874e-10
5.97308077247e-05
1.12790208472e-10
5.97307889263e-05
1.22787375903e-10
5.97307669675e-05
1.34309264617e-10
5.97307423043e-05
1.47328626516e-10
5.97307162054e-05
1.61634116949e-10
5.97306878111e-05
1.76819003951e-10
5.9730657392e-05
1.92626483933e-10
5.97306255821e-05
2.08397506962e-10
5.97305933932e-05
2.22986943198e-10
5.97305623983e-05
2.34630379142e-10
5.97305348682e-05
2.40728847807e-10
5.97305136614e-05
2.37599121263e-10
5.97305011933e-05
2.20345317215e-10
5.97304949265e-05
1.83541034182e-10
5.97304757527e-05
1.17689264744e-10
5.97304731828e-05
-2.27873998011e-11
5.97305543277e-05
-3.00715158975e-10
5.97307697693e-05
-7.85517484219e-10
5.97310636657e-05
-1.53456822136e-09
5.97315194526e-05
-2.69088529988e-09
5.97322265357e-05
-4.46355972407e-09
5.97332981092e-05
-7.19708474799e-09
5.97349007734e-05
-1.14274422719e-08
5.97372780589e-05
-1.79942442393e-08
5.97407868685e-05
-2.8220272234e-08
5.97459459888e-05
-4.42040572856e-08
5.97534947464e-05
-6.9294815739e-08
5.97644302277e-05
-1.08841084127e-07
5.97799563918e-05
-1.71427433543e-07
5.98011318956e-05
-2.70881065059e-07
5.98276487071e-05
-4.29364174372e-07
5.98545714058e-05
-6.81777211796e-07
5.98647485988e-05
-1.08101807408e-06
5.98141713542e-05
-1.70046886414e-06
5.960853782e-05
-2.62531292856e-06
5.90740824401e-05
-3.92395555638e-06
-5.53178667375e-06
5.80173295298e-05
5.14373188212e-05
2.75270590458e-06
5.42658576912e-05
6.98133067833e-06
5.72496939514e-05
9.13147345014e-06
5.97900554335e-05
9.52433995868e-06
6.17200602818e-05
8.80049138433e-06
6.30880195951e-05
7.5284798557e-06
6.40160416406e-05
6.10429741867e-06
6.46279354761e-05
4.75722392064e-06
6.50235895046e-05
3.59427425413e-06
6.52756272332e-05
2.64679608984e-06
6.54339483683e-05
1.90546631396e-06
6.55317699303e-05
1.34278092956e-06
6.55908371875e-05
9.25983761342e-07
6.56252758927e-05
6.23678533933e-07
6.56442354504e-05
4.08669527744e-07
6.56536344374e-05
2.5874153379e-07
6.56572926927e-05
1.56425185331e-07
6.56576611271e-05
8.83426890444e-08
6.56562928523e-05
4.44488990195e-08
6.56541558913e-05
1.73224686297e-08
6.56518260074e-05
1.57344183554e-09
6.56496326938e-05
-6.75014677486e-09
6.56477215845e-05
-1.03389976143e-08
6.56461482083e-05
-1.11099073493e-08
6.56449084528e-05
-1.03344067845e-08
6.56439676388e-05
-8.83582867206e-09
6.56432778574e-05
-7.12020441617e-09
6.56427885627e-05
-5.47513446818e-09
6.56424530724e-05
-4.04319281794e-09
6.56422319767e-05
-2.87565289652e-09
6.56420929781e-05
-1.97064703016e-09
6.56420099198e-05
-1.298795811e-09
6.5641959425e-05
-8.19010119252e-10
6.56419285115e-05
-4.85709194276e-10
6.56419074064e-05
-2.57633954686e-10
6.56418953083e-05
-1.11676783066e-10
6.56419048585e-05
-2.77134202767e-11
6.56419116379e-05
2.60653744694e-11
6.5641909179e-05
6.2195217964e-11
6.56419043087e-05
8.12574882018e-11
6.56418980446e-05
9.38105329091e-11
6.56418902532e-05
1.03899683426e-10
6.56418806281e-05
1.13779352027e-10
6.5641868838e-05
1.2467921366e-10
6.56418545826e-05
1.37152994709e-10
6.56418376108e-05
1.51361556312e-10
6.56418177194e-05
1.67253765055e-10
6.56417951876e-05
1.8416008635e-10
6.56417718019e-05
2.00177566376e-10
6.56417463068e-05
2.180883311e-10
6.56417186963e-05
2.35982977423e-10
6.56416894558e-05
2.52243658414e-10
6.56416593884e-05
2.64834930159e-10
6.56416296663e-05
2.7083882871e-10
6.56416019742e-05
2.66044314514e-10
6.56415790862e-05
2.44353518254e-10
6.56415669022e-05
1.97061638951e-10
6.56415706114e-05
1.1528851789e-10
6.56415723808e-05
-2.34836943755e-11
6.56416155403e-05
-3.43127703439e-10
6.56416791187e-05
-8.48681070249e-10
6.56417833488e-05
-1.63869008533e-09
6.5641935391e-05
-2.84310249053e-09
6.56421449773e-05
-4.6735674936e-09
6.56424138868e-05
-7.46657868727e-09
6.56427262739e-05
-1.1740468152e-08
6.56430313727e-05
-1.82999608903e-08
6.56432121656e-05
-2.84016816641e-08
6.56430258136e-05
-4.40184167436e-08
6.5641992981e-05
-6.82629185592e-08
6.56391515676e-05
-1.06000899396e-07
6.56325791493e-05
-1.64856514759e-07
6.561843015e-05
-2.56733745955e-07
6.55889953987e-05
-3.99930966701e-07
6.55289683931e-05
-6.21751256353e-07
6.54087612693e-05
-9.60811251668e-07
6.51744168978e-05
-1.46612406852e-06
6.47364732953e-05
-2.1873684492e-06
6.39651904785e-05
-3.15267184074e-06
-4.3085140661e-06
6.27419183387e-05
5.10850532402e-05
1.66765337127e-06
5.36118554699e-05
4.45452944994e-06
5.66872651657e-05
6.05606461638e-06
5.96891975514e-05
6.52240838081e-06
6.22990480668e-05
6.19064156201e-06
6.44122278527e-05
5.4153005524e-06
6.60444560031e-05
4.47206950603e-06
6.72639961961e-05
3.53768378679e-06
6.81526381619e-05
2.705632274e-06
6.8787033894e-05
2.01240032122e-06
6.92316777512e-05
1.46082234438e-06
6.95377154493e-05
1.03674292786e-06
6.97442587829e-05
7.19439864912e-07
6.98804989444e-05
4.87437601727e-07
6.9967840247e-05
3.21327386492e-07
7.00217548365e-05
2.04826178235e-07
7.00532835189e-05
1.24895866444e-07
7.00702023794e-05
7.14232924416e-08
7.00779074761e-05
3.67433173224e-08
7.00800770208e-05
1.51524821902e-08
7.00791734359e-05
2.47664789916e-09
7.00767580801e-05
-4.33511436569e-09
7.00738132277e-05
-7.39447779458e-09
7.00708981958e-05
-8.1953046248e-09
7.00683032175e-05
-7.73999421125e-09
7.00661467465e-05
-6.68000853586e-09
7.0064444614e-05
-5.41869061796e-09
7.00631569407e-05
-4.18793544767e-09
7.00622188435e-05
-3.10536913083e-09
7.00615593528e-05
-2.21622755273e-09
7.00611116731e-05
-1.52282346481e-09
7.00608181374e-05
-1.00489060326e-09
7.00606320483e-05
-6.32324457024e-10
7.00605196452e-05
-3.72548151962e-10
7.00604598971e-05
-1.97113199319e-10
7.00604332644e-05
-8.44320893389e-11
7.00604111439e-05
-5.2578461177e-12
7.00604015963e-05
3.56721749213e-11
7.00604007293e-05
6.29497549514e-11
7.00604006627e-05
8.11784484904e-11
7.00603998072e-05
9.45859860387e-11
7.00603974654e-05
1.06253247583e-10
7.00603932694e-05
1.18040572007e-10
7.00603870388e-05
1.30959862996e-10
7.00603787161e-05
1.45457288331e-10
7.00603683566e-05
1.61624559198e-10
7.00603561228e-05
1.79344343267e-10
7.00603418508e-05
1.98288263018e-10
7.00603239304e-05
2.17986440416e-10
7.00603037747e-05
2.38176385722e-10
7.00602818545e-05
2.57886603453e-10
7.00602585606e-05
2.75612227671e-10
7.00602344469e-05
2.89213719134e-10
7.00602102053e-05
2.95663147765e-10
7.00601864544e-05
2.90765730091e-10
7.0060163079e-05
2.69023453726e-10
7.00601377706e-05
2.23785923663e-10
7.00601058538e-05
1.48504435708e-10
7.00600733561e-05
1.0041213009e-11
7.00600233135e-05
-2.92383458584e-10
7.0059968399e-05
-7.93385480365e-10
7.00598718416e-05
-1.54206220857e-09
7.00596949022e-05
-2.66639735394e-09
7.00593718636e-05
-4.35101646074e-09
7.0058785683e-05
-6.8810285128e-09
7.00577329416e-05
-1.06883691157e-08
7.0055865434e-05
-1.64330481885e-08
7.0052593586e-05
-2.51304284811e-08
7.00469286752e-05
-3.83542211095e-08
7.00372361082e-05
-5.85713306915e-08
7.00207547418e-05
-8.95208522718e-08
6.99928124836e-05
-1.36915893509e-07
6.99455154092e-05
-2.09438427042e-07
6.98655457417e-05
-3.19962820025e-07
6.97306349647e-05
-4.86841373116e-07
6.95043819788e-05
-7.34558334303e-07
6.91301296145e-05
-1.09187098814e-06
6.85271469801e-05
-1.58438473577e-06
6.75953314487e-05
-2.22085537088e-06
-2.96492041924e-06
6.62517382027e-05
5.08804215851e-05
7.87232353212e-07
5.31704540268e-05
2.16449782034e-06
5.62176122348e-05
3.00890716934e-06
5.94377922933e-05
3.30222909161e-06
6.24437928474e-05
3.18464170908e-06
6.50358422783e-05
2.82325166602e-06
6.71504914492e-05
2.35742069374e-06
6.88062970568e-05
1.88187840176e-06
7.00619050481e-05
1.45002442488e-06
7.09891705587e-05
1.08513486868e-06
7.16582472431e-05
7.91745555232e-07
7.21306363634e-05
5.64353455643e-07
7.24569338578e-05
3.93141771428e-07
7.26770454144e-05
2.67325299279e-07
7.28215047611e-05
1.76867290384e-07
7.29131337336e-05
1.13196540778e-07
7.29686605624e-05
6.93684577004e-08
7.30001315997e-05
3.9951715578e-08
7.30160693997e-05
2.08050043265e-08
7.30223887365e-05
8.83269368067e-09
7.30231055011e-05
1.75952084853e-09
7.30208472164e-05
-2.07714220704e-09
7.30172907196e-05
-3.83834856305e-09
7.30134373154e-05
-4.34242242128e-09
7.30098383811e-05
-4.14174611758e-09
7.30067537105e-05
-3.59608821637e-09
7.30042634561e-05
-2.9291042515e-09
7.30023453012e-05
-2.27026033657e-09
7.30009257693e-05
-1.68609888669e-09
7.29999131651e-05
-1.20367901227e-09
7.29992158305e-05
-8.25335032969e-10
7.29987524312e-05
-5.41099683654e-10
7.29984561104e-05
-3.35370879494e-10
7.29982752998e-05
-1.90945040018e-10
7.29981709316e-05
-9.19611028845e-11
7.29981117818e-05
-2.46916193488e-11
7.29980876828e-05
1.91363738562e-11
7.29980768879e-05
4.64972340085e-11
7.29980742827e-05
6.54503274476e-11
7.29980755744e-05
7.97912735035e-11
7.29980779767e-05
9.21779263926e-11
7.29980799129e-05
1.0438984815e-10
7.29980805136e-05
1.17512494059e-10
7.29980793289e-05
1.32129237553e-10
7.29980761638e-05
1.48479121695e-10
7.29980709629e-05
1.66580235204e-10
7.29980637307e-05
1.86296380312e-10
7.29980544593e-05
2.07309596645e-10
7.2998043125e-05
2.29135608604e-10
7.29980298012e-05
2.51392347751e-10
7.29980145191e-05
2.73160794957e-10
7.29979972779e-05
2.93010045771e-10
7.29979780044e-05
3.0891353091e-10
7.29979564668e-05
3.17994350978e-10
7.29979321835e-05
3.1622535029e-10
7.29979044682e-05
2.98172246002e-10
7.29978727692e-05
2.56946647409e-10
7.29978375634e-05
1.84990275507e-10
7.29977771304e-05
7.14578266949e-11
7.29976604586e-05
-1.75052579535e-10
7.29974848467e-05
-6.17442375423e-10
7.29971936128e-05
-1.25083795956e-09
7.29967099223e-05
-2.18303893089e-09
7.29959024252e-05
-3.54408918925e-09
7.29945537893e-05
-5.53305269934e-09
7.29923042251e-05
-8.43942941793e-09
7.29885599864e-05
-1.26893627793e-08
7.29823466017e-05
-1.89175988587e-08
7.29720813246e-05
-2.80896649389e-08
7.29552337944e-05
-4.17248104887e-08
7.29276828538e-05
-6.19712964534e-08
7.28827556543e-05
-9.19904193853e-08
7.28097646883e-05
-1.3644925345e-07
7.26917898857e-05
-2.01989460872e-07
7.25025526068e-05
-2.97604791608e-07
7.22025207577e-05
-4.34526286501e-07
7.17353653476e-05
-6.24714650216e-07
7.10277264193e-05
-8.76744640402e-07
6.99965878401e-05
-1.18971588553e-06
-1.54296705707e-06
6.85746347735e-05
5.07871795058e-05
5.3295253519e-11
5.29516244638e-05
5.35636167861e-11
5.59605022757e-05
3.00767842574e-11
5.92627165694e-05
1.55686633351e-11
6.24473547405e-05
4.27455316718e-12
6.52706116373e-05
-4.61628117498e-12
6.76280431429e-05
-1.03478686374e-11
6.95099350647e-05
-1.31821201054e-11
7.09599732507e-05
-1.35356938527e-11
7.20451202328e-05
-1.2039544944e-11
7.28368750411e-05
-9.39929876636e-12
7.34012344533e-05
-6.35308273993e-12
7.37943792511e-05
-3.6148314455e-12
7.40617057147e-05
-1.8227190424e-12
7.42385738269e-05
-1.44592716098e-12
7.43517725309e-05
-2.72750077174e-12
7.44211459414e-05
-5.49876503744e-12
7.4461106173e-05
-9.07467785965e-12
7.44819231017e-05
-1.24631136622e-11
7.44907696638e-05
-1.43237097326e-11
7.44925432142e-05
-1.43844028995e-11
7.44904795602e-05
-1.38202343579e-11
7.44866542406e-05
-1.34708206574e-11
7.44823246113e-05
-1.34296418636e-11
7.44781953018e-05
-1.32317507957e-11
7.44746106117e-05
-1.22131564395e-11
7.44716906964e-05
-9.87403866769e-12
7.44694259985e-05
-6.03721370598e-12
7.44677399193e-05
-2.80314980466e-13
7.44665310387e-05
5.14028362089e-12
7.44656944078e-05
1.1453309279e-11
7.44651357858e-05
1.79382873349e-11
7.44647767024e-05
2.43799221886e-11
7.44645556213e-05
3.09463378721e-11
7.4464426636e-05
3.77873325248e-11
7.44643576939e-05
4.47856962726e-11
7.44643250367e-05
5.20269416852e-11
7.4464312504e-05
5.90266542302e-11
7.44643109941e-05
6.68695313748e-11
7.4464314855e-05
7.58908897052e-11
7.44643207513e-05
8.63473310671e-11
7.44643267878e-05
9.84754216464e-11
7.44643319173e-05
1.12454017596e-10
7.44643356181e-05
1.28355836149e-10
7.44643376997e-05
1.4615984426e-10
7.44643381529e-05
1.65778392961e-10
7.44643370255e-05
1.87049098874e-10
7.44643343122e-05
2.0968609968e-10
7.44643299173e-05
2.33264255855e-10
7.4464323827e-05
2.57317187455e-10
7.44643159666e-05
2.8101618149e-10
7.44643061097e-05
3.03115821619e-10
7.44642937872e-05
3.21836171977e-10
7.44642781255e-05
3.34657728514e-10
7.44642575782e-05
3.3811946571e-10
7.44642295808e-05
3.27685101048e-10
7.44641903003e-05
2.97692983939e-10
7.44641353096e-05
2.41229658939e-10
7.44640569908e-05
1.50725939285e-10
7.44639012254e-05
-1.8669078204e-11
7.44636298022e-05
-3.45757301309e-10
7.44631983302e-05
-8.19467046946e-10
7.44624902152e-05
-1.47534816673e-09
7.44613327086e-05
-2.38720858181e-09
7.44594472408e-05
-3.64824862941e-09
7.44563774368e-05
-5.3702133998e-09
7.44513783246e-05
-7.69075301932e-09
7.44432391221e-05
-1.07789244899e-08
7.44300136844e-05
-1.48649263878e-08
7.44086722373e-05
-2.0384378549e-08
7.43743575643e-05
-2.76580476361e-08
7.43193425121e-05
-3.6977099922e-08
7.42315484072e-05
-4.86568952715e-08
7.40923974111e-05
-6.2839790132e-08
7.38739986989e-05
-7.92065900982e-08
7.35359861231e-05
-9.6513315271e-08
7.30231676175e-05
-1.1189513961e-07
7.22665028375e-05
-1.20078723118e-07
7.11906097368e-05
-1.13821975265e-07
-8.44191087678e-08
6.97320619779e-05
5.0787178321e-05
-7.87124655302e-07
5.29516233645e-05