/*--------------------------------*- C++ -*----------------------------------*\
| =========                 |                                                 |
| \\      /  F ield         | OpenFOAM: The Open Source CFD Toolbox           |
|  \\    /   O peration     | Version:  2106                                  |
|   \\  /    A nd           | Website:  www.openfoam.com                      |
|    \\/     M anipulation  |                                                 |
\*---------------------------------------------------------------------------*/
FoamFile
{
    version     2.0;
    format      ascii;
    arch        "LSB;label=32;scalar=64";
    class       volScalarField;
    location    "0.325";
    object      p;
}
// * * * * * * * * * * * * * * * * * * * * * * * * * * * * * * * * * * * * * //

dimensions      [0 2 -2 0 0 0 0];

internalField   nonuniform List<scalar> 
11200
(
150.085276724
147.156674373
146.042821214
145.515486384
145.148151947
144.853367855
144.591717464
144.343171605
144.098645057
143.853568186
143.605243864
143.351917438
143.09235694
142.825626823
142.550960295
142.267683947
141.975171977
141.672818347
141.360024167
141.03620128
140.700725694
140.352948278
139.992210604
139.617844752
139.229165132
138.825470446
138.406044538
137.970157075
137.517064281
137.046009527
136.556223914
136.046926736
135.51732569
134.966616965
134.393985979
133.798608541
133.179650713
132.536268979
131.867610699
131.172814599
130.451011035
129.701322189
128.92286231
128.114737727
127.276046786
126.405879648
125.503317732
124.567433164
123.597287558
122.591930495
121.550397437
120.47170692
119.354856765
118.198819267
117.002535006
115.764904867
114.484780269
113.160950632
111.792127519
110.37692487
108.913834035
107.401192093
105.837141682
104.219582111
102.546103439
100.813900516
99.0196627973
97.159430298
95.2283988165
93.2206535942
91.1288054587
88.9434946861
86.652522778
84.2397032474
81.6829501011
78.9506031335
75.995062268
72.7437504643
69.0429388045
64.279599141
148.292235206
146.934060382
146.143086542
145.643068585
145.252075595
144.928187296
144.643659468
144.379049656
144.123553398
143.871022315
143.61762911
143.36086023
143.098978676
142.830708012
142.555047876
142.271163467
141.978317376
141.675826736
141.363033029
141.03927423
140.703900093
140.35623498
139.995635058
139.621432131
139.232930185
138.829422207
138.410189212
137.974499031
137.521606593
137.0507543
136.561172275
136.052078243
135.522678037
134.972171472
134.399745888
133.804577187
133.185831124
132.542664107
131.874223525
131.179648166
130.458068577
129.708607163
128.93037847
128.122489252
127.284038448
126.414116932
125.5118071
124.576182242
123.606305497
122.601228377
121.559988745
120.481608086
119.365087926
118.209405141
117.013505949
115.77629835
114.496642515
113.173338688
111.805111924
110.390593099
108.928295021
107.416582491
105.853631726
104.237379649
102.56545864
100.83512823
99.0431728468
97.1857550363
95.2582353834
93.2549291536
91.1687674792
88.9907939949
86.7094611084
84.309632938
81.7709142187
79.064796571
76.1504818124
72.9701360703
69.4209697745
65.3081284481
147.297045077
146.642843884
146.09048577
145.652864375
145.281235827
144.959128349
144.670021823
144.399780409
144.139309136
143.882819166
143.62642554
143.367446595
143.103970327
142.83456981
142.558124018
142.273704353
141.980501163
141.677775801
141.364829883
141.040986426
140.705583261
140.357980676
139.997434566
139.623291197
139.234858454
138.83142678
138.412274896
137.976669551
137.523865359
137.053104934
136.563619264
136.054628402
135.525341558
134.974951364
134.402639993
133.807585828
133.188955769
132.545906663
131.877586777
131.183135753
130.461684977
129.712357827
128.934269921
128.126529315
127.288236515
126.418484295
125.516357411
124.580932001
123.611274687
122.606441245
121.565474858
120.487403475
119.371236535
118.215960568
117.020533599
115.783878102
114.504871936
113.182337154
111.815025798
110.401601954
108.940618444
107.430488589
105.869448355
104.255528921
102.586493114
100.859747109
99.0722492563
97.2204009703
95.2998882048
93.3054724466
91.2307040658
89.067520323
86.8058264844
84.4327068504
81.931440703
79.2801682405
76.4509164877
73.4120713103
70.1276567372
66.5746535983
146.747283939
146.383901793
145.984001338
145.615007138
145.277385434
144.969276829
144.683906278
144.413194162
144.150813155
143.89213632
143.633745662
143.37310969
143.108328597
142.837935178
142.560753385
142.275800709
141.982220807
141.679237424
141.366123342
141.042178529
140.706711939
140.359033305
139.998501324
139.624392791
139.235996961
138.832606145
138.413498824
137.977940518
137.525184707
137.054472996
136.565035196
136.05608955
135.526843467
134.976495425
134.404235398
133.809237673
133.190670302
132.547690862
131.879446584
131.185077696
130.463716302
129.714486804
128.936506283
128.128884664
127.290724757
126.421122241
125.519165452
124.583934923
123.614502662
122.609930835
121.569270511
120.491559203
119.375818063
118.221047943
117.026224521
115.790292118
114.512155639
113.190670409
111.824629469
110.412747166
108.953642035
107.445816256
105.887608958
104.277160922
102.612370748
100.890839858
99.1097929173
97.2659779303
95.355541915
93.3738750472
91.315420307
89.1734484137
86.939727881
84.6042170625
82.1548273625
79.5774610273
76.8573734127
73.9848584304
70.9635158852
67.8305270016
146.413236046
146.181439742
145.880024876
145.569043977
145.264199328
144.972169612
144.693186657
144.42405228
144.161082936
143.900988536
143.641008708
143.378906101
143.11288822
142.841506049
142.56356292
142.278041863
141.984050205
141.680778678
141.367471878
141.043407094
140.707879343
140.360192209
139.999649275
139.625539897
139.237166911
138.833813997
138.414754398
137.979251228
137.526556623
137.055911631
136.566546146
136.057679072
135.528518373
134.978260818
134.40609261
133.811189957
133.192718256
132.549835528
131.881692179
131.187428972
130.466180442
129.717073312
128.939227131
128.131754608
127.293761825
126.424348298
125.522606989
124.587624042
123.618478293
122.614240023
121.573970858
120.496721002
119.381526968
118.227408396
117.033363763
115.798364624
114.521348193
113.201210887
111.836794946
110.426880962
108.970166161
107.465238566
105.910561177
104.304439435
102.644979745
100.93004024
99.1571734386
97.3235574662
95.4259128906
93.4604055243
91.422538716
89.3070480042
87.1078250772
84.8179514708
82.43000674
79.9369820232
77.3346813764
74.6275471854
71.8369402242
69.0135581171
146.209843612
146.033940736
145.79274354
145.525413989
145.248221966
144.971577439
144.69988043
144.433370485
144.170596138
143.909577384
143.648279364
143.384835085
143.117619134
142.845240718
142.566506962
142.280380148
141.985938197
141.682341649
141.368807674
141.044590382
140.70896628
140.361223407
140.000652296
139.626543179
139.238185473
138.834858449
138.415832679
137.980369223
137.527718723
137.057120974
136.567804878
136.058988507
135.529879272
134.979674056
134.407559612
133.812713287
133.194303458
132.551489926
131.883424112
131.18925023
130.468103735
129.71911217
128.941397151
128.134073932
127.29625206
126.427035577
125.525523059
124.590807512
123.621976073
122.618109926
121.578282275
120.501558067
119.386991845
118.233625247
117.040483859
115.806573692
114.530875971
113.212338231
111.849870041
110.442321729
108.988477439
107.487044579
105.936639745
104.335746919
102.682699118
100.97564654
99.2125184073
97.3909811118
95.5083948243
93.5617738129
91.5477620432
89.4626479814
87.3024654384
85.0632734
82.741787221
80.3366555335
77.8509462272
75.2968135726
72.7012060278
70.1112218096
146.086726898
145.931118474
145.724814292
145.488248569
145.232768637
144.969483399
144.704863513
144.441347393
144.179205905
143.917611289
143.655229596
143.390584363
143.122245866
142.848905598
142.56939139
142.282655636
141.987753359
141.683818655
141.370043418
141.04565965
140.709925441
140.362114293
140.001507317
139.627386938
139.239034288
138.835723681
138.416722838
137.981290614
137.528676127
137.058118329
136.56884574
136.060076372
135.531017897
134.980867953
134.408814457
133.814035664
133.195700471
132.552969422
131.88499478
131.190920011
130.469880513
129.721007644
128.943427449
128.136259531
127.298618116
126.429612576
125.528347881
124.593924835
123.625440076
122.621986152
121.58265046
120.50651529
119.392656346
118.240141073
117.048026307
115.81535467
114.541150893
113.224419483
111.864135033
110.4592375
109.008625705
107.511139618
105.965550081
104.370544647
102.724711623
101.026521919
99.2743112505
97.4662659096
95.6004162685
93.6746480052
91.686746907
89.6345070458
87.5159491821
85.3297408593
83.0759510332
80.7573375575
78.3814496468
75.9638857472
73.5315215524
71.1237142568
146.012647315
145.862636436
145.675878538
145.459769722
145.220059166
144.967232483
144.708589101
144.447843893
144.186469541
143.924539719
143.661313648
143.395667948
143.126362139
142.852175002
142.571963011
142.284676279
141.989353242
141.685106494
141.3711064
141.046565701
140.71072635
140.362848946
140.002204503
139.628067448
139.239714034
138.836413597
138.417431098
137.982023349
137.529438096
137.05891347
136.56967763
136.06094851
135.531933942
134.981831797
134.409830197
133.815107832
133.196834477
132.554171125
131.886270941
131.192280296
130.471341089
129.722586458
128.945143221
128.138134499
127.30067925
126.431892721
125.530887002
124.596771484
123.628653251
122.625637452
121.586827525
120.511324504
119.398226813
118.24662958
117.055623711
115.824294189
114.551718465
113.236962069
111.879077882
110.477096917
109.030028026
107.53685165
105.996513402
104.40791645
102.769916472
101.081318232
99.3408762857
97.547304788
95.6993023783
93.7956041952
91.8350779209
89.8168937693
87.7408061101
85.6076273764
83.4199711794
81.1833710829
78.9078637084
76.6100540941
74.3146221618
72.0535761695
145.970371064
145.820922658
145.644504901
145.440763446
145.211226549
144.965513058
144.711147169
144.452502181
144.191788199
143.92968629
143.665880617
143.399513364
143.129493033
142.854670964
142.573930384
142.286223046
141.99057683
141.686089121
141.371914489
141.047251286
140.711329292
140.363399241
140.002724456
139.628574339
139.240217746
138.836923956
138.417954827
137.982565442
137.530002575
137.05950378
136.570296928
136.06159998
135.532620971
134.982558148
134.410600209
133.815926639
133.197708309
132.555107989
131.887281294
131.193376637
130.472534623
129.723892189
128.946581097
128.139728845
127.302459471
126.433894441
125.533153415
124.599355042
123.631617672
122.629060043
121.590801815
120.515964141
119.403669998
118.253044332
117.063214101
115.833307914
114.562455773
113.249788039
111.894436716
110.495532814
109.052204779
107.563578955
106.02877961
104.446929962
102.817157031
101.138600573
99.410430016
97.6318741667
95.8022700998
93.9211450319
91.9883441547
90.0042343537
87.9700108422
85.88816528
83.7631441349
81.6022429382
79.4167121343
77.2229636375
75.0430419231
72.9031263392
145.951094763
145.801216188
145.629251077
145.431312394
145.206746861
144.964622702
144.712481707
144.454966271
144.194632061
143.932463305
143.6683648
143.401620851
143.131221877
142.856060366
142.575035594
142.287101296
141.991280322
141.686662209
141.37239319
141.047663938
140.711697683
140.363739844
140.003049522
139.628892826
139.240537258
138.837249393
138.418290156
137.982913895
137.530366973
137.059886713
136.570701128
136.062028292
135.533076626
134.983044903
134.411122578
133.816490093
133.198319471
132.555774804
131.88801276
131.194183455
130.473431579
129.724896563
128.947713481
128.141014143
127.30392792
126.435582787
125.535106285
124.601626584
123.634273624
122.632180201
121.594483134
120.520324349
119.408852031
118.259221719
117.070597602
115.84215386
114.573075931
113.262561491
111.909823101
110.514091718
109.074615478
107.590667796
106.061552358
104.486611326
102.865238911
101.196900975
99.4811647882
97.7177438189
95.9065633845
94.0478610782
92.1423291043
90.1913367491
88.197224129
86.1637450925
84.0966074221
82.004156165
79.898115055
77.7942386407
75.7122174094
73.6739760237
145.951097508
145.801232407
145.629278195
145.431348672
145.206791515
144.964674893
144.712540517
144.455030899
144.194701851
143.932537725
143.668443425
143.401703357
143.13130802
142.856149957
142.575128495
142.287197412
141.9913796
141.686764648
141.372498851
141.04777295
140.711810266
140.363856304
140.003170283
139.629018431
139.240668426
138.837386888
138.418434938
137.983067103
137.530529972
137.06006125
136.570889072
136.062232126
135.533299312
134.983290044
134.411394524
133.816794142
133.198661996
132.556163558
131.888457309
131.19469568
130.474025529
129.72558926
128.948525707
128.141971134
127.305060355
126.4369279
125.536709275
124.603542357
123.63656884
122.634935736
121.597797152
120.524315979
119.413665856
118.265033265
117.077619743
115.850644773
114.583348583
113.274995939
111.924880003
110.532332267
109.096718279
107.617456219
106.094025135
104.5259792
102.912968458
101.254765661
99.5513036299
97.8027319096
96.0094962188
94.1724467824
92.2930138901
90.3734972894
88.4170092998
86.4281733945
84.413505518
82.3819072007
80.3451646942
78.3182959362
76.3192038841
74.3669819295
145.970379338
145.820971667
145.644586844
145.440873009
145.211361354
144.965670386
144.71132424
144.45269661
144.191998013
143.929909897
143.666116767
143.399761098
143.129751616
142.854939838
142.574209131
142.286511384
141.990874613
141.686396354
141.37223136
141.047578187
140.711666862
140.363748386
140.003086412
139.628950761
139.240610723
138.837335783
138.418388312
137.983023979
137.530490225
137.060025484
136.57085862
136.062208926
135.53328597
134.983289864
134.411411646
133.816833697
133.198730286
132.55626828
131.88860787
131.19490343
130.474304311
129.725955922
128.949000769
128.142579535
127.305832356
126.437900246
125.537926575
124.605058784
123.638450132
122.637261711
121.600664591
120.527842326
119.417993486
118.270334958
117.084105059
115.858567792
114.593017483
113.286784494
111.939240141
110.5498068
109.117972789
107.643290954
106.125405166
104.56406732
102.959162778
101.31074763
99.6191091251
97.8848310225
96.1088013262
94.2923959299
92.4375903899
90.5470699926
88.6248128463
86.6760758785
84.707850485
82.7292899368
80.7520674911
78.7905879113
76.8615685247
74.9824498529
146.012661279
145.862719325
145.676016934
145.459954404
145.220285957
144.967496678
144.708885982
144.448169448
144.186820474
143.924913391
143.661707987
143.396081367
143.126793431
142.852623251
142.572427546
142.28515665
141.989849233
141.685618135
141.371634012
141.047109942
140.711288296
140.363430122
140.002806865
139.628693803
139.240367418
138.837097965
138.418151115
137.982784561
137.53024724
137.05977862
136.57060856
136.06195709
135.533034551
134.983041853
134.411170868
133.816604947
133.198519527
132.556082834
131.888456691
131.194797418
130.474256761
129.725983043
128.949122256
128.142819329
127.306219585
126.438470257
125.538722331
124.606132404
123.639864898
122.639094381
121.603008328
120.530810008
119.421722038
118.274990309
117.089888218
115.865722228
114.601837943
113.297627488
111.952537092
110.56607941
109.137845191
107.667522136
106.154910163
104.599949281
103.002753929
101.363637461
99.6831538515
97.9621633955
96.2019872531
94.4044392215
92.571973901
90.7078528122
88.8163846045
86.9031710107
84.9754306194
83.0423355502
81.1153264351
79.2083493699
77.3375369503
75.5198036299
146.086746886
145.931237357
145.725012179
145.488511739
145.233090793
144.969857648
144.705283073
144.441806586
144.179700109
143.918136817
143.65578357
143.391164594
143.122850691
142.849533764
142.570041989
142.283328069
141.988447334
141.684534207
141.370780968
141.046420088
140.710710217
140.362925553
140.002347876
139.628260455
139.239945038
138.836676974
138.417725063
137.982349383
137.529800633
137.05931964
136.570137303
136.061474556
135.532542562
134.982543026
134.41066862
133.816103637
133.198024593
132.555600989
131.887996227
131.194368519
130.473871882
129.725657331
128.948874151
128.142671241
127.306198728
126.438609715
125.539062299
124.606721638
123.640762646
122.640372532
121.604754012
120.533128917
119.424742203
118.278866891
117.094809107
115.871914772
114.609577116
113.307245656
111.964436583
110.58074474
109.155860706
107.689588834
106.181868065
104.632798402
103.04267168
101.412027779
99.7417011749
98.0328748775
96.2871601717
94.5066990426
92.6942895204
90.8535314106
88.9890061254
87.106487722
85.213205108
83.3181419597
81.4323775309
79.5694807064
77.7454621125
75.9777312183
146.209870233
146.034099251
145.79300605
145.525761366
145.248645326
144.972067384
144.700427978
144.433968243
144.171238166
143.910258981
143.648996906
143.385585812
143.118400964
142.846052097
142.567346763
142.281247619
141.986832936
141.683263605
141.369757211
141.045568296
140.709973812
140.362262572
140.001727769
139.627661088
139.239350708
138.836077078
138.417112354
137.981719204
137.529150181
137.058647573
136.569443352
136.060759351
135.53180755
134.981790424
134.409901482
133.81532587
133.197241004
132.554817508
131.887220167
131.19360888
130.473139761
129.724966384
128.94824108
128.142116416
127.305746912
126.438291036
125.53891327
124.606786619
123.64109534
122.641038181
121.605831713
120.534714419
119.426951551
118.281840399
117.098716611
115.876961646
114.616011544
113.315367171
111.974606258
110.593398243
109.171520808
107.708880952
106.205540211
104.661745189
103.07796258
101.454920969
99.7936636066
98.0956120317
96.3626409242
94.5971631947
92.8022338913
90.9816702092
89.14019555
87.2836005717
85.4189461618
83.554825652
81.701753208
79.8728089479
78.0840236909
76.3540716947
146.41326994
146.181642688
145.880358436
145.569482517
145.2647307
144.972781498
144.693867726
144.424793403
144.161876916
143.90182976
143.641892884
143.379829987
143.113849437
142.84250286
142.564594143
142.279106811
141.985148652
141.681910754
141.368637977
141.044607974
140.709116435
140.361466742
140.000963528
139.626907554
139.238592259
138.835303159
138.416315858
137.980895472
137.528296347
137.057762109
136.568525726
136.059809824
135.530827134
134.980780862
134.408865275
133.814266394
133.19616267
132.553725837
131.886121873
131.192511985
130.472053897
129.723903184
128.947214739
128.141144317
127.304850356
126.437496054
125.5382516
124.6062969
123.640824482
122.641043091
121.606181594
120.535493125
119.428260667
118.283802895
117.101481374
115.880708585
114.620956966
113.321771466
111.982782924
110.603723935
109.184447762
107.724950849
106.225399482
104.686161424
103.107843223
101.491334512
99.8378587217
98.1490322473
96.4269339503
94.6741814169
92.8940162965
91.0903963574
89.2680956235
87.4328109167
85.5912936607
83.7515377508
81.923164424
80.1183278221
78.3525434539
76.6456670722
146.747325072
146.38415277
145.984408384
145.615537168
145.278022349
144.970004918
144.684711744
144.414066199
144.151743389
143.893118312
143.63477455
143.374181863
143.109441489
142.839087069
142.561943366
142.277028725
141.983487744
141.680545169
141.367474362
141.043576363
140.708165579
140.360558503
140.00007117
139.626010937
139.237677626
138.834361015
138.415339847
137.979881497
137.52724187
137.056665621
136.567386538
136.058627911
135.529602944
134.979515237
134.40755953
133.812922438
133.194783358
132.552315023
131.88468458
131.191054809
130.47058554
129.722433906
128.945756937
128.139712999
127.303463705
126.436176003
125.537024782
124.605195578
123.639887844
122.64031878
121.605727026
120.535377707
119.428568244
118.284634841
117.102960013
115.882981569
114.62420405
113.326209541
111.988672695
110.611378355
109.194241628
107.73733162
106.240899546
104.705411543
103.131586896
101.520442397
99.8733428516
98.1920581775
96.4788261072
94.7364187971
92.9682119092
91.1782519522
89.3713152934
87.5529530425
85.7295295369
83.9082617409
82.0974519929
80.3074813668
78.5515649506
76.8483559613
147.297098209
146.643156966
146.090976241
145.653491174
145.281979173
144.959969263
144.670944303
144.400772211
144.140360857
143.883923576
143.627577112
143.368641098
143.105204525
142.835841224
142.559430786
142.275045324
141.981876335
141.679187309
141.366282355
141.042486085
140.707130442
140.359545313
139.999051806
139.62496974
139.236603706
138.833246714
138.414180041
137.978672937
137.525982792
137.055355222
136.566024751
136.057215277
135.528140571
134.978004807
134.406003206
133.811322535
133.193141314
132.550633522
131.882967208
131.189305873
130.468809712
129.720638083
128.943949926
128.137905757
127.301669745
126.434411918
125.535310891
124.603556639
123.638353931
122.638926053
121.604519667
120.534409721
119.427905081
118.284355645
117.103160463
115.883776812
114.625731337
113.328634359
111.992194138
110.616235147
109.200719399
107.745771401
106.251707214
104.71906819
103.148659945
101.541596424
99.899349197
98.2238020224
96.5173081002
94.7827532942
93.0236111337
91.2439912003
89.4486667589
87.6430664582
85.8332074469
84.0254775355
82.2265371583
80.4439453759
78.6848155573
76.9578421048
148.29233576
146.934518796
146.143769342
145.643922753
145.253077925
144.929317034
144.644899779
144.380387787
144.124979575
143.872528962
143.619210309
143.362511216
143.100695356
142.832486526
142.556884154
142.2730529
141.980254376
141.677804015
141.36504461
141.041327621
140.705993525
140.358393055
139.997874322
139.623753987
139.235340373
138.831929906
138.412805489
137.97723534
137.524478518
137.053782186
136.564381452
136.055500587
135.526353637
134.976145054
134.404070394
133.809317336
133.191067251
132.548493158
131.880763168
131.187041645
130.466489981
129.718268043
128.941535776
128.1354551
127.299191867
126.43191825
125.532815363
124.601076258
123.635909466
122.636542835
121.602228209
120.532246787
119.425915121
118.282592329
117.101688668
115.88267525
114.625096004
113.328579896
111.992857931
110.617781837
109.203345825
107.749712071
106.257240262
104.726521665
103.158418352
101.554107577
99.9151309867
98.2434464808
96.5414805139
94.8122074046
93.0591753144
91.2865520096
89.499142639
87.7023645098
85.9021144559
84.104259024
82.3143274936
80.5370823929
78.767325777
76.9755473617
150.08544421
147.157345126
146.043814453
145.516739768
145.14963518
144.855056358
144.593592835
144.345220614
144.10085823
143.855938932
143.607767901
143.354592394
143.095182163
142.828603394
142.554091096
142.270973806
141.978627603
141.676447809
141.363831883
141.040172395
140.704864276
140.357267622
139.996713612
139.622537089
139.234055887
138.830570862
138.411368188
137.975722836
137.522892583
137.052123117
136.562649527
136.053696196
135.524477272
134.974197255
134.402051702
133.807227977
133.188906294
132.546260726
131.878460044
131.184668875
130.464049052
129.715761032
128.938965494
128.132825211
127.296506862
126.429183802
125.530038497
124.59826559
123.633075433
122.6336982
121.599388566
120.529431088
119.423146269
118.279898074
117.099102361
115.880236821
114.622852865
113.326589625
111.991189885
110.616519032
109.202587367
107.749576178
106.257867724
104.728079731
103.161105067
101.558156037
99.9208140685
98.251086656
96.5514707584
94.8249717174
93.075194959
91.3063771815
89.5234076265
87.7318050567
85.9376154002
84.1473358474
82.3673870606
80.6025528907
78.8323744356
76.9323847608
56.8854219084
53.3332722408
50.9418035814
48.9843724941
47.3123426489
45.8555473761
44.5700039849
43.4260039455
42.4018686905
41.4808430081
40.6495101762
39.8968531495
39.2136588149
38.5921177707
38.0255419985
37.508156709
37.0349415946
36.6015084102
36.2040017104
35.8390200098
35.5035505931
35.1949153891
34.9107267978
34.648849343
34.4073684943
34.1845632602
33.9788823686
33.7889239823
33.6134183234
33.4512120915
33.3012554422
33.1625910934
33.0343444829
32.915715343
32.805969744
32.70443268
32.6104811442
32.5235386473
32.4430683965
32.3685662203
32.2995530732
32.2355861297
32.1763718933
32.1219006541
32.0716471887
32.0251629308
31.9820978519
31.9422059773
31.9052568938
31.8710313225
31.8393242615
31.8099474813
31.7827528089
31.7575501385
31.7341708766
31.7124817185
31.6923481753
31.673638242
31.6562282892
31.6400083028
31.6248774911
31.6107432667
31.5975205759
31.5851322911
31.5735071626
31.5625786903
31.5522849814
31.5425697477
31.5333807297
31.5246696542
31.5163928741
31.5085088225
31.5009810857
31.4937751717
31.4868612007
31.4802108553
31.4737978693
31.4675996442
31.4615929193
31.4557586631
31.4500765273
31.4445315252
31.439106762
31.4337899995
31.4285692795
31.4234329005
31.4183712708
31.4133738984
31.4084320493
31.4035379435
31.3986863313
31.3938775858
31.3891036287
31.3843561942
31.3796304888
31.3749211498
31.3702266318
31.3655604652
31.3609150567
31.3562708656
31.3516195406
31.3469562081
31.342276808
31.3375780467
31.3328574375
31.3281128395
31.3233428159
31.3185450521
31.3137164152
31.3088541728
31.3039571822
31.2990235609
31.2940521665
31.289041903
31.2839911402
31.2788987031
31.2737633805
31.2685835904
31.2633594855
31.2580906023
31.2527762426
31.247409056
31.2419685756
31.236417823
31.2307242471
31.2256005263
31.2206451836
31.2155334612
31.2103993607
31.2053390916
31.2003960938
31.1956180943
31.1910628205
31.1867963504
31.1828856879
31.1794039387
31.1764194965
31.1739928351
31.172167797
31.170906482
31.1705931196
31.1708134274
31.1715326222
31.1722260029
31.1712665121
31.1643812701
31.1414645243
31.0806462139
30.9405081874
30.6503156231
30.1047017262
29.1706769909
27.7153702204
25.6458882833
22.9362709455
19.6428778613
15.8846634725
11.6304076229
6.60498030373
1.5710534146
60.0667955384
56.0139397958
53.3019246838
51.1495577869
49.3476260877
47.7977235957
46.4416382646
45.2421317453
44.1730238908
43.2146715656
42.3517262443
41.5718308
40.864821285
40.2221963719
39.6367585129
39.1023500704
38.6136599987
38.1660758404
37.7555670098
37.3785929759
37.0320298519
36.7131078145
36.4193640163
36.1485994184
35.8988449817
35.6683328078
35.455470507
35.258818827
35.0770758034
34.9090581896
34.7536883659
34.6099849571
34.4770511343
34.3540651583
34.2402761216
34.1349925586
34.0375785546
33.9474498489
33.8640684041
33.7869414383
33.7156204966
33.6496955453
33.5887535342
33.5322487719
33.4799364716
33.431550753
33.3868036245
33.3454202231
33.3071391855
33.2717211203
33.2389454529
33.2085999035
33.1804880038
33.1544337192
33.1302720806
33.1078571974
33.087037347
33.0676862446
33.0496916448
33.0329361811
33.0173201825
33.0027479133
32.98913355
32.976390934
32.9644455645
32.953226136
32.9426690038
32.93271651
32.9233110354
32.9144069786
32.9059532688
32.8979113119
32.8902411401
32.8829060035
32.875876511
32.8691229639
32.8626154575
32.8563341684
32.850251543
32.8443503845
32.8386084342
32.8330150586
32.8275475534
32.8221944928
32.8169408641
32.811776965
32.8066911243
32.8016744032
32.7967158216
32.7918120236
32.7869499837
32.7821159465
32.7773049456
32.772510602
32.7677347357
32.762969634
32.7582138484
32.7534569151
32.7486958274
32.7439299936
32.7391580763
32.7343749169
32.7295787402
32.7247648231
32.719930965
32.7150768158
32.7101989163
32.7052966375
32.7003668292
32.6954055904
32.6904120642
32.6853853335
32.6803230745
32.6752255859
32.6700901694
32.6649151154
32.6597019748
32.654447598
32.6491544269
32.6438252387
32.6384621334
32.6330723069
32.6276654232
32.6222701907
32.6168790615
32.6115014005
32.6059557012
32.6005435803
32.5953358833
32.5902288175
32.5852682747
32.5805103708
32.5760203647
32.5718706959
32.5681453068
32.5649273344
32.562299837
32.5603307565
32.5591052199
32.5586626265
32.5591041816
32.5602805697
32.561985524
32.5634657346
32.5625725568
32.554048328
32.5258352737
32.4528034022
32.2886051434
31.956214334
31.3441548044
30.3164262582
28.7432185106
26.541416042
23.6969401093
20.2706658848
16.3795551763
12.0076597854
6.89365131021
1.704449887
62.2742496256
58.3407613679
55.4735829225
53.1896489222
51.2877063291
49.6612799804
48.2453376704
46.9978593891
45.8894163143
44.8981371699
44.007115908
43.2028872896
42.4744855838
41.8128227858
41.2102648774
40.660327736
40.1574512763
39.6968322615
39.2742914662
38.8861709053
38.5292526792
38.2006908888
37.8979596836
37.6188068484
37.3612183411
37.1233865718
36.9036843135
36.700641502
36.5129275951
36.3393338627
36.1787595872
36.0302016325
35.892743171
35.7655442549
35.6478362264
35.5389113483
35.4381183783
35.3448571321
35.258572991
35.1787533331
35.1049230596
35.0366461091
34.9735188146
34.9150425718
34.8608388015
34.8107297175
34.7643993558
34.721552467
34.6819197106
34.6452533546
34.6113267296
34.5799255324
34.550854672
34.5239310267
34.498980725
34.4758504499
34.4543844139
34.4344451342
34.4159140427
34.398669971
34.3826084581
34.3676253761
34.3536296775
34.3405385191
34.3282761356
34.3167696708
34.305951933
34.2957635109
34.286144769
34.2770477312
34.2684202715
34.2602206853
34.2524090837
34.24494663
34.2378018472
34.2309449844
34.2243438693
34.2179782175
34.2118198531
34.2058503188
34.2000440286
34.1943853903
34.1888576963
34.1834481413
34.178141559
34.172927893
34.1677935054
34.1627282427
34.1577214017
34.1527603543
34.1478378951
34.1429528043
34.1381030824
34.1332759544
34.1284712317
34.1236789674
34.1188988635
34.1141242963
34.1093526358
34.1045775088
34.0997941566
34.0949965417
34.0901831741
34.0853496844
34.0804925854
34.0756111118
34.0707026806
34.0657665583
34.0607993899
34.0557970947
34.0507594434
34.0456856772
34.0405733573
34.0354220827
34.0302299483
34.0249958669
34.0197209767
34.0144033189
34.0090454582
34.0036502634
33.9982201035
33.992763408
33.9872876613
33.9818101237
33.9763212503
33.9708399715
33.9654217617
33.9600826709
33.9547994706
33.9495334851
33.9444747755
33.9396943781
33.9352383278
33.931176418
33.9275948482
33.9246070651
33.9223006601
33.9207248067
33.9199912714
33.9201747431
33.9213059286
33.9232686595
33.9257286827
33.9276707044
33.9263829538
33.9155589243
33.8811701518
33.7948189313
33.6054378069
33.2301938507
32.5523483359
31.4338435486
29.7483812105
27.4219141839
24.4504766301
20.8976473801
16.8770742612
12.3873150717
7.18183518945
1.83559979045
64.0784452225
60.3536913574
57.4496837701
55.0945090122
53.1244495357
51.4401667142
49.9764966114
48.6895526108
47.5480794436
46.52874142
45.6135150108
44.78809936
44.040904708
43.3623787479
42.7445383528
42.1806373592