/*--------------------------------*- C++ -*----------------------------------*\
| =========                 |                                                 |
| \\      /  F ield         | OpenFOAM: The Open Source CFD Toolbox           |
|  \\    /   O peration     | Version:  2106                                  |
|   \\  /    A nd           | Website:  www.openfoam.com                      |
|    \\/     M anipulation  |                                                 |
\*---------------------------------------------------------------------------*/
FoamFile
{
    version     2.0;
    format      ascii;
    arch        "LSB;label=32;scalar=64";
    class       volVectorField;
    location    "0.325";
    object      U;
}
// * * * * * * * * * * * * * * * * * * * * * * * * * * * * * * * * * * * * * //

dimensions      [0 1 -1 0 0 0 0];

internalField   nonuniform List<vector> 
11200
(
(0.662462407668 0.150569440064 0)
(0.558948692475 0.103243387049 0)
(0.383850777127 0.0513512232978 0)
(0.283747653301 0.0248708544362 0)
(0.232075345528 0.0124170443403 0)
(0.20190867875 0.00662281578003 0)
(0.183198040704 0.00380291318243 0)
(0.171276611291 0.00231586868973 0)
(0.163510443261 0.00146450510981 0)
(0.158388920243 0.000944890964564 0)
(0.155006794668 0.000615175483515 0)
(0.152786852059 0.000402232463301 0)
(0.151346713482 0.000264230925958 0)
(0.150428487047 0.000175248866888 0)
(0.149856892496 0.000118359336505 0)
(0.149512700281 8.21584826849e-05 0)
(0.149315148608 5.88642193856e-05 0)
(0.149209795752 4.33137772783e-05 0)
(0.149159945488 3.29322140598e-05 0)
(0.149142714838 2.81840612616e-05 0)
(0.149144879909 2.76822521319e-05 0)
(0.149157164583 2.98879269009e-05 0)
(0.14917279504 3.30485459602e-05 0)
(0.149188350915 3.59643529357e-05 0)
(0.149202567319 3.86000615977e-05 0)
(0.149214844022 4.10392763997e-05 0)
(0.149225012978 4.33166257829e-05 0)
(0.149233180632 4.54633197887e-05 0)
(0.149239583391 4.75187191088e-05 0)
(0.149244503225 4.95297961082e-05 0)
(0.149248225326 5.15584950273e-05 0)
(0.149251017318 5.36957399234e-05 0)
(0.149253076544 5.60243404006e-05 0)
(0.149254573742 5.8405685063e-05 0)
(0.149255642019 6.07667988153e-05 0)
(0.149256368044 6.30878249104e-05 0)
(0.149256848892 6.5379299657e-05 0)
(0.14925716825 6.76541070249e-05 0)
(0.149257379394 6.99239434259e-05 0)
(0.149257511014 7.21947685093e-05 0)
(0.149257583536 7.44675143891e-05 0)
(0.149257614099 7.67431615217e-05 0)
(0.149257614814 7.90214177107e-05 0)
(0.149257594824 8.13012549813e-05 0)
(0.14925756107 8.35808035926e-05 0)
(0.149257518882 8.58578247573e-05 0)
(0.149257472779 8.81295434861e-05 0)
(0.149257426618 9.03930561063e-05 0)
(0.149257384726 9.26453547749e-05 0)
(0.149257351904 9.48834519305e-05 0)
(0.149257334121 9.71040047295e-05 0)
(0.149257340298 9.93041701854e-05 0)
(0.149257383361 0.000101480864591 0)
(0.149257481554 0.000103630574639 0)
(0.149257661332 0.00010574925631 0)
(0.149257959771 0.000107830748106 0)
(0.149258428158 0.000109868056957 0)
(0.149259142068 0.000111851697387 0)
(0.149260211459 0.000113769033654 0)
(0.149261794737 0.00011559517114 0)
(0.14926413816 0.000117274341949 0)
(0.149267649344 0.000118722811235 0)
(0.149272797613 0.000119980734561 0)
(0.149280229341 0.000121241025975 0)
(0.1492909769 0.000122966712825 0)
(0.14930656213 0.000125339539345 0)
(0.149329370604 0.000128119852038 0)
(0.14936309675 0.000131081651763 0)
(0.149413332513 0.000134009234856 0)
(0.149488307854 0.000136789076412 0)
(0.149599960478 0.000140697193793 0)
(0.149771122608 0.000151555877058 0)
(0.150039561448 0.000172282692895 0)
(0.150468437069 0.000202536679268 0)
(0.151193551423 0.000232465786424 0)
(0.152492558256 0.000191663183 0)
(0.155021630381 -0.000216794946624 0)
(0.162375154348 -0.00211023193038 0)
(0.187704329506 -0.0107891515829 0)
(0.204364658244 -0.0496626282095 0)
(0.965408259422 0.289214703795 0)
(0.961962880059 0.252656038768 0)
(0.823574430852 0.159021440797 0)
(0.69813942332 0.0959957303633 0)
(0.61022553221 0.058248113032 0)
(0.548971572513 0.0362148516598 0)
(0.506588980687 0.0231612831743 0)
(0.477567370759 0.0151375130419 0)
(0.457745602957 0.0100177527285 0)
(0.444228581143 0.00665813874843 0)
(0.435053428125 0.00441555393113 0)
(0.428873256534 0.00290686354287 0)
(0.424754348465 0.00189105607247 0)
(0.42204680586 0.00121004281273 0)
(0.42029797527 0.000757160601932 0)
(0.419193372321 0.000459252677738 0)
(0.418515773419 0.000265851219913 0)
(0.418116633331 0.000142395732287 0)
(0.41789603806 6.61052848149e-05 0)
(0.417786996853 2.30881233114e-05 0)
(0.417745593003 1.40335222573e-06 0)
(0.417742327965 -1.01670219456e-05 0)
(0.417756939411 -1.37183766393e-05 0)
(0.417778912038 -1.3271837691e-05 0)
(0.417803220218 -1.08397069919e-05 0)
(0.417826604264 -7.49681370146e-06 0)
(0.417847370563 -3.88075414409e-06 0)
(0.417864920163 -3.61472581998e-07 0)
(0.417879256665 2.85979987594e-06 0)
(0.417890695387 5.67922094078e-06 0)
(0.417899708393 8.0325327628e-06 0)
(0.417906789528 9.83507879065e-06 0)
(0.417912141005 1.10042618316e-05 0)
(0.417915997326 1.18570099004e-05 0)
(0.417918736557 1.26795589281e-05 0)
(0.417920633901 1.34367364542e-05 0)
(0.41792193202 1.41109851042e-05 0)
(0.417922822064 1.47266245211e-05 0)
(0.417923429717 1.5312559239e-05 0)
(0.417923825785 1.58823440418e-05 0)
(0.417924062591 1.64360583333e-05 0)
(0.417924183456 1.69787105968e-05 0)
(0.417924219136 1.75140053499e-05 0)
(0.417924192366 1.80455029544e-05 0)
(0.417924120103 1.85762426605e-05 0)
(0.417924015377 1.91089275835e-05 0)
(0.417923889205 1.96452892919e-05 0)
(0.417923752019 2.01873322367e-05 0)
(0.417923615425 2.07374175343e-05 0)
(0.417923492361 2.12976629321e-05 0)
(0.41792339984 2.18678980955e-05 0)
(0.41792336211 2.24480224108e-05 0)
(0.417923412434 2.30378597397e-05 0)
(0.417923597437 2.36371033067e-05 0)
(0.417923982548 2.42453396718e-05 0)
(0.417924660946 2.48613372317e-05 0)
(0.417925765051 2.54825230455e-05 0)
(0.41792748883 2.60974496391e-05 0)
(0.417930110167 2.66893945837e-05 0)
(0.417934018707 2.72267315991e-05 0)
(0.417939816407 2.76606706752e-05 0)
(0.417948600717 2.7941248836e-05 0)
(0.417961860194 2.82277964086e-05 0)
(0.41798173213 2.77752380553e-05 0)
(0.418010980066 2.5171325027e-05 0)
(0.418053211547 1.93457443617e-05 0)
(0.418114614923 9.49198123412e-06 0)
(0.418205306434 -5.92190272356e-06 0)
(0.418340884864 -2.94200536009e-05 0)
(0.41854624195 -6.46826321316e-05 0)
(0.418863269985 -0.000115902349462 0)
(0.419361565532 -0.000188050968411 0)
(0.420154595337 -0.000307825954002 0)
(0.421446015884 -0.000532800061426 0)
(0.423627481116 -0.000999803049755 0)
(0.427417706379 -0.00209055051003 0)
(0.434238908417 -0.0048566523337 0)
(0.448266233096 -0.0122548276995 0)
(0.474647426802 -0.034244277033 0)
(0.478173924061 -0.0987780143048 0)
(1.02222097084 0.238416187222 0)
(1.08213755057 0.295926653675 0)
(1.03447726508 0.239503067242 0)
(0.954615462949 0.174290164822 0)
(0.879992123038 0.121345468152 0)
(0.818614515367 0.0830993831849 0)
(0.771410941827 0.0567316655796 0)
(0.736634493066 0.0387409665061 0)
(0.711624546146 0.0264327846887 0)
(0.693916745704 0.0179731022265 0)
(0.681541547365 0.0121424454187 0)
(0.673000265971 0.00812490555292 0)
(0.667180811245 0.00536631825598 0)
(0.663271850565 0.00348444169883 0)
(0.66068868758 0.00221255816485 0)
(0.659014370742 0.00136337823369 0)
(0.657954697041 0.000805240044396 0)
(0.657304411605 0.000445912859245 0)
(0.656922001357 0.000221064951577 0)
(0.656710445153 8.55776067368e-05 0)
(0.656603591451 8.35431803336e-06 0)
(0.656562053917 -3.37229259608e-05 0)
(0.656558165143 -5.68574631749e-05 0)
(0.656571652549 -6.68770487193e-05 0)
(0.656593193435 -6.84851398626e-05 0)
(0.656617023844 -6.55644350462e-05 0)
(0.656639836229 -6.05542136375e-05 0)
(0.656660023629 -5.48650398241e-05 0)
(0.656677000606 -4.92811864055e-05 0)
(0.656690744973 -4.42094163436e-05 0)
(0.65670150322 -3.98445520239e-05 0)
(0.656709659488 -3.63052832598e-05 0)
(0.656715910401 -3.36976295923e-05 0)
(0.656720947565 -3.18572777283e-05 0)
(0.656724814069 -3.08101021922e-05 0)
(0.656727524962 -3.03023443566e-05 0)
(0.6567293929 -3.02464783866e-05 0)
(0.656730697008 -3.05571020395e-05 0)
(0.656731604128 -3.10843570566e-05 0)
(0.65673220334 -3.17461508894e-05 0)
(0.656732568333 -3.25127173074e-05 0)
(0.656732764547 -3.33492258874e-05 0)
(0.656732837291 -3.42311272703e-05 0)
(0.656732820876 -3.5139186241e-05 0)
(0.656732740809 -3.60578476431e-05 0)
(0.656732616202 -3.69760537865e-05 0)
(0.656732463499 -3.78862760819e-05 0)
(0.656732298951 -3.87829875283e-05 0)
(0.656732139747 -3.96615743611e-05 0)
(0.656732003355 -4.0516271502e-05 0)
(0.656731913086 -4.13440662248e-05 0)
(0.65673190393 -4.21407995101e-05 0)
(0.656732024808 -4.29048906924e-05 0)
(0.656732344248 -4.36393728953e-05 0)
(0.656732959369 -4.43576049871e-05 0)
(0.656734007322 -4.50901284223e-05 0)
(0.656735677089 -4.58923145456e-05 0)
(0.656738247111 -4.68591604835e-05 0)
(0.656742125723 -4.81161311671e-05 0)
(0.656747910497 -4.98821764896e-05 0)
(0.656756533952 -5.26670952625e-05 0)
(0.656769643123 -5.74761344635e-05 0)
(0.656788556665 -6.51110992867e-05 0)
(0.656814715624 -7.64383711896e-05 0)
(0.656851961459 -9.31509712626e-05 0)
(0.656907003433 -0.000117645625007 0)
(0.656989219808 -0.00015312414719 0)
(0.65711240031 -0.000204873609173 0)
(0.657298358898 -0.000281414272844 0)
(0.657582488248 -0.000396621247448 0)
(0.658022916817 -0.000574845059142 0)
(0.658708841309 -0.000863353305201 0)
(0.659787320106 -0.00135222501035 0)
(0.661515903183 -0.00221458618036 0)
(0.664336779866 -0.00381299858607 0)
(0.668945757371 -0.0069463053107 0)
(0.676368824704 -0.0133532669928 0)
(0.688614019553 -0.0268452702311 0)
(0.705240677877 -0.0563238443826 0)
(0.700496265006 -0.113094322036 0)
(1.02251476007 0.170807154218 0)
(1.10138977781 0.276496481078 0)
(1.11752429868 0.266664801282 0)
(1.09214665735 0.219901700312 0)
(1.05187822049 0.168168848117 0)
(1.01020829988 0.12356739628 0)
(0.97349477597 0.0888375204083 0)
(0.943864650172 0.0630063698204 0)
(0.921142902479 0.0442232019807 0)
(0.904284184329 0.0307423903933 0)
(0.892074989158 0.0211562916159 0)
(0.883404639685 0.014395465871 0)
(0.877352808013 0.00966794538178 0)
(0.873197852844 0.00639383412101 0)
(0.870393083199 0.00415116150313 0)
(0.868534201073 0.00263448735924 0)
(0.867327810762 0.00162401372307 0)
(0.866564414586 0.000962672356838 0)
(0.866096664945 0.0005391189469 0)
(0.86582243159 0.0002751504041 0)
(0.865671598003 0.000117065634693 0)
(0.865595358685 2.87898262865e-05 0)
(0.865564312464 -1.93273835199e-05 0)
(0.865561516499 -4.12642499075e-05 0)
(0.865572872602 -4.76692039972e-05 0)
(0.865589890712 -4.55295311907e-05 0)
(0.865608211527 -3.91607721736e-05 0)
(0.865625560979 -3.11503342522e-05 0)
(0.865640855049 -2.29692601127e-05 0)
(0.865653726567 -1.53850428195e-05 0)
(0.865664207056 -8.72654675567e-06 0)
(0.865672500392 -3.04654896897e-06 0)
(0.865678859296 1.73361686949e-06 0)
(0.865683491278 5.46643821389e-06 0)
(0.865686815328 8.03406882335e-06 0)
(0.865689219354 9.79165615946e-06 0)
(0.865690857782 1.11459237759e-05 0)
(0.865692027148 1.22912728474e-05 0)
(0.865692902191 1.32605747711e-05 0)
(0.865693500732 1.41466599941e-05 0)
(0.865693870495 1.49412927785e-05 0)
(0.86569407576 1.5666976153e-05 0)
(0.865694155585 1.63392495141e-05 0)
(0.865694141724 1.69747851423e-05 0)
(0.865694057419 1.75883849065e-05 0)
(0.865693919667 1.81902278671e-05 0)
(0.865693743883 1.87880535309e-05 0)
(0.865693546587 1.9387909352e-05 0)
(0.865693348667 1.99974047412e-05 0)
(0.865693172187 2.06265440766e-05 0)
(0.865693046562 2.12605445728e-05 0)
(0.865693013186 2.18864713317e-05 0)
(0.86569312511 2.24877219062e-05 0)
(0.865693452803 2.30380810805e-05 0)
(0.86569409048 2.35008990377e-05 0)
(0.865695170313 2.38404106709e-05 0)
(0.865696876979 2.40192612091e-05 0)
(0.865699501803 2.39176854462e-05 0)
(0.86570345014 2.33883182943e-05 0)
(0.8657091397 2.20191743349e-05 0)
(0.86571703431 1.92407740099e-05 0)
(0.865728754582 1.43559626354e-05 0)
(0.865746891517 5.5363675412e-06 0)
(0.865774411218 -8.81508340442e-06 0)
(0.865815184174 -3.06951603262e-05 0)
(0.865875129728 -6.40603046024e-05 0)
(0.865963584035 -0.000115783951247 0)
(0.866095055594 -0.000196626346988 0)
(0.866292089213 -0.000323845045172 0)
(0.866589498857 -0.000525912481431 0)
(0.867040881132 -0.000851773326572 0)
(0.86773129301 -0.00138836100786 0)
(0.868797073102 -0.00228444336837 0)
(0.870451459786 -0.00381460990046 0)
(0.87301332023 -0.00650312346065 0)
(0.876881525931 -0.0113594399559 0)
(0.882378549593 -0.0202527598276 0)
(0.88968754779 -0.0364540667629 0)
(0.896363390533 -0.0654959380898 0)
(0.88653540905 -0.110052567795 0)
(1.0128787563 0.118961026169 0)
(1.0882067273 0.23180694067 0)
(1.13741370642 0.253106767977 0)
(1.15409091579 0.228992756214 0)
(1.149942169 0.188368360748 0)
(1.13538472517 0.146579845043 0)
(1.11758902799 0.110150965975 0)
(1.10059509111 0.0808162217704 0)
(1.08612466941 0.0582265755574 0)
(1.0745910319 0.0413189837738 0)
(1.06579158324 0.028916018663 0)
(1.0592881144 0.0199600981472 0)
(1.05459989764 0.0135815579509 0)
(1.05129090715 0.00909744070062 0)
(1.04899999636 0.00598615124165 0)
(1.04744355985 0.00385696367186 0)
(1.04640669311 0.002421595387 0)
(1.04573078494 0.00147014797688 0)
(1.04530123742 0.00085170034445 0)
(1.04503674909 0.000459015354812 0)
(1.04488039641 0.000216756356237 0)
(1.04479279096 7.30173588135e-05 0)
(1.04474893736 -5.50477824411e-06 0)
(1.04473205001 -4.4009657254e-05 0)
(1.04472981148 -5.93878583095e-05 0)
(1.04473530743 -6.17227208994e-05 0)
(1.04474426673 -5.72501652374e-05 0)
(1.04475416117 -4.98088103146e-05 0)
(1.04476361092 -4.1649786878e-05 0)
(1.04477194563 -3.3993952504e-05 0)
(1.04477891478 -2.74276737921e-05 0)
(1.04478450594 -2.21545864065e-05 0)
(1.04478886565 -1.81300398339e-05 0)
(1.04479220521 -1.51403321927e-05 0)
(1.04479478025 -1.28073723408e-05 0)
(1.04479688507 -1.10098713663e-05 0)
(1.04479863075 -9.51967935351e-06 0)
(1.04479996236 -8.22902600954e-06 0)
(1.04480094908 -7.2104636805e-06 0)
(1.04480164147 -6.5423010701e-06 0)
(1.04480206107 -6.1635110784e-06 0)
(1.04480229438 -5.95577365352e-06 0)
(1.04480238745 -5.86846223523e-06 0)
(1.04480237919 -5.85218463243e-06 0)
(1.04480229498 -5.86672423721e-06 0)
(1.04480215324 -5.89211377179e-06 0)
(1.0448019718 -5.91843508594e-06 0)
(1.04480177166 -5.94137275871e-06 0)
(1.04480157883 -5.96441578756e-06 0)
(1.04480139911 -6.00062802805e-06 0)
(1.04480124649 -6.03277950364e-06 0)
(1.04480116586 -6.05895607669e-06 0)
(1.04480121162 -6.08527753654e-06 0)
(1.04480145899 -6.12693525379e-06 0)
(1.04480202996 -6.2224636796e-06 0)
(1.04480310821 -6.48482440458e-06 0)
(1.0448048808 -7.17437192615e-06 0)
(1.04480763691 -8.56935848408e-06 0)
(1.04481168978 -1.11611198778e-05 0)
(1.04481750852 -1.49871948414e-05 0)
(1.04482611113 -1.99251634609e-05 0)
(1.04483864828 -2.61480265861e-05 0)
(1.04485640342 -3.59408658336e-05 0)
(1.04488168016 -5.22849756412e-05 0)
(1.04491794739 -7.93978228365e-05 0)
(1.04497035524 -0.000123524334471 0)
(1.04504650474 -0.000194434191333 0)
(1.04515773984 -0.000307704587644 0)
(1.04532120168 -0.000488498136489 0)
(1.04556274618 -0.000777835784809 0)
(1.0459210443 -0.00124303507114 0)
(1.04645394106 -0.0019957342279 0)
(1.04724553677 -0.00322647254138 0)
(1.04840875789 -0.00526603587065 0)
(1.05007089608 -0.00869128449477 0)
(1.0522885976 -0.0144960032328 0)
(1.05481787309 -0.0242873298405 0)
(1.05686917127 -0.0403754499336 0)
(1.05573677521 -0.0656002749267 0)
(1.0421232783 -0.0994660291642 0)
(1.00447483978 0.0814040007518 0)
(1.06917239198 0.181288543258 0)
(1.13080572091 0.216950422603 0)
(1.17375005119 0.210789158602 0)
(1.19865271141 0.183690079053 0)
(1.21019995086 0.149751684631 0)
(1.21350263888 0.116779144563 0)
(1.21251733189 0.0882206777086 0)
(1.20973108417 0.065048150199 0)
(1.20651130706 0.0470209077531 0)
(1.20351925347 0.0334068069723 0)
(1.20101158156 0.0233557306197 0)
(1.19903458963 0.0160720115487 0)
(1.19753892585 0.0108795111051 0)
(1.1964414683 0.00723418531093 0)
(1.1956557462 0.00471351588428 0)
(1.19510505706 0.00299762695849 0)
(1.19472665121 0.00184915949746 0)
(1.19447167811 0.00109496001439 0)
(1.19430337657 0.000610611871624 0)
(1.1941947469 0.000307987700417 0)
(1.19412647259 0.000125769791368 0)
(1.19408543362 2.22240906056e-05 0)
(1.19406218578 -3.24518794787e-05 0)
(1.19404989642 -5.72717471814e-05 0)
(1.19404440844 -6.45988848397e-05 0)
(1.19404292078 -6.23783036882e-05 0)
(1.19404361462 -5.55245100225e-05 0)
(1.19404537399 -4.6947770147e-05 0)
(1.19404754054 -3.82615912172e-05 0)
(1.19404974164 -3.02670560606e-05 0)
(1.19405178535 -2.32690890438e-05 0)
(1.19405360305 -1.72916420452e-05 0)
(1.19405518986 -1.22613156346e-05 0)
(1.19405656235 -8.07154034131e-06 0)
(1.19405774021 -4.66866830111e-06 0)
(1.19405869616 -2.05692976022e-06 0)
(1.19405937576 -1.67288523406e-07 0)
(1.19405973863 1.14939306984e-06 0)
(1.19405986103 2.00481935167e-06 0)
(1.1940599226 2.68245269824e-06 0)
(1.19405995938 3.28381505566e-06 0)
(1.19405994553 3.80898804141e-06 0)
(1.19405989805 4.266935505e-06 0)
(1.19405981365 4.66997978287e-06 0)
(1.19405968422 5.0348206715e-06 0)
(1.19405951308 5.37352267344e-06 0)
(1.19405930734 5.68941176825e-06 0)
(1.19405907606 5.97418344608e-06 0)
(1.19405886046 6.21084288128e-06 0)
(1.19405870692 6.42343393453e-06 0)
(1.19405864456 6.6056968159e-06 0)
(1.19405872171 6.73129740825e-06 0)
(1.19405899598 6.7595741471e-06 0)
(1.19405950249 6.63070725237e-06 0)
(1.19406022194 6.25325432024e-06 0)
(1.19406124179 5.47406390786e-06 0)
(1.19406271682 3.91269230429e-06 0)
(1.19406531941 1.15691987515e-06 0)
(1.1940700793 -3.08632544761e-06 0)
(1.19407752852 -9.59478905559e-06 0)
(1.19408760203 -1.9750949323e-05 0)
(1.19410106486 -3.55700909277e-05 0)
(1.19411990712 -5.9969052393e-05 0)
(1.19414625596 -9.75296706324e-05 0)
(1.19418293204 -0.000155567511911 0)
(1.19423392492 -0.000245728748956 0)
(1.19430486586 -0.000386491804205 0)
(1.19440363624 -0.000607314319561 0)
(1.19454100872 -0.000955531731275 0)
(1.19473102362 -0.00150766189457 0)
(1.19499044996 -0.00238799164095 0)
(1.19533409355 -0.00379976236508 0)
(1.19575920018 -0.00607593709665 0)
(1.19620542547 -0.00975541905534 0)
(1.19645302172 -0.0156821331503 0)
(1.19591514594 -0.0250671838136 0)
(1.19343721283 -0.0393665931321 0)
(1.18668396652 -0.0598239863375 0)
(1.17013654957 -0.0851302715938 0)
(0.998962330671 0.0544316285868 0)
(1.05310958673 0.133401611893 0)
(1.11628271551 0.170777561987 0)
(1.17301276598 0.175143875066 0)
(1.21791252123 0.159583608586 0)
(1.25049864905 0.134951021667 0)
(1.27288499218 0.10841165777 0)
(1.28776731221 0.0838849723472 0)
(1.29745278079 0.063056572546 0)
(1.30366086108 0.0462999213412 0)
(1.30759246393 0.0333205145164 0)
(1.31005383133 0.0235495234108 0)
(1.31157376443 0.0163599068173 0)
(1.31249507583 0.0111713138626 0)
(1.31303877718 0.00749150524316 0)
(1.31334687699 0.00492448446638 0)
(1.31351029927 0.00316295409596 0)
(1.31358693803 0.00197475127865 0)
(1.31361332394 0.00118819698927 0)
(1.31361218488 0.000678630043409 0)
(1.31359735862 0.000357009616374 0)
(1.31357704969 0.000160755269631 0)
(1.31355606825 4.64698849452e-05 0)
(1.31353678622 -1.5869739029e-05 0)
(1.31352014203 -4.60596139687e-05 0)
(1.31350646724 -5.70711611424e-05 0)
(1.31349557673 -5.73272480881e-05 0)
(1.3134871329 -5.20897358814e-05 0)
(1.31348074702 -4.45276437722e-05 0)
(1.3134760336 -3.6465348727e-05 0)
(1.31347264161 -2.8876279103e-05 0)
(1.31347026791 -2.22138515391e-05 0)
(1.31346865326 -1.66297256463e-05 0)
(1.31346757015 -1.21315602937e-05 0)
(1.31346685368 -8.65388836577e-06 0)
(1.31346640688 -6.09513205432e-06 0)
(1.31346612878 -4.31842911104e-06 0)
(1.31346592957 -3.11628393328e-06 0)
(1.31346580639 -2.25845938479e-06 0)
(1.31346584475 -1.54136975982e-06 0)
(1.31346600549 -9.66867285292e-07 0)
(1.31346611041 -5.55161728912e-07 0)
(1.31346610936 -1.97734306013e-07 0)
(1.31346603515 1.35338549421e-07 0)
(1.3134659099 4.42524722742e-07 0)
(1.31346574635 7.32365121186e-07 0)
(1.31346554832 1.01631806595e-06 0)
(1.31346531887 1.30482691461e-06 0)
(1.31346506749 1.60799299302e-06 0)
(1.31346482721 1.92906503281e-06 0)
(1.31346462098 2.21808838224e-06 0)
(1.31346445583 2.4364735789e-06 0)
(1.31346436198 2.53972518433e-06 0)
(1.31346439261 2.46453209473e-06 0)
(1.31346463569 2.12427850816e-06 0)
(1.31346521031 1.43266418819e-06 0)
(1.31346608784 3.35051379311e-07 0)
(1.31346736393 -1.34810082358e-06 0)
(1.31346945981 -3.84812120896e-06 0)
(1.31347258848 -7.89346764438e-06 0)
(1.31347695783 -1.47680915842e-05 0)
(1.31348279973 -2.60452515581e-05 0)
(1.3134903909 -4.33181162807e-05 0)
(1.31350021757 -6.97598549352e-05 0)
(1.31351259824 -0.000110398472986 0)
(1.31352761613 -0.000172979819462 0)
(1.31354489095 -0.000269585656794 0)
(1.31356311337 -0.000419168450134 0)
(1.31357909356 -0.000651540054812 0)
(1.31358592523 -0.00101391898867 0)
(1.31356955728 -0.00158130650663 0)
(1.31350256292 -0.00247273798432 0)
(1.31333072528 -0.00387544813058 0)
(1.31294648891 -0.00608178885523 0)
(1.31213988765 -0.00953623774525 0)
(1.31050562276 -0.0148803263462 0)
(1.30729044014 -0.022942337351 0)
(1.3012848727 -0.0345627270932 0)
(1.29062137167 -0.0501791033608 0)
(1.27182820977 -0.0685653226492 0)
(0.99573607911 0.034633862749 0)
(1.04179516256 0.0905689247653 0)
(1.1022284222 0.12154956806 0)
(1.16491416607 0.129605836615 0)
(1.22202572656 0.12200927042 0)
(1.26951899615 0.106019939963 0)
(1.30680232556 0.0870975573382 0)
(1.33499545288 0.0686366822652 0)
(1.35574488541 0.0523698401238 0)
(1.37069628986 0.0389256188692 0)
(1.38128288867 0.0282980740139 0)
(1.38866282103 0.0201712774089 0)
(1.39373048715 0.0141175101547 0)
(1.39715677039 0.00970533538423 0)
(1.39943452068 0.00655059448118 0)
(1.4009198511 0.00433445400198 0)
(1.40186640606 0.0028041447587 0)
(1.40245243565 0.00176574376228 0)
(1.40280154295 0.00107419676449 0)
(1.40299825016 0.000623237591538 0)
(1.40309948251 0.00033641240279 0)
(1.40314294767 0.000159626370406 0)
(1.40315322074 5.5166820399e-05 0)
(1.40314574509 -2.99669335398e-06 0)
(1.40312999959 -3.21228438522e-05 0)
(1.40311161186 -4.38920907132e-05 0)
(1.40309358873 -4.57638083355e-05 0)
(1.40307745441 -4.24230521394e-05 0)
(1.4030638099 -3.67329054271e-05 0)
(1.40305272823 -3.03697709311e-05 0)
(1.40304400745 -2.42488428211e-05 0)
(1.4030373224 -1.88173928949e-05 0)
(1.40303231208 -1.42438835982e-05 0)
(1.40302862719 -1.05307383404e-05 0)
(1.40302597038 -7.5774473288e-06 0)
(1.40302410984 -5.2592129411e-06 0)
(1.40302286941 -3.45340583023e-06 0)
(1.40302209806 -2.01644288751e-06 0)
(1.40302162984 -8.43588808373e-07 0)
(1.40302126878 8.81561320452e-08 0)
(1.40302094754 7.96200563855e-07 0)
(1.4030207481 1.28449868892e-06 0)
(1.40302065689 1.65476079691e-06 0)
(1.40302058288 1.97242164735e-06 0)
(1.40302049248 2.27459888858e-06 0)
(1.40302037924 2.57949237467e-06 0)
(1.40302024212 2.89655706668e-06 0)
(1.4030200835 3.23042587168e-06 0)
(1.40301990425 3.58157294812e-06 0)
(1.4030196969 3.94114645111e-06 0)
(1.40301947259 4.2676109541e-06 0)
(1.40301926448 4.52882587513e-06 0)
(1.40301910101 4.68663048792e-06 0)
(1.40301900657 4.68321293803e-06 0)
(1.4030189989 4.43062798886e-06 0)
(1.4030190842 3.78591634763e-06 0)
(1.403019271 2.54501753796e-06 0)
(1.40301956276 5.88960634846e-07 0)
(1.40302018444 -2.4917985182e-06 0)
(1.40302131137 -7.47883709283e-06 0)
(1.40302280456 -1.51649604791e-05 0)
(1.40302433429 -2.68707321612e-05 0)
(1.40302542531 -4.44487677719e-05 0)
(1.40302533461 -7.08820359628e-05 0)
(1.40302257155 -0.000110758130035 0)
(1.40301439594 -0.000171104607057 0)
(1.40299600281 -0.00026279516889 0)
(1.40295920865 -0.000402696322647 0)
(1.40289007203 -0.000616861942987 0)
(1.40276487186 -0.000945900902416 0)
(1.40254357759 -0.00145314548307 0)
(1.4021598445 -0.00223701139802 0)
(1.40150211552 -0.00344654277278 0)
(1.40038203194 -0.00530548396004 0)
(1.39848629262 -0.00813667780773 0)
(1.39530171591 -0.012374989571 0)
(1.39001516667 -0.0185314981029 0)
(1.3814784089 -0.0270441510799 0)
(1.36819523364 -0.0379950652388 0)
(1.34777329896 -0.0504925091724 0)
(0.99401153623 0.0192358082697 0)
(1.03484765429 0.0523338426817 0)
(1.09199266115 0.0723631292657 0)
(1.15662424819 0.0791292334115 0)
(1.2203212253 0.076104547488 0)
(1.27701952754 0.0673339725007 0)
(1.32424427623 0.056150904694 0)
(1.36181583518 0.0447990123376 0)
(1.39068541877 0.0345303791617 0)
(1.41226087209 0.0258814341217 0)
(1.42801835427 0.0189465255814 0)
(1.43929898331 0.013584983376 0)
(1.44722822593 0.00955653509384 0)
(1.45270429075 0.00660011582302 0)
(1.45641912478 0.00447419051891 0)
(1.45889161973 0.00297351396811 0)
(1.46050249418 0.00193276987923 0)
(1.46152590121 0.00122369608262 0)
(1.46215592765 0.000749554101241 0)
(1.46252776352 0.000439022443586 0)
(1.4627340521 0.000240526566506 0)
(1.46283720675 0.000117417451806 0)
(1.46287852169 4.40542685038e-05 0)
(1.46288477366 2.69438177186e-06 0)
(1.46287266286 -1.84427543292e-05 0)
(1.4628523258 -2.74386389694e-05 0)
(1.46282978891 -2.94402679773e-05 0)
(1.4628082647 -2.76917031306e-05 0)
(1.46278928069 -2.41906161699e-05 0)
(1.46277338026 -2.0117177412e-05 0)
(1.46276055418 -1.61215735492e-05 0)
(1.46275050854 -1.25261537205e-05 0)
(1.46274283287 -9.45762589942e-06 0)
(1.46273709555 -6.92721250491e-06 0)
(1.46273289871 -4.88146997532e-06 0)
(1.46272990038 -3.2509515603e-06 0)
(1.4627278124 -1.97270913101e-06 0)
(1.46272637756 -1.00581194408e-06 0)
(1.4627253838 -3.05128427174e-07 0)
(1.46272476569 2.16520008234e-07 0)
(1.4627244096 6.97778357879e-07 0)
(1.46272416626 1.17269413994e-06 0)
(1.46272400326 1.59577159789e-06 0)
(1.46272388186 1.973979013e-06 0)
(1.46272377329 2.32857964765e-06 0)
(1.46272365917 2.67261995836e-06 0)
(1.46272352657 3.01188407324e-06 0)
(1.46272336707 3.34445009299e-06 0)
(1.46272317604 3.66078024772e-06 0)
(1.46272295056 3.94859113038e-06 0)
(1.4627226932 4.1998732805e-06 0)
(1.46272241139 4.3831236235e-06 0)
(1.46272211227 4.44733007568e-06 0)
(1.46272180576 4.32225363235e-06 0)
(1.46272150785 3.91787851977e-06 0)
(1.46272123982 3.12376865444e-06 0)
(1.46272097912 1.81861842473e-06 0)
(1.46272063109 -1.1461056688e-07 0)
(1.46272005048 -2.9241226802e-06 0)
(1.46271910695 -7.47178708849e-06 0)
(1.46271753637 -1.45400773313e-05 0)
(1.46271465711 -2.52257102432e-05 0)
(1.46270934916 -4.10723969211e-05 0)
(1.46269980498 -6.44608985616e-05 0)
(1.46268296179 -9.89905350783e-05 0)
(1.46265367679 -0.000150049020359 0)
(1.46260344203 -0.000225820925445 0)
(1.46251850019 -0.00033876633752 0)
(1.46237637826 -0.000507485134593 0)
(1.46214021872 -0.000760395317944 0)
(1.46175005774 -0.00114126701465 0)
(1.46111129725 -0.00171773055324 0)
(1.46007278958 -0.00258550737345 0)
(1.45839350342 -0.00388416821918 0)
(1.4556994515 -0.00580613258374 0)
(1.45142513509 -0.00859457222595 0)
(1.44475001644 -0.0125097278716 0)
(1.43460478538 -0.017732183803 0)
(1.41972960813 -0.0242104035308 0)
(1.39827804253 -0.0313986807681 0)
(0.993269672131 0.00617015131487 0)
(1.03158101812 0.0171020468986 0)
(1.086721852 0.0239906492142 0)
(1.15174559258 0.0265606663042 0)
(1.21823542443 0.0258180594849 0)
(1.2792578158 0.0230488870606 0)
(1.33140144623 0.0193656328378 0)
(1.37377608568 0.0155468598166 0)
(1.40691064384 0.0120449325119 0)
(1.43203325528 0.00906640224566 0)
(1.45060228045 0.00666059728289 0)
(1.4640299991 0.00479009376924 0)
(1.47355031111 0.00337843032103 0)
(1.4801757938 0.00233873998755 0)
(1.48470245746 0.00158891593082 0)
(1.4877363844 0.00105829144978 0)
(1.48972753306 0.000689466262212 0)
(1.49100297444 0.000437643206927 0)
(1.49179606619 0.000268891945821 0)
(1.49227044877 0.000158118480692 0)
(1.49253895298 8.71327185105e-05 0)
(1.49267804209 4.29829673727e-05 0)
(1.4927385887 1.65922203023e-05 0)
(1.49275377642 1.67015623576e-06 0)
(1.49274455408 -6.06444303281e-06 0)
(1.49272378125 -9.41161290355e-06 0)
(1.49269915255 -1.02195925898e-05 0)
(1.4926748954 -9.65739661845e-06 0)
(1.49265310758 -8.44372461191e-06 0)
(1.49263462842 -6.99779319077e-06 0)
(1.49261958006 -5.55780764716e-06 0)
(1.49260770163 -4.24496114854e-06 0)
(1.4925985633 -3.106730727e-06 0)
(1.49259168993 -2.14960876395e-06 0)
(1.49258662843 -1.35759005098e-06 0)
(1.49258297915 -7.09280830574e-07 0)
(1.49258040655 -1.82976629096e-07 0)
(1.49257864047 2.42902824394e-07 0)
(1.49257747419 6.14865858677e-07 0)
(1.49257672978 9.83772988231e-07 0)
(1.49257625349 1.28848553679e-06 0)
(1.49257595295 1.57229305215e-06 0)
(1.49257577074 1.85239983539e-06 0)
(1.49257565513 2.13934721116e-06 0)
(1.49257556749 2.44026028838e-06 0)
(1.49257548209 2.75800032423e-06 0)
(1.49257538125 3.09201105589e-06 0)
(1.49257525155 3.43818850474e-06 0)
(1.49257508283 3.7879654741e-06 0)
(1.49257486623 4.12755705413e-06 0)
(1.49257459524 4.43702829571e-06 0)
(1.49257426546 4.68436781638e-06 0)
(1.49257387058 4.8244112425e-06 0)
(1.49257339889 4.79576296309e-06 0)
(1.49257282959 4.51468029418e-06 0)
(1.49257213544 3.86376013012e-06 0)
(1.49257130362 2.6921624748e-06 0)
(1.4925702002 9.0133761455e-07 0)
(1.49256840237 -1.73091560734e-06 0)
(1.49256561212 -5.83667794338e-06 0)
(1.49256144059 -1.19454214644e-05 0)
(1.49255486196 -2.08287541352e-05 0)
(1.49254426316 -3.35736800518e-05 0)
(1.49252710021 -5.17324614297e-05 0)
(1.49249926016 -7.75022996001e-05 0)
(1.49245403704 -0.000113902428975 0)
(1.4923805598 -0.000165316042013 0)
(1.49226176784 -0.000238216258664 0)
(1.49207027945 -0.000341085236179 0)
(1.49176144578 -0.000486483660893 0)
(1.49126299365 -0.000694683044246 0)
(1.49046621011 -0.000999301851786 0)
(1.48920161478 -0.00143267553602 0)
(1.4872032491 -0.00204236959897 0)
(1.4840725829 -0.00288976107178 0)
(1.47922963392 -0.00404233888271 0)
(1.47186729829 -0.00555439466184 0)
(1.46097165266 -0.00742747467591 0)
(1.44539485492 -0.00956762171987 0)
(1.42352644639 -0.0117264412051 0)
(0.993270469838 -0.00616840191624 0)
(1.03158100057 -0.0171003765605 0)
(1.0867217856 -0.0239897625495 0)
(1.15174563021 -0.0265602476858 0)
(1.21823550236 -0.025817993528 0)
(1.27925791797 -0.0230491099079 0)
(1.33140157247 -0.0193660461875 0)