/*--------------------------------*- C++ -*----------------------------------*\
| =========                 |                                                 |
| \\      /  F ield         | OpenFOAM: The Open Source CFD Toolbox           |
|  \\    /   O peration     | Version:  2106                                  |
|   \\  /    A nd           | Website:  www.openfoam.com                      |
|    \\/     M anipulation  |                                                 |
\*---------------------------------------------------------------------------*/
FoamFile
{
    version     2.0;
    format      ascii;
    arch        "LSB;label=32;scalar=64";
    class       surfaceScalarField;
    location    "0.045";
    object      phi;
}
// * * * * * * * * * * * * * * * * * * * * * * * * * * * * * * * * * * * * * //

dimensions      [0 3 -1 0 0 0 0];

oriented        oriented;

internalField   nonuniform List<scalar> 
22100
(
3.38458712212e-05
1.6154128778e-05
2.24567451785e-05
1.13891261342e-05
1.62582187405e-05
6.19852651285e-06
1.27982682595e-05
3.45995054593e-06
1.08070667885e-05
1.99120153322e-06
9.61049116254e-06
1.19657567219e-06
8.86262352275e-06
7.47867674973e-07
8.38319384641e-06
4.79429696976e-07
8.07283604195e-06
3.10357812159e-07
7.87284632627e-06
1.99989717072e-07
7.74625102583e-06
1.26595294705e-07
7.66863336305e-06
7.76176448987e-08
7.62340227093e-06
4.52310667638e-08
7.5991432069e-06
2.42590137537e-08
7.58799540206e-06
1.1147745879e-08
7.58448262315e-06
3.51270561652e-09
7.58498030027e-06
-4.97749566411e-10
7.58790698406e-06
-2.92675828144e-09
7.59141131882e-06
-3.50441947449e-09
7.59477146731e-06
-3.36023960887e-09
7.59766184024e-06
-2.89047625188e-09
7.5999741721e-06
-2.31243670223e-09
7.60169885063e-06
-1.72477454439e-09
7.60291644584e-06
-1.21768317348e-09
7.60379660007e-06
-8.80235406574e-10
7.60439641581e-06
-5.99892012151e-10
7.6047890666e-06
-3.92725137123e-10
7.60503694274e-06
-2.47944423792e-10
7.6051877705e-06
-1.50883757679e-10
7.60527602204e-06
-8.82939523842e-11
7.60532438888e-06
-4.83991294879e-11
7.60534600157e-06
-2.1643749046e-11
7.6053505613e-06
-4.60168987761e-12
7.6053464113e-06
4.08512758971e-12
7.60533796315e-06
8.35404060809e-12
7.6053275655e-06
1.02722326582e-11
7.60531649561e-06
1.09108125967e-11
7.60530537307e-06
1.09323780384e-11
7.60529440727e-06
1.07635139516e-11
7.60528357907e-06
1.06469911726e-11
7.60527275823e-06
1.0694310036e-11
7.60526177723e-06
1.09348893422e-11
7.60525047746e-06
1.13610786831e-11
7.60523871519e-06
1.19687625215e-11
7.60522632194e-06
1.2776958809e-11
7.60521305062e-06
1.38364488038e-11
7.60519852468e-06
1.52465408156e-11
7.6051822284e-06
1.71330412294e-11
7.60516354933e-06
1.95907804138e-11
7.60514174856e-06
2.2741033393e-11
7.60511598564e-06
2.66828969377e-11
7.60508535338e-06
3.14918562995e-11
7.60504889473e-06
3.72363240606e-11
7.60500560921e-06
4.39824296199e-11
7.60495446048e-06
5.17888118974e-11
7.60489440109e-06
6.0681063385e-11
7.60482446975e-06
7.05742198217e-11
7.60474406621e-06
8.1100510848e-11
7.60465343163e-06
9.14079737389e-11
7.60455439698e-06
9.98934024101e-11
7.60445308605e-06
1.02258602315e-10
7.60436225768e-06
9.18690754287e-11
7.6042959844e-06
6.73960327446e-11
7.60427338754e-06
2.37712366846e-11
7.60433586059e-06
-6.12672750406e-11
7.60455295706e-06
-2.158793185e-10
7.6050379693e-06
-4.83830963926e-10
7.60597185197e-06
-9.32802129613e-10
7.60763818476e-06
-1.66542211683e-09
7.61045754949e-06
-2.81869393667e-09
7.61492479811e-06
-4.46686670873e-09
7.62276982035e-06
-7.84498210895e-09
7.63568532446e-06
-1.2915840329e-08
7.65737537939e-06
-2.1690692264e-08
7.69649905542e-06
-3.91244980265e-08
7.77658135999e-06
-8.00832052319e-08
7.96561098855e-06
-1.89030478847e-07
8.47712150208e-06
-5.11511140886e-07
1.01252142619e-05
-1.64809309061e-06
-6.21756284077e-06
1.6342777083e-05
5.02174631136e-05
1.59366657635e-05
4.42442751778e-05
1.73623142201e-05
3.7781149971e-05
1.26616518508e-05
3.26513180389e-05
8.58978259136e-06
2.89497855409e-05
5.69273413111e-06
2.6381766302e-05
3.76459498953e-06
2.46247884755e-05
2.5048455595e-06
2.34309102119e-05
1.67330800208e-06
2.26260055949e-05
1.11526245519e-06
2.20899081667e-05
7.36087155506e-07
2.17393851289e-05
4.77118325252e-07
2.15162380624e-05
3.0076468014e-07
2.13794539459e-05
1.82015118502e-07
2.1300070723e-05
1.03642146348e-07
2.12577516713e-05
5.34666832528e-08
2.12385335395e-05
2.27307153813e-08
2.12331490072e-05
4.88665066002e-09
2.12345784495e-05
-4.35635105969e-09
2.12392849139e-05
-8.21105057295e-09
2.12450114014e-05
-9.08691188957e-09
2.1250515026e-05
-8.394287674e-09
2.12552323776e-05
-7.02996266161e-09
2.12590234131e-05
-5.51597016402e-09
2.12619275764e-05
-4.12199399878e-09
2.12640076741e-05
-2.9604704637e-09
2.12654589956e-05
-2.05134341208e-09
2.12664439369e-05
-1.37778247608e-09
2.12670973106e-05
-9.01413222571e-10
2.12675265321e-05
-5.80180463164e-10
2.12678127867e-05
-3.74611428962e-10
2.12679697684e-05
-2.05445963177e-10
2.1268051597e-05
-1.03558340224e-10
2.12680888065e-05
-4.19365927266e-11
2.12681020522e-05
-9.33676975598e-12
2.12681021993e-05
7.97722695897e-12
2.12680952679e-05
1.6921817837e-11
2.12680846842e-05
2.11709589493e-11
2.12680722941e-05
2.29908571763e-11
2.12680589392e-05
2.38325715252e-11
2.12680448788e-05
2.45238462528e-11
2.1268030068e-05
2.54711295505e-11
2.1268014332e-05
2.68354639818e-11
2.12679974619e-05
2.86543533422e-11
2.12679792352e-05
3.09235165677e-11
2.12679593928e-05
3.36540504425e-11
2.12679376086e-05
3.691711231e-11
2.12679134449e-05
4.0902241703e-11
2.12678863364e-05
4.58569844428e-11
2.12678556771e-05
5.19100138561e-11
2.12678207878e-05
5.92545363479e-11
2.12677809951e-05
6.8002234373e-11
2.12677357263e-05
7.81592676895e-11
2.12676846059e-05
8.9632225529e-11
2.12676275747e-05
1.02204027491e-10
2.12675650526e-05
1.15473917127e-10
2.12674982006e-05
1.2872845504e-10
2.12674294195e-05
1.40638900846e-10
2.12673633507e-05
1.48588238211e-10
2.12673085426e-05
1.47795819861e-10
2.12672797166e-05
1.3046129047e-10
2.12673042703e-05
7.95972784012e-11
2.12674325667e-05
-3.44209823227e-11
2.12677456246e-05
-2.43594959943e-10
2.12683773522e-05
-6.05864025456e-10
2.12694576986e-05
-1.13951588281e-09
2.12711886014e-05
-1.9447382454e-09
2.12739917294e-05
-3.28507804479e-09
2.12785195503e-05
-5.45904920117e-09
2.12858139045e-05
-8.95864936799e-09
2.12975893948e-05
-1.45935703998e-08
2.13168696793e-05
-2.37470963234e-08
2.13483118584e-05
-3.92877103382e-08
2.14003535532e-05
-6.49585939732e-08
2.1488446958e-05
-1.0978548877e-07
2.16428728132e-05
-1.93551848401e-07
2.19253280292e-05
-3.62539759297e-07
2.24632131564e-05
-7.26916658308e-07
2.35109380191e-05
-1.55923649106e-06
2.54796310649e-05
-3.61678592295e-06
-8.30334172497e-06
2.7565410662e-05
5.35172319008e-05
1.24194339372e-05
5.29360600053e-05
1.7943486225e-05
4.96576530777e-05
1.59400588666e-05
4.58495720249e-05
1.23978637282e-05
4.24590954273e-05
9.08321079797e-06
3.97629293427e-05
6.46076112802e-06
3.77417954614e-05
4.52597947928e-06
3.62792293813e-05
3.13587410441e-06
3.52473463807e-05
2.14714546411e-06
3.45354463001e-05
1.44798723946e-06
3.40557369858e-05
9.56827615409e-07
3.37412983516e-05
6.15203276332e-07
3.35421958086e-05
3.81117587512e-07
3.34217478583e-05
2.24090005631e-07
3.33534444334e-05
1.21770002893e-07
3.33184990694e-05
5.76759650098e-08
3.33037311889e-05
1.9654407746e-08
3.3300806959e-05
-1.43226109443e-09
3.33035711599e-05
-1.09754066957e-08
3.33088418761e-05
-1.43577931452e-08
3.33146401646e-05
-1.41927374721e-08
3.33199592251e-05
-1.23491721698e-08
3.33243816048e-05
-9.93848736358e-09
3.33278229991e-05
-7.56351490648e-09
3.33303712073e-05
-5.50879605051e-09
3.33321843728e-05
-3.86461542763e-09
3.33334285512e-05
-2.62205156388e-09
3.3334251693e-05
-1.72462778817e-09
3.33347730174e-05
-1.1015617203e-09
3.33350848693e-05
-6.86510524976e-10
3.33353072382e-05
-4.27864594656e-10
3.33354414101e-05
-2.37800806906e-10
3.33355110461e-05
-1.11680271571e-10
3.33355443898e-05
-4.28334319126e-11
3.33355564689e-05
-4.30380271775e-12
3.33355562462e-05
1.6892561235e-11
3.33355490848e-05
2.80422305969e-11
3.33355381373e-05
3.36413654213e-11
3.33355250532e-05
3.66566451409e-11
3.33355105751e-05
3.88223716456e-11
3.333549494e-05
4.10520821053e-11
3.33354781245e-05
4.37802219625e-11
3.33354599799e-05
4.71699742507e-11
3.33354402943e-05
5.12517847976e-11
3.33354188199e-05
5.60315255191e-11
3.33353952668e-05
6.15962590799e-11
3.33353692085e-05
6.82611289289e-11
3.33353400641e-05
7.6414632537e-11
3.3335307457e-05
8.59676306338e-11
3.33352710363e-05
9.7090098734e-11
3.3335230556e-05
1.09810251951e-10
3.33351860105e-05
1.23923447673e-10
3.33351377925e-05
1.38966267936e-10
3.33350869135e-05
1.54125487789e-10
3.33350353408e-05
1.68058164902e-10
3.33349865791e-05
1.7852238191e-10
3.33349467343e-05
1.81590634551e-10
3.33349262441e-05
1.70299385744e-10
3.33349418318e-05
1.33560263794e-10
3.33350196852e-05
5.40977953171e-11
3.33352107392e-05
-1.09836924378e-10
3.33356068983e-05
-4.2886287159e-10
3.33362733803e-05
-9.0829781238e-10
3.3337268702e-05
-1.59937286566e-09
3.33388915044e-05
-2.76051976655e-09
3.33415861956e-05
-4.63770137592e-09
3.33459479009e-05
-7.64519429159e-09
3.33529448482e-05
-1.24546553393e-08
3.33641458484e-05
-2.0158663034e-08
3.33821376047e-05
-3.25847911798e-08
3.34112630845e-05
-5.28725733218e-08
3.34579795597e-05
-8.60046828829e-08
3.35341927277e-05
-1.41172659054e-07
3.3660272646e-05
-2.3586658455e-07
3.3871273787e-05
-4.04554275613e-07
3.42260851146e-05
-7.17352261244e-07
3.48141406196e-05
-1.31497303562e-06
3.5729134474e-05
-2.47423084078e-06
3.68561929627e-05
-4.74384434968e-06
-8.65145632724e-06
3.72043081691e-05
5.35108564919e-05
8.90857751646e-06
5.55758106281e-05
1.58785322028e-05
5.52472199906e-05
1.62686495954e-05
5.36085722001e-05
1.40365116097e-05
5.15626799521e-05
1.11291031241e-05
4.96161504995e-05
8.40729064683e-06
4.7980977625e-05
6.16115240973e-06
4.67015319527e-05
4.41531981476e-06
4.57463747235e-05
3.10230272211e-06
4.50584409232e-05
2.13592104572e-06
4.45783564494e-05
1.43691208124e-06
4.4253697494e-05
9.39862189058e-07
4.40416298782e-05
5.93185139662e-07
4.39087333323e-05
3.56986466185e-07
4.38297949074e-05
2.00708325383e-07
4.37863465319e-05
1.01124231649e-07
4.37652625664e-05
4.07382441811e-08
4.37572232912e-05
6.60686984073e-09
4.37567671687e-05
-1.05194411135e-08
4.37598195382e-05
-1.74103237038e-08
4.37641464709e-05
-1.85198221832e-08
4.37685193908e-05
-1.67222318818e-08
4.37723536389e-05
-1.37728631524e-08
4.37754477967e-05
-1.06577880963e-08
4.37778052704e-05
-7.86637221523e-09
4.37795248818e-05
-5.58431502646e-09
4.37807350391e-05
-3.83228153378e-09
4.3781560069e-05
-2.5497149139e-09
4.37821053899e-05
-1.64692658612e-09
4.37824504614e-05
-1.03161929606e-09
4.37826408e-05
-6.18248600242e-10
4.37827422437e-05
-3.39317155291e-10
4.37827835937e-05
-1.53143853293e-10
4.37828103585e-05
-6.97579270239e-11
4.37828214712e-05
-1.56257148358e-11
4.37828227499e-05
1.53542206092e-11
4.37828178411e-05
3.26534140586e-11
4.37828092055e-05
4.19717574194e-11
4.37827981367e-05
4.74525749265e-11
4.37827852529e-05
5.15099843191e-11
4.37827707959e-05
5.5444520005e-11
4.37827547773e-05
5.99282247345e-11
4.37827370546e-05
6.52649283348e-11
4.3782717376e-05
7.15613210305e-11
4.37826954146e-05
7.88692472233e-11
4.37826707967e-05
8.73061927652e-11
4.37826432371e-05
9.70825944249e-11
4.37826125055e-05
1.08512516162e-10
4.37825783524e-05
1.21516464987e-10
4.37825406014e-05
1.36200908576e-10
4.37824993131e-05
1.52378266735e-10
4.37824548811e-05
1.69534401058e-10
4.37824081881e-05
1.86738495778e-10
4.37823608337e-05
2.02480656488e-10
4.37823154335e-05
2.14423909015e-10
4.37822759979e-05
2.1895003678e-10
4.37822483396e-05
2.10323560604e-10
4.37822405336e-05
1.79287266043e-10
4.37822652095e-05
1.10177462471e-10
4.37823449047e-05
-2.41962785608e-11
4.37825019505e-05
-2.65390805302e-10
4.37828084725e-05
-7.33818677878e-10
4.3783449096e-05
-1.54729139966e-09
4.37846168265e-05
-2.76543393432e-09
4.37865342053e-05
-4.6762327062e-09
4.37896001533e-05
-7.70203591944e-09
4.37944674858e-05
-1.25110439482e-08
4.38021730002e-05
-2.01589047202e-08
4.38143616151e-05
-3.2346320949e-08
4.38336264749e-05
-5.18491285482e-08
4.38640113331e-05
-8.32574057047e-08
4.39122695537e-05
-1.34263349126e-07
4.3989245054e-05
-2.18149003822e-07
4.41119269614e-05
-3.58549584992e-07
4.43055527955e-05
-5.98181313427e-07
4.46028100867e-05
-1.01461067577e-06
4.50311483484e-05
-1.74331218512e-06
4.55609459813e-05
-3.00402897322e-06
4.59399300739e-05
-5.12282847621e-06
-8.22637165687e-06
4.55148458512e-05
5.27354409386e-05
6.17313662629e-06
5.57323937226e-05
1.28815795019e-05
5.7315516137e-05
1.46855272581e-05
5.76197784365e-05
1.37322493917e-05
5.71499699298e-05
1.15989117088e-05
5.63471498315e-05
9.21011081064e-06
5.54919375144e-05
7.01636478147e-06
5.47253983428e-05
5.18185902097e-06
5.40995915964e-05
3.72810949168e-06
5.36190011647e-05
2.61651147967e-06
5.32665879231e-05
1.78932530392e-06
5.30181799712e-05
1.18827009801e-06
5.2849594394e-05
7.61770652576e-07
5.27396847902e-05
4.66895983274e-07
5.26712873116e-05
2.69105706256e-07
5.26311644793e-05
1.41246947446e-07
5.26095059696e-05
6.2396619032e-08
5.25993115427e-05
1.68011487848e-08
5.25958920455e-05
-7.10010138715e-09
5.2596100986e-05
-1.7619418268e-08
5.25979705803e-05
-2.03895606463e-08
5.26003676879e-05
-1.9119473762e-08
5.26026952252e-05
-1.61005230244e-08
5.26046860455e-05
-1.26487163322e-08
5.2606261335e-05
-9.4417542249e-09
5.26074408908e-05
-6.76394830985e-09
5.26082859747e-05
-4.67742801022e-09
5.26088658544e-05
-3.12964125753e-09
5.26092447046e-05
-2.02580799886e-09
5.26094796946e-05
-1.26663432398e-09
5.26096234627e-05
-7.62054411246e-10
5.26097198565e-05
-4.35780461593e-10
5.26097995395e-05
-2.32936579392e-10
5.26098466243e-05
-1.16995769124e-10
5.26098736105e-05
-4.28135661268e-11
5.26098834059e-05
5.30566182042e-12
5.26098837723e-05
3.19943791815e-11
5.26098787023e-05
4.67389830847e-11
5.26098702588e-05
5.56236153021e-11
5.26098595589e-05
6.20178794286e-11
5.26098470479e-05
6.79050015254e-11
5.26098328223e-05
7.4302993171e-11
5.26098167909e-05
8.16828658642e-11
5.26097987826e-05
9.0204613446e-11
5.26097786922e-05
9.98338291396e-11
5.2609756823e-05
1.10262574401e-10
5.26097327398e-05
1.22416269666e-10
5.26097040452e-05
1.38551968326e-10
5.26096718236e-05
1.55105666014e-10
5.26096359898e-05
1.73366106061e-10
5.26095966034e-05
1.93018747682e-10
5.26095540743e-05
2.1321953338e-10
5.26095092627e-05
2.32606861183e-10
5.26094636641e-05
2.49057946177e-10
5.26094196979e-05
2.59339174621e-10
5.26093812322e-05
2.5839864116e-10
5.26093549307e-05
2.37687329841e-10
5.26093560018e-05
1.79372237524e-10
5.26094152989e-05
5.21281996369e-11
5.26095277089e-05
-1.3527901916e-10
5.26097304649e-05
-4.66758450707e-10
5.26101403948e-05
-1.14230793101e-09
5.26107742015e-05
-2.17961897199e-09
5.26117932947e-05
-3.78302508488e-09
5.26134273291e-05
-6.30874662908e-09
5.26160188768e-05
-1.02920856174e-08
5.26200884503e-05
-1.65792324994e-08
5.26264438032e-05
-2.65130730364e-08
5.26363403251e-05
-4.22419543235e-08
5.2651720952e-05
-6.72292448819e-08
5.26755762443e-05
-1.07112614837e-07
5.27124784385e-05
-1.71165920006e-07
5.27691457362e-05
-2.74817088392e-07
5.28546047668e-05
-4.44009699132e-07
5.29787182029e-05
-7.22295909544e-07
5.31456531384e-05
-1.18154669368e-06
5.33355954155e-05
-1.93325531491e-06
5.34623696807e-05
-3.13080374819e-06
5.3287166993e-05
-4.94762590885e-06
-7.36798061243e-06
5.24287762916e-05
5.19836883585e-05
4.18944832337e-06
5.50594904382e-05
9.80577751066e-06
5.76406497633e-05
1.21043680088e-05
5.9329968269e-05
1.20429309656e-05
6.02351489211e-05
1.06937311253e-05
6.06043338596e-05
8.84092594149e-06
6.06652614955e-05
6.9554371932e-06
6.05770511138e-05
5.27006944201e-06
6.04349539132e-05
3.87020671057e-06
6.02891634001e-05
2.76230199493e-06
6.01621757416e-05
1.91631294373e-06
6.00611386755e-05
1.28930712339e-06
5.99855682192e-05
8.37341047297e-07
5.99317554196e-05
5.20708702263e-07
5.98950939736e-05
3.0576705418e-07
5.98712002578e-05
1.65140540899e-07
5.98563672442e-05
7.7229494353e-08
5.98476905649e-05
2.5477676306e-08
5.98430092002e-05
-2.41889277738e-09
5.98408081354e-05
-1.54185040339e-08
5.98400298707e-05
-1.96114405944e-08
5.98400020064e-05
-1.90917466165e-08
5.98403158195e-05
-1.64144599482e-08
5.98407393274e-05
-1.30723304e-08
5.98411530831e-05
-9.85559802823e-09
5.98415053896e-05
-7.11632517163e-09
5.98417817368e-05
-4.95382632416e-09
5.98419880173e-05
-3.33595179855e-09
5.98421379829e-05
-2.17578624326e-09
5.98422456492e-05
-1.37431132893e-09
5.98423256276e-05
-8.42064182809e-10
5.98423848735e-05
-4.95093107974e-10
5.98424227835e-05
-2.7095292645e-10
5.98424371522e-05
-1.31514279354e-10
5.98424302935e-05
-3.61594536826e-11
5.98424268864e-05
8.44903141203e-12
5.98424219192e-05
3.66531236245e-11
5.98424172269e-05
5.11116981403e-11
5.98424110924e-05
6.14714535197e-11
5.98424031066e-05
6.98064482508e-11
5.98423932631e-05
7.77022462937e-11
5.98423815711e-05
8.6152411292e-11
5.98423679277e-05
9.57182633924e-11
5.98423520807e-05
1.06688273153e-10
5.98423335757e-05
1.19213126018e-10
5.98423115153e-05
1.33406618837e-10
5.98422858406e-05
1.49330333372e-10
5.98422585791e-05
1.67139730246e-10
5.98422284186e-05
1.86609687742e-10
5.98421954329e-05
2.0765459374e-10
5.9842159987e-05
2.29689099815e-10
5.98421227571e-05
2.51578610437e-10
5.98420849252e-05
2.71474465203e-10
5.984204838e-05
2.86570873877e-10
5.98420158756e-05
2.927948316e-10
5.98419907949e-05
2.84466336679e-10
5.98419752316e-05
2.54298742153e-10
5.98419603722e-05
1.95343019175e-10
5.98419335519e-05
8.01162847745e-11
5.98419422016e-05
-1.42712136691e-10
5.98421131851e-05
-6.36474747857e-10
5.98423642023e-05
-1.39201854124e-09
5.98427676174e-05
-2.58171579729e-09
5.98434180818e-05
-4.43216097618e-09
5.98444327141e-05
-7.32202276329e-09
5.984598548e-05
-1.18434940542e-08
5.98483338881e-05
-1.89263502706e-08
5.98518594955e-05
-3.00375586227e-08
5.9857120943e-05
-4.75025454078e-08
5.98649141703e-05
-7.50219469224e-08
5.98763224221e-05
-1.18520754379e-07
5.98926734113e-05
-1.87517229444e-07
5.99151841191e-05
-2.9732849304e-07
5.99436827463e-05
-4.72509274348e-07
5.99731738464e-05
-7.51788077657e-07
5.99857542975e-05
-1.1941281856e-06
5.99347546435e-05
-1.88225656232e-06
5.97187497691e-05
-2.91479936623e-06
5.914798896e-05
-4.37686527466e-06
-6.21857111291e-06
5.79985797357e-05
5.1437355086e-05
2.75209327448e-06
5.42657609541e-05
6.97737171977e-06
5.7249000337e-05
9.12112870043e-06
5.97879661515e-05
9.50396523178e-06
6.17154121656e-05
8.76628518535e-06
6.30792976435e-05
7.47704052555e-06
6.40014668981e-05
6.03326798731e-06
6.46056356659e-05
4.665900705e-06
6.49918261324e-05
3.48401625978e-06
6.52330303464e-05
2.52109778324e-06
6.53797049264e-05
1.76963834722e-06
6.54657247751e-05
1.20328724105e-06
6.55134899167e-05
7.89575848819e-07
6.55376832474e-05
4.96515296049e-07
6.55478488527e-05
2.9560134662e-07
6.55501105202e-05
1.62878748195e-07
6.5548310628e-05
7.90292448303e-08
6.55447815561e-05
2.90065948551e-08
6.55408284949e-05
1.53401490593e-09
6.55371905397e-05
-1.17807007303e-08
6.55341287344e-05
-1.65497871258e-08
6.55317172992e-05
-1.66804564179e-08
6.55299081149e-05
-1.46054052269e-08
6.55286033984e-05
-1.17677245674e-08
6.55276941688e-05
-8.94645854487e-09
6.55270801145e-05
-6.50233824722e-09
6.55266778231e-05
-4.55157684813e-09
6.55264229748e-05
-3.08111922195e-09
6.55262678733e-05
-2.02068340206e-09
6.55261774219e-05
-1.28386262568e-09
6.55261236936e-05
-7.88363682244e-10
6.55260908624e-05
-4.62322254306e-10
6.55260689948e-05
-2.49181624228e-10
6.55260544098e-05
-1.17073677832e-10
6.55260584999e-05
-4.04585790842e-11
6.55260651374e-05
1.53529230577e-12
6.55260660598e-05
3.54087206615e-11
6.55260630152e-05
5.38253160184e-11
6.55260584418e-05
6.57519134892e-11
6.55260526987e-05
7.53514961719e-11
6.55260457074e-05
8.46511378392e-11
6.55260372487e-05
9.47732999968e-11
6.55260270448e-05
1.06316847606e-10
6.55260147822e-05
1.19588218103e-10
6.55260001152e-05
1.34752553025e-10
6.55259826745e-05
1.51924116421e-10
6.5525962061e-05
1.71169856584e-10
6.55259387479e-05
1.91757366909e-10
6.55259141625e-05
2.12507624205e-10
6.55258865971e-05
2.36488283498e-10
6.55258559806e-05
2.61500128681e-10
6.55258225638e-05
2.86101485957e-10
6.55257868215e-05
3.08235033185e-10
6.55257494891e-05
3.24864018436e-10
6.55257116478e-05
3.31590489111e-10
6.55256750029e-05
3.22095938412e-10
6.55256429858e-05
2.8733832613e-10
6.55256243197e-05
2.15060658358e-10
6.55256069331e-05
9.85746869336e-11
6.55256174551e-05
-1.5213729229e-10
6.55256316398e-05
-6.49534421688e-10
6.55256725703e-05
-1.43181981928e-09
6.55257433887e-05
-2.65140827323e-09
6.55258472283e-05
-4.53485046893e-09
6.55259763755e-05
-7.44998615158e-09
6.55261000276e-05
-1.19659467061e-08
6.55261460141e-05
-1.89711674016e-08
6.55259673559e-05
-2.98578450495e-08
6.55252750949e-05
-4.68094330952e-08
6.55235009745e-05
-7.32472868933e-08
6.55195386521e-05
-1.14558269607e-07
6.55112294738e-05
-1.79208282796e-07
6.54943185571e-05
-2.80418168742e-07
6.54603557109e-05
-4.38547306162e-07
6.53926575415e-05
-6.84090943091e-07
6.52590298003e-05
-1.06050139108e-06
6.50005755299e-05
-1.62380315313e-06
6.45187522456e-05
-2.43297664186e-06
6.36682895114e-05
-3.52640276065e-06
-4.85734733626e-06
6.23070659459e-05
5.1084941972e-05
1.66715135073e-06
5.3610897763e-05
4.45141601392e-06
5.66840004768e-05
6.04802607571e-06
5.96813025129e-05
6.5066632715e-06
6.22832941158e-05
6.16429365609e-06
6.4384565752e-05
5.37576894658e-06
6.60002597747e-05
4.41757400744e-06
6.71984635214e-05
3.46769698601e-06
6.80612966174e-05
2.62118317904e-06
6.86662648998e-05
1.91612950399e-06
6.90791563731e-05
1.35674686442e-06
6.93526798338e-05
9.29763752423e-07
6.95275621462e-05
6.14693486554e-07
6.96344462775e-05
3.89631088556e-07
6.96958560842e-05
2.34191435505e-07
6.97279555026e-05
1.30779204803e-07
6.97420326166e-05
6.495198995e-08
6.97457162192e-05
2.53228444461e-08
6.97439958409e-05
3.25424262872e-09
6.9739885436e-05
-7.67045256017e-09
6.97351756294e-05
-1.18401398063e-08
6.97307766832e-05
-1.22816608141e-08
6.97270814981e-05
-1.09103534693e-08
6.9724183732e-05
-8.87006943665e-09
6.97220237204e-05
-6.78653069163e-09
6.97204780058e-05
-4.95667507549e-09
6.97194099032e-05
-3.4834906311e-09
6.97186948629e-05
-2.36606436589e-09
6.97182302859e-05
-1.55607606575e-09
6.97179367987e-05
-9.90352675541e-10
6.97177558858e-05
-6.07450032213e-10
6.97176480584e-05
-3.54521863283e-10
6.97175899013e-05
-1.91091092576e-10
6.97175626025e-05
-8.99052140864e-11
6.97175461075e-05
-2.41745711089e-11
6.97175310787e-05
1.62797047408e-11
6.97175273015e-05
3.88559233018e-11
6.97175259258e-05
5.48633703004e-11
6.97175244477e-05
6.69324377289e-11
6.97175221384e-05
7.74624469013e-11
6.97175187086e-05
8.80417148993e-11
6.97175140178e-05
9.96289485349e-11
6.97175079497e-05
1.12780098451e-10
6.97175003753e-05
1.27798797078e-10
6.97174911578e-05
1.44840398679e-10
6.97174801892e-05
1.63963949075e-10
6.97174674132e-05
1.8515672628e-10
6.97174521579e-05
2.08288035588e-10
6.97174327945e-05
2.33145605197e-10
6.97174108027e-05
2.59713446703e-10
6.97173863044e-05
2.87166146176e-10
6.97173593773e-05
3.14112237781e-10
6.97173301707e-05
3.38443551888e-10
6.97172989098e-05
3.5708046842e-10
6.97172658177e-05
3.65633301111e-10
6.97172308299e-05
3.58047609523e-10
6.97171927589e-05
3.26386995081e-10
6.97171479743e-05
2.60830356188e-10
6.97170939374e-05
1.53599237434e-10
6.97170059689e-05
-6.31810220417e-11
6.9716895678e-05
-5.3828020265e-10
6.97167278686e-05
-1.26309283068e-09
6.97164504984e-05
-2.37312694788e-09
6.97159827198e-05
-4.06612026162e-09
6.97151848807e-05
-6.65114611543e-09
6.97138164149e-05
-1.05964436393e-08
6.97114733281e-05
-1.66270463614e-08
6.97074859038e-05
-2.58694442799e-08
6.97007431658e-05
-4.00658822534e-08
6.96893809304e-05
-6.18845139672e-08
6.96702779596e-05
-9.54550947383e-08
6.96382018886e-05
-1.47132383823e-07
6.9584356397e-05
-2.26573182428e-07
6.94939544592e-05
-3.48146140454e-07
6.93423268605e-05
-5.32464296163e-07
6.90891522438e-05
-8.07327684497e-07
6.8671442748e-05
-1.20609449888e-06
6.79985825268e-05
-1.7601170467e-06
6.69560890839e-05
-2.48390958968e-06
-3.3438978651e-06
6.54426397567e-05
5.08801988523e-05
7.86952543493e-07
5.31688258756e-05
2.16278908185e-06
5.62123316325e-05
3.00452040261e-06
5.94253350108e-05
3.29365997159e-06
6.24193037584e-05
3.170324976e-06
6.49932772376e-05
2.8017955222e-06
6.70829838184e-05
2.32786746648e-06
6.87067356896e-05
1.84394514069e-06
6.99236546306e-05
1.40426425542e-06
7.08068174652e-05
1.03296667691e-06
7.14282346885e-05
7.35329636765e-07
7.18516689371e-05
5.06329480077e-07
7.21300801527e-05
3.36282224107e-07
7.2305532974e-05
2.141781898e-07
7.24102640184e-05
1.29460290254e-07
7.24681898959e-05
7.28532084084e-08
7.24964864153e-05
3.66553388154e-08
7.2507063691e-05
1.47454313046e-08
7.25078704596e-05
2.4473273862e-09
7.25039132908e-05
-3.71344202203e-09
7.24982171478e-05
-6.1441573184e-09
7.24924322857e-05
-6.49695015829e-09
7.24873480691e-05
-5.8262709068e-09
7.24832424641e-05
-4.76457248311e-09
7.24801162689e-05
-3.66041015434e-09
7.24778410777e-05
-2.68152120156e-09
7.2476246013e-05
-1.88842476859e-09
7.24751638419e-05
-1.28386111953e-09
7.2474451509e-05
-8.43698552093e-10
7.24739960281e-05
-5.34833184098e-10
7.24737132555e-05
-3.2465466466e-10
7.24735437343e-05
-1.85005563697e-10
7.24734463888e-05
-9.38045413275e-11
7.24733911716e-05
-3.482978337e-11
7.24733626176e-05
4.14799440938e-12
7.24733510762e-05
2.75180112028e-11
7.24733457009e-05
4.38862862478e-11
7.24733440211e-05
5.61916666231e-11
7.24733438734e-05
6.67719183513e-11
7.24733439922e-05
7.71411711553e-11
7.24733437101e-05
8.82842220383e-11
7.24733426654e-05
1.0083804718e-10
7.24733406343e-05
1.15205531829e-10
7.24733374443e-05
1.31626351056e-10
7.24733329212e-05
1.50235219814e-10
7.24733268601e-05
1.71090067167e-10
7.24733190329e-05
1.94174523146e-10
7.24733092138e-05
2.19351281466e-10
7.2473297196e-05
2.46406936746e-10
7.24732828927e-05
2.7522380057e-10
7.2473266134e-05
3.05065614858e-10
7.24732466565e-05
3.34645819573e-10
7.247322404e-05
3.62044173824e-10
7.24731975871e-05
3.84479692661e-10
7.24731661463e-05
3.98009699665e-10
7.24731279528e-05
3.97178536574e-10
7.24730806369e-05
3.74639230043e-10
7.24730214373e-05
3.20953495244e-10
7.2472950377e-05
2.25556247654e-10
7.24728248684e-05
6.31777755942e-11
7.24725885483e-05
-3.01182283469e-10
7.24722247983e-05
-8.98624669579e-10
7.24716296119e-05
-1.77723318406e-09
7.24706527572e-05
-3.08852795237e-09
7.24690458178e-05
-5.04340827526e-09
7.24663932398e-05
-7.94299988808e-09
7.24620183924e-05
-1.22512782977e-08
7.24548311848e-05
-1.86813180325e-08
7.2443070108e-05
-2.83040080548e-08
7.2423864381e-05
-4.2678219172e-08
7.23925702649e-05
-6.41607146435e-08
7.23417173041e-05
-9.62794993621e-08
7.22593621554e-05
-1.44218432784e-07
7.21266096285e-05
-2.1539429322e-07
7.19141018435e-05
-3.1995738313e-07
7.15775746169e-05
-4.70801409265e-07
7.10536114739e-05
-6.82132203452e-07
7.02587225316e-05
-9.6522873069e-07
6.90965626913e-05
-1.32175009025e-06
-1.73199604485e-06
6.74846609631e-05
5.07868979313e-05
5.46576192361e-11
5.29496335341e-05
5.35754411718e-11
5.59541237551e-05
3.02631043269e-11
5.92477677915e-05
1.60106505966e-11
6.24180882229e-05
4.61088702179e-12
6.52198883069e-05
-4.51093413431e-12
6.7547765971e-05
-1.01602668228e-11
6.93917237083e-05
-1.25696844155e-11
7.0796000251e-05
-1.2266880472e-11
7.18289770776e-05
-1.01376498154e-11
7.25643138883e-05
-7.17627665241e-12
7.30706477164e-05
-4.36898133883e-12
7.3406932423e-05
-2.53078603552e-12
7.36211126522e-05
-2.11455710648e-12
7.3750575921e-05
-3.07409667268e-12
7.38234339194e-05
-4.90212820075e-12
7.38600959959e-05
-6.86039844181e-12
7.38748492487e-05
-7.95548775374e-12
7.38773044107e-05
-7.98639181869e-12
7.38735987698e-05
-7.9663840077e-12
7.38674630597e-05
-8.61411844285e-12
7.38609757617e-05
-9.81057812148e-12
7.38551602458e-05
-1.08929192237e-11
7.3850406676e-05
-1.1108102501e-11
7.38467561621e-05
-9.96114506112e-12
7.38440819622e-05
-7.34313245902e-12
7.38421969223e-05
-3.36446511407e-12
7.38409117987e-05
1.31563663691e-12
7.384006208e-05
6.08992855556e-12
7.38395164502e-05
1.08689899415e-11
7.38391761912e-05
1.56659000118e-11
7.38389706218e-05
2.05876811628e-11
7.38388509725e-05
2.57945907792e-11
7.38387848248e-05
3.11711099933e-11
7.38387517139e-05
3.70207548732e-11
7.38387361851e-05
4.27393659842e-11
7.3838730619e-05
4.91002788677e-11
7.3838730169e-05
5.62808487017e-11
7.38387320968e-05
6.45294606484e-11
7.38387349051e-05
7.41276264977e-11
7.38387378115e-05
8.53364961342e-11
7.38387404083e-05
9.84048136501e-11
7.38387424733e-05
1.13538460958e-10
7.38387438639e-05
1.30878935867e-10
7.38387444523e-05
1.50516570939e-10
7.38387440949e-05
1.72495197652e-10
7.3838742623e-05
1.96807703358e-10
7.3838739818e-05
2.23369879963e-10
7.38387354176e-05
2.52024968003e-10
7.38387292527e-05
2.82569768659e-10
7.38387210491e-05
3.14380744495e-10
7.38387103362e-05
3.46390377366e-10
7.3838696344e-05
3.77003777951e-10
7.38386778157e-05
4.0393600359e-10
7.38386527116e-05
4.24027555122e-10
7.38386177628e-05
4.33041772658e-10
7.38385679311e-05
4.25372298848e-10
7.38384959521e-05
3.93788840587e-10
7.38383937561e-05
3.28535184618e-10
7.38382425402e-05
2.15075490165e-10
7.38379330811e-05
8.85197919398e-12
7.38374232666e-05
-3.88305971062e-10
7.38366155654e-05
-9.69051195456e-10
7.38352971006e-05
-1.7695448511e-09
7.38331497349e-05
-2.89543243876e-09
7.38296517684e-05
-4.44430835675e-09
7.3823956964e-05
-6.55565409257e-09
7.38147234263e-05
-9.4469445782e-09
7.37998137925e-05
-1.33936092386e-08
7.37757937465e-05
-1.86575582218e-08
7.3737189232e-05
-2.55558353517e-08
7.3675354394e-05
-3.44446861574e-08
7.35767742366e-05
-4.56386033973e-08
7.34206414454e-05
-5.92620976505e-08
7.31756525482e-05
-7.49692730443e-08
7.2796325807e-05
-9.14755534196e-08
7.2220051453e-05
-1.05858700635e-07
7.13676072223e-05
-1.12785174865e-07
7.01508568432e-05
-1.05000101351e-07
-7.38560634755e-08
6.84927169318e-05
5.07868968898e-05
-7.8684217939e-07
5.2949632661e-05
-2.16268210181e-06
5.5954124451e-05