/*--------------------------------*- C++ -*----------------------------------*\
| =========                 |                                                 |
| \\      /  F ield         | OpenFOAM: The Open Source CFD Toolbox           |
|  \\    /   O peration     | Version:  2106                                  |
|   \\  /    A nd           | Website:  www.openfoam.com                      |
|    \\/     M anipulation  |                                                 |
\*---------------------------------------------------------------------------*/
FoamFile
{
    version     2.0;
    format      ascii;
    arch        "LSB;label=32;scalar=64";
    class       volVectorField;
    location    "0.045";
    object      U;
}
// * * * * * * * * * * * * * * * * * * * * * * * * * * * * * * * * * * * * * //

dimensions      [0 1 -1 0 0 0 0];

internalField   nonuniform List<vector> 
11200
(
(0.662460116264 0.150571557185 0)
(0.558940468574 0.103246211098 0)
(0.383839821543 0.0513531061726 0)
(0.283744491134 0.0248702280813 0)
(0.23209787865 0.0124117994016 0)
(0.201983620645 0.00661045736127 0)
(0.183360651673 0.00378112957573 0)
(0.171568418856 0.00228316253554 0)
(0.16397512365 0.00142065543143 0)
(0.159067157883 0.000891110741134 0)
(0.155931234641 0.000553933483436 0)
(0.153978209129 0.000336786536295 0)
(0.15281178151 0.000197967609094 0)
(0.152160268313 0.000110933826168 0)
(0.151836212757 5.75206555769e-05 0)
(0.151709782483 2.57527827075e-05 0)
(0.151693444599 1.17743767232e-05 0)
(0.151736598156 1.56432525746e-05 0)
(0.151805911362 2.24238272716e-05 0)
(0.151877631235 2.79348483551e-05 0)
(0.151941699048 3.19488656777e-05 0)
(0.151994390526 3.44379116984e-05 0)
(0.152034946047 3.56951099923e-05 0)
(0.152064395745 3.6979620277e-05 0)
(0.152085317352 3.93194383863e-05 0)
(0.152100030368 4.17182769517e-05 0)
(0.152109947061 4.38726743097e-05 0)
(0.152116395067 4.5847224864e-05 0)
(0.152120478017 4.77777030285e-05 0)
(0.152123027376 4.98169613767e-05 0)
(0.152124580286 5.20917177081e-05 0)
(0.152125467132 5.44116589655e-05 0)
(0.15212592677 5.6682951621e-05 0)
(0.152126139742 5.89025741607e-05 0)
(0.152126228164 6.1103417673e-05 0)
(0.152126253027 6.33039066283e-05 0)
(0.152126247492 6.55125944852e-05 0)
(0.152126229366 6.77335202052e-05 0)
(0.152126206509 6.99681027419e-05 0)
(0.15212618103 7.22159227812e-05 0)
(0.152126152375 7.44753285163e-05 0)
(0.152126119295 7.67438939231e-05 0)
(0.152126081103 7.90187713096e-05 0)
(0.152126038311 8.12969613303e-05 0)
(0.152125992464 8.35754225487e-05 0)
(0.152125945448 8.58510952015e-05 0)
(0.152125898653 8.81210737328e-05 0)
(0.152125852595 9.03826490302e-05 0)
(0.152125807854 9.26329825791e-05 0)
(0.152125765714 9.48693487966e-05 0)
(0.152125728654 9.70887483061e-05 0)
(0.152125701853 9.9287967433e-05 0)
(0.152125694782 0.000101463808182 0)
(0.152125722702 0.000103613210208 0)
(0.152125808368 0.000105733251306 0)
(0.152125984366 0.000107820863226 0)
(0.152126296811 0.000109871778115 0)
(0.152126812538 0.00011187822157 0)
(0.152127631317 0.000113826211314 0)
(0.152128900204 0.000115691761305 0)
(0.152130855544 0.000117421502976 0)
(0.152133898414 0.000118930793202 0)
(0.152138576666 0.000120211521853 0)
(0.152145600569 0.000121475809091 0)
(0.152156044268 0.000123214972318 0)
(0.152171577534 0.000125673469169 0)
(0.15219486482 0.00012857169597 0)
(0.152230078181 0.000131627849705 0)
(0.152283551612 0.000134590887545 0)
(0.152364456705 0.000137487219179 0)
(0.152485972599 0.0001425742086 0)
(0.152676177031 0.000157622340614 0)
(0.15297736626 0.000180319194522 0)
(0.153458220434 0.000211505303039 0)
(0.154268741649 0.000240237600605 0)
(0.155715487892 0.000185702603286 0)
(0.158508886363 -0.000291959054437 0)
(0.16641441683 -0.00246744475928 0)
(0.193818682977 -0.012420364016 0)
(0.218357642424 -0.0580136664818 0)
(0.965406220309 0.289220315263 0)
(0.961959060032 0.252659554236 0)
(0.823584064674 0.159013049088 0)
(0.698194639944 0.09596476827 0)
(0.610376628582 0.0581821082863 0)
(0.54928844892 0.036100793529 0)
(0.507159195242 0.0229882756134 0)
(0.478490287356 0.0148996129945 0)
(0.459123024357 0.00971602310394 0)
(0.44615347053 0.00630127164145 0)
(0.437598997939 0.00401888567796 0)
(0.432084595489 0.0024900514892 0)
(0.428644079249 0.00147500128812 0)
(0.426595266377 0.000813766154487 0)
(0.425457621465 0.000395435253449 0)
(0.424897215317 0.000142418946164 0)
(0.424687520553 3.08514429539e-06 0)
(0.424671993009 -5.99139908202e-05 0)
(0.424748583597 -8.07445142105e-05 0)
(0.424861179036 -8.06474834369e-05 0)
(0.424977926368 -7.06435029776e-05 0)
(0.425082235805 -5.7216506395e-05 0)
(0.425168017469 -4.37896101296e-05 0)
(0.425234900562 -3.12646722537e-05 0)
(0.425284441709 -1.97346825145e-05 0)
(0.425319428853 -1.02053999769e-05 0)
(0.42534349166 -2.8252794501e-06 0)
(0.425359694978 2.67476774335e-06 0)
(0.425370467842 6.60725849722e-06 0)
(0.425377648784 9.19092538729e-06 0)
(0.425382221154 1.06101617447e-05 0)
(0.425384838797 1.15845970873e-05 0)
(0.425386243023 1.23756711215e-05 0)
(0.425386980865 1.30128871396e-05 0)
(0.42538737352 1.35716965863e-05 0)
(0.425387571938 1.4089203801e-05 0)
(0.425387661939 1.45850930434e-05 0)
(0.425387693099 1.50722391712e-05 0)
(0.425387690592 1.55593432387e-05 0)
(0.42538766483 1.605130647e-05 0)
(0.425387618618 1.65501843358e-05 0)
(0.425387551642 1.70562193079e-05 0)
(0.425387463123 1.7568773546e-05 0)
(0.425387353028 1.80871561041e-05 0)
(0.425387222305 1.86112419107e-05 0)
(0.42538707275 1.91419353748e-05 0)
(0.425386906357 1.96815297664e-05 0)
(0.42538672474 2.02327841739e-05 0)
(0.425386531108 2.07968518009e-05 0)
(0.425386331424 2.13753528528e-05 0)
(0.425386135152 2.19692998436e-05 0)
(0.425385958231 2.25788640413e-05 0)
(0.425385826357 2.32035810079e-05 0)
(0.425385778587 2.38423684663e-05 0)
(0.425385871952 2.44933524097e-05 0)
(0.425386188 2.51534841009e-05 0)
(0.425386843112 2.58177401132e-05 0)
(0.425388007738 2.64772246751e-05 0)
(0.42538993808 2.71169580353e-05 0)
(0.425393006715 2.77123856868e-05 0)
(0.425397805324 2.81928817158e-05 0)
(0.425405409768 2.84752815469e-05 0)
(0.425417518517 2.85930039588e-05 0)
(0.425436533611 2.80577763023e-05 0)
(0.42546549577 2.51779332805e-05 0)
(0.425508477826 1.85699685405e-05 0)
(0.425572509424 7.23291657798e-06 0)
(0.425669274641 -1.06869245712e-05 0)
(0.425817001648 -3.82329002386e-05 0)
(0.426045057607 -7.97769153984e-05 0)
(0.426402780463 -0.00014007411494 0)
(0.426969877286 -0.000225166052451 0)
(0.427878134346 -0.000371420887773 0)
(0.429365516723 -0.000643552449098 0)
(0.431883365375 -0.00119788956369 0)
(0.436268610049 -0.00247122278867 0)
(0.444186707844 -0.00567466113752 0)
(0.460337039095 -0.0142236276643 0)
(0.491229766692 -0.0395598622474 0)
(0.503529961003 -0.115066976308 0)
(1.02222049528 0.238422039841 0)
(1.08214329636 0.29591979035 0)
(1.03451430228 0.239459290928 0)
(0.95472969493 0.174181803914 0)
(0.880252581573 0.121141561222 0)
(0.819113955962 0.0827692259736 0)
(0.772262511304 0.0562507270223 0)
(0.737964185084 0.0380971117324 0)
(0.71355990794 0.0256307537535 0)
(0.696573497335 0.0170357937734 0)
(0.68501062902 0.0111085582319 0)
(0.677337802998 0.0070435463966 0)
(0.672402784114 0.00428995297569 0)
(0.669354160755 0.00246188727693 0)
(0.66757224541 0.00128358260105 0)
(0.666613884398 0.00055574794884 0)
(0.666168244201 0.000132851940338 0)
(0.666025150596 -9.35626807429e-05 0)
(0.666044414073 -0.000198444045161 0)
(0.666137712711 -0.000229258036575 0)
(0.666255476594 -0.000220083509682 0)
(0.666370163892 -0.000192593782613 0)
(0.666468999035 -0.000159438086878 0)
(0.666547980469 -0.000127581323241 0)
(0.666607673706 -0.000100371148571 0)
(0.666650860307 -7.84578489268e-05 0)
(0.666681040299 -6.15523689471e-05 0)
(0.666701434788 -4.8939666099e-05 0)
(0.666714724281 -3.98017808831e-05 0)
(0.666723063132 -3.34604776717e-05 0)
(0.66672848054 -2.94894167787e-05 0)
(0.666732164478 -2.73115117825e-05 0)
(0.666734394999 -2.63858767148e-05 0)
(0.666735645783 -2.63533798117e-05 0)
(0.666736353369 -2.67890557219e-05 0)
(0.666736732037 -2.74835527319e-05 0)
(0.666736916691 -2.8324725426e-05 0)
(0.666736990616 -2.92452670485e-05 0)
(0.666736999902 -3.02030272078e-05 0)
(0.666736967257 -3.11741487024e-05 0)
(0.666736902725 -3.21462987013e-05 0)
(0.666736810007 -3.31135865273e-05 0)
(0.666736690074 -3.407339166e-05 0)
(0.666736543154 -3.50244054589e-05 0)
(0.666736369811 -3.59653931091e-05 0)
(0.666736171658 -3.6894414565e-05 0)
(0.666735950556 -3.78075293417e-05 0)
(0.666735707194 -3.86985482358e-05 0)
(0.666735446054 -3.95622935008e-05 0)
(0.666735177567 -4.03916397367e-05 0)
(0.666734917172 -4.11814123771e-05 0)
(0.666734688843 -4.19285905076e-05 0)
(0.666734529162 -4.26321085041e-05 0)
(0.666734492301 -4.32935129702e-05 0)
(0.666734657354 -4.39185834645e-05 0)
(0.666735139784 -4.45212259255e-05 0)
(0.66673610928 -4.5133772372e-05 0)
(0.666737819958 -4.58309957776e-05 0)
(0.666740658287 -4.67625047383e-05 0)
(0.666745182207 -4.81783520258e-05 0)
(0.666752294512 -5.05962666033e-05 0)
(0.666763607391 -5.50232885121e-05 0)
(0.666780968929 -6.27499711523e-05 0)
(0.666806020106 -7.49200222829e-05 0)
(0.666842609737 -9.32853766528e-05 0)
(0.666898390158 -0.000120679376032 0)
(0.666984282557 -0.000161013188989 0)
(0.667116399614 -0.000220780213122 0)
(0.667320402087 -0.000310484040515 0)
(0.667638087059 -0.000447266248807 0)
(0.66813809273 -0.00066106568826 0)
(0.668926226395 -0.00100891551333 0)
(0.670179077936 -0.0015965862018 0)
(0.672205356587 -0.00262752224792 0)
(0.675534645827 -0.0045250136052 0)
(0.681019355649 -0.00822019138672 0)
(0.689957696513 -0.0157596933847 0)
(0.70480352358 -0.0316891170476 0)
(0.725821193661 -0.0666597971148 0)
(0.727307539651 -0.136039651608 0)
(1.02251544625 0.170809214997 0)
(1.10140164218 0.276469868762 0)
(1.11757526123 0.266570327471 0)
(1.09228402368 0.219693376301 0)
(1.05217124604 0.167796232048 0)
(1.01074800333 0.122981705708 0)
(0.974390161079 0.0880006933611 0)
(0.945235524798 0.0619005045747 0)
(0.923109721685 0.0428573824289 0)
(0.906956162224 0.0291546554939 0)
(0.895538497109 0.019409973375 0)
(0.887714009747 0.0125707416011 0)
(0.882525170807 0.00785067468867 0)
(0.879212751628 0.00466426632353 0)
(0.8771966511 0.00257483823218 0)
(0.876046885364 0.00125670708997 0)
(0.875453393453 0.000468017554362 0)
(0.875197416597 3.16352600187e-05 0)
(0.875135276834 -0.000183326960187 0)
(0.875175279761 -0.000263294042027 0)
(0.875257480323 -0.000267954734876 0)
(0.875348925918 -0.000235913402565 0)
(0.875433078068 -0.000190369795158 0)
(0.875503122071 -0.000144117631874 0)
(0.87555771709 -0.000103305902526 0)
(0.875598285588 -7.00839268971e-05 0)
(0.875627339328 -4.45294102621e-05 0)
(0.875647509661 -2.56838410994e-05 0)
(0.875661118858 -1.22272119774e-05 0)
(0.875669985018 -2.85088706997e-06 0)
(0.87567541226 3.53436627966e-06 0)
(0.87567848932 7.38307150011e-06 0)
(0.87568011588 9.56252345863e-06 0)
(0.875681035137 1.10175589551e-05 0)
(0.875681658202 1.20638498936e-05 0)
(0.875682041046 1.28671417319e-05 0)
(0.875682257923 1.35215050055e-05 0)
(0.875682371023 1.4087052336e-05 0)
(0.875682416941 1.46098244381e-05 0)
(0.875682413085 1.5118219736e-05 0)
(0.875682367845 1.5628901785e-05 0)
(0.875682284937 1.61506460652e-05 0)
(0.875682165258 1.66871267525e-05 0)
(0.875682007993 1.72393489875e-05 0)
(0.87568181169 1.78080977044e-05 0)
(0.875681576382 1.83971691486e-05 0)
(0.875681304536 1.90174462698e-05 0)
(0.875680998339 1.96786183126e-05 0)
(0.875680665324 2.03710151643e-05 0)
(0.875680319132 2.10937026331e-05 0)
(0.875679977697 2.18441117962e-05 0)
(0.875679669229 2.26144374301e-05 0)
(0.875679435989 2.33905414993e-05 0)
(0.875679338841 2.41497381602e-05 0)
(0.875679463947 2.48567103822e-05 0)
(0.875679930379 2.54559962607e-05 0)
(0.8756808967 2.58596458059e-05 0)
(0.875682581005 2.59385249398e-05 0)
(0.875685320432 2.55462402834e-05 0)
(0.875689530009 2.44919813549e-05 0)
(0.875695712778 2.20424443246e-05 0)
(0.875705132803 1.72008860175e-05 0)
(0.875720555735 8.49981186558e-06 0)
(0.875745758454 -6.63158137721e-06 0)
(0.875785172412 -3.0636256366e-05 0)
(0.875845321898 -6.81769504156e-05 0)
(0.875936858279 -0.000127564960474 0)
(0.876076647236 -0.000221924767573 0)
(0.876291196142 -0.000372351957485 0)
(0.876621922892 -0.000613587932221 0)
(0.877133513316 -0.0010050125841 0)
(0.877928976638 -0.0016511541842 0)
(0.879174616977 -0.00273051464801 0)
(0.881133579526 -0.00457265825825 0)
(0.884206212901 -0.00780365839376 0)
(0.888922196757 -0.0136310930019 0)
(0.895795760532 -0.0243211734444 0)
(0.905241551722 -0.0439340228853 0)
(0.914972046259 -0.0794934154492 0)
(0.908403030246 -0.136187792014 0)
(1.01287984446 0.118957796422 0)
(1.08821889205 0.23175873331 0)
(1.13745942103 0.252962387079 0)
(1.15420595074 0.228691146439 0)
(1.15017763217 0.187843484068 0)
(1.13580646722 0.145768989871 0)
(1.11827451627 0.109006040622 0)
(1.101628381 0.0793153569919 0)
(1.08758979717 0.0563825658182 0)
(1.07656442365 0.0391818076083 0)
(1.06833454225 0.0265683535644 0)
(1.06244062149 0.0175067289002 0)
(1.05837679707 0.0111351695434 0)
(1.05568109474 0.0067640077546 0)
(1.05396865209 0.00385289119453 0)
(1.05293692308 0.00198474331145 0)
(1.05235810846 0.000842230337145 0)
(1.05206664327 0.000188596244387 0)
(1.05194864765 -0.000146466752753 0)
(1.05192848647 -0.000287813076803 0)
(1.05195659583 -0.000318576008731 0)
(1.05200346501 -0.00029267907021 0)
(1.05205295268 -0.000243278313466 0)
(1.05209721802 -0.000189212224361 0)
(1.05213332505 -0.000140022589756 0)
(1.0521610153 -9.95856782077e-05 0)
(1.05218129504 -6.86165430214e-05 0)
(1.05219557068 -4.62357813398e-05 0)
(1.05220522425 -3.09068684745e-05 0)
(1.05221147785 -2.09576052194e-05 0)
(1.05221541009 -1.47982299592e-05 0)
(1.05221799557 -1.09857538222e-05 0)
(1.05221997997 -8.51476686438e-06 0)
(1.0522215143 -6.74401461978e-06 0)
(1.05222252085 -5.63313912243e-06 0)
(1.05222313831 -5.11828349598e-06 0)
(1.05222349496 -4.93927865349e-06 0)
(1.05222369334 -4.94642054351e-06 0)
(1.05222379609 -5.03729837274e-06 0)
(1.0522238326 -5.15722079641e-06 0)
(1.05222381823 -5.2799284472e-06 0)
(1.05222375983 -5.392977075e-06 0)
(1.05222365944 -5.49060430388e-06 0)
(1.05222351717 -5.57049618359e-06 0)
(1.05222333435 -5.63209004552e-06 0)
(1.05222311766 -5.6771981821e-06 0)
(1.05222287095 -5.71450762489e-06 0)
(1.05222257725 -5.75038144394e-06 0)
(1.05222223479 -5.7652837896e-06 0)
(1.0522218646 -5.75113534405e-06 0)
(1.05222148488 -5.70772199071e-06 0)
(1.05222112112 -5.63802515183e-06 0)
(1.05222081134 -5.55009820677e-06 0)
(1.05222061003 -5.45962065428e-06 0)
(1.05222059424 -5.39286448158e-06 0)
(1.05222087395 -5.39294582559e-06 0)
(1.05222161715 -5.53590417668e-06 0)
(1.05222312229 -5.98306163823e-06 0)
(1.05222587256 -7.16807251037e-06 0)
(1.05223016623 -9.96855379604e-06 0)
(1.05223659198 -1.49680504536e-05 0)
(1.05224672228 -2.17263615525e-05 0)
(1.0522619654 -3.18621467636e-05 0)
(1.05228436922 -4.90133463074e-05 0)
(1.05231791159 -7.84764910493e-05 0)
(1.0523683832 -0.000127840466439 0)
(1.05244440996 -0.000208930980887 0)
(1.05255907732 -0.000340649297975 0)
(1.05273247555 -0.000553572246255 0)
(1.05299539017 -0.000897523723697 0)
(1.05339466168 -0.00145435725593 0)
(1.05400129179 -0.0023602239003 0)
(1.05492066889 -0.00384705331685 0)
(1.05629936677 -0.00631754208895 0)
(1.05831513058 -0.0104749427376 0)
(1.06109389858 -0.017539285853 0)
(1.06446524409 -0.0295234368843 0)
(1.06765860384 -0.0494412817451 0)
(1.06777276159 -0.0812542672712 0)
(1.05456462282 -0.125968055605 0)
(1.00447583662 0.0813963925761 0)
(1.06918024885 0.181224716008 0)
(1.1308305575 0.216772786769 0)
(1.17380596723 0.210428321759 0)
(1.19875858905 0.183071693521 0)
(1.21037877464 0.148806107451 0)
(1.21377996591 0.115453687807 0)
(1.21291970023 0.0864919498277 0)
(1.21028450651 0.0629310515397 0)
(1.20723973279 0.0445714033919 0)
(1.20444293383 0.030717216898 0)
(1.20214542571 0.0205433414135 0)
(1.200386751 0.0132635696592 0)
(1.19910991674 0.00819503440389 0)
(1.19822405545 0.00477336568617 0)
(1.19763573211 0.00254691976169 0)
(1.19726271771 0.00116340995979 0)
(1.19703859244 0.00035507401878 0)
(1.19691308331 -7.53713964821e-05 0)
(1.1968500681 -0.000270933576321 0)
(1.19682428197 -0.000329439692291 0)
(1.19681887225 -0.000315279482948 0)
(1.19682344279 -0.000268613884332 0)
(1.19683191741 -0.00021273821806 0)
(1.19684101087 -0.000159838710657 0)
(1.19684916821 -0.000115212597311 0)
(1.19685583163 -8.02153868499e-05 0)
(1.19686097542 -5.41685716112e-05 0)
(1.19686482736 -3.54994305724e-05 0)
(1.19686768185 -2.2407798756e-05 0)
(1.19686982774 -1.32667472216e-05 0)
(1.19687149559 -6.88614157543e-06 0)
(1.19687277429 -2.5715594286e-06 0)
(1.19687359548 4.2963534023e-08 0)
(1.19687394471 1.48427236926e-06 0)
(1.19687410669 2.3218538893e-06 0)
(1.19687427167 2.88219158748e-06 0)
(1.19687441833 3.28288616264e-06 0)
(1.19687453967 3.57929404258e-06 0)
(1.19687461769 3.82471729144e-06 0)
(1.19687464593 4.05692196535e-06 0)
(1.19687462487 4.29778455019e-06 0)
(1.19687455535 4.55811184036e-06 0)
(1.19687443611 4.84192903964e-06 0)
(1.19687426268 5.14905258744e-06 0)
(1.19687402601 5.4746924072e-06 0)
(1.19687372248 5.80451151747e-06 0)
(1.19687337527 6.12446251705e-06 0)
(1.19687300464 6.45404282621e-06 0)
(1.19687261161 6.81324387134e-06 0)
(1.19687221025 7.19999191066e-06 0)
(1.19687182881 7.60157210783e-06 0)
(1.19687150742 7.9956040459e-06 0)
(1.19687130231 8.3456602241e-06 0)
(1.19687129127 8.59451620086e-06 0)
(1.19687157443 8.65385605624e-06 0)
(1.19687224987 8.39090889386e-06 0)
(1.1968733041 7.61371764859e-06 0)
(1.19687458247 5.98642619245e-06 0)
(1.19687648799 2.64602736151e-06 0)
(1.19688077698 -3.05775177673e-06 0)
(1.19688816984 -1.24932200773e-05 0)
(1.19689862755 -2.82800150222e-05 0)
(1.19691371945 -5.36524833248e-05 0)
(1.19693577312 -9.39909664626e-05 0)
(1.19696775459 -0.000158035361848 0)
(1.19701390159 -0.00025981971633 0)
(1.19708036554 -0.000421744738683 0)
(1.1971760299 -0.000679673345346 0)
(1.19731342844 -0.00109129981927 0)
(1.19750949465 -0.00175006732046 0)
(1.1977853234 -0.00280822415897 0)
(1.19816214038 -0.00451574809546 0)
(1.19864577536 -0.00728388235041 0)
(1.19918391292 -0.0117828380138 0)
(1.19955469265 -0.0190766002109 0)
(1.19913069092 -0.030738477745 0)
(1.19661188856 -0.0487897272451 0)
(1.18927191818 -0.0752625384821 0)
(1.17064303509 -0.10972160593 0)
(0.998963097098 0.0544219030836 0)
(1.05311095062 0.133333193682 0)
(1.11627865342 0.170593869805 0)
(1.17299049685 0.174776288375 0)
(1.21785159716 0.158959014701 0)
(1.2503703496 0.134001574902 0)
(1.27265292691 0.107086535785 0)
(1.28738987445 0.0821619676645 0)
(1.2968873386 0.0609505147297 0)
(1.3028688882 0.0438653251836 0)
(1.30654446607 0.0306472214245 0)
(1.30873297936 0.0207519681098 0)
(1.30997753235 0.0135623122482 0)
(1.31063472241 0.00849202988572 0)
(1.31093702346 0.00502963724035 0)
(1.31103446282 0.00275102942984 0)
(1.31102214235 0.00131729605013 0)
(1.3109585998 0.000466192956312 0)
(1.31087803908 1.19747712035e-06 0)
(1.31079930818 -0.000219834762954 0)
(1.31073126815 -0.000296519839337 0)
(1.3106765648 -0.000294835512706 0)
(1.31063490108 -0.000256379070491 0)
(1.31060453358 -0.000205688359993 0)
(1.31058322008 -0.000155914784068 0)
(1.3105687751 -0.000113062017502 0)
(1.31055932182 -7.89759351933e-05 0)
(1.31055337426 -5.33182107253e-05 0)
(1.31054982213 -3.48074663473e-05 0)
(1.31054784946 -2.19258509465e-05 0)
(1.3105468388 -1.32689305779e-05 0)
(1.31054636296 -7.72043567458e-06 0)
(1.31054617477 -4.41346004011e-06 0)
(1.31054614327 -2.58397779144e-06 0)
(1.31054632156 -1.53934498544e-06 0)
(1.3105466922 -8.41066175054e-07 0)
(1.31054703724 -4.54384552137e-07 0)
(1.31054726762 -2.13879627114e-07 0)
(1.31054741692 -4.53678530745e-08 0)
(1.31054752057 8.95438235468e-08 0)
(1.31054758497 2.19361262761e-07 0)
(1.31054760734 3.64000219061e-07 0)
(1.31054758334 5.35808364834e-07 0)
(1.31054750854 7.42603205745e-07 0)
(1.31054737849 9.90899929473e-07 0)
(1.31054718788 1.28991700433e-06 0)
(1.31054693201 1.65653169193e-06 0)
(1.31054662014 2.10560890201e-06 0)
(1.31054627693 2.62074822714e-06 0)
(1.31054590735 3.17321828095e-06 0)
(1.31054550649 3.74781301751e-06 0)
(1.31054508732 4.32350417972e-06 0)
(1.31054467328 4.86387219663e-06 0)
(1.31054429589 5.31116169506e-06 0)
(1.31054399684 5.57743722587e-06 0)
(1.31054383429 5.53098274536e-06 0)
(1.3105439066 4.97927691327e-06 0)
(1.31054437113 3.67136997409e-06 0)
(1.31054520896 1.41495911547e-06 0)
(1.31054653066 -1.89133726289e-06 0)
(1.31054860739 -7.22548676723e-06 0)
(1.31055150961 -1.70573110141e-05 0)
(1.31055538212 -3.35250861486e-05 0)
(1.3105604199 -6.00674014444e-05 0)
(1.31056667988 -0.000102526598214 0)
(1.3105737987 -0.000170075311653 0)
(1.31058071136 -0.000277165388334 0)
(1.31058509913 -0.000446663490567 0)
(1.31058234591 -0.00071481910079 0)
(1.31056340813 -0.00113916142483 0)
(1.31051076673 -0.00181139948776 0)
(1.3103907792 -0.0028777620696 0)
(1.31013857756 -0.00457066988246 0)
(1.30962806938 -0.00725600110266 0)
(1.30861460418 -0.0114969745664 0)
(1.30662564902 -0.0181242928657 0)
(1.30277555378 -0.0282577255174 0)
(1.29559861043 -0.0431565960196 0)
(1.28274398685 -0.0637837809057 0)
(1.2598674884 -0.0894049036845 0)
(0.995736675194 0.0346246235738 0)
(1.04179005272 0.0905085075928 0)
(1.10219537565 0.121390313568 0)
(1.16481394814 0.129289711735 0)
(1.22179939861 0.121474616783 0)
(1.26908740342 0.105209870368 0)
(1.30606885821 0.0859697329315 0)
(1.33385239392 0.0671727712521 0)
(1.354082933 0.0505823488675 0)
(1.36841587352 0.0368600631525 0)
(1.37830522834 0.0260294713026 0)
(1.38493861832 0.017795400351 0)
(1.38924467557 0.0117387043361 0)
(1.39192866909 0.00742349791505 0)
(1.39351374144 0.00444991361736 0)
(1.39437910031 0.00247580201249 0)
(1.39479269144 0.00122192385414 0)
(1.39493825691 0.00046893908738 0)
(1.39493753043 5.0556250798e-05 0)
(1.39486709784 -0.000154288001083 0)
(1.39477229554 -0.000231394326095 0)
(1.39467811641 -0.000238027802777 0)
(1.39459621929 -0.000210575042798 0)
(1.39453050415 -0.00017075050429 0)
(1.39448070495 -0.000130392886429 0)
(1.39444462957 -9.50838356501e-05 0)
(1.39441947925 -6.67228586564e-05 0)
(1.39440254946 -4.52449124889e-05 0)
(1.39439153985 -2.97017335773e-05 0)
(1.39438463286 -1.88798701665e-05 0)
(1.39438045817 -1.16027286503e-05 0)
(1.39437805155 -6.83296101135e-06 0)
(1.39437680567 -3.74428694697e-06 0)
(1.39437630603 -1.71296597869e-06 0)
(1.39437619287 -3.39261959635e-07 0)
(1.39437618933 4.99129074973e-07 0)
(1.39437626641 9.60440653762e-07 0)
(1.39437644717 1.22215470164e-06 0)
(1.3943766381 1.40539758154e-06 0)
(1.39437679834 1.56568283874e-06 0)
(1.39437691841 1.73065968878e-06 0)
(1.39437699523 1.91627486638e-06 0)
(1.39437702679 2.13269824937e-06 0)
(1.39437701127 2.3872025871e-06 0)
(1.39437694717 2.6859484949e-06 0)
(1.3943768337 3.03517105829e-06 0)
(1.39437667102 3.44293924073e-06 0)
(1.39437645506 3.91823997374e-06 0)
(1.39437617019 4.4554322003e-06 0)
(1.39437581861 5.02808412897e-06 0)
(1.39437542197 5.62321502277e-06 0)
(1.39437499343 6.22413471052e-06 0)
(1.39437454561 6.80059575328e-06 0)
(1.39437409509 7.30355497455e-06 0)
(1.39437366181 7.65786055765e-06 0)
(1.39437326402 7.75096206967e-06 0)
(1.39437290823 7.41293165613e-06 0)
(1.39437258736 6.37034715796e-06 0)
(1.39437226711 4.21296358014e-06 0)
(1.39437172797 7.03107358877e-07 0)
(1.39437082789 -5.13725618716e-06 0)
(1.39436936048 -1.50735975539e-05 0)
(1.39436657587 -3.11371282511e-05 0)
(1.39436116268 -5.65783106399e-05 0)
(1.39435097102 -9.66703126873e-05 0)
(1.39433226227 -0.000159602512103 0)
(1.39429863577 -0.000258206614891 0)
(1.39423939285 -0.000412617624566 0)
(1.3941368312 -0.000654383948316 0)
(1.39396139774 -0.00103276469248 0)
(1.39366361885 -0.00162501465265 0)
(1.3931609023 -0.00255174968187 0)
(1.39231523653 -0.00399940964598 0)
(1.39089585106 -0.00625098922015 0)
(1.38851897124 -0.009722271684 0)
(1.38455327682 -0.0149908546591 0)
(1.37798801855 -0.0227773847851 0)
(1.36735109539 -0.0338029912428 0)
(1.35062734782 -0.0484770558433 0)
(1.32463665676 -0.0661727793025 0)
(0.994012060727 0.0192292883569 0)
(1.0348375782 0.0522925592918 0)
(1.09193687192 0.0722553070196 0)
(1.15646264065 0.0789160886879 0)
(1.21996454203 0.0757449228411 0)
(1.27634890149 0.0667900149647 0)
(1.32311570821 0.0553945461731 0)
(1.36006958113 0.043818153215 0)
(1.38815961647 0.0333333294205 0)
(1.40880759328 0.024498332423 0)
(1.42351937981 0.0174270692243 0)
(1.43367845048 0.0119927270611 0)
(1.44045991248 0.00796090011173 0)
(1.4448124709 0.00506778918686 0)
(1.44747329387 0.00306162346111 0)
(1.44899653569 0.00172179004102 0)
(1.44978562983 0.000865410740986 0)
(1.45012454879 0.000347285768255 0)
(1.45020598114 5.6474243256e-05 0)
(1.45015455386 -8.87174352585e-05 0)
(1.45004660775 -0.000145901451305 0)
(1.44992598428 -0.000154030430105 0)
(1.44981495667 -0.000138008493351 0)
(1.44972270211 -0.000112787782216 0)
(1.44965104291 -8.66053495965e-05 0)
(1.44959811431 -6.34207883976e-05 0)
(1.4495605903 -4.46576599698e-05 0)
(1.44953492287 -3.0371477354e-05 0)
(1.44951794342 -1.99844829823e-05 0)
(1.44950707997 -1.27093646176e-05 0)
(1.44950037189 -7.76811275501e-06 0)
(1.44949640407 -4.4823435337e-06 0)
(1.44949420136 -2.33258484836e-06 0)
(1.44949308055 -9.81126634436e-07 0)
(1.44949259447 -1.85087875028e-07 0)
(1.44949248828 2.99391243067e-07 0)
(1.44949258042 6.80319006492e-07 0)
(1.44949275144 9.70695051777e-07 0)
(1.44949294467 1.20247681062e-06 0)
(1.44949312955 1.4140842025e-06 0)
(1.44949328911 1.63225262871e-06 0)
(1.44949341354 1.87351075014e-06 0)
(1.44949349687 2.14782567979e-06 0)
(1.44949353492 2.46097891973e-06 0)
(1.44949352421 2.81615942903e-06 0)
(1.44949346136 3.21457004507e-06 0)
(1.44949334338 3.65515641991e-06 0)
(1.44949316762 4.13423274254e-06 0)
(1.44949292957 4.65110887111e-06 0)
(1.44949262879 5.21539694247e-06 0)
(1.4494922686 5.81771449563e-06 0)
(1.44949184883 6.435549574e-06 0)
(1.44949136739 7.03335452863e-06 0)
(1.44949081948 7.55739586599e-06 0)
(1.44949019441 7.92764122179e-06 0)
(1.44948947159 8.02731847745e-06 0)
(1.44948861676 7.69142949026e-06 0)
(1.4494875909 6.69336653632e-06 0)
(1.44948639363 4.72385057596e-06 0)
(1.44948465459 1.4639807512e-06 0)
(1.44948137105 -3.38563683161e-06 0)
(1.44947573409 -1.14687469899e-05 0)
(1.44946665494 -2.47517492782e-05 0)
(1.44945167873 -4.56347291076e-05 0)
(1.44942681948 -7.80541834267e-05 0)
(1.44938553544 -0.000128030937548 0)
(1.44931703041 -0.000204909085629 0)
(1.44920381324 -0.000323252623213 0)
(1.44901782466 -0.000505599530641 0)
(1.4487135758 -0.000786139123771 0)
(1.44821729014 -0.00121753109125 0)
(1.44741034825 -0.00188022677294 0)
(1.44610314823 -0.00289526185697 0)
(1.44399512781 -0.00444040297337 0)
(1.44061678262 -0.00676641380837 0)
(1.43525046356 -0.010204076645 0)
(1.42683739736 -0.0151383600973 0)
(1.41394711497 -0.0219117298443 0)
(1.39479038101 -0.0306498755238 0)
(1.36679633431 -0.0409360988527 0)
(0.993270182308 0.00616780929981 0)
(1.03156829302 0.0170874116656 0)
(1.08665369622 0.0239525711487 0)
(1.15155045135 0.026485515363 0)
(1.21780741141 0.0256913777818 0)
(1.27845627462 0.0228574003331 0)
(1.33005636867 0.0190995149103 0)
(1.37169915815 0.0152018836975 0)
(1.40391110106 0.0116240075626 0)
(1.42793649401 0.00858006533306 0)
(1.44526819265 0.00612622700496 0)
(1.45736778564 0.00422993269294 0)
(1.4655271856 0.00281680534152 0)
(1.47081828115 0.001799061672 0)
(1.47409053839 0.00109105178215 0)
(1.4759920843 0.00061675743535 0)
(1.47700035488 0.00031263955434 0)
(1.47745476537 0.000127962683884 0)
(1.47758763896 2.37886699254e-05 0)
(1.47755075898 -2.86865854724e-05 0)
(1.47743816963 -4.97887610791e-05 0)
(1.4773045382 -5.33146390634e-05 0)
(1.47717834827 -4.81092516725e-05 0)
(1.47707194373 -3.94973442563e-05 0)
(1.47698846841 -3.04267787423e-05 0)
(1.47692634645 -2.23290992487e-05 0)
(1.47688202737 -1.57343497801e-05 0)
(1.47685153675 -1.06812045206e-05 0)
(1.47683124897 -6.97887715388e-06 0)
(1.47681818591 -4.36073067434e-06 0)
(1.47681005919 -2.56025222159e-06 0)
(1.47680520005 -1.34377794913e-06 0)
(1.47680244419 -5.32387185028e-07 0)
(1.47680100098 -3.65961857236e-10 0)
(1.47680035911 3.67156169267e-07 0)
(1.47680017789 6.40123612783e-07 0)
(1.47680023241 8.47240393681e-07 0)
(1.47680040196 1.02509643967e-06 0)
(1.47680061655 1.19948363607e-06 0)
(1.47680083572 1.38712278664e-06 0)
(1.4768010372 1.59907512354e-06 0)
(1.47680120885 1.84346759708e-06 0)
(1.47680134363 2.12637940161e-06 0)
(1.47680143681 2.45224680147e-06 0)
(1.47680148466 2.82444584686e-06 0)
(1.47680148347 3.24565071983e-06 0)
(1.47680142927 3.71788190562e-06 0)
(1.47680131762 4.24177311131e-06 0)
(1.47680114277 4.81629830805e-06 0)
(1.47680090006 5.43986803278e-06 0)
(1.47680058545 6.10260834469e-06 0)
(1.47680019127 6.78665655179e-06 0)
(1.47679970484 7.4639397465e-06 0)
(1.47679910579 8.09194341505e-06 0)
(1.47679836065 8.60821347279e-06 0)
(1.47679741471 8.92284031634e-06 0)
(1.47679617938 8.90638235969e-06 0)
(1.47679452231 8.37048727937e-06 0)
(1.47679232045 7.01983856597e-06 0)
(1.47678932353 4.38340602905e-06 0)
(1.47678426131 3.39330721479e-07 0)
(1.47677553718 -5.18678903906e-06 0)
(1.47676171344 -1.3751836091e-05 0)
(1.47673979338 -2.71500039792e-05 0)
(1.47670456756 -4.76803068243e-05 0)
(1.47664773498 -7.81414714057e-05 0)
(1.47655572389 -0.000123250530345 0)
(1.47640681699 -0.000190800315841 0)
(1.47616701592 -0.000292118517623 0)
(1.4757819974 -0.000441492329989 0)
(1.47516464584 -0.00066016556248 0)
(1.47417734115 -0.000979518399366 0)
(1.47260456484 -0.0014442834646 0)
(1.47011279329 -0.0021160547004 0)
(1.46619553702 -0.00307519262364 0)
(1.46010382784 -0.00441728457849 0)
(1.4507729986 -0.00623628520315 0)
(1.43681141443 -0.00858460514054 0)
(1.4165396443 -0.0114232723748 0)
(1.38765425498 -0.0145414282598 0)
(0.993270980072 -0.00616606346671 0)
(1.03156827534 -0.017085722853 0)
(1.08665362936 -0.0239516384628 0)
(1.15155048827 -0.0264850394211 0)
(1.21780748946 -0.0256912570199 0)
(1.27845637675 -0.0228575699512 0)