/*--------------------------------*- C++ -*----------------------------------*\
| =========                 |                                                 |
| \\      /  F ield         | OpenFOAM: The Open Source CFD Toolbox           |
|  \\    /   O peration     | Version:  2106                                  |
|   \\  /    A nd           | Website:  www.openfoam.com                      |
|    \\/     M anipulation  |                                                 |
\*---------------------------------------------------------------------------*/
FoamFile
{
    version     2.0;
    format      ascii;
    arch        "LSB;label=32;scalar=64";
    class       volVectorField;
    location    "0.03";
    object      U;
}
// * * * * * * * * * * * * * * * * * * * * * * * * * * * * * * * * * * * * * //

dimensions      [0 1 -1 0 0 0 0];

internalField   nonuniform List<vector> 
800
(
(-6.29387e-11 0 0)
(-1.5761e-10 0 0)
(-1.94797e-10 0 0)
(-2.07568e-10 0 0)
(-1.71953e-10 0 0)
(-2.9444e-11 0 0)
(9.57101e-11 0 0)
(1.74377e-10 0 0)
(2.33521e-10 0 0)
(1.65286e-10 0 0)
(1.01115e-10 0 0)
(7.09705e-11 0 0)
(3.93283e-11 0 0)
(3.917e-11 0 0)
(6.21619e-11 0 0)
(3.32566e-11 0 0)
(-2.25601e-11 0 0)
(-9.54913e-11 0 0)
(-7.50636e-11 0 0)
(7.50664e-12 0 0)
(2.20111e-11 0 0)
(1.08147e-11 0 0)
(-3.72419e-11 0 0)
(-5.20672e-11 0 0)
(-6.97255e-11 0 0)
(-5.93118e-11 0 0)
(-4.94019e-11 0 0)
(-5.37184e-11 0 0)
(1.70471e-12 0 0)
(3.92082e-11 0 0)
(3.70287e-11 0 0)
(4.25224e-11 0 0)
(4.06235e-11 0 0)
(-1.46472e-11 0 0)
(-8.80299e-11 0 0)
(-1.00287e-10 0 0)
(-8.37407e-11 0 0)
(-6.57433e-11 0 0)
(-1.42466e-11 0 0)
(8.60103e-12 0 0)
(2.36544e-11 0 0)
(1.28727e-10 0 0)
(1.87965e-10 0 0)
(1.65525e-10 0 0)
(1.23902e-10 0 0)
(4.97365e-11 0 0)
(-1.73808e-11 0 0)
(-5.50594e-11 0 0)
(-2.66786e-11 0 0)
(1.34306e-11 0 0)
(3.02913e-11 0 0)
(8.35986e-11 0 0)
(1.59898e-10 0 0)
(1.54033e-10 0 0)
(1.15987e-10 0 0)
(3.29404e-11 0 0)
(-4.60598e-11 0 0)
(-1.26192e-10 0 0)
(-7.84755e-11 0 0)
(-3.11536e-11 0 0)
(-1.46656e-11 0 0)
(-2.92392e-12 0 0)
(1.31309e-11 0 0)
(-4.28193e-12 0 0)
(1.81022e-11 0 0)
(-4.55125e-11 0 0)
(-1.32956e-10 0 0)
(-1.34918e-10 0 0)
(-1.37101e-10 0 0)
(-1.02682e-10 0 0)
(-6.79416e-11 0 0)
(-4.58018e-11 0 0)
(-5.8746e-12 0 0)
(-1.52434e-12 0 0)
(6.44268e-12 0 0)
(-2.18182e-12 0 0)
(-2.54091e-11 0 0)
(-5.2519e-11 0 0)
(-7.84678e-11 0 0)
(6.66049e-12 0 0)
(9.16846e-11 0 0)
(9.90602e-11 0 0)
(1.06732e-10 0 0)
(8.66332e-11 0 0)
(7.88753e-11 0 0)
(6.89843e-11 0 0)
(5.8684e-11 0 0)
(4.71119e-11 0 0)
(3.84796e-11 0 0)
(4.82178e-11 0 0)
(4.68758e-11 0 0)
(4.11581e-11 0 0)
(1.13344e-11 0 0)
(2.9848e-11 0 0)
(3.83528e-11 0 0)
(3.67546e-11 0 0)
(4.81643e-11 0 0)
(7.31112e-12 0 0)
(-5.28123e-12 0 0)
(2.39359e-11 0 0)
(5.95093e-11 0 0)
(5.75563e-11 0 0)
(2.55957e-11 0 0)
(-1.78417e-11 0 0)
(-8.20883e-11 0 0)
(-1.05228e-10 0 0)
(-9.52209e-11 0 0)
(-8.22937e-11 0 0)
(-7.02795e-11 0 0)
(-4.76387e-11 0 0)
(-6.9586e-11 0 0)
(-2.17933e-11 0 0)
(5.78988e-11 0 0)
(8.86641e-11 0 0)
(2.73847e-11 0 0)
(-6.54059e-11 0 0)
(-7.5012e-11 0 0)
(1.0674e-11 0 0)
(6.14809e-11 0 0)
(6.41227e-11 0 0)
(6.35973e-11 0 0)
(1.153e-10 0 0)
(1.69198e-10 0 0)
(1.58372e-10 0 0)
(9.54326e-11 0 0)
(-2.68995e-11 0 0)
(-1.24288e-10 0 0)
(-1.56939e-10 0 0)
(-1.1212e-10 0 0)
(-9.631e-11 0 0)
(-1.11599e-10 0 0)
(-1.45595e-10 0 0)
(-1.49672e-10 0 0)
(-1.01851e-10 0 0)
(-9.06876e-11 0 0)
(-6.45483e-11 0 0)
(-3.92859e-11 0 0)
(-4.48876e-12 0 0)
(-1.4722e-11 0 0)
(-7.56072e-11 0 0)
(-1.40281e-10 0 0)
(-8.68159e-11 0 0)
(-9.94983e-11 0 0)
(-9.16237e-11 0 0)
(-6.87439e-11 0 0)
(-1.62331e-11 0 0)
(-3.77818e-12 0 0)
(-7.42288e-11 0 0)
(-9.85888e-11 0 0)
(-3.82192e-11 0 0)
(-3.34481e-11 0 0)
(-1.63785e-12 0 0)
(3.17489e-11 0 0)
(7.27038e-12 0 0)
(-2.91887e-11 0 0)
(-7.50985e-11 0 0)
(-1.78644e-10 0 0)
(-2.47415e-10 0 0)
(-1.88044e-10 0 0)
(-1.11357e-10 0 0)
(-7.81257e-11 0 0)
(-4.63813e-12 0 0)
(-3.61729e-13 0 0)
(2.74865e-11 0 0)
(3.54368e-11 0 0)
(-3.00651e-12 0 0)
(-6.46388e-12 0 0)
(-1.25073e-11 0 0)
(-3.38532e-12 0 0)
(4.5229e-11 0 0)
(8.31733e-11 0 0)
(7.44186e-11 0 0)
(5.53382e-11 0 0)
(6.55013e-11 0 0)
(3.32358e-11 0 0)
(2.10255e-11 0 0)
(-4.34817e-12 0 0)
(-8.28829e-11 0 0)
(-7.0089e-11 0 0)
(1.61549e-11 0 0)
(2.69332e-11 0 0)
(4.25913e-11 0 0)
(-1.29903e-11 0 0)
(-1.58937e-11 0 0)
(5.39285e-11 0 0)
(1.29069e-10 0 0)
(9.69949e-11 0 0)
(1.65099e-10 0 0)
(2.22156e-10 0 0)
(2.20001e-10 0 0)
(2.22963e-10 0 0)
(1.70866e-10 0 0)
(1.14224e-10 0 0)
(2.22626e-11 0 0)
(-9.79704e-12 0 0)
(3.22542e-11 0 0)
(8.45895e-11 0 0)
(1.13914e-10 0 0)
(9.84497e-11 0 0)
(8.58662e-11 0 0)
(1.16239e-10 0 0)
(5.68911e-11 0 0)
(7.44535e-11 0 0)
(6.95914e-11 0 0)
(1.28596e-11 0 0)
(6.15905e-12 0 0)
(2.30521e-11 0 0)
(5.15248e-11 0 0)
(6.6416e-11 0 0)
(8.48823e-11 0 0)
(7.00443e-11 0 0)
(5.76797e-11 0 0)
(4.67074e-11 0 0)
(4.86835e-11 0 0)
(1.07886e-12 0 0)
(-5.76995e-11 0 0)
(-4.79139e-11 0 0)
(-4.13649e-11 0 0)
(-5.28424e-11 0 0)
(-6.11684e-11 0 0)
(-8.38497e-11 0 0)
(-9.73663e-11 0 0)
(-9.24942e-11 0 0)
(-6.0317e-11 0 0)
(-9.81038e-11 0 0)
(-1.41252e-10 0 0)
(-1.5918e-10 0 0)
(-1.37691e-10 0 0)
(-8.00857e-11 0 0)
(-2.74584e-12 0 0)
(3.54788e-11 0 0)
(5.03872e-11 0 0)
(5.44317e-11 0 0)
(3.56445e-11 0 0)
(-3.46443e-12 0 0)
(7.70325e-12 0 0)
(1.89493e-11 0 0)
(-1.58997e-11 0 0)
(-5.32566e-11 0 0)
(-6.71125e-11 0 0)
(-9.18119e-11 0 0)
(-7.02894e-11 0 0)
(-9.06776e-12 0 0)
(5.90294e-11 0 0)
(-6.54847e-12 0 0)
(-7.93095e-11 0 0)
(-8.79773e-11 0 0)
(-6.25134e-11 0 0)
(-2.01286e-11 0 0)
(-8.98411e-12 0 0)
(-5.06505e-11 0 0)
(-3.88889e-11 0 0)
(-3.2958e-11 0 0)
(2.57872e-11 0 0)
(7.27596e-11 0 0)
(4.5223e-11 0 0)
(-4.16508e-12 0 0)
(-2.89797e-11 0 0)
(-4.9634e-12 0 0)
(-4.0752e-11 0 0)
(-2.27999e-11 0 0)
(-2.29388e-11 0 0)
(-4.38706e-11 0 0)
(-3.02882e-11 0 0)
(-2.50312e-12 0 0)
(-7.10765e-11 0 0)
(-7.54205e-11 0 0)
(-8.76519e-12 0 0)
(7.65753e-11 0 0)
(1.32606e-10 0 0)
(1.41687e-10 0 0)
(1.444e-10 0 0)
(1.5676e-10 0 0)
(1.64272e-10 0 0)
(1.55774e-10 0 0)
(1.27989e-10 0 0)
(9.90028e-11 0 0)
(7.20732e-11 0 0)
(6.57549e-11 0 0)
(6.90732e-11 0 0)
(9.16249e-11 0 0)
(8.55949e-11 0 0)
(1.55624e-11 0 0)
(-7.12047e-11 0 0)
(-1.38687e-10 0 0)
(-9.05143e-11 0 0)
(-1.40463e-11 0 0)
(-1.89577e-11 0 0)
(2.24705e-13 0 0)
(7.97932e-12 0 0)
(3.36239e-11 0 0)
(5.02153e-11 0 0)
(4.84673e-11 0 0)
(9.56271e-11 0 0)
(1.26421e-10 0 0)
(1.37119e-10 0 0)
(1.47834e-10 0 0)
(1.3103e-10 0 0)
(1.55188e-10 0 0)
(1.81196e-10 0 0)
(2.11793e-10 0 0)
(2.0813e-10 0 0)
(1.9225e-10 0 0)
(1.61826e-10 0 0)
(1.1771e-10 0 0)
(1.95659e-11 0 0)
(-8.564e-11 0 0)
(-1.55953e-10 0 0)
(-1.1608e-10 0 0)
(-5.59812e-11 0 0)
(-3.84025e-11 0 0)
(-4.56165e-11 0 0)
(-2.31585e-11 0 0)
(-2.3616e-12 0 0)
(-4.89416e-11 0 0)
(-1.08347e-10 0 0)
(-9.01683e-11 0 0)
(-2.04783e-11 0 0)
(-2.88061e-12 0 0)
(1.63893e-11 0 0)
(3.73276e-11 0 0)
(6.85731e-11 0 0)
(6.62066e-11 0 0)
(4.32478e-11 0 0)
(1.77062e-14 0 0)
(-8.69096e-11 0 0)
(-1.39011e-10 0 0)
(-1.39962e-10 0 0)
(-1.17449e-10 0 0)
(-8.2612e-11 0 0)
(-6.5055e-11 0 0)
(-1.52064e-11 0 0)
(3.33239e-12 0 0)
(6.50473e-12 0 0)
(3.62165e-11 0 0)
(1.56121e-11 0 0)
(-2.91561e-11 0 0)
(2.26928e-11 0 0)
(3.22441e-11 0 0)
(-8.65933e-12 0 0)
(-2.65539e-11 0 0)
(2.66304e-11 0 0)
(8.7963e-11 0 0)
(1.30541e-10 0 0)
(1.75939e-10 0 0)
(1.1678e-10 0 0)
(3.1173e-11 0 0)
(-9.67575e-12 0 0)
(1.39175e-11 0 0)
(-1.84365e-11 0 0)
(-6.76543e-11 0 0)
(-6.89828e-11 0 0)
(-8.57422e-11 0 0)
(-1.22787e-10 0 0)
(-1.68508e-10 0 0)
(-2.05814e-10 0 0)
(-2.70463e-10 0 0)
(-3.32095e-10 0 0)
(-3.24365e-10 0 0)
(-3.30097e-10 0 0)
(-3.36043e-10 0 0)
(2.55015e-08 0 0)
(1.51687e-05 0 0)
(0.000870953 0 0)
(0.00907492 0 0)
(0.0318336 0 0)
(0.0623042 0 0)
(0.092658 0 0)
(0.12124 0 0)
(0.148612 0 0)
(0.175385 0 0)
(0.201888 0 0)
(0.228271 0 0)
(0.254599 0 0)
(0.280901 0 0)
(0.307192 0 0)
(0.333484 0 0)
(0.359783 0 0)
(0.386097 0 0)
(0.41243 0 0)
(0.438789 0 0)
(0.465179 0 0)
(0.491606 0 0)
(0.518075 0 0)
(0.54459 0 0)
(0.571156 0 0)
(0.597775 0 0)
(0.62445 0 0)
(0.651179 0 0)
(0.67796 0 0)
(0.704787 0 0)
(0.731649 0 0)
(0.758531 0 0)
(0.785412 0 0)
(0.812256 0 0)
(0.838994 0 0)
(0.865433 0 0)
(0.890958 0 0)
(0.913703 0 0)
(0.929505 0 0)
(0.934847 0 0)
(0.931254 0 0)
(0.927315 0 0)
(0.928368 0 0)
(0.929348 0 0)
(0.929867 0 0)
(0.930241 0 0)
(0.930229 0 0)
(0.929905 0 0)
(0.929852 0 0)
(0.929915 0 0)
(0.929834 0 0)
(0.929651 0 0)
(0.929514 0 0)
(0.929458 0 0)
(0.929496 0 0)
(0.9294 0 0)
(0.929146 0 0)
(0.929021 0 0)
(0.928997 0 0)
(0.928926 0 0)
(0.928848 0 0)
(0.928824 0 0)
(0.928901 0 0)
(0.928956 0 0)
(0.928904 0 0)
(0.929145 0 0)
(0.929915 0 0)
(0.930219 0 0)
(0.928328 0 0)
(0.932021 0 0)
(0.932694 0 0)
(0.927565 0 0)
(0.925937 0 0)
(0.925514 0 0)
(0.92523 0 0)
(0.925329 0 0)
(0.926752 0 0)
(0.930195 0 0)
(0.932627 0 0)
(0.932452 0 0)
(0.931536 0 0)
(0.929104 0 0)
(0.925409 0 0)
(0.923746 0 0)
(0.923657 0 0)
(0.924126 0 0)
(0.926261 0 0)
(0.930775 0 0)
(0.932883 0 0)
(0.932033 0 0)
(0.915342 0 0)
(0.752783 0 0)
(0.23289 0 0)
(0.0049863 0 0)
(2.85817e-06 0 0)
(1.96552e-11 0 0)
(2.9442e-12 0 0)
(5.63304e-12 0 0)
(2.29552e-11 0 0)
(1.17964e-10 0 0)
(1.75065e-10 0 0)
(1.65228e-10 0 0)
(1.41127e-10 0 0)
(5.22504e-12 0 0)
(-8.7151e-11 0 0)
(-1.13021e-10 0 0)
(-7.41555e-11 0 0)
(-1.04695e-11 0 0)
(4.47393e-11 0 0)
(2.40892e-11 0 0)
(9.15443e-12 0 0)
(-1.68708e-11 0 0)
(-4.80396e-11 0 0)
(-3.86057e-11 0 0)
(-3.83874e-11 0 0)
(-2.54462e-11 0 0)
(1.06362e-11 0 0)
(-1.22197e-11 0 0)
(-4.96173e-11 0 0)
(-5.85609e-11 0 0)
(-1.06799e-10 0 0)
(-5.45112e-11 0 0)
(4.08181e-11 0 0)
(4.99627e-11 0 0)
(4.80897e-11 0 0)
(5.41148e-11 0 0)
(5.9528e-11 0 0)
(1.11398e-12 0 0)
(-1.18393e-11 0 0)
(-2.21614e-11 0 0)
(-1.27545e-11 0 0)
(-9.43308e-12 0 0)
(-3.38919e-11 0 0)
(1.85666e-11 0 0)
(7.38511e-11 0 0)
(1.3611e-10 0 0)
(1.49622e-10 0 0)
(1.60409e-10 0 0)
(1.17311e-10 0 0)
(8.52025e-11 0 0)
(7.0056e-11 0 0)
(7.03478e-11 0 0)
(7.84851e-11 0 0)
(3.32234e-11 0 0)
(1.74962e-11 0 0)
(2.03334e-11 0 0)
(2.89169e-11 0 0)
(5.29828e-11 0 0)
(5.5765e-11 0 0)
(3.22215e-11 0 0)
(3.79069e-11 0 0)
(1.94045e-11 0 0)
(1.87293e-12 0 0)
(-6.4059e-11 0 0)
(-1.09215e-10 0 0)
(-1.16739e-10 0 0)
(-1.31046e-10 0 0)
(-1.48106e-10 0 0)
(-1.00073e-10 0 0)
(-1.20751e-10 0 0)
(-1.38829e-10 0 0)
(-8.59198e-11 0 0)
(-1.06392e-11 0 0)
(6.39999e-11 0 0)
(6.22974e-11 0 0)
(-1.83434e-11 0 0)
(-8.05513e-11 0 0)
(-7.58029e-11 0 0)
(-4.25386e-11 0 0)
(-2.67828e-11 0 0)
(-5.96703e-11 0 0)
(-3.46033e-11 0 0)
(8.979e-12 0 0)
(-4.57668e-11 0 0)
(-8.57925e-11 0 0)
(-3.72769e-11 0 0)
(-2.12978e-11 0 0)
(-8.44154e-11 0 0)
(-1.27692e-10 0 0)
(-1.27902e-10 0 0)
(-1.37873e-10 0 0)
(-1.34988e-10 0 0)
(-5.71934e-11 0 0)
(-9.01895e-12 0 0)
(-2.99309e-11 0 0)
(-4.48218e-11 0 0)
(-5.39375e-11 0 0)
(-9.67309e-11 0 0)
(-1.48376e-10 0 0)
(-1.27703e-10 0 0)
(-5.83948e-11 0 0)
(3.77412e-11 0 0)
(7.38402e-11 0 0)
(7.22526e-11 0 0)
(7.89943e-11 0 0)
(-1.10555e-11 0 0)
(-6.0017e-11 0 0)
(-9.85236e-11 0 0)
(-1.39765e-10 0 0)
(-9.37473e-11 0 0)
(-2.26134e-11 0 0)
(-9.59728e-12 0 0)
(5.97157e-11 0 0)
(1.07167e-10 0 0)
(7.2504e-11 0 0)
(4.34866e-11 0 0)
(9.34584e-12 0 0)
(-2.24851e-11 0 0)
(-3.01361e-11 0 0)
(-2.92267e-11 0 0)
(2.80712e-11 0 0)
(9.20591e-11 0 0)
(6.73356e-11 0 0)
(1.38911e-11 0 0)
(-3.34386e-11 0 0)
(-6.00158e-11 0 0)
(-7.87446e-11 0 0)
(-9.60738e-11 0 0)
(-1.58679e-11 0 0)
(5.86078e-11 0 0)
(1.00969e-10 0 0)
(1.75917e-10 0 0)
(1.91264e-10 0 0)
(1.92712e-10 0 0)
(9.70903e-11 0 0)
(-1.24853e-11 0 0)
(-4.95306e-11 0 0)
(-3.25035e-11 0 0)
(-4.96623e-11 0 0)
(-3.67935e-11 0 0)
(7.21632e-12 0 0)
(1.61326e-11 0 0)
(1.94567e-11 0 0)
(-2.11858e-11 0 0)
(-4.6536e-11 0 0)
(-4.9564e-12 0 0)
(1.80038e-11 0 0)
(3.17452e-11 0 0)
(2.54618e-11 0 0)
(-9.69204e-12 0 0)
(7.40945e-12 0 0)
(1.77989e-12 0 0)
(3.91484e-12 0 0)
(5.94866e-11 0 0)
(2.70961e-11 0 0)
(-3.4976e-11 0 0)
(-2.80195e-11 0 0)
(-2.95352e-11 0 0)
(2.51176e-11 0 0)
(1.13278e-10 0 0)
(1.19886e-10 0 0)
(8.71811e-11 0 0)
(4.84665e-11 0 0)
(7.97902e-11 0 0)
(8.07026e-11 0 0)
(-6.77105e-14 0 0)
(-5.66145e-11 0 0)
(-1.07614e-10 0 0)
(-1.21012e-10 0 0)
(-8.0069e-11 0 0)
(-3.17357e-11 0 0)
(-3.99916e-11 0 0)
(-7.94675e-11 0 0)
(-2.94188e-11 0 0)
(-8.78269e-12 0 0)
(-2.66717e-11 0 0)
(3.36463e-12 0 0)
(5.43831e-11 0 0)
(-3.49229e-12 0 0)
(-3.122e-11 0 0)
(1.58853e-11 0 0)
(4.0004e-11 0 0)
(1.86644e-11 0 0)
(3.31877e-11 0 0)
(5.22843e-11 0 0)
(7.21765e-11 0 0)
(3.26534e-11 0 0)
(2.51285e-11 0 0)
(6.68387e-11 0 0)
(6.15925e-11 0 0)
(7.43218e-11 0 0)
(7.47879e-11 0 0)
(1.44294e-11 0 0)
(-2.55808e-11 0 0)
(1.39789e-11 0 0)
(8.69952e-12 0 0)
(-2.67837e-11 0 0)
(-7.19179e-11 0 0)
(-7.71445e-11 0 0)
(-8.67339e-11 0 0)
(-7.95858e-11 0 0)
(-1.08612e-10 0 0)
(-8.82209e-11 0 0)
(-3.82592e-11 0 0)
(-4.8307e-12 0 0)
(2.11246e-11 0 0)
(-3.63347e-11 0 0)
(-6.62916e-11 0 0)
(-4.04926e-11 0 0)
(2.09935e-11 0 0)
(5.02802e-11 0 0)
(3.27484e-11 0 0)
(8.04874e-11 0 0)
(9.40191e-11 0 0)
(4.94577e-11 0 0)
(2.67658e-11 0 0)
(-8.02184e-12 0 0)
(-2.74973e-11 0 0)
(-5.15063e-11 0 0)
(-5.23885e-11 0 0)
(-3.81266e-11 0 0)
(1.93864e-11 0 0)
(1.01227e-10 0 0)
(1.5336e-10 0 0)
(1.18831e-10 0 0)
(4.53876e-11 0 0)
(4.18634e-11 0 0)
(6.27848e-11 0 0)
(6.10355e-11 0 0)
(1.19178e-11 0 0)
(-4.94524e-11 0 0)
(-2.51856e-11 0 0)
(-1.27065e-11 0 0)
(7.5928e-12 0 0)
(2.00638e-11 0 0)
(-7.49533e-12 0 0)
(1.7189e-11 0 0)
(9.04587e-11 0 0)
(9.88107e-11 0 0)
(8.18581e-11 0 0)
(5.21314e-11 0 0)
(-1.5067e-11 0 0)
(-7.27757e-11 0 0)
(-1.01379e-10 0 0)
(-1.31387e-11 0 0)
(1.43143e-11 0 0)
(-2.68152e-11 0 0)
(4.11907e-11 0 0)
(3.14548e-11 0 0)
(-1.75234e-11 0 0)
(4.01299e-11 0 0)
(6.60849e-11 0 0)
(1.10838e-10 0 0)
(9.95337e-11 0 0)
(4.693e-11 0 0)
(3.23304e-11 0 0)
(1.37658e-11 0 0)
(-2.83341e-11 0 0)
(-6.69347e-11 0 0)
(-5.83519e-11 0 0)
(-3.59044e-11 0 0)
(-1.13362e-11 0 0)
(-1.5172e-11 0 0)
(-1.32796e-11 0 0)
(1.92164e-11 0 0)
(-3.75072e-11 0 0)
(-7.91495e-11 0 0)
(-2.71287e-11 0 0)
(-1.81957e-11 0 0)
(-4.48957e-12 0 0)
(-2.48831e-11 0 0)
(-2.36441e-11 0 0)
(-2.75267e-11 0 0)
(-5.84922e-11 0 0)
(-4.77682e-11 0 0)
(-7.80397e-11 0 0)
(-9.35691e-11 0 0)
(-4.12661e-11 0 0)
(-4.77985e-11 0 0)
(-9.45642e-11 0 0)
(-9.07308e-11 0 0)
(-7.04404e-11 0 0)
(-8.10147e-11 0 0)
(-7.92135e-11 0 0)
(-8.06718e-11 0 0)
(-5.34945e-11 0 0)
(-1.37e-11 0 0)
(4.83604e-11 0 0)
(1.49298e-11 0 0)
(-1.14934e-10 0 0)
(-9.70976e-11 0 0)
(-9.29014e-11 0 0)
(-9.19951e-11 0 0)
(-2.3902e-12 0 0)
(3.51626e-11 0 0)
(7.63578e-11 0 0)
(9.1913e-11 0 0)
(7.94721e-11 0 0)
(9.31842e-11 0 0)
(1.13482e-10 0 0)
(1.18613e-10 0 0)
(6.28891e-11 0 0)
(-9.39505e-13 0 0)
(3.0045e-11 0 0)
(6.05198e-11 0 0)
(1.10981e-10 0 0)
(1.35191e-10 0 0)
(9.7486e-11 0 0)
(3.99195e-11 0 0)
(3.95248e-11 0 0)
(2.82083e-12 0 0)
(-1.08483e-11 0 0)
(-4.4227e-11 0 0)
(-1.94395e-11 0 0)
(-4.08372e-13 0 0)
(1.55159e-11 0 0)
(3.89712e-11 0 0)
(7.09334e-12 0 0)
(1.33724e-11 0 0)
(1.19789e-11 0 0)
(3.00501e-11 0 0)
(9.36281e-11 0 0)
(1.55908e-10 0 0)
(1.02309e-10 0 0)
(1.16444e-11 0 0)
(2.98168e-11 0 0)
(5.83994e-11 0 0)
(5.5576e-11 0 0)
(-7.3596e-12 0 0)
(-1.18044e-10 0 0)
(-1.78812e-10 0 0)
(-1.99996e-10 0 0)
(-1.58383e-10 0 0)
(-9.2122e-11 0 0)
(-1.54153e-10 0 0)
(-6.64597e-11 0 0)
(1.08155e-10 0 0)
(1.68902e-10 0 0)
(1.49143e-10 0 0)
(1.06309e-10 0 0)
(1.10741e-10 0 0)
(9.06723e-11 0 0)
(8.99467e-11 0 0)
(1.79984e-10 0 0)
(1.44076e-10 0 0)
(8.99107e-11 0 0)
(7.10264e-11 0 0)
(-7.06479e-12 0 0)
(-6.35932e-12 0 0)
)
;

boundaryField
{
    left
    {
        type            noSlip;
    }
    right
    {
        type            noSlip;
    }
    empty
    {
        type            empty;
    }
}


// ************************************************************************* //
