/*--------------------------------*- C++ -*----------------------------------*\
| =========                 |                                                 |
| \\      /  F ield         | OpenFOAM: The Open Source CFD Toolbox           |
|  \\    /   O peration     | Version:  2106                                  |
|   \\  /    A nd           | Website:  www.openfoam.com                      |
|    \\/     M anipulation  |                                                 |
\*---------------------------------------------------------------------------*/
FoamFile
{
    version     2.0;
    format      ascii;
    arch        "LSB;label=32;scalar=64";
    class       volScalarField;
    location    "0.13";
    object      p;
}
// * * * * * * * * * * * * * * * * * * * * * * * * * * * * * * * * * * * * * //

dimensions      [0 2 -2 0 0 0 0];

internalField   nonuniform List<scalar> 
9600
(
2.20999658548
-0.688013225432
-1.59224457615
-1.97785565821
-2.1971870065
-2.33712951374
-2.44103465212
-2.52858450263
-2.60808371871
-2.68347378579
-2.75684781796
-2.8293564976
-2.90162953449
-2.97399801155
-3.046618387
-3.11954639961
-3.19278216901
-3.2662973153
-3.34005152963
-3.41400202414
-3.48810802128
-3.56233511756
-3.63665294634
-3.71103728856
-3.78546883077
-3.85993251084
-3.93441671819
-4.00891250537
-4.08341311415
-4.15791336224
-4.23240910266
-4.30689709279
-4.38137467741
-4.45583948797
-4.53028944304
-4.60472257039
-4.67913684359
-4.75353029141
-4.82790093593
-4.9022465882
-4.97656496167
-5.05085371494
-5.12511016073
-5.19933142547
-5.27351452559
-5.34765620664
-5.42175290073
-5.49580086121
-5.56979599235
-5.6437338368
-5.71760972178
-5.79141858093
-5.86515493966
-5.93881303287
-6.01238658635
-6.08586882762
-6.15925268833
-6.23253053827
-6.30569412822
-6.37873482584
-6.45164341701
-6.52440995115
-6.59702394102
-6.66947421672
-6.7417487879
-6.81383504532
-6.88571960596
-6.95738811487
-7.02882550058
-7.10001586391
-7.17094215985
-7.24158644414
-7.31192983152
-7.38195220109
-7.45163246234
-7.52094844613
-7.58987656345
-7.65839215021
-7.72646935941
-7.79408070407
-7.86119745528
-7.92778969587
-7.99382575347
-8.05927244163
-8.12409529916
-8.18825809398
-8.25172288822
-8.31445027417
-8.37639898074
-8.4375259879
-8.4977866623
-8.55713420476
-8.61552000565
-8.67289407367
-8.72920414382
-8.78439571317
-8.83841285959
-8.89119756435
-8.94268945987
-8.99282661982
-9.04154501153
-9.08877825257
-9.13445844588
-9.17851568934
-9.22087754336
-9.26147002468
-9.30021753415
-9.33704204766
-9.37186360607
-9.40460082997
-9.43517064484
-9.46348805086
-9.48946611985
-9.51301637195
-9.53404921755
-9.55247359517
-9.56819651799
-9.58112417833
-9.59116208307
-9.5982135574
-9.60218105012
-9.60296726153
-9.60047314719
-9.59459865743
-9.58524443871
-9.57231176646
-9.55569711558
-9.53529925087
-9.51101702149
-9.48274826718
-9.45039024255
-9.4138408716
-9.37299738978
-9.32775604334
-9.27801206875
-9.22366047636
-9.16459463523
-9.10070485398
-9.03188009909
-8.9580046353
-8.87895682347
-8.79460973737
-8.70482652565
-8.60945917991
-8.50834410242
-8.40129669241
-8.28810760473
-8.16853038909
-8.04227003747
-7.90896786832
-7.76817169107
-7.61929419626
-7.46154137921
-7.29378808161
-7.11436177815
-6.9207234801
-6.70898513083
-6.47328564413
-6.21415670396
-5.99881218416
0.298455313899
-0.883898979522
-1.49257254261
-1.84659716474
-2.08921399582
-2.25977699303
-2.38784848186
-2.49235137238
-2.58342701287
-2.66670535235
-2.74547837716
-2.821695538
-2.89651606605
-2.97062836387
-3.04443447066
-3.11816088954
-3.19192744442
-3.26578990488
-3.33976683027
-3.41385654581
-3.48804744844
-3.56232305747
-3.63666680751
-3.71106335363
-3.78549900112
-3.85996227867
-3.93444387287
-4.00893619911
-4.08343322689
-4.15793020538
-4.23242317245
-4.30690890409
-4.3813847558
-4.45584830534
-4.53029737071
-4.60472995328
-4.67914399283
-4.75353742601
-4.8279082661
-4.90225433616
-4.97657325575
-5.05086263022
-5.12511983516
-5.1993419022
-5.27352586302
-5.34766850921
-5.42176622858
-5.49581527292
-5.56981159208
-5.64375071142
-5.71762795577
-5.79143829403
-5.86517621796
-5.93883596581
-6.01241135337
-6.08589556223
-6.15928145666
-6.23256149075
-6.30572744358
-6.37877063579
-6.45168188719
-6.5244512665
-6.59706825668
-6.66952171951
-6.7417996712
-6.8138894865
-6.885777866
-6.9574504633
-7.0288921258
-7.10008701563
-7.1710181341
-7.24166746192
-7.31201615984
-7.38204416935
-7.45173036899
-7.52105264354
-7.58998737824
-7.65850980629
-7.72659422873
-7.7942132697
-7.86133802686
-7.92793857555
-7.99398341843
-8.05943933951
-8.12427178793
-8.18844454837
-8.25191973345
-8.314658067
-8.37661825018
-8.43775702795
-8.49802989617
-8.55739031292
-8.61578944854
-8.67317721479
-8.72950160874
-8.78470802861
-8.83874041703
-8.89154097042
-8.94304924903
-8.99320324201
-9.04193919649
-9.08919058841
-9.13488922262
-9.17896552775
-9.22134715779
-9.26195973632
-9.30072771811
-9.33757339461
-9.37241681512
-9.40517624085
-9.43576818726
-9.46410803814
-9.49010916759
-9.51368294777
-9.53473949754
-9.55318803124
-9.56893579943
-9.58188830261
-9.59195127701
-9.59902863515
-9.60302243013
-9.60383537147
-9.60136892803
-9.5955227264
-9.58619630447
-9.57328928807
-9.55670251113
-9.53633344663
-9.5120815255
-9.48384567248
-9.45152349814
-9.41501348474
-9.3742138416
-9.32902246039
-9.2793362623
-9.22505148186
-9.16606426078
-9.10226767525
-9.03355405209
-8.95981288647
-8.88092805523
-8.79677986832
-8.70724059688
-8.61217387073
-8.51143174499
-8.4048484122
-8.292240483
-8.17339780365
-8.04807290928
-7.91597490647
-7.77675206635
-7.6299722788
-7.47509842347
-7.3114584909
-7.13822668471
-6.95449736837
-6.759556568
-6.55275158612
-6.3346758535
-6.12892559371
-0.677386505987
-1.15875475228
-1.5500129167
-1.84162888213
-2.06320281499
-2.23113875681
-2.36324015432
-2.47302883748
-2.56888763857
-2.65603219952
-2.73777439457
-2.8162090048
-2.89265616587
-2.96794558645
-3.042593584
-3.11691534525
-3.19109800389
-3.26524776072
-3.33942040691
-3.41364145562
-3.487918806
-3.56225038824
-3.63662938044
-3.71104744565
-3.78549569665
-3.85996586742
-3.93445083146
-4.00894447248
-4.08344163166
-4.15793812695
-4.23243038479
-4.3069153508
-4.38139049214
-4.45585347209
-4.53030208476
-4.60473433016
-4.67914818821
-4.75354153923
-4.82791234947
-4.90225848595
-4.97657752116
-5.05086700067
-5.12512437223
-5.19934672247
-5.27353100362
-5.34767404167
-5.42177227453
-5.49582182142
-5.56981865777
-5.64375835552
-5.7176362219
-5.79144724082
-5.86518589971
-5.93884637283
-6.01242254235
-6.0859076291
-6.15929442376
-6.23257541617
-6.30574243318
-6.37878674278
-6.45169917809
-6.52446984392
-6.59708817849
-6.66954308086
-6.74182261704
-6.81391408052
-6.88580417357
-6.95747862864
-7.02892224483
-7.10011916881
-7.17105246994
-7.24170406567
-7.31205512108
-7.38208566348
-7.45177450446
-7.52109956026
-7.59003732549
-7.65856288436
-7.72665047959
-7.79427291727
-7.86140125817
-7.92800548481
-7.99405423147
-8.05951428878
-8.12435101645
-8.18852825697
-8.25200809836
-8.3147512522
-8.37671654621
-8.43786059444
-8.49813878038
-8.55750485411
-8.61590999597
-8.67330381165
-8.72963442611
-8.78484740031
-8.8388864827
-8.89169391711
-8.94320934825
-8.99337052256
-9.04211381196
-9.08937283066
-9.135079157
-9.17916322726
-9.22155299345
-9.26217393878
-9.30095022897
-9.3378043489
-9.37265662221
-9.405425378
-9.43602727669
-9.46437727788
-9.49038895902
-9.51397383052
-9.53504169015
-9.55350187856
-9.56926202669
-9.58222743776
-9.59230343893
-9.59939455331
-9.6034030664
-9.60423104329
-9.60178050928
-9.59595226769
-9.58664577519
-9.57376111401
-9.55719866087
-9.5368564891
-9.51263371175
-9.48443007006
-9.45214411707
-9.41567475087
-9.37492074398
-9.32978151173
-9.28015566803
-9.2259409399
-9.16703609948
-9.10333718776
-9.03473931769
-8.96113675075
-8.88241914748
-8.79847361835
-8.709181366
-8.61441698376
-8.51404764022
-8.40792639134
-8.29589329211
-8.17777128822
-8.05335794559
-7.92242370151
-7.7847042931
-7.63989662242
-7.48765897829
-7.32762242097
-7.15943586987
-6.98289975693
-6.79828888585
-6.60652666795
-6.40920078881
-6.21547964477
-1.22884658166
-1.41519305401
-1.65764016375
-1.88010789412
-2.0672986716
-2.22132675683
-2.34976385733
-2.46005435519
-2.55784909979
-2.64720913404
-2.73098019594
-2.81110701419
-2.88889690365
-2.96521894856
-3.04064372933
-3.11553978496
-3.19014072826
-3.26459103792
-3.33897683664
-3.41334703244
-3.48772722392
-3.56212866738
-3.63655484194
-3.71100366248
-3.785471701
-3.8599542727
-3.93444672192
-4.00894470393
-4.08344420484
-4.15794178294
-4.23243441205
-4.30691934843
-4.38139424711
-4.45585694223
-4.53030528775
-4.60473729158
-4.67915099741
-4.75354428296
-4.82791504528
-4.90226118704
-4.97658031399
-5.05086990505
-5.12512741868
-5.1993499829
-5.27353448653
-5.34767772342
-5.42177614149
-5.49582593148
-5.5698230834
-5.64376314818
-5.7176413486
-5.79145273455
-5.86519182605
-5.93885274082
-6.0124293645
-6.08591500362
-6.15930241875
-6.232584052
-6.30575176979
-6.37879680048
-6.45170995066
-6.52448137688
-6.59710050065
-6.66955623444
-6.74183672534
-6.81392919607
-6.88582027958
-6.9574958251
-7.02894062618
-7.10013876461
-7.17107335817
-7.24172632659
-7.31207881483
-7.38211090892
-7.45180136622
-7.52112806237
-7.59006763267
-7.65859512807
-7.72668463395
-7.79430905251
-7.86143954739
-7.92804601775
-7.99409709052
-8.05955958692
-8.12439886708
-8.18857883524
-8.25206151423
-8.31480751657
-8.37677585059
-8.43792317806
-8.49820464085
-8.55757410068
-8.61598294362
-8.67338052364
-8.72971491658
-8.78493195403
-8.83897527519
-8.8917870758
-8.94330724948
-8.99347335356
-9.04222156789
-9.08948594804
-9.13519796436
-9.17928768363
-9.22168334681
-9.2623106097
-9.30109341911
-9.33795417163
-9.37281322417
-9.40558898945
-9.4361979637
-9.46455505846
-9.49057392343
-9.51416637279
-9.53524216064
-9.55371021683
-9.56947866115
-9.58245305206
-9.59253818035
-9.59963888127
-9.60365794645
-9.60449695497
-9.60205792436
-9.59624235658
-9.58694998595
-9.57408045837
-9.5575346521
-9.53721184196
-9.51301106402
-9.48483277142
-9.45257658579
-9.41614214295
-9.37542928403
-9.33033859655
-9.28077068892
-9.22662510055
-9.16780311249
-9.10420436614
-9.03572726335
-8.96227083031
-8.88373077258
-8.80000143151
-8.71097351417
-8.6165327029
-8.51656133561
-8.41093224779
-8.29950910478
-8.18214711562
-8.05868732276
-7.9289574536
-7.79277232247
-7.64993774518
-7.50026279333
-7.34358510281
-7.17982221899
-7.00906961631
-6.83177508816
-6.6488058874
-6.46124442418
-6.27234540482
-1.56619170567
-1.61795511632
-1.76185018683
-1.92614331792
-2.0804759704
-2.21853406712
-2.34068766001
-2.44947583841
-2.54792003588
-2.6387502604
-2.72415788861
-2.80579599671
-2.88486615793
-2.96222008798
-3.0384496329
-3.11395844291
-3.18901707183
-3.26380371675
-3.33843310443
-3.41297726714
-3.48748004126
-3.56196680218
-3.63645135264
-3.71093929221
-3.78543327399
-3.85993271972
-3.9344358438
-4.00894038992
-4.08344377351
-4.157943487
-4.23243718474
-4.3069225631
-4.38139752227
-4.45586010442
-4.53030829624
-4.60474013217
-4.67915371417
-4.75354696234
-4.82791770925
-4.90226384522
-4.97658304926
-5.05087276816
-5.12513042751
-5.19935320627
-5.27353797364
-5.34768150531
-5.42178030319
-5.49583048923
-5.56982797258
-5.64376842992
-5.71764707595
-5.79145892301
-5.86519855263
-5.93886002266
-6.01243715197
-6.0859233366
-6.15931136059
-6.23259362796
-6.30576204291
-6.3788078437
-6.45172179948
-6.52449410024
-6.59711418226
-6.66957092418
-6.74185252157
-6.81394619953
-6.8858384984
-6.95751531808
-7.02896150667
-7.10016104126
-7.17109709661
-7.24175165931
-7.31210578417
-7.38213963543
-7.45183199228
-7.52116057028
-7.59010211197
-7.65863179053
-7.72672351011
-7.79435019876
-7.86148318296
-7.9280922427
-7.99414597169
-8.05961130874
-8.12445351599
-8.18863653739
-8.25212250134
-8.31487176596
-8.37684339132
-8.43799436753
-8.49827960921
-8.55765281735
-8.6160656492
-8.67346736184
-8.72980588216
-8.78502726706
-8.83907507713
-8.89189136154
-8.94341621939
-8.9935870553
-9.04233987766
-9.08960904106
-9.1353261197
-9.17942083835
-9.22182145408
-9.26245394267
-9.30124226465
-9.33810861128
-9.37297329036
-9.40575485616
-9.4363700315
-9.46473361826
-9.49075899223
-9.51435830835
-9.53544141638
-9.5539168751
-9.56969296051
-9.58267568408
-9.59276951049
-9.59987914334
-9.60390822418
-9.60475812842
-9.602330693
-9.59652765896
-9.58724959306
-9.57439606231
-9.55786790818
-9.53756538611
-9.51338796502
-9.48523654976
-9.45301155761
-9.41661385108
-9.37594446242
-9.33090508463
-9.28139847023
-9.22732618648
-9.16859176947
-9.10509869455
-9.03674920504
-8.96344703286
-8.8850940639
-8.8015920654
-8.71284142773
-8.61873884503
-8.5191809806
-8.41405998166
-8.30326260528
-8.18667385528
-8.06417355095
-7.93563906776
-7.80095014104
-7.65999575466
-7.51268941269
-7.35899408182
-7.19895885266
-7.0327731859
-6.86082098775
-6.68362215793
-6.50151675935
-6.31498906493
-1.77026591882
-1.76528742993
-1.84926280926
-1.9700522688
-2.09669480873
-2.21937474906
-2.33427168095
-2.4404677005
-2.53875079977
-2.63054014834
-2.71730110955
-2.80031637342
-2.88062066476
-2.95900750894
-3.0360649931
-3.11221763982
-3.1877654585
-3.26291677663
-3.33781362306
-3.41255103562
-3.48719143671
-3.56177481077
-3.63632588946
-3.71085987442
-3.78538444407
-3.85990405373
-3.93442018662
-4.0089328968
-4.08344125709
-4.15794384554
-4.23243909132
-4.30692523161
-4.38140045737
-4.45586303356
-4.53031113485
-4.60474284692
-4.67915629861
-4.75354948255
-4.82792019742
-4.90226630095
-4.97658553865
-5.0508753519
-5.1251331084
-5.19935601955
-5.27354096202
-5.34768466257
-5.42178363351
-5.49583401443
-5.5698317742
-5.64377254453
-5.71765151219
-5.79146363299
-5.86520355496
-5.93886538296
-6.01244291091
-6.08592957874
-6.15931814858
-6.23260095335
-6.30576992548
-6.37881633354
-6.45173089862
-6.52450384836
-6.59712465569
-6.66958213393
-6.74186450073
-6.81395902992
-6.88585219728
-6.95752991836
-7.0289771049
-7.10017767187
-7.17111480313
-7.24177054013
-7.31212586973
-7.38216099644
-7.4518547727
-7.5211847729
-7.59012773127
-7.65865898425
-7.72675237116
-7.79438073893
-7.86151552579
-7.92812650193
-7.99418218517
-8.05964956611
-8.12449391235
-8.18867918033
-8.2521675676
-8.31491930927
-8.37689341789
-8.43804711569
-8.49833526653
-8.55771134271
-8.61612717083
-8.67353213063
-8.72987398542
-8.78509886021
-8.83915036256
-8.8919703516
-8.94349907157
-8.99367408397
-9.04243113462
-9.08970461786
-9.13542634005
-9.17952581473
-9.22193115367
-9.2625685693
-9.30136213243
-9.33823393575
-9.37310409484
-9.40589114964
-9.43651211164
-9.46488178519
-9.49091331677
-9.51451893954
-9.53560888063
-9.55409147583
-9.56987481496
-9.58286545634
-9.5929678367
-9.60008639202
-9.60412496778
-9.60498580141
-9.60257006474
-9.59677956961
-9.58751581902
-9.57467863755
-9.55816867639
-9.53788705034
-9.51373391443
-9.48561038199
-9.45341782762
-9.41705825998
-9.37643393417
-9.33144766936
-9.28200426783
-9.22800759668
-9.16936322432
-9.10597817957
-9.03775860285
-8.96461278205
-8.88644860206
-8.80317459472
-8.71470027905
-8.62093312278
-8.52178240779
-8.4171572497
-8.30696515778
-8.19111625506
-8.06952214253
-7.94209931917
-7.8087749751
-7.66949416571
-7.524233244
-7.37301771771
-7.21594083244
-7.05318584189
-6.88501757153
-6.71168182764
-6.5331226254
-6.3489122995
-1.89339486891
-1.86793850787
-1.91729768912
-2.00745791114
-2.11238225277
-2.22170449532
-2.32954158782
-2.43276519542
-2.53043898633
-2.62282964408
-2.71070117341
-2.79494522579
-2.87640070719
-2.95577877695
-3.03364667433
-3.11043878707
-3.18647797025
-3.26199889599
-3.33716882694
-3.41210482376
-3.4868874852
-3.56157132056
-3.63619240631
-3.71077432056
-3.78533111736
-3.85987216993
-3.93440225127
-4.0089237912
-4.08343759351
-4.1579433904
-4.23244040688
-4.30692745078
-4.38140304229
-4.45586566612
-4.53031370478
-4.60474532202
-4.67915864272
-4.75355172363
-4.82792239109
-4.90226845491
-4.9765876924
-5.05087756898
-5.12513539097
-5.19935838444
-5.27354346426
-5.34768732545
-5.42178648727
-5.49583710624
-5.56983507609
-5.64377609382
-5.71765537423
-5.79146780225
-5.86520804405
-5.93887025027
-6.01244813006
-6.08593513134
-6.15932409819
-6.23260732498
-6.30577674417
-6.37882366446
-6.45173877291
-6.5245123041
-6.59713378447
-6.66959196806
-6.74187503542
-6.81397033691
-6.88586432753
-6.95754287257
-7.028990952
-7.10019247699
-7.17113058897
-7.24178738005
-7.31214380041
-7.38218002447
-7.45187500674
-7.52120628319
-7.59015051225
-7.65868314736
-7.72677803873
-7.79440791887
-7.86154428835
-7.92815696727
-7.99421440446
-8.05968362521
-8.1245298899
-8.18871708736
-8.25220754951
-8.31496151825
-8.37693780649
-8.43809376433
-8.49838438792
-8.55776293048
-8.61618126019
-8.67358893652
-8.72993353642
-8.78516118227
-8.83921565657
-8.89203858014
-8.94357019659
-8.99374840653
-9.04250876883
-9.08978548947
-9.13551063779
-9.17961376222
-9.22202282047
-9.26266407392
-9.30146164125
-9.33833761829
-9.37321210638
-9.40600364136
-9.43662921435
-9.46500384094
-9.49104051266
-9.51465129573
-9.53574692183
-9.55423566653
-9.57002528215
-9.58302263908
-9.59313266724
-9.60025926704
-9.60430632073
-9.60517673819
-9.60277190455
-9.59699328342
-9.58774288115
-9.57492111754
-9.55842863127
-9.53816714731
-9.51403746659
-9.48594120172
-9.45378055542
-9.41745852406
-9.37687867447
-9.33194489452
-9.28256376507
-9.22864162509
-9.17008605458
-9.10680718386
-9.03871486941
-8.96572169509
-8.88774104655
-8.80468731897
-8.71647837678
-8.62303168667
-8.52426718957
-8.42010838114
-8.31048001417
-8.19531223527
-8.07454134583
-7.94811280984
-7.81598627585
-7.6781420507
-7.53459035448
-7.38538299284
-7.23061781169
-7.0704439423
-6.9050340892
-6.73449780827
-6.5586991375
-6.37718397201
-1.96743679183
-1.93638727027
-1.96631720849
-2.03609030173
-2.12525829388
-2.2241348015
-2.32601422296
-2.42648660604
-2.52341313294
-2.61615958498
-2.70489689519
-2.79016335646
-2.87260855772
-2.95285639095
-3.03144535875
-3.10881213823
-3.18529619446
-3.26115365647
-3.33657332543
-3.4116915875
-3.48660522288
-3.56138178161
-3.63606761653
-3.7106941076
-3.78528086282
-3.85984189421
-3.93438501647
-4.00891484344
-4.08343377453
-4.15794263048
-4.23244134698
-4.3069292591
-4.38140522447
-4.45586792486
-4.53031591387
-4.60474745069
-4.67916065055
-4.75355361344
-4.82792422792
-4.90227026147
-4.97658947808
-5.05087938205
-5.12513724952
-5.1993603011
-5.27354549602
-5.3476894936
-5.42178879619
-5.49583958652
-5.56983773516
-5.64377893471
-5.71765844753
-5.79147110168
-5.8652115373
-5.93887397829
-6.01245215308
-6.0859394485
-6.15932873843
-6.23261231969
-6.30578210787
-6.37882944566
-6.45174499827
-6.52451897717
-6.59714096664
-6.66959970077
-6.74188329981
-6.81397917297
-6.88587378527
-6.95755294663
-7.02900169813
-7.10020395626
-7.17114280413
-7.24180040983
-7.31215770893
-7.38219476097
-7.45189061332
-7.52122287464
-7.59016810808
-7.65870179963
-7.72679785097
-7.79442890036
-7.86156645673
-7.92818040542
-7.99423917096
-8.05970982092
-8.12455759724
-8.18874626229
-8.25223827536
-8.31499399756
-8.37697201679
-8.43812967228
-8.49842218613
-8.55780271387
-8.61622305504
-8.67363290139
-8.72997970583
-8.7852095452
-8.839266378
-8.89209171857
-8.94362568379
-8.99380643594
-9.04256954748
-9.08984894569
-9.13557676987
-9.1796827999
-9.22209495843
-9.26273936901
-9.30154009602
-9.33841929101
-9.37329726325
-9.40609241395
-9.43672165304
-9.4651002226
-9.4911411274
-9.51475624643
-9.5358564144
-9.55435035609
-9.57014524516
-9.58314827472
-9.59326477032
-9.60039855054
-9.6044531296
-9.60533194955
-9.60293691715
-9.59716925698
-9.58793115772
-9.57512374771
-9.55864785403
-9.53840539036
-9.51429798894
-9.48622789016
-9.45409796051
-9.41781208909
-9.37727525278
-9.33239248143
-9.28307168268
-9.22922158815
-9.1707518485
-9.10757530691
-9.03960532007
-8.96675831468
-8.88895275461
-8.8061084283
-8.71815012173
-8.62500392877
-8.52659914784
-8.42287109302
-8.31375853254
-8.19920747685
-8.07917293873
-7.953621456
-7.82253482405
-7.68591570046
-7.54379303554
-7.39623074983
-7.24332436719
-7.08520117384
-6.92199680036
-6.75379938822
-6.58056088609
-6.40209102249
-2.00966953377
-1.97810634483
-1.99775032681
-2.05519678176
-2.13421017152
-2.22598845156
-2.32360616435
-2.42199393995
-2.5182754469
-2.61120939632
-2.70054205188
-2.78654606784
-2.8697220158
-2.95062127008
-3.02975555014
-3.10755988322
-3.18438434024
-3.2605002689
-3.33611227759
-3.41137120319
-3.48638608561
-3.56123441129
-3.63597030396
-3.71063074512
-3.78524152174
-3.85981819285
-3.93437146191
-4.00890775072
-4.08343068753
-4.15794195048
-4.23244201058
-4.30693060016
-4.38140687761
-4.45586966396
-4.53031761756
-4.60474908931
-4.67916219864
-4.75355505699
-4.82792562634
-4.90227164901
-4.97659083982
-5.05088074535
-5.12513865748
-5.19936176821
-5.27354705529
-5.34769115517
-5.42179054861
-5.49584146242
-5.56983975907
-5.6437810875
-5.71766075732
-5.79147358774
-5.86521418412
-5.93887682463
-6.01245522117
-6.0859427049
-6.15933219849
-6.23261604083
-6.30578610757
-6.37883375672
-6.45174965798
-6.52452396965
-6.59714632157
-6.66960548572
-6.74188949853
-6.81398578379
-6.88588086719
-6.95756050437
-7.02900975565
-7.10021257382
-7.17115197064
-7.24181016139
-7.31216812497
-7.38220579332
-7.45190226169
-7.52123527441
-7.59018128007
-7.65871571296
-7.72681259287
-7.79444451327
-7.86158293452
-7.9281978204
-7.99425756263
-8.05972923525
-8.12457815017
-8.18876792918
-8.25226102068
-8.31501798737
-8.37699730021
-8.43815616109
-8.49845000483
-8.5578319921
-8.61625375253
-8.67366510911
-8.73001351213
-8.78524487889
-8.83930332825
-8.89213043184
-8.94366605905
-8.99384852939
-9.04261363012
-9.08989503201
-9.13562482136
-9.17973295098
-9.22214731886
-9.26279402746
-9.30159707146
-9.33847866189
-9.37335924973
-9.40615720158
-9.43678923197
-9.46517066474
-9.49121491219
-9.51483342363
-9.53593718577
-9.55443516991
-9.57023462425
-9.58324222266
-9.59336398376
-9.60050383028
-9.6045651663
-9.6054513152
-9.60306491141
-9.59730726042
-9.58808042998
-9.5752862252
-9.55882576597
-9.5386012167
-9.51451492833
-9.48646981103
-9.45436934216
-9.418118094
-9.3776224935
-9.33278886301
-9.28352616488
-9.22974536009
-9.17135814753
-9.10827977626
-9.04042688254
-8.96771924684
-8.89008006212
-8.8074341202
-8.71971185706
-8.62684697176
-8.52877685968
-8.42544668408
-8.31680681003
-8.20281602286
-8.08344396129
-7.95867285484
-7.8285014512
-7.69294872614
-7.55205750165
-7.40590230289
-7.25458557911
-7.09823664695
-6.93700191599
-6.77101931689
-6.60039053079
-6.42521958903
-2.02891766126
-1.99782264213
-2.01304540255
-2.06471330149
-2.13877114463
-2.22697221025
-2.32237614442
-2.41964502523
-2.51555704472
-2.6085678296
-2.69820326734
-2.78459392907
-2.86815845584
-2.94940715175
-3.02883568497
-3.10687708043
-3.18388650205
-3.26014318739
-3.33586011062
-3.41119585194
-3.48626608075
-3.56115366631
-3.63591703419
-3.71059652877
-3.78522003998
-3.85980521723
-3.93436405298
-4.00890389174
-4.08342902682
-4.15794162605
-4.23244243937
-4.30693140541
-4.38140786709
-4.45587072365
-4.53031865572
-4.60475008874
-4.6791631599
-4.75355596603
-4.82792651337
-4.90227254474
-4.97659172137
-5.05088162891
-5.12513959458
-5.19936277427
-5.27354813252
-5.34769230167
-5.42179174057
-5.49584272642
-5.56984113423
-5.64378255044
-5.71766230463
-5.7914752494
-5.86521595117
-5.93887870692
-6.0124572481
-6.0859448574
-6.15933448531
-6.23261851244
-6.30578876728
-6.37883660924
-6.45175273666
-6.52452727231
-6.59714985916
-6.66960930983
-6.74189359896
-6.81399013774
-6.88588552025
-6.95756547184
-7.02901504212
-7.10021823876
-7.17115801018
-7.24181655059
-7.3121749122
-7.38221297763
-7.45190983883
-7.52124334373
-7.59018986073
-7.65872473604
-7.72682210291
-7.79445457765
-7.86159355739
-7.92820905323
-7.99426941997
-8.05974168581
-8.12459130132
-8.18878184693
-8.25227560284
-8.31503327404
-8.37701340947
-8.43817304075
-8.49846768912
-8.55785060516
-8.61627323052
-8.67368545306
-8.7300348515
-8.78526714752
-8.83932652247
-8.89215472482
-8.94369142873
-8.99387490178
-9.04264113573
-9.08992379758
-9.13565485627
-9.17976426133
-9.22217998827
-9.26282810838
-9.30163261155
-9.33851573763
-9.37339800108
-9.40619784447
-9.43683172589
-9.46521512019
-9.49126167059
-9.5148828066
-9.53598906046
-9.55449004405
-9.57029293182
-9.58330431932
-9.59343009736
-9.60057495272
-9.60464202188
-9.60553447007
-9.60315552769
-9.59740680445
-9.58819026448
-9.57540807671
-9.55896187693
-9.53875410782
-9.51468767874
-9.48666623539
-9.45459397285
-9.41837603501
-9.37792002239
-9.33313369135
-9.28392708624
-9.23021313885
-9.17190556207
-9.10892190442
-9.04118198027
-8.96860846398
-8.8911287672
-8.8086725159
-8.72117507396
-8.62857702448
-8.53082314345
-8.427866931
-8.31966877746
-8.20619854366
-8.08743816939
-7.96338357258
-7.83404785882
-7.69946572419
-7.55969469876
-7.41482435148
-7.26497566179
-7.11030158307
-6.95098962657
-6.7872581699
-6.61936051326
-6.44763714202
-2.02891734706
-1.99782257198
-2.0130456635
-2.06471315635
-2.1387710239
-2.22697230688
-2.32237618088
-2.41964500228
-2.51555708077
-2.60856786588
-2.69820328636
-2.7845939812
-2.86815851772
-2.94940721638
-3.02883576876
-3.10687716082
-3.18388656395
-3.26014324448
-3.33586017161
-3.41119591446
-3.48626615005
-3.56115373722
-3.63591710311
-3.710596622
-3.7852201621
-3.85980534388
-3.93436418921
-4.00890404026
-4.0834291781
-4.15794179811
-4.23244264227
-4.30693162481
-4.3814081136
-4.45587100393
-4.53031893351
-4.60475035866
-4.67916345605
-4.75355628212
-4.8279268425
-4.90227290591
-4.97659210268
-5.0508820349
-5.125140063
-5.19936330192
-5.27354869996
-5.34769291085
-5.42179237502
-5.49584338671
-5.56984185577
-5.643783316
-5.71766308302
-5.79147607957
-5.86521684567
-5.9388796439
-6.0124582439
-6.08594591994
-6.15933561442
-6.23261974036
-6.30579008924
-6.37883799368
-6.45175422043
-6.52452888738
-6.59715158438
-6.66961116018
-6.74189558571
-6.81399222939
-6.88588774472
-6.95756785802
-7.02901756885
-7.10022094474
-7.17116091135
-7.24181957573
-7.3121780753
-7.38221633793
-7.4519133817
-7.52124708444
-7.59019382719
-7.65872887733
-7.72682641039
-7.79445910707
-7.86159832642
-7.92821408979
-7.99427472095
-8.0597471779
-8.12459705077
-8.18878796172
-8.2522819844
-8.31503988854
-8.37702037733
-8.43818031954
-8.49847522339
-8.5578584841
-8.61628142472
-8.67369391754
-8.73004369274
-8.78527631984
-8.83933592129
-8.89216450135
-8.94370169036
-8.99388553471
-9.04265214967
-9.08993528209
-9.13566678008
-9.17977668719
-9.2221929508
-9.26284160595
-9.30164678477
-9.33853059259
-9.37341356807
-9.40621422972
-9.43684912723
-9.46523357427
-9.49128142419
-9.51490418269
-9.53601203217
-9.5545147952
-9.57032007793
-9.58333425608
-9.59346317629
-9.60061174056
-9.60468344352
-9.60558126478
-9.6032086484
-9.59746768498
-9.58826029759
-9.57548906803
-9.5590561027
-9.53886409981
-9.5148164088
-9.48681732574
-9.45477202931
-9.41858624213
-9.37816843127
-9.33342799809
-9.28427616782
-9.23062750823
-9.17239778459
-9.10950678266
-9.04187731136
-8.96943496366
-8.89211109425
-8.80984002707
-8.7225617783
-8.63022333079
-8.53277661514
-8.43018264733
-8.32241134233
-8.20944298034
-8.0912713313
-7.96790546791
-7.83937286524
-7.70572513506
-7.56703852013
-7.42342282416
-7.27502641192
-7.12203937661
-6.96470286335
-6.80331856296
-6.63826479359
-6.47004365516
-2.00966873697
-1.97810612456
-1.99775096094
-2.0551963943
-2.13420987313
-2.22598868713
-2.32360621545
-2.42199389703
-2.51827557313
-2.61120951377
-2.70054213906
-2.78654623303
-2.86972219829
-2.95062146625
-3.0297557933
-3.10756010735
-3.18438451885
-3.26050044439
-3.33611246284
-3.41137138614
-3.48638628656
-3.56123462373
-3.63597051538
-3.71063102922
-3.78524188587
-3.85981856992
-3.93437186967
-4.00890819768
-4.08343114993
-4.15794247606
-4.23244262063
-4.30693125253
-4.38140760156
-4.45587048321
-4.53031844077
-4.6047499097
-4.67916309454
-4.75355600559
-4.82792661782
-4.90227273503
-4.97659199508
-5.05088198309
-5.12514006881
-5.19936334107
-5.27354874094
-5.34769296742
-5.421792445
-5.49584345146
-5.56984192147
-5.64378336557
-5.71766309182
-5.79147608327
-5.86521686383
-5.93887964691
-6.01245823185
-6.0859459065
-6.15933559466
-6.23261972261
-6.30579005788
-6.37883791255
-6.45175412002
-6.52452880783
-6.59715149505
-6.66961104731
-6.74189545649
-6.81399206285
-6.88588756149
-6.95756768035
-7.02901735136
-7.10022068918
-7.17116063452
-7.24181921378
-7.31217763688
-7.38221589828
-7.45191289278
-7.52124648823
-7.59019316093
-7.65872813216
-7.72682555624
-7.7944581621
-7.86159726148
-7.9282128917
-7.99427344193
-8.059745775
-8.12459547147
-8.18878626584
-8.2522801486
-8.31503784093
-8.37701817203
-8.43817795549
-8.49847259213
-8.55785560892
-8.61627832033
-8.67369049225
-8.73004000022
-8.78527240611
-8.83933165428
-8.89215987935
-8.94369682126
-8.99388036584
-9.04264662559
-9.08992942827
-9.13566062325
-9.17977022664
-9.2221861608
-9.26283455057
-9.30163949614
-9.33852313872
-9.37340585894
-9.40620638351
-9.4368414641
-9.46522603213
-9.49127408755
-9.51489734212
-9.53600598379
-9.55450951583
-9.57031605136
-9.58333204111
-9.59346299884
-9.60061410923
-9.6046893342
-9.60559158601
-9.60322423781
-9.59748984765
-9.58829055703
-9.57552919033
-9.55910830759
-9.53893103789
-9.51490113286
-9.48692339875
-9.45490403848
-9.4187495324
-9.37836907515
-9.3336736779
-9.28457584477
-9.23099177158
-9.17283947598
-9.11004075298
-9.04252139918
-8.97021014792
-8.89304201547
-8.81095638621
-8.72389788413
-8.63181961121
-8.53468085402
-8.4324502175
-8.32510723171
-8.21264273168
-8.09506276305
-7.97239060845
-7.84466907672
-7.71196808345
-7.57438585442
-7.4320575623
-7.2851631278
-7.1339335383
-6.97866342254
-6.81972494569
-6.65758540656
-6.49284193799
-1.96743595284
-1.93638690641
-1.96631785409
-2.03608984124
-2.12525794947
-2.22413501943
-2.32601423089
-2.42648659486
-2.52341336109
-2.61615979001
-2.70489707541
-2.79016364293
-2.87260886608
-2.95285671428
-3.0314457265
-3.10881246673
-3.18529647558
-3.26115394886
-3.33657364131
-3.41169190728
-3.48660556695
-3.56138215088
-3.63606800218
-3.71069459578
-3.785281455
-3.85984250848
-3.93438568333
-4.00891557914
-4.08343455808
-4.15794352304
-4.23244236281
-4.3069303384
-4.38140640784
-4.45586924211
-4.53031726379