/*--------------------------------*- C++ -*----------------------------------*\
| =========                 |                                                 |
| \\      /  F ield         | OpenFOAM: The Open Source CFD Toolbox           |
|  \\    /   O peration     | Version:  2106                                  |
|   \\  /    A nd           | Website:  www.openfoam.com                      |
|    \\/     M anipulation  |                                                 |
\*---------------------------------------------------------------------------*/
FoamFile
{
    version     2.0;
    format      ascii;
    arch        "LSB;label=32;scalar=64";
    class       volScalarField;
    location    "0.315";
    object      p;
}
// * * * * * * * * * * * * * * * * * * * * * * * * * * * * * * * * * * * * * //

dimensions      [0 2 -2 0 0 0 0];

internalField   nonuniform List<scalar> 
11200
(
150.053005398
147.124403312
146.010551222
145.483218084
145.115885935
144.821104684
144.55945759
144.310915413
144.066392846
143.821320163
143.573000149
143.319678049
143.060121813
142.793395842
142.5187333
142.235460833
141.9429527
141.640602963
141.327812827
141.003994142
140.66852317
140.320750884
139.960018927
139.585659446
139.196986897
138.793300038
138.373882728
137.938004584
137.484921721
137.013877399
136.52410261
136.014816575
135.485226863
134.934529629
134.361910303
133.766544749
133.147599077
132.504229847
131.835584492
131.140801738
130.419011904
129.669337107
128.890891499
128.082781374
127.244105097
126.373952858
125.47140623
124.535537444
123.56540827
122.560068376
121.51855321
120.439881207
119.323050113
118.167032185
116.970768009
115.733158596
114.453055407
113.129247861
111.760447602
110.345268621
108.882202249
107.369585602
105.80556117
104.188028334
102.514577145
100.782402504
98.9881940526
97.1279918898
95.1969919371
93.1892795267
91.0974655341
88.9121902602
86.6212550509
84.2084733325
81.6517592192
78.9194526352
75.9639537035
72.7126859843
69.0119227196
64.2486365513
148.259963637
146.901789137
146.110816399
145.610800176
145.219809517
144.895924101
144.611399609
144.346793517
144.09130127
143.838774391
143.585385494
143.328620927
143.066743601
142.798477042
142.522820854
142.238940283
141.946097992
141.643611187
141.330821433
141.007066895
140.67169737
140.324037365
139.963443156
139.589246605
139.200751756
138.797251643
138.378027281
137.942346445
137.489463962
137.01862212
136.52905092
136.019968025
135.490579123
134.940084031
134.367670134
133.772513303
133.153779376
132.510624869
131.842197246
131.14763531
130.426069502
129.676622143
128.898407715
128.090532964
127.252096813
126.382190178
125.479895597
124.544286535
123.574426275
122.569366374
121.528144647
120.449782499
119.333281371
118.17761812
116.981739027
115.744552136
114.464917647
113.141635856
111.773431922
110.35893676
108.896663188
107.384975903
105.822051089
104.205825798
102.533932343
100.803630259
99.0117041059
97.1543166327
95.2268285335
93.2235551361
91.1374275827
88.9594895011
86.6781932044
84.2784027408
81.7397228296
79.0336451601
76.119371548
72.9390681289
69.3899460095
65.2771514391
147.26477332
146.610572483
146.058215519
145.620595923
145.248969779
144.926865249
144.637762117
144.367524466
144.107057223
143.850571451
143.594182098
143.335207413
143.071735318
142.802338849
142.52589697
142.241481118
141.948281699
141.64556014
141.33261816
141.008778919
140.673380354
140.325782879
139.965242474
139.591105491
139.202679884
138.799256118
138.38011289
137.944516892
137.491722658
137.020972714
136.531497929
136.02251819
135.493242615
134.942863848
134.370564184
133.775521876
133.156903915
132.513867337
131.845560454
131.151122882
130.429685905
129.680372788
128.902299131
128.094572979
127.256294821
126.38655749
125.484445874
124.54903628
123.579395459
122.574579249
121.533630761
120.455577873
119.339429944
118.184173507
116.98876664
115.752131812
114.473146929
113.150634144
111.783345598
110.369945436
108.908986546
107.398881985
105.837867767
104.22397522
102.554967032
100.828249422
99.0407808401
97.1889628853
95.2684816147
93.2740985818
91.1993642297
89.0362157681
86.7745583532
84.4014761983
81.9002484846
79.2490153989
76.4198038744
73.3809993763
70.0966252688
66.5436628015
146.715011978
146.351630203
145.951730965
145.582738651
145.245119451
144.937013893
144.651646815
144.380938502
144.118561527
143.859888855
143.60150241
143.340870617
143.076093627
142.805704188
142.528526266
142.243577375
141.950001215
141.647021602
141.333911425
141.009970793
140.674508794
140.326835265
139.966309007
139.592206888
139.203818234
138.800435365
138.381336724
137.945787777
137.493041943
137.022340733
136.53291383
136.023979323
135.494744591
134.944408004
134.372159498
133.777173622
133.158618354
132.51565146
131.847420255
131.153064809
130.431717208
129.682501748
128.90453548
128.096928302
127.258783035
126.389195428
125.487253939
124.55203924
123.582623429
122.578068839
121.537426413
120.459733595
119.344011463
118.18926087
116.994457509
115.758545723
114.48043048
113.158967222
111.792949063
110.381090442
108.922009907
107.414209521
105.856028437
104.24560736
102.580844936
100.859342579
99.0783250409
97.2345404
95.3241357883
93.3425015236
91.2840807044
89.1421439339
86.9084595927
84.5729858852
82.1236341369
79.5463065078
76.8262584853
73.9537837398
70.9324805667
67.799529166
146.380963865
146.149167949
145.847754378
145.536775468
145.231933441
144.939906886
144.660927493
144.391796965
144.128831646
143.86874136
143.60876567
143.346667149
143.080653284
142.80927503
142.531335724
142.245818409
141.951830448
141.64856264
141.3352597
141.011199066
140.675675893
140.327993877
139.967456694
139.593353782
139.20498802
138.801643096
138.382592216
137.947098439
137.494413843
137.023779368
136.534424778
136.025568834
135.496419428
134.946173295
134.37401662
133.779125775
133.160666264
132.517796097
131.84966587
131.155416087
130.434181334
129.685088246
128.907256309
128.099798213
127.261820048
126.392421438
125.490695459
124.555728388
123.58659908
122.582378043
121.542126787
120.464895427
119.349720419
118.195621356
117.001596727
115.766618143
114.489622952
113.169507624
111.805114552
110.395224273
108.938534077
107.433632017
105.878980981
104.272886324
102.613454483
100.898543599
99.1257062294
97.2921205671
95.3945073276
93.4290325139
91.391199519
89.2757437442
87.0765566989
84.786719827
82.3988125679
79.9058260182
77.3035641807
74.596469552
71.8059016039
68.9825561778
146.177571211
146.001668747
145.760472926
145.493145482
145.21595621
144.939314957
144.667621591
144.401115537
144.138345211
143.877330513
143.616036537
143.352596251
143.085384225
142.813009661
142.534279676
142.248156555
141.95371824
141.650125347
141.336595186
141.012382017
140.676762485
140.329024748
139.968459442
139.594356864
139.206006457
138.802687471
138.383670457
137.948216433
137.495575975
137.024988759
136.535683548
136.026878274
135.497780281
134.947586442
134.375483573
133.780649064
133.162251489
132.519450651
131.851397832
131.15723733
130.436104627
129.687127087
128.909426263
128.102117461
127.264310183
126.395108594
125.493611419
124.558911797
123.590097033
122.58624814
121.546438397
120.469732702
119.355185529
118.201838467
117.008717064
115.774827161
114.499150596
113.180634862
111.818189491
110.410664979
108.956845406
107.455438157
105.905059788
104.304194201
102.651174368
100.944150504
99.1810518297
97.3595448813
95.4769899381
93.5304014269
91.5164233269
89.431343935
87.2711969375
85.0320412147
82.7105920941
80.3054980769
77.8198269288
75.2657331929
72.6701645439
70.0802171182
146.054454296
145.898846313
145.69254359
145.455980089
145.200503027
144.937221173
144.672605003
144.40909281
144.146955329
143.885364721
143.62298698
143.358345648
143.090011002
142.816674519
142.537164013
142.250431871
141.955533148
141.651602036
141.337830574
141.013450914
140.677721286
140.329915318
139.969314224
139.595200485
139.206855232
138.803552731
138.384560681
137.949137925
137.496533517
137.025986257
136.536724509
136.027966201
135.498918942
134.948780351
134.376738438
133.781971493
133.163648518
132.520930109
131.852968441
131.158907057
130.437881354
129.689022517
128.911456538
128.104302965
127.266676114
126.397685458
125.496436098
124.562028973
123.593560858
122.590124166
121.550806331
120.474689617
119.360849706
118.208354006
117.016259271
115.783608253
114.509425488
113.192716118
111.832454647
110.427581007
108.976993966
107.479533492
105.93397044
104.338992338
102.693187428
100.995026524
99.2428454148
97.4348304686
95.5690121839
93.6432763648
91.6554087426
89.603203222
87.4846804461
85.2985080236
83.0447549858
80.7261789125
78.3503286879
75.9328030567
73.500477685
71.0927078503
145.980374543
145.830364133
145.643607768
145.427501274
145.187793687
144.93497048
144.676330885
144.415589635
144.154219271
143.892293404
143.629071217
143.363429347
143.094127324
142.819943903
142.53973553
142.252452312
141.957132742
141.652889523
141.33889317
141.01435658
140.678521853
140.330649715
139.970011269
139.595880955
139.207535017
138.804242741
138.385269079
137.94987083
137.497295677
137.0267816
136.537556568
136.02883847
135.499835102
134.949744319
134.37775428
133.783043759
133.164782592
132.522131828
131.854244624
131.160267445
130.439341834
129.690601135
128.91317207
128.106177699
127.268737045
126.399965431
125.498975056
124.564875427
123.596773722
122.593775129
121.554983091
120.479498601
119.366420048
118.2148425
117.023856707
115.792547761
114.519993093
113.205258873
111.847397612
110.445440564
108.998396481
107.505245791
105.96493409
104.376364581
102.738392882
101.049823585
99.309411253
97.5158701567
95.6678991099
93.764233281
91.8037402733
89.7855901226
87.7095371242
85.5763939294
83.3887741294
81.1522111755
78.8767414251
76.5789698165
74.2835764843
72.0225685668
145.938098154
145.78865025
145.61223408
145.40849502
145.17896117
144.93325123
144.678889189
144.420248187
144.159538187
143.897440192
143.633638358
143.367274883
143.097258263
142.822439822
142.541702758
142.253998831
141.958356002
141.653871774
141.339700875
141.015041821
140.679124541
140.331199886
139.970531235
139.596387979
139.208038919
138.804753335
138.385793097
137.950413257
137.497860492
137.027372218
136.53817616
136.029490212
135.500522381
134.950470889
134.378524459
133.783862692
133.165656516
132.52306875
131.855254944
131.161363699
130.440535323
129.69190677
128.914609811
128.107771898
127.270517105
126.401966959
125.501241233
124.567458681
123.599737777
122.597197332
121.558957035
120.484137981
119.371863049
118.22125708
117.031446972
115.801561395
114.53073023
113.21808494
111.862756732
110.463876718
109.020573521
107.531973471
105.997200761
104.415378663
102.785634077
101.107106642
99.378965748
97.600440305
95.7708674931
93.8897745582
91.9570066945
89.9729306776
87.938741657
85.8569313368
83.7319462593
81.5710818851
79.385588464
77.1918778584
75.0119945398
72.8721172972
145.918821745
145.768943701
145.596980215
145.399043977
145.174481551
144.932361
144.680223901
144.422712467
144.162382245
143.900217392
143.636122699
143.369382475
143.09898713
142.823829138
142.542807767
142.254876782
141.959059132
141.654444487
141.340179236
141.015454216
140.679492804
140.33154051
139.97085645
139.596706707
139.208358741
138.805079143
138.386128844
137.950762149
137.498225288
137.027755571
136.538580727
136.029918857
135.500978325
134.950957887
134.379047017
133.784426267
133.16626773
132.523735556
131.855986469
131.162170379
130.4414321
129.692910982
128.915742047
128.10905704
127.271985369
126.403655067
125.503193782
124.569729837
123.602393313
122.600317106
121.562638033
120.488497931
119.377044849
118.227434242
117.038830311
115.810407283
114.541350768
113.230858551
111.878143322
110.482435854
109.042984477
107.559062646
106.029973946
104.455060546
102.83371657
101.165407732
99.4497012608
97.6863106805
95.8751613881
94.0164910862
92.1109919669
90.1600331124
88.1659547089
86.1325105779
84.0654086102
81.9729939705
79.8669898902
77.7631510781
75.6811680029
73.6429648878
145.918824409
145.768959852
145.597007289
145.399080242
145.17452623
144.932413257
144.680282822
144.42277724
144.162452192
143.90029196
143.636201445
143.369465046
143.099073248
142.823918595
142.542900423
142.254972571
141.959158047
141.654546586
141.340284638
141.015563102
140.679605416
140.331657152
139.970977509
139.596832691
139.208490363
138.805217169
138.386274204
137.950915958
137.498388905
137.027930539
136.538769085
136.030123068
135.501201357
134.951203339
134.379319242
133.784730525
133.16661038
132.524124331
131.856430923
131.162682468
130.442025875
129.693603493
128.916554057
128.110013795
127.273117528
126.404999858
125.504796419
124.571645243
123.604688158
122.603072293
121.565951714
120.492489221
119.381858321
118.233245425
117.045852181
115.818898135
114.551623745
113.243293155
111.893200438
110.500676683
109.065087599
107.585851403
106.06244711
104.494428877
102.881446675
101.223273043
99.5198407186
97.7712992583
95.9780944939
94.1410768447
92.2616770937
90.3421942334
88.3857401864
86.3969388897
84.3823063065
82.3507442419
80.3140383336
78.2872066058
76.2881521254
74.3359678627
145.938106185
145.788699061
145.612315898
145.408604558
145.179096068
144.933408778
144.679066609
144.420443056
144.159748479
143.897664253
143.633874867
143.367522795
143.097516756
142.822708277
142.541980766
142.254286195
141.958652719
141.654178024
141.34001701
141.015368374
140.679462227
140.33154961
139.970894136
139.596765614
139.208433314
138.805166754
138.386228278
137.950873455
137.498349674
137.027895258
136.538739069
136.030100262
135.501188353
134.951203453
134.379336608
133.784770259
133.166678775
132.524229083
131.856581404
131.162890093
130.44230451
129.693969998
128.917028939
128.110621964
127.273889246
126.405971875
125.506013374
124.573161327
123.606569128
122.605397925
121.568818773
120.496015117
119.386185523
118.238546756
117.052337223
115.826821014
114.561292581
113.25508173
111.907560475
110.518151327
109.086342282
107.611686332
106.09382737
104.532517242
102.927641197
101.279255254
99.5876469097
97.8533994684
96.0774007911
94.2610272161
92.4062538551
90.5157663253
88.5935431066
86.6448408217
84.6766505078
82.698125792
80.7209397002
78.7594967147
76.8305141569
74.9514326242
145.980388083
145.830446681
145.643745944
145.427685908
145.188020642
144.935235071
144.676628389
144.415915966
144.154571028
143.892667828
143.629466125
143.363843024
143.09455843
142.820391441
142.540198844
142.252931095
141.957627012
141.653399592
141.339419618
141.014900272
140.679083982
140.331231806
139.97061516
139.596509305
139.208190774
138.804929746
138.385991848
137.950634743
137.498107279
137.027648933
136.538489471
136.029848838
135.500937297
134.950955731
134.379096046
133.784541659
133.166468089
132.524043621
131.85643013
131.162783954
130.44225683
129.693996964
128.91715024
128.110861549
127.274276216
126.406541599
125.506808813
124.574234627
123.60798356
122.607230224
121.571162044
120.498982294
119.389913559
118.243201658
117.058120096
115.833975326
114.570112943
113.265924887
111.920857592
110.53442405
109.106214823
107.63591773
106.123332757
104.568399866
102.97123339
101.332146282
99.6516922033
97.930731882
96.1705866958
94.373070386
92.5406376137
90.6765495336
88.7851149878
86.8719357497
84.9442303128
83.0111706711
81.0841973804
79.1772563557
77.3064800539
75.4887830909
146.054473657
145.898964672
145.692741143
145.456243192
145.20082545
144.937596043
144.673025515
144.409553151
144.147450712
143.885891286
143.623541694
143.358926155
143.090615491
142.817301655
142.537812925
142.251102154
141.956224835
141.652315546
141.338566664
141.014210714
140.67850639
140.33072788
139.970156938
139.596076808
139.207769246
138.804509587
138.385566561
137.950200228
137.49766125
137.027190463
136.53801869
136.029366747
135.500445696
134.950457217
134.378594052
133.784040541
133.165973259
132.52356181
131.855969652
131.162355009
130.44187187
129.693671141
128.916901986
128.11071326
127.274255119
126.406680788
125.507148478
124.574823563
123.608880982
122.608507988
121.572907298
120.501300734
119.392933312
118.2470779
117.063040731
115.840167688
114.577851955
113.275543025
111.932757182
110.549089302
109.124230273
107.657984458
106.150290795
104.60124912
103.011151017
101.3805365
99.7102398999
98.0014440434
96.2557603352
94.4753307039
92.6629534791
90.8222283188
88.9577366786
87.0752523929
85.1820045819
83.2869765312
81.4012473018
79.5383859155
77.7144029139
75.9467074901
146.177596992
146.001826542
145.760734983
145.493492794
145.21637998
144.939805799
144.668170458
144.401714849
144.138988798
143.878013446
143.616754966
143.353347225
143.086165516
142.81381966
142.535117339
142.249021387
141.954610239
141.651044919
141.337543073
141.013359296
140.677770549
140.330065612
139.969537653
139.595478331
139.207175818
138.803910504
138.384954562
137.949570635
137.497011306
137.026518834
136.537325115
136.028651858
135.499710943
134.949704837
134.377827095
133.783262892
133.165189735
132.52277835
131.855193568
131.161595307
130.441139657
129.692980069
128.916268762
128.110158259
127.273803134
126.406361896
125.506999189
124.574888202
123.609213343
122.609173278
121.573984611
120.502885895
119.395142351
118.250051243
117.06694812
115.845214413
114.584286211
113.283664383
111.942926755
110.561742766
109.139890359
107.67727665
106.173963138
104.63019626
103.046442534
101.423430402
99.7622029948
98.0641818165
96.331241637
94.5657954825
92.7708983772
90.9503674136
89.108926312
87.2523653479
85.3877456062
83.5236599528
81.6706222363
79.8417129241
78.0529628011
76.3230454329
146.380996694
146.149369974
145.848087366
145.537213962
145.232465387
144.940519961
144.66161025
144.392540046
144.129627564
143.869584197
143.609650848
143.347591211
143.081613705
142.810270074
142.532364369
142.2468803
141.952925805
141.649692079
141.336424032
141.012399356
140.676913746
140.329270523
139.968774255
139.594725692
139.206418254
138.803137408
138.384158781
137.948747518
137.496158009
137.02563382
136.536407844
136.027702614
135.498730749
134.948695452
134.376791039
133.78220357
133.164111549
132.521686799
131.854095363
131.16049847
130.440053781
129.69191679
128.915242303
128.109186041
127.272906441
126.405566745
125.506337339
124.574398275
123.608942247
122.609177993
121.574334264
120.503664351
119.396451211
118.252013506
117.069712626
115.848961098
114.58923138
113.290068439
111.951103247
110.572068451
109.152817419
107.693346751
106.1938227
104.654612843
103.076323542
101.459844366
99.8063985779
98.117602599
96.395535144
94.6428140878
92.862681233
91.0590939758
89.2368266517
87.4015759924
85.5600932903
83.7203720516
81.8920333347
80.0872314189
78.3214818472
76.6146395956
146.71505185
146.351880093
145.952137369
145.583268691
145.245757124
144.937743461
144.652454326
144.381812873
144.119494038
143.860872703
143.602532399
143.341942898
143.077205506
142.806853996
142.529713319
142.24480201
141.951264821
141.64832657
141.335260684
141.011368202
140.675963492
140.328362994
139.96788267
139.59382985
139.205504349
138.802195931
138.383183351
137.947734049
137.49510396
137.0245377
136.535268971
136.026520961
135.497506782
134.947430047
134.375485493
133.780859789
133.162732369
132.520276055
131.852658063
131.159041257
130.438585338
129.690447398
128.913784387
128.107754622
127.27151966
126.404246576
125.505110376
124.573296804
123.608005489
122.608453531
121.573879551
120.503548781
119.396758643
118.252845242
117.071191007
115.851233843
114.592478206
113.294506312
111.956992917
110.579722875
109.162611434
107.705727817
106.209323135
104.673863343
103.100067609
101.488952626
99.8418831542
98.1606289776
96.4474277852
94.7050518662
92.9368771311
91.1469500025
89.3400466545
87.5217184417
85.6983293854
83.8770962494
82.0663213115
80.2763855217
78.5205040813
76.8173291563
147.264825058
146.610884391
146.05870535
145.621222822
145.249714065
144.927707899
144.638686949
144.368518914
144.108111488
143.851677888
143.595334817
143.336401937
143.072968312
142.803607913
142.527200533
142.242818478
141.949653391
141.646968832
141.334068941
141.010278322
140.674928891
140.327350401
139.966863927
139.592789271
139.204431001
138.801082134
138.382023993
137.94652587
137.493845186
137.023227548
136.533907376
136.02510847
135.496044538
134.945919741
134.373929296
133.77926
133.161090415
132.518594638
131.850940792
131.157292316
130.43680948
129.688651557
128.911977391
128.105947394
127.269725706
126.402482487
125.503396497
124.571657824
123.606471292
122.607060406
121.572671881
120.50258052
119.396095177
118.252565718
117.071391161
115.852028861
114.594005343
113.296931043
111.960514291
110.584579687
109.169089375
107.714167829
106.220131029
104.687520264
103.117141062
101.510107104
99.8678899356
98.1923731623
96.4859101979
94.7513868938
92.9922766832
91.2126896963
89.4173986582
87.6118323117
85.8020076478
83.9943124971
82.1954074384
80.4128513027
78.6537572291
76.9268186441
148.260062701
146.90224638
146.111498627
145.611654567
145.220812955
144.897055768
144.612642481
144.348134497
144.092730155
143.840283171
143.586967868
143.330271871
143.068458941
142.800253037
142.524653778
142.24082601
141.948031476
141.64558569
141.332831467
141.009120192
140.673792389
140.3261986
139.965686912
139.591573966
139.203168089
138.799765688
138.380649738
137.945088519
137.492341141
137.021654723
136.53226428
136.02339396
135.494257758
134.944060107
134.371996581
133.777254893
133.159016457
132.516454347
131.84873677
131.155028098
130.434489751
129.686281508
128.909563223
128.1034967
127.267247818
126.399988828
125.500900953
124.569177397
123.604026809
122.604677159
121.570380346
120.500417451
119.394105009
118.250802188
117.069919246
115.850927288
114.593370224
113.296876851
111.961178361
110.586126701
109.171716175
107.718108917
106.225664496
104.694974106
103.126899761
101.522618634
99.8836721649
98.2120180247
96.5100830262
94.7808416596
93.0278415546
91.2552511284
89.4678751349
87.6711308594
85.8709152938
84.0730949415
82.2831994267
80.5059912317
78.7362723479
76.9445314831
150.05317122
147.125072951
146.011543983
145.484471811
145.117370405
144.822795238
144.561335622
144.31296734
144.068608767
143.823693055
143.575525344
143.322352913
143.062945624
142.796369829
142.521860717
142.238746984
141.946404836
141.644229678
141.331618992
141.007965342
140.672663414
140.325073416
139.964526449
139.590357295
139.201883819
138.798406856
138.379212647
137.94357628
137.490755495
137.019995895
136.53053253
136.021589724
135.492381538
134.942112427
134.369977964
133.775165595
133.15685557
132.514221958
131.846433646
131.152655349
130.432048848
129.683774537
128.906992973
128.100866808
127.264562838
126.397254448
125.498124177
124.566366821
123.601192903
122.601832652
121.5675408
120.497601784
119.391336172
118.248107969
117.067333013
115.848488945
114.591127203
113.29488676
111.95951052
110.584864056
109.170957841
107.717973194
106.226292163
104.696532464
103.129586744
101.526667285
99.8893555042
98.219658769
96.5200738089
94.7936064962
93.0438618049
91.2750767671
89.4921405617
87.7005719085
85.9064169912
84.1161729558
82.3362609656
80.5714654983
78.8013287791
76.9013829443
56.8545139347
53.3024128414
50.9109765187
48.9535810261
47.2815914476
45.8248425987
44.53935169
43.395408605
42.3713323723
41.4503649544
40.6190874727
39.8664805112
39.1833297358
38.5618246805
37.9952774175
37.4779125859
37.0047102962
36.5712820449
36.1737727469
35.8087809281
35.4732949664
35.1646383939
34.8804254496
34.6185229502
34.3770182114
34.1541910461
33.9484904559
33.7585144182
33.5829928361
33.4207724667
33.2708037338
33.1321296442
33.003875831
32.8852416807
32.7754926613
32.6739531101
32.5799994045
32.4930534871
32.4125766075
32.3380615263
32.2690255493
32.2050511269
32.1459567947
32.0915424643
32.0413064877
31.9948088747
31.9517391611
31.9118497304
31.8749066778
31.840688886
31.8089914826
31.7796362574
31.7524570226
31.7272656739
31.7039027414
31.6822276719
31.6621099028
31.6434113905
31.6260127658
31.6098057132
31.5946896179
31.5805717513
31.5673676935
31.5549992817
31.5433943265
31.5324854796
31.5222116103
31.5125172867
31.503349436
31.4946595943
31.4864035336
31.478539952
31.4710326633
31.4638484771
31.4569558925
31.4503265113
31.4439334575
31.4377524738
31.4317629625
31.4259452031
31.4202816053
31.4147552686
31.4093510909
31.4040549919
31.3988551427
31.3937397798
31.3886989983
31.3837232045
31.3788026275
31.373929768
31.369097695
31.3643000705
31.3595308578
31.3547836335
31.3500520145
31.3453373595
31.3406494784
31.3359689551
31.3312941439
31.326622041
31.3219536834
31.3173155211
31.3126696696
31.3080064691
31.3033241243
31.2986182068
31.2938857105
31.2891255838
31.284332817
31.279506041
31.2746438644
31.269742448
31.2648013747
31.259817589
31.2547901459
31.2497175098
31.2445979667
31.2394308826
31.2342133104
31.2289423183
31.2236041136
31.2181687343
31.2125906286
31.2069660021
31.2018329316
31.1969312193
31.1917668896
31.1865466118
31.1813409936
31.1762039733
31.1711743495
31.1663018895
31.1616395255
31.1572443873
31.1531805509
31.1495105059
31.1462971797
31.1435983793
31.141451363
31.1398401572
31.1390478189
31.1387564832
31.1389156934
31.1390180478
31.137490745
31.1301532757
31.1070396457
31.0464060722
30.9069630001
30.6180826284
30.0744600269
29.1431044863
27.6909998602
25.6249572664
22.9187236647
19.6285038492
15.8733476782
11.6224232576
6.6006556406
1.56966431336
60.035877211
55.9830588272
53.2710834142
51.1187571764
49.3168693847
47.7670170906
46.4109868008
45.2115394091
44.1424916728
43.1841981872
42.321307707
41.5414616336
40.8344941066
40.1919038247
39.6064926851
39.0721029177
38.5834240704
38.1358435563
37.7253309792
37.3483462588
37.0017660389
36.6828227265
36.3890546907
36.1182656706
35.8684882616
35.6379550786
35.4250739956
35.2284058034
35.046647781
34.8786169998
34.7232364426
34.5795250474
34.4465855745
34.3235970674
34.2098075314
34.1045255927
34.0071160597
33.9169943474
33.83362331
33.7565121938
33.6852145671
33.6193064121
33.5583053751
33.5018261249
33.4495374777
33.4011722866
33.3564463954
33.3150813807
33.276817607
33.2414160057
33.2086521578
33.1783151202
33.150211278
33.1241652489
33.1000159012
33.0776053458
33.0567890376
33.0374484805
33.0194624298
33.0027206786
32.9871210165
32.9725704445
32.9589759328
32.9462534288
32.9343273776
32.9231279732
32.9125908239
32.9026584938
32.893275852
32.884391178
32.8759599951
32.8679381405
32.8602880924
32.8529759364
32.8459673535
32.8392340307
32.8327468342
32.8264820741
32.8204161645
32.8145309986
32.8088061179
32.8032242994
32.7977709199
32.7924292366
32.7871892124
32.7820366225
32.7769627607
32.7719579428
32.7670179879
32.7621279637
32.7572833461
32.7524736761
32.7476976213
32.7429424428
32.7382110276
32.7334898617
32.7287631781
32.7240353232
32.7193055201
32.7145723851
32.7098284599
32.7050691334
32.7002905514
32.6954939816
32.6906804221
32.6858460649
32.6809888231
32.6761081967
32.6711981559
32.6662577733
32.6612880209
32.6562818833
32.6512420621
32.6461610507
32.6410415303
32.6358822992
32.6306840586
32.6254454539
32.620167964
32.6148528904
32.6095065835
32.6041417288
32.5987721251
32.5933802134
32.5880100733
32.5823228342
32.5768547763
32.5715531147
32.5662542134
32.5610648633
32.5560122552
32.5511571038
32.5465519967
32.5422704498
32.538379784
32.5349580634
32.5320771426
32.5298105031
32.5282157653
32.5273590568
32.5272873318
32.527888027
32.5289485142
32.5297343602
32.5281562363
32.5190425092
32.4904854971
32.4174837071
32.2538329847
31.9226251352
31.3124800006
30.2874014251
28.7174257264
26.5191284847
23.6781352727
20.2551858861
16.3673296264
11.9989618947
6.88882262198
1.70288393206
62.2433141068
58.3098685795
55.4427335047
53.158844448
51.256949782
49.6305769
48.2146921326
46.9672743911
45.8588924239
44.8676721868
43.976705469
43.1725251067
42.4441644377
41.7825345763
41.1800016157
40.6300808134
40.1272135638
39.666596057
39.2440496668
38.8559171021
38.4989811637
38.1703980252
37.8676429782
37.5884663694
37.3308554538
37.0930033369
36.873282895
36.6702241291
36.4824960898
36.3088902634
36.1483063694
35.9997415921
35.8622791623
35.7350794326
35.6173729502
35.508452349
35.4076663636
35.3144145185
35.2281419968
35.148336013
35.0745226406
35.0062744224
34.9431860452
34.8846318868
34.8304415091
34.7803536772
34.7340421619
34.6912118786
34.6515942799
34.6149428761
34.5810286944
34.5496399656
34.5205815216
34.4936679331
34.4687308602
34.4456097343
34.4241478615
34.404218301
34.3856958905
34.3684655874
34.3524177461
34.3374473762
34.3234684732
34.3103962827
34.2981526285
34.2866658435
34.2758683491
34.2657003386
34.2561043013
34.2470267026
34.2384217737
34.2302432049
34.2224514986
34.215012255
34.2078884388
34.2010514843
34.1944711179
34.1881224252
34.1819819077
34.1760290623
34.1702431159
34.1646062703
34.1591034553
34.1537171835
34.1484364932
34.1432457045
34.1381372541
34.1330981449
34.1281145868
34.1231828278
34.1182971262
34.1134468639
34.1086265307
34.1038258635
34.0990340503
34.0942505562
34.0894809844
34.0847166001
34.0799557679
34.0751932887
34.0704247216
34.0656497903
34.0608589436
34.0560501343
34.0512194929
34.046365138
34.0414831817
34.03657275
34.0316314478
34.0266533672
34.0216417701
34.0165917898
34.0115028434
34.0063709033
34.0011973176
33.9959794979
33.9907201658
33.9854167719
33.9800734545
33.9746894075
33.969270774
33.963825163
33.9583599569
33.9528592744
33.9473675295
33.9419092091
33.936484294
33.9311793768
33.9255943973
33.9202742456
33.9151669388
33.9103068192
33.9057366803
33.9015365165
33.8977820867
33.8945651249
33.8919827382
33.8901040161
33.8889743498
33.888683969
33.8892625885
33.8905877439
33.8923255375
33.8934818825
33.8914042934
33.8798662013
33.8450024493
33.758542386
33.5695733186
33.1953944274
32.5193842109
31.4034989725
29.7212787128
27.3983622885
24.430491268
20.8811253535
16.8639911208
12.3779451667
7.17652813082
1.83386442031
64.0474981271
60.3227920299
57.4188312899
55.0637055011
53.0936977466
51.4094712346
49.9458609641
48.6589787638
47.5175674127
46.4982879646
45.5831155396
44.7577467463
44.0105917465
43.3320967365
42.714279321
42.1503921184