/*--------------------------------*- C++ -*----------------------------------*\
| =========                 |                                                 |
| \\      /  F ield         | OpenFOAM: The Open Source CFD Toolbox           |
|  \\    /   O peration     | Version:  2106                                  |
|   \\  /    A nd           | Website:  www.openfoam.com                      |
|    \\/     M anipulation  |                                                 |
\*---------------------------------------------------------------------------*/
FoamFile
{
    version     2.0;
    format      ascii;
    arch        "LSB;label=32;scalar=64";
    class       surfaceScalarField;
    location    "0.315";
    object      phi;
}
// * * * * * * * * * * * * * * * * * * * * * * * * * * * * * * * * * * * * * //

dimensions      [0 3 -1 0 0 0 0];

oriented        oriented;

internalField   nonuniform List<scalar> 
22100
(
3.38461203876e-05
1.61538796237e-05
2.24572100579e-05
1.13889104437e-05
1.62585532602e-05
6.19865687511e-06
1.2797776323e-05
3.46077697301e-06
1.08046424829e-05
1.9931338551e-06
9.60458950011e-06
1.20005298808e-06
8.85132178278e-06
7.53267708413e-07
8.36435301496e-06
4.86968749028e-07
8.04433518181e-06
3.20017799783e-07
7.83284044225e-06
2.11494701528e-07
7.69339735392e-06
1.39443073472e-07
7.60224056403e-06
9.11568193666e-08
7.54347788588e-06
5.87627549303e-08
7.50634105222e-06
3.71369346945e-08
7.4835015737e-06
2.28395615139e-08
7.46998072229e-06
1.35208809226e-08
7.46241603277e-06
7.56466743194e-09
7.4585479219e-06
3.86806460048e-09
7.45682886641e-06
1.71901593064e-09
7.45642216247e-06
4.06683228701e-10
7.45677192975e-06
-3.49763935511e-10
7.45745807352e-06
-6.86110578504e-10
7.45821639763e-06
-7.58266719301e-10
7.45894168759e-06
-7.25227514083e-10
7.45958598323e-06
-6.44246707026e-10
7.46012991102e-06
-5.43894938791e-10
7.46057204107e-06
-4.42096322036e-10
7.46092083414e-06
-3.48735625632e-10
7.46118918215e-06
-2.68270912757e-10
7.46139114744e-06
-2.01900792568e-10
7.46154009351e-06
-1.48926477127e-10
7.46164774185e-06
-1.07670960599e-10
7.46172384144e-06
-7.61369702264e-11
7.4617765287e-06
-5.27311637694e-11
7.46180976102e-06
-3.32685778109e-11
7.46182854545e-06
-1.87843508523e-11
7.46183764138e-06
-9.05129495137e-12
7.46184045476e-06
-2.74933457666e-12
7.46183889823e-06
1.58641739637e-12
7.4618341099e-06
4.75137981477e-12
7.46182706379e-06
6.97797485932e-12
7.46181839002e-06
8.6203522647e-12
7.46180845554e-06
9.90358066619e-12
7.46179743667e-06
1.10068829271e-11
7.46178533656e-06
1.21041220356e-11
7.461772022e-06
1.33412759567e-11
7.46175724484e-06
1.48057794229e-11
7.4617406642e-06
1.65592871722e-11
7.46172188613e-06
1.87063888779e-11
7.46170041483e-06
2.13958410166e-11
7.46167566452e-06
2.47246973503e-11
7.46164691014e-06
2.8770724067e-11
7.46161332003e-06
3.36039938437e-11
7.46157401677e-06
3.9268850418e-11
7.46152814192e-06
4.57740150339e-11
7.46147490063e-06
5.3098358784e-11
7.4614136624e-06
6.11109691599e-11
7.46134430707e-06
6.92583921126e-11
7.46126751733e-06
7.67150234954e-11
7.4611857185e-06
8.1711163723e-11
7.46110519494e-06
8.03951053316e-11
7.46103815443e-06
6.69715039712e-11
7.46099219803e-06
4.58630956864e-11
7.46098656252e-06
5.42441246723e-12
7.4610571954e-06
-7.09354716813e-11
7.46126237057e-06
-2.05531323733e-10
7.46169657036e-06
-4.3454286043e-10
7.46250984356e-06
-8.13580166523e-10
7.46393738589e-06
-1.42786908738e-09
7.46633467435e-06
-2.39760479973e-09
7.47015122085e-06
-3.81678053379e-09
7.47659767119e-06
-6.44652749976e-09
7.48736601984e-06
-1.07683889702e-08
7.50553844703e-06
-1.81724729406e-08
7.53872209277e-06
-3.31835816102e-08
7.60793732317e-06
-6.92151299587e-08
7.77460659781e-06
-1.66669058091e-07
8.22954551505e-06
-4.54938615495e-07
9.6972768582e-06
-1.46773120557e-06
-5.45186185217e-06
1.51491390467e-05
5.02175949055e-05
1.5936284823e-05
4.42441117641e-05
1.73623937052e-05
3.777950169e-05
1.26632670147e-05
3.26461442211e-05
8.59413445898e-06
2.89380921097e-05
5.70118596582e-06
2.63596217233e-05
3.77852336874e-06
2.45875173204e-05
2.52537207832e-06
2.33734752753e-05
1.7010107483e-06
2.25435262493e-05
1.14996678746e-06
2.19782176134e-05
7.76803340834e-07
2.1595515174e-05
5.22145578112e-07
2.1338738738e-05
3.4793337988e-07
2.1168497363e-05
2.29004277838e-07
2.10573398833e-05
1.48294524403e-07
2.0986152057e-05
9.40274178584e-08
2.09416797272e-05
5.79931652005e-08
2.09147979495e-05
3.44463703801e-08
2.08992988975e-05
1.93670579741e-08
2.08910751855e-05
9.94270404273e-09
2.08872749806e-05
4.20690427487e-09
2.0886206018e-05
7.19258589653e-10
2.08864518079e-05
-9.31806229054e-10
2.08873232942e-05
-1.62965370772e-09
2.08884628247e-05
-1.86467933307e-09
2.08896361721e-05
-1.81753640208e-09
2.0890719189e-05
-1.62684734974e-09
2.08916568356e-05
-1.37964307306e-09
2.08924344307e-05
-1.12621198313e-09
2.08930597101e-05
-8.93462180207e-10
2.08935518667e-05
-6.94039573529e-10
2.08939356763e-05
-5.32781901126e-10
2.08942371576e-05
-4.09221467999e-10
2.0894448071e-05
-2.87119658881e-10
2.0894595085e-05
-1.99786074836e-10
2.08946954338e-05
-1.33612806294e-10
2.08947608251e-05
-8.41136710198e-11
2.089480141e-05
-4.95574459533e-11
2.08948253096e-05
-2.66289041716e-11
2.08948373137e-05
-1.04867197534e-11
2.08948403874e-05
1.57347624258e-12
2.08948369862e-05
1.02997148287e-11
2.08948287787e-05
1.67704985367e-11
2.08948169002e-05
2.17339506459e-11
2.08948020809e-05
2.58092218025e-11
2.08947846964e-05
2.95168978949e-11
2.08947648529e-05
3.32075092569e-11
2.08947424966e-05
3.71163351074e-11
2.0894717495e-05
4.14381454793e-11
2.08946896925e-05
4.63788621612e-11
2.08946588728e-05
5.2158116891e-11
2.08946248206e-05
5.87787565194e-11
2.0894587349e-05
6.62343188671e-11
2.08945464221e-05
7.44407136455e-11
2.08945023361e-05
8.31668789066e-11
2.08944559713e-05
9.19036683317e-11
2.08944091535e-05
9.96914475131e-11
2.08943652144e-05
1.04875034806e-10
2.08943301091e-05
1.04223390928e-10
2.08943132911e-05
9.34036122281e-11
2.0894330025e-05
6.48134422704e-11
2.08944071826e-05
2.98581987867e-12
2.08945935553e-05
-1.19691153849e-10
2.08949574733e-05
-3.18475040599e-10
2.08956175523e-05
-6.55152346166e-10
2.08966817927e-05
-1.13570706589e-09
2.08983270734e-05
-1.85137009138e-09
2.09009111553e-05
-3.01924493517e-09
2.09049819152e-05
-4.88492220411e-09
2.09114084973e-05
-7.85491248358e-09
2.09216145386e-05
-1.26039473769e-08
2.09380900911e-05
-2.02925071758e-08
2.09649810033e-05
-3.3337652058e-08
2.10092268379e-05
-5.50143551404e-08
2.1084001079e-05
-9.29465359101e-08
2.12152307377e-05
-1.64412991659e-07
2.14558261389e-05
-3.09810113239e-07
2.19136490669e-05
-6.24491522263e-07
2.28006274941e-05
-1.34191706343e-06
2.44446113248e-05
-3.11171485578e-06
-7.03848850511e-06
2.60312405565e-05
5.35171053874e-05
1.24191795098e-05
5.2934968441e-05
1.79445307057e-05
4.96538402815e-05
1.59443951965e-05
4.58401816157e-05
1.24077931217e-05
4.2440092607e-05
9.10127496645e-06
3.97291726491e-05
6.48944331533e-06
3.76873061726e-05
4.56723853014e-06
3.61976633544e-05
3.19065355151e-06
3.51326127378e-05
2.21501740807e-06
3.43823677223e-05
1.52704839562e-06
3.38606268049e-05
1.04388657791e-06
3.35023466568e-05
7.06213643544e-07
3.32596018525e-05
4.71749190885e-07
3.30975916216e-05
3.10304816649e-07
3.29913355825e-05
2.00283451403e-07
3.29230937129e-05
1.26234987466e-07
3.28804057614e-05
7.71342715875e-08
3.2854620625e-05
4.51521678422e-08
3.28397935312e-05
2.47698035725e-08
3.28318670325e-05
1.21334401343e-08
3.28279975957e-05
4.58875828204e-09
3.28269989619e-05
6.69012717985e-11
3.28271797446e-05
-1.81036977736e-09
3.2828028151e-05
-2.71303218089e-09
3.2829143909e-05
-2.93324016084e-09
3.28302911507e-05
-2.77400887666e-09
3.28313471309e-05
-2.43551396482e-09
3.28322575225e-05
-2.03649760135e-09
3.28330074445e-05
-1.64332792579e-09
3.28336029715e-05
-1.2895714907e-09
3.28340590653e-05
-9.88914718333e-10
3.28343938467e-05
-7.440519971e-10
3.2834660003e-05
-5.53314728094e-10
3.28348761382e-05
-4.15932934034e-10
3.28350231462e-05
-2.80592945454e-10
3.28351221965e-05
-1.83108707296e-10
3.28351878906e-05
-1.1521273387e-10
3.28352296126e-05
-6.83707628033e-11
3.28352542344e-05
-3.517588776e-11
3.28352657503e-05
-1.00157638257e-11
3.28352677411e-05
8.24914861759e-12
3.28352627e-05
2.17534451617e-11
3.28352524554e-05
3.19328314515e-11
3.28352382532e-05
4.00028701519e-11
3.2835220843e-05
4.69527364601e-11
3.28352006489e-05
5.34075368196e-11
3.28351779381e-05
5.97767374761e-11
3.28351529269e-05
6.63579771071e-11
3.28351257834e-05
7.34455860222e-11
3.28350965389e-05
8.1366142766e-11
3.28350654906e-05
8.9813840158e-11
3.2835033202e-05
9.84971872504e-11
3.28350006729e-05
1.06900864681e-10
3.28349696708e-05
1.14052962222e-10
3.28349432173e-05
1.18218904545e-10
3.28349260315e-05
1.16733744888e-10
3.28349251088e-05
1.05668712664e-10
3.28349519241e-05
7.72716686475e-11
3.28350237504e-05
2.1389317109e-11
3.2835170397e-05
-8.19754419367e-11
3.28354432219e-05
-2.7001169482e-10
3.28359311775e-05
-6.07975461001e-10
3.28366479955e-05
-1.03570692306e-09
3.2837689398e-05
-1.69699146219e-09
3.28393137506e-05
-2.7605022996e-09
3.28418966041e-05
-4.43468057767e-09
3.28459418638e-05
-7.06495175326e-09
3.28522638079e-05
-1.12073287431e-08
3.2862175282e-05
-1.7766765967e-08
3.28778404035e-05
-2.82693423562e-08
3.29029191098e-05
-4.53715194065e-08
3.29427616996e-05
-7.31805589151e-08
3.30071964993e-05
-1.19449208153e-07
3.31132037229e-05
-1.98953652851e-07
3.32897931034e-05
-3.41002176847e-07
3.35851641064e-05
-6.05180645359e-07
3.40703903806e-05
-1.10971741305e-06
3.48116014577e-05
-2.08312816374e-06
3.56725933104e-05
-3.97270854337e-06
-7.10689156822e-06
3.57409920821e-05
5.35105665143e-05
8.90861303802e-06
5.55742223215e-05
1.58808748941e-05
5.52424826387e-05
1.62761348717e-05
5.35977861099e-05
1.4052489622e-05
5.15418478808e-05
1.11572131746e-05
4.95802801583e-05
8.45101103331e-06
4.79243511885e-05
6.22316751337e-06
4.66181393764e-05
4.4968653986e-06
4.56304666453e-05
3.20269019332e-06
4.49051177805e-05
2.25239733317e-06
4.43840906934e-05
1.56491375697e-06
4.40166946589e-05
1.07360977579e-06
4.3761968271e-05
7.26475647312e-07
4.35882697418e-05
4.84003359566e-07
4.34718704339e-05
3.16682727031e-07
4.33953604084e-05
2.0274497135e-07
4.33461901852e-05
1.26304472671e-07
4.33154526399e-05
7.58897213672e-08
4.32969163468e-05
4.33061282703e-08
4.32862903562e-05
2.27594771406e-08
4.32806875966e-05
1.01915716754e-08
4.32778800073e-05
2.8745406872e-09
4.32770522771e-05
-9.82596228256e-10
4.32772702452e-05
-2.93095554848e-09
4.32779578746e-05
-3.62080327984e-09
4.3278821043e-05
-3.63708268814e-09
4.32796939694e-05
-3.30833419322e-09
4.32804915106e-05
-2.83395749073e-09
4.32811772946e-05
-2.32907818318e-09
4.32817431088e-05
-1.85538925326e-09
4.32821958044e-05
-1.44162678964e-09
4.32825480847e-05
-1.09634659187e-09
4.32828097096e-05
-8.14944509409e-10
4.32829849591e-05
-5.91184638952e-10
4.32831178997e-05
-4.13520243451e-10
4.32832031989e-05
-2.68385407853e-10
4.32832571624e-05
-1.69173573914e-10
4.32832969216e-05
-1.08162043174e-10
4.32833212739e-05
-5.9591379259e-11
4.32833332459e-05
-2.20535015868e-11
4.32833362632e-05
5.16610891151e-12
4.32833322887e-05
2.56722224238e-11
4.32833230337e-05
4.11694481848e-11
4.32833096823e-05
5.33868878766e-11
4.32832928679e-05
6.38115804572e-11
4.32832729854e-05
7.32838193325e-11
4.32832503604e-05
8.23328527076e-11
4.32832253227e-05
9.13110590454e-11
4.3283198276e-05
1.0044325376e-10
4.32831698129e-05
1.09827788788e-10
4.32831405556e-05
1.19093035478e-10
4.32831114457e-05
1.27616047492e-10
4.32830839327e-05
1.34384424823e-10
4.32830601187e-05
1.37793209143e-10
4.32830429489e-05
1.35270556107e-10
4.32830369093e-05
1.22652020579e-10
4.32830499746e-05
9.24754020628e-11
4.32830941444e-05
3.29209708814e-11
4.3283188645e-05
-7.33450199072e-11
4.32833502425e-05
-2.43817601557e-10
4.32835913156e-05
-5.11329156674e-10
4.32840345218e-05
-1.05152044615e-09
4.3284805802e-05
-1.80733761977e-09
4.32860590713e-05
-2.9507021648e-09
4.32880020227e-05
-4.70391507938e-09
4.32909845784e-05
-7.41758541382e-09
4.32955662086e-05
-1.16469167133e-08
4.33026253912e-05
-1.82668614512e-08
4.33135440448e-05
-2.86858241916e-08
4.33304797495e-05
-4.5205495803e-08
4.33567410925e-05
-7.16333029068e-08
4.33978974588e-05
-1.14337100263e-07
4.34627979853e-05
-1.84349715095e-07
4.35651628628e-05
-3.01318490242e-07
4.37249396259e-05
-5.0077882772e-07
4.39667119634e-05
-8.4695310499e-07
4.43071247407e-05
-1.45013004511e-06
4.47074441988e-05
-2.48344651643e-06
4.49267126362e-05
-4.19197591786e-06
-6.57763161306e-06
4.43974506833e-05
5.2735138043e-05
6.17347500853e-06
5.57309344718e-05
1.28850784071e-05
5.73114743062e-05
1.46955949921e-05
5.76109918106e-05
1.37529720636e-05
5.71335226887e-05
1.16346822691e-05
5.63194682785e-05
9.26506546157e-06
5.54489882658e-05
7.09364757374e-06
5.46629778965e-05
5.28287584049e-06
5.40136825434e-05
3.8519856317e-06
5.35061514332e-05
2.7599285319e-06
5.31242557532e-05
1.94680951986e-06
5.28449864606e-05
1.35287913024e-06
5.26454404642e-05
9.26021659795e-07
5.25057164628e-05
6.23727334359e-07
5.2409721943e-05
4.12677211709e-07
5.23450162004e-05
2.67450701046e-07
5.23022786628e-05
1.69042032173e-07
5.2274691785e-05
1.03476642983e-07
5.22573675041e-05
6.06304552931e-08
5.22468590465e-05
3.32679752222e-08
5.22407595211e-05
1.62911313864e-08
5.22374507495e-05
6.18334169539e-09
5.22359521147e-05
5.16068561677e-10
5.22354441374e-05
-2.42293623954e-09
5.22355090269e-05
-3.68562560114e-09
5.22358544058e-05
-3.98237093732e-09
5.22363085403e-05
-3.76238235726e-09
5.22367747729e-05
-3.3001365275e-09
5.22372019972e-05
-2.75628888795e-09
5.22375675031e-05
-2.22090222765e-09
5.22378646076e-05
-1.73873198043e-09
5.22380960989e-05
-1.32783250734e-09
5.22382722551e-05
-9.91106176076e-10
5.22384049925e-05
-7.23937776139e-10
5.22385052289e-05
-5.13765420734e-10
5.22385897635e-05
-3.52930200221e-10
5.22386551891e-05
-2.34628138514e-10
5.22386974122e-05
-1.50438777454e-10
5.22387300769e-05
-9.23195642656e-11
5.22387454216e-05
-3.74632603025e-11
5.22387506045e-05
-7.91737455438e-14
5.22387482101e-05
2.80205566042e-11
5.22387401812e-05
4.91749783483e-11
5.22387278733e-05
6.57034886448e-11
5.223871212e-05
7.95565133104e-11
5.22386934697e-05
9.1887734779e-11
5.22386724099e-05
1.03302942854e-10
5.22386496792e-05
1.13960658216e-10
5.2238626257e-05
1.23827972004e-10
5.22386002089e-05
1.35891646634e-10
5.22385732491e-05
1.46084868912e-10
5.22385464615e-05
1.5441519527e-10
5.22385214145e-05
1.59414172343e-10
5.22385006792e-05
1.58445729341e-10
5.22384895745e-05
1.46258619667e-10
5.22384981688e-05
1.13967322848e-10
5.22385287842e-05
6.17386094042e-11
5.22386043754e-05
-4.28325973378e-11
5.22387238659e-05
-1.93065217363e-10
5.22389173012e-05
-4.37530230289e-10
5.22392542594e-05
-8.4857940702e-10
5.22397705713e-05
-1.56812730625e-09
5.2240541938e-05
-2.57903433619e-09
5.22417008708e-05
-4.11003141781e-09
5.22434506538e-05
-6.45406292423e-09
5.22460925308e-05
-1.00598006976e-08
5.22500782907e-05
-1.56330185171e-08
5.22560989012e-05
-2.42879218472e-08
5.22652130384e-05
-3.78004778049e-08
5.22790379128e-05
-5.9030943506e-08
5.23000313391e-05
-9.26270800948e-08
5.23319088158e-05
-1.46214639282e-07
5.23800132887e-05
-2.32454222955e-07
5.24512705351e-05
-3.72575572318e-07
5.25525435669e-05
-6.02051613789e-07
5.26843766826e-05
-9.78785994373e-07
5.28245436444e-05
-1.59029694398e-06
5.28915593896e-05
-2.55046165485e-06
5.26729636653e-05
-3.97337901717e-06
-5.76869792044e-06
5.18640291815e-05
5.19834865006e-05
4.18998848619e-06
5.50586639621e-05
9.80990083585e-06
5.76386131726e-05
1.21156456989e-05
5.93259031034e-05
1.20656820753e-05
6.02280151517e-05
1.07325702107e-05
6.05929263883e-05
8.90015427879e-06
6.06482833776e-05
7.03829067386e-06
6.05531889987e-05
5.37797033249e-06
6.04029545022e-05
4.00222024476e-06
6.02479140669e-05
2.91496907207e-06
6.01107885959e-05
2.08393506527e-06
5.99990291128e-05
1.4646386405e-06
5.99125139589e-05
1.01253679522e-06
5.98479220817e-05
6.88319174801e-07
5.9801018541e-05
4.59580736831e-07
5.97677339354e-05
3.00735334433e-07
5.97445926349e-05
1.92183394812e-07
5.97288141341e-05
1.19255210212e-07
5.97182660095e-05
7.11786319367e-08
5.97113598231e-05
4.01741954347e-08
5.9706940467e-05
2.07105079718e-08
5.97042065557e-05
8.91726554078e-09
5.97025975132e-05
2.12512669253e-09
5.97016929874e-05
-1.51837614753e-09
5.97012347248e-05
-3.22729677958e-09
5.97010452533e-05
-3.79280722081e-09
5.97010090095e-05
-3.7260548834e-09
5.97010533162e-05
-3.34439249278e-09
5.97011344581e-05
-2.8374090686e-09
5.97012267846e-05
-2.31320896698e-09
5.97013164246e-05
-1.82833819669e-09
5.97013967444e-05
-1.40812977451e-09
5.97014663128e-05
-1.06067812762e-09
5.97015257401e-05
-7.83391427215e-10
5.97015758534e-05
-5.63908546962e-10
5.97016155453e-05
-3.92648012149e-10
5.97016432203e-05
-2.62343010332e-10
5.9701658412e-05
-1.65664030822e-10
5.97016567265e-05
-9.06467934262e-11
5.97016486596e-05
-2.94031128262e-11
5.97016420673e-05
6.50968828057e-12
5.97016328715e-05
3.72209362209e-11
5.97016224746e-05
5.95846196096e-11
5.9701610923e-05
7.72501143512e-11
5.9701597123e-05
9.33203005909e-11
5.9701580905e-05
1.08028523458e-10
5.97015623545e-05
1.21779620163e-10
5.97015414757e-05
1.34796001776e-10
5.97015182555e-05
1.47052593748e-10
5.9701495906e-05
1.5827494368e-10
5.97014743413e-05
1.67686198062e-10
5.97014547982e-05
1.73977663156e-10
5.97014389341e-05
1.75231644551e-10
5.97014283438e-05
1.68933983747e-10
5.97014222599e-05
1.52244628075e-10
5.97014131539e-05
1.22944691059e-10
5.97014175233e-05
5.7234412385e-11
5.97014291437e-05
-5.46434613987e-11
5.97015113021e-05
-2.75443906632e-10
5.97016989271e-05
-6.25484764524e-10
5.97019976047e-05
-1.14755444582e-09
5.97023829831e-05
-1.95388783504e-09
5.97029593786e-05
-3.15579367658e-09
5.97038092853e-05
-4.9602903852e-09
5.97050465757e-05
-7.69171431098e-09
5.97068361245e-05
-1.18497406879e-08
5.97094157743e-05
-1.82131428957e-08
5.97131292503e-05
-2.80018804371e-08
5.97184657963e-05
-4.31375884462e-08
5.97261057402e-05
-6.66714119232e-08
5.97369501635e-05
-1.0347170499e-07
5.97520606093e-05
-1.61325125824e-07
5.97722733477e-05
-2.52666836449e-07
5.97969951343e-05
-3.97297160995e-07
5.98210675414e-05
-6.26123782676e-07
5.98276133622e-05
-9.85331651067e-07
5.97745898115e-05
-1.53727341776e-06
5.95740742393e-05
-2.34994584485e-06
5.90682413623e-05
-3.46754503164e-06
-4.79732633255e-06
5.80968694445e-05
5.14373053913e-05
2.75268304753e-06
5.42658205329e-05
6.98138555601e-06
5.72496431548e-05
9.13182298577e-06
5.9790027475e-05
9.5252977056e-06
6.17201279628e-05
8.80246973751e-06
6.30883029441e-05
7.53197937647e-06
6.40167165617e-05
6.10987717516e-06
6.46292364341e-05
4.76545060101e-06
6.50258034674e-05
3.6056533466e-06
6.52790781037e-05
2.66169453886e-06
6.543897319e-05
1.92404003067e-06
6.55386900362e-05
1.36492178936e-06
6.5599928586e-05
9.51298210622e-07
6.56367434365e-05
6.51504305487e-07
6.56581946097e-05
4.38129589805e-07
6.5670102942e-05
2.8882707559e-07
6.56761923056e-05
1.86094124987e-07
6.5678828731e-05
1.16618866626e-07
6.56794992699e-05
7.05081478024e-08
6.56791231459e-05
4.0550345688e-08
6.56782558168e-05
2.15778380437e-08
6.56772249604e-05
9.94810528396e-09
6.56762157823e-05
3.13429234555e-09
6.56753066035e-05
-6.09175109343e-10
6.56745380492e-05
-2.45867038554e-09
6.56739098447e-05
-3.16450671482e-09
6.56734110804e-05
-3.22721825384e-09
6.56730242818e-05
-2.95756578099e-09
6.56727304854e-05
-2.54359451038e-09
6.56725115451e-05
-2.09422869273e-09
6.56723513364e-05
-1.6680775488e-09
6.5672236162e-05
-1.29292930478e-09
6.56721538802e-05
-9.78410249009e-10
6.56720938873e-05
-7.23440249534e-10
6.56720504302e-05
-5.20490132364e-10
6.56720192708e-05
-3.6152995667e-10
6.56719942718e-05
-2.37393069733e-10
6.56719727754e-05
-1.44209482934e-10
6.56719578918e-05
-7.57815241135e-11
6.56719562047e-05
-2.77172722266e-11
6.56719547218e-05
7.99319158743e-12
6.56719474079e-05
4.45295135821e-11
6.56719374123e-05
6.95617328475e-11
6.56719249544e-05
8.96731521836e-11
6.56719109228e-05
1.07285924456e-10
6.5671895351e-05
1.23531609443e-10
6.56718781034e-05
1.38977735249e-10
6.56718591282e-05
1.53759504774e-10
6.56718389546e-05
1.67244024198e-10
6.56718196128e-05
1.77640440261e-10
6.56717999932e-05
1.87309099482e-10
6.56717806112e-05
1.93306841497e-10
6.56717625898e-05
1.93127312928e-10
6.56717478726e-05
1.8354486838e-10
6.56717401663e-05
1.5988703928e-10
6.56717468737e-05
1.16165380386e-10
6.56717535745e-05
5.04123397059e-11
6.56717850272e-05
-8.62663847741e-11
6.56718524669e-05
-3.43129169021e-10
6.5671949683e-05
-7.22940490035e-10
6.56720988119e-05
-1.29699642806e-09
6.56723066797e-05
-2.16211308615e-09
6.56725897572e-05
-3.43930121408e-09
6.56729646566e-05
-5.33558315495e-09
6.5673442235e-05
-8.16969517322e-09
6.56740200021e-05
-1.24279684101e-08
6.56746677801e-05
-1.88613293858e-08
6.56752997818e-05
-2.86342953934e-08
6.56757147763e-05
-4.35531024885e-08
6.56754851921e-05
-6.64421386206e-08
6.5673741872e-05
-1.01728537059e-07
6.56687508286e-05
-1.56334125264e-07
6.56569774874e-05
-2.40893498242e-07
6.5631293384e-05
-3.71613154524e-07
6.55775489077e-05
-5.72379151584e-07
6.54685142111e-05
-8.76296626796e-07
6.52550285188e-05
-1.3237876702e-06
6.48570589541e-05
-1.95197640942e-06
6.41621598132e-05
-2.7726451838e-06
-3.71532919545e-06
6.30801626063e-05
5.10850423693e-05
1.66764060973e-06
5.3611844502e-05
4.45458327739e-06
5.6687316387e-05
6.0563510163e-06
5.96894463802e-05
6.52316767688e-06
6.22997270039e-05
6.19218913491e-06
6.44136886251e-05
5.41801783895e-06
6.6047184858e-05
4.47638106498e-06
6.72686165185e-05
3.54401908155e-06
6.81598956784e-05
2.71437431813e-06
6.87977623925e-05
2.02382790967e-06
6.92467468714e-05
1.47505557107e-06
6.95579658102e-05
1.05370282729e-06
6.97704326217e-05
7.38831375567e-07
6.99131758817e-05
5.08761061842e-07
7.00073872653e-05
3.43918278239e-07
7.00682971722e-05
2.27917278901e-07
7.01066995795e-05
1.4769182923e-07
7.01301422629e-05
9.31762723171e-08
7.01438317462e-05
5.68187176771e-08
7.01513081738e-05
3.30739284288e-08
7.01549409466e-05
1.79450333453e-08
7.0156289009e-05
8.59999221619e-09
7.01563611928e-05
3.06208071141e-09
7.0155769481e-05
-1.74336799372e-11
7.01549089636e-05
-1.59807029628e-09
7.01539857016e-05
-2.2411596633e-09
7.01531173756e-05
-2.35885318281e-09
7.01523576575e-05
-2.19783812602e-09
7.01517237854e-05
-1.90969308241e-09
7.01512129141e-05
-1.58328820297e-09
7.01508120803e-05
-1.26718285747e-09
7.01505043123e-05
-9.85132840854e-10
7.01502719698e-05
-7.46079852617e-10
7.01500989104e-05
-5.50393947322e-10
7.01499721444e-05
-3.9373102047e-10
7.01498810154e-05
-2.70416927471e-10
7.01498184297e-05
-1.748315781e-10
7.01497769483e-05
-1.0273776946e-10
7.01497485113e-05
-4.73342786817e-11
7.01497186751e-05
2.14361618536e-12
7.01496953907e-05
3.12937381544e-11
7.01496824518e-05
5.74566671619e-11
7.01496720485e-05
7.99214590629e-11
7.01496622295e-05
9.94147185913e-11
7.01496522489e-05
1.17186995962e-10
7.0149641728e-05
1.33977423775e-10
7.01496305459e-05
1.50114624199e-10
7.01496187502e-05
1.65562318479e-10
7.01496061159e-05
1.79898928512e-10
7.01495912642e-05
1.92484128071e-10
7.01495761327e-05
2.02380758093e-10
7.01495615215e-05
2.07788504664e-10
7.01495482299e-05
2.06306254156e-10
7.01495368544e-05
1.94865103604e-10
7.01495269723e-05
1.69773424195e-10
7.01495159973e-05
1.27154914764e-10
7.0149507508e-05
5.87950979947e-11
7.01494974401e-05
-7.63799542068e-11
7.0149506624e-05
-3.52565463932e-10
7.01495282477e-05
-7.44805458393e-10
7.01495499918e-05
-1.31908723171e-09
7.01495500973e-05
-2.16268099694e-09
7.01495016599e-05
-3.39136491706e-09
7.01493514089e-05
-5.18578328526e-09
7.01490002767e-05
-7.81897350712e-09
7.01482729213e-05
-1.17009902827e-08
7.0146867636e-05
-1.74564346566e-08
7.01442725657e-05
-2.60397067614e-08
7.01396131934e-05
-3.88940093145e-08
7.01314080153e-05
-5.82370267356e-08
7.01171677991e-05
-8.74883227616e-08
7.00927377166e-05
-1.31904045551e-07
7.0051027534e-05
-1.99183402041e-07
6.99800640156e-05
-3.0064987388e-07
6.98598834252e-05
-4.52198720719e-07
6.96580453087e-05
-6.74458385993e-07
6.93246432065e-05
-9.90385510681e-07
6.87901396694e-05
-1.41747297461e-06
6.79719643937e-05
-1.95446941073e-06
-2.55541691334e-06
6.68120523711e-05
5.08804131914e-05
7.87227341213e-07
5.31704661272e-05
2.16453021913e-06
5.6217749656e-05
3.00906741894e-06
5.94382696433e-05
3.30264765998e-06
6.24449694715e-05
3.1854893257e-06
6.50382529357e-05
2.82473444656e-06
6.71548665792e-05
2.3597675318e-06
6.88135651605e-05
1.88532062585e-06
7.00731712362e-05
1.45476834409e-06
7.10056682411e-05
1.09133095495e-06
7.16812645441e-05
7.99459269824e-07
7.21614239025e-05
5.73543449665e-07
7.24966048556e-05
4.03650426289e-07
7.27264814804e-05
2.78884492107e-07
7.28812804966e-05
1.89119370891e-07
7.29834703963e-05
1.25727513094e-07
7.30494143248e-05
8.17480276694e-08
7.30908165591e-05
5.17741334477e-08
7.3115910595e-05
3.17247239137e-08
7.31303951635e-05
1.85893381977e-08
7.31381499042e-05
1.01902219575e-08
7.31417703655e-05
4.97945520181e-09
7.31429581302e-05
1.87428632599e-09
7.314281185e-05
1.28884547038e-10
7.31419887476e-05
-7.74899001235e-10
7.31409059514e-05
-1.15832400078e-09
7.31397911661e-05
-1.24407044641e-09
7.31387638292e-05
-1.17049774821e-09
7.31378764207e-05
-1.02223269939e-09
7.31371428417e-05
-8.49621077134e-10
7.31365556769e-05
-6.79939051757e-10
7.31360975179e-05
-5.26938272546e-10
7.31357475103e-05
-3.96059907282e-10
7.31354850361e-05
-2.87913782047e-10
7.31352917454e-05
-2.00455284658e-10
7.31351520073e-05
-1.30724738133e-10
7.3135052593e-05
-7.54578469974e-11
7.31349810067e-05
-3.11443867677e-11
7.31349278877e-05
5.83483746471e-12
7.31348981858e-05
3.191029987e-11
7.31348751252e-05
5.43983479971e-11
7.31348583428e-05
7.42458720049e-11
7.31348459984e-05
9.22507228257e-11
7.31348362833e-05
1.09094111698e-10
7.31348279284e-05
1.25488321178e-10
7.31348200554e-05
1.41789372431e-10
7.31348120669e-05
1.58064801706e-10
7.31348035212e-05
1.74062208405e-10
7.31347941388e-05
1.89193244504e-10
7.31347838846e-05
2.02595709738e-10
7.31347728135e-05
2.1325077577e-10
7.31347610237e-05
2.1940582339e-10
7.31347486745e-05
2.18591120581e-10
7.31347359856e-05
2.07571925545e-10
7.31347234937e-05
1.82308295275e-10
7.31347122721e-05
1.38405808288e-10
7.31346969063e-05
7.40530017959e-11
7.31346732397e-05
-5.28906155964e-11
7.31346310155e-05
-3.10546783353e-10
7.31345642197e-05
-6.78272204066e-10
7.3134449132e-05
-1.20436605149e-09
7.31342423937e-05
-1.95640109791e-09
7.31338759114e-05
-3.02537016837e-09
7.31332347215e-05
-4.54503144284e-09
7.31321257527e-05
-6.71040131026e-09
7.31302269735e-05
-9.80255743885e-09
7.31270109403e-05
-1.42408344675e-08
7.31216222316e-05
-2.06513977955e-08
7.31126473623e-05
-2.99194362307e-08
7.30977809656e-05
-4.33709578142e-08
7.30733156551e-05
-6.30232695213e-08
7.30333525585e-05
-9.19410312089e-08
7.29683748515e-05
-1.34205796557e-07
7.28633614519e-05
-1.95636464142e-07
7.2695140546e-05
-2.83977795948e-07
7.24292030421e-05
-4.08520875639e-07
7.2017173008e-05
-5.78355601143e-07
7.13978310406e-05
-7.98130874896e-07
7.05055916507e-05
-1.06222948329e-06
-1.34560260346e-06
6.92957777911e-05
5.07871725938e-05
5.46779681699e-11
5.29516498187e-05
5.29062275794e-11
5.59606884122e-05
2.87719694975e-11
5.9263321847e-05
1.41930010448e-11
6.24488083933e-05
2.78633149029e-12
6.52735489252e-05
-6.03216472411e-12
6.76333284533e-05
-1.19094878502e-11
6.95186640182e-05
-1.48443047093e-11
7.09734477204e-05
-1.528333143e-11
7.20647925359e-05
-1.38299235779e-11
7.2864262914e-05
-1.11109941448e-11
7.34378141312e-05
-7.76930621102e-12
7.38414690414e-05
-4.45022155649e-12
7.41203554085e-05
-1.78613668307e-12
7.43094752712e-05
-3.56414742387e-13
7.44352035151e-05
-5.7732849022e-13
7.45169543817e-05
-2.69850499717e-12
7.45687350974e-05
-6.48808177192e-12
7.4600471163e-05
-1.13184045344e-11
7.46190766673e-05
-1.62152908411e-11
7.46292868461e-05
-2.00468228337e-11
7.46342879286e-05
-2.17034396059e-11
7.46361829007e-05
-2.07054901119e-11
7.46363301484e-05
-1.8335334299e-11
7.4635571065e-05
-1.57930033184e-11
7.46344253902e-05
-1.26667303008e-11
7.46331904043e-05
-9.11031887887e-12
7.46320250927e-05
-5.16677710787e-12
7.46310032594e-05
-3.18398056388e-13
7.463014997e-05
3.77467420492e-12
7.46294616785e-05
8.43523278289e-12
7.46289213867e-05
1.34020195541e-11
7.46285067137e-05
1.8651805957e-11
7.46281945599e-05
2.4247520852e-11
7.46279637014e-05
3.03567034055e-11
7.46277958093e-05
3.70968987705e-11
7.46276757529e-05
4.45624024371e-11
7.46275918734e-05
5.27393197442e-11
7.46275360768e-05
6.16600377666e-11
7.46274970717e-05
7.09310195553e-11
7.46274709446e-05
8.0520357063e-11
7.46274538345e-05
9.13321273371e-11
7.46274427631e-05
1.03289694835e-10
7.46274354957e-05
1.16320856279e-10
7.46274304916e-05
1.30445353962e-10
7.46274266989e-05
1.45562269709e-10
7.46274233579e-05
1.61390275683e-10
7.46274199077e-05
1.77449394386e-10
7.46274159246e-05
1.93059844881e-10
7.46274110645e-05
2.07296259217e-10
7.46274051744e-05
2.1900672628e-10
7.46273980549e-05
2.26454344072e-10
7.46273893583e-05
2.27319796959e-10
7.46273783806e-05
2.18604857916e-10
7.46273639389e-05
1.96782077927e-10
7.46273442399e-05
1.58029717277e-10
7.46273184939e-05
9.96560021083e-11
7.46272734004e-05
-7.97493325973e-12
7.46271851898e-05
-2.22535201827e-10
7.46270491271e-05
-5.42480324063e-10
7.46268259307e-05
-9.81506993669e-10
7.46264548386e-05
-1.58563543434e-09
7.46258394431e-05
-2.41031434194e-09
7.46248229429e-05
-3.52895965804e-09
7.4623150349e-05
-5.03817901723e-09
7.46204047148e-05
-7.05723333056e-09
7.46159198248e-05
-9.75630127739e-09
7.46086375963e-05
-1.33695370072e-08
7.45968203841e-05
-1.8102614938e-08
7.45776669404e-05
-2.42178038491e-08
7.45467614533e-05
-3.21178767064e-08
7.44973742397e-05
-4.25538889973e-08
7.44187654725e-05
-5.55970943229e-08
7.42945365904e-05
-7.14076604627e-08
7.410030705e-05
-8.97484179086e-08
7.38012564999e-05
-1.09470110707e-07
7.33507152511e-05
-1.27814276388e-07
7.2692195983e-05
-1.39611403378e-07
7.17676423314e-05
-1.37675277286e-07
-1.1351105552e-07
7.05355512355e-05
5.07871715604e-05
-7.87116934475e-07
5.29516489851e-05