/*--------------------------------*- C++ -*----------------------------------*\
| =========                 |                                                 |
| \\      /  F ield         | OpenFOAM: The Open Source CFD Toolbox           |
|  \\    /   O peration     | Version:  2106                                  |
|   \\  /    A nd           | Website:  www.openfoam.com                      |
|    \\/     M anipulation  |                                                 |
\*---------------------------------------------------------------------------*/
FoamFile
{
    version     2.0;
    format      ascii;
    arch        "LSB;label=32;scalar=64";
    class       volVectorField;
    location    "0.315";
    object      U;
}
// * * * * * * * * * * * * * * * * * * * * * * * * * * * * * * * * * * * * * //

dimensions      [0 1 -1 0 0 0 0];

internalField   nonuniform List<vector> 
11200
(
(0.662462405134 0.150569443112 0)
(0.558948678414 0.103243389313 0)
(0.383850747111 0.0513512253387 0)
(0.28374760967 0.0248708563482 0)
(0.232075289186 0.0124170461476 0)
(0.201908610813 0.00662281755545 0)
(0.183197962095 0.00380291499026 0)
(0.171276522559 0.00231587049341 0)
(0.163510344713 0.00146450683232 0)
(0.158388812058 0.00094489256673 0)
(0.155006677226 0.000615177020895 0)
(0.152786726079 0.000402234041579 0)
(0.151346579781 0.00026423269381 0)
(0.150428346244 0.000175250924808 0)
(0.149856744654 0.000118361657211 0)
(0.149512544872 8.21609785179e-05 0)
(0.149314984846 5.886675629e-05 0)
(0.14920962276 4.33163844602e-05 0)
(0.149159762812 3.2935141585e-05 0)
(0.149142521592 2.81866248449e-05 0)
(0.149144674879 2.76846755589e-05 0)
(0.149156947111 2.98902931503e-05 0)
(0.149172564568 3.30507141724e-05 0)
(0.149188107199 3.59663374787e-05 0)
(0.14920231042 3.86017708604e-05 0)
(0.149214574337 4.10406992265e-05 0)
(0.149224731475 4.33178788125e-05 0)
(0.149232888851 4.54645805622e-05 0)
(0.149239282981 4.75200319975e-05 0)
(0.149244195411 4.95311154405e-05 0)
(0.149247910795 5.15597453814e-05 0)
(0.14925069657 5.36969357491e-05 0)
(0.149252750173 5.60254136432e-05 0)
(0.149254242076 5.84066305265e-05 0)
(0.149255304972 6.07675503085e-05 0)
(0.149256025597 6.30886809853e-05 0)
(0.149256500933 6.53803517833e-05 0)
(0.149256814255 6.76553937968e-05 0)
(0.149257018608 6.99251348457e-05 0)
(0.149257142879 7.2195550079e-05 0)
(0.149257208437 7.44679400489e-05 0)
(0.149257233226 7.67434880059e-05 0)
(0.149257229678 7.90218428686e-05 0)
(0.1492572066 8.13017647156e-05 0)
(0.149257170235 8.3581556459e-05 0)
(0.149257125049 8.58590114265e-05 0)
(0.149257074654 8.81312769204e-05 0)
(0.149257022593 9.03950764962e-05 0)
(0.149256973387 9.26472147786e-05 0)
(0.149256932845 9.48848727919e-05 0)
(0.149256908458 9.71052184638e-05 0)
(0.149256909877 9.93053150535e-05 0)
(0.149256949619 0.000101481961014 0)
(0.14925704528 0.000103631550674 0)
(0.149257222475 0.000105749735569 0)
(0.149257517974 0.000107831039534 0)
(0.149257983526 0.000109868580481 0)
(0.149258694553 0.000111852554433 0)
(0.149259760376 0.000113770258966 0)
(0.149261338691 0.00011559676016 0)
(0.149263675406 0.000117276479014 0)
(0.149267178828 0.000118725747152 0)
(0.149272317904 0.000119983887039 0)
(0.149279738613 0.000121243186998 0)
(0.149290473233 0.000122966552444 0)
(0.149306043045 0.000125338272306 0)
(0.149328834667 0.0001281187663 0)
(0.149362543455 0.000131080853253 0)
(0.149412761847 0.000134008696917 0)
(0.149487719914 0.000136788794639 0)
(0.149599355856 0.000140697371251 0)
(0.149770501913 0.000151556148556 0)
(0.150038925907 0.00017228470564 0)
(0.150467789323 0.000202541490609 0)
(0.151192896826 0.000232474855522 0)
(0.152491910361 0.000191673895727 0)
(0.15502102035 -0.000216797888415 0)
(0.162374663384 -0.00211031377778 0)
(0.187704425026 -0.0107896011417 0)
(0.204367073122 -0.0496650249539 0)
(0.96540825562 0.289214708357 0)
(0.961962863523 0.25265604238 0)
(0.823574398248 0.159021444087 0)
(0.698139376516 0.0959957334011 0)
(0.61022547227 0.0582481158703 0)
(0.548971500783 0.0362148544145 0)
(0.506588898053 0.0231612859103 0)
(0.477567277552 0.0151375157404 0)
(0.457745499287 0.010017755368 0)
(0.444228467103 0.00665814139198 0)
(0.435053304123 0.00441555674195 0)
(0.428873123383 0.00290686676163 0)
(0.424754207081 0.00189105984375 0)
(0.422046656919 0.00121004711412 0)
(0.420297818884 0.000757165163355 0)
(0.419193208016 0.000459257173263 0)
(0.418515600555 0.000265855509535 0)
(0.418116451332 0.000142399922285 0)
(0.417895845902 6.61096623965e-05 0)
(0.417786793484 2.30922517905e-05 0)
(0.417745377608 1.40760110202e-06 0)
(0.417742099628 -1.01626180572e-05 0)
(0.417756697541 -1.37138355578e-05 0)
(0.417778656426 -1.32673259372e-05 0)
(0.417802950983 -1.08353439458e-05 0)
(0.417826322179 -7.49256392219e-06 0)
(0.417847077017 -3.87630452283e-06 0)
(0.417864616836 -3.56560334855e-07 0)
(0.417878945066 2.8650016677e-06 0)
(0.417890376512 5.68414983501e-06 0)
(0.417899382683 8.03645354999e-06 0)
(0.417906457108 9.83778274103e-06 0)
(0.417911802125 1.10062932964e-05 0)
(0.417915652073 1.18586587958e-05 0)
(0.417918384976 1.26807235956e-05 0)
(0.417920276016 1.34379673071e-05 0)
(0.417921567492 1.41124030302e-05 0)
(0.417922450056 1.47280514536e-05 0)
(0.4179230492 1.53135370747e-05 0)
(0.417923436582 1.58824640412e-05 0)
(0.417923665621 1.64356617467e-05 0)
(0.417923780188 1.69784291361e-05 0)
(0.417923811025 1.75142737231e-05 0)
(0.417923780761 1.80464175667e-05 0)
(0.417923705799 1.85780916245e-05 0)
(0.417923597943 1.91117483949e-05 0)
(0.417923466899 1.96490812894e-05 0)
(0.417923322653 2.01916540017e-05 0)
(0.417923177327 2.07416528841e-05 0)
(0.417923045454 2.13016167759e-05 0)
(0.417922945531 2.18718270806e-05 0)
(0.417922902139 2.24520948688e-05 0)
(0.417922948108 2.30420400277e-05 0)
(0.417923129102 2.36411426801e-05 0)
(0.417923510232 2.4248715314e-05 0)
(0.417924184639 2.48642198777e-05 0)
(0.417925284245 2.54857055782e-05 0)
(0.417927002594 2.6101105014e-05 0)
(0.417929617125 2.6693013637e-05 0)
(0.417933516856 2.72301149671e-05 0)
(0.417939303042 2.76638608308e-05 0)
(0.417948073094 2.79443513265e-05 0)
(0.417961314897 2.82303805377e-05 0)
(0.417981165592 2.777823976e-05 0)
(0.418010391282 2.5176056983e-05 0)
(0.418052598989 1.93520063702e-05 0)
(0.418113974851 9.5002012285e-06 0)
(0.418204635803 -5.91170511033e-06 0)
(0.418340182157 -2.94078795335e-05 0)
(0.418545506529 -6.46688133521e-05 0)
(0.418862502197 -0.000115887512563 0)
(0.419360768139 -0.000188037314117 0)
(0.420153775668 -0.000307814430917 0)
(0.421445190141 -0.000532794604759 0)
(0.42362668315 -0.000999814140189 0)
(0.427417009146 -0.00209060798378 0)
(0.434238468719 -0.00485683943417 0)
(0.448266388278 -0.0122553801809 0)
(0.474648964453 -0.0342458960801 0)
(0.478178285393 -0.0987831374968 0)
(1.02222096674 0.238416189582 0)
(1.0821375343 0.295926655587 0)
(1.03447723418 0.239503068945 0)
(0.954615419327 0.174290166368 0)
(0.879992067834 0.12134546959 0)
(0.818614449894 0.0830993845636 0)
(0.771410866924 0.0567316668958 0)
(0.736634409091 0.0387409678956 0)
(0.711624453274 0.026432786315 0)
(0.693916644062 0.0179731043405 0)
(0.681541437375 0.0121424482084 0)
(0.673000148372 0.00812490917031 0)
(0.667180686767 0.00536632255232 0)
(0.66327171968 0.00348444633024 0)
(0.660688550288 0.00221256258147 0)
(0.659014226706 0.00136338204567 0)
(0.657954545815 0.000805243298001 0)
(0.657304252606 0.000445915802705 0)
(0.656921833685 0.000221067782686 0)
(0.656710267829 8.55807592657e-05 0)
(0.656603403367 8.35786207881e-06 0)
(0.656561854074 -3.37189780402e-05 0)
(0.656557952742 -5.6853095258e-05 0)
(0.656571427177 -6.68723553967e-05 0)
(0.656592955377 -6.84801421072e-05 0)
(0.656616774066 -6.55589550373e-05 0)
(0.656639576188 -6.05479449633e-05 0)
(0.656659754722 -5.4857942099e-05 0)
(0.656676723864 -4.92737663494e-05 0)
(0.65669046099 -4.42025941596e-05 0)
(0.656701212582 -3.98391301595e-05 0)
(0.656709363204 -3.63014572928e-05 0)
(0.656715609046 -3.36952646884e-05 0)
(0.656720640644 -3.18561598143e-05 0)
(0.656724501501 -3.0809261109e-05 0)
(0.656727206831 -3.03017525563e-05 0)
(0.656729068494 -3.02461575022e-05 0)
(0.656730365388 -3.05572647068e-05 0)
(0.656731264373 -3.10852921066e-05 0)
(0.656731855589 -3.1747562644e-05 0)
(0.656732213889 -3.25142667251e-05 0)
(0.656732404826 -3.33504069679e-05 0)
(0.656732473642 -3.42315703149e-05 0)
(0.656732454603 -3.51385029259e-05 0)
(0.65673237247 -3.60557153623e-05 0)
(0.656732245227 -3.69726665975e-05 0)
(0.656732088205 -3.78821327032e-05 0)
(0.656731917187 -3.87786623851e-05 0)
(0.656731750119 -3.96571789357e-05 0)
(0.65673160598 -4.05116090092e-05 0)
(0.656731509309 -4.13386837181e-05 0)
(0.656731495367 -4.21348244673e-05 0)
(0.656731612404 -4.28985424489e-05 0)
(0.656731928047 -4.36329339823e-05 0)
(0.656732539131 -4.43511322982e-05 0)
(0.656733583095 -4.50837384786e-05 0)
(0.65673524823 -4.58852230964e-05 0)
(0.656737811606 -4.68509665017e-05 0)
(0.656741681489 -4.81067897853e-05 0)
(0.656747455257 -4.98713822946e-05 0)
(0.656756064208 -5.26530317577e-05 0)
(0.656769155503 -5.74611225826e-05 0)
(0.656788049028 -6.50944479973e-05 0)
(0.656814185619 -7.64195547019e-05 0)
(0.656851404268 -9.31289281578e-05 0)
(0.656906413608 -0.000117620635693 0)
(0.656988593506 -0.000153095656741 0)
(0.657111734019 -0.000204840566573 0)
(0.657297649823 -0.000281375966909 0)
(0.657581734512 -0.000396578492888 0)
(0.65802211835 -0.000574801061674 0)
(0.658708002288 -0.000863313894993 0)
(0.65978645275 -0.00135220002642 0)
(0.661515033942 -0.00221459568854 0)
(0.66433596286 -0.0038130846432 0)
(0.668945101544 -0.00694655665268 0)
(0.676368540774 -0.0133538856036 0)
(0.688614495695 -0.0268467155839 0)
(0.705242573099 -0.0563271752134 0)
(0.700500355313 -0.113102008996 0)
(1.02251475586 0.1708071555 0)
(1.10138976148 0.276496481724 0)
(1.11752426809 0.266664801761 0)
(1.09214661457 0.219901700735 0)
(1.05187816675 0.168168848468 0)
(1.01020823656 0.123567396553 0)
(0.973494704047 0.0888375206619 0)
(0.943864570101 0.0630063703194 0)
(0.921142814466 0.0442232030004 0)
(0.904284088489 0.0307423922351 0)
(0.892074885815 0.0211562944558 0)
(0.88340452937 0.0143954696801 0)
(0.877352691254 0.00966794978852 0)
(0.873197729944 0.00639383855335 0)
(0.870392954186 0.00415116535468 0)
(0.86853406589 0.00263449042838 0)
(0.867327669213 0.00162401618354 0)
(0.866564266164 0.000962674641654 0)
(0.866096508754 0.000539121420236 0)
(0.865822266443 0.000275153317076 0)
(0.865671422671 0.000117068881096 0)
(0.865595172079 2.87933932259e-05 0)
(0.865564113814 -1.93236146234e-05 0)
(0.86556130544 -4.12601385624e-05 0)
(0.865572649397 -4.76645212277e-05 0)
(0.865589656401 -4.5524005754e-05 0)
(0.865607967463 -3.91543635859e-05 0)
(0.865625308275 -3.11433656667e-05 0)
(0.865640594498 -2.2962426719e-05 0)
(0.865653458882 -1.53791475828e-05 0)
(0.865663933162 -8.72190363552e-06 0)
(0.865672221024 -3.04309262221e-06 0)
(0.865678574889 1.73576864975e-06 0)
(0.865683202438 5.46745700627e-06 0)
(0.865686521901 8.03479804851e-06 0)
(0.865688920506 9.79203382556e-06 0)
(0.865690552967 1.11458705544e-05 0)
(0.865691715341 1.22903591094e-05 0)
(0.865692582766 1.32586347853e-05 0)
(0.865693173988 1.41445662907e-05 0)
(0.865693537558 1.49394399331e-05 0)
(0.865693738098 1.56658378971e-05 0)
(0.865693814578 1.63394591368e-05 0)
(0.865693798757 1.69765911582e-05 0)
(0.865693712887 1.7591850435e-05 0)
(0.865693572541 1.81950736087e-05 0)
(0.865693392219 1.87936860606e-05 0)
(0.865693188605 1.93942378952e-05 0)
(0.865692983354 2.00051944456e-05 0)
(0.865692799973 2.06356724388e-05 0)
(0.865692668536 2.1270841845e-05 0)
(0.865692630397 2.18977572039e-05 0)
(0.865692738462 2.2499626405e-05 0)
(0.86569306244 2.30504148345e-05 0)
(0.865693696158 2.35134559822e-05 0)
(0.865694772248 2.38521478909e-05 0)
(0.865696474601 2.4030994135e-05 0)
(0.865699092971 2.39299823662e-05 0)
(0.865703032593 2.34002168548e-05 0)
(0.865708711913 2.20316313105e-05 0)
(0.865716590082 1.92530574625e-05 0)
(0.865728288974 1.43716713832e-05 0)
(0.865746402152 5.55701163868e-06 0)
(0.86577389336 -8.78938752034e-06 0)
(0.865814634512 -3.06650729726e-05 0)
(0.865874544659 -6.40238666668e-05 0)
(0.86596295895 -0.000115739263071 0)
(0.866094385527 -0.000196571594173 0)
(0.866291369451 -0.000323779924419 0)
(0.866588725052 -0.000525839333607 0)
(0.867040051294 -0.000851698219444 0)
(0.867730410366 -0.00138829394763 0)
(0.86879614859 -0.00228440390461 0)
(0.870450517932 -0.00381463799926 0)
(0.873012412255 -0.00650329596136 0)
(0.876880748222 -0.0113599075386 0)
(0.882378075577 -0.0202538243489 0)
(0.889687668292 -0.0364563322237 0)
(0.896364506638 -0.0655005819685 0)
(0.886537768733 -0.110061767873 0)
(1.01287875199 0.118961026702 0)
(1.08820671071 0.231806940218 0)
(1.13741367551 0.253106767341 0)
(1.15409087271 0.228992755516 0)
(1.14994211508 0.188368360038 0)
(1.13538466191 0.146579844388 0)
(1.11758895653 0.110150965506 0)
(1.10059501201 0.0808162216823 0)
(1.08612458288 0.0582265761523 0)
(1.074590938 0.0413189852911 0)
(1.06579148214 0.0289160212423 0)
(1.05928800636 0.0199601015682 0)
(1.05459978295 0.0135815617314 0)
(1.05129078609 0.00909744417716 0)
(1.04899986916 0.00598615399254 0)
(1.04744342677 0.00385696563858 0)
(1.04640655418 0.00242159689324 0)
(1.0457306397 0.0014701494601 0)
(1.04530108485 0.000851702079097 0)
(1.04503658785 0.000459017463384 0)
(1.04488022517 0.000216758844984 0)
(1.0447926086 7.30202186202e-05 0)
(1.04474874318 -5.50155370915e-06 0)
(1.0447318438 -4.40059400086e-05 0)
(1.04472959358 -5.93832504651e-05 0)
(1.0447350787 -6.17169272381e-05 0)
(1.04474402822 -5.72432599781e-05 0)
(1.04475391373 -4.98014665283e-05 0)
(1.04476335525 -4.16428087917e-05 0)
(1.04477168262 -3.39880833643e-05 0)
(1.04477864568 -2.74232483216e-05 0)
(1.04478423189 -2.21515101689e-05 0)
(1.04478858721 -1.81279330463e-05 0)
(1.04479192264 -1.51388363711e-05 0)
(1.04479449327 -1.28070445218e-05 0)
(1.04479659297 -1.10104370305e-05 0)
(1.04479833248 -9.52125467211e-06 0)
(1.04479965692 -8.23210962509e-06 0)
(1.04480063658 -7.21411875458e-06 0)
(1.04480132246 -6.54595497156e-06 0)
(1.04480173654 -6.16682737597e-06 0)
(1.04480196596 -5.95823742131e-06 0)
(1.04480205627 -5.86931407735e-06 0)
(1.04480204607 -5.85121757996e-06 0)
(1.04480196011 -5.86388547848e-06 0)
(1.04480181553 -5.88776572987e-06 0)
(1.04480162968 -5.91313920771e-06 0)
(1.04480142407 -5.93545464851e-06 0)
(1.04480122443 -5.95845391766e-06 0)
(1.04480103739 -5.99387681842e-06 0)
(1.04480087865 -6.0252093011e-06 0)
(1.04480079317 -6.05072169951e-06 0)
(1.04480083488 -6.07696454229e-06 0)
(1.04480107821 -6.1189530626e-06 0)
(1.04480164401 -6.21425111385e-06 0)
(1.04480271769 -6.4733188415e-06 0)
(1.04480448612 -7.15956011692e-06 0)
(1.04480723438 -8.55113989586e-06 0)
(1.04481127722 -1.11382482592e-05 0)
(1.04481708319 -1.49650667604e-05 0)
(1.04482567086 -1.99067977201e-05 0)
(1.0448381907 -2.61278966788e-05 0)
(1.0448559224 -3.59165191146e-05 0)
(1.04488117081 -5.22535621222e-05 0)
(1.04491740527 -7.93564322381e-05 0)
(1.04496977585 -0.000123470617988 0)
(1.04504588283 -0.000194366182324 0)
(1.04515706941 -0.000307620936777 0)
(1.04532047566 -0.000488398764635 0)
(1.04556195773 -0.000777723990574 0)
(1.0459201891 -0.0012429179368 0)
(1.04645301832 -0.00199562499108 0)
(1.04724454833 -0.0032263993928 0)
(1.04840771353 -0.00526605328808 0)
(1.05006982177 -0.00869149574855 0)
(1.05228754346 -0.0144965991597 0)
(1.05481692154 -0.0242886608042 0)
(1.05686844034 -0.0403781584764 0)
(1.05573636802 -0.0656054947609 0)
(1.04212302053 -0.0994756131521 0)
(1.00447483537 0.0814040005692 0)
(1.06917237515 0.181288541888 0)
(1.13080568962 0.21695042103 0)
(1.1737500076 0.210789157035 0)
(1.19865265699 0.183690077621 0)
(1.21019988723 0.149751683468 0)
(1.21350256721 0.11677914381 0)
(1.21251725285 0.0882206774292 0)
(1.20973099803 0.0650481506292 0)
(1.20651121378 0.0470209090096 0)
(1.20351915301 0.0334068091057 0)
(1.20101147391 0.0233557332943 0)
(1.19903447494 0.0160720142155 0)
(1.19753880448 0.0108795132519 0)
(1.19644134077 0.0072341867257 0)
(1.19565561301 0.00471351670157 0)
(1.19510491841 0.00299762752638 0)
(1.19472650657 0.00184916008432 0)
(1.19447152635 0.00109496075139 0)
(1.1943032163 0.000610612849729 0)
(1.19419457678 0.000307989026028 0)
(1.19412629149 0.000125771565462 0)
(1.19408524086 2.22264113565e-05 0)
(1.1940619813 -3.2448790784e-05 0)
(1.19404968062 -5.72675891105e-05 0)
(1.19404418201 -6.45933063364e-05 0)
(1.19404268435 -6.23714186094e-05 0)
(1.19404336874 -5.55171106202e-05 0)
(1.19404511938 -4.69408346404e-05 0)
(1.1940472783 -3.82557124812e-05 0)
(1.19404947333 -3.0262368127e-05 0)
(1.1940515123 -2.32656856994e-05 0)
(1.19405332588 -1.72894205701e-05 0)
(1.19405490838 -1.22602489495e-05 0)
(1.19405627633 -8.07180240648e-06 0)
(1.19405744912 -4.6702131367e-06 0)
(1.19405839886 -2.05966192947e-06 0)
(1.19405907201 -1.71006403121e-07 0)
(1.19405942872 1.14550865619e-06 0)
(1.19405954475 2.00096450208e-06 0)
(1.19405960104 2.67890881991e-06 0)
(1.19405963437 3.28129073843e-06 0)
(1.19405961821 3.80785958866e-06 0)
(1.19405956919 4.26809649365e-06 0)
(1.19405948314 4.67315742566e-06 0)
(1.19405935058 5.03961769493e-06 0)
(1.19405917435 5.37972376657e-06 0)
(1.19405896174 5.69688258594e-06 0)
(1.19405872343 5.98221762221e-06 0)
(1.19405850176 6.22070354892e-06 0)
(1.19405834246 6.43566849593e-06 0)
(1.19405827476 6.61985409177e-06 0)
(1.19405834718 6.74657743803e-06 0)
(1.1940586177 6.77498058307e-06 0)
(1.1940591229 6.64635176996e-06 0)
(1.1940598407 6.27058789092e-06 0)
(1.19406085594 5.4923612254e-06 0)
(1.19406232518 3.93454743029e-06 0)
(1.19406491516 1.18053892564e-06 0)
(1.19406965707 -3.05990076482e-06 0)
(1.19407709054 -9.56313497791e-06 0)
(1.19408714715 -1.97141682471e-05 0)
(1.19410058785 -3.55262270666e-05 0)
(1.19411940322 -5.99161954171e-05 0)
(1.19414572075 -9.74645339662e-05 0)
(1.19418236061 -0.000155486961913 0)
(1.1942333112 -0.000245630092714 0)
(1.19430420283 -0.000386372819603 0)
(1.19440291527 -0.000607173983695 0)
(1.19454022011 -0.000955372007624 0)
(1.19473015928 -0.00150748849769 0)
(1.19498950126 -0.00238781942248 0)
(1.19533304895 -0.00379962230109 0)
(1.19575804594 -0.0060758892361 0)
(1.19620414781 -0.00975557731425 0)
(1.19645160466 -0.0156826988912 0)
(1.19591355773 -0.0250685077102 0)
(1.19343538203 -0.0393692781031 0)
(1.18668171338 -0.0598290280632 0)
(1.17013335643 -0.0851391845521 0)
(0.998962326185 0.054431627737 0)
(1.05310956973 0.133401609885 0)
(1.11628268398 0.170777559902 0)
(1.17301272212 0.175143873181 0)
(1.2179124665 0.159583607094 0)
(1.25049858514 0.134951020619 0)
(1.27288492028 0.108411657228 0)
(1.28776723304 0.0838849722813 0)
(1.29745269467 0.0630565730586 0)
(1.30366076791 0.0462999224482 0)
(1.30759236345 0.0333205161106 0)
(1.31005372335 0.0235495251043 0)
(1.31157364908 0.0163599081349 0)
(1.31249495365 0.0111713145519 0)
(1.31303864893 0.00749150531494 0)
(1.31334674335 0.00492448419373 0)
(1.31351016038 0.00316295370021 0)
(1.31358679331 0.00197475085549 0)
(1.31361317221 0.00118819658863 0)
(1.31361202477 0.000678629740544 0)
(1.3135971888 0.000357009547246 0)
(1.31357686906 0.000160755569667 0)
(1.31355587619 4.64708348743e-05 0)
(1.31353658271 -1.5867749097e-05 0)
(1.31351992755 -4.60561888551e-05 0)
(1.3135062423 -5.70660100157e-05 0)
(1.31349534146 -5.73206767448e-05 0)
(1.31348688746 -5.20825767477e-05 0)
(1.31348049226 -4.45209524505e-05 0)
(1.3134757711 -3.64597829118e-05 0)
(1.31347237298 -2.8871781581e-05 0)
(1.31346999448 -2.22105887346e-05 0)
(1.31346837572 -1.66278606883e-05 0)
(1.31346728849 -1.21312217196e-05 0)
(1.31346656764 -8.65485207589e-06 0)
(1.31346611594 -6.09733868905e-06 0)
(1.31346583203 -4.3217514486e-06 0)
(1.31346562657 -3.12036855799e-06 0)
(1.31346549724 -2.26335099791e-06 0)
(1.31346552959 -1.54667582605e-06 0)
(1.3134656857 -9.70584513007e-07 0)
(1.31346578767 -5.57323578964e-07 0)
(1.31346578504 -1.98321391584e-07 0)
(1.31346570957 1.36899700507e-07 0)
(1.3134655821 4.46073340115e-07 0)
(1.3134654152 7.37757536077e-07 0)
(1.31346521256 1.02397972481e-06 0)
(1.31346497715 1.31529718299e-06 0)
(1.31346471959 1.62237273947e-06 0)
(1.31346447349 1.94697003256e-06 0)
(1.31346426124 2.23863769256e-06 0)
(1.31346409021 2.45883928919e-06 0)
(1.31346399084 2.5630136819e-06 0)
(1.31346401665 2.48787707523e-06 0)
(1.31346425563 2.1480060284e-06 0)
(1.31346482617 1.45486483648e-06 0)
(1.31346570075 3.57319635386e-07 0)
(1.31346696949 -1.32916854898e-06 0)
(1.31346905459 -3.82829141813e-06 0)
(1.31347217319 -7.86863112301e-06 0)
(1.31347652922 -1.47353773903e-05 0)
(1.31348235456 -2.6003915164e-05 0)
(1.31348992442 -4.32661595171e-05 0)
(1.31349972583 -6.9694696234e-05 0)
(1.31351207769 -0.000110317152664 0)
(1.31352706156 -0.000172878325704 0)
(1.31354429629 -0.000269460198515 0)
(1.31356247119 -0.000419015213468 0)
(1.31357839372 -0.000651357062528 0)
(1.31358515623 -0.0010137051134 0)
(1.31356870645 -0.00158106594283 0)
(1.3135016131 -0.00247248332792 0)
(1.31332964974 -0.00387520556546 0)
(1.3129452463 -0.00608161348056 0)
(1.3121384201 -0.00953623271306 0)
(1.31050384551 -0.0148806745126 0)
(1.30728820965 -0.0229433471807 0)
(1.30128194292 -0.0345649056783 0)
(1.29061732125 -0.0501832512609 0)
(1.271822251 -0.0685726105177 0)
(0.995736074593 0.0346338613782 0)
(1.04179514556 0.0905689223899 0)
(1.10222839074 0.121549565934 0)
(1.16491412228 0.12960583497 0)
(1.22202567185 0.122009269401 0)
(1.26951893216 0.106019939495 0)
(1.30680225354 0.0870975572757 0)
(1.33499537359 0.0686366825779 0)
(1.35574479919 0.0523698407544 0)
(1.37069619653 0.0389256197451 0)
(1.38128278782 0.0282980748887 0)
(1.38866271239 0.0201712779287 0)
(1.39373037099 0.014117510139 0)
(1.39715664745 0.00970533478865 0)
(1.39943439187 0.0065505934542 0)
(1.40091971709 0.00433445277253 0)
(1.4018662669 0.00280414339807 0)
(1.40245229068 0.001765742253 0)
(1.40280139102 0.00107419510308 0)
(1.40299808994 0.000623235828589 0)
(1.40309931271 0.000336410613808 0)
(1.40314276731 0.00015962477111 0)
(1.40315302937 5.5165859278e-05 0)
(1.40314554276 -2.99634091649e-06 0)
(1.40312978663 -3.21204494094e-05 0)
(1.40311138841 -4.38876400473e-05 0)
(1.4030933545 -4.57579614944e-05 0)
(1.4030772093 -4.24166157189e-05 0)
(1.4030635548 -3.67266666846e-05 0)
(1.40305246511 -3.03644790061e-05 0)
(1.40304373822 -2.4244634896e-05 0)
(1.40303704822 -1.88144606974e-05 0)
(1.40303203361 -1.42425759587e-05 0)
(1.4030283446 -1.05310062898e-05 0)
(1.40302568352 -7.57904366623e-06 0)
(1.40302381812 -5.26216311424e-06 0)
(1.40302257185 -3.45777957947e-06 0)
(1.40302179431 -2.02199965442e-06 0)
(1.40302132021 -8.49794932471e-07 0)
(1.40302095486 8.17078759018e-08 0)
(1.40302063002 7.90909675214e-07 0)
(1.40302042721 1.28090263269e-06 0)
(1.40302033424 1.65306981101e-06 0)
(1.4030202591 1.97241128146e-06 0)
(1.4030201669 2.27658812342e-06 0)
(1.40302005077 2.58387052251e-06 0)
(1.40301990939 2.90365125807e-06 0)
(1.40301974526 3.24068402379e-06 0)
(1.4030195597 3.59545071635e-06 0)
(1.40301934535 3.95775818104e-06 0)
(1.40301911393 4.28585764028e-06 0)
(1.40301889914 4.54782866788e-06 0)
(1.40301872959 4.70563401004e-06 0)
(1.403018631 4.7025986217e-06 0)
(1.40301862073 4.45050175085e-06 0)
(1.40301870423 3.80675847447e-06 0)
(1.40301888517 2.5677463078e-06 0)
(1.40301917197 6.10812114972e-07 0)
(1.40301978801 -2.4646342007e-06 0)
(1.40302090297 -7.4456980985e-06 0)
(1.40302238383 -1.5124415188e-05 0)
(1.4030238992 -2.68213695527e-05 0)
(1.40302497205 -4.43873391862e-05 0)
(1.40302485926 -7.08046447236e-05 0)
(1.4030220712 -0.000110660992365 0)
(1.40301386648 -0.000170982858563 0)
(1.40299543828 -0.000262643596077 0)
(1.40295860101 -0.000402509842288 0)
(1.40288941115 -0.000616634747774 0)
(1.4027641444 -0.000945627957994 0)
(1.40254276639 -0.00145282901938 0)
(1.4021589262 -0.0022366573853 0)
(1.40150105009 -0.003446166505 0)
(1.40038075457 -0.00530512372174 0)
(1.39848470576 -0.00813640729301 0)
(1.39529967196 -0.0123749441857 0)
(1.39001242873 -0.0185319094546 0)
(1.38147459413 -0.0270453922673 0)
(1.36818973432 -0.0379977072723 0)
(1.34776512167 -0.0504973747433 0)
(0.994011531674 0.0192358066565 0)
(1.03484763742 0.0523338403491 0)
(1.09199263005 0.0723631274777 0)
(1.15662420476 0.0791292323461 0)
(1.22032117083 0.0761045470919 0)
(1.27701946358 0.0673339726745 0)
(1.32424420408 0.0561509051073 0)
(1.36181575571 0.0447990129257 0)
(1.39068533228 0.0345303797086 0)
(1.41226077834 0.0258814344631 0)
(1.42801825281 0.0189465254543 0)
(1.43929887399 0.0135849826503 0)
(1.44722810914 0.00955653382838 0)
(1.45270416729 0.00660011414738 0)
(1.45641899561 0.00447418859987 0)
(1.45889148547 0.00297351188698 0)
(1.46050235475 0.00193276755135 0)
(1.46152575592 0.00122369338582 0)
(1.46215577538 0.000749550986806 0)
(1.46252760297 0.000439018920944 0)
(1.4627338821 0.000240522747373 0)
(1.46283702654 0.000117413693878 0)
(1.46287833106 4.40512989033e-05 0)
(1.46288457283 2.69310420453e-06 0)
(1.46287245172 -1.84417007379e-05 0)
(1.46285210373 -2.74354474708e-05 0)
(1.46282955538 -2.94358103652e-05 0)
(1.4628080198 -2.76866582306e-05 0)
(1.46278902535 -2.4185326524e-05 0)
(1.46277311655 -2.0112818866e-05 0)
(1.4627602842 -1.61180175404e-05 0)
(1.46275023341 -1.2523882699e-05 0)
(1.46274255342 -9.45702740029e-06 0)
(1.46273681223 -6.9280521043e-06 0)
(1.46273261116 -4.88335384359e-06 0)
(1.46272960782 -3.25398680081e-06 0)
(1.46272751408 -1.97696221572e-06 0)
(1.46272607354 -1.01088256869e-06 0)
(1.46272507439 -3.10636133853e-07 0)
(1.46272445185 2.11792478377e-07 0)
(1.46272409278 6.93351519908e-07 0)
(1.46272384723 1.16955568863e-06 0)
(1.4627236827 1.59450773024e-06 0)
(1.46272356012 1.97470837474e-06 0)
(1.46272344997 2.33142012491e-06 0)
(1.46272333325 2.67808370275e-06 0)
(1.46272319675 3.02036282093e-06 0)
(1.46272303205 3.35622264215e-06 0)
(1.46272283458 3.67560947102e-06 0)
(1.46272260177 3.9657163946e-06 0)
(1.4627223369 4.21850309799e-06 0)
(1.46272204812 4.40270272678e-06 0)
(1.46272174329 4.46795168996e-06 0)
(1.46272143248 4.34462476205e-06 0)
(1.46272113101 3.94164929609e-06 0)
(1.46272086004 3.14856954816e-06 0)
(1.46272059524 1.84316797513e-06 0)
(1.46272024329 -8.67168258796e-08 0)
(1.46271965815 -2.8953722711e-06 0)
(1.4627187071 -7.43710022653e-06 0)
(1.46271712662 -1.44972885185e-05 0)
(1.46271423571 -2.51722617343e-05 0)
(1.4627089135 -4.10049986096e-05 0)
(1.46269935188 -6.43748951091e-05 0)
(1.46268248879 -9.88812570653e-05 0)
(1.46265318039 -0.000149910455006 0)
(1.46260291688 -0.000225647750567 0)
(1.4625179402 -0.000338550929689 0)
(1.46237577453 -0.00050721682245 0)
(1.46213955482 -0.000760065859823 0)
(1.46174931392 -0.00114087678304 0)
(1.46111044876 -0.00171727449864 0)
(1.46007178848 -0.00258498114701 0)
(1.45839226861 -0.00388358367549 0)
(1.45569785925 -0.00580552296404 0)
(1.45142299402 -0.0085940073712 0)
(1.44474702271 -0.0125093322879 0)
(1.43460046382 -0.0177321657914 0)
(1.41972322707 -0.0242110843109 0)
(1.39826846305 -0.03140052643 0)
(0.993269667589 0.00617014976821 0)
(1.0315810015 0.0171020451172 0)
(1.08672182142 0.023990648105 0)
(1.15174554965 0.0265606659731 0)
(1.21823537031 0.0258180597648 0)
(1.27925775198 0.0230488877506 0)
(1.331401374 0.0193656336175 0)
(1.37377600595 0.0155468604384 0)
(1.40691055692 0.012044932718 0)
(1.43203316095 0.00906640187402 0)
(1.45060217837 0.00666059616583 0)
(1.46402988924 0.00479009197874 0)
(1.47355019394 0.00337842803069 0)
(1.48017567014 0.00233873741281 0)
(1.48470232816 0.00158891324843 0)
(1.48773624993 0.00105828859411 0)
(1.48972739328 0.000689463011772 0)
(1.4910028287 0.000437639313239 0)
(1.49179591343 0.000268887267001 0)
(1.49227028781 0.000158113042284 0)
(1.49253878285 8.71267718255e-05 0)
(1.49267786232 4.29771224293e-05 0)
(1.4927383993 1.65874578841e-05 0)
(1.49275357736 1.66738852634e-06 0)
(1.49274434477 -6.06494889643e-06 0)
(1.49272356058 -9.41027913168e-06 0)
(1.49269891983 -1.02169824806e-05 0)
(1.49267465104 -9.65425668113e-06 0)
(1.49265285206 -8.44049999331e-06 0)
(1.49263436417 -6.99378604801e-06 0)
(1.49261930954 -5.554600218e-06 0)
(1.49260742559 -4.24311350702e-06 0)
(1.49259828283 -3.10653614777e-06 0)
(1.49259140579 -2.15090580829e-06 0)
(1.4925863402 -1.36032234754e-06 0)
(1.4925826859 -7.13247246448e-07 0)
(1.49258010766 -1.88063200816e-07 0)
(1.49257833599 2.37400366119e-07 0)
(1.4925771652 6.09231545351e-07 0)
(1.49257641717 9.79076915423e-07 0)
(1.49257593782 1.28476221782e-06 0)
(1.49257563528 1.56955271968e-06 0)
(1.49257545204 1.85118612023e-06 0)
(1.4925753356 2.13988278519e-06 0)
(1.49257524672 2.44295686066e-06 0)
(1.4925751592 2.76333387621e-06 0)
(1.49257505469 3.10041351485e-06 0)
(1.49257491965 3.44966135264e-06 0)
(1.49257474393 3.80214882632e-06 0)
(1.49257451918 4.14357507905e-06 0)
(1.49257424014 4.45423569396e-06 0)
(1.49257390351 4.70247477087e-06 0)
(1.49257350333 4.84389687599e-06 0)
(1.49257302789 4.81707803742e-06 0)
(1.49257245571 4.53752475742e-06 0)
(1.49257175861 3.88784076512e-06 0)
(1.49257092302 2.71588368863e-06 0)
(1.49256981621 9.2738345565e-07 0)
(1.49256801597 -1.70361067215e-06 0)
(1.4925652209 -5.80191019481e-06 0)
(1.49256104225 -1.19017897854e-05 0)
(1.49255445561 -2.07733843749e-05 0)
(1.492543847 -3.35028813076e-05 0)
(1.49252667197 -5.16419446331e-05 0)
(1.49249881846 -7.73868479844e-05 0)
(1.49245357903 -0.000113753893523 0)
(1.4923800816 -0.000165128521037 0)
(1.49226126692 -0.000237977354767 0)
(1.49206974788 -0.000340778729736 0)
(1.49176086307 -0.000486099009856 0)
(1.49126234188 -0.000694230912688 0)
(1.49046547261 -0.000998767086947 0)
(1.48920074239 -0.00143201991073 0)
(1.48720215243 -0.00204156971651 0)
(1.48407112631 -0.0028888003293 0)
(1.47922760922 -0.00404121127919 0)
(1.47186437494 -0.00555310167074 0)
(1.46096731216 -0.00742603740523 0)
(1.44538830728 -0.00956609381288 0)
(1.42351647806 -0.0117249112413 0)
(0.993270465403 -0.00616840322413 0)
(1.03158098432 -0.0171003776203 0)
(1.08672175555 -0.0239897629256 0)
(1.15174558779 -0.0265602474312 0)
(1.21823544855 -0.0258179927919 0)
(1.2792578542 -0.0230491090177 0)
(1.33140150006 -0.0193660454277 0)