/*--------------------------------*- C++ -*----------------------------------*\
| =========                 |                                                 |
| \\      /  F ield         | OpenFOAM: The Open Source CFD Toolbox           |
|  \\    /   O peration     | Version:  v1706                                 |
|   \\  /    A nd           | Web:      www.OpenFOAM.com                      |
|    \\/     M anipulation  |                                                 |
\*---------------------------------------------------------------------------*/
FoamFile
{
    version     2.0;
    format      ascii;
    class       surfaceScalarField;
    location    "0.04";
    object      phi;
}
// * * * * * * * * * * * * * * * * * * * * * * * * * * * * * * * * * * * * * //

dimensions      [0 3 -1 0 0 0 0];
oriented        oriented;


internalField   nonuniform List<scalar> 
799
(
9.82525e-34
1.23079e-33
1.42385e-33
2.06238e-33
1.72005e-33
2.27234e-33
2.23489e-33
2.20759e-33
2.57488e-33
2.3004e-33
2.55341e-33
2.53086e-33
2.45291e-33
2.63261e-33
2.47984e-33
2.56742e-33
2.56483e-33
2.49713e-33
2.56389e-33
2.48385e-33
2.49393e-33
2.48133e-33
2.4265e-33
2.42518e-33
2.36801e-33
2.33068e-33
2.28779e-33
2.22563e-33
2.17419e-33
2.11506e-33
2.05382e-33
1.99484e-33
1.93195e-33
1.87505e-33
1.8191e-33
1.76418e-33
1.70625e-33
1.6551e-33
1.61024e-33
1.57403e-33
1.54791e-33
1.52696e-33
1.50922e-33
1.50024e-33
1.4916e-33
1.48832e-33
1.48788e-33
1.49495e-33
1.50482e-33
1.51705e-33
1.53096e-33
1.54375e-33
1.55579e-33
1.57159e-33
1.58438e-33
1.6062e-33
1.62124e-33
1.64155e-33
1.66215e-33
1.67231e-33
1.68479e-33
1.69544e-33
1.70778e-33
1.71691e-33
1.72355e-33
1.7267e-33
1.72333e-33
1.71996e-33
1.71586e-33
1.71764e-33
1.72675e-33
1.74145e-33
1.76225e-33
1.78486e-33
1.80805e-33
1.83979e-33
1.87477e-33
1.91841e-33
1.96674e-33
2.01019e-33
2.04781e-33
2.08693e-33
2.12755e-33
2.17269e-33
2.19977e-33
2.23062e-33
2.25638e-33
2.28568e-33
2.31404e-33
2.34249e-33
2.37139e-33
2.40452e-33
2.43628e-33
2.47305e-33
2.51123e-33
2.55411e-33
2.59775e-33
2.64063e-33
2.68257e-33
2.71135e-33
2.73319e-33
2.74819e-33
2.75546e-33
2.75467e-33
2.74874e-33
2.73848e-33
2.72342e-33
2.70843e-33
2.69409e-33
2.67868e-33
2.66588e-33
2.64952e-33
2.63809e-33
2.62408e-33
2.6158e-33
2.60752e-33
2.597e-33
2.58157e-33
2.57048e-33
2.56239e-33
2.55742e-33
2.56169e-33
2.56902e-33
2.58032e-33
2.5917e-33
2.60376e-33
2.61759e-33
2.63174e-33
2.65041e-33
2.67072e-33
2.68765e-33
2.70194e-33
2.71887e-33
2.73843e-33
2.75799e-33
2.77501e-33
2.7926e-33
2.81352e-33
2.83473e-33
2.85429e-33
2.87977e-33
2.90319e-33
2.9282e-33
2.95646e-33
2.98237e-33
3.00972e-33
3.03455e-33
3.05713e-33
3.07867e-33
3.09879e-33
3.11459e-33
3.13265e-33
3.15064e-33
3.16725e-33
3.1823e-33
3.1933e-33
3.20346e-33
3.217e-33
3.22603e-33
3.23308e-33
3.23947e-33
3.24709e-33
3.25377e-33
3.26129e-33
3.27182e-33
3.28217e-33
3.29364e-33
3.30804e-33
3.31621e-33
3.32919e-33
3.34367e-33
3.35937e-33
3.37263e-33
3.38091e-33
3.39008e-33
3.39596e-33
3.40348e-33
3.40423e-33
3.39746e-33
3.38547e-33
3.36285e-33
3.33577e-33
3.30151e-33
3.26204e-33
3.21239e-33
3.16838e-33
3.12108e-33
3.07874e-33
3.04146e-33
3.00372e-33
2.97513e-33
2.94795e-33
2.92576e-33
2.90864e-33
2.88928e-33
2.87611e-33
2.86633e-33
2.8494e-33
2.83247e-33
2.81345e-33
2.78781e-33
2.76008e-33
2.72911e-33
2.70483e-33
2.68608e-33
2.67819e-33
2.6826e-33
2.69829e-33
2.72717e-33
2.76401e-33
2.80689e-33
2.84977e-33
2.9062e-33
2.97315e-33
3.03785e-33
3.10312e-33
3.17224e-33
3.23722e-33
3.29515e-33
3.33878e-33
3.37207e-33
3.39708e-33
3.4268e-33
3.46066e-33
3.49348e-33
3.52714e-33
3.56316e-33
3.60599e-33
3.64873e-33
3.69387e-33
3.73299e-33
3.77362e-33
3.81575e-33
3.84829e-33
3.88045e-33
3.90659e-33
3.93052e-33
3.94903e-33
3.95581e-33
3.95752e-33
3.94847e-33
3.93241e-33
3.90808e-33
3.8896e-33
3.86744e-33
3.845e-33
3.81829e-33
3.78969e-33
3.75638e-33
3.71436e-33
3.66553e-33
3.60622e-33
3.54063e-33
3.46614e-33
3.38586e-33
3.29938e-33
3.21145e-33
3.12134e-33
3.02883e-33
2.94607e-33
2.84671e-33
2.75047e-33
2.6647e-33
2.58524e-33
2.50672e-33
2.45105e-33
2.39989e-33
2.35776e-33
2.32014e-33
2.28949e-33
2.26316e-33
2.23889e-33
2.21896e-33
2.19855e-33
2.18097e-33
2.16404e-33
2.14504e-33
2.12304e-33
2.09445e-33
2.0558e-33
2.02232e-33
1.98699e-33
1.95442e-33
1.92443e-33
1.89734e-33
1.87364e-33
1.8471e-33
1.82061e-33
1.79954e-33
1.7796e-33
1.75892e-33
1.73489e-33
1.71008e-33
1.68502e-33
1.657e-33
1.62983e-33
1.60109e-33
1.57065e-33
1.54563e-33
1.52212e-33
1.49711e-33
1.47153e-33
1.44445e-33
1.41736e-33
1.38577e-33
1.35304e-33
1.32859e-33
1.30903e-33
1.29605e-33
1.29024e-33
1.29013e-33
1.29248e-33
1.30151e-33
1.3064e-33
1.3142e-33
1.32006e-33
1.33774e-33
1.35123e-33
1.3774e-33
1.40686e-33
1.42974e-33
1.48754e-33
1.50974e-33
1.59516e-33
1.6034e-33
1.70841e-33
1.70724e-33
1.81774e-33
1.82409e-33
1.90073e-33
1.94098e-33
1.94417e-33
2.03727e-33
1.93872e-33
2.12454e-33
1.78901e-33
2.6647e-33
4.04746e-34
5.84249e-33
-5.38405e-33
1.27578e-32
-7.52918e-33
-8.16677e-33
6.70239e-32
-1.67012e-31
3.20299e-31
-4.01612e-31
2.66952e-31
4.16767e-31
-1.8875e-30
3.88544e-30
-5.67778e-30
4.90601e-30
1.01367e-30
-1.35137e-29
3.1929e-29
-4.60277e-29
4.24363e-29
-3.96781e-30
-8.03065e-29
1.84933e-28
-2.66246e-28
2.37369e-28
-1.9063e-29
-3.72475e-28
8.54252e-28
-1.13819e-27
9.12207e-28
-1.63081e-29
-1.5337e-27
3.06221e-27
-3.71898e-27
2.66717e-27
5.96655e-28
-4.98432e-27
8.81646e-27
-9.62396e-27
5.34867e-27
3.11198e-27
-1.34535e-26
2.04359e-26
-1.89328e-26
7.97097e-27
1.08526e-26
-2.90662e-26
3.72787e-26
-3.00709e-26
5.71685e-27
2.53607e-26
-4.99042e-26
5.58163e-26
-3.51218e-26
-3.10089e-27
4.44997e-26
-7.02062e-26
6.46624e-26
-3.15728e-26
-1.79829e-26
6.13596e-26
-7.71869e-26
6.13595e-26
-1.79826e-26
-3.15731e-26
6.46626e-26
-7.02061e-26
4.44995e-26
-3.10067e-27
-3.5122e-26
5.58164e-26
-4.99042e-26
2.53606e-26
5.71701e-27
-3.0071e-26
3.72787e-26
-2.90662e-26
1.08525e-26
7.97107e-27
-1.89329e-26
2.04359e-26
-1.34535e-26
3.11193e-27
5.34871e-27
-9.62398e-27
8.81646e-27
-4.9843e-27
5.96637e-28
2.66719e-27
-3.71899e-27
3.06221e-27
-1.53369e-27
-1.63128e-29
9.12208e-28
-1.13819e-27
8.54251e-28
-3.72475e-28
-1.90648e-29
2.37368e-28
-2.66247e-28
1.84932e-28
-8.03076e-29
-3.96926e-30
4.24347e-29
-4.60291e-29
3.19273e-29
-1.35153e-29
1.0119e-30
4.90417e-30
-5.67961e-30
3.88351e-30
-1.88943e-30
4.14825e-31
2.64981e-31
-4.03592e-31
3.18293e-31
-1.69033e-31
6.49813e-32
-1.02292e-32
-9.6099e-33
1.06573e-32
-7.48555e-33
3.73864e-33
-1.69723e-33
5.50696e-34
-3.38354e-34
-2.40741e-35
-2.15162e-34
-1.1849e-34
-1.88006e-34
-1.49523e-34
-1.32408e-34
-1.4294e-34
-7.74886e-35
-1.0871e-34
-3.31019e-35
-6.46992e-35
3.38542e-36
-8.27548e-36
3.98728e-35
4.96529e-35
8.12502e-35
9.85534e-35
1.12847e-34
1.33066e-34
1.40401e-34
1.49899e-34
1.56482e-34
1.57986e-34
1.59867e-34
1.5841e-34
1.5761e-34
1.56482e-34
1.48935e-34
1.44445e-34
1.37274e-34
1.26389e-34
1.13412e-34
9.39455e-35
7.18462e-35
4.76369e-35
2.21169e-35
-1.199e-36
-2.77417e-35
-5.51072e-35
-8.87733e-35
-1.30527e-34
-1.64005e-34
-2.06887e-34
-2.39989e-34
-2.72809e-34
-2.99422e-34
-3.27258e-34
-3.51896e-34
-3.71644e-34
-3.88195e-34
-3.95718e-34
-4.03547e-34
-4.0437e-34
-3.94214e-34
-3.79167e-34
-3.55093e-34
-3.21991e-34
-2.88701e-34
-2.51086e-34
-2.15162e-34
-1.79051e-34
-1.42564e-34
-1.09838e-34
-7.29512e-35
-4.43867e-35
-1.82437e-35
4.23178e-36
1.48112e-35
2.04132e-35
1.63541e-35
-1.76691e-36
-2.18895e-35
-4.39795e-35
-6.43679e-35
-9.00089e-35
-1.11639e-34
-1.34615e-34
-1.5501e-34
-1.73851e-34
-1.89837e-34
-2.06822e-34
-2.20318e-34
-2.31525e-34
-2.40186e-34
-2.45431e-34
-2.41796e-34
-2.40474e-34
-2.39448e-34
-2.37403e-34
-2.33406e-34
-2.3397e-34
-2.34347e-34
-2.34723e-34
-2.40741e-34
-2.60301e-34
-2.84376e-34
-3.09954e-34
-3.5246e-34
-3.897e-34
-4.26375e-34
-4.6117e-34
-4.97657e-34
-5.3264e-34
-5.6948e-34
-6.13138e-34
-6.56396e-34
-6.94388e-34
-7.33508e-34
-7.70982e-34
-8.05731e-34
-8.36388e-34
-8.65258e-34
-8.90555e-34
-9.02362e-34
-9.08381e-34
-9.05689e-34
-8.95299e-34
-8.78374e-34
-8.5663e-34
-8.29841e-34
-7.97196e-34
-7.65434e-34
-7.25652e-34
-6.85108e-34
-6.42587e-34
-5.99201e-34
-5.56115e-34
-5.0484e-34
-4.52753e-34
-3.97223e-34
-3.35909e-34
-2.73843e-34
-2.15162e-34
-1.53473e-34
-9.17826e-35
-3.62993e-35
1.20371e-35
4.5139e-35
7.29747e-35
8.72687e-35
9.62965e-35
9.36164e-35
8.35071e-35
6.80141e-35
4.98997e-35
3.43215e-35
1.3095e-35
-8.43417e-36
-3.2091e-35
-5.9433e-35
-8.00277e-35
-1.02315e-34
-1.09838e-34
-1.04572e-34
-9.32872e-35
-7.55138e-35
-5.12516e-35
-2.25695e-35
1.64452e-35
5.56714e-35
1.11343e-34
1.6551e-34
2.28704e-34
2.87385e-34
3.44185e-34
3.92709e-34
4.40857e-34
4.87054e-34
5.38659e-34
5.8455e-34
6.30441e-34
6.63543e-34
6.84984e-34
7.00971e-34
7.07906e-34
7.0485e-34
6.9909e-34
6.87053e-34
6.68057e-34
6.43795e-34
6.25927e-34
6.07495e-34
5.9795e-34
5.88311e-34
5.83986e-34
5.82293e-34
5.82293e-34
5.81352e-34
5.81635e-34
5.8502e-34
5.85602e-34
5.91588e-34
5.93246e-34
5.93442e-34
5.91509e-34
5.88123e-34
5.85584e-34
5.77779e-34
5.70256e-34
5.61228e-34
5.49191e-34
5.45994e-34
5.43549e-34
5.42232e-34
5.46573e-34
5.56314e-34
5.70538e-34
5.96117e-34
6.28936e-34
6.62038e-34
7.0003e-34
7.37458e-34
7.77895e-34
8.20025e-34
8.6065e-34
8.96949e-34
9.19707e-34
9.35276e-34
9.36411e-34
9.32108e-34
9.23086e-34
9.07341e-34
8.84912e-34
8.57265e-34
8.24539e-34
7.794e-34
7.35013e-34
6.86677e-34
6.42666e-34
6.04862e-34
5.75269e-34
5.48439e-34
5.26621e-34
5.18158e-34
5.1308e-34
5.23612e-34
5.39411e-34
5.59817e-34
5.86807e-34
6.13061e-34
6.45925e-34
6.7125e-34
6.94003e-34
7.1052e-34
7.14664e-34
7.10448e-34
6.98875e-34
6.74245e-34
6.53372e-34
6.22832e-34
5.91558e-34
5.58165e-34
5.2335e-34
4.92243e-34
4.55405e-34
4.26235e-34
3.98968e-34
3.73854e-34
3.56269e-34
3.43385e-34
3.37414e-34
3.34028e-34
3.31019e-34
3.32524e-34
3.55093e-34
3.79167e-34
4.10765e-34
4.52894e-34
4.97281e-34
5.43172e-34
5.80788e-34
6.09799e-34
6.2414e-34
6.3124e-34
6.24405e-34
6.17279e-34
6.04372e-34
5.91156e-34
5.72842e-34
5.51636e-34
5.25117e-34
4.94272e-34
4.61546e-34
4.26563e-34
3.82177e-34
3.42304e-34
3.00174e-34
2.59737e-34
2.19676e-34
1.72469e-34
1.28552e-34
8.59521e-35
4.36344e-35
1.27894e-35
-2.25695e-35
-5.26621e-35
-7.6078e-35
-1.06829e-34
-1.25073e-34
-1.43692e-34
-1.61842e-34
-1.62594e-34
-1.76042e-34
-1.625e-34
-1.6469e-34
-1.59491e-34
-1.0382e-34
-1.3222e-34
-5.15337e-35
-4.2882e-35
-4.22238e-35
1.08334e-34
-6.77085e-36
1.86574e-34
2.09144e-34
1.22722e-34
5.47686e-34
1.9485e-34
6.16899e-34
7.20719e-34
3.59607e-34
1.33405e-33
5.25117e-34
1.20295e-33
1.60496e-33
5.89064e-34
2.55176e-33
1.0523e-33
2.04179e-33
2.91664e-33
1.11945e-33
3.97599e-33
1.96355e-33
2.60301e-33
3.00776e-33
)
;

boundaryField
{
    left
    {
        type            calculated;
        value           uniform 0;
    }
    right
    {
        type            calculated;
        value           uniform 0;
    }
    empty
    {
        type            empty;
        value           nonuniform 0();
    }
}


// ************************************************************************* //
