/*--------------------------------*- C++ -*----------------------------------*\
| =========                 |                                                 |
| \\      /  F ield         | OpenFOAM: The Open Source CFD Toolbox           |
|  \\    /   O peration     | Version:  2106                                  |
|   \\  /    A nd           | Website:  www.openfoam.com                      |
|    \\/     M anipulation  |                                                 |
\*---------------------------------------------------------------------------*/
FoamFile
{
    version     2.0;
    format      ascii;
    arch        "LSB;label=32;scalar=64";
    class       surfaceScalarField;
    location    "0.03";
    object      phi;
}
// * * * * * * * * * * * * * * * * * * * * * * * * * * * * * * * * * * * * * //

dimensions      [0 3 -1 0 0 0 0];

oriented        oriented;

internalField   nonuniform List<scalar> 
22100
(
3.38445956426e-05
1.61554043574e-05
2.24561317677e-05
1.13884641355e-05
1.62624450237e-05
6.19368692747e-06
1.28133021412e-05
3.44914294876e-06
1.0840274857e-05
1.97302729892e-06
9.6697595867e-06
1.17051528021e-06
8.95505084495e-06
7.1470877587e-07
8.51377955436e-06
4.41271395069e-07
8.24360117596e-06
2.7017854211e-07
8.08263053949e-06
1.60970817052e-07
7.99116924577e-06
9.14614705215e-08
7.94297552101e-06
4.8193878847e-08
7.92067506903e-06
2.2300615594e-08
7.91293382235e-06
7.74141498773e-09
7.91223789577e-06
6.96070959854e-10
7.91543023323e-06
-3.19228304039e-09
7.91959921638e-06
-4.16909742176e-09
7.92356745677e-06
-3.9685715804e-09
7.92689258719e-06
-3.32569807654e-09
7.92947683793e-06
-2.58497693782e-09
7.9313786144e-06
-1.90257667921e-09
7.93265282383e-06
-1.27494821953e-09
7.93356727324e-06
-9.14994700312e-10
7.93419007883e-06
-6.23109367769e-10
7.93460081533e-06
-4.1078484953e-10
7.93486537351e-06
-2.64403401571e-10
7.93503221028e-06
-1.66568145388e-10
7.9351354226e-06
-1.02873449781e-10
7.93519802881e-06
-6.22363508239e-11
7.93523378558e-06
-3.54048962887e-11
7.9352505464e-06
-1.64516686482e-11
7.93525600023e-06
-5.21237540421e-12
7.93525510729e-06
1.03758511985e-12
7.93525036256e-06
4.78746089561e-12
7.93524326571e-06
7.04542064063e-12
7.93523474401e-06
8.38791180501e-12
7.93522538061e-06
9.18896870468e-12
7.93521558383e-06
9.65407053883e-12
7.93520561111e-06
9.92031096529e-12
7.93519556977e-06
1.00953830607e-11
7.93518543896e-06
1.026559735e-11
7.93517509068e-06
1.05052974608e-11
7.93516431674e-06
1.09018884335e-11
7.9351528388e-06
1.15902242375e-11
7.93514027556e-06
1.27366555114e-11
7.93512610761e-06
1.44681922375e-11
7.93510967898e-06
1.6834203773e-11
7.93509033735e-06
1.97407837704e-11
7.93506749871e-06
2.31050892276e-11
7.93504065325e-06
2.69155703813e-11
7.9350093182e-06
3.12155860361e-11
7.9349729357e-06
3.61063496888e-11
7.93493079427e-06
4.17232435852e-11
7.93488201729e-06
4.82071159619e-11
7.93482560035e-06
5.57145864618e-11
7.93476049077e-06
6.43893672679e-11
7.93468573887e-06
7.41961069452e-11
7.93460081468e-06
8.46433108707e-11
7.93450624984e-06
9.45088709424e-11
7.93440460017e-06
1.01694519141e-10
7.93430374307e-06
1.00949518126e-10
7.93421998249e-06
8.39746008833e-11
7.93416934041e-06
5.11179235286e-11
7.93417968952e-06
-9.56036307917e-12
7.93430443785e-06
-1.23769458093e-10
7.93463291275e-06
-3.27522050695e-10
7.93531003582e-06
-6.76409108352e-10
7.93656515734e-06
-1.25476465856e-09
7.93874372337e-06
-2.17852958347e-09
7.94229024215e-06
-3.54670584833e-09
7.94831385477e-06
-6.02395231082e-09
7.95846402371e-06
-1.01505498691e-08
7.97504989469e-06
-1.65861407313e-08
8.00262106073e-06
-2.75712551023e-08
8.05130712055e-06
-4.8686006643e-08
8.14748299454e-06
-9.61758530977e-08
8.36498006793e-06
-2.17497281338e-07
8.94183294948e-06
-5.76853351328e-07
1.07665521547e-05
-1.82471983471e-06
-6.87281414207e-06
1.76393658044e-05
5.02181605565e-05
1.59372440193e-05
4.4251942764e-05
1.73546822215e-05
3.78067304715e-05
1.26388993782e-05
3.27097171292e-05
8.54615634149e-06
2.90585699513e-05
5.62417446022e-06
2.65589216845e-05
3.67016357606e-06
2.48859020343e-05
2.3877285493e-06
2.37865242684e-05
1.54064937157e-06
2.3079914623e-05
9.76788415948e-07
2.26388375294e-05
6.02048133364e-07
2.23740139296e-05
3.56285279711e-07
2.22231393691e-05
1.99068670897e-07
2.21433552695e-05
1.020849537e-07
2.21059369274e-05
4.51599467616e-08
2.20927145403e-05
1.39184803346e-08
2.20913350298e-05
-1.81302639909e-09
2.20953130984e-05
-8.14777158464e-09
2.21010560018e-05
-9.71243947001e-09
2.21067140448e-05
-8.98494718946e-09
2.21115278017e-05
-7.40004268229e-09
2.21153121193e-05
-5.6880873555e-09
2.21182074607e-05
-4.17117020997e-09
2.21202502326e-05
-2.95825650309e-09
2.21216660507e-05
-2.03900529219e-09
2.21226291385e-05
-1.37362011158e-09
2.212327482e-05
-9.09633081943e-10
2.21237059403e-05
-5.9710996429e-10
2.21240005523e-05
-3.96851108959e-10
2.21241816598e-05
-2.42737599692e-10
2.21242858648e-05
-1.39083031335e-10
2.21243432173e-05
-7.34045746506e-11
2.21243728211e-05
-3.45889558053e-11
2.2124386438e-05
-1.25243303727e-11
2.21243902402e-05
8.97185769524e-13
2.21243879568e-05
9.13585532184e-12
2.21243818755e-05
1.42407603238e-11
2.21243733467e-05
1.75497414619e-11
2.21243631625e-05
1.97999134198e-11
2.21243517236e-05
2.14679514037e-11
2.21243391562e-05
2.28900041079e-11
2.21243254064e-05
2.42895235137e-11
2.21243103171e-05
2.58460638206e-11
2.2124293701e-05
2.77598178178e-11
2.21242753526e-05
3.02737536091e-11
2.21242549819e-05
3.36241785662e-11
2.21242321304e-05
3.79746807524e-11
2.21242061139e-05
4.34624860691e-11
2.21241762308e-05
4.99983141076e-11
2.21241418398e-05
5.7547105147e-11
2.21241023448e-05
6.61551286466e-11
2.21240571788e-05
7.58561748529e-11
2.21240058247e-05
8.66765008703e-11
2.21239479136e-05
9.86096815696e-11
2.21238833933e-05
1.11555794063e-10
2.21238127495e-05
1.25236161818e-10
2.21237372964e-05
1.38989014167e-10
2.21236596746e-05
1.51334634547e-10
2.21235849758e-05
1.5917181076e-10
2.2123522939e-05
1.56590021103e-10
2.21234908254e-05
1.3404359253e-10
2.21235212958e-05
7.09841233434e-11
2.21236764099e-05
-7.02265493635e-11
2.21240555594e-05
-3.26672651843e-10
2.2124826702e-05
-7.79085138427e-10
2.21260928448e-05
-1.3883706666e-09
2.21281640299e-05
-2.39758053882e-09
2.21315503101e-05
-4.06215086812e-09
2.21370508846e-05
-6.75530880177e-09
2.21459513711e-05
-1.10793316907e-08
2.21604173462e-05
-1.80132347972e-08
2.21837138783e-05
-2.93211128607e-08
2.22217656408e-05
-4.82027871178e-08
2.22842768014e-05
-7.90975199198e-08
2.23891253429e-05
-1.32419827653e-07
2.25707011575e-05
-2.30261886051e-07
2.28984376518e-05
-4.23912687332e-07
2.35163295259e-05
-8.35389905635e-07
2.47077664786e-05
-1.76829123772e-06
2.69455679504e-05
-4.06252199668e-06
-9.33326058052e-06
2.94060138774e-05
5.35199940256e-05
1.24172501782e-05
5.29508145096e-05
1.79238620308e-05
4.96989582232e-05
1.58907557894e-05
4.59368260294e-05
1.23082885837e-05
4.26146251547e-05
8.94637540495e-06
4.00091236328e-05
6.27566521539e-06
3.80977537544e-05
4.29909860007e-06
3.6757717679e-05
2.88068565579e-06
3.58528621471e-05
1.88164414498e-06
3.52638609341e-05
1.191049537e-06
3.48954891777e-05
7.24657229626e-07
3.46756808458e-05
4.18877224444e-07
3.45520732599e-05
2.25692770505e-07
3.44880893582e-05
1.09144007254e-07
3.44591563277e-05
4.28515239471e-08
3.44494366511e-05
7.90640011552e-09
3.44493903855e-05
-8.10204579893e-09
3.44533957613e-05
-1.37186274022e-08
3.44585599192e-05
-1.41501264352e-08
3.44634685329e-05
-1.23097362651e-08
3.4467567275e-05
-9.78780169031e-09
3.44707418573e-05
-7.34647995803e-09
3.44730783556e-05
-5.29514636511e-09
3.44747376331e-05
-3.69834800462e-09
3.44758819934e-05
-2.51779571878e-09
3.44766502941e-05
-1.67756432017e-09
3.44771509469e-05
-1.09727239933e-09
3.44774625551e-05
-7.07925066441e-10
3.44776779451e-05
-4.57611173156e-10
3.44778304208e-05
-2.91111916029e-10
3.44779174152e-05
-1.60070647714e-10
3.44779668304e-05
-8.38134999183e-11
3.44779935193e-05
-3.91495692345e-11
3.44780057869e-05
-1.14148829944e-11
3.4478008934e-05
5.87596937076e-12
3.44780063296e-05
1.6734477335e-11
3.4478000003e-05
2.38324606382e-11
3.44779911677e-05
2.8687270961e-11
3.44779804541e-05
3.23247831364e-11
3.4477968081e-05
3.54551922753e-11
3.44779540276e-05
3.85212196454e-11
3.44779381721e-05
4.18453249032e-11
3.44779203797e-05
4.57252580628e-11
3.44779005115e-05
5.04472178346e-11
3.44778783696e-05
5.62406150618e-11
3.44778535824e-05
6.33142577578e-11
3.44778254274e-05
7.20813608619e-11
3.44777933298e-05
8.23417390868e-11
3.44777568721e-05
9.39944823536e-11
3.44777156744e-05
1.07107169974e-10
3.44776694384e-05
1.21628623494e-10
3.4477618053e-05
1.37366842084e-10
3.44775617912e-05
1.53950351975e-10
3.44775016092e-05
1.70700497775e-10
3.44774395468e-05
1.86364811146e-10
3.44773793032e-05
1.98594259506e-10
3.4477327332e-05
2.02986567994e-10
3.44772949746e-05
1.9141820132e-10
3.44773014973e-05
1.50066447577e-10
3.44773772831e-05
5.83848954983e-11
3.44775808149e-05
-1.32150586337e-10
3.44780223927e-05
-5.1100717068e-10
3.44787435776e-05
-1.04669919382e-09
3.44798521088e-05
-1.88629461735e-09
3.44817551008e-05
-3.29015194577e-09
3.44849240491e-05
-5.56566804817e-09
3.44900835369e-05
-9.2212011295e-09
3.44984011197e-05
-1.50728239701e-08
3.45117584875e-05
-2.44369475948e-08
3.45332350713e-05
-3.94902834977e-08
3.4567839855e-05
-6.3926359707e-08
3.46232640297e-05
-1.03627220434e-07
3.47133462566e-05
-1.69179731625e-07
3.48614178203e-05
-2.80491249011e-07
3.51074320595e-05
-4.76276138233e-07
3.55183157096e-05
-8.3479671008e-07
3.61963074596e-05
-1.51338246202e-06
3.72514543508e-05
-2.82343908505e-06
3.85727432039e-05
-5.38381137042e-06
-9.84798690565e-06
3.90874697144e-05
5.3514262469e-05
8.90298783459e-06
5.55921441206e-05
1.58459806428e-05
5.52907643939e-05
1.6192135681e-05
5.36980598055e-05
1.39009932638e-05
5.17194208691e-05
1.09250144337e-05
4.98612966751e-05
8.13378949945e-06
4.83324841648e-05
5.82791124168e-06
4.71714608662e-05
4.04170906328e-06
4.63391747855e-05
2.71393033614e-06
4.57705888364e-05
1.75963559635e-06
4.53993583843e-05
1.09588784922e-06
4.51680923205e-05
6.50143499348e-07
4.50314351264e-05
3.62350177818e-07
4.49557762786e-05
1.84803015958e-07
4.49175256696e-05
8.11021212188e-08
4.49008133438e-05
2.4618515173e-08
4.48957697845e-05
-3.05895308165e-09
4.4896453691e-05
-1.44032475233e-08
4.48994069086e-05
-1.71042226864e-08
4.490287738e-05
-1.57811531053e-08
4.49060581459e-05
-1.29694267791e-08
4.49086612305e-05
-9.95020249389e-09
4.4910653705e-05
-7.2879807024e-09
4.49121127502e-05
-5.157475605e-09
4.49131473416e-05
-3.55222971514e-09
4.49138624815e-05
-2.39236202287e-09
4.491434611e-05
-1.58044281821e-09
4.49146646774e-05
-1.02599452153e-09
4.49148587562e-05
-6.51218477616e-10
4.49149659945e-05
-3.97959884659e-10
4.49150233584e-05
-2.17154861151e-10
4.49150572345e-05
-1.17515077497e-10
4.49150795962e-05
-6.14246891458e-11
4.49150912484e-05
-2.30481705954e-11
4.49150957692e-05
1.34318688512e-12
4.49150953716e-05
1.71322344935e-11
4.49150913672e-05
2.78803543955e-11
4.49150847245e-05
3.54312836043e-11
4.49150759663e-05
4.12272458887e-11
4.49150652071e-05
4.63528682075e-11
4.49150523689e-05
5.14517469093e-11
4.49150373138e-05
5.69753209565e-11
4.49150198856e-05
6.33065160715e-11
4.49149998761e-05
7.07648054447e-11
4.49149769579e-05
7.95945608174e-11
4.49149506902e-05
9.00240316653e-11
4.49149207559e-05
1.02336944659e-10
4.49148868074e-05
1.16419245299e-10
4.49148484688e-05
1.322518421e-10
4.49148054602e-05
1.49827443707e-10
4.49147576952e-05
1.68896730446e-10
4.49147053933e-05
1.8895856664e-10
4.49146492896e-05
2.09165736828e-10
4.49145909268e-05
2.28124939765e-10
4.49145329976e-05
2.43499787211e-10
4.49144797438e-05
2.5133262963e-10
4.49144374388e-05
2.45042866966e-10
4.49144146894e-05
2.14069401875e-10
4.49144234772e-05
1.41240956841e-10
4.4914486489e-05
-4.54088952794e-12
4.49146257174e-05
-2.70995953639e-10
4.49149405708e-05
-8.25099180115e-10
4.49156551938e-05
-1.76027923223e-09
4.49169599419e-05
-3.18992535805e-09
4.49191237904e-05
-5.45302607653e-09
4.49226254474e-05
-9.06662482882e-09
4.49282358587e-05
-1.48312299191e-08
4.49371746489e-05
-2.4011578102e-08
4.49513717331e-05
-3.86343157917e-08
4.49738666993e-05
-6.19856867211e-08
4.50094053211e-05
-9.94653429178e-08
4.50657869937e-05
-1.60008972236e-07
4.515550188e-05
-2.58894370365e-07
4.52980101434e-05
-4.22999186772e-07
4.55222144288e-05
-7.00480422351e-07
4.58658470826e-05
-1.17842983075e-06
4.63619365337e-05
-2.00947275676e-06
4.69821788841e-05
-3.44368247643e-06
4.74547494709e-05
-5.85638268357e-06
-9.44050564997e-06
4.70472682489e-05
5.27381334526e-05
6.16485451948e-06
5.57448151031e-05
1.2839299242e-05
5.73478697058e-05
1.45890812347e-05
5.76853262516e-05
1.35635368151e-05
5.72637021754e-05
1.13466386057e-05
5.65238773692e-05
8.87361438634e-06
5.57442638958e-05
6.60752476276e-06
5.5061964388e-05
4.72400860683e-06
5.45239353438e-05
3.25195940352e-06
5.41292552954e-05
2.15431573173e-06
5.38560366275e-05
1.36910665291e-06
5.36764940147e-05
8.29686307076e-07
5.35644211551e-05
4.74423235103e-07
5.3498239265e-05
2.50985006166e-07
5.34616525943e-05
1.17688783865e-07
5.34431231893e-05
4.31477296364e-08
5.34350225541e-05
5.04128543268e-09
5.34325206097e-05
-1.19018881126e-08
5.34327241643e-05
-1.73085387942e-08
5.3434014122e-05
-1.707192983e-08
5.34355597039e-05
-1.45157444897e-08
5.34369833384e-05
-1.13743981808e-08
5.34381482123e-05
-8.4531745235e-09
5.34390381661e-05
-6.04749877395e-09
5.34396871368e-05
-4.20105414936e-09
5.34401417941e-05
-2.84670544831e-09
5.34404474155e-05
-1.88565151499e-09
5.34406444787e-05
-1.22261838152e-09
5.34407697128e-05
-7.76045271355e-10
5.34408528958e-05
-4.80807454179e-10
5.34409237299e-05
-2.87732875809e-10
5.34409731681e-05
-1.66757957385e-10
5.34410068695e-05
-9.49659633337e-11
5.34410263101e-05
-4.23383920764e-11
5.34410349558e-05
-7.14459564462e-12
5.34410373965e-05
1.48614157155e-11
5.34410356564e-05
2.98008021602e-11
5.34410309731e-05
4.02980200765e-11
5.3441023935e-05
4.84276248652e-11
5.34410147481e-05
5.56467490327e-11
5.34410034053e-05
6.2847373643e-11
5.34409898129e-05
7.06330167585e-11
5.34409738524e-05
7.94348660436e-11
5.34409554072e-05
8.95052706151e-11
5.34409345103e-05
1.0084287003e-10
5.34409119759e-05
1.1285740917e-10
5.34408846351e-05
1.29848676341e-10
5.34408524187e-05
1.48646853952e-10
5.34408157119e-05
1.6879277996e-10
5.34407742377e-05
1.90936890822e-10
5.34407278967e-05
2.146574134e-10
5.34406769145e-05
2.39163087342e-10
5.34406219825e-05
2.63213732709e-10
5.34405644599e-05
2.84820097561e-10
5.34405066358e-05
3.00704556729e-10
5.34404521746e-05
3.05430691604e-10
5.34404071031e-05
2.89937087042e-10
5.3440383238e-05
2.37824133963e-10
5.34404218249e-05
1.02579784165e-10
5.34405214846e-05
-1.04122936414e-10
5.34407092546e-05
-4.58405219287e-10
5.34411048077e-05
-1.21998568257e-09
5.34417447121e-05
-2.39929726513e-09
5.34428139681e-05
-4.25823633291e-09
5.34445758917e-05
-7.21411764146e-09
5.34474191137e-05
-1.19092443709e-08
5.34519406978e-05
-1.93525271618e-08
5.34590685422e-05
-3.11394889446e-08
5.34702442337e-05
-4.98103174432e-08
5.34876967452e-05
-7.94385602396e-08
5.35148437229e-05
-1.26612501498e-07
5.3556899448e-05
-2.02064525306e-07
5.36215020267e-05
-3.23496504885e-07
5.37189308235e-05
-5.20427557118e-07
5.38605665269e-05
-8.4211611775e-07
5.40518249869e-05
-1.36968886254e-06
5.42719928535e-05
-2.22964160549e-06
5.44267704596e-05
-3.59846110805e-06
5.42508492828e-05
-5.68046217259e-06
-8.48934346735e-06
5.32996871349e-05
5.1984880533e-05
4.17997414911e-06
5.50643962996e-05
9.75978376414e-06
5.76526108532e-05
1.20008668609e-05
5.93532395801e-05
1.18629082321e-05
6.02744678503e-05
1.04254103898e-05
6.06643338577e-05
8.4837483852e-06
6.07499485842e-05
6.52190998773e-06
6.0689399227e-05
4.78455789752e-06
6.05766171376e-05
3.36474148306e-06
6.0460314182e-05
2.27061873782e-06
6.03615058116e-05
1.46791516896e-06
6.02860453281e-05
9.05146965183e-07
6.02325055272e-05
5.27963173775e-07
6.01966822486e-05
2.86808365066e-07
6.01739225701e-05
1.40448431955e-07
6.01601580314e-05
5.69121130477e-08
6.01522849711e-05
1.29140562944e-08
6.01480254635e-05
-7.64286183444e-09
6.01459106516e-05
-1.51943598076e-08
6.0144983691e-05
-1.61456491416e-08
6.01446742962e-05
-1.42069804503e-08
6.01446583526e-05
-1.1358922889e-08
6.01447609255e-05
-8.5559854803e-09
6.01448949483e-05
-6.1815362392e-09
6.0145021226e-05
-4.32715310273e-09
6.01451268021e-05
-2.95196495429e-09
6.01452106407e-05
-1.96910982806e-09
6.01452754561e-05
-1.28705016292e-09
6.01453270963e-05
-8.27340194464e-10
6.01453687875e-05
-5.22212735805e-10
6.01453996734e-05
-3.18385816863e-10
6.01454184016e-05
-1.8527696165e-10
6.01454229563e-05
-9.93006955e-11
6.01454171435e-05
-3.62733446161e-11
6.01454148817e-05
-4.59955447652e-12
6.01454127865e-05
1.72487403544e-11
6.01454092578e-05
3.35991035551e-11
6.01454045904e-05
4.51846036571e-11
6.01453989254e-05
5.42425225365e-11
6.01453915298e-05
6.31231175502e-11
6.01453821019e-05
7.23271185659e-11
6.0145370449e-05
8.23782655188e-11
6.01453563474e-05
9.37126519209e-11
6.01453394311e-05
1.06656918471e-10
6.01453190311e-05
1.21466395583e-10
6.0145293643e-05
1.38392235915e-10
6.01452658342e-05
1.57690152765e-10
6.01452351126e-05
1.7926176991e-10
6.01452005582e-05
2.03069000212e-10
6.01451620343e-05
2.28974873991e-10
6.01451196003e-05
2.5638355518e-10
6.01450736548e-05
2.84237241854e-10
6.01450251467e-05
3.1084446144e-10
6.01449757667e-05
3.33500843977e-10
6.01449281326e-05
3.47908959433e-10
6.01448858451e-05
3.47509112977e-10
6.0144852702e-05
3.22955601532e-10
6.01448276182e-05
2.62783286131e-10
6.01447709516e-05
1.5918029636e-10
6.01447362239e-05
-6.92952354488e-11
6.01448560099e-05
-5.77879274101e-10
6.01450533688e-05
-1.41681953842e-09
6.01454043117e-05
-2.74953738844e-09
6.01460024004e-05
-4.85555050097e-09
6.0146971222e-05
-8.18223909723e-09
6.0148495019e-05
-1.34325577541e-08
6.01508484259e-05
-2.17057706678e-08
6.01544383648e-05
-3.47295916324e-08
6.01598601976e-05
-5.5232540226e-08
6.01679628364e-05
-8.75415440255e-08
6.01798941324e-05
-1.38543747261e-07
6.01970504311e-05
-2.19220273438e-07
6.0220671994e-05
-3.47117344398e-07
6.02504348616e-05
-5.50189974416e-07
6.0280677943e-05
-8.7235924326e-07
6.02914736651e-05
-1.38048521486e-06
6.02308259542e-05
-2.16899495992e-06
5.99848041739e-05
-3.35244032134e-06
5.93377587998e-05
-5.03341734168e-06
-7.17140234168e-06
5.80198177833e-05
5.14368294509e-05
2.74314483643e-06
5.42618545932e-05
6.93475889516e-06
5.72369426357e-05
9.02577899408e-06
5.97613583935e-05
9.33849253387e-06
6.16668411295e-05
8.51992764827e-06
6.30012964446e-05
7.14929294869e-06
6.38877199353e-05
5.63548634291e-06
6.44521119854e-05
4.22016571183e-06
6.47974807042e-05
3.0193726956e-06
6.49998697973e-05
2.068229699e-06
6.51122473451e-05
1.35553772957e-06
6.51700708892e-05
8.4732353313e-07
6.51962951474e-05
5.01738997892e-07
6.52052775155e-05
2.77826018155e-07
6.52056424396e-05
1.40083473947e-07
6.52023121085e-05
6.02423583284e-08
6.51979225934e-05
1.73033612181e-08
6.51937094324e-05
-3.4300721245e-09
6.51901923475e-05
-1.16777716341e-08
6.51874643614e-05
-1.34182278714e-08
6.51854522716e-05
-1.21954075555e-08
6.5184021472e-05
-9.92847531448e-09
6.51830323358e-05
-7.56700118194e-09
6.51823642854e-05
-5.51344444837e-09
6.51819222837e-05
-3.88495014674e-09
6.51816359069e-05
-2.66529399027e-09
6.51814546078e-05
-1.78748567895e-09
6.51813424749e-05
-1.17460014791e-09
6.51812725323e-05
-7.57116253351e-10
6.51812276391e-05
-4.77082062829e-10
6.51811986721e-05
-2.89198167871e-10
6.51811785513e-05
-1.64906633633e-10
6.5181165859e-05
-8.62954928494e-11
6.51811670665e-05
-3.70942412145e-11
6.51811705116e-05
-7.60707548511e-12
6.51811721487e-05
1.60453166432e-11
6.5181170825e-05
3.52945609319e-11
6.5181168304e-05
4.79829814373e-11
6.5181164058e-05
5.86682733076e-11
6.51811583679e-05
6.89223310535e-11
6.51811510981e-05
7.96865610657e-11
6.51811419923e-05
9.15959770331e-11
6.51811307377e-05
1.05101268839e-10
6.51811169696e-05
1.20547589622e-10
6.51811002834e-05
1.3823074662e-10
6.51810802471e-05
1.58439341035e-10
6.51810564818e-05
1.81367610355e-10
6.5181030261e-05
2.0524716179e-10
6.51810013503e-05
2.31544853172e-10
6.51809683202e-05
2.61338266634e-10
6.51809310016e-05
2.92830709921e-10
6.51808894454e-05
3.24845532395e-10
6.51808438674e-05
3.55595395665e-10
6.51807945994e-05
3.82217791378e-10
6.51807420551e-05
4.0019740385e-10
6.51806868213e-05
4.02656208015e-10
6.51806303146e-05
3.79386707733e-10
6.51805775647e-05
3.15432312962e-10
6.51805439594e-05
1.92735924561e-10
6.51804923908e-05
-1.76522708077e-11
6.51804404311e-05
-5.25683419083e-10
6.51803852981e-05
-1.3612722156e-09
6.51803270731e-05
-2.69074692786e-09
6.51802569959e-05
-4.78483778109e-09
6.51801452394e-05
-8.06991370968e-09
6.5179928286e-05
-1.32152753398e-08
6.51794845008e-05
-2.12620015224e-08
6.51785880953e-05
-3.38335251814e-08
6.51768242854e-05
-5.34691612185e-08
6.51734299915e-05
-8.41473937078e-08
6.51669881289e-05
-1.32101535065e-07
6.51548371937e-05
-2.07068587416e-07
6.51318924918e-05
-3.24171789956e-07
6.5088302251e-05
-5.06599171682e-07
6.50049534725e-05
-7.89010587514e-07
6.48453332893e-05
-1.22086579658e-06
6.45427802075e-05
-1.86644294484e-06
6.39851130848e-05
-2.79477413268e-06
6.30048367137e-05
-4.05314141273e-06
-5.59499499994e-06
6.14284296129e-05
5.10828864519e-05
1.66025856504e-06
5.35988493776e-05
4.41879623877e-06
5.6649446888e-05
5.97518165266e-06
5.96076159495e-05
6.38032352866e-06
6.21513180857e-05
5.97622540218e-06
6.41750580169e-05
5.12555281685e-06
6.56967502937e-05
4.11379381469e-06
6.67898546479e-05
3.12706115834e-06
6.75435302099e-05
2.26569705499e-06
6.80426584794e-05
1.56910144003e-06
6.83594221109e-05
1.03877415245e-06
6.8551001745e-05
6.5574394071e-07
6.86602909261e-05
3.9244981536e-07
6.87179486794e-05
2.20168244919e-07
6.87448859213e-05
1.1314622523e-07
6.87546944622e-05
5.04337793978e-08
6.87557704389e-05
1.62272358735e-08
6.87529735387e-05
-6.33463662959e-10
6.87489692585e-05
-7.67392252428e-09
6.87450325626e-05
-9.48201849309e-09
6.87416924662e-05
-8.8557145829e-09
6.87390791067e-05
-7.31535663889e-09
6.87371392346e-05
-5.62718927643e-09
6.87357527343e-05
-4.1268357451e-09
6.87347902151e-05
-2.92220770161e-09
6.8734137773e-05
-2.01257572458e-09
6.87337044841e-05
-1.35390389817e-09
6.87334216735e-05
-8.9151265356e-10
6.87332393891e-05
-5.74601617341e-10
6.87331234687e-05
-3.60968045465e-10
6.87330527049e-05
-2.18224147799e-10
6.87330129938e-05
-1.24909783433e-10
6.87329921526e-05
-6.50535121383e-11
6.87329785733e-05
-2.2998081087e-11
6.87329644359e-05
7.10923138844e-12
6.87329574874e-05
2.35517308351e-11
6.87329553599e-05
3.78980395064e-11
6.87329536575e-05
5.00554206528e-11
6.8732951438e-05
6.11542441858e-11
6.8732948226e-05
7.23197368644e-11
6.87329437434e-05
8.43036847479e-11
6.87329377956e-05
9.76408204899e-11
6.87329302045e-05
1.12745840072e-10
6.87329207961e-05
1.29962200554e-10
6.8732909415e-05
1.49575816743e-10
6.87328959677e-05
1.71793571387e-10
6.87328803736e-05
1.9675569127e-10
6.87328609085e-05
2.24313355738e-10
6.87328372044e-05
2.54597239509e-10
6.87328101051e-05
2.87540140718e-10
6.87327794499e-05
3.22453706779e-10
6.8732745074e-05
3.58248148267e-10
6.87327067594e-05
3.93180411597e-10
6.87326641366e-05
4.24442635703e-10
6.8732616545e-05
4.47669486436e-10
6.87325628405e-05
4.56364465974e-10
6.87325009235e-05
4.41298703972e-10
6.87324263707e-05
3.89939023655e-10
6.87323330811e-05
2.85974892523e-10
6.87322032384e-05
1.12198429365e-10
6.8731989575e-05
-3.11885588163e-10
6.87316912359e-05
-1.06263436456e-09
6.87312217618e-05
-2.22081664057e-09
6.87304757567e-05
-4.0382814272e-09
6.8729264901e-05
-6.85859259889e-09
6.87272779712e-05
-1.12281923202e-08
6.87240036671e-05
-1.79879471006e-08
6.87186012823e-05
-2.84316686382e-08
6.87096886473e-05
-4.45569994568e-08
6.86949913149e-05
-6.94500955497e-08
6.86707575985e-05
-1.07867238862e-07
6.86307811776e-05
-1.67091182397e-07
6.85647588622e-05
-2.58148492704e-07
6.8455565824e-05
-3.9740553042e-07
6.82748909116e-05
-6.0833575906e-07
6.79767269904e-05
-9.22702590799e-07
6.7489279408e-05
-1.37899641983e-06
6.67087615031e-05
-2.01425710878e-06
6.55026092217e-05
-2.84698942068e-06
-3.84101112807e-06
6.37486257097e-05
5.08770367736e-05
7.83221937841e-07
5.31506834383e-05
2.14514985998e-06
5.61607165896e-05
2.96514864256e-06
5.93156645467e-05
3.22537554061e-06
6.22232269764e-05
3.06866278641e-06
6.46822693511e-05
2.66651012267e-06
6.6632495107e-05
2.16356773556e-06
6.80999392429e-05
1.65961678196e-06
6.91538821348e-05
1.21175403631e-06
6.98781387836e-05
8.44844758833e-07
7.03541768915e-05
5.62736030282e-07
7.06525598934e-05
3.57360894003e-07
7.08297722536e-05
2.15237396564e-07
7.09282632937e-05
1.216771839e-07
7.09781987888e-05
6.32107606105e-08
7.09999051536e-05
2.87274285064e-08
7.10063688614e-05
9.76344622932e-09
7.10054283441e-05
3.06821783564e-10
7.10015000258e-05
-3.74596342147e-09
7.09968995334e-05
-4.8818912151e-09
7.09926879953e-05
-4.64443458435e-09
7.09892462722e-05
-3.87373851712e-09
7.09866169159e-05
-2.99778107664e-09
7.09846977532e-05
-2.20750678316e-09
7.09833432159e-05
-1.56745448667e-09
7.0982412018e-05
-1.08114761871e-09
7.09817857655e-05
-7.2743050573e-10
7.09813724249e-05
-4.78000505377e-10
7.09811042128e-05
-3.0628109673e-10
7.0980933315e-05
-1.89980814252e-10
7.09808271105e-05
-1.11874051775e-10
7.09807622278e-05
-5.97490019041e-11
7.09807222254e-05
-2.45923168831e-11
7.09806991863e-05
6.59223051798e-13
7.09806890739e-05
1.79106260004e-11
7.09806827924e-05
3.05006423301e-11
7.09806797274e-05
4.15544547542e-11
7.09806782281e-05
5.20414335809e-11
7.09806771609e-05
6.25864939764e-11
7.09806758428e-05
7.38787934091e-11
7.09806738542e-05
8.64208300336e-11
7.09806709107e-05
1.00618640196e-10
7.09806667965e-05
1.16825023898e-10
7.09806613237e-05
1.35358980763e-10
7.09806542972e-05
1.56493522577e-10
7.09806454796e-05
1.80428558747e-10
7.09806346043e-05
2.07284699721e-10
7.09806213023e-05
2.37008982109e-10
7.0980605298e-05
2.69696237379e-10
7.09805863964e-05
3.05313583303e-10
7.09805643266e-05
3.43363612657e-10
7.09805386495e-05
3.82957911486e-10
7.0980508584e-05
4.22629722915e-10
7.09804727583e-05
4.60028289062e-10
7.09804288915e-05
4.91551352457e-10
7.09803734803e-05
5.11865395175e-10
7.09803015632e-05
5.1326351866e-10
7.09802065783e-05
4.84905923034e-10
7.09800808527e-05
4.116403472e-10
7.09799202928e-05
2.72715279964e-10
7.09795868051e-05
2.16683184959e-11
7.09790628515e-05
-5.38431936365e-10
7.09782439294e-05
-1.40145948337e-09
7.09769220029e-05
-2.71587599109e-09
7.09747839256e-05
-4.72023847827e-09
7.0971320027e-05
-7.76441188397e-09
7.09657055784e-05
-1.23740419061e-08
7.09566110154e-05
-1.93377938637e-08
7.09418971874e-05
-2.98435609157e-08
7.09181299082e-05
-4.56826102779e-08
7.08798111477e-05
-6.95476476335e-08
7.08181735796e-05
-1.05452352438e-07
7.07193171441e-05
-1.59290870652e-07
7.0561415168e-05
-2.39502915214e-07
7.03107549001e-05
-3.57675584007e-07
6.99166915865e-05
-5.28639980477e-07
6.9306706671e-05
-7.69012571955e-07
6.83850243579e-05
-1.09257557682e-06
6.70404666483e-05
-1.50243185948e-06
-1.97689205462e-06
6.51763480349e-05
5.07831632381e-05
5.88804891546e-11
5.29282607296e-05
5.26429657684e-11
5.58933819542e-05
2.75485669178e-11
5.91187442889e-05
1.31232878681e-11
6.21874040448e-05
2.74581352861e-12
6.48539180175e-05
-4.24547096957e-12
6.70174927884e-05
-7.43023967661e-12
6.86771165662e-05
-7.29105027486e-12
6.98888753196e-05
-4.88539234192e-12
7.0733721598e-05
-1.62032817398e-12
7.12964561553e-05
1.37903925896e-12
7.16538139244e-05
3.02486619058e-12
7.18690484855e-05
2.76593934964e-12
7.19907248393e-05
8.46954143241e-13
7.2053937682e-05
-1.99563129271e-12
7.20826701868e-05
-5.00311850397e-12
7.20924405556e-05
-6.95186673805e-12
7.20927554602e-05
-8.25572743687e-12
7.20890189509e-05
-9.7028624622e-12
7.2084147545e-05
-1.06872445365e-11
7.20795140875e-05
-1.10531625948e-11
7.20756509348e-05
-1.05078444196e-11
7.2072662308e-05
-8.94699955613e-12
7.20704615757e-05
-6.50634958335e-12
7.20688978359e-05
-3.4359934575e-12
7.20678167564e-05
1.94809176573e-13
7.20670863474e-05
3.18253416126e-12
7.20666022466e-05
6.20933600721e-12
7.2066286977e-05
9.0241529877e-12
7.20660851866e-05
1.18436249554e-11
7.20659584934e-05
1.4947137075e-11
7.20658807193e-05
1.83436783756e-11
7.20658344773e-05
2.22002188622e-11
7.20658089046e-05
2.6963537383e-11
7.20657954548e-05
3.21735811031e-11
7.20657888653e-05
3.79014707657e-11
7.206578639e-05
4.47784603933e-11
7.2065786191e-05
5.28662317949e-11
7.20657869761e-05
6.22507257869e-11
7.20657879844e-05
7.31232751275e-11
7.20657887784e-05
8.57071099729e-11
7.20657890955e-05
1.00263583834e-10
7.20657887648e-05
1.17057487104e-10
7.20657876516e-05
1.36345904275e-10
7.20657856187e-05
1.58353373404e-10
7.2065782491e-05
1.83258764925e-10
7.20657780409e-05
2.11206728357e-10
7.20657719478e-05
2.4226523393e-10
7.20657639595e-05
2.76551213807e-10
7.20657538985e-05
3.14080744506e-10
7.20657414531e-05
3.54577635837e-10
7.20657260202e-05
3.97449959595e-10
7.20657064935e-05
4.41654292553e-10
7.20656809293e-05
4.85511225521e-10
7.20656461253e-05
5.26508015392e-10
7.20655971083e-05
5.61053411671e-10
7.20655263667e-05
5.84083869511e-10
7.20654226814e-05
5.8855689433e-10
7.20652695584e-05
5.64638379471e-10
7.20650463829e-05
4.95764857662e-10
7.20647154922e-05
3.52569385677e-10
7.2064056468e-05
1.20844370041e-10
7.20629631255e-05
-3.07680700525e-10
7.20612807623e-05
-1.03312007608e-09
7.20585634203e-05
-2.00279477412e-09
7.2054176542e-05
-3.37790813346e-09
7.20471099607e-05
-5.30823577294e-09
7.20357509806e-05
-7.97961067353e-09
7.20175307317e-05
-1.1623659959e-08
7.19883715333e-05
-1.65230735853e-08
7.19418329159e-05
-2.30080290879e-08
7.18678130422e-05
-3.14310965596e-08
7.17506222239e-05
-4.20987754577e-08
7.15662417258e-05
-5.51216831873e-08
7.12786931036e-05
-7.0127054178e-08
7.08358352454e-05
-8.57829190332e-08
7.0165918551e-05
-9.90969378055e-08
6.91780095929e-05
-1.04667296268e-07
6.77708387737e-05
-9.52610817366e-08
-6.25422756378e-08
6.58564895947e-05
5.07831622951e-05
-7.83103242677e-07
5.29282598764e-05
-2.14504465548e-06