/*--------------------------------*- C++ -*----------------------------------*\
| =========                 |                                                 |
| \\      /  F ield         | OpenFOAM: The Open Source CFD Toolbox           |
|  \\    /   O peration     | Version:  2106                                  |
|   \\  /    A nd           | Website:  www.openfoam.com                      |
|    \\/     M anipulation  |                                                 |
\*---------------------------------------------------------------------------*/
FoamFile
{
    version     2.0;
    format      ascii;
    arch        "LSB;label=32;scalar=64";
    class       volScalarField;
    location    "0.5";
    object      p;
}
// * * * * * * * * * * * * * * * * * * * * * * * * * * * * * * * * * * * * * //

dimensions      [0 2 -2 0 0 0 0];

internalField   nonuniform List<scalar> 
11200
(
150.098897856
147.170295297
146.056442775
145.529109319
145.161777285
144.866996995
144.605351904
144.356812726
144.112293868
143.867225145
143.618908833
143.365589767
143.106035732
142.839311276
142.564649955
142.28137894
141.988873039
141.686526811
141.373741756
141.049929654
140.714466548
140.366703085
140.005980605
139.631630965
139.242968535
138.839292043
138.419885455
137.984018531
137.530947528
137.059915803
136.570154348
136.060882263
135.531306982
134.980624385
134.408019825
133.812669172
133.193738369
132.550384141
131.881753804
131.186985951
130.46521078
129.715550347
128.937118868
128.129022585
127.290359884
126.420221015
125.517687415
124.581831376
123.611714837
122.606387441
121.564884742
120.486225162
119.369406326
118.213400307
117.017147605
115.779549177
114.499456407
113.17565859
111.806867109
110.391695879
108.928636464
107.416025853
105.852006666
104.234478218
102.561031054
100.828859716
99.0346542686
97.1744548971
95.243457168
93.2357461031
91.1439325132
88.9586569867
86.6677209624
84.2549381458
81.6982227533
78.9659146433
76.0104137211
72.7591423597
69.0583686219
64.2950745855
148.305856322
146.947681432
146.156708169
145.656691538
145.265700942
144.941816478
144.657294028
144.39269099
144.137202488
143.884679555
143.631294285
143.374532624
143.112657357
142.844392192
142.568737141
142.284857981
141.992017966
141.689534826
141.376750263
141.053002389
140.717640765
140.369989626
140.009404794
139.635218004
139.246733169
138.843243334
138.424029629
137.98836001
137.535489446
137.064660292
136.575102558
136.066033692
135.536659151
134.986178669
134.413779485
133.818637573
133.199918598
132.556779111
131.888366506
131.193819384
130.472268164
129.722835207
128.944634987
128.136774146
127.298351597
126.428458333
125.526176815
124.590580506
123.620732847
122.615685443
121.574476185
120.496126433
119.379637494
118.223986125
117.028118511
115.790942635
114.511318603
113.18804665
111.819851584
110.405364103
108.943097516
107.431416332
105.868496705
104.252275605
102.580385777
100.850087141
99.0581638997
97.2007791015
95.2732931765
93.2700211433
91.1838938878
89.0059553002
86.7246581792
84.3248668076
81.7861861623
79.0801082068
76.1658350152
72.9855328638
69.436413007
65.323625747
147.31066689
146.656465715
146.10410817
145.666488064
145.294861868
144.972758177
144.683656961
144.413422218
144.152958557
143.896476566
143.640090684
143.381118783
143.117648692
142.848253633
142.571812972
142.287398673
141.994201719
141.691483938
141.378547245
141.05471469
140.719324013
140.37173518
140.011203993
139.637076577
139.248660824
138.845247238
138.426114648
137.990529926
137.537747721
137.067010621
136.577549364
136.068583593
135.539322417
134.988958273
134.416673543
133.821646116
133.203043042
132.560021287
131.89172922
131.197306419
130.475884041
129.726585477
128.948526159
128.140814026
127.302549567
126.432825636
125.5307271
124.595330361
123.625702203
122.62089848
121.579962372
120.50192178
119.385785935
118.230541351
117.035146014
115.798522266
114.519547788
113.197044754
111.829765018
110.416372431
108.955420225
107.445321391
105.884312095
104.270424395
102.601420327
100.874706087
99.0872406233
97.2354254047
95.3149462214
93.3205643811
91.2458302893
89.0826814233
86.8210233497
84.4479404741
81.9467123943
79.2954798
76.4662700221
73.4274693214
70.1431025969
66.5901518585
146.760906961
146.397524887
145.997624982
145.628632018
145.291012584
144.982907641
144.697542227
144.426836554
144.16446289
143.905793754
143.647410583
143.386781459
143.122006457
142.851618506
142.574441951
142.289494819
141.995921354
141.692945731
141.379840955
141.055907019
140.720452737
140.372787668
140.012270336
139.638177506
139.249798468
138.846425638
138.427337614
137.991800014
137.539066346
137.068378097
136.57896476
136.070044354
135.540824142
134.99050235
134.41826852
133.823297418
133.204756666
132.561804532
131.893588097
131.199247509
130.47791465
129.728713929
128.950762116
128.143169084
127.305037744
126.435463712
125.533535514
124.598333851
123.628930779
122.624388637
121.58375849
120.506077803
119.390367581
118.235628697
117.040836802
115.804936052
114.526831183
113.205377655
111.839368225
110.427517429
108.968444196
107.460649289
105.902474095
104.29205744
102.627298607
100.90579957
99.1247850472
97.2810029825
95.370600309
93.3889670896
91.3305465124
89.1886094482
86.954924563
84.6194503392
82.1700985507
79.5927717523
76.8727253537
74.0002534225
70.9789557954
67.8460144486
146.426860632
146.195064447
145.893650111
145.582670375
145.277827876
144.985801638
144.706823572
144.437695329
144.174732976
143.914645919
143.654673271
143.392577298
143.126565418
142.855188756
142.577251024
142.291735773
141.9977508
141.694487208
141.381189787
141.057135815
140.721620192
140.373946351
140.013417771
139.639323802
139.250967377
138.847632329
138.428592041
137.993109685
137.540437382
137.069816043
136.58047523
136.071633525
135.542498667
134.992267074
134.420124969
133.825248549
133.206803749
132.563948252
131.895833142
131.201598
130.480378023
129.731299824
128.953482505
128.146038791
127.308074881
126.438690199
125.536977861
124.602024084
123.632907641
122.628699164
121.58846033
120.511240974
119.396077686
118.241990128
117.047976647
115.813008318
114.536023119
113.215917207
111.851532565
110.441649998
108.984965965
107.480070179
105.925424513
104.319334674
102.659907066
100.945000005
99.1721659475
97.3385829935
95.4409716329
93.4754977933
91.4376650451
89.3222090569
87.1230215601
84.8331842643
82.4452770337
79.9522911135
77.3500306045
74.6429368909
71.852370803
69.0290304648
146.223470004
146.047567282
145.806370584
145.53904211
145.26185209
144.985210816
144.713518388
144.44701421
144.184246454
143.92323464
143.66194346
143.398505607
143.131295584
142.858922758
142.580194597
142.294073855
141.999638851
141.696050413
141.382525893
141.058319343
140.722707158
140.374977285
140.014420224
139.640326251
139.251984909
138.848675641
138.429669181
137.994226677
137.541598634
137.07102466
136.581733358
136.072942334
135.543858862
134.993679508
134.421591114
133.826771164
133.208388213
132.565602372
131.897564012
131.203418091
130.482300453
129.733337992
128.95565203
128.148358214
127.310565391
126.441377904
125.539894558
124.60520839
123.636406659
122.63257052
121.592772911
120.516078854
119.401543004
118.24820703
117.055096269
115.821216704
114.545550646
113.227044177
111.864608415
110.457091157
109.003277742
107.501876391
105.951503308
104.350642414
102.697626904
100.990606954
99.227511696
97.4060074494
95.5234542935
93.5768666839
91.5628888255
89.4778092668
87.3176618343
85.0785056963
82.757056304
80.3519622258
77.8662914072
75.3121971038
72.7166261849
70.126676884
146.100355197
145.94474695
145.738443232
145.501878501
145.246400419
144.983118198
144.718502566
144.454991813
144.192856481
143.93126839
143.668893184
143.404254154
143.135921518
142.862586908
142.5830785
142.296349078
142.001454001
141.697527606
141.383761882
141.059388788
140.723666318
140.375867924
140.015274739
139.641169281
139.252832859
138.849539984
138.430558475
137.995147302
137.542555407
137.072021455
136.582773704
136.074029689
135.544996907
134.994872776
134.422845239
133.828092719
133.209784298
132.567080401
131.899133249
131.205086892
130.484076751
129.735233003
128.957682458
128.150543901
127.312931698
126.443955415
125.542720148
124.608326747
123.639871992
122.636448058
121.597142331
120.521037206
119.407208564
118.254723838
117.062639587
115.829999195
114.555825364
113.239126009
111.878872111
110.474005963
109.023425372
107.525970775
105.9804131
104.385439792
102.739639342
101.041482548
99.2893050479
97.481292953
95.6154765207
93.6897416111
91.7018742825
89.6496686712
87.5311455833
85.3449726799
83.0912188562
80.7726421537
78.3967908422
75.9792620612
73.5469305057
71.1391524231
146.026277503
145.87626681
145.689509345
145.47340145
145.233692607
144.980868715
144.722229276
144.461489032
144.200120381
143.938196639
143.674976687
143.409336947
143.140036919
142.865855516
142.585649515
142.298369365
142.003053772
141.698815516
141.384825005
141.060294938
140.7244672
140.376602369
140.015971515
139.641849188
139.253511957
138.850229226
138.431266122
137.995879499
137.543316911
137.07281619
136.58360513
136.074901292
135.545912251
134.99583572
134.423859869
133.829163592
133.210916946
132.568280821
131.900408524
131.20644683
130.485536614
129.736811516
128.959397933
128.152418856
127.314993228
126.446236338
125.545260321
124.611174641
123.643086397
122.640100569
121.601320576
120.525847511
119.412779918
118.261212938
117.070237652
115.838938604
114.566394252
113.251667988
111.893815258
110.491865458
109.044827695
107.551682668
106.01137609
104.422811392
102.784844174
101.096279094
99.3558705551
97.5623324874
95.7143633835
93.8106985773
91.850205942
89.8320558022
87.7560026643
85.6228589022
83.4352378536
81.198673247
78.9232010974
76.6254245232
74.3300216986
72.0690001107
145.984003022
145.834554804
145.658137461
145.45439688
145.224861588
144.979150693
144.724788473
144.466148076
144.205439352
143.943343071
143.679543138
143.413181588
143.143166913
142.868350617
142.587616185
142.299915648
142.004277111
141.699798078
141.385633128
141.060980568
140.725070127
140.377152543
140.016491226
139.642355841
139.254015306
138.850739224
138.431789566
137.996421354
137.543881165
137.073406258
136.584224037
136.07555219
135.546598474
134.996561048
134.424628724
133.829981282
133.211789734
132.56921677
131.901417969
131.207542497
130.486729739
129.738117093
128.960836005
128.154013805
127.31677442
126.448239294
125.54752816
124.613759747
123.646052391
122.643524748
121.605296429
120.530488638
119.418224444
118.267628849
117.077828945
115.847953158
114.577130683
113.264493933
111.909173938
110.510301059
109.067004211
107.578409784
106.043642113
104.461824821
102.832084817
101.153561778
99.4254248472
97.646902557
95.8173318853
93.9362402488
92.0034729828
90.0193971509
87.9852081186
85.9033971714
83.7784108814
81.6175446592
79.4320476671
77.2383307133
75.0584355922
72.9185406031
145.964728282
145.814849887
145.642885199
145.444947385
145.220383407
144.978261767
144.726124165
144.468612963
144.208283594
143.946120034
143.682026879
143.415288341
143.14489486
142.869739104
142.588720595
142.300793279
142.004980199
141.700370955
141.386111746
141.061393192
140.725438493
140.377493092
140.01681623
139.642674197
139.254334773
138.851064664
138.432124948
137.996769843
137.544245511
137.073789067
136.584627898
136.075979914
135.547053307
134.997046823
134.425150051
133.830543703
133.212399829
132.569882482
131.902149155
131.208348601
130.487626245
129.739121351
128.961968644
128.155299692
127.318243749
126.449928783
125.549482363
124.616032732
123.648709806
122.646646332
121.60897907
120.534850023
119.423407457
118.273807148
117.085213225
115.856799542
114.587750986
113.277267999
111.924560174
110.528859801
109.089414776
107.605498481
106.076414902
104.501506351
102.880167086
101.211862829
99.4961604327
97.7327730512
95.9216260498
94.0629572833
92.1574590524
90.2065010291
88.2124233663
86.1789790645
84.1118760914
82.0194597188
79.9134517889
77.8096060126
75.7276101822
73.6893870909
145.964732323
145.814867384
145.642913646
145.44498504
145.220429512
144.978315281
144.726184142
144.468678465
144.208353871
143.946194518
143.682105174
143.415370197
143.14498015
142.869827776
142.588812628
142.30088867
142.005078938
141.700473037
141.386217201
141.061502113
140.725551059
140.377609596
140.016937087
139.642799992
139.254466252
138.851202521
138.432270085
137.996923413
137.544408777
137.073963524
136.584815536
136.076183164
135.547275188
134.997291009
134.425420989
133.830846718
133.21274136
132.570270591
131.902592731
131.208860214
130.488219918
129.739814
128.962781022
128.156257092
127.319376874
126.451274835
125.551086491
124.61794975
123.651006292
122.649403104
121.612294286
120.538842825
119.428222387
118.279619627
117.092236267
115.8652909
114.598025663
113.289702907
111.939617032
110.547099669
109.111517057
107.632286474
106.108887418
104.540874081
102.927896649
101.269727922
99.5663004585
97.8177632898
96.0245620447
94.1875467083
92.3081444626
90.388659407
88.4322068435
86.4434066087
84.4287742791
82.3972114936
80.3605029962
78.3336655961
76.3346001039
74.382398297
145.98401517
145.834607657
145.658223405
145.454510631
145.225000639
144.979312083
144.724969065
144.46634514
144.205650658
143.943566915
143.679778337
143.413427409
143.143422973
142.868616757
142.587892361
142.300201837
142.004573297
141.700104259
141.385949399
141.061307209
140.725407668
140.377501867
140.016853584
139.642732874
139.254409063
138.85115206
138.432224093
137.996880767
137.544369295
137.07392776
136.584784749
136.076159307
135.547260926
134.997289761
134.425437009
133.830885196
133.212808641
132.570374473
131.902742682
131.209067626
130.488498603
129.740180759
128.963256354
128.156865903
127.320149444
126.452247894
125.552304625
124.619467097
123.652888549
122.651730048
121.615162749
120.542370226
119.432551133
118.284922361
117.098722392
115.873215013
114.607695121
113.301490657
111.953975764
110.564574013
109.132771061
107.658120863
106.140267452
104.578962903
102.974092669
101.325712174
99.6341057182
97.8998596256
96.1238634334
94.3074916671
92.4527228657
90.5622391724
88.6400165444
86.6913144266
84.7231246679
82.7445998675
80.7674121975
78.8059649606
76.8769735218
74.9978764899
146.026297853
145.876356076
145.689654365
145.47359306
145.233926448
144.981139663
144.722532043
144.461819028
144.200473869
143.93857079
143.67536954
143.409747294
143.140464125
142.866299335
142.58610987
142.298846228
142.003547137
141.699325404
141.385351601
141.060838717
140.725029077
140.377183795
140.016574455
139.642476351
139.254166522
138.850915076
138.431987676
137.996641998
137.54412667
137.073680911
136.584534298
136.075906742
135.547008539
134.997040655
134.425195107
133.83065534
133.212596925
132.570188234
131.902591004
131.2089614
130.488451074
129.740208074
128.963378198
128.15710617
127.320537202
126.452818504
125.553101035
124.620541413
123.654303978
122.653563367
121.617507204
120.545338689
119.436280525
118.289578507
117.104506051
115.880370023
114.616515519
113.312334328
111.967272648
110.580845354
109.152641896
107.68235043
106.169770766
104.614842699
103.01768006
101.378598236
99.6981517297
97.9771975117
96.2170553803
94.4195407063
92.5871088957
90.7230222652
88.8315894259
86.9184119816
84.9907086233
83.0576507135
81.1306781714
79.223735772
77.3529542321
75.535245995
146.100383978
145.944874657
145.738650316
145.502151308
145.24673241
144.983501884
144.718930382
144.455457268
144.193354342
143.93179471
143.669445238
143.404830273
143.136520837
142.863209086
142.583723435
142.297016746
142.002144398
141.698240779
141.38449807
141.060148609
140.724451008
140.376679501
140.016115944
139.64204382
139.253745007
138.850494991
138.431562492
137.996207482
137.543680431
137.073221934
136.584062685
136.075423545
135.546515653
134.996540794
134.424691781
133.830152995
133.212101122
132.569705698
131.902130121
131.208532388
130.488066316
129.739882649
128.963130492
128.156958514
127.320516785
126.452958402
125.55344144
124.621131086
123.655202144
122.654841889
121.619253271
120.547658048
119.439301163
118.293455439
117.109427272
115.886562794
114.624254664
113.321952594
111.979173575
110.595510676
109.170657051
107.704416874
106.196729009
104.647693411
103.057602452
101.426993187
99.756700795
98.0479087955
96.3022285494
94.5218016041
92.709426253
90.8687031253
89.0042137536
87.1217321923
85.2284875654
83.3334630192
81.4477371919
79.5848779456
77.7608943163
75.9931938462
146.223507697
146.047736964
145.806644774
145.539401758
145.262287983
144.985712801
144.714076493
144.447620024
144.184893272
143.923917429
143.662658773
143.399251341
143.132070654
142.859726734
142.581027386
142.294935435
142.000529191
141.696969499
141.383473817
141.059296561
140.723714624
140.376016822
140.015496418
139.641445238
139.253151589
138.849895965
138.430950557
137.99557785
137.543030241
137.072549785
136.583368315
136.07470763
135.545779726
134.995787187
134.423923614
133.829374234
133.211316683
132.568921577
131.901353648
131.207772583
130.487334241
129.739191874
128.962497638
128.156403907
127.320065179
126.452639889
125.553292525
124.621196065
123.655534862
122.655507612
121.620330959
120.549243574
119.441510553
118.296428974
117.113334858
115.89160967
114.630689039
113.330074124
111.989342562
110.608164346
109.186317792
107.723709741
106.220401644
104.676640223
103.092892064
101.469885512
99.8086633443
98.1106468366
96.3777106455
94.612267532
92.8173728386
90.9968445469
89.1554062046
87.2988487133
85.4342331656
83.5701526598
81.7171209029
79.8882173382
78.0994717051
76.3695566037
146.426907664
146.195280725
145.893997664
145.58312364
145.278374293
144.986427989
144.707517345
144.438446208
144.17553285
143.915488753
143.655554971
143.393495409
143.127518727
142.856176877
142.578274022
142.292793849
141.99884417
141.695616011
141.382354106
141.058335984
140.722857292
140.375221321
140.014732743
139.640692455
139.252394001
138.849122912
138.430154802
137.994754643
137.542176644
137.071664233
136.582450294
136.07375745
135.544798478
134.994776709
134.42288652
133.828314033
133.210237816
132.567829554
131.900255157
131.206675623
130.48624838
129.738128711
128.96147131
128.155431832
127.319168692
126.451845017
125.552630932
124.620706336
123.655263927
122.65551249
121.620680937
120.550022326
119.442819658
118.298391424
117.116099322
115.8953562
114.635634032
113.336478085
111.997519024
110.61848992
109.199244413
107.73977916
106.240260559
104.701056498
103.122773199
101.506299733
99.8528592151
98.1640680851
96.4420050158
94.689287427
92.9091573282
91.105573075
89.2833089322
87.4480622377
85.606584556
83.7668697428
81.9385389039
80.1337459022
78.3680058464
76.6611734591
146.760962994
146.397791083
145.998048063
145.62917894
145.291666766
144.983652343
144.698362314
144.427719875
144.165400026
143.906777771
143.648436829
143.387847212
143.123110483
142.852760626
142.575622692
142.290715176
141.997182712
141.694249968
141.381190199
141.05730429
140.721906541
140.374313407
140.013840925
139.639796548
139.251480139
138.848181511
138.429179392
137.993741069
137.54112231
137.070567627
136.581310746
136.072574991
135.543573643
134.993510453
134.421580238
133.826969728
133.208858272
132.566418615
131.898817852
131.205218569
130.484780072
129.736659432
128.960013451
128.154000441
127.317781966
126.45052491
125.551403951
124.619604646
123.654326798
122.654787925
121.620226048
120.549906296
119.443126579
118.299222963
117.117577382
115.897628355
114.638880215
113.34091512
112.003407832
110.626143551
109.209037667
107.752159486
106.25576038
104.72030661
103.146517189
101.535408209
99.8883441355
98.2070950038
96.493898399
94.7515261879
92.9833545045
91.1934304473
89.3865305372
87.5682065352
85.7448229871
83.9235968808
82.1128307417
80.3229059025
78.5670378731
76.8638799717
147.310736304
146.65679554
146.104616328
145.667133494
145.295624257
144.973617418
144.684595604
144.414426538
144.154017994
143.897583339
143.64123949
143.382306371
143.118873313
142.849514492
142.573109781
142.288731437
141.995570994
141.69289188
141.379998059
141.056214007
140.720871566
140.373300539
140.01282203
139.63875594
139.250406853
138.847067813
138.428020095
137.992532843
137.539863323
137.069257089
136.579948636
136.071161924
135.542110808
134.991999589
134.420023606
133.825369643
133.207216075
132.56473728
131.897100756
131.203469671
130.483004306
129.734863645
128.958206442
128.152193157
127.315987938
126.448760764
125.54968997
124.617965448
123.652792706
122.65339461
121.619017906
120.548937998
119.442463282
118.29894368
117.117777793
115.898423456
114.640407504
113.343339921
112.00692931
110.631000475
109.215515717
107.76059968
106.266568595
104.733963978
103.163591135
101.556563188
99.9143513662
98.2388396309
96.5323812031
94.7978616048
93.0387546363
91.2591706762
89.4638830912
87.6583209645
85.8485017484
84.0408134315
82.2419168485
80.4593716478
78.7002924501
76.973376338
148.305974001
146.948157634
146.15740978
145.657565499
145.266723482
144.942965669
144.658551526
144.394042481
144.138636963
143.886188855
143.632872712
143.376176432
143.114364048
142.846159706
142.570563078
142.286738965
141.993949019
141.691508622
141.378760406
141.05505566
140.719734894
140.37214863
140.011645007
139.637540702
139.249144067
138.845751528
138.42664599
137.991095531
137.538359218
137.067684093
136.578305292
136.069447097
135.540323651
134.990139547
134.418090521
133.823364202
133.2051422
132.562597026
131.894896655
131.201205397
130.480684418
129.732493338
128.955791983
128.149742207
127.313509829
126.446266867
125.547194161
124.615484852
123.650347634
122.651010644
121.616725978
120.546774753
119.440472938
118.297179939
117.116305782
115.897321698
114.639771679
113.343284786
112.007592305
110.632546349
109.218141481
107.764539955
106.272101446
104.74141726
103.17334928
101.569074221
99.9301333607
98.2584845308
96.5565538739
94.8273160066
93.0743191273
91.30173173
89.5143590829
87.7176187121
85.9174078066
84.1195930866
82.3297040065
80.5525034644
78.7827950083
76.9910773236
150.099082542
147.170984251
146.057455211
145.530382836
145.163281036
144.868705242
144.607244755
144.358875394
144.114515632
143.8695988
143.621430274
143.368257606
143.108850912
142.84227671
142.567770239
142.284660152
141.992322566
141.69015274
141.377548
141.053900887
140.718606012
140.371023558
140.010484696
139.636324207
139.247859987
138.844392881
138.425209021
137.989583414
137.536773609
137.066025235
136.576573455
136.067642707
135.53844725
134.988191714
134.416071793
133.821275039
133.202981404
132.560364718
131.892593604
131.198832622
130.478243375
129.729986184
128.953221624
128.147112263
127.31082476
126.443532261
125.544417124
124.612674018
123.647513392
122.648165821
121.613886174
120.543958986
119.437704158
118.294485632
117.113719367
115.89488305
114.63752835
113.341294412
112.005924279
110.631283779
109.217383436
107.764404405
106.272729003
104.742975322
103.176036051
101.573122743
99.9358163529
98.2661241387
96.5665434282
94.8400794818
93.0903378242
91.3215557762
89.5386227399
87.7470575257
85.9529061631
84.1626653552
82.3827554666
80.6179591883
78.8478173938
76.9478826709
56.901037736
53.3489162616
50.9574961311
49.0000927324
47.3280612781
45.8712270834
44.585603389
43.4414829121
42.4171943505
41.4959926818
40.6644735464
39.9116337365
39.228273173
38.6065947009
38.039920413
37.5224830518
37.0492671766
36.6158865555
36.2184860076
35.8536621186
35.5183984045
35.2100118549
34.9261087431
34.6645474482
34.4234064876
34.2009579514
33.9956439406
33.8060568914
33.6309222288
33.4690834046
33.319488274
33.1811775558
33.0532752358
32.9349800533
32.8255581636
32.7243359103
32.6306937742
32.5440610993
32.4639113419
32.3897577064
32.3211489908
32.25766625
32.1989205255
32.1445496841
32.0942145303
32.0475947588
32.0043904668
31.9643596836
31.9274246811
31.8933759326
31.8619045375
31.832772531
31.8057775721
31.7807512024
31.7575404691
31.7359985932
31.715992642
31.697400451
31.6801045239
31.6640045121
31.6489997872
31.6350033193
31.6219267519
31.6096856848
31.5982062167
31.5874235254
31.5772760789
31.5677075628
31.5586656336
31.550100514
31.5419698918
31.5342328655
31.5268514606
31.5197916356
31.5130224664
31.5065154752
31.5002446573
31.4941847517
31.4883133109
31.4826115105
31.4770638043
31.4716587574
31.4663763685
31.4612060525
31.4561311914
31.451144913
31.4462337602
31.4413942376
31.4366317327
31.4319309417
31.4272741903
31.4226518149
31.4180573253
31.4134849264
31.4089288156
31.4043832305
31.3998437467
31.395306481
31.3907678615
31.3862243954
31.3816726461
31.3771091911
31.3725309951
31.3679347265
31.3633168291
31.3586738947
31.3540030535
31.3493019343
31.3445682287
31.3397996115
31.3349936747
31.3301479888
31.3252601025
31.320327696
31.3153489046
31.3103225285
31.3052481067
31.3001254289
31.2949544326
31.2897350338
31.2844670875
31.2791504504
31.2737845164
31.2683628011
31.2628622188
31.2572364214
31.2516316489
31.2465783397
31.241493584
31.2363383155
31.2312269473
31.2262444466
31.2214446721
31.216884009
31.2126218127
31.2087154057
31.2052139245
31.2021575553
31.1995388233
31.1973740251
31.1957210023
31.1943613531
31.1931279708
31.1914438817
31.1876595497
31.1775747002
31.1511284859
31.0866694007
30.9429383443
30.6493891424
30.1008013607
29.1643905072
27.7075602436
25.6376102462
22.9285301122
19.6364116397
15.8797762682
11.6268134105
6.60230715311
1.57011174363
60.0823804167
56.0295850373
53.3176149134
51.1652688218
49.3633242762
47.8133732182
46.4571954993
45.2575595188
44.18829145
43.2297578903
42.3666251824
41.5865475566
40.879375985
40.2366195467
39.6510908853
39.1166396179
38.6279580533
38.1804363766
37.7700424618
37.3932346171
37.0468833083
36.7282146585
36.4347592035
36.1643115085
35.9148963903
35.6847384998
35.4722390567
35.2759540692
35.0945759753
34.9269186016
34.7719023826
34.6285430688
34.4959416123
34.3732752362
34.2597904389
34.154795358
34.0576529308
33.9677775538
33.8846275694
33.8077040997
33.73654489
33.6707215294
33.6098399713
33.55353454
33.5014700822
33.4533363653
33.4088496205
33.3677276604
33.3296495557
33.2943675315
33.2617145947
33.23148282
33.2034898422
33.1775652561
33.1535426296
33.1312675663
33.1105983624
33.0914078097
33.0735698039
33.0569718597
33.0415101052
33.0270816356
33.0136048736
33.0009966674
32.989186553
32.9781043485
32.9676872411
32.957877413
32.9486173178
32.9398581974
32.9315543901
32.9236623218
32.9161452064
32.9089624238
32.9020849446
32.8954825607
32.8891270761
32.8829950397
32.8770618192
32.871308922
32.8657058736
32.8602398159
32.8548922853
32.8496566008
32.844515989
32.8394658594
32.8344895036
32.829579918
32.8247235256
32.8199149722
32.8151501108
32.8104210193
32.8057239987
32.8010499439
32.7963959712
32.7917537732
32.7871207528
32.7824917103
32.7778636893
32.7732336045
32.7685971944
32.7639521953
32.7592940908
32.7546199611
32.7499258495
32.7452085068
32.7404648884
32.7356925198
32.730889073
32.7260520548
32.7211792698
32.7162675498
32.7113148634
32.7063182437
32.7012761764
32.696187446
32.6910515129
32.6858690564
32.6806399981
32.6753660573
32.6700479747
32.6646890194
32.6592932643
32.6538671275
32.6484228991
32.6429867186
32.6375928555
32.6322066194
32.6266957634
32.6215478434
32.6164668628
32.6115416245
32.6068557764
32.6024721549
32.5984597003
32.594890579
32.5918316053
32.5893412051
32.5873735728
32.586139166
32.5854443027
32.5852110219
32.5851374657
32.5844230082
32.5808925717
32.569363618
32.537787236
32.4612527683
32.2935346143
31.9577634143
31.342607448
30.3122917497
28.737326875
26.5348320287
23.6906805808
20.2654629745
16.3756991759
12.0048365917
6.89143166813
1.70366237969
62.2898126922
58.356388244
55.4892495147
53.2053268142
51.3033596318
49.6768716132
48.2608255719
47.0132083634
45.9045986225
44.9131346503
44.0219258061
43.21751782
42.4889595188
41.8271730607
41.2245340777
40.6745647854
40.1717083343
39.711163376
39.28874839
38.9008035319
38.5441051122
38.2158025556
37.9133633518
37.6345291203
37.3772793688
37.1397998577
36.9204572018
36.7177767024
36.5304226939
36.3571833531
36.1969556133
36.0487333373
35.9115972814
35.7847057208
35.6672873051
35.5586334188
35.4580911203
35.3650597621
35.2789835215
35.1993495708
35.1256826388
35.0575412862
34.9945185045
34.9362344181
34.8823384385
34.8325023576
34.7864250248
34.7438322294
34.7044670895
34.6679649969
34.634134493
34.6028228548
34.5738569968
34.5470493207
34.5222216453
34.4992131431
34.4778759216
34.4580758333
34.4396866697
34.4225881418
34.4066775122
34.3918440895
34.3780022823
34.3650595661
34.352945823
34.3415875555
34.3309177566
34.3208774032
34.3114064002
34.3024537529
34.2939739831
34.285920038
34.2782540545
34.2709345903
34.2639291601
34.2572073771
34.2507421004
34.244505174
34.2384664283
34.2326135025
34.2269232061
34.2213876073
34.2159818932
34.2106940241
34.205510306
34.2004184191
34.1954060482
34.1904663848
34.18558908
34.1807650072
34.1759871675
34.1712456286
34.1665355443
34.1618482541
34.1571804638
34.1525232545
34.1478736217
34.1432265391
34.138578892
34.1339280065
34.1292696577
34.124600908
34.1199169371
34.1152146505
34.1104902297
34.1057403416
34.1009618571
34.0961524776
34.0913100832
34.0864321143
34.0815163638
34.0765596893
34.0715602307
34.0665152567
34.0614233154
34.0562833173
34.0510947025
34.0458584641
34.040574968
34.0352465951
34.0298750337
34.0244648147
34.0190216314
34.0135546848
34.0080797795
34.0026158437
33.9971644851
33.9917670615
33.9865278083
33.9812347494
33.9761001945
33.9711605524
33.966543371
33.9623046356
33.958507151
33.9552360429
33.9525810848
33.9506382536
33.9493662103
33.9487613471
33.9489324253
33.9496566701
33.9505280444
33.9504834893
33.9467734868
33.9331728084
33.8956198767
33.8059367551
33.6131361392
33.2345118088
32.5534613472
31.4321734725
29.7447158162
27.4173137453
24.4459590932
20.8939296061
16.8744304201
12.3854067707
7.18017206056
1.83500372936
64.0939879892
60.3692876185
57.4653094838
55.1101341296
53.1400367026
51.4556786057
49.9918933182
48.7048010504
47.563155593
46.5436300948
45.6282170383
44.8026259643
44.0552815711
43.3766411354
42.7587306781