/*--------------------------------*- C++ -*----------------------------------*\
| =========                 |                                                 |
| \\      /  F ield         | OpenFOAM: The Open Source CFD Toolbox           |
|  \\    /   O peration     | Version:  2106                                  |
|   \\  /    A nd           | Website:  www.openfoam.com                      |
|    \\/     M anipulation  |                                                 |
\*---------------------------------------------------------------------------*/
FoamFile
{
    version     2.0;
    format      ascii;
    arch        "LSB;label=32;scalar=64";
    class       volVectorField;
    location    "0.22";
    object      U;
}
// * * * * * * * * * * * * * * * * * * * * * * * * * * * * * * * * * * * * * //

dimensions      [0 1 -1 0 0 0 0];

internalField   nonuniform List<vector> 
11200
(
(0.662462404092 0.150569443503 0)
(0.558948672748 0.10324338887 0)
(0.38385073572 0.0513512244923 0)
(0.283747594894 0.0248708553638 0)
(0.23207527254 0.0124170452274 0)
(0.201908593205 0.00662281683843 0)
(0.183197943955 0.00380291452471 0)
(0.171276503754 0.00231587032166 0)
(0.163510324552 0.00146450694036 0)
(0.158388789498 0.000944892860537 0)
(0.155006650989 0.000615177289234 0)
(0.152786694985 0.000402234055445 0)
(0.15134654324 0.000264232274354 0)
(0.150428304593 0.000175250027253 0)
(0.149856699174 0.000118360438892 0)
(0.149512497333 8.21597233359e-05 0)
(0.149314936714 5.88656858034e-05 0)
(0.149209574624 4.33155863652e-05 0)
(0.149159714656 3.2934683409e-05 0)
(0.14914247284 2.81861559036e-05 0)
(0.149144624674 2.76840916566e-05 0)
(0.149156894805 2.98898315267e-05 0)
(0.149172509736 3.30501879691e-05 0)
(0.14918804991 3.59657379037e-05 0)
(0.149202251136 3.86012115179e-05 0)
(0.149214513566 4.10402668475e-05 0)
(0.149224669416 4.33175345103e-05 0)
(0.149232825327 4.54641633215e-05 0)
(0.149239217727 4.75194208572e-05 0)
(0.149244128401 4.95303571952e-05 0)
(0.149247842325 5.15590073883e-05 0)
(0.149250627249 5.36963339473e-05 0)
(0.149252680538 5.60249800367e-05 0)
(0.149254172501 5.84063851725e-05 0)
(0.149255235737 6.07675308005e-05 0)
(0.149255956622 6.30886590716e-05 0)
(0.14925643191 6.53801016815e-05 0)
(0.149256745015 6.76547983016e-05 0)
(0.14925694935 6.99243618491e-05 0)
(0.149257073928 7.21948776089e-05 0)
(0.149257139684 7.44674652404e-05 0)
(0.149257164009 7.67430941497e-05 0)
(0.149257159253 7.90214652654e-05 0)
(0.149257134403 8.13014600201e-05 0)
(0.149257095828 8.35813309473e-05 0)
(0.149257048151 8.58587150651e-05 0)
(0.149256995274 8.81308319617e-05 0)
(0.149256941059 9.03946254405e-05 0)
(0.149256889652 9.26469754828e-05 0)
(0.149256845932 9.48847569748e-05 0)
(0.149256816745 9.71048525093e-05 0)
(0.149256811866 9.93043873749e-05 0)
(0.149256844599 0.000101480485143 0)
(0.149256933073 0.000103629949471 0)
(0.149257102595 0.000105748686974 0)
(0.149257389187 0.000107831111168 0)
(0.149257843069 0.000109870412569 0)
(0.149258537733 0.00011185675039 0)
(0.149259582112 0.000113777338022 0)
(0.149261133838 0.000115608070286 0)
(0.149263434764 0.000117294283386 0)
(0.14926689344 0.00011874828417 0)
(0.1492719859 0.000120008233103 0)
(0.149279355314 0.000121263517231 0)
(0.149290031294 0.00012297144545 0)
(0.149305533007 0.00012533725144 0)
(0.14932824337 0.000128119236129 0)
(0.149361860098 0.000131086616729 0)
(0.149411980469 0.000134021502675 0)
(0.149486843414 0.000136808819208 0)
(0.149598401641 0.00014072509731 0)
(0.149769511221 0.000151598105884 0)
(0.150037986526 0.000172358699355 0)
(0.150467057956 0.000202659566129 0)
(0.151192647907 0.000232640203203 0)
(0.152492695305 0.000191805691885 0)
(0.15502393474 -0.000217219507434 0)
(0.162382352274 -0.00211350833677 0)
(0.187733599158 -0.0108058436836 0)
(0.204482960107 -0.0497545078427 0)
(0.965408254183 0.289214707536 0)
(0.961962856678 0.252656040028 0)
(0.823574385036 0.159021441289 0)
(0.698139359286 0.0959957307244 0)
(0.610225452477 0.0582481136846 0)
(0.54897147917 0.036214852926 0)
(0.506588875007 0.023161285166 0)
(0.477567252976 0.0151375156657 0)
(0.457745472457 0.0100177557219 0)
(0.44422843685 0.00665814179124 0)
(0.435053269018 0.00441555672129 0)
(0.428873082193 0.0029068659691 0)
(0.424754159307 0.00189105814096 0)
(0.422046603153 0.00121004471572 0)
(0.4202977607 0.000757162587588 0)
(0.419193147274 0.000459254989615 0)
(0.418515538577 0.000265853982075 0)
(0.418116388509 0.000142398966243 0)
(0.41789578169 6.6109076316e-05 0)
(0.417786727057 2.30915981283e-05 0)
(0.417745308509 1.40664318941e-06 0)
(0.417742026974 -1.01643234371e-05 0)
(0.417756620681 -1.37160177526e-05 0)
(0.417778575762 -1.32696373916e-05 0)
(0.417802867144 -1.08374604451e-05 0)
(0.417826235548 -7.49433631223e-06 0)
(0.417846987504 -3.87786344722e-06 0)
(0.417864524092 -3.58174647147e-07 0)
(0.417878848945 2.86320071392e-06 0)
(0.417890277258 5.68229480722e-06 0)
(0.417899280749 8.03483723203e-06 0)
(0.417906353099 9.83662609527e-06 0)
(0.417911696539 1.10053348511e-05 0)
(0.41791554525 1.18575977788e-05 0)
(0.417918276889 1.26795950571e-05 0)
(0.417920166192 1.34364651924e-05 0)
(0.417921455487 1.41104940365e-05 0)
(0.417922335811 1.47259833853e-05 0)
(0.417922933089 1.53118185438e-05 0)
(0.417923318792 1.58814521252e-05 0)
(0.41792354571 1.64352716736e-05 0)
(0.417923657379 1.69783628454e-05 0)
(0.417923684687 1.75144168057e-05 0)
(0.417923650261 1.80468660557e-05 0)
(0.417923570307 1.85788935011e-05 0)
(0.417923456862 1.91129004094e-05 0)
(0.417923320225 1.96509261621e-05 0)
(0.417923170628 2.01949485904e-05 0)
(0.417923019139 2.07471170713e-05 0)
(0.417922878788 2.13089045121e-05 0)
(0.41792276735 2.18804334717e-05 0)
(0.417922709585 2.24619668281e-05 0)
(0.417922739101 2.3053641179e-05 0)
(0.417922901838 2.36551540116e-05 0)
(0.417923261845 2.42655564809e-05 0)
(0.41792391088 2.48834665113e-05 0)
(0.417924978165 2.55079486132e-05 0)
(0.417926653213 2.61271295922e-05 0)
(0.417929212317 2.67220431537e-05 0)
(0.417933043634 2.72630394058e-05 0)
(0.41793873632 2.77058902488e-05 0)
(0.417947386459 2.79881062226e-05 0)
(0.417960493907 2.82699737921e-05 0)
(0.417980186764 2.78440241457e-05 0)
(0.41800924598 2.52919754119e-05 0)
(0.418051276851 1.94995416788e-05 0)
(0.418112442914 9.66413295019e-06 0)
(0.418202869074 -5.74332506912e-06 0)
(0.418338174136 -2.92492955701e-05 0)
(0.418543284255 -6.45420406341e-05 0)
(0.418860155058 -0.00011582710054 0)
(0.419358494983 -0.000188095225511 0)
(0.4201519592 -0.000308079642979 0)
(0.421444546441 -0.00053345413864 0)
(0.423628573334 -0.0010012639697 0)
(0.427424104606 -0.00209382724194 0)
(0.434256194266 -0.00486458256002 0)
(0.44830630571 -0.0122756185045 0)
(0.474738742603 -0.0343031618914 0)
(0.478369807461 -0.0989659960128 0)
(1.02222096495 0.238416186288 0)
(1.0821375266 0.295926651268 0)
(1.03447721982 0.239503064873 0)
(0.954615400293 0.174290163007 0)
(0.879992045393 0.121345467233 0)
(0.818614424688 0.083099383309 0)
(0.771410839247 0.0567316666731 0)
(0.736634378718 0.0387409683168 0)
(0.711624419386 0.0264327868267 0)
(0.693916605493 0.017973104334 0)
(0.681541392836 0.0121424472361 0)
(0.67300009686 0.00812490711728 0)
(0.667180628078 0.00536631968073 0)
(0.663271654661 0.00348444330665 0)
(0.660688480531 0.00221256018657 0)
(0.659014153812 0.00136338076236 0)
(0.657954470727 0.000805243038642 0)
(0.657304175438 0.000445916041461 0)
(0.656921753915 0.000221067843197 0)
(0.656710184689 8.55802761697e-05 0)
(0.656603315927 8.35657664495e-06 0)
(0.656561761936 -3.372151099e-05 0)
(0.656557856122 -5.68563107575e-05 0)
(0.656571326307 -6.68755362485e-05 0)
(0.656592850643 -6.8482869732e-05 0)
(0.656616665585 -6.55611863506e-05 0)
(0.656639463703 -6.05498940816e-05 0)
(0.656659637922 -5.4859781786e-05 0)
(0.656676602765 -4.92754641704e-05 0)
(0.656690335996 -4.42040140998e-05 0)
(0.656701084237 -3.98402450889e-05 0)
(0.656709231846 -3.63023902497e-05 0)
(0.656715474852 -3.36965036967e-05 0)
(0.656720504125 -3.18579029613e-05 0)
(0.65672436274 -3.08119094596e-05 0)
(0.656727065416 -3.03048932105e-05 0)
(0.656728924245 -3.02489918129e-05 0)
(0.656730218266 -3.05592804737e-05 0)
(0.656731114439 -3.10861498309e-05 0)
(0.656731702565 -3.17473473085e-05 0)
(0.656732057097 -3.25133612979e-05 0)
(0.656732243508 -3.33490914263e-05 0)
(0.656732307204 -3.42299839564e-05 0)
(0.656732282332 -3.51366199831e-05 0)
(0.656732193498 -3.60535057139e-05 0)
(0.656732059099 -3.69698543869e-05 0)
(0.656731895025 -3.78781363228e-05 0)
(0.656731716864 -3.87728831009e-05 0)
(0.656731540542 -3.96490947534e-05 0)
(0.656731383569 -4.05018369337e-05 0)
(0.656731270482 -4.13271402795e-05 0)
(0.656731236608 -4.21208422127e-05 0)
(0.656731330277 -4.28809237922e-05 0)
(0.65673161848 -4.36097417619e-05 0)
(0.656732196086 -4.43192649033e-05 0)
(0.656733199879 -4.50397828999e-05 0)
(0.656734815447 -4.58229145477e-05 0)
(0.656737312748 -4.6763866405e-05 0)
(0.656741098227 -4.79909903969e-05 0)
(0.656746771065 -4.97140813208e-05 0)
(0.656755240256 -5.24234686667e-05 0)
(0.656768150788 -5.71926362842e-05 0)
(0.656786874353 -6.47687758018e-05 0)
(0.656812838643 -7.60509984311e-05 0)
(0.656849815642 -9.27104926565e-05 0)
(0.656904515737 -0.000117169333362 0)
(0.656986353492 -0.000152628025305 0)
(0.657109128543 -0.000204378713281 0)
(0.657294675949 -0.000280958483873 0)
(0.657578436211 -0.000396274946022 0)
(0.658018632314 -0.000574735328447 0)
(0.658704630476 -0.000863704377102 0)
(0.659783789612 -0.00135344444253 0)
(0.661514211465 -0.00221742771417 0)
(0.664339104409 -0.00381892556796 0)
(0.668956158568 -0.00695835958107 0)
(0.676394767706 -0.01337822703 0)
(0.688668864032 -0.0268989291685 0)
(0.705347404824 -0.0564438722352 0)
(0.700682323294 -0.113370847658 0)
(1.02251475395 0.170807151176 0)
(1.10138975381 0.276496476859 0)
(1.11752425419 0.266664797546 0)
(1.0921465961 0.219901697553 0)
(1.05187814479 0.168168846576 0)
(1.01020821155 0.123567395985 0)
(0.973494676048 0.0888375211232 0)
(0.94386453872 0.0630063712069 0)
(0.92114277887 0.0442232036184 0)
(0.904284047637 0.0307423919635 0)
(0.892074838688 0.0211562929551 0)
(0.883404475298 0.0143954670534 0)
(0.877352630352 0.00966794661613 0)
(0.873197663212 0.00639383572865 0)
(0.870392883049 0.00415116366723 0)
(0.868533991514 0.00263449011098 0)
(0.867327592123 0.00162401683129 0)
(0.866564186277 0.000962675473315 0)
(0.86609642563 0.00053912165585 0)
(0.865822179533 0.000275152498058 0)
(0.865671331402 0.000117066876275 0)
(0.865595076213 2.87906930199e-05 0)
(0.865564013633 -1.93266009129e-05 0)
(0.865561201283 -4.12629212447e-05 0)
(0.865572541391 -4.7666778409e-05 0)
(0.865589544411 -4.5525750612e-05 0)
(0.865607851176 -3.91557762587e-05 0)
(0.865625187488 -3.11445069088e-05 0)
(0.865640469317 -2.29631822917e-05 0)
(0.865653329616 -1.53794385567e-05 0)
(0.865663800141 -8.72193096221e-06 0)
(0.865672084491 -3.04333877628e-06 0)
(0.865678435269 1.73497419887e-06 0)
(0.865683060029 5.46620096589e-06 0)
(0.865686377024 8.03297510294e-06 0)
(0.865688773513 9.7902187118e-06 0)
(0.865690403381 1.11443441216e-05 0)
(0.865691562635 1.22898441015e-05 0)
(0.865692426684 1.32593857022e-05 0)
(0.865693013977 1.41465451149e-05 0)
(0.865693372854 1.49424648501e-05 0)
(0.865693567936 1.56698378133e-05 0)
(0.86569363838 1.63442485105e-05 0)
(0.865693615806 1.69823352384e-05 0)
(0.865693522291 1.75988600507e-05 0)
(0.865693373761 1.82042189788e-05 0)
(0.865693184972 1.88063528658e-05 0)
(0.865692972392 1.94127205053e-05 0)
(0.865692755372 2.00332881173e-05 0)
(0.865692556314 2.06711620427e-05 0)
(0.865692405588 2.13138496977e-05 0)
(0.865692344238 2.19499703676e-05 0)
(0.8656924256 2.25636490467e-05 0)
(0.865692719592 2.31291614409e-05 0)
(0.865693317873 2.36077137933e-05 0)
(0.865694352408 2.39549970658e-05 0)
(0.865696002973 2.41467960156e-05 0)
(0.865698549 2.40668726292e-05 0)
(0.865702399684 2.35543681809e-05 0)
(0.86570798743 2.22155851671e-05 0)
(0.865715694731 1.94563349828e-05 0)
(0.865727171919 1.46595097665e-05 0)
(0.865745048914 5.96107471934e-06 0)
(0.865772254036 -8.2959806931e-06 0)
(0.865812679804 -3.01038269947e-05 0)
(0.865872229299 -6.3389455433e-05 0)
(0.865960232085 -0.000115040080919 0)
(0.866091200721 -0.00019583905882 0)
(0.866287700703 -0.000323081935651 0)
(0.866584593037 -0.000525306656824 0)
(0.867035571453 -0.000851570020761 0)
(0.8677258674 -0.00138899482804 0)
(0.868792129147 -0.00228670008698 0)
(0.870448153721 -0.00381992260842 0)
(0.873013787705 -0.00651416493109 0)
(0.876889555944 -0.0113813505161 0)
(0.88240052975 -0.0202957234186 0)
(0.889733426053 -0.0365385366021 0)
(0.896446459826 -0.0656625172729 0)
(0.886663758891 -0.11037804521 0)
(1.01287875008 0.118961022106 0)
(1.08820670345 0.23180693543 0)
(1.13741366264 0.253106763458 0)
(1.15409085561 0.22899275292 0)
(1.14994209459 0.18836835884 0)
(1.1353846382 0.146579844462 0)
(1.1175889294 0.110150966353 0)
(1.10059498096 0.0808162226495 0)
(1.08612454712 0.0582265765402 0)
(1.07459089664 0.0413189845787 0)
(1.06579143448 0.0289160192532 0)
(1.05928795212 0.0199600986218 0)
(1.05459972253 0.0135815586488 0)
(1.05129072047 0.00909744190989 0)
(1.04899979942 0.00598615314924 0)
(1.04744335356 0.00385696615526 0)
(1.04640647767 0.00242159813954 0)
(1.04573055975 0.00147015057545 0)
(1.04530100119 0.000851702340667 0)
(1.04503650022 0.00045901648884 0)
(1.04488013336 0.000216756634068 0)
(1.04479251267 7.30172420638e-05 0)
(1.04474864335 -5.50468347489e-06 0)
(1.04473174026 -4.40087728239e-05 0)
(1.04472948632 -5.93855131851e-05 0)
(1.04473496742 -6.17186143881e-05 0)
(1.04474391255 -5.72444801781e-05 0)
(1.04475379356 -4.98022113273e-05 0)
(1.0447632307 -4.16429824072e-05 0)
(1.04477155388 -3.39877490127e-05 0)
(1.04477851289 -2.74227587278e-05 0)
(1.04478409531 -2.21514435446e-05 0)
(1.04478844743 -1.81285377539e-05 0)
(1.04479178023 -1.51401519996e-05 0)
(1.04479434856 -1.28085065686e-05 0)
(1.04479644578 -1.10116636883e-05 0)
(1.04479818266 -9.52190008162e-06 0)
(1.0447995043 -8.2312940065e-06 0)
(1.0448004805 -7.21142358854e-06 0)
(1.04480116215 -6.54184932657e-06 0)
(1.04480157115 -6.16171616914e-06 0)
(1.04480179457 -5.9525314129e-06 0)
(1.04480187832 -5.86394557356e-06 0)
(1.04480186106 -5.84536671053e-06 0)
(1.04480176754 -5.85653738634e-06 0)
(1.04480161553 -5.87783533788e-06 0)
(1.04480142317 -5.89993148743e-06 0)
(1.04480121248 -5.92010673946e-06 0)
(1.04480100125 -5.94525665227e-06 0)
(1.04480079526 -5.97870365017e-06 0)
(1.04480061591 -6.0062124593e-06 0)
(1.04480050694 -6.02699079881e-06 0)
(1.04480052106 -6.04734816648e-06 0)
(1.04480072927 -6.08122054338e-06 0)
(1.0448012433 -6.16115384352e-06 0)
(1.04480225858 -6.38035028926e-06 0)
(1.04480396755 -7.00152683264e-06 0)
(1.04480662837 -8.31548762586e-06 0)
(1.04481056359 -1.07999069716e-05 0)
(1.04481623204 -1.46034640674e-05 0)
(1.04482467341 -1.95726163799e-05 0)
(1.0448370312 -2.57345070353e-05 0)
(1.04485452496 -3.54344038339e-05 0)
(1.04487948078 -5.16447388729e-05 0)
(1.04491536719 -7.86027913306e-05 0)
(1.04496732272 -0.00012256912068 0)
(1.04504294462 -0.000193333341268 0)
(1.04515357608 -0.000306499694266 0)
(1.0453163636 -0.000487281746883 0)
(1.04555718785 -0.000776793415355 0)
(1.04591478589 -0.00124251299839 0)
(1.04644711851 -0.00199634113912 0)
(1.04723848962 -0.00322930751752 0)
(1.04840219884 -0.0052730780151 0)
(1.05006615969 -0.00870610499541 0)
(1.05228795439 -0.0145251012776 0)
(1.05482477239 -0.0243426089708 0)
(1.05688796522 -0.0404785607725 0)
(1.05577055845 -0.0657894070865 0)
(1.04216560642 -0.0998042233166 0)
(1.00447483357 0.0814039962802 0)
(1.06917236841 0.181288537644 0)
(1.13080567785 0.216950417801 0)
(1.17374999191 0.210789155117 0)
(1.19865263791 0.183690076986 0)
(1.21019986465 0.149751683817 0)
(1.21350254076 0.116779144621 0)
(1.21251722197 0.0882206780692 0)
(1.20973096197 0.0650481504825 0)
(1.20651117189 0.047020907691 0)
(1.2035191049 0.0334068066476 0)
(1.20101141969 0.0233557302403 0)
(1.19903441517 0.0160720114938 0)
(1.19753873997 0.0108795117028 0)
(1.1964412721 0.00723418665022 0)
(1.19565554041 0.00471351778268 0)
(1.19510484181 0.0029976290278 0)
(1.19472642587 0.00184916120642 0)
(1.19447144152 0.00109496088643 0)
(1.19430312737 0.000610611693387 0)
(1.19419448386 0.000307986649583 0)
(1.19412619484 0.0001257684317 0)
(1.19408514076 2.22231245373e-05 0)
(1.19406187781 -3.24516587799e-05 0)
(1.1940495735 -5.72697716778e-05 0)
(1.19404407079 -6.45948397975e-05 0)
(1.19404256868 -6.23723766325e-05 0)
(1.19404324855 -5.55174235964e-05 0)
(1.19404499473 -4.69404139979e-05 0)
(1.19404714918 -3.82547838413e-05 0)
(1.19404933969 -3.02615029998e-05 0)
(1.19405137447 -2.32654301454e-05 0)
(1.19405318461 -1.72899699835e-05 0)
(1.19405476452 -1.22614618774e-05 0)
(1.1940561304 -8.07312787685e-06 0)
(1.19405730126 -4.67108519517e-06 0)
(1.19405824891 -2.05912550647e-06 0)
(1.19405891941 -1.68698770325e-07 0)
(1.19405927202 1.14966287516e-06 0)
(1.19405938267 2.00685517897e-06 0)
(1.19405943275 2.68681920652e-06 0)
(1.19405945858 3.29182012622e-06 0)
(1.19405943524 3.82174616597e-06 0)
(1.19405937975 4.28497389709e-06 0)
(1.19405928649 4.69369524048e-06 0)
(1.19405914587 5.06489214251e-06 0)
(1.19405895939 5.41030189342e-06 0)
(1.19405873175 5.73159205262e-06 0)
(1.19405847921 6.01708920372e-06 0)
(1.19405824389 6.26200968065e-06 0)
(1.19405806412 6.48784257864e-06 0)
(1.19405797065 6.68603646441e-06 0)
(1.1940580138 6.83036881083e-06 0)
(1.19405825528 6.88077395034e-06 0)
(1.19405874215 6.78014898813e-06 0)
(1.19405944871 6.44563331213e-06 0)
(1.19406043095 5.71398793256e-06 0)
(1.19406184488 4.25327481638e-06 0)
(1.19406428607 1.55643706858e-06 0)
(1.19406881174 -2.60181359552e-06 0)
(1.19407607825 -8.98858721445e-06 0)
(1.19408597253 -1.90340318041e-05 0)
(1.19409918986 -3.47202781817e-05 0)
(1.19411771789 -5.89579423526e-05 0)
(1.19414368462 -9.63341359432e-05 0)
(1.19417989603 -0.000154170429433 0)
(1.19423032815 -0.000244131859686 0)
(1.19430059765 -0.000384726074082 0)
(1.19439856695 -0.000605469897987 0)
(1.19453499358 -0.000953809241698 0)
(1.19472393089 -0.00150645594809 0)
(1.19498215964 -0.0023879842985 0)
(1.1953244994 -0.00380219782644 0)
(1.19574826053 -0.00608304419764 0)
(1.19619319112 -0.00977112643716 0)
(1.19643956524 -0.0157133175656 0)
(1.19590019699 -0.0251257738241 0)
(1.1934190692 -0.039472856488 0)
(1.18665657379 -0.0600109611339 0)
(1.17008246088 -0.0854480303615 0)
(0.998962324538 0.0544316241863 0)
(1.05310956352 0.133401606524 0)
(1.11628267317 0.170777557489 0)
(1.17301270754 0.175143871846 0)
(1.21791244842 0.159583606688 0)
(1.25049856327 0.13495102081 0)
(1.27288489413 0.108411657578 0)
(1.287767202 0.083884972233 0)
(1.29745265807 0.0630565721448 0)
(1.30366072535 0.04629992046 0)
(1.30759231491 0.0333205132943 0)
(1.31005366919 0.0235495221788 0)
(1.31157358988 0.0163599059628 0)
(1.31249488985 0.0111713137159 0)
(1.31303858069 0.00749150583502 0)
(1.31334667055 0.00492448558451 0)
(1.31351008288 0.00316295524127 0)
(1.31358671112 0.00197475187169 0)
(1.31361308551 0.00118819656633 0)
(1.31361193387 0.000678628430613 0)
(1.31359709411 0.00035700707999 0)
(1.31357677105 0.000160752467212 0)
(1.31355577516 4.6467738214e-05 0)
(1.31353647858 -1.58703356804e-05 0)
(1.3135198198 -4.60581175947e-05 0)
(1.31350613032 -5.70673417363e-05 0)
(1.31349522497 -5.73213712378e-05 0)
(1.31348676649 -5.2082456323e-05 0)
(1.31348036673 -4.45200107719e-05 0)
(1.3134756407 -3.64584010137e-05 0)
(1.31347223761 -2.88706179977e-05 0)
(1.31346985464 -2.22099744465e-05 0)
(1.31346823243 -1.66277571896e-05 0)
(1.3134671428 -1.21312631228e-05 0)
(1.31346642015 -8.65457123149e-06 0)
(1.31346596672 -6.09620411116e-06 0)
(1.3134656807 -4.31915293972e-06 0)
(1.3134654722 -3.11600698978e-06 0)
(1.31346533871 -2.25729266571e-06 0)
(1.31346536626 -1.53888801666e-06 0)
(1.31346551721 -9.61848820638e-07 0)
(1.31346561342 -5.4706376596e-07 0)
(1.31346560368 -1.83876449531e-07 0)
(1.31346552051 1.56038728618e-07 0)
(1.31346538603 4.70942897423e-07 0)
(1.31346521223 7.69925622509e-07 0)
(1.31346500173 1.06551163764e-06 0)
(1.31346475614 1.36982203429e-06 0)
(1.31346448784 1.6959691067e-06 0)
(1.31346422999 2.03778713345e-06 0)
(1.31346400157 2.34796639598e-06 0)
(1.31346381051 2.59112645497e-06 0)
(1.3134636876 2.72403143917e-06 0)
(1.31346368382 2.68301352984e-06 0)
(1.31346388311 2.37985338148e-06 0)
(1.31346440571 1.71645536581e-06 0)
(1.3134652613 6.39738521972e-07 0)
(1.31346644678 -1.05326628101e-06 0)
(1.31346840655 -3.49117117088e-06 0)
(1.31347142916 -7.40932734801e-06 0)
(1.31347565226 -1.41202356803e-05 0)
(1.31348131168 -2.52284835434e-05 0)
(1.31348866701 -4.23110088621e-05 0)
(1.31349819734 -6.85268063049e-05 0)
(1.31351021139 -0.000108905583869 0)
(1.31352477095 -0.000171197697525 0)
(1.31354147558 -0.000267504827702 0)
(1.31355898713 -0.000416798809582 0)
(1.31357406507 -0.000648945359292 0)
(1.31357973614 -0.00101127397426 0)
(1.31356190726 -0.00157898953823 0)
(1.31349303949 -0.00247136341272 0)
(1.31331869302 -0.00387618295738 0)
(1.31293102792 -0.00608674484638 0)
(1.31211960905 -0.0095490918963 0)
(1.31047826302 -0.0149073610718 0)
(1.30725204772 -0.0229940684006 0)
(1.30122825062 -0.0346562257654 0)
(1.29053299752 -0.0503407833686 0)
(1.2716824422 -0.0688330873247 0)
(0.995736073128 0.0346338587684 0)
(1.04179513986 0.0905689200477 0)
(1.10222838063 0.121549564281 0)
(1.1649141084 0.129605834024 0)
(1.22202565433 0.122009268971 0)
(1.26951891063 0.106019939295 0)
(1.3068022274 0.0870975569665 0)
(1.33499534221 0.0686366817227 0)
(1.35574476204 0.0523698390567 0)
(1.37069615344 0.0389256172267 0)
(1.38128273908 0.0282980719895 0)
(1.38866265849 0.0201712753638 0)
(1.39373031233 0.014117508574 0)
(1.39715658413 0.0097053345099 0)
(1.39943432366 0.0065505943048 0)
(1.4009196437 0.00433445424393 0)
(1.40186618819 0.00280414486913 0)
(1.40245220678 0.00176574314391 0)
(1.40280130229 0.00107419495419 0)
(1.40299799697 0.000623234472038 0)
(1.40309921622 0.000336408292094 0)
(1.40314266795 0.000159622049532 0)
(1.40315292735 5.5163302853e-05 0)
(1.40314543776 -2.9984283181e-06 0)
(1.40312967794 -3.2122069714e-05 0)
(1.40311127548 -4.38887533762e-05 0)
(1.40309323722 -4.57582894372e-05 0)
(1.40307708762 -4.24159235778e-05 0)
(1.40306342836 -3.67251635499e-05 0)
(1.40305233336 -3.03627468378e-05 0)
(1.40304360113 -2.42431565978e-05 0)
(1.40303690658 -1.88133839157e-05 0)
(1.40303188861 -1.42416778043e-05 0)
(1.40302819731 -1.0530007769e-05 0)
(1.40302553455 -7.57766205574e-06 0)
(1.40302366765 -5.25986656266e-06 0)
(1.40302241951 -3.45394046582e-06 0)
(1.40302163896 -2.01633774568e-06 0)
(1.40302116018 -8.42501681895e-07 0)
(1.40302078821 9.09961616797e-08 0)
(1.40302045635 8.01906787864e-07 0)
(1.40302024794 1.29287227356e-06 0)
(1.40302014967 1.66655430561e-06 0)
(1.40302006878 1.98931791043e-06 0)
(1.40301997107 2.29860679629e-06 0)
(1.40301984948 2.61259715568e-06 0)
(1.40301970215 2.94083144703e-06 0)
(1.40301953044 3.28838748753e-06 0)
(1.40301933391 3.65681946092e-06 0)
(1.40301910525 4.03351338482e-06 0)
(1.40301885783 4.37829589479e-06 0)
(1.40301862533 4.66134584282e-06 0)
(1.40301843523 4.8450500746e-06 0)
(1.40301831364 4.8725452288e-06 0)
(1.40301828126 4.65667654576e-06 0)
(1.40301834073 4.05528851383e-06 0)
(1.40301846144 2.86041383948e-06 0)
(1.40301872825 9.52275338301e-07 0)
(1.40301930455 -1.98614418909e-06 0)
(1.403020285 -6.83333013467e-06 0)
(1.40302163622 -1.43625776884e-05 0)
(1.40302301473 -2.58866831002e-05 0)
(1.40302391367 -4.32440810245e-05 0)
(1.40302357438 -6.94082344141e-05 0)
(1.40302049305 -0.000108964149654 0)
(1.40301190139 -0.000168938757874 0)
(1.40299297111 -0.000260227891689 0)
(1.40295548049 -0.000399693697827 0)
(1.40288540189 -0.000613423450047 0)
(1.40275888834 -0.000942118830819 0)
(1.40253584192 -0.00144931328967 0)
(1.40214969167 -0.0022335175378 0)
(1.4014884075 -0.00344425746016 0)
(1.4003630349 -0.00530604690518 0)
(1.39845931671 -0.00814295307665 0)
(1.39526245009 -0.0123918341284 0)
(1.38995656847 -0.0185669037725 0)
(1.38138889899 -0.0271107612522 0)
(1.36805567845 -0.0381118523682 0)
(1.34755213817 -0.0506858697151 0)
(0.994011530407 0.0192358050278 0)
(1.0348476321 0.0523338389516 0)
(1.09199262032 0.0723631264221 0)
(1.15662419123 0.0791292316074 0)
(1.22032115355 0.0761045465587 0)
(1.2770194421 0.0673339720925 0)
(1.32424417779 0.0561509042056 0)
(1.36181572397 0.0447990114132 0)
(1.39068529473 0.034530377484 0)
(1.41226073505 0.0258814317318 0)
(1.42801820421 0.0189465227389 0)
(1.43929882055 0.0135849805491 0)
(1.44722805104 0.0095565327739 0)
(1.45270410433 0.00660011423018 0)
(1.45641892734 0.00447418956854 0)
(1.45889141147 0.00297351331486 0)
(1.4605022749 0.00193276891865 0)
(1.46152567045 0.00122369417 0)
(1.46215568486 0.000749550823003 0)
(1.46252750829 0.000439017780065 0)
(1.46273378424 0.000240520961653 0)
(1.46283692618 0.000117411736726 0)
(1.46287822825 4.40495041579e-05 0)
(1.46288446701 2.6915596284e-06 0)
(1.46287234223 -1.8442953019e-05 0)
(1.46285199025 -2.74361237894e-05 0)
(1.46282943786 -2.94354893331e-05 0)
(1.46280789789 -2.7685262614e-05 0)
(1.46278889831 -2.41833452591e-05 0)
(1.46277298385 -2.01108904521e-05 0)
(1.462760146 -1.611634297e-05 0)
(1.46275009066 -1.25223598767e-05 0)
(1.4627424074 -9.4554065574e-06 0)
(1.46273666398 -6.92622210325e-06 0)
(1.46273246142 -4.88105439702e-06 0)
(1.46272945687 -3.25064425893e-06 0)
(1.46272736134 -1.97209337562e-06 0)
(1.46272591741 -1.00439012782e-06 0)
(1.46272491379 -3.02345142745e-07 0)
(1.462724286 2.21864224051e-07 0)
(1.4627239205 7.06572853208e-07 0)
(1.46272366863 1.18650719593e-06 0)
(1.46272349863 1.61515711375e-06 0)
(1.4627233711 2.00001530369e-06 0)
(1.46272325662 2.36257397828e-06 0)
(1.46272313582 2.71650694887e-06 0)
(1.46272299476 3.06749666723e-06 0)
(1.46272282435 3.41375741124e-06 0)
(1.46272261973 3.74622345875e-06 0)
(1.46272237833 4.05410667713e-06 0)
(1.46272210367 4.33011760617e-06 0)
(1.46272180344 4.54290660589e-06 0)
(1.46272148414 4.64244092124e-06 0)
(1.46272115392 4.55966588142e-06 0)
(1.46272082466 4.20368300951e-06 0)
(1.46272051499 3.46129004396e-06 0)
(1.46272024162 2.21161599007e-06 0)
(1.46271989088 3.84877706749e-07 0)
(1.46271926095 -2.35959624761e-06 0)
(1.46271823822 -6.77805463211e-06 0)
(1.46271657338 -1.36726042325e-05 0)
(1.46271358375 -2.41470651601e-05 0)
(1.46270813497 -3.97349659199e-05 0)
(1.46269840455 -6.2806188703e-05 0)
(1.46268131426 -9.69521233055e-05 0)
(1.4626516821 -0.000147549990386 0)
(1.46260098457 -0.000222813769831 0)
(1.46251543043 -0.000335153795784 0)
(1.46237242351 -0.000503170221575 0)
(1.46213490948 -0.000755358496243 0)
(1.4617428907 -0.00113575413496 0)
(1.4611014605 -0.00171167176387 0)
(1.46005875562 -0.00257926988895 0)
(1.45837294794 -0.00387864248218 0)
(1.45566875265 -0.00580294023248 0)
(1.45137852417 -0.00859653180137 0)
(1.44467829059 -0.0125215276638 0)
(1.43449338033 -0.0177612324139 0)
(1.41955565709 -0.0242677260089 0)
(1.3980059954 -0.0314994743077 0)
(0.993269666467 0.00617014900797 0)
(1.03158099639 0.0171020444284 0)
(1.08672181181 0.0239906474724 0)
(1.1517455362 0.0265606653763 0)
(1.21823535304 0.0258180591491 0)
(1.27925773039 0.0230488869116 0)
(1.33140134747 0.01936563233 0)
(1.37377597392 0.0155468585572 0)
(1.40691051917 0.0120449302897 0)
(1.43203311772 0.00906639920254 0)
(1.45060213015 0.00666059373368 0)
(1.4640298364 0.00479009026475 0)
(1.47355013645 0.0033784273028 0)
(1.48017560756 0.00233873765729 0)
(1.48470225991 0.00158891420791 0)
(1.48773617552 0.00105828988319 0)
(1.48972731258 0.000689464200807 0)
(1.49100274206 0.000437640001455 0)
(1.49179582166 0.00026888726062 0)
(1.49227019205 0.000158112438884 0)
(1.49253868418 8.71258663114e-05 0)
(1.49267776134 4.29761760308e-05 0)
(1.4927382959 1.65865508998e-05 0)
(1.49275347102 1.66651485732e-06 0)
(1.49274423503 -6.06554411878e-06 0)
(1.49272344729 -9.41011362867e-06 0)
(1.49269880273 -1.0215797769e-05 0)
(1.49267452937 -9.65227897546e-06 0)
(1.49265272487 -8.438261467e-06 0)
(1.49263423111 -6.9916565573e-06 0)
(1.49261917106 -5.55265858794e-06 0)
(1.49260728273 -4.24107855015e-06 0)
(1.49259813677 -3.10419191493e-06 0)
(1.49259125756 -2.14814256981e-06 0)
(1.49258619074 -1.35680278767e-06 0)
(1.49258253554 -7.08495881329e-07 0)
(1.49257995567 -1.81894933232e-07 0)
(1.49257818096 2.44986977766e-07 0)
(1.49257700533 6.18573697053e-07 0)
(1.49257625147 9.8982991484e-07 0)
(1.49257576642 1.29743764689e-06 0)
(1.49257545864 1.58543601604e-06 0)
(1.49257527091 1.8711359662e-06 0)
(1.49257515071 2.16499340187e-06 0)
(1.49257505887 2.47440106938e-06 0)
(1.49257496879 2.8023924998e-06 0)
(1.49257486149 3.14862802673e-06 0)
(1.49257472316 3.50934592441e-06 0)
(1.49257454345 3.87633634462e-06 0)
(1.49257431394 4.23608840484e-06 0)
(1.49257402935 4.56942696263e-06 0)
(1.49257368604 4.84492725956e-06 0)
(1.49257327761 5.01881765653e-06 0)
(1.49257279277 5.03129536778e-06 0)
(1.49257221085 4.80081055088e-06 0)
(1.49257150205 4.21551486762e-06 0)
(1.49257065603 3.12649012233e-06 0)
(1.49256954931 1.37985347689e-06 0)
(1.49256774267 -1.2126744208e-06 0)
(1.49256491501 -5.1348340293e-06 0)
(1.49256069292 -1.1046519892e-05 0)
(1.49255406156 -1.97053324364e-05 0)
(1.49254339211 -3.21726861009e-05 0)
(1.49252612495 -4.99877122004e-05 0)
(1.49249813588 -7.53288023123e-05 0)
(1.49245266349 -0.000111173636081 0)
(1.4923788456 -0.00016196268984 0)
(1.49225961212 -0.000234032110585 0)
(1.49206739963 -0.00033585186601 0)
(1.49175722316 -0.000480163019917 0)
(1.49125705801 -0.00068781695689 0)
(1.49045785609 -0.000990955680875 0)
(1.48918901988 -0.00142247433834 0)
(1.48718380102 -0.00203026954733 0)
(1.48404224833 -0.0028758887187 0)
(1.47918196911 -0.00402710554169 0)
(1.47179207938 -0.005538708645 0)
(1.46085289799 -0.00741300775205 0)
(1.44520791807 -0.00955708888967 0)
(1.42323376101 -0.0117236829766 0)
(0.993270464338 -0.00616840332243 0)
(1.03158097923 -0.0171003778047 0)
(1.08672174588 -0.0239897632105 0)
(1.15174557425 -0.0265602478319 0)
(1.21823543115 -0.0258179933717 0)
(1.27925783241 -0.0230491099517 0)
(1.33140147329 -0.0193660468656 0)