/*--------------------------------*- C++ -*----------------------------------*\
| =========                 |                                                 |
| \\      /  F ield         | OpenFOAM: The Open Source CFD Toolbox           |
|  \\    /   O peration     | Version:  2106                                  |
|   \\  /    A nd           | Website:  www.openfoam.com                      |
|    \\/     M anipulation  |                                                 |
\*---------------------------------------------------------------------------*/
FoamFile
{
    version     2.0;
    format      ascii;
    arch        "LSB;label=32;scalar=64";
    class       volScalarField;
    location    "0.16";
    object      p;
}
// * * * * * * * * * * * * * * * * * * * * * * * * * * * * * * * * * * * * * //

dimensions      [0 2 -2 0 0 0 0];

internalField   nonuniform List<scalar> 
9600
(
2.21585243112
-0.682157157875
-1.58638916631
-1.97200024569
-2.19133068461
-2.33127470194
-2.43517982658
-2.52272974297
-2.60222975019
-2.67762060186
-2.75099503522
-2.82350425146
-2.89577785668
-2.96814668292
-3.04076729979
-3.11369564664
-3.18693175271
-3.26044727371
-3.33420193803
-3.40815284134
-3.48225925709
-3.55648671317
-3.63080473079
-3.70518913658
-3.77962067936
-3.8540842624
-3.92856819257
-4.00306359399
-4.07756365732
-4.15206311683
-4.2265578937
-4.30104474868
-4.37552099426
-4.44998428193
-4.52443257343
-4.59886393269
-4.67327640689
-4.74766803521
-4.82203681774
-4.89638065413
-4.97069721388
-5.04498403018
-5.11923856887
-5.19345806798
-5.26763942018
-5.34177929897
-5.41587421651
-5.48992038935
-5.56391370104
-5.63784977023
-5.71172388995
-5.78553098111
-5.85926559035
-5.93292192852
-6.00649377816
-6.07997441029
-6.15335666956
-6.22663295419
-6.29979512541
-6.37283446012
-6.44574167967
-6.51850693424
-6.59111969014
-6.6635687084
-6.73584208059
-6.80792716758
-6.87981050651
-6.9514777961
-7.02291394582
-7.09410298313
-7.16502792458
-7.23567081066
-7.30601271809
-7.37603365035
-7.4457124249
-7.51502674068
-7.58395319792
-7.65246714461
-7.72054259958
-7.7881522393
-7.8552673769
-7.92185787969
-7.98789217752
-8.05333726795
-8.11815851651
-8.18231963837
-8.24578280026
-8.30850857174
-8.37045571498
-8.43158109642
-8.49183992782
-8.55118573884
-8.60957009441
-8.66694256511
-8.72325084538
-8.77844082429
-8.83245639007
-8.88523930351
-8.93672944341
-8.9868647912
-9.03558128165
-9.08281279169
-9.12849121929
-9.1725465805
-9.21490674609
-9.25549756513
-9.29424321294
-9.33106596004
-9.36588603974
-9.39862178559
-9.42918994816
-9.4575056625
-9.48348215734
-9.50703102773
-9.52806243825
-9.54648516758
-9.56220673851
-9.57513316246
-9.58516932541
-9.59221904636
-9.59618507888
-9.59696946783
-9.59447354985
-9.5885978426
-9.5792424543
-9.56630656127
-9.54968966529
-9.52928959041
-9.50500474763
-9.47673308799
-9.44437227433
-9.40781960381
-9.3669721018
-9.32172616769
-9.27197725645
-9.21761996605
-9.15854708335
-9.09464975522
-9.02581571561
-8.95192839764
-8.87286694494
-8.78850334498
-8.69870033182
-8.60330847572
-8.50216316067
-8.39507951115
-8.28184488321
-8.16221094235
-8.03588109612
-7.90249206383
-7.7615871203
-7.61257315081
-7.45464901362
-7.28668015132
-7.1069827224
-6.91300853835
-6.70086060208
-6.46469882692
-6.20512893467
-5.98792251865
0.304311016747
-0.878042606281
-1.48671672148
-1.84074238816
-2.08335758289
-2.25392181297
-2.38199385212
-2.48649676046
-2.5775729334
-2.66085219626
-2.73962571223
-2.81584326746
-2.89066427934
-2.96477693807
-3.03858323037
-3.1123099103
-3.18607676569
-3.25993953501
-3.33391686633
-3.408006936
-3.48219816329
-3.55647405638
-3.63081794634
-3.70521448674
-3.77965007049
-3.8541132594
-3.92859460255
-4.00308654028
-4.07758305058
-4.1520792852
-4.22657132991
-4.30105598805
-4.37553057882
-4.44999268683
-4.52444018184
-4.59887107593
-4.67328336651
-4.74767504172
-4.82204406272
-4.89638830573
-4.97070542338
-5.04499294793
-5.11924827128
-5.19346855055
-5.26765076011
-5.34179160262
-5.41588756143
-5.48993483611
-5.56392932642
-5.6378666565
-5.71174212651
-5.78555068826
-5.85928688955
-5.93294489544
-6.00651850734
-6.08000105208
-6.15338538607
-6.22666389871
-6.29982844061
-6.37287027365
-6.4457801227
-6.5185481885
-6.59116396823
-6.66361620508
-6.73589297597
-6.80798165974
-6.87986882436
-6.95154018131
-7.02298062223
-7.09417417101
-7.16510389263
-7.23575185039
-7.3060990795
-7.37612559745
-7.44581029844
-7.51513090633
-7.58406399275
-7.65258487738
-7.72066756956
-7.78828476328
-7.85540784866
-7.92200674612
-7.98804984567
-8.05350412509
-8.11833498005
-8.1825061479
-8.24597977477
-8.30871640194
-8.37067484657
-8.43181206524
-8.49208326411
-8.55144188313
-8.60983949091
-8.66722576782
-8.72354838027
-8.7787531058
-8.83278391419
-8.88558266622
-8.93708919916
-8.98724149903
-9.03597550421
-9.08322504228
-9.12892198873
-9.17299638188
-9.2153761514
-9.25598715713
-9.29475350653
-9.33159738232
-9.36643909157
-9.39919700006
-9.42978750585
-9.45812582518
-9.48412528125
-9.50769757692
-9.5287528343
-9.5471996855
-9.56294576893
-9.57589712001
-9.58595865678
-9.59303425378
-9.59702664763
-9.59783782195
-9.59536910463
-9.58952121782
-9.58019308963
-9.56728455541
-9.55069513162
-9.53032385357
-9.50606933274
-9.47783014191
-9.44550471423
-9.40899104981
-9.36818720575
-9.32299084592
-9.27329878425
-9.21900754044
-9.16001211925
-9.09620642448
-9.0274822711
-8.95372759903
-8.87482675783
-8.79065884154
-8.70109594498
-8.60600013012
-8.50522127031
-8.39859394033
-8.28593134571
-8.16701954747
-8.04160920214
-7.90940399061
-7.77004565117
-7.62309380811
-7.46799991488
-7.30407630002
-7.13047251941
-6.94624614907
-6.75061665354
-6.54281523902
-6.32328628888
-6.11503116972
-0.67153111098
-1.15289866044
-1.54415640289
-1.83577439943
-2.0573467601
-2.22528326163
-2.35738549327
-2.46717447239
-2.56303358027
-2.65017896985
-2.73192177611
-2.81035671101
-2.88680422865
-2.96209399939
-3.0367421803
-3.11106416804
-3.18524711571
-3.25939714236
-3.3335701534
-3.40779153266
-3.48206913864
-3.55640092017
-3.6307800645
-3.70519812664
-3.77964627235
-3.85411633843
-3.92860107108
-4.00309431542
-4.07759096399
-4.15208675943
-4.226578133
-4.30106206549
-4.37553600167
-4.44999759346
-4.52444469318
-4.59887530689
-4.67328744485
-4.74767906502
-4.82204806594
-4.89639233594
-4.97070957456
-5.04499727476
-5.11925280463
-5.19347335775
-5.26765591392
-5.34179715446
-5.4158935406
-5.48994132372
-5.56393639606
-5.63787433773
-5.71175043205
-5.78555965598
-5.85929658191
-5.93295536536
-6.00652979715
-6.08001321073
-6.15339844222
-6.22667788552
-6.29984346309
-6.37288645987
-6.44579753579
-6.51856685997
-6.59118398492
-6.66363766808
-6.73591595499
-6.80800622483
-6.87989507479
-6.95156823568
-7.02301060202
-7.09420620183
-7.16513808981
-7.23578833596
-7.30613797494
-7.37616701522
-7.4458543724
-7.51517777379
-7.58411379414
-7.65263778844
-7.72072378876
-7.78834444622
-7.85547110341
-7.92207372375
-7.98812072831
-8.05357907504
-8.11841418878
-8.18258984676
-8.24606816292
-8.30880962877
-8.37077310938
-8.43191560536
-8.49219226281
-8.55155649616
-8.60995991794
-8.66735225484
-8.72368116797
-8.77889237214
-8.83292983477
-8.88573546649
-8.9372490885
-8.98740861564
-9.03615000762
-9.08340714499
-9.12911185135
-9.17319412901
-9.21558200403
-9.25620132372
-9.29497611428
-9.33182860548
-9.36667914581
-9.39944624772
-9.43004660003
-9.45839512876
-9.48440511461
-9.5079883387
-9.52905500756
-9.54751370218
-9.56327195753
-9.57623592697
-9.58631054932
-9.59339984108
-9.59740677441
-9.59823331985
-9.5957807585
-9.58995025739
-9.58064198899
-9.56775551219
-9.5511903879
-9.53084569031
-9.50662043104
-9.47841351897
-9.44612401456
-9.40965069004
-9.36889235497
-9.32374804218
-9.27411605678
-9.21989478698
-9.16098135757
-9.09727215404
-9.02866278975
-8.95504587101
-8.87631113102
-8.79234431637
-8.7030264088
-8.60823097374
-8.50782197484
-8.40165236265
-8.28955977985
-8.1713627428
-8.04685593616
-7.91580424906
-7.777936577
-7.6329403004
-7.48046017927
-7.32010989835
-7.15151083899
-6.97442167132
-6.78905016931
-6.59620929775
-6.39734793604
-6.20140769248
-1.22299120175
-1.4093377748
-1.65178306521
-1.87425330854
-2.06144307274
-2.21547117659
-2.34390905911
-2.4542001817
-2.55199518518
-2.64135583972
-2.72512754834
-2.80525467675
-2.88304481456
-2.95936717978
-3.03479215622
-3.10968841752
-3.18428964943
-3.25874020628
-3.33312632794
-3.40749684352
-3.48187725854
-3.55627886603
-3.63070512626
-3.70515396881
-3.77962190065
-3.85410434526
-3.9285965711
-4.00309414561
-4.07759312201
-4.15209003204
-4.226581822
-4.3010657707
-4.3755395252
-4.45000088734
-4.52444776081
-4.59887816562
-4.67329014821
-4.74768170063
-4.82205068976
-4.89639496979
-4.97071227715
-5.04500012395
-5.1192558471
-5.19347660731
-5.26765938675
-5.3418008811
-5.4158975287
-5.48994555503
-5.56394088405
-5.63787912482
-5.7117555538
-5.78556513896
-5.85930247803
-5.93296172445
-6.00653664909
-6.08002061147
-6.15340644021
-6.22668652098
-6.29985271451
-6.37289637076
-6.44580821956
-6.51857836182
-6.59119629414
-6.66365085202
-6.7359301109
-6.80802137335
-6.87991123854
-6.95158550488
-7.02302903808
-7.09422581587
-7.16515895982
-7.23581058534
-7.30616169524
-7.37619226603
-7.44588122367
-7.51520631785
-7.58414410772
-7.65266994408
-7.72075789337
-7.78838061228
-7.85550940448
-7.92211425294
-7.98816361857
-8.05362442918
-8.11846208484
-8.18264040665
-8.2461215599
-8.30886598719
-8.37083248542
-8.43197811353
-8.49225809497
-8.55162582951
-8.61003284998
-8.66742887792
-8.72376167758
-8.77897696065
-8.83301861928
-8.88582862374
-8.93734687472
-8.98751126984
-9.03625770901
-9.0835201902
-9.1292305347
-9.17331856009
-9.21571232832
-9.25633786138
-9.29511917572
-9.33197837424
-9.36683573348
-9.39960984112
-9.43021724372
-9.458572912
-9.48459021433
-9.50818090161
-9.52925532907
-9.54772209157
-9.56348874272
-9.57646150139
-9.58654529431
-9.59364420071
-9.59766136468
-9.59849901919
-9.59605830659
-9.59024045387
-9.58094600849
-9.56807469675
-9.55152641883
-9.53120084773
-9.50699757971
-9.47881609883
-9.44655625797
-9.41011776152
-9.36940041654
-9.32430457703
-9.27473027949
-9.2205780292
-9.16174763242
-9.09813827966
-9.02964918246
-8.95617796271
-8.87762039558
-8.7938693081
-8.70481473525
-8.61034213042
-8.51033034891
-8.40465125771
-8.2931669796
-8.17572824097
-8.05217256933
-7.9223224921
-7.78598587513
-7.64295931276
-7.4930387695
-7.3360452766
-7.17187193887
-7.00057885233
-6.82256518597
-6.63863302132
-6.44980519242
-6.25929515443
-1.56033583677
-1.61210086612
-1.75599286824
-1.92028834157
-2.07462072608
-2.21267865103
-2.33483274582
-2.44362176099
-2.54206630645
-2.63289693633
-2.7183051466
-2.79994357818
-2.87901391717
-2.95636813163
-3.03259789842
-3.10810690553
-3.18316582375
-3.25795270393
-3.33258235955
-3.40712681872
-3.48162981009
-3.55611668109
-3.63060124675
-3.70508926021
-3.77958315381
-3.85408245772
-3.92858535654
-4.00308948659
-4.07759232944
-4.15209139337
-4.22658429384
-4.30106872598
-4.37554259392
-4.45000389904
-4.52445065649
-4.59888092284
-4.67329277336
-4.74768425564
-4.82205325017
-4.89639756807
-4.97071494614
-5.04500292149
-5.11925883119
-5.19347980746
-5.26766282412
-5.34180460674
-5.41590159525
-5.48995000252
-5.56394575269
-5.63788445028
-5.71176136703
-5.78557145604
-5.85930930297
-5.93296906766
-6.00654452038
-6.08002904174
-6.15341550894
-6.2266962486
-6.2998631351
-6.37290755915
-6.44582025593
-6.51859128425
-6.59121013025
-6.66366563973
-6.73594590758
-6.80803826822
-6.87992931729
-6.95160482812
-7.02304968262
-7.09424788586
-7.16518252561
-7.23583570627
-7.30618846153
-7.37622077067
-7.44591157872
-7.51523865468
-7.58417852595
-7.65270649267
-7.7207966552
-7.78842173872
-7.85555302887
-7.922160487
-7.98821256824
-8.05367617465
-8.1185167363
-8.18269813822
-8.24618252668
-8.30893025945
-8.37090015862
-8.43204934137
-8.4923330028
-8.55170453197
-8.61011547147
-8.66751551539
-8.7238524725
-8.77907208101
-8.83311815823
-8.88593267657
-8.93745556734
-8.98762467614
-9.03637589192
-9.08364323055
-9.12935855732
-9.17345167887
-9.21585061996
-9.2564814168
-9.29526815707
-9.33213292467
-9.36699597643
-9.39977592604
-9.43038943797
-9.45875154656
-9.48477552875
-9.50837308652
-9.52945461205
-9.54792880469
-9.56370320736
-9.57668417725
-9.58677670315
-9.5938847948
-9.59791174001
-9.59876008312
-9.59633111725
-9.59052598728
-9.58124567616
-9.56839023869
-9.55185984331
-9.53155457725
-9.50737461336
-9.47922007477
-9.44699155503
-9.41058990307
-9.36991603385
-9.3248717229
-9.27535868526
-9.22127953444
-9.16253710627
-9.09903379693
-9.03067248724
-8.95735570803
-8.8789855799
-8.79546248238
-8.70668548063
-8.61255170406
-8.51295471188
-8.40778492787
-8.29692805726
-8.18026491516
-8.05767182411
-7.92902161217
-7.79418761341
-7.65305082439
-7.5055137441
-7.35152538563
-7.19111706143
-7.02445417722
-6.85189328111
-6.67392782644
-6.4908957538
-6.30332460738
-1.76440917562
-1.75943400398
-1.84340574453
-1.96419684122
-2.09083970005
-2.21351964376
-2.32841676026
-2.43461362338
-2.5328972274
-2.6246868238
-2.71144823545
-2.79446385019
-2.87476829629
-2.95315538861
-3.03021312285
-3.10636597189
-3.18191407131
-3.2570656287
-3.33196269335
-3.40670034912
-3.48134096485
-3.55592446376
-3.63047560236
-3.7050095872
-3.77953406888
-3.85405352004
-3.92856941401
-4.00308170867
-4.0775895163
-4.15209146203
-4.22658594473
-4.30107117139
-4.37554534777
-4.4500066948
-4.5244533824
-4.5988835423
-4.6732952709
-4.74768665459
-4.82205561653
-4.89639995182
-4.97071737462
-5.0450054291
-5.11926146547
-5.19348260228
-5.2676657936
-5.34180777829
-5.41590499595
-5.48995363324
-5.56394960753
-5.63788854629
-5.71176573289
-5.78557610737
-5.85931429257
-5.93297446632
-6.0065503683
-6.08003533187
-6.15342226927
-6.22670355915
-6.29987103468
-6.37291603753
-6.44582934201
-6.51860104914
-6.59122061357
-6.66367685847
-6.73595791135
-6.80805111779
-6.87994304217
-6.95161946224
-7.023065297
-7.09426454867
-7.16520027206
-7.23585458382
-7.30620856028
-7.37624217152
-7.4459343234
-7.51526279505
-7.58420415726
-7.65273371024
-7.72082551283
-7.78845230169
-7.85558538424
-7.92219470624
-7.98824875268
-8.05371446522
-8.11855721958
-8.18274082141
-8.2462275038
-8.30897774998
-8.37095028889
-8.43210213981
-8.49238856853
-8.55176303962
-8.61017705926
-8.66758026242
-8.72392049729
-8.77914356465
-8.83319327326
-8.88601155875
-8.93753836146
-8.98771158815
-9.03646707876
-9.08373878433
-9.12945866695
-9.17355654778
-9.21596037296
-9.25659615962
-9.29538803926
-9.3322581583
-9.36712671692
-9.3999122717
-9.4305315713
-9.45889965684
-9.48492989268
-9.50853391594
-9.52962215568
-9.54810341668
-9.56388523653
-9.57687404365
-9.58697499324
-9.59409214942
-9.59812874126
-9.59898760823
-9.5965703556
-9.5907781411
-9.58151214962
-9.56867289435
-9.55216089781
-9.53187664921
-9.50772092275
-9.47959445152
-9.44739857997
-9.41103522868
-9.37040655838
-9.32541583881
-9.27596648661
-9.22196306472
-9.1633111943
-9.09991669327
-9.03168621927
-8.95852681086
-8.88034654517
-8.79705321016
-8.70855450812
-8.61475844046
-8.51557199289
-8.41090224383
-8.30065585615
-8.18473947224
-8.06306166605
-7.9355351634
-7.80208197308
-7.66264127122
-7.5171812032
-7.36571741317
-7.20833324897
-7.04519941159
-6.87657163689
-6.70269546618
-6.52354225373
-6.33875498149
-1.88753724452
-1.86208538178
-1.91144123604
-2.00160222898
-2.10652706985
-2.21584970381
-2.32368680508
-2.42691105219
-2.52458547615
-2.6169763381
-2.70484817022
-2.7890925756
-2.8705482367
-2.94992653304
-3.02779469668
-3.10458701234
-3.18062646019
-3.25614763491
-3.33131776528
-3.40625395828
-3.48103680978
-3.55572078094
-3.63034191656
-3.70492386569
-3.7794805634
-3.85402142866
-3.92855124569
-4.00307237366
-4.07758562305
-4.15209077656
-4.22658704644
-4.30107320102
-4.3755477784
-4.45000921608
-4.52445584632
-4.59888590561
-4.67329752041
-4.74768879385
-4.82205769605
-4.89640202606
-4.97071947365
-5.04500757647
-5.11926369684
-5.193484956
-5.26766828783
-5.34181043653
-5.41590785137
-5.48995671044
-5.56395292857
-5.63789214963
-5.71176966455
-5.78558038059
-5.85931890784
-5.93297942538
-6.00655568428
-6.08004100823
-6.15342832586
-6.22671005079
-6.29987801496
-6.37292352597
-6.44583735863
-6.5186096352
-6.59122980809
-6.66368668743
-6.7359684113
-6.80806234712
-6.87995505098
-6.95163228645
-7.02307898336
-7.09427916828
-7.16521588179
-7.23587121485
-7.30622627037
-7.37626104019
-7.44595440245
-7.51528412574
-7.58422682397
-7.65275781036
-7.72085110375
-7.78847944479
-7.8556141527
-7.92222515113
-7.98828093659
-8.05374848834
-8.11859317954
-8.18277877497
-8.24626750872
-8.30901989541
-8.37099466261
-8.43214882122
-8.49243761366
-8.5518145059
-8.61023105984
-8.66763688976
-8.72397979848
-8.77920565701
-8.83325829332
-8.88607956749
-8.93760941156
-8.98778580357
-9.03654459397
-9.08381967063
-9.12954301557
-9.17364449172
-9.21605207344
-9.25669173453
-9.295487574
-9.33236183425
-9.36723471704
-9.40002479541
-9.43064878009
-9.45902173242
-9.48505708138
-9.50866646113
-9.52976033254
-9.5482476226
-9.56403584752
-9.57703144666
-9.58713975062
-9.59426500237
-9.59831037655
-9.59917879996
-9.59677227602
-9.59099209766
-9.58173960794
-9.56891572998
-9.55242135737
-9.53215741575
-9.50802524869
-9.47992630362
-9.44776261648
-9.41143710322
-9.37085311238
-9.32591539223
-9.27652921304
-9.22260097002
-9.164038707
-9.10075147421
-9.03264972293
-8.95964480338
-8.88165003519
-8.79857992762
-8.71035015939
-8.61687851405
-8.51808378466
-8.41388723349
-8.30421308719
-8.18898909779
-8.06814920339
-7.94163592369
-7.80940535123
-7.67143424745
-7.52772817763
-7.37833317116
-7.22334421573
-7.06290767246
-6.89720009721
-6.7263460261
-6.55024777199
-6.36852066285
-1.96157865146
-1.93053386186
-1.96046142031
-2.03023469534
-2.11940294555
-2.2182802068
-2.32015967605
-2.42063241473
-2.51755958442
-2.61030629358
-2.69904379242
-2.78431057633
-2.86675599908
-2.9470040513
-3.02559330186
-3.10296028851
-3.1794445673
-3.25530227218
-3.3307221565
-3.40584059596
-3.48075439304
-3.55553109888
-3.63021701983
-3.704843671
-3.77943022546
-3.85399102124
-3.92853383881
-4.00306325314
-4.07758164042
-4.15208984857
-4.22658782506
-4.30107486403
-4.37554983202
-4.45001136924
-4.52445795051
-4.59888791559
-4.67329943122
-4.7476906056
-4.82205944071
-4.89640375274
-4.97072121565
-5.04500934784
-5.1192655191
-5.19348687042
-5.26767031976
-5.34181259703
-5.41591016387
-5.48995920018
-5.5639556043
-5.63789501303
-5.71177273589
-5.78558367795
-5.85932241507
-5.93298317981
-6.00655974328
-6.08004541112
-6.15343305965
-6.2267151262
-6.29988348088
-6.37292940746
-6.44584365253
-6.5186163609
-6.59123700946
-6.66369439523
-6.73597664486
-6.80807114625
-6.87996446235
-6.95164233711
-7.02308969835
-7.09429059392
-7.16522806811
-7.23588418509
-7.30624005307
-7.37627569318
-7.44596998535
-7.51530067763
-7.58424438409
-7.65277643755
-7.7208708516
-7.78850037119
-7.85563632509
-7.92224861183
-7.98830571125
-8.05377462936
-8.11862078884
-8.18280794423
-8.24629827508
-8.30905229834
-8.37102878573
-8.43218476108
-8.49247541629
-8.55185420123
-8.61027275095
-8.66768069054
-8.72402577205
-8.77925387456
-8.83330884846
-8.88613255311
-8.93766488821
-8.98784382458
-9.03660527788
-9.08388310002
-9.12960923155
-9.17371359625
-9.21612418299
-9.25676697281
-9.29556600067
-9.33244354563
-9.36731988238
-9.40011356687
-9.43074133553
-9.45911821415
-9.48515768763
-9.5087714773
-9.52987000194
-9.54836232184
-9.56415597203
-9.5771573584
-9.58727194256
-9.59440420884
-9.59845740477
-9.59933441622
-9.5969375568
-9.59116840137
-9.58192844951
-9.5691189556
-9.55264122609
-9.53239657889
-9.50828691889
-9.4802144049
-9.44808181678
-9.41179304106
-9.37125247923
-9.32636620384
-9.27704132761
-9.2231861787
-9.16471100206
-9.10152762961
-9.03355008555
-8.96069389951
-8.88287707415
-8.80002008539
-8.71204567001
-8.61888008759
-8.52045247479
-8.41669598935
-8.30754917971
-8.19295672409
-8.07287207175
-7.94725989863
-7.81610025508
-7.67939434489
-7.53717008704
-7.38948916099
-7.23644985773
-7.0781839737
-6.91483797434
-6.74652134043
-6.57322536033
-6.39481751813
-2.00381149478
-1.97225233175
-1.99189496693
-2.04934152181
-2.12835471169
-2.22013385279
-2.31775184367
-2.41613974884
-2.51242179031
-2.60535608248
-2.69468889637
-2.7806931921
-2.86386938514
-2.94476885478
-3.02390341459
-3.10170796421
-3.17853261292
-3.25464875995
-3.33026099647
-3.40552011795
-3.48053516192
-3.55538363699
-3.63011957027
-3.70477983934
-3.77939076685
-3.85396724191
-3.92852017659
-4.00305605006
-4.07757845212
-4.15208906348
-4.22658838714
-4.30107611794
-4.37555139144
-4.45001301142
-4.52445955619
-4.59888944668
-4.67330089455
-4.74769200287
-4.82206078678
-4.89640508255
-4.97072255745
-5.04501070901
-5.11926690955
-5.19348832661
-5.26767187035
-5.34181424703
-5.41591192396
-5.48996109358
-5.56395764324
-5.63789719323
-5.71177508151
-5.78558623242
-5.85932518062
-5.93298612831
-6.00656287991
-6.08004876736
-6.15343665629
-6.22671897074
-6.29988760171
-6.37293383213
-6.44584838159
-6.51862139673
-6.59124238407
-6.66370014636
-6.73598279026
-6.80807770435
-6.87997147273
-6.95164983783
-7.02309769944
-7.09429910693
-7.16523714209
-7.2358938616
-7.30625033604
-7.37628659536
-7.44598155979
-7.51531297643
-7.58425743538
-7.65279028613
-7.72088554523
-7.78851593199
-7.85565278125
-7.92226601935
-7.98832411843
-8.05379404353
-8.11864124
-8.18282951048
-8.24632101104
-8.30907622674
-8.37105393682
-8.43221119152
-8.49250318754
-8.55188333782
-8.61030329138
-8.66771273176
-8.72405938271
-8.77928907395
-8.83334568904
-8.88617112806
-8.93770525399
-8.98788600929
-9.03664935547
-9.08392914102
-9.12965730025
-9.1737637608
-9.21617651129
-9.25682158292
-9.29562299164
-9.33250298263
-9.36738188471
-9.40017827361
-9.43080891465
-9.45918878433
-9.48523145163
-9.50884868081
-9.52995092186
-9.5484472275
-9.56424531443
-9.57725155693
-9.58737143521
-9.59450964001
-9.59856961125
-9.59945421738
-9.59706599641
-9.5913068137
-9.58207835529
-9.56928219818
-9.55282003389
-9.53259360711
-9.50850531168
-9.4804579968
-9.44835520519
-9.41210178263
-9.37160319189
-9.32676663072
-9.27750087961
-9.2237162563
-9.16532515787
-9.10224190586
-9.03438367242
-8.96166990476
-8.8840229924
-8.80136873355
-8.71363605031
-8.62075849793
-8.52267429382
-8.41932677728
-8.31066625679
-8.19665118465
-8.0772505183
-7.95244611614
-7.82223626009
-7.68664036603
-7.54570340868
-7.39950085018
-7.24814062392
-7.09176127536
-6.93052385524
-6.76458802752
-6.59409012364
-6.41917813534
-2.02306024925
-1.99196807546
-2.00719009274
-2.05885848396
-2.13291577142
-2.22111747765
-2.31652196257
-2.41379090915
-2.50970329898
-2.60271446924
-2.69235007554
-2.77874098466
-2.86230576279
-2.94355465319
-3.02298344047
-3.10102507031
-3.17803468358
-3.25429156759
-3.33000872223
-3.40534469129
-3.48041510692
-3.55530286657
-3.63006633185
-3.70474585157
-3.77936927449
-3.85395422752
-3.92851272878
-4.00305215375
-4.07757676019
-4.152088698
-4.2265887669
-4.30107687782
-4.3755523207
-4.45001399454
-4.52446052613
-4.59889037924
-4.67330180488
-4.74769289955
-4.8220616685
-4.89640596067
-4.97072345121
-5.04501162859
-5.11926785276
-5.19348931239
-5.26767292589
-5.34181537636
-5.41591312602
-5.48996238106
-5.56395903935
-5.63789869204
-5.71177667154
-5.78558793254
-5.85932700857
-5.93298807798
-6.0065649568
-6.08005100113
-6.15343906824
-6.22672154956
-6.29989034764
-6.37293677111
-6.4458515262
-6.51862473902
-6.59124593098
-6.66370393266
-6.73598683781
-6.80808201832
-6.87997607435
-6.95165476275
-7.02310295722
-7.09430468841
-7.16524307374
-7.2359001832
-7.30625704995
-7.37629369422
-7.44598907559
-7.51532095358
-7.58426589067
-7.65279924748
-7.72089504788
-7.78852597848
-7.85566337549
-7.92227719988
-7.98833592576
-8.05380648364
-8.1186543228
-8.18284327614
-8.24633550187
-8.3090914701
-8.37106993064
-8.43222794915
-8.4925207734
-8.55190178586
-8.61032259991
-8.66773294491
-8.72408056427
-8.77931125575
-8.83336887666
-8.88619534426
-8.9377305551
-8.98791242587
-9.03667690771
-9.08395788031
-9.12968729176
-9.17379504622
-9.21620914138
-9.2568556423
-9.29565854917
-9.33254013314
-9.36742069842
-9.40021885269
-9.43085140165
-9.45923334215
-9.48527822601
-9.50889797339
-9.5300029286
-9.54850220626
-9.56430360407
-9.57731371903
-9.58743790502
-9.59458099094
-9.59864664804
-9.59953782845
-9.59715719485
-9.59140688642
-9.58218884099
-9.5694048976
-9.5529571711
-9.53274783532
-9.50867976109
-9.48065647049
-9.44858216364
-9.41236262459
-9.37190448365
-9.32711603438
-9.27790751865
-9.22419110718
-9.16588135433
-9.10289502311
-9.03515212724
-8.96257568546
-8.88509222279
-8.8026324579
-8.71513099936
-8.62252786221
-8.52476918852
-8.42180744827
-8.31360331045
-8.20012704682
-8.08136083013
-7.95730127395
-7.82796261058
-7.69338098464
-7.55361845486
-7.40876811825
-7.25895783811
-7.10435168287
-6.94515283684
-6.78159917171
-6.61397163676
-6.44264197648
-2.02306072809
-1.99196782406
-2.00719011264
-2.05885861799
-2.1329159363
-2.22111745308
-2.31652200464
-2.41379099186
-2.50970330368
-2.60271445808
-2.69235007891
-2.77874097893
-2.86230574911
-2.943554626
-3.02298339579
-3.1010250267
-3.17803465292
-3.25429154809
-3.33000870868
-3.40534469955
-3.48041515007
-3.5553029364
-3.63006641675
-3.70474594173
-3.77936937574
-3.85395435189
-3.92851288464
-4.00305233382
-4.07757695408
-4.15208890609
-4.2265889795
-4.30107708639
-4.37555253472
-4.45001423059
-4.52446078116
-4.59889064534
-4.67330210163
-4.74769324148
-4.82206204362
-4.89640635243
-4.97072386356
-5.04501207729
-5.1192683337
-5.19348982075
-5.26767347709
-5.34181598027
-5.41591376957
-5.489963059
-5.56395977458
-5.63789949822
-5.71177752282
-5.78558882623
-5.85932796713
-5.93298910589
-6.00656603488
-6.08005214085
-6.15344029589
-6.22672286057
-6.29989172493
-6.37293822174
-6.44585306999
-6.5186263768
-6.59124765565
-6.66370575979
-6.7359887909
-6.80808409604
-6.87997826867
-6.95165709367
-7.02310545322
-7.09430734552
-7.16524587675
-7.23590313853
-7.30626017064
-7.37629698152
-7.44599253567
-7.51532460863
-7.58426975401
-7.65280332336
-7.72089934103
-7.78853049894
-7.85566813429
-7.92228218594
-7.98834113644
-8.05381194212
-8.11866003766
-8.18284924113
-8.24634173151
-8.30909799464
-8.37107674484
-8.43223503065
-8.49252815548
-8.55190951533
-8.61033066472
-8.66774132883
-8.72408928859
-8.77932034686
-8.83337833822
-8.88620517439
-8.93774076908
-8.98792302824
-9.03668791627
-9.08396932061
-9.12969918488
-9.17380744875
-9.21622207529
-9.2568691328
-9.29567267696
-9.33255495308
-9.3674363163
-9.40023531121
-9.43086880989
-9.4592518402
-9.48529800369
-9.50891923283
-9.53002593715
-9.54852715584
-9.56433084702
-9.57734372902
-9.58747121139
-9.5946181185
-9.59868835922
-9.59958502948
-9.59721090355
-9.59146838241
-9.58225964055
-9.56948682672
-9.55305242743
-9.53285905311
-9.50881008604
-9.48080969307
-9.44876273977
-9.41257585925
-9.37215683309
-9.32741517968
-9.27826254195
-9.22461276706
-9.16638252989
-9.10349109389
-9.03586121529
-8.96341928263
-8.88609575384
-8.80382599529
-8.71655020885
-8.62421452296
-8.52677230494
-8.42418463854
-8.31642197504
-8.20346566272
-8.08531037875
-7.96196692695
-7.83346518018
-7.69985876633
-7.5612296003
-7.41769330603
-7.26940578344
-7.11656769485
-6.95943511894
-6.79832606793
-6.63363948033
-6.46589804138
-2.00381271936
-1.97225164558
-1.99189515506
-2.04934184797
-2.12835516096
-2.22013384181
-2.3177519857
-2.41613996686
-2.51242181142
-2.60535606516
-2.69468890193
-2.78069315989
-2.86386933371
-2.94476877556
-3.02390329454
-3.10170784447
-3.17853251718
-3.25464869651
-3.33026096912
-3.40552016279
-3.48053529631
-3.55538383627
-3.63011981451
-3.70478010951
-3.77939107913
-3.85396762168
-3.92852064068
-4.00305657725
-4.07757901991
-4.15208968024
-4.2265890256
-4.30107675087
-4.37555203829
-4.45001371679
-4.52446032218
-4.59889025574
-4.67330179165
-4.74769302422
-4.82206190478
-4.89640625795
-4.97072380046
-5.04501205667
-5.11926835155
-5.19348985536
-5.26767352752
-5.3418160553
-5.41591385826
-5.48996314078
-5.56395985615
-5.63789959704
-5.71177762351
-5.7855889061
-5.85932803826
-5.93298918268
-6.00656610357
-6.08005218407
-6.15344032503
-6.22672288876
-6.29989173766
-6.37293820322
-6.44585302521
-6.51862631147
-6.59124756012
-6.66370563063
-6.735988641
-6.80808392811
-6.87997806383
-6.95165684756
-7.02310518916
-7.09430706548
-7.16524554877
-7.23590274216
-7.30625971503
-7.37629646494
-7.44599193854
-7.51532394066
-7.58426903104
-7.65280252442
-7.7208984415
-7.78852950329
-7.85566704042
-7.92228095772
-7.98833975967
-8.05381043234
-8.1186583886
-8.18284742983
-8.24633973684
-8.30909581524
-8.37107438478
-8.43223246232
-8.49252536012
-8.55190650974
-8.61032745686
-8.66773788752
-8.72408557071
-8.77931634949
-8.83337405713
-8.88620058772
-8.93773587381
-8.98791780306
-9.0366823622
-9.08396343852
-9.12969298828
-9.17380095328
-9.21621527846
-9.25686206933
-9.29566535195
-9.33254743498
-9.36742867613
-9.40022761254
-9.43086113063
-9.45924429383
-9.48529073722
-9.50891241675
-9.5300198266
-9.54852200658
-9.56432692644
-9.57734151692
-9.58747123617
-9.59462091141
-9.59869462533
-9.59959568375
-9.59722699195
-9.59149114664
-9.58229065233
-9.56952792382
-9.55310577813
-9.5329272987
-9.50889633452
-9.48091778164
-9.44889725683
-9.41274213136
-9.37236128761
-9.32766555171
-9.27856801539
-9.22498419282
-9.16683284886
-9.10403572234
-9.03651843659
-8.96421079229
-8.88704705757
-8.80496720318
-8.71791704787
-8.62584899482
-8.52872357487
-8.42651033641
-8.31918957149
-8.20675384934
-8.08921057344
-7.96658502689
-7.83892408122
-7.70630018807
-7.56881749494
-7.42661756773
-7.27988832162
-7.12887033444
-6.97387086482
-6.81527507352
-6.65356501545
-6.48935022101
-1.9615800917
-1.93053292564
-1.9604620578
-2.03023504347
-2.11940354815
-2.21828033828
-2.32015995386
-2.4206327064
-2.51755962995
-2.61030629965
-2.69904378835
-2.78431049111
-2.86675589089
-2.94700392274
-3.02559313411
-3.10296011378
-3.17944440293
-3.25530216553
-3.33072214208
-3.40584070608
-3.48075462124
-3.55553141255
-3.63021741433
-3.70484413271
-3.77943076473
-3.85399166262
-3.92853459948
-4.0030641075
-4.07758256379
-4.15209085703
-4.2265888818
-4.30107593285
-4.37555092806