/*--------------------------------*- C++ -*----------------------------------*\
| =========                 |                                                 |
| \\      /  F ield         | OpenFOAM: The Open Source CFD Toolbox           |
|  \\    /   O peration     | Version:  2106                                  |
|   \\  /    A nd           | Website:  www.openfoam.com                      |
|    \\/     M anipulation  |                                                 |
\*---------------------------------------------------------------------------*/
FoamFile
{
    version     2.0;
    format      ascii;
    arch        "LSB;label=32;scalar=64";
    class       surfaceScalarField;
    location    "0.16";
    object      phi;
}
// * * * * * * * * * * * * * * * * * * * * * * * * * * * * * * * * * * * * * //

dimensions      [0 3 -1 0 0 0 0];

oriented        oriented;

internalField   nonuniform List<scalar> 
18840
(
3.37543041543e-05
1.62456958464e-05
2.25359629729e-05
1.12183420012e-05
1.63023786398e-05
6.23358412767e-06
1.28098254591e-05
3.49255287942e-06
1.0806581035e-05
2.00324508076e-06
9.60477027586e-06
1.20181079396e-06
8.85168006063e-06
7.5309051863e-07
8.36503242827e-06
4.86647865872e-07
8.04518794833e-06
3.19844675872e-07
7.83374377079e-06
2.1144430293e-07
7.69428369036e-06
1.3946005239e-07
7.603081758e-06
9.12017311469e-08
7.54426668017e-06
5.88148991911e-08
7.5070782835e-06
3.71882064991e-08
7.48419026813e-06
2.2887850048e-08
7.47062477574e-06
1.35654230352e-08
7.46302231374e-06
7.60242295455e-09
7.45913968466e-06
3.88261673789e-09
7.45750007246e-06
1.63958135333e-09
7.457147142e-06
3.52914905543e-10
7.45748469238e-06
-3.37600957073e-10
7.45813597033e-06
-6.51426686783e-10
7.45888826131e-06
-7.52416586549e-10
7.45962237045e-06
-7.34131659113e-10
7.46027941016e-06
-6.5698331865e-10
7.46083650544e-06
-5.57119956466e-10
7.46129136913e-06
-4.54916460255e-10
7.46165238883e-06
-3.60988223842e-10
7.46193244328e-06
-2.7998427981e-10
7.46214556379e-06
-2.13057805637e-10
7.46230504023e-06
-1.59477133311e-10
7.46242261827e-06
-1.17644171676e-10
7.46250810788e-06
-8.56270726855e-11
7.46256947086e-06
-6.14909772199e-11
7.46261303203e-06
-4.35748939099e-11
7.46264360299e-06
-3.05139294372e-11
7.46266478991e-06
-2.11516898825e-11
7.46267926151e-06
-1.44911922655e-11
7.4626890761e-06
-9.79017221868e-12
7.46269570671e-06
-6.54961876719e-12
7.46270008331e-06
-4.34650895702e-12
7.46270294857e-06
-2.87153122507e-12
7.46270487909e-06
-1.88042190204e-12
7.46270608738e-06
-1.12022097405e-12
7.46270682325e-06
-7.42028868307e-13
7.46270725239e-06
-5.20784480717e-13
7.46270755687e-06
-3.59709047787e-13
7.4627078104e-06
-2.49208545226e-13
7.46270802452e-06
-1.86825313262e-13
7.46270822201e-06
-1.73919605767e-13
7.46270843278e-06
-2.13725738993e-13
7.46270865371e-06
-2.65046695814e-13
7.46270892355e-06
-2.75477267579e-13
7.46270930353e-06
-2.80560066869e-13
7.46270975322e-06
-3.4371590874e-13
7.46271019442e-06
-4.46235329643e-13
7.46271061135e-06
-5.06630751769e-13
7.46271106102e-06
-4.95179469698e-13
7.46271158984e-06
-4.85862214606e-13
7.46271217131e-06
-5.43614861595e-13
7.46271278024e-06
-6.2076618376e-13
7.46271344947e-06
-6.36135432752e-13
7.46271421037e-06
-6.23465687927e-13
7.46271498395e-06
-6.45253824415e-13
7.46271571685e-06
-6.85441535144e-13
7.46271645497e-06
-7.35971710916e-13
7.46271719532e-06
-8.10588468195e-13
7.46271793164e-06
-8.73045880726e-13
7.46271873228e-06
-9.01166795294e-13
7.46271963216e-06
-9.44514821756e-13
7.46272054721e-06
-9.94511805903e-13
7.4627214546e-06
-9.85075792021e-13
7.46272241624e-06
-9.63198224794e-13
7.4627233966e-06
-1.02808771811e-12
7.46272435547e-06
-1.16192132943e-12
7.4627253317e-06
-1.25973523507e-12
7.46272640074e-06
-1.27193155068e-12
7.46272758993e-06
-1.2427597783e-12
7.46272888569e-06
-1.23687146328e-12
7.46273026942e-06
-1.29678682463e-12
7.46273167148e-06
-1.40389280076e-12
7.46273308235e-06
-1.51552633671e-12
7.46273453686e-06
-1.58615373468e-12
7.46273609268e-06
-1.57549431681e-12
7.4627377838e-06
-1.54915835898e-12
7.46273948847e-06
-1.59207809786e-12
7.46274113026e-06
-1.65686790417e-12
7.46274284179e-06
-1.66871554981e-12
7.46274477159e-06
-1.71286940608e-12
7.46274675772e-06
-1.86345729294e-12
7.46274864049e-06
-1.98898537823e-12
7.46275061562e-06
-2.0260722513e-12
7.46275278222e-06
-2.0725219583e-12
7.46275501171e-06
-2.15366478717e-12
7.46275725204e-06
-2.22020669071e-12
7.46275959664e-06
-2.28763587802e-12
7.4627620636e-06
-2.39175986828e-12
7.46276462731e-06
-2.55365612562e-12
7.46276733907e-06
-2.81851070593e-12
7.46277021834e-06
-3.12855599098e-12
7.4627733692e-06
-3.38992327641e-12
7.46277688617e-06
-3.65327545802e-12
7.46278078708e-06
-3.95634308362e-12
7.46278522087e-06
-4.36813178071e-12
7.46279030103e-06
-5.01750151789e-12
7.4627959905e-06
-5.83674386744e-12
7.46280247361e-06
-6.6405796781e-12
7.46281026175e-06
-7.59887894985e-12
7.46281946817e-06
-8.9704187912e-12
7.46283019861e-06
-1.07297665229e-11
7.46284305158e-06
-1.28880462098e-11
7.46285858583e-06
-1.55362597539e-11
7.46287733333e-06
-1.87555775131e-11
7.46290016201e-06
-2.26898572703e-11
7.46292809769e-06
-2.77072887645e-11
7.4629621894e-06
-3.40591789783e-11
7.46300401539e-06
-4.18936268554e-11
7.46305546116e-06
-5.15744604425e-11
7.46311869897e-06
-6.34098908811e-11
7.4631967232e-06
-7.79935710168e-11
7.46329291507e-06
-9.61837438467e-11
7.46341168672e-06
-1.18796853541e-10
7.46355906333e-06
-1.47136874495e-10
7.46374371036e-06
-1.84291856764e-10
7.46397201725e-06
-2.28345005469e-10
7.46425161364e-06
-2.80129147442e-10
7.46459724465e-06
-3.45947161992e-10
7.46502525644e-06
-4.28086980659e-10
7.46555539112e-06
-5.30042004738e-10
7.46621190213e-06
-6.56492705348e-10
7.46702485623e-06
-8.13149478716e-10
7.46803190725e-06
-1.00721674827e-09
7.46927929852e-06
-1.24760704874e-09
7.47082482162e-06
-1.54553432331e-09
7.4727400118e-06
-1.91507228105e-09
7.47511343726e-06
-2.37337747844e-09
7.47805553835e-06
-2.94198819863e-09
7.48170349305e-06
-3.64793701273e-09
7.48622830545e-06
-4.52481965445e-09
7.49184289614e-06
-5.61468326879e-09
7.49881391188e-06
-6.97086842799e-09
7.50747452632e-06
-8.66058496406e-09
7.51824296213e-06
-1.07685617124e-08
7.53164701418e-06
-1.34036429947e-08
7.54835282978e-06
-1.67054857781e-08
7.56920804523e-06
-2.08547731049e-08
7.59529689734e-06
-2.60882959714e-08
7.62801684939e-06
-3.27197463135e-08
7.66918773069e-06
-4.11709125381e-08
7.72120892079e-06
-5.20209463401e-08
7.78729730096e-06
-6.60880395655e-08
7.87187685057e-06
-8.45796689522e-08
7.98129681481e-06
-1.09419924926e-07
8.12538158016e-06
-1.44084680016e-07
8.32139643286e-06
-1.96015401172e-07
8.60526996358e-06
-2.83873432833e-07
9.06494302447e-06
-4.59672514323e-07
9.94668739375e-06
-8.81744543661e-07
1.20109407122e-05
-2.06425247719e-06
-5.6104666087e-06
1.7621408941e-05
5.01388815126e-05
1.61068137929e-05
4.41591295472e-05
1.71980947007e-05
3.77598745466e-05
1.26328399803e-05
3.26495148171e-05
8.60291213637e-06
2.89465830541e-05
5.70617760988e-06
2.6367604249e-05
3.78078992566e-06
2.45938866696e-05
2.52680856398e-06
2.33783999613e-05
1.70213485344e-06
2.25473255249e-05
1.15091915364e-06
2.1981158468e-05
7.77611237398e-07
2.15978059905e-05
5.22812362481e-07
2.13405428025e-05
3.48464578717e-07
2.11699451929e-05
2.2941222712e-07
2.10585374599e-05
1.48595751364e-07
2.09871864186e-05
9.42386983096e-08
2.09426230161e-05
5.81286819949e-08
2.09157086715e-05
3.45166519458e-08
2.09002091755e-05
1.93820772832e-08
2.08919220305e-05
9.92663076965e-09
2.08880572857e-05
4.21752140644e-09
2.08867881952e-05
9.31427134026e-10
2.08869539311e-05
-8.17219968837e-10
2.08878331788e-05
-1.63176060933e-09
2.08889928041e-05
-1.89389681772e-09
2.08901876286e-05
-1.85181759002e-09
2.08912898438e-05
-1.65927712765e-09
2.08922431575e-05
-1.40821594579e-09
2.08930329033e-05
-1.15070575695e-09
2.08936667376e-05
-9.1379171886e-10
2.08941629834e-05
-7.0929207735e-10
2.08945436285e-05
-5.40179700556e-10
2.0894830592e-05
-4.04678612036e-10
2.0895043659e-05
-2.98774783926e-10
2.08951996597e-05
-2.17627781421e-10
2.08953124557e-05
-1.56477593064e-10
2.08953930643e-05
-1.11119582868e-10
2.08954500364e-05
-7.8008314718e-11
2.08954897927e-05
-5.4164786585e-11
2.08955171993e-05
-3.7147817442e-11
2.08955359412e-05
-2.51413998223e-11
2.08955485854e-05
-1.68196773914e-11
2.08955568471e-05
-1.11238795364e-11
2.08955620213e-05
-7.21413769885e-12
2.08955653366e-05
-4.55925705425e-12
2.08955674067e-05
-2.82988666164e-12
2.08955686074e-05
-1.71353959678e-12
2.08955692115e-05
-9.21577501804e-13
2.0895569576e-05
-5.3188768369e-13
2.08955697956e-05
-3.4159984023e-13
2.08955699054e-05
-2.72906498206e-13
2.08955699906e-05
-3.07255588419e-13
2.08955700818e-05
-4.00205399117e-13
2.08955701714e-05
-4.63864490161e-13
2.0895570334e-05
-4.65563829967e-13
2.08955706219e-05
-4.80129655423e-13
2.08955709884e-05
-5.76786814297e-13
2.08955713321e-05
-7.29076260025e-13
2.08955716148e-05
-8.5889429837e-13
2.08955719118e-05
-9.26072087731e-13
2.0895572313e-05
-9.68851226561e-13
2.08955728269e-05
-1.01471458125e-12
2.08955733985e-05
-1.04014298977e-12
2.08955740239e-05
-1.06273587683e-12
2.08955746489e-05
-1.14301677745e-12
2.08955752084e-05
-1.25911286774e-12
2.08955757617e-05
-1.37453895847e-12
2.08955763415e-05
-1.51556974463e-12
2.08955768984e-05
-1.66370006651e-12
2.08955774566e-05
-1.74609502093e-12
2.08955781399e-05
-1.7819360669e-12
2.0895578905e-05
-1.84462366975e-12
2.08955796021e-05
-1.89169645054e-12
2.08955802629e-05
-1.88934464446e-12
2.08955809784e-05
-1.91879578376e-12
2.0895581774e-05
-2.04262851985e-12
2.08955826018e-05
-2.22104415324e-12
2.08955834327e-05
-2.36870226816e-12
2.0895584289e-05
-2.43060967153e-12
2.08955852229e-05
-2.39971089151e-12
2.08955863064e-05
-2.35489717219e-12
2.08955874854e-05
-2.40446178826e-12
2.08955887074e-05
-2.56724695316e-12
2.0895589957e-05
-2.75288457941e-12
2.08955912482e-05
-2.84269858402e-12
2.08955926781e-05
-2.86806261848e-12
2.08955941916e-05
-2.98065602954e-12
2.08955956272e-05
-3.17333505528e-12
2.08955970322e-05
-3.25748244853e-12
2.08955987246e-05
-3.24625399926e-12
2.08956006979e-05
-3.39443903315e-12
2.0895602613e-05
-3.70850285193e-12
2.08956045569e-05
-3.97491547598e-12
2.08956067777e-05
-4.19010673011e-12
2.08956092105e-05
-4.48756624648e-12
2.08956117195e-05
-4.85379700727e-12
2.08956144271e-05
-5.2199050143e-12
2.08956174672e-05
-5.63089354341e-12
2.0895620869e-05
-6.15652858491e-12
2.0895624767e-05
-6.84256817873e-12
2.08956291869e-05
-7.68133385976e-12
2.08956342569e-05
-8.62485629525e-12
2.08956401999e-05
-9.74058609862e-12
2.08956470802e-05
-1.10979046157e-11
2.08956552032e-05
-1.26999720078e-11
2.08956651151e-05
-1.47304733886e-11
2.08956769965e-05
-1.74223157749e-11
2.08956909066e-05
-2.06655771497e-11
2.08957076956e-05
-2.4411666936e-11
2.08957280606e-05
-2.89871260918e-11
2.08957519586e-05
-3.43530063764e-11
2.08957818754e-05
-4.26108753663e-11
2.08958191344e-05
-5.26235574324e-11
2.089586491e-05
-6.4661499754e-11
2.08959211338e-05
-7.92804035461e-11
2.08959906794e-05
-9.73261872629e-11
2.08960765989e-05
-1.19774686619e-10
2.08961827056e-05
-1.47705394922e-10
2.08963139599e-05
-1.8243658864e-10
2.08964760106e-05
-2.25407137102e-10
2.08966762845e-05
-2.78530084563e-10
2.08969239079e-05
-3.44288649075e-10
2.08972300183e-05
-4.25464104029e-10
2.08976082244e-05
-5.25636210916e-10
2.08980739484e-05
-6.49978253622e-10
2.08986508284e-05
-8.05018656084e-10
2.08993687391e-05
-9.98058064291e-10
2.09002598334e-05
-1.23719633315e-09
2.0901364628e-05
-1.53319610125e-09
2.09027339448e-05
-1.89961474305e-09
2.09044307856e-05
-2.353510051e-09
2.09065330871e-05
-2.91569706915e-09
2.09091380625e-05
-3.61213683318e-09
2.09123654175e-05
-4.47517093606e-09
2.09163643608e-05
-5.54467155198e-09
2.09213201438e-05
-6.87055161391e-09
2.092746197e-05
-8.51488496624e-09
2.09350751884e-05
-1.0554880402e-08
2.09445146736e-05
-1.30869800671e-08
2.0956222478e-05
-1.62319213461e-08
2.09707490817e-05
-2.01408569644e-08
2.09887828433e-05
-2.50040639447e-08
2.10111849643e-05
-3.10620893992e-08
2.103903574e-05
-3.86193042241e-08
2.10736967914e-05
-4.80644802587e-08
2.11168882934e-05
-5.98972376444e-08
2.11707976516e-05
-7.47644811982e-08
2.12382239878e-05
-9.35145286366e-08
2.13227792892e-05
-1.17274687184e-07
2.14291772084e-05
-1.47568630771e-07
2.15636615895e-05
-1.86505197053e-07
2.17346729361e-05
-2.37098898328e-07
2.19539480201e-05
-3.03854568219e-07
2.22384684127e-05
-3.93939799591e-07
2.26141327143e-05
-5.19748100373e-07
2.31230610564e-05
-7.0494324172e-07
2.38384722057e-05
-9.99284626887e-07
2.48931164349e-05
-1.5143171557e-06
2.65194423704e-05
-2.50807023283e-06
2.90405503576e-05
-4.58536100606e-06
-8.9893116191e-06
3.24193956518e-05
5.358442665e-05
1.25223869374e-05
5.29166007253e-05
1.78659205312e-05
4.9639302305e-05
1.59101395109e-05
4.58382174315e-05
1.24039966096e-05
4.24428755337e-05
9.10152009623e-06
3.97331604254e-05
6.49050529881e-06
3.76912467611e-05
4.56872259971e-06
3.62011686533e-05
3.19221323078e-06
3.51355953265e-05
2.21649255276e-06
3.43848461549e-05
1.52836025821e-06
3.38626604937e-05
1.04499785024e-06
3.3504007945e-05
7.07116837289e-07
3.32609637844e-05
4.72456115945e-07
3.30987217469e-05
3.10837640822e-07
3.29922918113e-05
2.00668519496e-07
3.29239208188e-05
1.26499623614e-07
3.28811311619e-05
7.73062586134e-08
3.28552529694e-05
4.52602763736e-08
3.28403369651e-05
2.48425790036e-08
3.28323576143e-05
1.21967024717e-08
3.2828632519e-05
4.65640520709e-09
3.28274096214e-05
4.05649899085e-10
3.28275703847e-05
-1.79251814882e-09
3.28284179789e-05
-2.74159951247e-09
3.28295359331e-05
-2.96986013555e-09
3.28306877991e-05
-2.81113175388e-09
3.28317504105e-05
-2.47080900653e-09
3.28326696399e-05
-2.06991341093e-09
3.28334312727e-05
-1.67543254647e-09
3.28340427003e-05
-1.32075223392e-09
3.28345215182e-05
-1.01909610374e-09
3.28348889818e-05
-7.72233870314e-10
3.28351662151e-05
-5.76013294168e-10
3.2835372211e-05
-4.23614537299e-10
3.28355231843e-05
-3.0747534008e-10
3.28356324301e-05
-2.2040337029e-10
3.28357105879e-05
-1.56116857748e-10
3.28357658316e-05
-1.09341085761e-10
3.28358043542e-05
-7.56931708565e-11
3.2835830931e-05
-5.1718267348e-11
3.28358490885e-05
-3.48617899878e-11
3.28358613015e-05
-2.32098049909e-11
3.28358693067e-05
-1.52350839863e-11
3.28358744532e-05
-9.78553572276e-12
3.28358777289e-05
-6.12577569717e-12
3.28358797525e-05
-3.73008821255e-12
3.28358810249e-05
-2.18381542151e-12
3.28358817249e-05
-1.21299463936e-12
3.28358820113e-05
-6.25614271862e-13
3.28358820597e-05
-3.64218840246e-13
3.28358820502e-05
-3.00054048667e-13
3.28358820732e-05
-3.42495770578e-13
3.28358820973e-05
-4.45496601213e-13
3.28358821109e-05
-5.30934242306e-13
3.28358821741e-05
-5.9924103178e-13
3.28358823354e-05
-6.90679469432e-13
3.28358825525e-05
-8.38517522223e-13
3.28358827541e-05
-1.02618749873e-12
3.28358829611e-05
-1.15764890222e-12
3.2835883254e-05
-1.20170701092e-12
3.2835883644e-05
-1.2403402619e-12
3.28358840227e-05
-1.30323334722e-12
3.28358843979e-05
-1.39509314521e-12
3.28358848252e-05
-1.55494343248e-12
3.28358852314e-05
-1.73833023397e-12
3.28358856015e-05
-1.87114119207e-12
3.28358860068e-05
-1.99517937241e-12
3.28358864331e-05
-2.16054317196e-12
3.28358868133e-05
-2.28094891103e-12
3.28358872331e-05
-2.30494420682e-12
3.28358877526e-05
-2.3499290037e-12
3.28358882503e-05
-2.46834463689e-12
3.2835888658e-05
-2.56710151832e-12
3.28358890459e-05
-2.63527523215e-12
3.28358895077e-05
-2.71819887313e-12
3.2835890055e-05
-2.84132587133e-12
3.28358906624e-05
-2.98216975283e-12
3.28358913158e-05
-3.10172039704e-12
3.28358919836e-05
-3.16581295681e-12
3.28358926887e-05
-3.20190408669e-12
3.28358934248e-05
-3.27962583844e-12
3.28358942492e-05
-3.42194371845e-12
3.28358952148e-05
-3.6004084401e-12
3.28358962166e-05
-3.74361199603e-12
3.28358972416e-05
-3.83169880755e-12
3.28358983878e-05
-3.96613302946e-12
3.28358996443e-05
-4.21081938485e-12
3.2835900838e-05
-4.44804620733e-12
3.28359020607e-05
-4.60687844095e-12
3.28359035532e-05
-4.85443108342e-12
3.28359052095e-05
-5.25826272169e-12
3.2835906958e-05
-5.66603918943e-12
3.28359089298e-05
-6.06260047492e-12
3.28359111859e-05
-6.58924982208e-12
3.2835913659e-05
-7.26195316029e-12
3.28359163924e-05
-8.01747546855e-12
3.28359194736e-05
-8.88687535354e-12
3.28359228914e-05
-9.86219350254e-12
3.28359268759e-05
-1.102463225e-11
3.28359317705e-05
-1.26433628307e-11
3.28359376102e-05
-1.44804855412e-11
3.28359446944e-05
-1.6773607118e-11
3.28359532189e-05
-1.96695812544e-11
3.2835963398e-05
-2.30976250138e-11
3.28359758784e-05
-2.72378957335e-11
3.28359913871e-05
-3.26062208343e-11
3.28360102377e-05
-3.93745380365e-11
3.28360332997e-05
-4.75592861963e-11
3.28360620167e-05
-5.76904741172e-11
3.28360980197e-05
-7.03825557456e-11
3.28361415344e-05
-8.614971646e-11
3.28361948092e-05
-1.05708793423e-10
3.28362603667e-05
-1.30006580331e-10
3.28363410007e-05
-1.59991872192e-10
3.28364405832e-05
-1.96976682478e-10
3.28365635539e-05
-2.42840794808e-10
3.28367153841e-05
-2.9970024128e-10
3.28369031959e-05
-3.70174019216e-10
3.28371352657e-05
-4.57437871018e-10
3.28374222032e-05
-5.65413731076e-10
3.28377772941e-05
-6.99128923665e-10
3.2838216688e-05
-8.64661211189e-10
3.2838760338e-05
-1.0695541915e-09
3.28394332779e-05
-1.32341326269e-09
3.28402663472e-05
-1.63829288436e-09
3.28412970859e-05
-2.02891791127e-09
3.28425731205e-05
-2.5132277549e-09
3.28441531558e-05
-3.11325867179e-09
3.28461098435e-05
-3.8564812619e-09
3.28485333347e-05
-4.77712266608e-09
3.2851534919e-05
-5.91741235255e-09
3.28552530626e-05
-7.3300974523e-09
3.28598587666e-05
-9.08079255724e-09
3.28655644795e-05
-1.12504765638e-08
3.28726341921e-05
-1.39400980773e-08
3.28813948336e-05
-1.72754726781e-08
3.28922528207e-05
-2.14129812459e-08
3.29057133734e-05
-2.65477126434e-08
3.29224056514e-05
-3.29239105251e-08
3.29431124647e-05
-4.08475342352e-08
3.29688112657e-05
-5.07028319923e-08
3.30007243502e-05
-6.29746484077e-08
3.3040382098e-05
-7.82768758687e-08
3.30897095464e-05
-9.73915486028e-08
3.31511342379e-05
-1.21321477145e-07
3.32277331686e-05
-1.51363180293e-07
3.33234302275e-05
-1.8921154939e-07
3.34432673448e-05
-2.371116039e-07
3.3593786668e-05
-2.98087754061e-07
3.3783586977e-05
-3.76305861141e-07
3.40241626644e-05
-4.77674433599e-07
3.43312092259e-05
-6.10900857942e-07
3.47267303459e-05
-7.89461423223e-07
3.52424661424e-05
-1.03548386312e-06
3.59252496247e-05
-1.3877265298e-06
3.68441998324e-05
-1.91823524678e-06
3.80955368773e-05
-2.76565383192e-06
3.97826238427e-05
-4.19515703205e-06
4.18869678055e-05
-6.68970500477e-06
-1.09576082718e-05
4.38552650099e-05
5.35705203493e-05
8.95186688517e-06
5.55863053249e-05
1.58501348282e-05
5.52410596445e-05
1.62553864112e-05
5.35976162379e-05
1.40474397053e-05
5.15429068168e-05
1.11562300278e-05
4.95819415597e-05
8.45147080011e-06
4.7926252612e-05
6.22441183685e-06
4.66200414712e-05
4.49842459314e-06
4.5632235658e-05
3.20429845145e-06
4.49066894014e-05
2.25390636847e-06
4.43854439483e-05
1.56624312148e-06
4.40178344834e-05
1.074726078e-06
4.37629138637e-05
7.27376484266e-07
4.35890463641e-05
4.84704978529e-07
4.34725032055e-05
3.17211573147e-07
4.33958703772e-05
2.03132434398e-07
4.33465926012e-05
1.26584005249e-07
4.33157588605e-05
7.60940283554e-08
4.32971379303e-05
4.34635203868e-08
4.32864369387e-05
2.28975943036e-08
4.3280744408e-05
1.03488173266e-08
4.32781226857e-05
3.02728949567e-09
4.32772973223e-05
-9.67154875081e-10
4.32774633683e-05
-2.90772154091e-09
4.32781165737e-05
-3.62318917133e-09
4.32789567265e-05
-3.65133684492e-09
4.32798141264e-05
-3.32822994987e-09
4.32806011645e-05
-2.85693835257e-09
4.32812798868e-05
-2.35414114291e-09
4.32818410885e-05
-1.88193651246e-09
4.32822909146e-05
-1.46897299999e-09
4.32826428089e-05
-1.12423439958e-09
4.32829127208e-05
-8.45968290051e-10
4.32831162756e-05
-6.27147887267e-10
4.32832675028e-05
-4.58678003603e-10
4.32833782996e-05
-3.31240389315e-10
4.3283458503e-05
-2.36325518073e-10
4.32835159072e-05
-1.66674609224e-10
4.32835564599e-05
-1.16229777435e-10
4.32835847613e-05
-8.00701497017e-11
4.32836043138e-05
-5.44193323662e-11
4.32836176679e-05
-3.6475143388e-11
4.32836265818e-05
-2.40847649623e-11
4.32836323823e-05
-1.55841667526e-11
4.32836360926e-05
-9.81894184573e-12
4.32836383801e-05
-5.98933425129e-12
4.32836397076e-05
-3.49663449125e-12
4.32836404357e-05
-1.94182678894e-12
4.32836408385e-05
-1.05517591167e-12
4.32836409809e-05
-5.98438011892e-13
4.3283640976e-05
-3.79565368526e-13
4.32836409692e-05
-2.86004559883e-13
4.32836409779e-05
-3.18506779313e-13
4.32836409705e-05
-4.35582645782e-13
4.32836409295e-05
-5.70303571008e-13
4.32836409037e-05
-6.95356717482e-13
4.32836409336e-05
-8.41571274917e-13
4.3283640963e-05
-9.98200907912e-13
4.32836409744e-05
-1.12834107122e-12
4.32836410418e-05
-1.20750524563e-12
4.32836412108e-05
-1.28348244011e-12
4.32836413926e-05
-1.40134578672e-12
4.32836415453e-05
-1.54639911635e-12
4.32836417011e-05
-1.71912215477e-12
4.32836418127e-05
-1.9135774094e-12
4.32836418603e-05
-2.07200032731e-12
4.32836419156e-05
-2.18085280091e-12
4.3283642003e-05
-2.29393211321e-12
4.32836420484e-05
-2.40694764594e-12
4.32836421003e-05
-2.46723839652e-12
4.32836422574e-05
-2.52000791756e-12
4.32836424164e-05
-2.6286619268e-12
4.32836424898e-05
-2.77516548623e-12
4.32836424933e-05
-2.91158523117e-12
4.32836425079e-05
-3.01869405548e-12
4.32836425771e-05
-3.10784580814e-12
4.32836427113e-05
-3.18620055404e-12
4.32836429196e-05
-3.26477502447e-12
4.32836431395e-05
-3.36183816162e-12
4.32836433531e-05
-3.48914465303e-12
4.32836435628e-05
-3.63804502632e-12
4.32836438522e-05
-3.78322149974e-12
4.32836443202e-05
-3.93607281187e-12
4.3283644835e-05
-4.1187196076e-12
4.32836452833e-05
-4.31388974135e-12
4.3283645797e-05
-4.50701419481e-12
4.32836465323e-05
-4.73965664644e-12
4.32836472975e-05
-5.04579937629e-12
4.3283647981e-05
-5.40505591131e-12
4.3283648868e-05
-5.82204618859e-12
4.32836500413e-05
-6.32114997578e-12
4.3283651371e-05
-6.88551058851e-12
4.32836528609e-05
-7.54796424889e-12
4.32836546285e-05
-8.3716717343e-12
4.32836567026e-05
-9.36068145537e-12
4.32836591452e-05
-1.05217414572e-11
4.32836621225e-05
-1.19295114512e-11
4.32836657502e-05
-1.36126369199e-11
4.32836702271e-05
-1.55954343514e-11
4.32836755318e-05
-1.79979717657e-11
4.32836818919e-05
-2.092920831e-11
4.32836897186e-05
-2.45402275711e-11
4.32836993723e-05
-2.90882895818e-11
4.32837110214e-05
-3.47406081011e-11
4.32837251678e-05
-4.16129812642e-11
4.32837427899e-05
-5.01187169443e-11
4.32837644913e-05
-6.07859133513e-11
4.32837909995e-05
-7.40202994853e-11
4.32838236728e-05
-9.04044709212e-11
4.32838639074e-05
-1.10755051186e-10
4.32839135102e-05
-1.35981668648e-10
4.32839749061e-05
-1.67107791216e-10
4.32840508899e-05
-2.05715219491e-10
4.32841446461e-05
-2.53556438113e-10
4.32842604906e-05
-3.1276561387e-10
4.32844037011e-05
-3.86129205463e-10
4.32845806594e-05
-4.76935588674e-10
4.32847996741e-05
-5.89299275824e-10
4.32850704962e-05
-7.2840313588e-10
4.32854054293e-05
-9.00546083878e-10
4.32858200434e-05
-1.11366321368e-09
4.32863333192e-05
-1.37769556939e-09
4.32869685518e-05
-1.70476267286e-09
4.32877546949e-05
-2.10986275555e-09
4.32887280834e-05
-2.61182291484e-09
4.328993302e-05
-3.23397518822e-09
4.3291424698e-05
-4.00492890277e-09
4.32932713894e-05
-4.96003815284e-09
4.32955577954e-05
-6.14304619379e-09
4.32983892189e-05
-7.60834353381e-09
4.33018953164e-05
-9.42341990294e-09
4.33062374156e-05
-1.16720832508e-08
4.33116151776e-05
-1.44584416914e-08
4.33182760223e-05
-1.79113594883e-08
4.33265273566e-05
-2.21912348877e-08
4.33367501505e-05
-2.7497932328e-08
4.33494173938e-05
-3.40799788937e-08
4.33651164341e-05
-4.22468344689e-08
4.33845781775e-05
-5.23854547017e-08
4.34087111029e-05
-6.49804361284e-08
4.34386474358e-05
-8.06393318258e-08
4.3475800511e-05
-1.00127438182e-07
4.352193542e-05
-1.24411996697e-07
4.35792653917e-05
-1.54721462025e-07
4.36505707142e-05
-1.92626457168e-07
4.37393572618e-05
-2.40149750217e-07
4.38500670153e-05
-2.99921588147e-07
4.39883596714e-05
-3.75404014323e-07
4.41614961177e-05
-4.71223552039e-07
4.43788712482e-05
-5.93681151566e-07
4.46527683115e-05
-7.51570979685e-07
4.49994155262e-05
-9.57547809813e-07
4.54404547072e-05
-1.23050146403e-06
4.60047988568e-05
-1.59982755013e-06
4.67302968655e-05
-2.11322455604e-06
4.76628088385e-05
-2.85074742009e-06
4.88452810338e-05
-3.94812574357e-06
5.02775720145e-05
-5.62744826643e-06
5.18034525573e-05
-8.21558591647e-06
-1.20513919881e-05
5.28972368314e-05
5.27606091133e-05
6.19125848812e-06
5.57402401809e-05
1.28705026005e-05
5.73124126969e-05
1.4683215111e-05
5.76111983394e-05
1.37486538347e-05
5.7133869449e-05
1.16335593921e-05
5.63199852119e-05
9.26535529393e-06
5.5449646372e-05
7.09475092632e-06
5.46637045065e-05
5.28436660757e-06
5.40144147556e-05
3.85358825625e-06
5.35068441388e-05
2.76147684578e-06
5.31248795732e-05
1.94820750203e-06
5.28455254835e-05
1.35407998666e-06
5.26458892188e-05
9.27012552144e-07
5.25060765848e-05
6.2451748724e-07
5.24099989922e-05
4.13289078226e-07
5.23452176352e-05
2.67913794316e-07
5.23024128836e-05
1.69388724541e-07
5.2274768267e-05
1.03738605038e-07
5.22573964843e-05
6.08353229335e-08
5.22468548979e-05
3.34391613828e-08
5.22407592315e-05
1.6444411644e-08
5.22374869528e-05
6.29944712879e-09
5.22359466381e-05
5.73112998628e-10
5.22354324686e-05
-2.39360812672e-09
5.22354856885e-05
-3.67652897729e-09
5.22358220749e-05
-3.98781740931e-09
5.22362711021e-05
-3.77732575087e-09
5.22367359138e-05
-3.32176458187e-09
5.22371658768e-05
-2.78409709041e-09
5.2237538559e-05
-2.25457887044e-09
5.22378478406e-05
-1.77823600706e-09
5.22380964596e-05
-1.37290942999e-09
5.22382914805e-05
-1.04104570859e-09
5.22384414324e-05
-7.77109288187e-10
5.22385547977e-05
-5.72013598945e-10
5.22386391709e-05
-4.15657190096e-10
5.22387011199e-05
-2.98360837695e-10
5.22387461037e-05
-2.11656581107e-10
5.22387783754e-05
-1.48447436631e-10
5.2238801228e-05
-1.02906174679e-10
5.22388172195e-05
-7.04234119788e-11
5.22388283176e-05
-4.75171321776e-11
5.22388358945e-05
-3.15741726555e-11
5.22388409351e-05
-2.05894204259e-11
5.22388442358e-05
-1.31037529035e-11
5.22388463635e-05
-8.10095909765e-12
5.2238847694e-05
-4.82522508847e-12
5.22388484701e-05
-2.73623390978e-12
5.22388488739e-05
-1.47510052339e-12
5.22388490037e-05
-7.80474910032e-13
5.22388489244e-05
-3.97715186036e-13
5.22388487743e-05
-1.67770626463e-13
5.22388486653e-05
-1.38235888878e-13
5.22388485468e-05
-2.1346676305e-13
5.22388484443e-05
-4.13939105612e-13
5.22388483482e-05
-5.98096156042e-13
5.22388482972e-05
-7.66908459058e-13
5.22388483016e-05
-9.29566452968e-13
5.22388483205e-05
-1.06971618047e-12
5.2238848321e-05
-1.1633637417e-12
5.2238848338e-05
-1.25356875904e-12
5.22388483416e-05
-1.39479786903e-12
5.22388482961e-05
-1.56279835323e-12
5.22388482733e-05
-1.73887378399e-12
5.22388482813e-05
-1.93388937823e-12
5.22388482444e-05
-2.10222517939e-12
5.22388481577e-05
-2.1934895777e-12
5.22388481029e-05
-2.26229820262e-12
5.2238848054e-05
-2.36635331122e-12
5.22388479484e-05
-2.45000340097e-12
5.22388478275e-05
-2.49325629676e-12
5.22388477043e-05
-2.57507507731e-12
5.22388475664e-05
-2.72666862382e-12
5.22388474064e-05
-2.89077543681e-12
5.22388472535e-05
-3.01874164823e-12
5.22388471289e-05
-3.11670402683e-12
5.22388470219e-05
-3.19148540914e-12
5.22388469413e-05
-3.25877908572e-12
5.22388468456e-05
-3.34960169374e-12
5.22388467568e-05
-3.48227447421e-12
5.22388466897e-05
-3.64169460246e-12
5.22388466442e-05
-3.7728436706e-12
5.22388467288e-05
-3.90162695628e-12
5.22388469411e-05
-4.13220107007e-12
5.22388471344e-05
-4.44596106337e-12
5.22388472474e-05
-4.70271697234e-12
5.22388474648e-05
-4.92750487208e-12
5.22388478126e-05
-5.30186104235e-12
5.22388481135e-05
-5.79889768268e-12
5.22388485067e-05
-6.29324821216e-12
5.22388491605e-05
-6.85507499241e-12
5.22388500185e-05
-7.60740013727e-12
5.22388510141e-05
-8.55070823311e-12
5.22388522345e-05
-9.65655656706e-12
5.22388537372e-05
-1.09530486992e-11
5.22388555749e-05
-1.24729233367e-11
5.22388579505e-05
-1.42978429985e-11
5.22388609329e-05
-1.65268380331e-11
5.22388646531e-05
-1.92534705892e-11
5.22388693251e-05
-2.2634145673e-11
5.22388750768e-05
-2.67504224643e-11
5.22388822779e-05
-3.17314488022e-11
5.2238891446e-05
-3.79775744533e-11
5.22389028197e-05
-4.59221242347e-11
5.22389167084e-05
-5.57016462182e-11
5.22389341261e-05
-6.76240606197e-11
5.22389558955e-05
-8.24391201599e-11
5.2238982715e-05
-1.00881583458e-10
5.22390159812e-05
-1.23741371723e-10
5.2239057334e-05
-1.52077943889e-10
5.22391084035e-05
-1.87117373376e-10
5.22391714818e-05
-2.30343633776e-10
5.22392496798e-05
-2.83839545926e-10
5.22393463678e-05
-3.50181593974e-10
5.22394659236e-05
-4.32388017254e-10
5.22396139456e-05
-5.34213219208e-10
5.22397970717e-05
-6.60160720428e-10
5.22400238547e-05
-8.15993895221e-10
5.22403045151e-05
-1.00901412677e-09
5.2240651773e-05
-1.24801216334e-09
5.22410816646e-05
-1.54383087281e-09
5.22416140414e-05
-1.9101511387e-09
5.22422732193e-05
-2.36391037529e-09
5.22430890823e-05
-2.92588841114e-09
5.22440992596e-05
-3.62200254383e-09
5.22453498835e-05
-4.48448335036e-09
5.22468981421e-05
-5.55306706719e-09
5.22488148841e-05
-6.87679036146e-09
5.22511879224e-05
-8.51615923825e-09
5.22541264283e-05
-1.0546588646e-08
5.22577647695e-05
-1.30617043064e-08
5.22622700936e-05
-1.61774022611e-08
5.22678495032e-05
-2.00376507924e-08
5.22747590575e-05
-2.48209710448e-08
5.22833166397e-05
-3.07490332893e-08
5.2293916374e-05
-3.80977322072e-08
5.23070471936e-05
-4.72104787065e-08
5.23233150621e-05
-5.85146005028e-08
5.23434730581e-05
-7.25433059409e-08
5.23684560656e-05
-8.99633482112e-08
5.23994260221e-05
-1.11609495532e-07
5.2437829661e-05
-1.38530872177e-07
5.24854675244e-05
-1.720499114e-07
5.25445867209e-05
-2.13840549559e-07
5.26179945022e-05
-2.66033977807e-07
5.27092049177e-05
-3.31360205853e-07
5.28226279265e-05
-4.13344971811e-07
5.29638125819e-05
-5.16588994506e-07
5.31397609595e-05
-6.47171659829e-07
5.33593289105e-05
-8.13249309683e-07
5.36337331196e-05
-1.02597541351e-06
5.39771383305e-05
-1.30095287688e-06
5.44072183253e-05
-1.66058174739e-06