/*--------------------------------*- C++ -*----------------------------------*\
| =========                 |                                                 |
| \\      /  F ield         | OpenFOAM: The Open Source CFD Toolbox           |
|  \\    /   O peration     | Version:  2106                                  |
|   \\  /    A nd           | Website:  www.openfoam.com                      |
|    \\/     M anipulation  |                                                 |
\*---------------------------------------------------------------------------*/
FoamFile
{
    version     2.0;
    format      ascii;
    arch        "LSB;label=32;scalar=64";
    class       volVectorField;
    location    "0.16";
    object      U;
}
// * * * * * * * * * * * * * * * * * * * * * * * * * * * * * * * * * * * * * //

dimensions      [0 1 -1 0 0 0 0];

internalField   nonuniform List<vector> 
9600
(
(0.675396180483 0.157677436681 0)
(0.563826160481 0.102430805757 0)
(0.381538939308 0.0510646910479 0)
(0.283853197232 0.0244589887076 0)
(0.232281042243 0.0119348218689 0)
(0.201907730251 0.00623035699763 0)
(0.183178432542 0.00352192619022 0)
(0.171272017377 0.00212007561689 0)
(0.163512274727 0.00132523680253 0)
(0.158392694411 0.000841457942898 0)
(0.155010730616 0.00053413669882 0)
(0.152790008324 0.000335040159368 0)
(0.151348715914 0.000205521427037 0)
(0.150429265239 0.000121791945077 0)
(0.149856475654 6.84336143937e-05 0)
(0.149511138415 3.51728624996e-05 0)
(0.149312529606 1.50862000244e-05 0)
(0.149206481144 3.50327206361e-06 0)
(0.14915710252 -2.70725922265e-06 0)
(0.149140995009 -5.61185151553e-06 0)
(0.149143281417 -6.52820073598e-06 0)
(0.149154681745 -6.41961396856e-06 0)
(0.14916962597 -5.78380735461e-06 0)
(0.149185005098 -4.92986351844e-06 0)
(0.149199185766 -4.04465643062e-06 0)
(0.149211445971 -3.22648745822e-06 0)
(0.149221596858 -2.51808903386e-06 0)
(0.149229739487 -1.93134945825e-06 0)
(0.149236111233 -1.46133523624e-06 0)
(0.149240995772 -1.09474469278e-06 0)
(0.14924467445 -8.15151859825e-07 0)
(0.149247401761 -6.06145014946e-07 0)
(0.149249394958 -4.52431045135e-07 0)
(0.149250832086 -3.4058900895e-07 0)
(0.149251855624 -2.60219898763e-07 0)
(0.149252576154 -2.03417218604e-07 0)
(0.149253076927 -1.63682541298e-07 0)
(0.149253419827 -1.35360236859e-07 0)
(0.149253651373 -1.14449146264e-07 0)
(0.149253806247 -9.8932585613e-08 0)
(0.149253908009 -8.70547615557e-08 0)
(0.149253972992 -7.73173020254e-08 0)
(0.149254013913 -7.11856220693e-08 0)
(0.149254038532 -7.12776334126e-08 0)
(0.149254051379 -7.47891820959e-08 0)
(0.149254056278 -7.94284011123e-08 0)
(0.149254056601 -8.47588500788e-08 0)
(0.149254054903 -9.16176792354e-08 0)
(0.149254052046 -9.96748305629e-08 0)
(0.149254048248 -1.08512379067e-07 0)
(0.149254043966 -1.1813435298e-07 0)
(0.149254039407 -1.28242661512e-07 0)
(0.149254034869 -1.38475561008e-07 0)
(0.149254031344 -1.49414120762e-07 0)
(0.149254029058 -1.61745518741e-07 0)
(0.149254026807 -1.75002903068e-07 0)
(0.149254023604 -1.88183527933e-07 0)
(0.149254019834 -2.01303168846e-07 0)
(0.149254016513 -2.15614869556e-07 0)
(0.149254013789 -2.32018625883e-07 0)
(0.149254011072 -2.49898766998e-07 0)
(0.149254008412 -2.6823763308e-07 0)
(0.149254006473 -2.87210577138e-07 0)
(0.149254004787 -3.07388460421e-07 0)
(0.149254002028 -3.28870517255e-07 0)
(0.14925399811 -3.51932711597e-07 0)
(0.14925399341 -3.76773146333e-07 0)
(0.149253987742 -4.03016912225e-07 0)
(0.149253981662 -4.30671357762e-07 0)
(0.149253976214 -4.60368421289e-07 0)
(0.149253970937 -4.91767218259e-07 0)
(0.149253964772 -5.24053994245e-07 0)
(0.149253958133 -5.58044156144e-07 0)
(0.149253951319 -5.95048031501e-07 0)
(0.149253943498 -6.34713568168e-07 0)
(0.149253934497 -6.75679376679e-07 0)
(0.149253925415 -7.17588373018e-07 0)
(0.149253917379 -7.61387153353e-07 0)
(0.149253910616 -8.08149024986e-07 0)
(0.14925390483 -8.58327408327e-07 0)
(0.149253899112 -9.11378057197e-07 0)
(0.149253892584 -9.66468608833e-07 0)
(0.149253885446 -1.02312837431e-06 0)
(0.149253878719 -1.08150377812e-06 0)
(0.149253873462 -1.14261384267e-06 0)
(0.149253868818 -1.20700036444e-06 0)
(0.149253862737 -1.27407565434e-06 0)
(0.149253855739 -1.34380510435e-06 0)
(0.149253850701 -1.41751381114e-06 0)
(0.149253847608 -1.49505914531e-06 0)
(0.149253843321 -1.57427933113e-06 0)
(0.149253838245 -1.65505541605e-06 0)
(0.149253835341 -1.73903037974e-06 0)
(0.149253834291 -1.82631964447e-06 0)
(0.149253833354 -1.91610116271e-06 0)
(0.14925383318 -2.00869202484e-06 0)
(0.14925383507 -2.10473343008e-06 0)
(0.149253838878 -2.20410349209e-06 0)
(0.149253844785 -2.30638261079e-06 0)
(0.149253853669 -2.41037003534e-06 0)
(0.149253866994 -2.51519545125e-06 0)
(0.149253886844 -2.62118996958e-06 0)
(0.149253914333 -2.72878135228e-06 0)
(0.149253951183 -2.83936531737e-06 0)
(0.149254000206 -2.95397110206e-06 0)
(0.149254062348 -3.07033633336e-06 0)
(0.149254139187 -3.18630880344e-06 0)
(0.149254237815 -3.30503682345e-06 0)
(0.149254364531 -3.43046425601e-06 0)
(0.149254520764 -3.56501838974e-06 0)
(0.149254714195 -3.71509186755e-06 0)
(0.149254957253 -3.87787489406e-06 0)
(0.149255260265 -4.04972935804e-06 0)
(0.149255636996 -4.23109414538e-06 0)
(0.149256106426 -4.42489650128e-06 0)
(0.149256689243 -4.6311864456e-06 0)
(0.149257411423 -4.84934450032e-06 0)
(0.1492583072 -5.08039497569e-06 0)
(0.149259416937 -5.32435667289e-06 0)
(0.149260792037 -5.58429268833e-06 0)
(0.149262495234 -5.86502255908e-06 0)
(0.149264602998 -6.17062522867e-06 0)
(0.149267220164 -6.51121465707e-06 0)
(0.149270490999 -6.92307288645e-06 0)
(0.149274561249 -7.49738974851e-06 0)
(0.149279573332 -8.26654269722e-06 0)
(0.149285748171 -9.17711282172e-06 0)
(0.149293389474 -1.02077603273e-05 0)
(0.149302855325 -1.13653299607e-05 0)
(0.149314580021 -1.26659368048e-05 0)
(0.149329099174 -1.41299599428e-05 0)
(0.149347080968 -1.57849819994e-05 0)
(0.149369353094 -1.76648396213e-05 0)
(0.149396941466 -1.98150605801e-05 0)
(0.149431122067 -2.22920127277e-05 0)
(0.149473474531 -2.51623465469e-05 0)
(0.14952596099 -2.85135048341e-05 0)
(0.149591022363 -3.24575559988e-05 0)
(0.149671696983 -3.71345161397e-05 0)
(0.14977176888 -4.27204691274e-05 0)
(0.149895962326 -4.94422753247e-05 0)
(0.150050183716 -5.75877680567e-05 0)
(0.150241828039 -6.75206086417e-05 0)
(0.150480198977 -7.97120171488e-05 0)
(0.150777027718 -9.4767165644e-05 0)
(0.15114717059 -0.000113468231169 0)
(0.151609558023 -0.000136836673223 0)
(0.152188460089 -0.000166212440752 0)
(0.152915255202 -0.000203363749671 0)
(0.153830933439 -0.000250647134036 0)
(0.154989739952 -0.000311245182946 0)
(0.156464769744 -0.000389604820279 0)
(0.158357397483 -0.000492664268839 0)
(0.160816042601 -0.000634305823022 0)
(0.164080647863 -0.000852614066166 0)
(0.168594267655 -0.00127386675596 0)
(0.17534608824 -0.00234712249988 0)
(0.187279882931 -0.00575265495231 0)
(0.213425586744 -0.0179236311958 0)
(0.271268287085 -0.0630135927233 0)
(0.977201169673 0.296997123332 0)
(0.962687460805 0.250387272813 0)
(0.820646040305 0.15858100857 0)
(0.697824905153 0.0957993464669 0)
(0.610491679661 0.0579132758194 0)
(0.549133335636 0.035903851202 0)
(0.506706011885 0.0229309371094 0)
(0.477662052673 0.0149788805229 0)
(0.457815334943 0.00990973437377 0)
(0.444277710733 0.0065833124141 0)
(0.435087259695 0.00436198894372 0)
(0.428895585021 0.00286682729033 0)
(0.424768062084 0.00185972006113 0)
(0.422054249805 0.00118457046569 0)
(0.420301066641 0.000736107834161 0)
(0.419193694064 0.000442155743566 0)
(0.418514627285 0.000252856028388 0)
(0.418114855718 0.000133734776136 0)
(0.417893403363 6.10475664862e-05 0)
(0.417782767418 1.85720951974e-05 0)
(0.417738518866 -4.64197066475e-06 0)
(0.417731994092 -1.60203214531e-05 0)
(0.41774522639 -2.03187202116e-05 0)
(0.417767269971 -2.06229295037e-05 0)
(0.41779174424 -1.88716226384e-05 0)
(0.417815188786 -1.6239980822e-05 0)
(0.417835942966 -1.34049889453e-05 0)
(0.417853414294 -1.07292691113e-05 0)
(0.417867606607 -8.38257638443e-06 0)
(0.417878824842 -6.42063793317e-06 0)
(0.417887498618 -4.83579814026e-06 0)
(0.417894081649 -3.58914577606e-06 0)
(0.417898998171 -2.62918992139e-06 0)
(0.41790261716 -1.90219222353e-06 0)
(0.417905245866 -1.35955904959e-06 0)
(0.417907131983 -9.60504919904e-07 0)
(0.417908469478 -6.71313669253e-07 0)
(0.417909406266 -4.63756462158e-07 0)
(0.41791005352 -3.15586540678e-07 0)
(0.417910495313 -2.11415570213e-07 0)
(0.417910793007 -1.39657957067e-07 0)
(0.417910988442 -9.0478450269e-08 0)
(0.417911111054 -5.79289368259e-08 0)
(0.417911185233 -3.94794481021e-08 0)
(0.417911228943 -3.0211075066e-08 0)
(0.417911251807 -2.55849762469e-08 0)
(0.417911260132 -2.27766753912e-08 0)
(0.417911260061 -2.02409651935e-08 0)
(0.417911255725 -1.84152672541e-08 0)
(0.417911248449 -1.80187995992e-08 0)
(0.417911239383 -1.92961078615e-08 0)
(0.417911229515 -2.13965104736e-08 0)
(0.417911218954 -2.28999807754e-08 0)
(0.417911208362 -2.39819390976e-08 0)
(0.417911199015 -2.62098890535e-08 0)
(0.417911190971 -2.99396383818e-08 0)
(0.417911182727 -3.37711160024e-08 0)
(0.417911172834 -3.66340005823e-08 0)
(0.417911161601 -3.92071070139e-08 0)
(0.417911150583 -4.24202032763e-08 0)
(0.417911140646 -4.57011453805e-08 0)
(0.417911131277 -4.80883063141e-08 0)
(0.417911121978 -5.05131062406e-08 0)
(0.417911112272 -5.41724784296e-08 0)
(0.417911100937 -5.84638678746e-08 0)
(0.417911087823 -6.30191085801e-08 0)
(0.417911073776 -6.82295432199e-08 0)
(0.417911058512 -7.33379925647e-08 0)
(0.417911041672 -7.74483735876e-08 0)
(0.417911024739 -8.14619300569e-08 0)
(0.417911008578 -8.59437959922e-08 0)
(0.41791099134 -8.97736797082e-08 0)
(0.417910971926 -9.32566071543e-08 0)
(0.417910951546 -9.84292701908e-08 0)
(0.41791093119 -1.05686728931e-07 0)
(0.417910910425 -1.13247043838e-07 0)
(0.417910888455 -1.19599436109e-07 0)
(0.41791086534 -1.24784579915e-07 0)
(0.417910841959 -1.29602910868e-07 0)
(0.417910819635 -1.35326083182e-07 0)
(0.417910798473 -1.42840976473e-07 0)
(0.417910777229 -1.51907443153e-07 0)
(0.417910755187 -1.61022584274e-07 0)
(0.417910732483 -1.68660147612e-07 0)
(0.417910710405 -1.76044055558e-07 0)
(0.417910689462 -1.85369479449e-07 0)
(0.41791066742 -1.95667148751e-07 0)
(0.417910642924 -2.04548398243e-07 0)
(0.417910619656 -2.13702436287e-07 0)
(0.417910601063 -2.26275616992e-07 0)
(0.417910583833 -2.40451630001e-07 0)
(0.417910565408 -2.53606838429e-07 0)
(0.41791054912 -2.67056056865e-07 0)
(0.417910536772 -2.82298011119e-07 0)
(0.417910526471 -2.98341580307e-07 0)
(0.417910518478 -3.14622664619e-07 0)
(0.417910515607 -3.32415115968e-07 0)
(0.41791051919 -3.53211251534e-07 0)
(0.417910530591 -3.78565709026e-07 0)
(0.417910551913 -4.08207393587e-07 0)
(0.417910585157 -4.39936366051e-07 0)
(0.417910633806 -4.74335304405e-07 0)
(0.41791070062 -5.12218260767e-07 0)
(0.417910789239 -5.54773707179e-07 0)
(0.417910908397 -6.05191319958e-07 0)
(0.417911065751 -6.6372580955e-07 0)
(0.417911263889 -7.26350792283e-07 0)
(0.417911511677 -7.9431636495e-07 0)
(0.417911823854 -8.72451340224e-07 0)
(0.417912208471 -9.57125975901e-07 0)
(0.417912689684 -1.03766160593e-06 0)
(0.417913303778 -1.12189676572e-06 0)
(0.417914077304 -1.21714493238e-06 0)
(0.417915040921 -1.32820566013e-06 0)
(0.417916241914 -1.46314287229e-06 0)
(0.417917739149 -1.62882556816e-06 0)
(0.417919600604 -1.83217266435e-06 0)
(0.417921912936 -2.08347196435e-06 0)
(0.417924781501 -2.3927681749e-06 0)
(0.417928336169 -2.77584556192e-06 0)
(0.417932740219 -3.25408520839e-06 0)
(0.417938193286 -3.84902658417e-06 0)
(0.417944938298 -4.59242099152e-06 0)
(0.417953265011 -5.54661789214e-06 0)
(0.417963561155 -6.82450244441e-06 0)
(0.417976349714 -8.50728730072e-06 0)
(0.417992246133 -1.06286669281e-05 0)
(0.418011971409 -1.32626491124e-05 0)
(0.418036425802 -1.65236399921e-05 0)
(0.418066733558 -2.05592591044e-05 0)
(0.418104286726 -2.55484742277e-05 0)
(0.418150815437 -3.17145084531e-05 0)
(0.418208461878 -3.93340648681e-05 0)
(0.418279881068 -4.87508581505e-05 0)
(0.418368376348 -6.03929450202e-05 0)
(0.418478040953 -7.47883329519e-05 0)
(0.418613954609 -9.2596251562e-05 0)
(0.418782436655 -0.000114639940192 0)
(0.418991352592 -0.000141948454087 0)
(0.41925049639 -0.000175810209292 0)
(0.419572089026 -0.000217851651235 0)
(0.419971410634 -0.000270130583738 0)
(0.42046759634 -0.000335251435357 0)
(0.421084700657 -0.000416550395978 0)
(0.421853058248 -0.000518320373764 0)
(0.422811093704 -0.000646127235012 0)
(0.424007780719 -0.000807278332756 0)
(0.425505979563 -0.00101148898268 0)
(0.427387139569 -0.00127188689734 0)
(0.429758124078 -0.00160662563621 0)
(0.432761514629 -0.00204162626445 0)
(0.436591984767 -0.00261567119597 0)
(0.441524043733 -0.00339119336023 0)
(0.447962939955 -0.00448012083263 0)
(0.45654500075 -0.00611240521423 0)
(0.468329995928 -0.00882564739931 0)
(0.485162172332 -0.0139922449045 0)
(0.510589792818 -0.0253445012292 0)
(0.551564016945 -0.0533581663139 0)
(0.612773573891 -0.123741212807 0)
(1.03387038656 0.239240962104 0)
(1.08314081455 0.293634385734 0)
(1.03294438244 0.239131934206 0)
(0.954408217947 0.174539019513 0)
(0.880112596091 0.121551465506 0)
(0.818677634818 0.0832335956595 0)
(0.771466816543 0.0568258153094 0)
(0.736691601807 0.0388125755508 0)
(0.711672132263 0.0264913197696 0)
(0.693953159392 0.018023577977 0)
(0.681568230185 0.0121876203205 0)
(0.673018625441 0.00816650161046 0)
(0.667192252053 0.00540556287811 0)
(0.663277766475 0.0035222584882 0)
(0.660690327834 0.00224960634208 0)
(0.659012754726 0.00140002120477 0)
(0.657950550614 0.00084144819078 0)
(0.657298102892 0.000481113757012 0)
(0.6569135674 0.000254182235029 0)
(0.656700386581 0.000115695664834 0)
(0.656593791487 3.4777075947e-05 0)
(0.656551095487 -9.48989701051e-06 0)
(0.65654477548 -3.10402525244e-05 0)
(0.656557501087 -3.91101617475e-05 0)
(0.656578717442 -3.95886898283e-05 0)
(0.656602280718 -3.61680423885e-05 0)
(0.656624856809 -3.10856683257e-05 0)
(0.656644846602 -2.56307014146e-05 0)
(0.656661678756 -2.04917490129e-05 0)
(0.656675355313 -1.59889143573e-05 0)
(0.656686168943 -1.22253028268e-05 0)
(0.65669453318 -9.18447496207e-06 0)
(0.656700885379 -6.79134787637e-06 0)
(0.656705633256 -4.94720294567e-06 0)
(0.656709131274 -3.55078612712e-06 0)
(0.656711674433 -2.50997132848e-06 0)
(0.656713500722 -1.74623098285e-06 0)
(0.656714796508 -1.19417182496e-06 0)
(0.656715703637 -8.00034839335e-07 0)
(0.656716330152 -5.22451660236e-07 0)
(0.656716757744 -3.3088535264e-07 0)
(0.656717045187 -2.01501520414e-07 0)
(0.656717233431 -1.14653567369e-07 0)
(0.656717352685 -5.61197405005e-08 0)
(0.656717425827 -1.80342935133e-08 0)
(0.656717468344 5.81254173245e-09 0)
(0.656717490935 2.05558478427e-08 0)
(0.656717500343 2.99793448543e-08 0)
(0.65671749991 3.55155349041e-08 0)
(0.656717492639 3.88978608905e-08 0)
(0.656717481862 4.11231764055e-08 0)
(0.656717470221 4.2630334339e-08 0)
(0.656717458262 4.47051644669e-08 0)
(0.656717445523 4.84334522095e-08 0)
(0.656717432446 5.30824745441e-08 0)
(0.656717420092 5.71151039427e-08 0)
(0.656717408555 6.01883005974e-08 0)
(0.656717396627 6.36085490551e-08 0)
(0.65671738364 6.83268350619e-08 0)
(0.656717370553 7.40669843562e-08 0)
(0.656717358271 8.03314821887e-08 0)
(0.65671734579 8.71253873465e-08 0)
(0.656717332132 9.41796990865e-08 0)
(0.656717317989 1.00904074591e-07 0)
(0.656717303162 1.0776152865e-07 0)
(0.656717286676 1.15273045188e-07 0)
(0.656717269017 1.22869179814e-07 0)
(0.656717250683 1.30580419536e-07 0)
(0.656717230756 1.39595577077e-07 0)
(0.656717209375 1.49910534653e-07 0)
(0.656717188121 1.6037920933e-07 0)
(0.656717166508 1.71497122853e-07 0)
(0.656717142635 1.84312432619e-07 0)
(0.656717116446 1.9826267339e-07 0)
(0.656717089421 2.11948366004e-07 0)
(0.656717062452 2.25050855037e-07 0)
(0.65671703539 2.38553353413e-07 0)
(0.656717007988 2.53772600746e-07 0)
(0.656716979958 2.71638097403e-07 0)
(0.656716951283 2.91407935373e-07 0)
(0.656716921961 3.11127643109e-07 0)
(0.656716892247 3.29892375281e-07 0)
(0.656716863276 3.48798867468e-07 0)
(0.656716834817 3.70070757286e-07 0)
(0.656716805854 3.93679178084e-07 0)
(0.656716777167 4.16901527475e-07 0)
(0.656716749558 4.39443187704e-07 0)
(0.656716721124 4.65056366278e-07 0)
(0.656716691093 4.94497692641e-07 0)
(0.656716662999 5.23043669406e-07 0)
(0.65671663829 5.49571600979e-07 0)
(0.65671661522 5.78040432445e-07 0)
(0.656716594404 6.09110311971e-07 0)
(0.656716577711 6.40064738942e-07 0)
(0.656716565204 6.70746596376e-07 0)
(0.656716557044 7.02847184917e-07 0)
(0.656716554666 7.36251844066e-07 0)
(0.656716558531 7.7050147761e-07 0)
(0.656716570866 8.06015431556e-07 0)
(0.656716597575 8.43376979594e-07 0)
(0.656716642815 8.8145751599e-07 0)
(0.656716710247 9.1850356414e-07 0)
(0.656716804433 9.53479684672e-07 0)
(0.656716929432 9.87048561095e-07 0)
(0.656717094161 1.01606245718e-06 0)
(0.656717312594 1.03431077436e-06 0)
(0.656717595149 1.04168312631e-06 0)
(0.656717953573 1.03953530156e-06 0)
(0.656718411345 1.02186695703e-06 0)
(0.656718997706 9.85422518642e-07 0)
(0.656719732576 9.3608112485e-07 0)
(0.656720640908 8.61667775999e-07 0)
(0.656721768614 7.48302741481e-07 0)
(0.656723169117 5.86055667477e-07 0)
(0.656724908676 3.60659425174e-07 0)
(0.656727069612 5.10101397586e-08 0)
(0.656729749857 -3.66906263669e-07 0)
(0.65673307386 -9.22458237583e-07 0)
(0.656737194495 -1.65021154135e-06 0)
(0.65674229889 -2.5933163482e-06 0)
(0.656748622637 -3.80733521149e-06 0)
(0.656756456943 -5.35788245121e-06 0)
(0.656766160173 -7.32690137015e-06 0)
(0.656778174265 -9.81742544613e-06 0)
(0.656793049126 -1.29464821737e-05 0)
(0.656811465973 -1.68748644129e-05 0)
(0.656834267525 -2.18247935444e-05 0)
(0.656862500894 -2.80609853838e-05 0)
(0.65689746434 -3.59049636033e-05 0)
(0.656940767323 -4.57559031773e-05 0)
(0.656994400398 -5.81035477408e-05 0)
(0.657060831493 -7.35588498867e-05 0)
(0.65714311776 -9.28818131452e-05 0)
(0.657245046553 -0.000117008887363 0)
(0.657371325192 -0.000147107817193 0)
(0.657527791799 -0.000184631263764 0)
(0.65772168933 -0.000231383012953 0)
(0.65796202037 -0.000289612357556 0)
(0.658259986053 -0.000362133325201 0)
(0.658629526237 -0.000452468716742 0)
(0.659088015116 -0.000565046357742 0)
(0.659657157938 -0.000705457979378 0)
(0.660364104323 -0.000880785102469 0)
(0.661242918709 -0.00110006531367 0)
(0.662336483775 -0.00137490993534 0)
(0.6636989885 -0.00172036035169 0)
(0.665399280891 -0.00215613872869 0)
(0.667525413206 -0.00270846210478 0)
(0.670190953589 -0.00341279990935 0)
(0.673543991877 -0.00431829508092 0)
(0.677780450979 -0.00549524179336 0)
(0.683164429143 -0.00704855223117 0)
(0.690060390818 -0.00914398611241 0)
(0.698985790985 -0.0120626743545 0)
(0.71069819206 -0.0163209788247 0)
(0.726324580009 -0.0229405208932 0)
(0.747493084285 -0.0340356997816 0)
(0.776416845186 -0.0540175028985 0)
(0.815430829675 -0.091887197739 0)
(0.860751596105 -0.163023428712 0)
(1.03384128581 0.171306945347 0)
(1.10231584763 0.275556751523 0)
(1.11663621267 0.266312375252 0)
(1.0920792579 0.219892604809 0)
(1.05195421079 0.168210319531 0)
(1.01022223351 0.123615339167 0)
(0.973507741936 0.0888850634077 0)
(0.943885975379 0.0630494653737 0)
(0.921162831522 0.0442608001534 0)
(0.904299855347 0.0307744355271 0)
(0.8920861663 0.0211830148943 0)
(0.883411262592 0.0144172961755 0)
(0.877355088658 0.00968543813945 0)
(0.873196240376 0.00640758207931 0)
(0.870388088952 0.00416171673474 0)
(0.868526286063 0.00264231260798 0)
(0.867317333262 0.00162946538341 0)
(0.866551626422 0.000966009247524 0)
(0.866081708493 0.000540551058758 0)
(0.865805362295 0.000274897960773 0)
(0.865652801224 0.000114754882759 0)
(0.865577186231 2.29107971236e-05 0)
(0.865547596167 -2.57807541705e-05 0)
(0.865544086262 -4.81124615591e-05 0)
(0.86555416657 -5.50037195875e-05 0)
(0.865570208665 -5.34164635171e-05 0)
(0.865587791293 -4.76747743401e-05 0)
(0.865604532267 -4.03581680864e-05 0)
(0.865619301618 -3.29204749637e-05 0)
(0.865631708128 -2.61103347337e-05 0)
(0.865641771535 -2.0249040338e-05 0)
(0.865649718406 -1.54110147019e-05 0)
(0.865655860405 -1.15395529769e-05 0)
(0.865660522796 -8.51636867342e-06 0)
(0.865664006619 -6.20239611475e-06 0)
(0.865666572527 -4.46116901083e-06 0)
(0.865668437507 -3.17109283146e-06 0)
(0.865669776808 -2.22948302483e-06 0)
(0.865670726535 -1.55098197567e-06 0)
(0.865671390819 -1.06714386947e-06 0)
(0.865671849545 -7.26195461987e-07 0)
(0.865672162207 -4.89623810363e-07 0)
(0.865672370895 -3.27582235613e-07 0)
(0.865672505692 -2.17395538967e-07 0)
(0.865672589512 -1.43740580275e-07 0)
(0.865672638748 -9.58518068418e-08 0)
(0.865672664504 -6.56567114821e-08 0)
(0.865672674844 -4.80799315169e-08 0)
(0.865672675724 -3.89319182989e-08 0)
(0.86567267042 -3.44470046711e-08 0)
(0.865672660585 -3.25412776603e-08 0)
(0.865672648604 -3.33253488687e-08 0)
(0.865672636145 -3.67902035934e-08 0)
(0.865672623027 -4.15169595421e-08 0)
(0.865672608699 -4.66517514637e-08 0)
(0.865672593479 -5.20611057992e-08 0)
(0.865672578207 -5.82629188448e-08 0)
(0.865672562667 -6.49162192049e-08 0)
(0.865672545987 -7.08769962637e-08 0)
(0.865672528657 -7.59183138508e-08 0)
(0.865672511906 -8.12674971861e-08 0)
(0.865672495279 -8.77374268563e-08 0)
(0.86567247744 -9.49153462713e-08 0)
(0.865672458378 -1.02759375573e-07 0)
(0.865672437936 -1.11134988752e-07 0)
(0.865672415267 -1.19165361561e-07 0)
(0.865672390807 -1.26904376703e-07 0)
(0.86567236555 -1.3533534203e-07 0)
(0.865672338942 -1.44067363452e-07 0)
(0.865672310615 -1.52096733849e-07 0)
(0.865672282056 -1.60394295592e-07 0)
(0.865672253397 -1.70211291606e-07 0)
(0.865672222811 -1.80962628425e-07 0)
(0.865672189431 -1.91465454153e-07 0)
(0.865672154037 -2.01678069586e-07 0)
(0.865672117757 -2.12199930402e-07 0)
(0.86567208117 -2.23282441289e-07 0)
(0.865672044634 -2.35026689405e-07 0)
(0.865672007743 -2.47325632976e-07 0)
(0.865671969718 -2.6024817264e-07 0)
(0.865671930211 -2.74010082243e-07 0)
(0.865671889811 -2.88525124567e-07 0)
(0.865671850439 -3.04234304152e-07 0)
(0.865671812158 -3.21007774085e-07 0)
(0.865671772626 -3.37670748345e-07 0)
(0.865671731803 -3.54672480877e-07 0)
(0.86567169257 -3.74485082837e-07 0)
(0.865671654671 -3.9726692604e-07 0)
(0.865671615002 -4.20521795274e-07 0)
(0.865671575412 -4.4494125804e-07 0)
(0.865671539769 -4.72705477494e-07 0)
(0.865671507639 -5.02930979288e-07 0)
(0.865671477736 -5.3479302065e-07 0)
(0.865671451307 -5.69960005712e-07 0)
(0.86567142999 -6.09569499904e-07 0)
(0.865671414925 -6.53429970828e-07 0)
(0.86567140847 -7.02076635313e-07 0)
(0.865671413204 -7.55111004206e-07 0)
(0.865671432179 -8.1120288408e-07 0)
(0.865671467879 -8.70776114551e-07 0)
(0.86567152252 -9.36675076747e-07 0)
(0.865671602176 -1.01185000974e-06 0)
(0.865671714634 -1.09925073725e-06 0)
(0.865671865392 -1.19903703315e-06 0)
(0.865672061317 -1.31243921132e-06 0)
(0.865672317098 -1.44663101314e-06 0)
(0.865672648494 -1.60785992857e-06 0)
(0.865673068785 -1.79935519506e-06 0)
(0.865673598746 -2.02980125423e-06 0)
(0.865674267053 -2.3130144006e-06 0)
(0.865675105145 -2.66613794759e-06 0)
(0.865676153126 -3.10020028362e-06 0)
(0.865677463619 -3.63205071435e-06 0)
(0.865679096961 -4.28184000423e-06 0)
(0.865681127394 -5.07623085656e-06 0)
(0.865683649496 -6.05173497751e-06 0)
(0.865686778458 -7.25059254817e-06 0)
(0.865690659782 -8.72537428412e-06 0)
(0.865695472563 -1.05417397654e-05 0)
(0.865701435002 -1.27804349301e-05 0)
(0.865708822127 -1.55440885392e-05 0)
(0.86571797542 -1.89597095536e-05 0)
(0.86572931402 -2.31832797481e-05 0)
(0.865743354607 -2.84113754008e-05 0)
(0.865760741385 -3.48916083503e-05 0)
(0.865782271748 -4.29245033858e-05 0)
(0.865808929534 -5.28732566571e-05 0)
(0.865841934446 -6.51881005816e-05 0)
(0.865882798173 -8.04313019372e-05 0)
(0.865933398953 -9.93044875272e-05 0)
(0.865996059374 -0.000122677527363 0)
(0.866073654928 -0.00015163461391 0)
(0.86616975237 -0.000187524198774 0)
(0.866288768991 -0.000232013679924 0)
(0.86643618744 -0.000287180160941 0)
(0.866618809776 -0.000355612803449 0)
(0.866845072666 -0.000440531273036 0)
(0.867125450683 -0.00054594755758 0)
(0.867472965269 -0.000676880865983 0)
(0.86790380712 -0.000839619119316 0)
(0.868438126534 -0.00104205337132 0)
(0.869101055339 -0.00129413385642 0)
(0.869923962367 -0.00160845274761 0)
(0.87094609552 -0.00200103441403 0)
(0.872216699247 -0.00249241067291 0)
(0.873797730268 -0.00310909925671 0)
(0.875767466047 -0.00388571205207 0)
(0.878225309195 -0.00486801656175 0)
(0.881298268163 -0.0061175371546 0)
(0.885149859273 -0.00771873894608 0)
(0.889992608517 -0.00979080483728 0)
(0.896105722052 -0.0125078627429 0)
(0.903859986065 -0.0161355268891 0)
(0.913751734087 -0.0210996778195 0)
(0.926443911321 -0.0281193244112 0)
(0.942792394948 -0.038462956087 0)
(0.963768921552 -0.0544098873846 0)
(0.990104720246 -0.0799435897247 0)
(1.02119390558 -0.121441499704 0)
(1.0509207079 -0.186553071151 0)
(1.02388346667 0.119321983283 0)
(1.08875436516 0.231514428149 0)
(1.13660483522 0.252868944544 0)
(1.15406273879 0.228905050683 0)
(1.15000113779 0.188337389973 0)
(1.13537625645 0.146577295682 0)
(1.11757780007 0.110164824471 0)
(1.10059202422 0.0808376098458 0)
(1.08612244206 0.0582502025114 0)
(1.07458764854 0.0413417856738 0)
(1.0657868245 0.0289362812095 0)
(1.05928159198 0.0199770160965 0)
(1.05459135036 0.0135949240611 0)
(1.0512802907 0.00910741961749 0)
(1.04898738432 0.00599312339625 0)
(1.04742907703 0.00386142887359 0)
(1.0463904877 0.00242412035394 0)
(1.04571302445 0.00147132670926 0)
(1.04528209963 0.000852106906604 0)
(1.04501642623 0.000459224363114 0)
(1.04485931379 0.000217439855889 0)
(1.04477189686 7.465646947e-05 0)
(1.04472793179 -4.72115280339e-06 0)
(1.04471008574 -4.45358892134e-05 0)
(1.04470718305 -6.06414676748e-05 0)
(1.04471213342 -6.32140788066e-05 0)
(1.04472060602 -5.86797775428e-05 0)
(1.04473008413 -5.09612728992e-05 0)
(1.04473919928 -4.23425508269e-05 0)
(1.04474728995 -3.40654740173e-05 0)
(1.04475411502 -2.67281926564e-05 0)
(1.04475966876 -2.05460070198e-05 0)
(1.04476406635 -1.55210304735e-05 0)
(1.04476747365 -1.15475045318e-05 0)
(1.04477006612 -8.47427490624e-06 0)
(1.04477200699 -6.14060557012e-06 0)
(1.04477343854 -4.39626113941e-06 0)
(1.04477448093 -3.11146854093e-06 0)
(1.04477523083 -2.17776908296e-06 0)
(1.04477576301 -1.50662132625e-06 0)
(1.04477613533 -1.02897563519e-06 0)
(1.0447763924 -6.93102992533e-07 0)
(1.04477656697 -4.59788397261e-07 0)
(1.04477668207 -2.98795165773e-07 0)
(1.04477675508 -1.88432583821e-07 0)
(1.04477679927 -1.13619859434e-07 0)
(1.04477682378 -6.33420555603e-08 0)
(1.04477683471 -3.00333588579e-08 0)
(1.04477683623 -9.10759992006e-09 0)
(1.04477683099 2.70656109839e-09 0)
(1.04477682034 9.10694615039e-09 0)
(1.04477680623 1.24434114576e-08 0)
(1.04477679114 1.36280716144e-08 0)
(1.04477677578 1.32318405056e-08 0)
(1.04477675984 1.24687727937e-08 0)
(1.04477674331 1.1871143224e-08 0)
(1.0447767265 1.12334751145e-08 0)
(1.04477670983 1.03045431264e-08 0)
(1.0447766929 9.91550763831e-09 0)
(1.04477667492 1.0790135425e-08 0)
(1.044776656 1.19778709996e-08 0)
(1.04477663617 1.23988468298e-08 0)
(1.04477661469 1.23302120837e-08 0)
(1.04477659188 1.18599225502e-08 0)
(1.04477656854 1.10282996279e-08 0)
(1.04477654389 1.10514451366e-08 0)
(1.0447765171 1.26115171258e-08 0)
(1.04477648901 1.45881035285e-08 0)
(1.04477646009 1.65969221118e-08 0)
(1.04477642933 1.98673082833e-08 0)
(1.04477639649 2.39978487663e-08 0)
(1.04477636225 2.7153591808e-08 0)
(1.04477632665 2.91657988722e-08 0)
(1.04477628942 3.13351405773e-08 0)
(1.04477625066 3.45839391991e-08 0)
(1.04477621078 3.88577342458e-08 0)
(1.04477616988 4.38820311399e-08 0)
(1.04477612812 4.90659039369e-08 0)
(1.04477608524 5.38787715084e-08 0)
(1.04477604102 5.83168184937e-08 0)
(1.04477599565 6.29169956142e-08 0)
(1.04477594911 6.84336243913e-08 0)
(1.04477590259 7.40446855001e-08 0)
(1.04477585744 7.85004790411e-08 0)
(1.04477581232 8.30097104041e-08 0)
(1.04477576492 8.93525540891e-08 0)
(1.0447757165 9.57483234311e-08 0)
(1.04477566927 9.95040443816e-08 0)
(1.0447756216 1.02256668919e-07 0)
(1.04477557318 1.05832565404e-07 0)
(1.04477552739 1.08518023354e-07 0)
(1.04477548538 1.08885581163e-07 0)
(1.0447754458 1.07387380116e-07 0)
(1.04477540897 1.03980371695e-07 0)
(1.04477537657 9.78217091049e-08 0)
(1.04477534969 8.82265216545e-08 0)
(1.04477533083 7.3730447166e-08 0)
(1.04477532283 5.30318063622e-08 0)
(1.04477532812 2.45502030038e-08 0)
(1.04477535019 -1.47908603635e-08 0)
(1.04477539225 -6.61390898259e-08 0)
(1.04477545931 -1.32070396077e-07 0)
(1.04477556047 -2.18668298354e-07 0)
(1.04477570365 -3.30859486279e-07 0)
(1.04477589439 -4.70409125569e-07 0)
(1.04477614552 -6.43440180442e-07 0)
(1.04477647533 -8.60676409464e-07 0)
(1.04477689941 -1.13144106359e-06 0)
(1.04477743864 -1.46651552244e-06 0)
(1.0447781233 -1.87941893467e-06 0)
(1.04477898622 -2.38532910513e-06 0)
(1.04478006564 -3.00535051227e-06 0)
(1.04478141491 -3.77071382019e-06 0)
(1.0447830992 -4.71689923741e-06 0)
(1.0447851955 -5.88540732453e-06 0)
(1.04478780191 -7.32863583393e-06 0)
(1.04479103942 -9.10856917537e-06 0)
(1.04479505892 -1.13038213495e-05 0)
(1.04480004633 -1.40138550633e-05 0)
(1.04480622837 -1.73584580062e-05 0)
(1.04481388916 -2.14881751353e-05 0)
(1.04482338339 -2.65924489179e-05 0)
(1.04483514847 -3.29039725532e-05 0)
(1.04484972075 -4.07097511352e-05 0)
(1.0448677669 -5.03699260153e-05 0)
(1.04489011504 -6.23307841764e-05 0)
(1.04491778693 -7.71394845375e-05 0)
(1.04495204756 -9.54719189063e-05 0)
(1.04499446469 -0.000118163222419 0)
(1.04504698621 -0.000146253339387 0)
(1.04511201979 -0.000181033424291 0)
(1.04519254468 -0.000224104163623 0)
(1.04529225966 -0.000277454235294 0)
(1.04541574252 -0.000343548020008 0)
(1.04556866551 -0.000425448930929 0)
(1.04575806496 -0.000526972301671 0)
(1.04599266706 -0.000652866252524 0)
(1.04628329141 -0.000809042176356 0)
(1.04664336714 -0.00100288459301 0)
(1.04708957115 -0.00124363587062 0)
(1.04764261757 -0.00154287805327 0)
(1.0483282763 -0.0019151880681 0)
(1.04917861897 -0.00237897187009 0)
(1.05023361373 -0.00295757671151 0)
(1.05154316171 -0.00368080609239 0)