/*--------------------------------*- C++ -*----------------------------------*\
| =========                 |                                                 |
| \\      /  F ield         | OpenFOAM: The Open Source CFD Toolbox           |
|  \\    /   O peration     | Version:  2106                                  |
|   \\  /    A nd           | Website:  www.openfoam.com                      |
|    \\/     M anipulation  |                                                 |
\*---------------------------------------------------------------------------*/
FoamFile
{
    version     2.0;
    format      ascii;
    arch        "LSB;label=32;scalar=64";
    class       volVectorField;
    location    "0.085";
    object      U;
}
// * * * * * * * * * * * * * * * * * * * * * * * * * * * * * * * * * * * * * //

dimensions      [0 1 -1 0 0 0 0];

internalField   nonuniform List<vector> 
11200
(
(0.662462402407 0.150569446679 0)
(0.558948638164 0.10324341029 0)
(0.38385061861 0.0513512602449 0)
(0.283747367974 0.0248709031541 0)
(0.232074933287 0.0124171007826 0)
(0.201908184281 0.00662286877742 0)
(0.183197584404 0.00380294210061 0)
(0.171276423577 0.00231584302931 0)
(0.163510897204 0.00146438574587 0)
(0.158390555909 0.00094463312059 0)
(0.15501032899 0.000614732943787 0)
(0.152793169476 0.000401562020605 0)
(0.151356835549 0.000263295581033 0)
(0.150443523099 0.000174016933415 0)
(0.149877977456 0.000116795366611 0)
(0.149540927875 8.02003947624e-05 0)
(0.149351483667 5.63870820532e-05 0)
(0.149254852566 4.01651095472e-05 0)
(0.149213698292 2.94059979376e-05 0)
(0.149205837249 2.58313078772e-05 0)
(0.149217834869 2.63806568365e-05 0)
(0.149238802037 2.93265181703e-05 0)
(0.149262165885 3.25205152401e-05 0)
(0.149284910673 3.55086274096e-05 0)
(0.149305436564 3.82951872445e-05 0)
(0.149323015254 4.08893114949e-05 0)
(0.149337488927 4.32981123683e-05 0)
(0.149349025263 4.55425755313e-05 0)
(0.149357959355 4.76560274641e-05 0)
(0.149364694465 4.96821217939e-05 0)
(0.149369642774 5.16786331349e-05 0)
(0.14937319733 5.37299728011e-05 0)
(0.149375696978 5.59458573e-05 0)
(0.149377402479 5.83290751099e-05 0)
(0.149378514363 6.07358225211e-05 0)
(0.149379182377 6.30989420143e-05 0)
(0.149379542982 6.54083138665e-05 0)
(0.149379716791 6.76881539497e-05 0)
(0.149379773598 6.99581899158e-05 0)
(0.149379754935 7.22258613623e-05 0)
(0.149379691896 7.44948785597e-05 0)
(0.149379605773 7.67667711962e-05 0)
(0.14937951023 7.90410033307e-05 0)
(0.149379414216 8.13159569002e-05 0)
(0.14937932339 8.35897009998e-05 0)
(0.149379240865 8.58603195602e-05 0)
(0.149379167647 8.81259654712e-05 0)
(0.14937910329 9.03845980624e-05 0)
(0.14937904728 9.26338234371e-05 0)
(0.149379000198 9.48709736793e-05 0)
(0.149378964786 9.70927574216e-05 0)
(0.149378947413 9.9295275125e-05 0)
(0.14937895949 0.000101474356104 0)
(0.149379018798 0.000103625892582 0)
(0.149379151029 0.000105745952117 0)
(0.149379392109 0.000107830253935 0)
(0.149379792252 0.000109872888304 0)
(0.149380422138 0.00011186538994 0)
(0.14938138444 0.000113794601745 0)
(0.149382829649 0.000115638030154 0)
(0.149384991855 0.000117345408119 0)
(0.149388266495 0.000118832533873 0)
(0.149393153912 0.000120108531276 0)
(0.149400305978 0.000121354369576 0)
(0.149410750307 0.000123017531419 0)
(0.149426027811 0.000125377946161 0)
(0.149448560609 0.000128183685921 0)
(0.149482133338 0.000131183576655 0)
(0.149532477341 0.000134148355283 0)
(0.149608003858 0.00013698668676 0)
(0.14972088557 0.000141150734157 0)
(0.149894826373 0.000152837763486 0)
(0.150168295975 0.000174242937459 0)
(0.150605142445 0.000205471726038 0)
(0.151343092789 0.000236992287357 0)
(0.152664685286 0.000196959369448 0)
(0.155235568626 -0.000221425024397 0)
(0.162677462678 -0.00217617459305 0)
(0.188480577627 -0.0111671564699 0)
(0.207285898435 -0.0518866204316 0)
(0.965408242293 0.289214737987 0)
(0.961962764688 0.252656136322 0)
(0.823574135654 0.159021581765 0)
(0.698138945852 0.0959958818098 0)
(0.610224956435 0.0582482173079 0)
(0.548971120165 0.036214810781 0)
(0.506589080989 0.0231609501983 0)
(0.477568734039 0.0151366916103 0)
(0.457749287566 0.0100162056929 0)
(0.444236039764 0.00665560601792 0)
(0.435066519711 0.00441177786291 0)
(0.428894213772 0.00290161845925 0)
(0.424785696201 0.00188417681354 0)
(0.422091232832 0.00120144625252 0)
(0.420358167821 0.00074685332561 0)
(0.41927182307 0.00044732106253 0)
(0.418614599751 0.000252444559651 0)
(0.418237553516 0.000127786627752 0)
(0.418040651223 5.10449056307e-05 0)
(0.417956235128 8.94307005603e-06 0)
(0.417938631076 -1.29888208329e-05 0)
(0.417956424927 -2.32015393393e-05 0)
(0.417990190209 -2.58537939128e-05 0)
(0.418030291219 -2.42440560283e-05 0)
(0.418070550109 -2.04076248099e-05 0)
(0.418107387627 -1.5564660549e-05 0)
(0.418139158964 -1.04620055338e-05 0)
(0.418165413537 -5.54393481721e-06 0)
(0.418186383524 -1.05690048007e-06 0)
(0.418202664354 2.87342424742e-06 0)
(0.418215023106 6.18166757041e-06 0)
(0.418224277819 8.80532704178e-06 0)
(0.418231072986 1.06498907188e-05 0)
(0.41823578608 1.18164146792e-05 0)
(0.418238829458 1.27371316557e-05 0)
(0.418240675498 1.35739517629e-05 0)
(0.418241731818 1.42905314216e-05 0)
(0.418242312187 1.49256098175e-05 0)
(0.418242591163 1.55179397424e-05 0)
(0.418242675136 1.60766401483e-05 0)
(0.4182426421 1.66103448374e-05 0)
(0.418242541451 1.71283807026e-05 0)
(0.418242400668 1.76374496148e-05 0)
(0.418242234349 1.81427335339e-05 0)
(0.418242050093 1.86489950664e-05 0)
(0.418241852525 1.91608562173e-05 0)
(0.418241645601 1.96827222899e-05 0)
(0.418241434211 2.02176762185e-05 0)
(0.418241226322 2.0767118464e-05 0)
(0.418241033481 2.13320070408e-05 0)
(0.418240870859 2.19121923191e-05 0)
(0.418240759023 2.2506391648e-05 0)
(0.418240726622 2.31126681452e-05 0)
(0.418240813989 2.37288534844e-05 0)
(0.418241078305 2.43528095121e-05 0)
(0.41824160167 2.49822705689e-05 0)
(0.418242504635 2.56142962546e-05 0)
(0.418243964706 2.6244621166e-05 0)
(0.418246244714 2.68585792999e-05 0)
(0.418249724432 2.74281481282e-05 0)
(0.418254984838 2.78982974559e-05 0)
(0.41826308164 2.81972355203e-05 0)
(0.418275560053 2.84291217359e-05 0)
(0.418294594528 2.80618832948e-05 0)
(0.418323060751 2.56148755088e-05 0)
(0.418364636931 1.97924504544e-05 0)
(0.418425556636 9.76709054071e-06 0)
(0.418516223533 -6.03027858191e-06 0)
(0.418652745636 -3.02144778672e-05 0)
(0.418860888725 -6.6596155718e-05 0)
(0.419184021431 -0.000119477262805 0)
(0.419693850923 -0.000194006586121 0)
(0.420507693956 -0.000318467789104 0)
(0.421836541207 -0.000551734708763 0)
(0.424085602094 -0.00103448292956 0)
(0.428001994137 -0.00216084815844 0)
(0.435069164633 -0.0050229910639 0)
(0.449600991537 -0.0127007939045 0)
(0.477132055813 -0.0355516948981 0)
(0.483077071873 -0.103124074113 0)
(1.02222095178 0.23841626705 0)
(1.08213743653 0.295926857228 0)
(1.03447699265 0.23950333301 0)
(0.954615071949 0.174290385109 0)
(0.879991785329 0.121345463996 0)
(0.818614599016 0.0830988770816 0)
(0.771412093772 0.0567302649061 0)
(0.736637724563 0.0387381643829 0)
(0.711631309288 0.0264279823797 0)
(0.693928984813 0.0179656535997 0)
(0.681561709124 0.0121317196881 0)
(0.673031256081 0.00811036151823 0)
(0.667225892488 0.00534757969061 0)
(0.663334485579 0.00346136358341 0)
(0.660772338565 0.00218527395359 0)
(0.659122276492 0.00133232581708 0)
(0.6580896544 0.000771176473003 0)
(0.657468584159 0.000409920746096 0)
(0.65711663954 0.000184410284673 0)
(0.656935459829 4.90620401282e-05 0)
(0.656860061686 -2.81568611698e-05 0)
(0.6568478412 -7.14852571848e-05 0)
(0.656869652835 -9.23054792976e-05 0)
(0.656907231446 -9.82771142863e-05 0)
(0.656950056113 -9.5637881172e-05 0)
(0.656991965953 -8.85189847836e-05 0)
(0.657029669377 -7.94732820596e-05 0)
(0.657061737452 -7.00380123585e-05 0)
(0.657087873943 -6.10898309561e-05 0)
(0.657108416559 -5.30818495947e-05 0)
(0.65712400628 -4.62135318149e-05 0)
(0.657135391705 -4.05636251108e-05 0)
(0.657143478557 -3.62011732834e-05 0)
(0.657149368785 -3.30997748662e-05 0)
(0.65715368537 -3.11289104118e-05 0)
(0.65715652339 -3.00788243233e-05 0)
(0.657158220648 -2.97958928284e-05 0)
(0.657159216686 -3.00234402808e-05 0)
(0.657159750079 -3.05451226298e-05 0)
(0.65715997091 -3.12628280016e-05 0)
(0.657160000844 -3.21059769014e-05 0)
(0.657159917726 -3.30202956191e-05 0)
(0.657159765307 -3.39708753017e-05 0)
(0.657159568171 -3.49360660831e-05 0)
(0.657159340247 -3.59017791622e-05 0)
(0.65715909054 -3.68583771777e-05 0)
(0.65715882614 -3.77981929782e-05 0)
(0.657158554674 -3.87149863054e-05 0)
(0.657158288601 -3.96039084014e-05 0)
(0.657158045643 -4.04596693687e-05 0)
(0.657157848005 -4.12786219555e-05 0)
(0.657157725039 -4.20587728814e-05 0)
(0.657157717141 -4.27996464046e-05 0)
(0.657157881334 -4.35032341659e-05 0)
(0.657158299843 -4.41767102093e-05 0)
(0.65715909324 -4.48394731449e-05 0)
(0.657160440517 -4.55370081977e-05 0)
(0.657162600863 -4.63545504513e-05 0)
(0.65716595812 -4.74377784596e-05 0)
(0.657171083142 -4.9009501801e-05 0)
(0.657178864816 -5.15310246105e-05 0)
(0.65719089648 -5.60067030036e-05 0)
(0.657208776614 -6.33789187882e-05 0)
(0.657233973072 -7.46660846859e-05 0)
(0.657270039178 -9.14527384848e-05 0)
(0.657323842379 -0.000116293261008 0)
(0.65740516233 -0.000152501033472 0)
(0.657528220616 -0.000205581778293 0)
(0.657715570998 -0.000284452327563 0)
(0.658003911463 -0.000403659272167 0)
(0.65845360975 -0.000588705945761 0)
(0.659157567954 -0.000888877996999 0)
(0.6602695763 -0.00139771504888 0)
(0.662059328299 -0.00229532006605 0)
(0.664990929786 -0.00395906386822 0)
(0.669801266023 -0.00722198124661 0)
(0.677591162484 -0.0139064764908 0)
(0.690498051596 -0.0280303236481 0)
(0.708298535642 -0.0590023883902 0)
(0.705330409217 -0.119364703567 0)
(1.02251474636 0.170807268696 0)
(1.10138970237 0.276496763221 0)
(1.11752413307 0.266665135571 0)
(1.09214647606 0.219901886158 0)
(1.05187823694 0.168168561815 0)
(1.01020892761 0.123566154453 0)
(0.973496702599 0.0888346572163 0)
(0.943868911486 0.0630010402869 0)
(0.921150948563 0.0442144185742 0)
(0.904297923685 0.0307290944484 0)
(0.892096796588 0.0211374541306 0)
(0.883437316661 0.0143702069758 0)
(0.877399490335 0.00963565642412 0)
(0.873261867342 0.00635428447228 0)
(0.870477763298 0.00410457250342 0)
(0.868642677054 0.00258156130973 0)
(0.867462793826 0.00156591297569 0)
(0.866728011619 0.000900947921999 0)
(0.866290235848 0.000475594114919 0)
(0.86604611172 0.000211884363024 0)
(0.865923496072 5.63044903543e-05 0)
(0.865875423164 -3.05025865313e-05 0)
(0.865872941871 -7.35344555035e-05 0)
(0.865894860988 -8.93862538921e-05 0)
(0.865927204181 -8.91972699261e-05 0)
(0.865962183478 -8.03048912174e-05 0)
(0.86599548733 -6.73856162101e-05 0)
(0.866024926099 -5.33109976601e-05 0)
(0.866049651869 -3.97465679789e-05 0)
(0.866069618904 -2.75643278066e-05 0)
(0.86608522082 -1.71317042097e-05 0)
(0.8660970416 -8.49751488142e-06 0)
(0.866105680679 -1.51548638159e-06 0)
(0.866111651626 3.89841439927e-06 0)
(0.866115528498 7.62649741991e-06 0)
(0.866117869762 9.98120258974e-06 0)
(0.86611923771 1.16739345911e-05 0)
(0.866120104731 1.29663680013e-05 0)
(0.866120619574 1.40291466849e-05 0)
(0.866120853404 1.48973891047e-05 0)
(0.866120909801 1.56191844237e-05 0)
(0.866120854974 1.62465984452e-05 0)
(0.866120722295 1.6818179279e-05 0)
(0.866120531048 1.73623240145e-05 0)
(0.8661202934 1.78995787993e-05 0)
(0.866120018858 1.84452319785e-05 0)
(0.866119716656 1.90136787969e-05 0)
(0.866119397054 1.96109219809e-05 0)
(0.866119075886 2.02324705906e-05 0)
(0.866118774021 2.08774257203e-05 0)
(0.866118516748 2.15419714173e-05 0)
(0.866118338338 2.22167626932e-05 0)
(0.866118285858 2.28862072816e-05 0)
(0.866118423607 2.35260786777e-05 0)
(0.866118838313 2.40986262579e-05 0)
(0.86611964562 2.45463450913e-05 0)
(0.866121009316 2.47941616558e-05 0)
(0.866123169928 2.47752692239e-05 0)
(0.866126497022 2.43542673159e-05 0)
(0.866131443555 2.32402824829e-05 0)
(0.86613844872 2.07227523607e-05 0)
(0.866148938586 1.60764217134e-05 0)
(0.866165480835 7.71937513687e-06 0)
(0.866191291727 -6.39107443219e-06 0)
(0.866230417082 -2.83376204816e-05 0)
(0.866288792434 -6.20848283948e-05 0)
(0.866375946916 -0.000114795033436 0)
(0.866506810521 -0.000197724295022 0)
(0.866704713831 -0.000328947448404 0)
(0.867005871804 -0.000538302499788 0)
(0.867466366912 -0.000877046981736 0)
(0.868175455986 -0.0014360843394 0)
(0.869276754194 -0.00237127138888 0)
(0.870996194959 -0.00397077003546 0)
(0.873674439023 -0.00678524065335 0)
(0.87774702342 -0.0118779136587 0)
(0.88359342493 -0.0212303121811 0)
(0.891472543168 -0.038345303423 0)
(0.899006184269 -0.0692123481725 0)
(0.890173567988 -0.11732466649 0)
(1.01287874965 0.118961155114 0)
(1.08820669909 0.231807250767 0)
(1.13741366154 0.253107096359 0)
(1.15409093803 0.228992818286 0)
(1.1499424474 0.188367704842 0)
(1.1353855975 0.14657781158 0)
(1.11759102915 0.110146662217 0)
(1.10059899915 0.0808085277973 0)
(1.08613154618 0.0582141914532 0)
(1.07460225052 0.0413005205236 0)
(1.0658088334 0.0288901274785 0)
(1.05931337753 0.0199256244583 0)
(1.05463538765 0.0135377001478 0)
(1.05133897628 0.00904388953983 0)
(1.04906301084 0.00592318730919 0)
(1.04752375455 0.00378549510921 0)
(1.0465060172 0.00234312922076 0)
(1.04585076553 0.00138669745469 0)
(1.04544288547 0.000765617220813 0)
(1.04520032655 0.000372760613885 0)
(1.04506520882 0.000133072060519 0)
(1.04499890669 -4.2599359239e-06 0)
(1.04497544752 -7.55824625798e-05 0)
(1.04497633737 -0.000106622519107 0)
(1.04499004126 -0.000113638453665 0)
(1.045009306 -0.000107174060321 0)
(1.04502977867 -9.40494343671e-05 0)
(1.0450490248 -7.85346585149e-05 0)
(1.04506584522 -6.31788312154e-05 0)
(1.0450797961 -4.93912595445e-05 0)
(1.04509086881 -3.78319974805e-05 0)
(1.04509929612 -2.86820003506e-05 0)
(1.04510544882 -2.18147401327e-05 0)
(1.04510978353 -1.6881069632e-05 0)
(1.04511282419 -1.33351162681e-05 0)
(1.04511515195 -1.07272482722e-05 0)
(1.04511697682 -8.62632493259e-06 0)
(1.04511826901 -7.01018241405e-06 0)
(1.04511908307 -6.01986151288e-06 0)
(1.04511949302 -5.52263725652e-06 0)
(1.045119658 -5.33736944042e-06 0)
(1.04511967417 -5.31178310515e-06 0)
(1.04511959003 -5.36143434431e-06 0)
(1.045119435 -5.44376851719e-06 0)
(1.04511922738 -5.53500497491e-06 0)
(1.04511898244 -5.62290713389e-06 0)
(1.04511870796 -5.7065804519e-06 0)
(1.04511840264 -5.78278673551e-06 0)
(1.04511807917 -5.84066358116e-06 0)
(1.04511776178 -5.87663096731e-06 0)
(1.04511747374 -5.89232956458e-06 0)
(1.04511724551 -5.89177217724e-06 0)
(1.04511712013 -5.88223496539e-06 0)
(1.04511715749 -5.87682464339e-06 0)
(1.04511744262 -5.8994539158e-06 0)
(1.04511810879 -5.99835622221e-06 0)
(1.04511939087 -6.29492277389e-06 0)
(1.04512159194 -7.12160581603e-06 0)
(1.04512505447 -8.9775767428e-06 0)
(1.04513008614 -1.24952874927e-05 0)
(1.04513753519 -1.74204814283e-05 0)
(1.04514880434 -2.36473352647e-05 0)
(1.04516514486 -3.32001552381e-05 0)
(1.04518866024 -4.91632256992e-05 0)
(1.04522292033 -7.60576311478e-05 0)
(1.04527316734 -0.000120426517292 0)
(1.04534717409 -0.000192466399196 0)
(1.0454565909 -0.000308445687383 0)
(1.04561913049 -0.000494707204249 0)
(1.0458617118 -0.000794265660441 0)
(1.04622494039 -0.00127781318161 0)
(1.04676990037 -0.00206274652594 0)
(1.04758614889 -0.00334987075651 0)
(1.04879577404 -0.00548855406976 0)
(1.05054066608 -0.00908973449938 0)
(1.05289891626 -0.0152108164166 0)
(1.05565245357 -0.0255778393028 0)
(1.05802823709 -0.0427165348763 0)
(1.05728271217 -0.0698302844616 0)
(1.04387549867 -0.106956415623 0)
(1.00447483906 0.0814041252757 0)
(1.06917240371 0.181288835551 0)
(1.13080577144 0.216950691871 0)
(1.17375020399 0.210789068482 0)
(1.19865307082 0.183689100861 0)
(1.21020067616 0.149749057141 0)
(1.21350395643 0.116773850286 0)
(1.212519543 0.0882114508066 0)
(1.20973457147 0.0650335283219 0)
(1.20651653929 0.0469993310537 0)
(1.2035267871 0.0333767600155 0)
(1.20102205653 0.0233159125493 0)
(1.19904871726 0.0160215133653 0)
(1.19755746696 0.0108179735559 0)
(1.19646520088 0.00716191202037 0)
(1.19568542379 0.00463152199597 0)
(1.1951413601 0.00290761409953 0)
(1.19477014052 0.00175341879778 0)
(1.1945227653 0.00099619902781 0)
(1.19436226165 0.000511711198313 0)
(1.19426139959 0.000211935332313 0)
(1.19420110508 3.56650700815e-05 0)
(1.1941677043 -6.06705653794e-05 0)
(1.19415121964 -0.000106439667853 0)
(1.19414519986 -0.000121368417765 0)
(1.19414526062 -0.000118519473786 0)
(1.19414852241 -0.000106369442016 0)
(1.19415317564 -9.02606498916e-05 0)
(1.19415813488 -7.34206993027e-05 0)
(1.19416280035 -5.76673281196e-05 0)
(1.19416689133 -4.38782699502e-05 0)
(1.19417031871 -3.23176173016e-05 0)
(1.19417310603 -2.28761063776e-05 0)
(1.19417535117 -1.52677707029e-05 0)
(1.19417716803 -9.20715637049e-06 0)
(1.19417863531 -4.51983821473e-06 0)
(1.1941796983 -1.20593837271e-06 0)
(1.19418022127 9.55481381325e-07 0)
(1.19418035294 2.24543289228e-06 0)
(1.19418038312 3.15280191385e-06 0)
(1.1941804166 3.83801031219e-06 0)
(1.19418044358 4.33032689797e-06 0)
(1.19418041984 4.69446209934e-06 0)
(1.1941803285 4.99152095621e-06 0)
(1.19418016945 5.26050885515e-06 0)
(1.19417994405 5.52117278242e-06 0)
(1.19417966192 5.7754545188e-06 0)
(1.19417934682 6.022540838e-06 0)
(1.19417901957 6.26994688666e-06 0)
(1.19417869506 6.52951366651e-06 0)
(1.19417839737 6.79808896252e-06 0)
(1.19417816256 7.06020315e-06 0)
(1.19417803918 7.29068211403e-06 0)
(1.19417809072 7.45137255368e-06 0)
(1.19417839388 7.4852099868e-06 0)
(1.19417901274 7.30977683616e-06 0)
(1.19417992117 6.80859814548e-06 0)
(1.19418110795 5.75971441633e-06 0)
(1.19418277012 3.61238210113e-06 0)
(1.194186074 -1.91515237113e-07 0)
(1.19419222574 -6.16681799382e-06 0)
(1.19420107653 -1.56658855361e-05 0)
(1.1942130499 -3.09113139999e-05 0)
(1.1942299776 -5.48242827121e-05 0)
(1.19425403586 -9.21197921587e-05 0)
(1.19428803359 -0.000150376143902 0)
(1.19433595767 -0.000241714250836 0)
(1.19440347214 -0.000385429740512 0)
(1.19449858609 -0.000612408355415 0)
(1.19463241974 -0.000972412090595 0)
(1.19481981267 -0.00154603452645 0)
(1.19507873606 -0.0024642534498 0)
(1.19542583145 -0.00394225435915 0)
(1.19586126071 -0.00633387249203 0)
(1.19632827866 -0.0102144517096 0)
(1.1966092398 -0.0164916125476 0)
(1.19611073177 -0.0264860478668 0)
(1.19364494431 -0.0418339754151 0)
(1.18677402233 -0.0640498369744 0)
(1.16971026085 -0.0921681776773 0)
(0.998962334302 0.0544317346272 0)
(1.05310962696 0.133401855493 0)
(1.11628282608 0.170777751277 0)
(1.17301296782 0.175143669549 0)
(1.21791279628 0.15958247633 0)
(1.25049891935 0.134948203547 0)
(1.27288509131 0.108406147898 0)
(1.2877669517 0.0838755270297 0)
(1.29745151998 0.0630417598152 0)
(1.30365808711 0.0462782152418 0)
(1.30758738822 0.0332904308584 0)
(1.31004550647 0.0235097838788 0)
(1.31156112281 0.0163096114565 0)
(1.31247698757 0.0111100968869 0)
(1.3130141221 0.00741964903832 0)
(1.31331462301 0.00484297204854 0)
(1.31346957782 0.00307344894425 0)
(1.3135371103 0.00187950438953 0)
(1.31355403505 0.00108988451833 0)
(1.31354337941 0.000580129202039 0)
(1.31351927989 0.000261196375632 0)
(1.31349039381 7.02791581012e-05 0)
(1.31346160671 -3.68910949184e-05 0)
(1.31343532756 -9.04334326738e-05 0)
(1.31341272451 -0.000110806643327 0)
(1.31339407235 -0.000111696208691 0)
(1.31337918905 -0.000102047013079 0)
(1.31336766502 -8.75500602815e-05 0)
(1.31335899582 -7.16898810653e-05 0)
(1.31335266803 -5.64741690259e-05 0)
(1.31334820745 -4.2947023472e-05 0)
(1.31334519464 -3.15426043475e-05 0)
(1.31334326518 -2.23249711435e-05 0)
(1.31334208835 -1.51603090472e-05 0)
(1.31334139071 -9.84937544274e-06 0)
(1.31334100378 -6.15474135908e-06 0)
(1.31334079148 -3.78441263235e-06 0)
(1.31334070968 -2.28634212117e-06 0)
(1.31334087867 -1.21759770672e-06 0)
(1.31334117877 -4.99599642834e-07 0)
(1.31334135217 9.47749171476e-09 0)
(1.31334139597 3.76866955355e-07 0)
(1.31334138037 6.479115399e-07 0)
(1.31334131948 8.68375354542e-07 0)
(1.31334120673 1.075187209e-06 0)
(1.31334103607 1.29637883066e-06 0)
(1.31334080614 1.5562586415e-06 0)
(1.31334052537 1.86768692768e-06 0)
(1.31334022012 2.22576176989e-06 0)
(1.31333990911 2.60479925866e-06 0)
(1.31333959697 2.98154829918e-06 0)
(1.31333929989 3.32839152972e-06 0)
(1.31333904711 3.60358387489e-06 0)
(1.31333887893 3.74503928821e-06 0)
(1.31333885303 3.66264800423e-06 0)
(1.31333906579 3.23031324927e-06 0)
(1.31333965525 2.29922870205e-06 0)
(1.31334059879 7.78777580289e-07 0)
(1.31334199969 -1.49504399873e-06 0)
(1.31334424991 -4.91262164724e-06 0)
(1.3133476073 -1.08963936886e-05 0)
(1.31335217952 -2.12186886799e-05 0)
(1.31335817443 -3.75795872539e-05 0)
(1.31336597078 -6.31336541192e-05 0)
(1.31337580394 -0.000103044850753 0)
(1.3133876221 -0.000165331061241 0)
(1.31340085312 -0.000262532999541 0)
(1.31341387188 -0.000414388686387 0)
(1.31342302271 -0.000652158150313 0)
(1.31342080048 -0.00102555842086 0)
(1.3133925546 -0.00161376963814 0)
(1.31330948745 -0.00254223942798 0)
(1.31311472855 -0.00401000882718 0)
(1.31269643791 -0.00632949238059 0)
(1.31183649078 -0.00997883602714 0)
(1.31011295536 -0.0156556094337 0)
(1.30673812823 -0.0242787694975 0)
(1.30043279481 -0.0368273603769 0)
(1.28919026295 -0.0539301072698 0)
(1.26927147141 -0.074578324826 0)
(0.995736085878 0.0346339410831 0)
(1.04179522134 0.0905691028599 0)
(1.10222856379 0.121549682131 0)
(1.16491436043 0.129605594664 0)
(1.22202582645 0.122008218006 0)
(1.2695186818 0.106017432239 0)
(1.30680103824 0.0870927445692 0)
(1.33499232318 0.068628518483 0)
(1.35573866953 0.052357123734 0)
(1.37068532686 0.0389070701719 0)
(1.38126509137 0.0282724467674 0)
(1.38863571069 0.0201374947883 0)
(1.39369127732 0.0140748087998 0)
(1.39710249776 0.00965339659742 0)
(1.39936221402 0.00648964218563 0)
(1.4008267229 0.00426530144821 0)
(1.4017500466 0.00272818042691 0)
(1.40231098916 0.00168485405286 0)
(1.40263384818 0.000990630526277 0)
(1.40280391864 0.000539422854706 0)
(1.402878917 0.000254768542911 0)
(1.40289738234 8.23711878429e-05 0)
(1.40288443422 -1.60031840133e-05 0)
(1.40285599195 -6.66508633598e-05 0)
(1.40282188531 -8.75617082799e-05 0)
(1.40278781704 -9.07855757727e-05 0)
(1.40275685046 -8.42392911948e-05 0)
(1.40273037018 -7.29994645617e-05 0)
(1.40270873398 -6.0206998405e-05 0)
(1.40269171083 -4.77019223903e-05 0)
(1.40267876717 -3.64693415376e-05 0)
(1.40266924461 -2.69463160136e-05 0)
(1.40266246749 -1.9232671686e-05 0)
(1.4026578006 -1.32264507475e-05 0)
(1.40265470008 -8.68949214282e-06 0)
(1.40265275808 -5.3313859902e-06 0)
(1.402651678 -2.87596398826e-06 0)
(1.40265116177 -1.04841506082e-06 0)
(1.40265087238 2.5817505098e-07 0)
(1.4026507312 1.08238751677e-06 0)
(1.40265076813 1.57297936849e-06 0)
(1.40265086414 1.91280168152e-06 0)
(1.40265094353 2.18970525648e-06 0)
(1.40265097998 2.44563013983e-06 0)
(1.40265096269 2.70663895128e-06 0)
(1.40265088857 2.99037749822e-06 0)
(1.40265076087 3.30983774196e-06 0)
(1.40265058464 3.67381316669e-06 0)
(1.40265035297 4.08160780034e-06 0)
(1.40265006822 4.50668404621e-06 0)
(1.40264975448 4.92597315577e-06 0)
(1.40264943428 5.31519726362e-06 0)
(1.40264912981 5.63843313941e-06 0)
(1.40264886738 5.84200869093e-06 0)
(1.40264867483 5.84695250276e-06 0)
(1.40264857287 5.53415560747e-06 0)
(1.40264856679 4.71030824278e-06 0)
(1.40264863025 3.09868689295e-06 0)
(1.40264871271 5.70705674371e-07 0)
(1.40264896589 -3.50344261899e-06 0)
(1.4026494799 -1.02346021784e-05 0)
(1.40264987577 -2.08885045802e-05 0)
(1.40264951187 -3.730730318e-05 0)
(1.4026474815 -6.24897725658e-05 0)
(1.40264212748 -0.000101127251974 0)
(1.4026304698 -0.000160466238524 0)
(1.40260734178 -0.000251728532723 0)
(1.40256388904 -0.000392359044778 0)
(1.40248507547 -0.000609634788497 0)
(1.40234560376 -0.000946333962501 0)
(1.40210363071 -0.00146949981971 0)
(1.40168893526 -0.00228234339046 0)
(1.40098284251 -0.00354392214062 0)
(1.39978611478 -0.0054944159002 0)
(1.39776702531 -0.00848337416486 0)
(1.39438039561 -0.0129886540527 0)
(1.38875763399 -0.0195879774226 0)
(1.37965627438 -0.0288159992257 0)
(1.36542157763 -0.0408803336984 0)
(1.34340298419 -0.0550215331229 0)
(0.994011545079 0.0192358534523 0)
(1.03484772401 0.0523339481749 0)
(1.09199281562 0.0723631850281 0)
(1.15662441296 0.0791290429039 0)
(1.22032114733 0.0761038054098 0)
(1.27701869262 0.0673322471414 0)
(1.32424181327 0.0561476289219 0)
(1.3618104154 0.0447934898622 0)
(1.39067516668 0.0345218111297 0)
(1.41224330518 0.025868970055 0)
(1.42799036907 0.0189293363194 0)
(1.43925690275 0.013562350631 0)
(1.44716791643 0.00952794667183 0)
(1.45262134783 0.00656535321491 0)
(1.45630911585 0.004433395126 0)
(1.45875036302 0.00292721936171 0)
(1.46032634506 0.00188189420459 0)
(1.46131201495 0.00116949130748 0)
(1.4619024706 0.000693516354528 0)
(1.46223404266 0.000382771320635 0)
(1.46240055329 0.000185678316652 0)
(1.46246558187 6.54529279428e-05 0)
(1.46247137185 -3.86839992462e-06 0)
(1.46244530883 -4.01722610863e-05 0)
(1.46240469457 -5.58339939413e-05 0)
(1.462360023 -5.91197964918e-05 0)
(1.46231725595 -5.54780042685e-05 0)
(1.46227942889 -4.84211099277e-05 0)
(1.46224774372 -4.01361090406e-05 0)
(1.462222305 -3.19167901191e-05 0)
(1.46220261123 -2.44653482776e-05 0)
(1.4621878682 -1.80991859625e-05 0)
(1.46217718693 -1.28986067998e-05 0)
(1.46216970451 -8.80184737927e-06 0)
(1.46216465468 -5.66181687245e-06 0)
(1.46216140272 -3.30911356532e-06 0)
(1.46215942851 -1.606024742e-06 0)
(1.46215828789 -4.50788265876e-07 0)
(1.46215773313 3.36851693238e-07 0)
(1.46215756399 9.71657331647e-07 0)
(1.46215756695 1.46703998808e-06 0)
(1.46215765225 1.85221479524e-06 0)
(1.46215775941 2.17754747742e-06 0)
(1.46215784762 2.48139638611e-06 0)
(1.46215789177 2.78803973106e-06 0)
(1.46215787885 3.11117128463e-06 0)
(1.46215780438 3.45618696998e-06 0)
(1.46215766906 3.8206568234e-06 0)
(1.46215747306 4.19764405938e-06 0)
(1.46215721902 4.58849062199e-06 0)
(1.46215691394 4.97930701609e-06 0)
(1.46215656343 5.34022861518e-06 0)
(1.46215617221 5.62693782807e-06 0)
(1.46215574459 5.77646302734e-06 0)
(1.46215528376 5.70069995678e-06 0)
(1.46215479172 5.28107037403e-06 0)
(1.46215427627 4.36527279998e-06 0)
(1.46215375405 2.77427782896e-06 0)
(1.46215301732 3.73245108734e-07 0)
(1.46215162593 -3.18020255969e-06 0)
(1.46214928604 -9.09143868622e-06 0)
(1.46214546061 -1.84585623469e-05 0)
(1.46213890952 -3.27898485308e-05 0)
(1.46212763985 -5.44647790395e-05 0)
(1.4621083581 -8.71173913896e-05 0)
(1.46207561285 -0.00013625020736 0)
(1.46202045279 -0.000210180432894 0)
(1.46192816409 -0.00032153116256 0)
(1.46177462058 -0.000489674208494 0)
(1.46152050363 -0.000744703062214 0)
(1.46110341945 -0.00113357924795 0)
(1.46042294493 -0.00172479421906 0)
(1.45931705913 -0.00262140297473 0)
(1.45752910182 -0.00397381853579 0)
(1.454659294 -0.0059912362816 0)
(1.45009947672 -0.00894338707122 0)
(1.44295989496 -0.0131307003273 0)
(1.432062215 -0.0187902759221 0)
(1.41597824283 -0.0259412819838 0)
(1.39261125842 -0.0341093211534 0)
(0.993269681998 0.00617016055069 0)
(1.03158109265 0.0171020777704 0)
(1.08672200994 0.0239906628631 0)
(1.15174573401 0.0265605936411 0)
(1.21823523719 0.0258177934283 0)
(1.27925667808 0.0230482765939 0)
(1.33139831482 0.0193644790434 0)
(1.37376937947 0.015544918596 0)
(1.40689814113 0.0120419239638 0)
(1.43201202394 0.00906202831645 0)
(1.45056866116 0.00665456690776 0)
(1.46397965914 0.00478215412997 0)
(1.47347837906 0.00336839989532 0)
(1.48007707457 0.00232653926894 0)
(1.48457171448 0.00157459098923 0)
(1.48756866607 0.0010420268124 0)
(1.48951850952 0.000671581845134 0)
(1.4907492479 0.000418577595593 0)
(1.49149542136 0.000249171252691 0)
(1.49192201083 0.000138313679246 0)
(1.49214323447 6.78144949078e-05 0)
(1.49223689757 2.46706640385e-05 0)
(1.49225505768 -3.27052777377e-07 0)
(1.49223166537 -1.35089847216e-05 0)
(1.49218832089 -1.92967755407e-05 0)
(1.49213833644 -2.06314486668e-05 0)
(1.49208937727 -1.94545472791e-05 0)
(1.49204546372 -1.70213538717e-05 0)
(1.49200831627 -1.41157724112e-05 0)
(1.49197826114 -1.12006481057e-05 0)
(1.49195484023 -8.5282293575e-06 0)
(1.49193720094 -6.22061960811e-06 0)
(1.49192434486 -4.31201377134e-06 0)
(1.49191528333 -2.78476162098e-06 0)
(1.49190912264 -1.59194914961e-06 0)
(1.4919051066 -6.78688023764e-07 0)
(1.49190262735 4.31457171637e-09 0)
(1.49190123496 5.14923943158e-07 0)
(1.49190055466 9.54230650622e-07 0)
(1.49190029086 1.29165676902e-06 0)
(1.49190027239 1.57776592045e-06 0)
(1.49190038093 1.84750247494e-06 0)
(1.4919005339 2.12163933734e-06 0)
(1.49190067887 2.4130572136e-06 0)
(1.4919007851 2.73022522533e-06 0)
(1.49190083629 3.07838323247e-06 0)
(1.49190082513 3.45985676836e-06 0)
(1.4919007487 3.87327274815e-06 0)
(1.49190060406 4.31257497568e-06 0)
(1.49190038867 4.76902474452e-06 0)
(1.49190010116 5.22521932603e-06 0)
(1.49189973835 5.65441655512e-06 0)
(1.49189929363 6.01885596685e-06 0)
(1.4918987551 6.26550387083e-06 0)
(1.49189810175 6.32022864128e-06 0)
(1.49189729692 6.07978941653e-06 0)
(1.4918962886 5.39898096726e-06 0)
(1.4918950484 4.07028139735e-06 0)
(1.4918933542 1.84774160975e-06 0)
(1.49189043916 -1.40169020888e-06 0)
(1.4918857309 -6.19456435625e-06 0)
(1.49187852646 -1.36377850654e-05 0)
(1.49186705794 -2.46559686751e-05 0)
(1.4918485744 -4.06698507904e-05 0)
(1.49181871823 -6.37799839079e-05 0)
(1.49177048311 -9.70202213579e-05 0)
(1.4916926288 -0.000144679484977 0)
(1.49156696611 -0.000212757512347 0)
(1.49136386474 -0.00031015003912 0)
(1.49103521197 -0.000451457674909 0)
(1.49050767937 -0.000660648123653 0)
(1.48966573381 -0.000962815395288 0)
(1.48832533771 -0.00139534652131 0)
(1.48620305861 -0.00201053711437 0)
(1.48287106325 -0.0028750700828 0)
(1.47770132352 -0.00406466864501 0)
(1.46981076738 -0.00564620815987 0)
(1.45806948226 -0.00763897200123 0)
(1.44115702326 -0.0099711625604 0)
(1.4172163161 -0.0124158077476 0)
(0.993270479593 -0.0061684293144 0)
(1.03158107446 -0.0171004204651 0)
(1.08672194214 -0.0239897843082 0)
(1.15174576974 -0.0265601777359 0)
(1.21823531316 -0.0258177233335 0)
(1.2792567784 -0.0230484864095 0)
(1.33139843949 -0.0193648696158 0)