/*--------------------------------*- C++ -*----------------------------------*\
| =========                 |                                                 |
| \\      /  F ield         | OpenFOAM: The Open Source CFD Toolbox           |
|  \\    /   O peration     | Version:  2106                                  |
|   \\  /    A nd           | Website:  www.openfoam.com                      |
|    \\/     M anipulation  |                                                 |
\*---------------------------------------------------------------------------*/
FoamFile
{
    version     2.0;
    format      ascii;
    arch        "LSB;label=32;scalar=64";
    class       volVectorField;
    location    "0.45";
    object      U;
}
// * * * * * * * * * * * * * * * * * * * * * * * * * * * * * * * * * * * * * //

dimensions      [0 1 -1 0 0 0 0];

internalField   nonuniform List<vector> 
9600
(
(0.675396190118 0.157677429035 0)
(0.563826159209 0.102430803483 0)
(0.381538925704 0.051064695962 0)
(0.283853194568 0.0244589901128 0)
(0.232281035192 0.0119348221948 0)
(0.201907713376 0.00623035752372 0)
(0.183178409272 0.00352192636234 0)
(0.171271987646 0.0021200753835 0)
(0.163512241316 0.00132523604115 0)
(0.158392661668 0.000841456211818 0)
(0.155010700196 0.000534135461322 0)
(0.152789982524 0.00033503939313 0)
(0.151348695913 0.000205521078475 0)
(0.150429249724 0.000121791983005 0)
(0.149856463239 6.84339036389e-05 0)
(0.149511125536 3.51740274573e-05 0)
(0.149312516025 1.50870175675e-05 0)
(0.149206466607 3.50287980399e-06 0)
(0.149157083442 -2.70705115678e-06 0)
(0.149140972625 -5.61121556295e-06 0)
(0.149143257799 -6.52779917339e-06 0)
(0.149154654182 -6.41816454488e-06 0)
(0.149169593783 -5.78161809349e-06 0)
(0.149184967808 -4.92820316979e-06 0)
(0.149199139722 -4.04317009659e-06 0)
(0.149211387914 -3.22426017356e-06 0)
(0.149221525165 -2.51497328085e-06 0)
(0.14922965338 -1.92811004198e-06 0)
(0.149236008909 -1.45811376016e-06 0)
(0.149240875079 -1.09110975829e-06 0)
(0.149244535611 -8.11588341459e-07 0)
(0.149247244597 -6.02444980327e-07 0)
(0.14924921871 -4.47954380733e-07 0)
(0.149250638097 -3.36063225455e-07 0)
(0.149251644428 -2.56212856351e-07 0)
(0.149252347046 -1.9946638386e-07 0)
(0.149252830769 -1.59346679883e-07 0)
(0.149253158913 -1.31036434913e-07 0)
(0.149253376924 -1.10421094113e-07 0)
(0.149253518058 -9.41129432399e-08 0)
(0.149253607478 -8.11832480093e-08 0)
(0.149253664168 -7.19353855196e-08 0)
(0.149253698041 -6.93973258122e-08 0)
(0.149253714819 -7.05334343418e-08 0)
(0.149253722334 -7.35756566848e-08 0)
(0.149253725333 -7.79501163881e-08 0)
(0.149253724803 -8.36803709112e-08 0)
(0.1492537221 -9.09749374156e-08 0)
(0.149253718863 -9.96562728287e-08 0)
(0.1492537152 -1.09248320923e-07 0)
(0.149253710872 -1.18942327696e-07 0)
(0.149253706281 -1.28536632434e-07 0)
(0.149253702003 -1.38508790605e-07 0)
(0.149253698049 -1.49268938008e-07 0)
(0.149253694193 -1.60976404408e-07 0)
(0.149253690336 -1.73656645696e-07 0)
(0.149253686527 -1.86975169559e-07 0)
(0.149253683237 -2.00924773631e-07 0)
(0.149253680648 -2.15844419543e-07 0)
(0.149253677914 -2.31788353899e-07 0)
(0.149253674531 -2.48873308279e-07 0)
(0.149253670908 -2.67324323387e-07 0)
(0.149253667191 -2.87130068669e-07 0)
(0.149253662997 -3.07992868754e-07 0)
(0.149253658382 -3.29878817011e-07 0)
(0.149253653846 -3.53179790575e-07 0)
(0.149253649327 -3.78085811487e-07 0)
(0.149253644425 -4.04410843522e-07 0)
(0.149253639154 -4.32085715445e-07 0)
(0.149253633716 -4.61233516279e-07 0)
(0.149253628109 -4.92043500282e-07 0)
(0.149253622313 -5.24835478328e-07 0)
(0.14925361634 -5.59805869501e-07 0)
(0.14925361021 -5.96809850769e-07 0)
(0.149253603941 -6.35437962595e-07 0)
(0.149253597779 -6.7554823072e-07 0)
(0.149253591961 -7.17655777455e-07 0)
(0.149253585751 -7.6226329948e-07 0)
(0.149253578528 -8.09428499025e-07 0)
(0.14925357085 -8.58933684446e-07 0)
(0.149253563284 -9.10608374759e-07 0)
(0.149253555844 -9.64651463656e-07 0)
(0.14925354817 -1.02125683313e-06 0)
(0.149253540127 -1.08048198746e-06 0)
(0.149253532187 -1.14250670541e-06 0)
(0.149253524516 -1.20726069532e-06 0)
(0.149253517098 -1.27462687924e-06 0)
(0.149253510048 -1.34481782521e-06 0)
(0.149253503178 -1.41792984646e-06 0)
(0.149253496544 -1.493977695e-06 0)
(0.14925349003 -1.57294555119e-06 0)
(0.149253483685 -1.6549015622e-06 0)
(0.14925347852 -1.73994370362e-06 0)
(0.14925347464 -1.82757505797e-06 0)
(0.149253472064 -1.91802548239e-06 0)
(0.149253471262 -2.01210743746e-06 0)
(0.149253471795 -2.1093463548e-06 0)
(0.149253474455 -2.2090023213e-06 0)
(0.149253480469 -2.31064373743e-06 0)
(0.149253490071 -2.41419173106e-06 0)
(0.14925350384 -2.51984399101e-06 0)
(0.149253522394 -2.62722099942e-06 0)
(0.149253547923 -2.73639818422e-06 0)
(0.149253583231 -2.84746271004e-06 0)
(0.149253629039 -2.96020079369e-06 0)
(0.149253686574 -3.07508617805e-06 0)
(0.149253759246 -3.19277254377e-06 0)
(0.149253850147 -3.31302914076e-06 0)
(0.149253963478 -3.43631509102e-06 0)
(0.149254105316 -3.56503142903e-06 0)
(0.14925428202 -3.70521567391e-06 0)
(0.149254502829 -3.86299872096e-06 0)
(0.149254777519 -4.03279602327e-06 0)
(0.149255118106 -4.21228668653e-06 0)
(0.149255541659 -4.40167177359e-06 0)
(0.149256068113 -4.60148222615e-06 0)
(0.149256721053 -4.81244268168e-06 0)
(0.149257529849 -5.03550044565e-06 0)
(0.149258532196 -5.27356611185e-06 0)
(0.149259773097 -5.5290019671e-06 0)
(0.149261306512 -5.80170597356e-06 0)
(0.149263202524 -6.09464990637e-06 0)
(0.149265549232 -6.41548334343e-06 0)
(0.14926846279 -6.77804368778e-06 0)
(0.149272108627 -7.23535566696e-06 0)
(0.149276628598 -7.91012718251e-06 0)
(0.149282182197 -8.76176391454e-06 0)
(0.149289035226 -9.7366365226e-06 0)
(0.149297519951 -1.08348051338e-05 0)
(0.1493080279 -1.20665429059e-05 0)
(0.149321040675 -1.34496198048e-05 0)
(0.149337156818 -1.50080860329e-05 0)
(0.149357117758 -1.67744562591e-05 0)
(0.149381840582 -1.87881363928e-05 0)
(0.149412464249 -2.10964677618e-05 0)
(0.14945040643 -2.37617632867e-05 0)
(0.149497426095 -2.68632321167e-05 0)
(0.149555704788 -3.0498170384e-05 0)
(0.149627960252 -3.47909351877e-05 0)
(0.149717580039 -3.98999890535e-05 0)
(0.149828787046 -4.60255232372e-05 0)
(0.149966859504 -5.34232718524e-05 0)
(0.150138410801 -6.24202448065e-05 0)
(0.150351751648 -7.34362747764e-05 0)
(0.150617356942 -8.70093009557e-05 0)
(0.150948487464 -0.000103833747574 0)
(0.151362031985 -0.000124819027925 0)
(0.151879632271 -0.000151155629824 0)
(0.152529249969 -0.000184411519541 0)
(0.153347394048 -0.000226674553804 0)
(0.154382365027 -0.000280757705597 0)
(0.155699278603 -0.000350605317645 0)
(0.157388628768 -0.00044246509036 0)
(0.159583667586 -0.000569204660467 0)
(0.162502077319 -0.000766920378164 0)
(0.166551384161 -0.00115591050395 0)
(0.172657723067 -0.00216246224576 0)
(0.183596263417 -0.00536951314815 0)
(0.207715545716 -0.0167466205052 0)
(0.260835931985 -0.0582022833645 0)
(0.977201184645 0.296997115139 0)
(0.962687469821 0.250387264301 0)
(0.82064602862 0.158581014696 0)
(0.69782489812 0.0957993488237 0)
(0.610491671844 0.0579132755831 0)
(0.54913331935 0.03590385077 0)
(0.5067059888 0.0229309354663 0)
(0.477662023226 0.0149788782495 0)
(0.457815301844 0.0099097323779 0)
(0.444277679166 0.00658330959973 0)
(0.435087231015 0.00436198704373 0)
(0.428895560454 0.00286682702488 0)
(0.424768042941 0.00185972118658 0)
(0.422054234174 0.00118457259714 0)
(0.420301053408 0.000736110085963 0)
(0.419193678707 0.000442159798088 0)
(0.418514607919 0.000252860818399 0)
(0.418114833755 0.000133737748862 0)
(0.417893374523 6.10515166834e-05 0)
(0.417782729401 1.85782407239e-05 0)
(0.417738473131 -4.63519545828e-06 0)
(0.41773193604 -1.60110420879e-05 0)
(0.417745151053 -2.03060945992e-05 0)
(0.417767174948 -2.0608827765e-05 0)
(0.41779162486 -1.88561306069e-05 0)
(0.41781503905 -1.62217990574e-05 0)
(0.417835757495 -1.33833790594e-05 0)
(0.417853189506 -1.07053689222e-05 0)
(0.417867339197 -8.3572943312e-06 0)
(0.417878510533 -6.39326664695e-06 0)
(0.417887136383 -4.80725004673e-06 0)
(0.417893671813 -3.56014190475e-06 0)
(0.417898539312 -2.59893488924e-06 0)
(0.417902109978 -1.87198274671e-06 0)
(0.417904692346 -1.33146254674e-06 0)
(0.417906533142 -9.34569771913e-07 0)
(0.417907827118 -6.46565081867e-07 0)
(0.417908724429 -4.40825788159e-07 0)
(0.417909337337 -2.95766981802e-07 0)
(0.417909747791 -1.93756665591e-07 0)
(0.417910016141 -1.22970509915e-07 0)
(0.417910186146 -7.60710558186e-08 0)
(0.417910289815 -4.9077681018e-08 0)
(0.417910350004 -3.4104751675e-08 0)
(0.417910382445 -2.60190346643e-08 0)
(0.417910397714 -2.25789369624e-08 0)
(0.417910401066 -2.08865472078e-08 0)
(0.417910397288 -1.91149775839e-08 0)
(0.417910390567 -1.83610891002e-08 0)
(0.417910382787 -1.90313498644e-08 0)
(0.417910374291 -2.03707363878e-08 0)
(0.417910364909 -2.16964536699e-08 0)
(0.417910354954 -2.33506558741e-08 0)
(0.417910344771 -2.55325642316e-08 0)
(0.417910334439 -2.83016590318e-08 0)
(0.41791032425 -3.16240793149e-08 0)
(0.417910314281 -3.47518702781e-08 0)
(0.417910304452 -3.724057985e-08 0)
(0.417910294878 -3.95983925635e-08 0)
(0.417910284899 -4.20372007453e-08 0)
(0.417910273907 -4.45644850599e-08 0)
(0.41791026239 -4.74756896223e-08 0)
(0.417910250841 -5.09075740915e-08 0)
(0.417910238826 -5.44226511754e-08 0)
(0.417910225766 -5.77577494324e-08 0)
(0.417910211948 -6.13706224258e-08 0)
(0.417910197795 -6.55381834705e-08 0)
(0.417910183176 -6.98382237576e-08 0)
(0.417910167944 -7.40766707926e-08 0)
(0.417910152064 -7.84839803375e-08 0)
(0.417910135251 -8.31336207235e-08 0)
(0.417910117388 -8.80558196468e-08 0)
(0.417910098813 -9.33782324857e-08 0)
(0.417910080087 -9.90941258318e-08 0)
(0.417910061375 -1.04683923091e-07 0)
(0.417910042298 -1.09703916243e-07 0)
(0.417910022585 -1.14883453838e-07 0)
(0.417910001798 -1.21040430277e-07 0)
(0.417909979807 -1.28022224404e-07 0)
(0.417909957297 -1.35333176965e-07 0)
(0.417909934504 -1.42721549971e-07 0)
(0.417909911235 -1.50408788242e-07 0)
(0.417909887356 -1.58515375203e-07 0)
(0.417909862836 -1.66934784545e-07 0)
(0.41790983833 -1.75855912543e-07 0)
(0.417909814251 -1.85146956104e-07 0)
(0.417909790305 -1.94630079333e-07 0)
(0.417909766478 -2.04669939232e-07 0)
(0.41790974295 -2.15252201543e-07 0)
(0.417909720105 -2.26385694604e-07 0)
(0.417909697943 -2.38282084475e-07 0)
(0.417909676661 -2.50929308338e-07 0)
(0.417909658025 -2.64595036968e-07 0)
(0.417909642175 -2.78822893879e-07 0)
(0.417909628254 -2.93799581809e-07 0)
(0.417909617827 -3.10873547951e-07 0)
(0.417909612451 -3.29482248174e-07 0)
(0.417909613601 -3.48835632029e-07 0)
(0.417909622725 -3.69444210908e-07 0)
(0.417909640614 -3.93040932503e-07 0)
(0.417909669559 -4.22709965852e-07 0)
(0.417909711762 -4.57043212588e-07 0)
(0.417909770998 -4.94951048266e-07 0)
(0.417909852906 -5.37463305413e-07 0)
(0.41790996088 -5.8534374467e-07 0)
(0.417910099229 -6.39338527117e-07 0)
(0.417910276676 -7.00686379958e-07 0)
(0.417910502076 -7.69738739812e-07 0)
(0.417910784303 -8.46381673407e-07 0)
(0.417911133289 -9.29205093405e-07 0)
(0.417911563075 -1.01288853532e-06 0)
(0.417912106677 -1.09358744384e-06 0)
(0.417912797072 -1.18274978972e-06 0)
(0.417913662032 -1.28638288539e-06 0)
(0.417914741402 -1.40979417622e-06 0)
(0.417916085324 -1.55913688452e-06 0)
(0.417917755674 -1.74097499619e-06 0)
(0.417919828073 -1.96298442564e-06 0)
(0.417922398161 -2.23832944826e-06 0)
(0.417925586596 -2.58230320581e-06 0)
(0.417929537793 -3.00892510027e-06 0)
(0.417934428617 -3.53921687272e-06 0)
(0.417940480963 -4.2023253259e-06 0)
(0.417947959466 -5.03728463238e-06 0)
(0.4179571766 -6.11680265744e-06 0)
(0.417968592003 -7.5814031035e-06 0)
(0.417982799636 -9.47283577068e-06 0)
(0.418000443758 -1.18332072784e-05 0)
(0.418022319897 -1.47589588426e-05 0)
(0.418049434625 -1.83795697999e-05 0)
(0.418083033336 -2.28549094197e-05 0)
(0.418124660868 -2.83852639728e-05 0)
(0.41817623348 -3.52217323013e-05 0)
(0.418240128768 -4.36729663217e-05 0)
(0.418319293509 -5.41178860859e-05 0)
(0.418417386392 -6.70305366759e-05 0)
(0.418538953964 -8.30033549339e-05 0)
(0.418689641672 -0.000102770679546 0)
(0.418876473254 -0.000127251054222 0)
(0.419108200719 -0.000157598953592 0)
(0.419395738132 -0.000195265617454 0)
(0.41975272348 -0.00024208505694 0)
(0.420196240071 -0.00030038562344 0)
(0.420747753394 -0.000373142432078 0)
(0.421434326581 -0.000464181595993 0)
(0.4222902271 -0.000578462182934 0)
(0.423359114838 -0.000722494739196 0)
(0.424697024665 -0.00090493550048 0)
(0.426376555123 -0.00113748433359 0)
(0.428492981908 -0.00143634345587 0)
(0.431173518666 -0.00182470315477 0)
(0.434592134754 -0.00233744554235 0)
(0.438994845849 -0.00303121041191 0)
(0.444746524416 -0.00400874689225 0)
(0.452423582999 -0.00548370373806 0)
(0.462991525113 -0.00795926038513 0)
(0.478140355035 -0.0127223504834 0)
(0.501140134389 -0.0232653150424 0)
(0.538330518848 -0.0492934989819 0)
(0.593657293275 -0.114001759523 0)
(1.0338703971 0.239240965067 0)
(1.08314082514 0.293634374093 0)
(1.03294437621 0.239131933783 0)
(0.954408209579 0.174539019806 0)
(0.880112586859 0.121551463285 0)
(0.818677618158 0.0832335927998 0)
(0.771466793734 0.0568258113174 0)
(0.736691573912 0.0388125715627 0)
(0.711672100635 0.0264913177814 0)
(0.693953128609 0.0180235769932 0)
(0.68156820259 0.0121876202411 0)
(0.673018601701 0.00816650364143 0)
(0.667192232718 0.00540556667991 0)
(0.66327774934 0.0035222637853 0)
(0.660690312558 0.00224961133622 0)
(0.659012737193 0.00140002748693 0)
(0.657950526502 0.000841457598242 0)
(0.65729807364 0.000481123963512 0)
(0.656913530314 0.000254194319701 0)
(0.656700336966 0.000115712771494 0)
(0.656593729354 3.47979317762e-05 0)
(0.656551016922 -9.4647455096e-06 0)
(0.656544673342 -3.10083547191e-05 0)
(0.656557370502 -3.90715158308e-05 0)
(0.656578553336 -3.95438687891e-05 0)
(0.656602076669 -3.61167292831e-05 0)
(0.656624605691 -3.10271195955e-05 0)
(0.656644542678 -2.55655984452e-05 0)
(0.656661318114 -2.0421977825e-05 0)
(0.656674933056 -1.5914450065e-05 0)
(0.656685682646 -1.21469530344e-05 0)
(0.656693983504 -9.10477794153e-06 0)
(0.656700271252 -6.71111714276e-06 0)
(0.65670495417 -4.86781078133e-06 0)
(0.656708389348 -3.47535836158e-06 0)
(0.656710872593 -2.44032239896e-06 0)
(0.656712641657 -1.68206150842e-06 0)
(0.656713884041 -1.1353628659e-06 0)
(0.65671474426 -7.48241178944e-07 0)
(0.656715329814 -4.78871224904e-07 0)
(0.656715720095 -2.94227730743e-07 0)
(0.656715974516 -1.7071338397e-07 0)
(0.656716136723 -8.97450867695e-08 0)
(0.656716236552 -3.77625794236e-08 0)
(0.656716294643 -5.16475651957e-09 0)
(0.656716326836 1.35498775712e-08 0)
(0.656716342723 2.38598543679e-08 0)
(0.656716346552 3.03788365675e-08 0)
(0.656716342092 3.47602182601e-08 0)
(0.656716333528 3.77853181614e-08 0)
(0.656716323158 4.01791790385e-08 0)
(0.656716311491 4.23874878406e-08 0)
(0.656716298956 4.4729513952e-08 0)
(0.656716286086 4.75171050217e-08 0)
(0.656716272929 5.09055962746e-08 0)
(0.656716260018 5.47972656941e-08 0)
(0.656716247769 5.92268092954e-08 0)
(0.656716235707 6.44676555337e-08 0)
(0.656716223525 6.99947513908e-08 0)
(0.656716210766 7.53136149912e-08 0)
(0.656716196861 8.09060681803e-08 0)
(0.656716182109 8.69892967942e-08 0)
(0.656716167157 9.32196329064e-08 0)
(0.656716151817 9.95056074108e-08 0)
(0.656716135287 1.06381618987e-07 0)
(0.656716117572 1.14109655246e-07 0)
(0.656716099374 1.22532519106e-07 0)
(0.656716080761 1.31524421941e-07 0)
(0.656716061306 1.41012757911e-07 0)
(0.656716040965 1.50905951705e-07 0)
(0.656716019737 1.61376152489e-07 0)
(0.656715997442 1.7274511449e-07 0)
(0.656715974059 1.85117457575e-07 0)
(0.656715950147 1.98250063166e-07 0)
(0.656715926236 2.12081046297e-07 0)
(0.65671590177 2.26920796784e-07 0)
(0.656715876059 2.42421090119e-07 0)
(0.656715848981 2.58068451058e-07 0)
(0.656715820812 2.7425497155e-07 0)
(0.656715792104 2.91445514089e-07 0)
(0.656715762867 3.09706152474e-07 0)
(0.656715732953 3.28907606558e-07 0)
(0.656715702458 3.4903664812e-07 0)
(0.656715671336 3.70366699424e-07 0)
(0.656715640157 3.92864320686e-07 0)
(0.656715609421 4.16363264535e-07 0)
(0.656715578723 4.40874570272e-07 0)
(0.656715548091 4.66307895861e-07 0)
(0.656715517859 4.92902745826e-07 0)
(0.656715488358 5.20547713996e-07 0)
(0.656715459916 5.48858617257e-07 0)
(0.656715432858 5.78552036876e-07 0)
(0.656715408937 6.09470386258e-07 0)
(0.656715388741 6.40853748336e-07 0)
(0.656715371302 6.73057332814e-07 0)
(0.656715358482 7.05872985081e-07 0)
(0.656715352735 7.39531822409e-07 0)
(0.65671535533 7.74437901565e-07 0)
(0.656715366847 8.10274941626e-07 0)
(0.656715387193 8.47242499274e-07 0)
(0.656715422079 8.85775047071e-07 0)
(0.656715478181 9.24428885078e-07 0)
(0.656715559064 9.62761790395e-07 0)
(0.656715670504 9.97799541989e-07 0)
(0.656715818862 1.02736754552e-06 0)
(0.656716011625 1.05094438318e-06 0)
(0.656716260653 1.06624110456e-06 0)
(0.65671657981 1.06969505344e-06 0)
(0.656716986585 1.05855378919e-06 0)
(0.656717505844 1.03078538783e-06 0)
(0.656718164914 9.88025786007e-07 0)
(0.656718984854 9.30683352925e-07 0)
(0.656719996274 8.42462581674e-07 0)
(0.656721251263 7.1093350549e-07 0)
(0.656722810848 5.22139082264e-07 0)
(0.656724748004 2.58868270738e-07 0)
(0.656727152423 -9.96878661105e-08 0)
(0.656730131917 -5.78207052643e-07 0)
(0.656733821526 -1.207823192e-06 0)
(0.656738393844 -2.02920701456e-06 0)
(0.656744057495 -3.09224634358e-06 0)
(0.656751068401 -4.45613793286e-06 0)
(0.65675974923 -6.19547956065e-06 0)
(0.656770500883 -8.40539963644e-06 0)
(0.656783810747 -1.11922022982e-05 0)
(0.656800283736 -1.46743935275e-05 0)
(0.656820678858 -1.90571129403e-05 0)
(0.656845928305 -2.45875186687e-05 0)
(0.656877189628 -3.15501616039e-05 0)
(0.656915903511 -4.03013581992e-05 0)
(0.656963850362 -5.12814542931e-05 0)
(0.657023231714 -6.50373526786e-05 0)
(0.657096778514 -8.2246842213e-05 0)
(0.657187880318 -0.000103751910462 0)
(0.657300737267 -0.000130595765555 0)
(0.657440559264 -0.000164073583879 0)
(0.657613819063 -0.000205800936624 0)
(0.657828555398 -0.000257790010687 0)
(0.658094762318 -0.000322551878264 0)
(0.658424883177 -0.000403235103026 0)
(0.658834425175 -0.000503795518482 0)
(0.659342747232 -0.000629220473736 0)
(0.659974068451 -0.000785829114819 0)
(0.660758770419 -0.000981678810939 0)
(0.661735088923 -0.00122712277592 0)
(0.662951331191 -0.00153557141881 0)
(0.664468863117 -0.00192459937809 0)
(0.666366171539 -0.00241758293174 0)
(0.668744496081 -0.00304617459668 0)
(0.671735911747 -0.0038543035448 0)
(0.675515305544 -0.00490499300495 0)
(0.680318770474 -0.00629275192369 0)
(0.686472856177 -0.00816787951448 0)
(0.694442564177 -0.0107872955803 0)
(0.704910883988 -0.014626555715 0)
(0.7188958687 -0.02063140665 0)
(0.737867192509 -0.0307610454895 0)
(0.763815698986 -0.0490893320008 0)
(0.798783323019 -0.0838518135826 0)
(0.839030938349 -0.148727257628 0)
(1.03384128907 0.17130695285 0)
(1.10231585427 0.275556743144 0)
(1.11663621004 0.266312371503 0)
(1.09207924963 0.219892602876 0)
(1.05195420075 0.168210315855 0)
(1.01022221652 0.123615335181 0)
(0.973507719053 0.088885059043 0)
(0.943885948497 0.0630494608498 0)
(0.921162801442 0.0442607975613 0)
(0.904299825313 0.0307744353272 0)
(0.892086139145 0.0211830163115 0)
(0.883411239288 0.0144172995427 0)
(0.877355069149 0.00968544338545 0)
(0.873196221544 0.00640759000192 0)
(0.870388070849 0.00416172521224 0)
(0.868526266648 0.00264232173902 0)
(0.867317307083 0.00162947860564 0)
(0.866551593597 0.000966026398087 0)
(0.866081668324 0.000540572220426 0)
(0.865805309767 0.000274926759753 0)
(0.865652734893 0.000114791548309 0)
(0.865577103622 2.29550441089e-05 0)
(0.8655474909 -2.57264588433e-05 0)
(0.865543952666 -4.80462925826e-05 0)
(0.865553999508 -5.49257625542e-05 0)
(0.86557000251 -5.3327204718e-05 0)
(0.865587539221 -4.75740875526e-05 0)
(0.865604227889 -4.02464259508e-05 0)
(0.865618941367 -3.28001939348e-05 0)
(0.86563128795 -2.59828317149e-05 0)
(0.865641288141 -2.01152126744e-05 0)
(0.865649172185 -1.52743996662e-05 0)
(0.865655251017 -1.14032411942e-05 0)
(0.86565984903 -8.38256247358e-06 0)
(0.865663269776 -6.07408584772e-06 0)
(0.865665776154 -4.34125614641e-06 0)
(0.865667585111 -3.06082848894e-06 0)
(0.865668871413 -2.1283366976e-06 0)
(0.86566977315 -1.45988477214e-06 0)
(0.86567039597 -9.88113421406e-07 0)
(0.865670818147 -6.59329829287e-07 0)
(0.865671098075 -4.33410826108e-07 0)
(0.86567127988 -2.812197786e-07 0)
(0.865671394289 -1.81189315843e-07 0)
(0.865671462176 -1.16802163614e-07 0)
(0.86567149977 -7.69720399409e-08 0)
(0.86567151821 -5.43185339883e-08 0)
(0.865671523971 -4.25031571831e-08 0)
(0.865671521631 -3.63952254977e-08 0)
(0.865671514778 -3.37781091074e-08 0)
(0.865671505089 -3.39511639656e-08 0)
(0.865671493095 -3.6589255326e-08 0)
(0.865671479648 -4.06953959646e-08 0)
(0.865671465409 -4.57065559014e-08 0)
(0.865671450369 -5.10561755469e-08 0)
(0.865671434807 -5.59812879691e-08 0)
(0.865671419182 -6.06562979711e-08 0)
(0.865671403061 -6.52719791487e-08 0)
(0.865671386031 -7.02131200072e-08 0)
(0.865671368286 -7.59065877616e-08 0)
(0.865671349779 -8.18811532676e-08 0)
(0.865671330337 -8.77500575974e-08 0)
(0.865671310202 -9.38998885985e-08 0)
(0.865671289573 -1.00813158313e-07 0)
(0.865671268055 -1.0816912005e-07 0)
(0.865671245314 -1.15558085042e-07 0)
(0.86567122149 -1.23090669957e-07 0)
(0.865671196589 -1.30999486721e-07 0)
(0.865671170501 -1.39337048081e-07 0)
(0.86567114335 -1.48124005783e-07 0)
(0.86567111513 -1.57352925589e-07 0)
(0.865671085632 -1.66833198718e-07 0)
(0.865671054721 -1.76230943731e-07 0)
(0.86567102283 -1.8558983754e-07 0)
(0.8656709906 -1.95482292252e-07 0)
(0.865670957465 -2.06264434063e-07 0)
(0.865670922551 -2.18042083326e-07 0)
(0.865670886026 -2.306812117e-07 0)
(0.865670848486 -2.43859990858e-07 0)
(0.865670810295 -2.57641809196e-07 0)
(0.865670771246 -2.71935138684e-07 0)
(0.865670731185 -2.86720454484e-07 0)
(0.865670690375 -3.02503038183e-07 0)
(0.865670648812 -3.19207179338e-07 0)
(0.865670606854 -3.36463211834e-07 0)
(0.86567056499 -3.54831179871e-07 0)
(0.865670523004 -3.74806384984e-07 0)
(0.865670481147 -3.95873754507e-07 0)
(0.865670439762 -4.17876504007e-07 0)
(0.865670399005 -4.41857455495e-07 0)
(0.865670359854 -4.68238469906e-07 0)
(0.865670322967 -4.96161315566e-07 0)
(0.865670289183 -5.26348816822e-07 0)
(0.865670259369 -5.60662108756e-07 0)
(0.865670233517 -5.9835759345e-07 0)
(0.865670213651 -6.38821891032e-07 0)
(0.865670202563 -6.82988822779e-07 0)
(0.865670202177 -7.31772081787e-07 0)
(0.865670214871 -7.86440347114e-07 0)
(0.865670243402 -8.46864416077e-07 0)
(0.865670290541 -9.12084843946e-07 0)
(0.865670359802 -9.84596315047e-07 0)
(0.865670456238 -1.06586122796e-06 0)
(0.865670587139 -1.1594305902e-06 0)
(0.865670761823 -1.26857606326e-06 0)
(0.86567098943 -1.39522550567e-06 0)
(0.865671282083 -1.54321384843e-06 0)
(0.865671655325 -1.71844738691e-06 0)
(0.86567212798 -1.92806173413e-06 0)
(0.865672724305 -2.18225993858e-06 0)
(0.86567347364 -2.49594601332e-06 0)
(0.865674411702 -2.88698416472e-06 0)
(0.865675583189 -3.3657436589e-06 0)
(0.86567704352 -3.95013202933e-06 0)
(0.865678860394 -4.66481134129e-06 0)
(0.865681117804 -5.54030400426e-06 0)
(0.865683920399 -6.61633538423e-06 0)
(0.865687395792 -7.94108611648e-06 0)
(0.865691701696 -9.5705649966e-06 0)
(0.865697036925 -1.15782736099e-05 0)
(0.865703646687 -1.40566692214e-05 0)
(0.865711832179 -1.71154071936e-05 0)
(0.865721967429 -2.08940681394e-05 0)
(0.865734519972 -2.55693947009e-05 0)
(0.865750064094 -3.13637348447e-05 0)
(0.865769307076 -3.85447489266e-05 0)
(0.865793131125 -4.74429900393e-05 0)
(0.865822625583 -5.84633501595e-05 0)
(0.865859139551 -7.21027912289e-05 0)
(0.865904348546 -8.89844928981e-05 0)
(0.865960325971 -0.000109888655542 0)
(0.86602963933 -0.000135783796253 0)
(0.866115470777 -0.000167870022612 0)
(0.866221767549 -0.000207640983163 0)
(0.866353423068 -0.000256953471715 0)
(0.866516503059 -0.000318114587147 0)
(0.866718537292 -0.000394000431285 0)
(0.866968874517 -0.000488197708575 0)
(0.867279126843 -0.000605183403191 0)
(0.867663735451 -0.00075056702922 0)
(0.868140676852 -0.000931394407336 0)
(0.868732356549 -0.00115653945694 0)
(0.86946674534 -0.00143722914806 0)
(0.870378834617 -0.0017877469157 0)
(0.871512516628 -0.00222639571385 0)
(0.872923016636 -0.00277681477396 0)
(0.874680100339 -0.00346985165093 0)
(0.876872368376 -0.00434632388539 0)
(0.879613050749 -0.00546115162776 0)
(0.883047987494 -0.00688985476947 0)
(0.887366857122 -0.00873928378653 0)
(0.892819094843 -0.0111661527493 0)
(0.899736351014 -0.0144107430966 0)
(0.908563038954 -0.0188605928859 0)
(0.919892896893 -0.0251736486997 0)
(0.934490447802 -0.0345151321477 0)
(0.953214102231 -0.0489792940772 0)
(0.976679204365 -0.0722089067751 0)
(1.00423006576 -0.109963675713 0)
(1.03009590216 -0.168882046859 0)
(1.02388346408 0.119321989091 0)
(1.0887543671 0.23151442298 0)
(1.13660483392 0.252868939659 0)
(1.15406273076 0.228905047132 0)
(1.15000112735 0.188337385008 0)
(1.13537623958 0.146577290453 0)
(1.11757777728 0.11016481986 0)
(1.10059199779 0.0808376055534 0)
(1.08612241336 0.0582501997786 0)
(1.0745876198 0.0413417859397 0)
(1.06578679775 0.0289362841984 0)
(1.05928156846 0.0199770211706 0)
(1.05459133077 0.0135949303859 0)
(1.0512802712 0.00910742916072 0)
(1.04898736401 0.00599313517642 0)
(1.04742905618 0.00386144152802 0)
(1.04639046185 0.00242413717577 0)
(1.04571299259 0.00147134956553 0)
(1.04528206267 0.000852135740784 0)
(1.04501638044 0.000459262529104 0)
(1.04485925714 0.000217489410806 0)
(1.04477182868 7.47174686576e-05 0)
(1.04472784844 -4.6465416816e-06 0)
(1.04470998246 -4.44457320727e-05 0)
(1.04470705542 -6.05350720058e-05 0)
(1.04471197773 -6.30922908202e-05 0)
(1.04472041772 -5.85431501598e-05 0)
(1.04472985775 -5.08098515343e-05 0)
(1.04473893215 -4.21789083921e-05 0)
(1.04474698004 -3.38924383712e-05 0)
(1.04475375936 -2.65472246328e-05 0)
(1.044759267 -2.03609286179e-05 0)
(1.0447636186 -1.53367782279e-05 0)
(1.04476697892 -1.13674369926e-05 0)
(1.04476952468 -8.30095503468e-06 0)
(1.04477142133 -5.97716623755e-06 0)
(1.04477281212 -4.24532263606e-06 0)
(1.04477381576 -2.97376890795e-06 0)
(1.04477452919 -2.05363133908e-06 0)
(1.04477502945 -1.39762148898e-06 0)
(1.04477537426 -9.36059686389e-07 0)
(1.04477560674 -6.15233628413e-07 0)
(1.04477576019 -3.95737528223e-07 0)
(1.04477585892 -2.48504259887e-07 0)
(1.04477591948 -1.50763164212e-07 0)
(1.04477595443 -8.64430492364e-08 0)
(1.04477597296 -4.51724119924e-08 0)
(1.04477598027 -1.92779877505e-08 0)
(1.04477597902 -3.54737903447e-09 0)
(1.04477597156 5.17332448852e-09 0)
(1.04477595994 9.02219945304e-09 0)
(1.0447759458 1.01344819912e-08 0)
(1.04477593037 1.00396793574e-08 0)
(1.04477591424 9.52357589551e-09 0)
(1.04477589793 9.02469992234e-09 0)
(1.04477588156 9.01624044894e-09 0)
(1.04477586488 9.29565417443e-09 0)
(1.04477584736 9.6776691375e-09 0)
(1.04477582862 1.02043281138e-08 0)
(1.04477580903 1.06780608578e-08 0)
(1.04477578867 1.11667946018e-08 0)
(1.04477576714 1.2060661995e-08 0)
(1.04477574442 1.33722376758e-08 0)
(1.04477572085 1.46310632253e-08 0)
(1.0447756963 1.58148354824e-08 0)
(1.04477567036 1.72487610381e-08 0)
(1.0447756432 1.88205283176e-08 0)
(1.04477561499 2.04704853344e-08 0)
(1.04477558548 2.2464242531e-08 0)
(1.04477555465 2.49241234846e-08 0)
(1.04477552263 2.7650714302e-08 0)
(1.04477548949 3.04450148319e-08 0)
(1.04477545504 3.35129215695e-08 0)
(1.04477541915 3.71351478142e-08 0)
(1.04477538207 4.09187545539e-08 0)
(1.04477534358 4.44451368764e-08 0)
(1.0447753034 4.78013881537e-08 0)
(1.04477526181 5.1294072382e-08 0)
(1.04477521893 5.52122705873e-08 0)
(1.04477517508 5.93821299584e-08 0)
(1.04477513035 6.37676883646e-08 0)
(1.04477508418 6.86290327262e-08 0)
(1.04477503672 7.3750112501e-08 0)
(1.04477498864 7.89722100331e-08 0)
(1.04477494 8.4523194887e-08 0)
(1.04477489063 9.02015799172e-08 0)
(1.04477484105 9.55476222258e-08 0)
(1.0447747919 1.00571183048e-07 0)
(1.04477474239 1.05403480997e-07 0)
(1.04477469253 1.09695893225e-07 0)
(1.04477464439 1.12907721033e-07 0)
(1.04477459828 1.15175276061e-07 0)
(1.04477455391 1.16276187041e-07 0)
(1.04477451325 1.14631891233e-07 0)
(1.0447744776 1.10453461242e-07 0)
(1.04477444783 1.04429405844e-07 0)
(1.04477442564 9.51674324026e-08 0)
(1.04477441265 8.07346731611e-08 0)
(1.0447744111 5.82932495325e-08 0)
(1.0447744235 2.59210951909e-08 0)
(1.04477445434 -1.9276770874e-08 0)
(1.04477450991 -7.9666274719e-08 0)
(1.04477459471 -1.57320506149e-07 0)
(1.04477471507 -2.56273300878e-07 0)
(1.04477488119 -3.81867608464e-07 0)
(1.04477510329 -5.39571766979e-07 0)
(1.04477539386 -7.35973615497e-07 0)
(1.04477576881 -9.79131812457e-07 0)
(1.04477624786 -1.27901384333e-06 0)
(1.0447768568 -1.64865705188e-06 0)
(1.04477762578 -2.1032129711e-06 0)
(1.04477859055 -2.66173369879e-06 0)
(1.04477979636 -3.34916856087e-06 0)
(1.04478130064 -4.19747881257e-06 0)
(1.04478317496 -5.24446275376e-06 0)
(1.04478550621 -6.53546099393e-06 0)
(1.04478840207 -8.129054071e-06 0)
(1.04479199695 -1.00972103137e-05 0)
(1.04479645492 -1.25256198961e-05 0)
(1.0448019805 -1.55229788176e-05 0)
(1.04480882955 -1.92234997011e-05 0)
(1.04481731541 -2.379435917e-05 0)
(1.04482782578 -2.94413674142e-05 0)
(1.04484084415 -3.6423541565e-05 0)
(1.04485696717 -4.50648402499e-05 0)
(1.04487692993 -5.57611523956e-05 0)
(1.04490164424 -6.90027429313e-05 0)
(1.04493224138 -8.53964743902e-05 0)
(1.04497012186 -0.000105688666565 0)
(1.04501701948 -0.000130806455082 0)
(1.04507508167 -0.000161902149599 0)
(1.04514697008 -0.000200406467402 0)
(1.04523598134 -0.000248093006099 0)
(1.04534620096 -0.000307163849093 0)
(1.04548269281 -0.000380356377783 0)
(1.04565172992 -0.000471073176813 0)
(1.04586109245 -0.000583550675596 0)
(1.04612043322 -0.000723069484237 0)
(1.04644172614 -0.000896216534238 0)
(1.04683983673 -0.00111123119611 0)
(1.04733323774 -0.00137844890996 0)
(1.0479449005 -0.00171086717549 0)
(1.04870341505 -0.00212489349582 0)
(1.04964440768 -0.00264133763053 0)
(1.05081234931 -0.00328675875258 0)
(1.0522628539 -0.00409530388754 0)