/*--------------------------------*- C++ -*----------------------------------*\
| =========                 |                                                 |
| \\      /  F ield         | OpenFOAM: The Open Source CFD Toolbox           |
|  \\    /   O peration     | Version:  2106                                  |
|   \\  /    A nd           | Website:  www.openfoam.com                      |
|    \\/     M anipulation  |                                                 |
\*---------------------------------------------------------------------------*/
FoamFile
{
    version     2.0;
    format      ascii;
    arch        "LSB;label=32;scalar=64";
    class       volScalarField;
    location    "0.19";
    object      p;
}
// * * * * * * * * * * * * * * * * * * * * * * * * * * * * * * * * * * * * * //

dimensions      [0 2 -2 0 0 0 0];

internalField   nonuniform List<scalar> 
11200
(
149.745644771
146.817042619
145.703190285
145.17585671
144.808523826
144.513741471
144.252092914
144.003548939
143.759024323
143.513949486
143.265627394
143.0123035
142.752745952
142.486019315
142.211356841
141.928085193
141.635578588
141.333231027
141.020443655
140.696628124
140.361160783
140.013392567
139.652665182
139.278310894
138.889644299
138.485964295
138.066554884
137.630685822
137.177613331
136.706580708
136.216818894
135.707546982
135.177972384
134.627290981
134.054687863
133.459338498
132.840408598
132.197054349
131.52842287
130.833652661
130.111873948
129.362208906
128.583771857
127.775669326
126.936999942
126.06685415
125.164313683
124.228450759
123.258326943
122.252991594
121.21147979
120.132809577
119.015978363
117.859958213
116.663689733
115.426074232
114.145963703
112.822148209
111.45333996
110.038153339
108.575079846
107.06245656
105.498425854
103.880886719
102.207428972
100.475247376
98.6810315163
96.8208214812
94.8898133559
92.8820927089
90.790270832
88.6049887793
86.3140487254
83.9012654587
81.3445554543
78.6122632267
75.656796721
72.4056004575
68.7050451034
63.9420085321
147.952603049
146.594428522
145.803455553
145.303438882
144.912447465
144.588560914
144.304034922
144.039426988
143.78393265
143.53140358
143.278012583
143.021246216
142.759367591
142.491100385
142.215444279
141.931564523
141.638723738
141.336239068
141.023451994
140.699700688
140.364334791
140.016678846
139.656089204
139.281897845
138.893408945
138.48991568
138.070699218
137.635027488
137.18215542
136.711325332
136.221767161
135.712698417
135.183324689
134.63284548
134.060447832
133.465307229
132.846589108
132.203449601
131.535035839
130.8404864
130.118931658
129.369494014
128.59128812
127.783420944
126.9449917
126.075091576
125.172803254
124.237200147
123.26734532
122.262290019
121.221071681
120.142711304
119.026209988
117.870544394
116.674660848
115.437467746
114.15782587
112.834536155
111.466324303
110.051821563
108.589540885
107.077846948
105.514915812
103.898684367
102.226784903
100.49647602
98.7045424009
96.8471468723
94.9196502781
92.9163681795
90.8302320216
88.6522857514
86.3709822236
83.9711860956
81.4325026951
78.7264242926
75.8121522976
72.6318476352
69.0827080104
64.9697882748
146.9574128
146.303211941
145.750854731
145.313234656
144.941607714
144.619502012
144.330397345
144.060157831
143.799688493
143.543200544
143.286809118
143.027832662
142.764359289
142.494962172
142.218520349
141.934105268
141.640907316
141.338187871
141.025248583
140.701412553
140.366017632
140.018424242
139.657888439
139.28375668
138.895337045
138.491920146
138.072784845
137.637197979
137.184414173
136.713675971
136.224214216
135.715248744
135.185988396
134.635625537
134.063342117
133.468316053
132.84971391
132.206692313
131.538399248
130.843974131
130.122548196
129.373244787
128.595179663
127.787461111
126.949189918
126.079459184
125.177353908
124.241950323
123.272314957
122.26750334
121.226558171
120.148506913
119.032358599
117.877099613
116.681688165
115.445047155
114.166055083
112.84353469
111.476238612
110.06283128
108.601865724
107.091754906
105.530734948
103.916835712
102.247820078
100.521095021
98.7336187355
96.8817927292
94.9613030635
92.9669113963
90.89216833
88.7290112537
86.4673454677
84.0942550236
81.5930182677
78.9417730509
76.1125409062
73.0736964839
69.7892481702
66.2361451099
146.407651521
146.044269726
145.644370208
145.275377371
144.937757322
144.629650545
144.3442819
144.073571721
143.811192675
143.552517872
143.294129403
143.033495877
142.768717621
142.498327513
142.22114959
141.936201405
141.64262666
141.339649139
141.026541661
140.702604253
140.36714594
140.019476561
139.658954968
139.284858134
138.896475505
138.49309956
138.074008905
137.638469137
137.185733751
136.715044281
136.225630397
135.716710101
135.187490571
134.637169928
134.06493774
133.469968102
132.851428628
132.208476658
131.540259216
130.845916191
130.124579627
129.37537389
128.597416194
127.789816696
126.951678515
126.08209764
125.180162617
124.244954032
123.275543725
122.270993726
121.230354541
120.152663214
119.03694053
117.882187254
116.687379245
115.451461219
114.173338737
112.851867824
111.485842017
110.073975948
108.614887667
107.107080603
105.5488927
103.938465384
102.273696537
100.552187231
98.7711622848
96.9273698706
95.0169571652
93.0353144965
90.9768850648
88.8349395787
86.6012464558
84.2657635489
81.8164009771
79.239058378
76.5189861304
73.6464701594
70.6251008564
67.4920458771
146.073603432
145.841807495
145.540393605
145.229414122
144.924571192
144.632543375
144.353562401
144.084430025
143.821462684
143.561370328
143.301392674
143.039292459
142.773277327
142.501898354
142.223958967
141.938442275
141.644455674
141.341189937
141.027889708
140.703832335
140.368312911
140.020635128
139.660102703
139.286005158
138.897645501
138.49430758
138.075264758
137.639780211
137.187106087
136.716483358
136.22714178
135.71830004
135.189165839
134.638935631
134.066795219
133.471920566
132.853476749
132.210621439
131.542504929
130.848267555
130.127043853
129.377960523
128.600137236
127.792686942
126.95471601
126.08532427
125.183604855
124.248643872
123.279519734
122.275303065
121.235054763
120.157824514
119.04264853
117.888546421
116.694516992
115.45953255
114.182531096
112.862409126
111.49800979
110.088112647
108.63141607
107.1265071
105.571848991
103.965747062
102.30630765
100.591389008
98.8185438047
96.9849502767
95.0873290672
93.1218461237
91.0840048795
88.9685408845
86.769345849
84.4795010072
82.091585089
79.5985876818
76.9963102629
74.2891921386
71.4985918941
68.6752077503
145.870210747
145.694308249
145.453112072
145.185784002
144.908593781
144.631951242
144.360256304
144.093748445
143.83097616
143.569959468
143.308663592
143.045221643
142.778008326
142.505632969
142.226902805
141.940780222
141.646343214
141.342752377
141.029224947
140.705015091
140.369399393
140.021665992
139.661105548
139.287008436
138.898664228
138.495352335
138.076343456
137.64089871
137.188268739
136.717693264
136.228401053
135.719609966
135.190527148
134.640349181
134.068262511
133.473444126
132.855062192
132.212276146
131.544236997
130.850088894
130.128967267
129.379999561
128.60230756
127.795006768
126.957206946
126.088012456
125.186522044
124.251828736
123.283019711
122.279175115
121.239368055
120.162663164
119.048114816
117.894764715
116.701638694
115.467742801
114.192059061
112.87353608
111.511082327
110.103551624
108.649725978
107.148312158
105.597926763
103.997053905
102.344026562
100.636995067
98.8738887996
97.0523743176
95.1698118941
93.2232159264
91.2092305273
89.1241443098
86.9639914371
84.7248311463
82.4033789508
79.998283612
77.5126135071
74.9585246878
72.3629695739
69.7730560502
145.747093716
145.591485681
145.385182569
145.148618405
144.893140374
144.629857239
144.365239534
144.101725597
143.839586238
143.577993715
143.315614132
143.050971146
142.782635157
142.509297787
142.229787001
141.943055318
141.648157857
141.344228793
141.030460088
140.706083807
140.370358112
140.022556594
139.661960476
139.287852309
138.899513364
138.49621806
138.07723423
137.641820798
137.189226884
136.71869135
136.229442579
135.720698419
135.191666275
134.641543472
134.069517669
133.474766769
132.856459369
132.213755705
131.545807699
130.85175873
130.130744138
129.381895187
128.60433806
127.797192587
126.959573335
126.090589906
125.189347387
124.254946531
123.286483808
122.283051131
121.243735587
120.167619205
119.053777614
117.901278413
116.709178845
115.476522389
114.202334126
112.885617954
111.525351312
110.120471039
108.669876931
107.172409124
105.626838417
104.03185236
102.386039381
100.687870541
98.9356818133
97.1276595823
95.2618343346
93.3360918337
91.3482182011
89.2960077183
87.1774819899
84.991309608
82.7375608981
80.4189956967
78.0431664453
75.6256774164
73.1934128795
70.7857441321
145.67301375
145.523003266
145.336246493
145.120139328
144.880430787
144.627606339
144.368965271
144.108222358
143.846850203
143.584922496
143.321698504
143.056054959
142.78675152
142.512567112
142.232358365
141.945075536
141.64975719
141.345516013
141.031522451
140.706989314
140.371158623
140.023291048
139.662657689
139.288533063
138.900193566
138.496908611
138.077943256
137.642554368
137.189989707
136.719487333
136.230275245
135.721571231
135.19258289
134.642507799
134.070533788
133.475839243
132.857593599
132.214957558
131.54708401
130.853119259
130.132204864
129.383474229
128.606054238
127.799068214
126.9616354
126.092871222
125.19188782
124.257794483
123.28969803
122.286703252
121.247913231
120.172428775
119.059348333
117.9077673
116.71677688
115.485462553
114.212902055
112.898162357
111.540293913
110.1383305
108.691279782
107.198121776
105.65780212
104.069224235
102.43124409
100.742666645
99.0022467606
97.2086986737
95.360721144
93.4570494607
91.4965518862
89.4783986459
87.4023456045
85.269207029
83.0815989935
80.845058785
78.5696285567
76.2719219203
73.9766304114
71.715778343
145.63073705
145.481289048
145.304872476
145.101132771
144.871598019
144.625886909
144.371523479
144.112880907
143.852169205
143.59006943
143.326265801
143.059900608
142.78988249
142.515062968
142.234325446
141.946621847
141.650980204
141.346498013
141.032329939
140.707674409
140.371761258
140.023841271
139.66317783
139.289040417
138.900697939
138.497419805
138.078467952
137.643097497
137.190555226
136.720078632
136.230895463
135.722223517
135.193270612
134.643234723
134.071304247
133.476658392
132.858467689
132.215894617
131.548094477
130.854215689
130.133398577
129.384780203
128.607492495
127.800663147
126.963416428
126.094873925
125.194155304
124.260379055
123.292663247
122.290126258
121.251887473
120.177067908
119.064790638
117.914180957
116.724366293
115.494475827
114.223639816
112.910988787
111.555654798
110.156768453
108.713458146
107.224850195
105.690068892
104.108237809
102.478484307
100.799948453
99.0718000933
97.2932679192
95.4636891296
93.58259094
91.6498191881
89.6657410928
87.6315541081
85.549751925
83.4247842661
81.2639516002
79.0785116029
76.8848866744
74.7051347785
72.5654526176
145.61146024
145.461582082
145.289618222
145.0916814
144.867118155
144.624996532
144.372858148
144.115345243
143.855013396
143.592846802
143.328750304
143.062008309
142.791611389
142.516452234
142.235430333
141.947499616
141.651683114
141.347070495
141.032808092
140.708086646
140.372129438
140.024181915
139.663503205
139.289359469
138.901018259
138.497746237
138.078804385
137.643447098
137.190920758
136.720462691
136.231300672
135.72265271
135.193727005
134.643722083
134.071827089
133.477222188
132.859079087
132.216561596
131.548826166
130.85502261
130.134295696
129.385784874
128.608625363
127.801949144
126.964885789
126.096563337
125.196109271
124.262651583
123.29531992
122.293246784
121.255568768
120.181427764
119.069972139
117.920357856
116.731749581
115.503321853
114.234260362
112.923762917
111.571041577
110.175328121
108.735869648
107.251939513
105.722841616
104.147918637
102.526565287
100.858247839
99.1425341496
97.3791372781
95.567982543
93.7093067949
91.8038034362
89.8528413697
87.8587655215
85.8253311238
83.7582490697
81.665870126
79.5599262189
77.4561834844
75.3743468756
73.3363596654
145.611462431
145.461597755
145.289644871
145.091717325
144.867162597
144.625048676
144.372917069
144.11541011
143.855083501
143.592921553
143.328829217
143.062090997
142.791697557
142.516541669
142.235522902
141.94759526
141.651781839
141.347172379
141.032913277
140.708195344
140.372241925
140.024298542
139.663624407
139.28948578
138.901150372
138.497884865
138.078950414
137.643601618
137.191085052
136.720638347
136.23148967
135.722857476
135.193950495
134.643967898
134.072099593
133.477526663
132.859421916
132.216950533
131.549270811
130.855534936
130.134889787
129.386477826
128.609438008
127.802906777
126.966019075
126.097909452
125.197713309
124.264568281
123.297615755
122.296002524
121.258882543
120.185418783
119.074785166
117.926168614
116.738771269
115.511812986
114.244534284
112.936199701
111.586102426
110.193570641
108.757973891
107.278728983
105.755315031
104.187286953
102.574295312
100.916112318
99.2126702992
97.4641197361
95.670907229
93.8338854667
91.9545042062
90.0350159419
88.0785593896
86.0897642141
84.0751486448
82.0436193099
80.0069702995
77.9802307694
75.981317971
74.0293422102
145.630743692
145.481336457
145.30495304
145.101241308
144.871732228
144.626044116
144.371700886
144.113076042
143.852379959
143.590294036
143.326502814
143.060148879
142.790141144
142.515331375
142.234603209
141.946908788
141.651276356
141.346803612
141.032645416
140.708000391
140.372098575
140.024190963
139.663541164
139.289419008
138.901093768
138.497835005
138.078905132
137.643559837
137.191046609
136.720603838
136.231460361
135.722835281
135.193938001
134.643968422
134.072117289
133.477566666
132.859490534
132.217055486
131.549421505
130.855742802
130.13516873
129.386844769
128.609913522
127.803515812
126.966791881
126.09888271
125.198931521
124.266085467
123.299497519
122.298328556
121.261749638
120.188944469
119.079112071
117.931469724
116.745256294
115.519736094
114.25420351
112.94798837
111.600461422
110.21104598
108.779227948
107.304562396
105.786692454
104.225370282
102.620482079
100.972085884
99.2804816251
97.5462314883
95.7702274491
93.9538468142
92.0990463188
90.2085597579
88.2863409685
86.3376455207
84.3694696727
82.3909722244
80.4138339469
78.4524702188
76.5236122991
74.6447185925
145.673025068
145.523083571
145.336382658
145.120322346
144.880656619
144.627870349
144.36926271
144.108549074
143.84720268
143.585297802
143.322094251
143.056469258
142.787182932
142.513014612
142.232821307
141.945553641
141.650250525
141.346024981
141.032047774
140.707532038
140.371720144
140.023873094
139.663262274
139.289162931
138.900851606
138.497598499
138.078669327
137.643321853
137.190805001
136.720358287
136.231211473
135.722584475
135.193687467
134.643721136
134.07187708
133.477338347
132.859280071
132.216870222
131.549270425
130.855636875
130.135121327
129.386872146
128.610035427
127.803756218
126.967179872
126.099453571
125.199728074
124.267159704
123.300912585
122.300161148
121.264092894
120.191911432
119.082839841
117.936124458
116.751039234
115.526890834
114.263024756
112.958832795
111.613761457
110.227321209
108.799104066
107.328797104
105.816202017
104.26126066
102.664086865
101.024991017
99.3445167147
97.6235463517
95.8633961633
94.0658759032
92.2334380376
90.3693461132
88.4779078401
86.5647275682
84.6370270151
82.7039818256
80.7770384169
78.8701518925
76.9994673724
75.1819170131
145.747110141
145.591601087
145.385377464
145.14887935
144.893461266
144.63023127
144.365659879
144.102186377
143.84008253
143.578521443
143.316169999
143.051552557
142.783240144
142.509924948
142.230435463
141.943724703
141.648848259
141.344940757
141.031194586
140.706842243
140.371142367
140.023369079
139.662804091
139.288730615
138.900430402
138.497178818
138.078244662
137.642888075
137.190359762
136.719900595
136.23074141
135.722103024
135.193196425
134.643223094
134.071375466
133.476837519
132.85878547
132.216388597
131.548810107
130.855208101
130.134736605
129.386546689
128.609787711
127.803608659
126.967159664
126.099593719
125.200068653
124.267749381
123.301810482
122.301439082
121.265838059
120.194229614
119.08585928
117.94000049
116.755959867
115.533083478
114.270764283
112.968451235
111.625660141
110.241986325
108.817118815
107.350862296
105.843156168
104.294100296
102.703989028
101.073365858
99.4030632554
97.6942615479
95.9485711969
94.1681346653
92.3557501206
90.5150177351
88.6505184717
86.7680272912
84.8747747971
82.9797465569
81.0940252513
79.2311861471
77.4072498934
75.6396417043
145.870233026
145.694462538
145.453370961
145.186128706
144.909015646
144.632440971
144.360804853
144.094348175
143.83162076
143.570643768
143.309383447
143.045973806
142.778790348
142.506443114
142.227739993
141.941643976
141.64723361
141.343669993
141.030170806
140.705990625
140.370406353
140.022706707
139.662184805
139.288132269
138.899837256
138.496580178
138.077633257
137.642259185
137.189710572
136.719229714
136.230048549
135.721388804
135.192462275
134.642471228
134.070608912
133.476060167
132.858002151
132.21560527
131.548034119
130.854448519
130.134004596
129.385855964
128.609155017
127.803054369
126.966708511
126.099275708
125.199920193
124.267814683
123.302143239
122.302104504
121.266915271
120.195814538
119.08806809
117.942973749
116.759867518
115.538130913
114.277199683
112.97657408
111.635831165
110.254639707
108.83277774
107.370152862
105.866827522
104.323049082
102.739284375
101.116262216
99.4550259048
97.7569972629
96.0240500874
94.2585964723
92.4636906279
90.6431500761
88.8016979006
86.9451245665
85.0804911362
83.2163909797
81.3633386896
79.5344167434
77.7456617745
76.0157589815
146.073632348
145.84200562
145.540723055
145.229849655
144.92510091
144.633155068
144.354244656
144.085173442
143.822259635
143.562214654
143.302279483
143.040217967
142.774238722
142.502893706
142.224987166
141.939502965
141.645549169
141.342317072
141.029051633
140.705030528
140.369549401
140.02191152
139.661421402
139.28737975
138.899079956
138.495807493
138.076838026
137.641436715
137.188857969
136.718345404
136.229131967
135.720440206
135.191482663
134.641462337
134.069573251
133.475001128
132.856924132
132.214513792
131.546935926
130.853351713
130.132918809
129.384792863
128.608128839
127.802082517
126.965812253
126.098481011
125.199258709
124.267324934
123.301872058
122.302108875
121.267264411
120.196592419
119.089376459
117.944935773
116.762632167
115.541878029
114.282145321
112.982978518
111.644007918
110.26496568
108.845705002
107.386222792
105.886686169
104.347463829
102.769163175
101.152674244
99.4992200834
97.8104167193
96.0883421325
94.3356132314
92.5554709185
90.7518726076
88.9295918271
87.094324823
85.2528219008
83.4130752223
81.5847033237
79.7798576733
78.0140532626
76.3071462929
146.407687206
146.044515465
145.644772825
145.275904195
144.938392514
144.630378499
144.345088722
144.074446308
143.812126182
143.553503259
143.295161159
143.034569805
142.769830695
142.499477807
142.222336275
141.937424788
141.64388824
141.340951562
141.027888232
140.70399928
140.368599051
140.021003936
139.660529842
139.286484038
138.898166305
138.494866403
138.075863097
137.64042383
137.187804559
136.717249948
136.227993747
135.719259162
135.190259233
134.640197375
134.068268049
133.473657603
132.855545103
132.21310313
131.545498675
130.851894623
130.131450597
129.383323843
128.606671433
127.800651721
126.964426161
126.097161491
125.198032271
124.2662238
123.300935427
122.3013844
121.266809608
120.196476809
119.089684066
117.945768037
116.764111434
115.544152011
114.285393804
112.987418208
111.649899275
110.272621427
108.85549983
107.398604213
105.9021867
104.366714368
102.792907203
101.181782321
99.5347043957
97.8534428471
96.1402344821
94.3978506239
92.6296663108
90.8397275901
89.0328100032
87.2144640723
85.3910525217
83.5697893959
81.7589717785
79.9689726506
78.2129984266
76.50968433
146.9574602
146.303519562
145.751340633
145.31385818
144.942349347
144.620342871
144.331321319
144.061152352
143.800743659
143.544308495
143.287963656
143.029028954
142.765593643
142.496231887
142.219823651
141.935441396
141.642276919
141.339593895
141.026696514
140.702909383
140.367564435
140.01999136
139.659511169
139.285443608
138.897093202
138.493752956
138.074704176
137.63921615
137.186546325
136.715940345
136.226632687
135.717847173
135.188797418
134.638687389
134.066712055
133.472057925
132.85390319
132.211421735
131.543781466
130.850145666
130.129674745
129.381528039
128.604864506
127.798844596
126.962632303
126.095397443
125.196318285
124.26458457
123.299400968
122.299990904
121.265601487
120.195508107
119.089020265
117.945488348
116.76431148
115.544946707
114.286920329
112.989842014
111.653419401
110.277476654
108.861975923
107.407042305
105.912992804
104.380369796
102.809979518
101.20293606
99.5607108351
97.8851870057
96.1787170768
94.4441860092
92.6850667043
90.9054686544
89.1101642981
87.3045818777
85.4947373612
83.687015815
81.8880719163
80.1054529866
78.346257492
76.6191337233
147.95269771
146.594881438
145.80413381
145.304289834
144.913448161
144.589690682
144.305276808
144.040767905
143.785362309
143.532913777
143.279596733
143.022898953
142.76108438
142.492877152
142.217277052
141.933449089
141.640655162
141.338210898
141.025459163
140.701751341
140.366428049
140.018839692
139.658334315
139.284228502
138.895830544
138.492436826
138.073330298
137.637779218
137.185042719
136.714367966
136.224990044
135.716133102
135.187011022
134.636828051
134.064779527
133.470052883
132.851829287
132.209281447
131.541577422
130.847881449
130.127355029
129.379158039
128.602450431
127.796394025
126.960154509
126.092903774
125.193822631
124.262103945
123.296956196
122.297607392
121.263309794
120.193345108
119.087030482
117.943725516
116.762840532
115.543846533
114.286286677
112.989789217
111.65408472
110.279024743
108.864603718
107.410984421
105.918527374
104.387824773
102.819739368
101.215448661
99.5764940077
97.9048324377
96.2028906397
94.4736418087
92.7206333505
90.9480332755
89.1606464145
87.3638903429
85.5636620237
83.7658271159
81.97591376
80.1986799499
78.4289283062
76.6370493887
149.745806176
146.817707997
145.704179155
145.177107057
144.810005576
144.515430105
144.253969891
144.005600684
143.761240856
143.516323609
143.268154186
143.014980018
142.755571136
142.488994056
142.214484137
141.931370241
141.639028727
141.336855103
141.024246926
140.700596822
140.365299336
140.017714757
139.657174101
139.283012085
138.894546541
138.491078273
138.071893498
137.636267291
137.183457384
136.71270946
136.223258629
135.714329187
135.18513508
134.634880594
134.062761071
133.46796368
132.849668416
132.20704903
131.539274225
130.845508615
130.124914045
129.376651012
128.599880169
127.793764121
126.957469481
126.090169254
125.191045598
124.259292981
123.294121781
122.294762378
121.260469844
120.190529219
119.084261619
117.941031352
116.760254313
115.54140796
114.28404322
112.987798481
111.652416013
110.27776111
108.863844438
107.410847904
105.919154574
104.389383045
102.82242674
101.219498242
99.582178928
97.9124761552
96.212884959
94.4864109826
92.7366591539
90.967866476
89.1849223476
87.3933462849
85.5991870019
83.8089482789
82.0290602283
80.2643337683
78.4943810355
76.5945937297
56.5462258192
52.9943933261
50.603257639
48.6464994909
46.9755075925
45.5200447011
44.2360281973
43.0936190246
42.0709981712
41.15127856
40.3209351367
39.5688770181
38.8858557533
38.2640647106
37.6968506319
37.1784969148
36.7040554539
36.2692138832
35.8701896875
35.503645356
35.1666204758
34.8564769544
34.5708548945
34.3076363321
34.0649151593
33.8409717785
33.6342513666
33.4433452641
33.2669748793
33.1039776298
32.9532945665
32.8139592065
32.685087521
32.5658688003
32.4555574585
32.3534661776
32.258959406
32.1714490601
32.0904061037
32.0154265711
31.9462225763
31.8822313118
31.8230189206
31.7682309124
31.7175145763
31.670564433
31.6270953597
31.5868487988
31.5495813092
31.5150592969
31.4830687778
31.453411501
31.4259030241
31.400373243
31.3766638558
31.3546303903
31.3341379617
31.3150604201
31.2972806048
31.2806903804
31.2651915933
31.2506926752
31.2371082565
31.2243594263
31.2123735686
31.2010840368
31.1904302303
31.1803563064
31.1708119294
31.1617556721
31.1531366471
31.144913058
31.137049153
31.1295095078
31.1222597821
31.1152730539
31.1085319362
31.102017253
31.0956963416
31.0895462148
31.0835475698
31.0776836148
31.0719393059
31.0663013391
31.0607575759
31.0552967006
31.0499079019
31.0445811891
31.0393074408
31.0340785797
31.0288872572
31.0237268501
31.0185912651
31.0134750086
31.0083727614
31.003279044
30.9981881212
30.993094602
30.9879935734
30.9828803721
30.9777503325
30.9725990299
30.9674224665
30.9622167735
30.9569774536
30.9516997027
30.9463791176
30.9410112241
30.9355914349
30.9301151129
30.9245771961
30.9189723535
30.9132948202
30.9075377877
30.9016948411
30.8957596537
30.8897247845
30.8835821506
30.8773232825
30.8709386908
30.8644182135
30.8577507792
30.8509247951
30.8439283182
30.8367470464
30.8293664904
30.8217711734
30.8139431744
30.8058629378
30.7975092879
30.7888583505
30.7798802435
30.7705385541
30.7607884873
30.750571755
30.7398138666
30.7284199115
30.7162728659
30.7032350058
30.68912268
30.6736871562
30.6568857197
30.6381469117
30.6169576007
30.5921344529
30.5607091412
30.5155668468
30.4385313152
30.2923763038
30.0096614408
29.4873318188
28.593431662
27.1935225393
25.1898268702
22.5501673633
19.3262147318
15.6364553003
11.4546846068
6.50667147735
1.5391954284
59.7278072393
55.6749688387
52.9633588809
50.8117573283
49.0109377575
47.462428279
46.1079095207
44.9100109949
43.8424122659
42.8853424086
42.0233481754
41.2440054969
40.5371191984
39.8941966892
39.3080783643
38.7726678328
38.2827277741
37.8337219629
37.4216920982
37.0431604812
36.6950532719
36.3746392651
36.0794812249
35.8073959698
35.5564219562
35.3247916885
35.1109087567
34.9133279334
34.7307384031
34.5619489719
34.4058755092
34.261529566
34.1280087837
34.0044878033
33.8902108391
33.7844851503
33.686675456
33.5961982238
33.5125097779
33.4350767485
33.3633216774
33.2969441575
33.2355220157
33.1786670357
33.1260458306
33.0773446185
33.0322638738
32.9905251824
32.9518723813
32.9160729737
32.8829064926
32.8521679678
32.8236682307
32.7972376667
32.7727089952
32.7499279933
32.7287533339
32.7090542204
32.6907115893
32.6736148827
32.6576559437
32.6427388597
32.6287758327
32.6156843766
32.6033895088
32.5918229294
32.5809209988
32.5706230971
32.560872768
32.5516128503
32.5428032887
32.5344028606
32.5263718798
32.518674782
32.51127952
32.5041554541
32.4972733274
32.4906079348
32.4841390531
32.4778475292
32.4717148036
32.4657236878
32.4598589622
32.4541068464
32.4484549553
32.4428914694
32.4374053359
32.4319861017
32.4266244202
32.4213118183
32.4160408339
32.4108046544
32.405597109
32.4004123801
32.395244981
32.390089078
32.3849387731
32.3797884632
32.3746332631
32.3694681507
32.3642885438
32.3590895701
32.3538674675
32.3486181685
32.3433368752
32.338018677
32.3326591345
32.3272533649
32.3217967369
32.3162850001
32.3107122017
32.3050737557
32.2993632402
32.2935740769
32.2877000484
32.2817350743
32.2756710056
32.2695016783
32.2632161816
32.2568088317
32.2502670929
32.2435811769
32.2367425094
32.2297352944
32.2225516964
32.2151735754
32.2075908328
32.1997831976
32.1917372416
32.1834305308
32.1748444907
32.1659482865
32.1567115757
32.1470885962
32.1370256616
32.1264494345
32.1152648933
32.1033560017
32.090586094
32.0767637692
32.0616338499
32.0449548277
32.0261708207
32.0044782192
31.9781626686
31.9432782877
31.8908056634
31.7993206999
31.626706901
31.2994322542
30.7086839638
29.7198395034
28.2016260201
26.065931588
23.2924521873
19.9376374087
16.1178795624
11.8212484348
6.78736410574
1.66975677607
61.9354911315
58.0019666848
55.135243636
52.8521473694
50.9513794407
49.3263906561
47.9120354447
46.6661606191
45.559199417
44.5691571329
43.6790289827
42.8752886354
42.1469452712
41.4849238938
40.8816329091
40.3306513263
39.8264945902
39.3644355809
38.9403663816
38.5506903273
38.1922376111
37.8621985288
37.5580707152
37.2776162302
37.0188268973
36.7798949924
36.5591890398
36.3552329144
36.1666882488
35.9923390564
35.8310784728
35.6818969068
35.5438717643
35.4161577544
35.2979786485
35.1886197025
35.0874213862
34.9937741812
34.9071173337
34.8269415061
34.752746028
34.6839902962
34.6203420101
34.5614391525
34.5069440165
34.4565224395
34.4098642641
34.3666835689
34.3267051421
34.2896892108
34.2554068351
34.2236469168
34.1942117388
34.1669109292
34.1415788361
34.1180603634
34.0962105936
34.075893458
34.0569813559
34.0393563306
34.0229156737
34.007559311
33.9931939414
33.9797352272
33.9671049543
33.9552270853
33.9440365101
33.933474447
33.9234860437
33.9140198388
33.9050265814
33.8964611416
33.8882828109
33.8804541323
33.8729410122
33.8657124335
33.8587407047
33.8520000426
33.8454662801
33.8391173025
33.8329331382
33.8268956956
33.8209890763
33.8151988503
33.8095120543
33.8039163475
33.7984002985
33.7929530393
33.7875647996
33.7822267674
33.7769313552
33.771671667
33.7664413936
33.7612343136
33.7560445858
33.7508662473
33.7456934621
33.7405206283
33.7353427486
33.7301546584
33.7249519662
33.719729896
33.7144843638
33.7092115434
33.7039067809
33.6985647559
33.6931812565
33.6877516254
33.6822708215
33.6767350214
33.6711381778
33.6654751427
33.6597403555
33.6539275315
33.6480302655
33.6420430048
33.6359572229
33.629767065
33.6234622654
33.6170374266
33.6104814728
33.6037841167
33.5969378656
33.5899284284
33.5827482666
33.5753805697
33.5678164408
33.5600376069
33.5520335576
33.5437830909
33.5352700256
33.5264666917
33.5173443351
33.5078610146
33.4979647646
33.4875855827
33.4766294886
33.464980255
33.4525123416
33.4390214245
33.4241780637
33.4076799561
33.3888711895
33.3666519797
33.3387387951
33.3001412923
33.2399195087
33.1333149861
32.9335186929
32.5613320034
31.902944148
30.8219701533
29.1907804442
26.9303310147
24.0305055353
20.5507233324
16.6039452346
12.1917705816
7.06857668604
1.79841219371
63.7398647904
60.015236065
57.1117585749
54.7574916866
52.7886619613
51.1058477544
49.6437684517
48.3584049217
47.2183679564
46.2002032719
45.2857957383
44.460789359
43.7135759856
43.0346204509