/*--------------------------------*- C++ -*----------------------------------*\
| =========                 |                                                 |
| \\      /  F ield         | OpenFOAM: The Open Source CFD Toolbox           |
|  \\    /   O peration     | Version:  2106                                  |
|   \\  /    A nd           | Website:  www.openfoam.com                      |
|    \\/     M anipulation  |                                                 |
\*---------------------------------------------------------------------------*/
FoamFile
{
    version     2.0;
    format      ascii;
    arch        "LSB;label=32;scalar=64";
    class       surfaceScalarField;
    location    "0.19";
    object      phi;
}
// * * * * * * * * * * * * * * * * * * * * * * * * * * * * * * * * * * * * * //

dimensions      [0 3 -1 0 0 0 0];

oriented        oriented;

internalField   nonuniform List<scalar> 
22100
(
3.38461204265e-05
1.61538795388e-05
2.24572102432e-05
1.13889103093e-05
1.62585535825e-05
6.19865672761e-06
1.27977768207e-05
3.46077682955e-06
1.08046431594e-05
1.99313372644e-06
9.60459034091e-06
1.20005287713e-06
8.85132277924e-06
7.53267613136e-07
8.36435415035e-06
4.86968673405e-07
8.04433643781e-06
3.20017750787e-07
7.83284178675e-06
2.11494682366e-07
7.69339873306e-06
1.394430761e-07
7.60224191301e-06
9.11568303857e-08
7.543479147e-06
5.87627609196e-08
7.50634219248e-06
3.71369322542e-08
7.48350258664e-06
2.28395654426e-08
7.4699816124e-06
1.35209180006e-08
7.46241678876e-06
7.56475482027e-09
7.45854851108e-06
3.86820114812e-09
7.45682929851e-06
1.71913640678e-09
7.45642236553e-06
4.06860829715e-10
7.45677188058e-06
-3.49580563312e-10
7.45745773583e-06
-6.85917825767e-10
7.45821573802e-06
-7.58068109367e-10
7.45894068378e-06
-7.25022149079e-10
7.45958462134e-06
-6.44031163093e-10
7.460128175e-06
-5.43668924853e-10
7.46056990796e-06
-4.41872247611e-10
7.46091828418e-06
-3.48538890682e-10
7.46118622265e-06
-2.68119980364e-10
7.46138782543e-06
-2.01796029612e-10
7.46153648026e-06
-1.48850183315e-10
7.46164387285e-06
-1.07579863498e-10
7.46171976598e-06
-7.60640434514e-11
7.46177229038e-06
-5.26731509223e-11
7.46180539707e-06
-3.32294477726e-11
7.46182408114e-06
-1.87786155591e-11
7.46183310626e-06
-9.09199520661e-12
7.46183590745e-06
-2.84291910467e-12
7.46183442153e-06
1.46357149719e-12
7.46182977288e-06
4.63869434001e-12
7.46182288203e-06
6.88481456095e-12
7.4618143396e-06
8.53126986743e-12
7.46180450035e-06
9.81428495859e-12
7.46179352769e-06
1.09275157271e-11
7.46178142045e-06
1.20375210763e-11
7.46176805733e-06
1.32696274872e-11
7.46175322013e-06
1.47260770918e-11
7.46173659638e-06
1.65069117614e-11
7.46171776164e-06
1.87276645776e-11
7.46169619544e-06
2.14829130573e-11
7.46167128968e-06
2.48550967404e-11
7.46164232725e-06
2.89443776759e-11
7.46160848578e-06
3.38493730744e-11
7.46156885865e-06
3.96453018814e-11
7.46152251116e-06
4.63548079177e-11
7.46146856714e-06
5.39199277647e-11
7.46140628088e-06
6.22158712144e-11
7.46133542415e-06
7.07362550141e-11
7.46125667758e-06
7.85818718144e-11
7.46117240531e-06
8.40749362109e-11
7.46108859916e-06
8.35918067072e-11
7.46101772164e-06
7.06630193708e-11
7.46096792941e-06
4.95942935205e-11
7.46095784543e-06
9.91072671063e-12
7.46102332244e-06
-6.56268319954e-11
7.46122262302e-06
-1.9943185517e-10
7.46165038992e-06
-4.27887349688e-10
7.46245703603e-06
-8.06772683798e-10
7.46387852828e-06
-1.42164107837e-09
7.4662715708e-06
-2.39322099872e-09
7.47008728963e-06
-3.81593028942e-09
7.47654132726e-06
-6.4542865535e-09
7.48733043556e-06
-1.07893903694e-08
7.50554583572e-06
-1.82157117036e-08
7.53881254896e-06
-3.32670515325e-08
7.60819753869e-06
-6.9385322933e-08
7.77526499699e-06
-1.6706775149e-07
8.23129899694e-06
-4.56034220293e-07
9.70280486057e-06
-1.47150586708e-06
-5.46884470288e-06
1.51716499827e-05
5.02175949546e-05
1.59362846699e-05
4.42441119731e-05
1.73623934769e-05
3.77795020559e-05
1.26632667689e-05
3.26461447817e-05
8.59413421957e-06
2.89380928638e-05
5.7011857471e-06
2.63596226497e-05
3.77852317714e-06
2.45875184119e-05
2.52537192008e-06
2.33734765142e-05
1.70101062336e-06
2.25435276125e-05
1.14996668769e-06
2.1978219059e-05
7.76803253485e-07
2.15955166409e-05
5.22145491166e-07
2.1338740158e-05
3.47933287981e-07
2.11684986831e-05
2.29004186551e-07
2.10573410846e-05
1.48294458281e-07
2.09861531488e-05
9.40274100886e-08
2.09416807233e-05
5.79932403459e-08
2.09147988461e-05
3.44465242357e-08
2.08992996785e-05
1.93672618753e-08
2.08910757965e-05
9.94291195523e-09
2.08872754314e-05
4.20712064294e-09
2.08862062779e-05
7.19459406621e-10
2.08864518607e-05
-9.31630715806e-10
2.08873231224e-05
-1.62948723054e-09
2.08884624237e-05
-1.86451824875e-09
2.08896355345e-05
-1.81737885433e-09
2.08907182925e-05
-1.62670543534e-09
2.08916556469e-05
-1.37954038029e-09
2.0892432934e-05
-1.12616427819e-09
2.08930579302e-05
-8.93465496212e-10
2.08935498696e-05
-6.94080482755e-10
2.0893933559e-05
-5.3286449166e-10
2.08942349228e-05
-4.09235216883e-10
2.08944457937e-05
-2.87180963977e-10
2.08945928076e-05
-1.99881239269e-10
2.08946931635e-05
-1.3372736267e-10
2.08947585793e-05
-8.42887641476e-11
2.08947992092e-05
-4.97778934936e-11
2.08948232177e-05
-2.68803333914e-11
2.08948354082e-05
-1.07429090756e-11
2.08948386944e-05
1.33303878399e-12
2.0894835472e-05
1.00688992441e-11
2.08948273835e-05
1.65493080631e-11
2.08948155491e-05
2.15379367916e-11
2.0894800669e-05
2.56564504614e-11
2.08947831041e-05
2.94181695123e-11
2.08947629913e-05
3.31813013622e-11
2.08947403181e-05
3.72036988256e-11
2.08947149651e-05
4.16943246001e-11
2.08946867114e-05
4.68646262927e-11
2.08946553032e-05
5.28290447201e-11
2.08946205076e-05
5.96371800184e-11
2.08945821388e-05
6.73266119879e-11
2.08945401489e-05
7.58501708995e-11
2.08944947645e-05
8.50037905006e-11
2.08944467295e-05
9.42957412764e-11
2.08943977187e-05
1.02750325471e-10
2.0894350845e-05
1.08824219397e-10
2.08943118239e-05
1.0942384291e-10
2.0894290057e-05
9.99742771566e-11
2.08943005446e-05
7.32017360741e-11
2.08943693793e-05
1.43909513457e-11
2.0894546069e-05
-1.06351656543e-10
2.08948986763e-05
-3.03295487066e-10
2.08955448726e-05
-6.36532381157e-10
2.08965975139e-05
-1.11849456822e-09
2.08982284817e-05
-1.83062817187e-09
2.09007968201e-05
-2.996485292e-09
2.09048519947e-05
-4.8622623513e-09
2.09112658645e-05
-7.83589470558e-09
2.09214669546e-05
-1.25947722144e-08
2.09379543045e-05
-2.03038236744e-08
2.09648872252e-05
-3.33878209844e-08
2.10092311853e-05
-5.51340169106e-08
2.10842073883e-05
-9.31926115784e-08
2.12158360973e-05
-1.64896461801e-07
2.14572218192e-05
-3.10771766056e-07
2.19166632734e-05
-6.26510018248e-07
2.28071043679e-05
-1.34647627585e-06
2.44584353934e-05
-3.12283783823e-06
-7.06752414159e-06
2.60571145114e-05
5.3517105409e-05
1.24191793166e-05
5.29349685951e-05
1.79445304418e-05
4.96538405458e-05
1.59443949136e-05
4.58401820166e-05
1.24077928385e-05
4.24400931395e-05
9.10127470439e-06
3.97291732951e-05
6.4894430897e-06
3.76873069241e-05
4.56723834725e-06
3.61976641919e-05
3.19065340117e-06
3.51326136387e-05
2.2150172749e-06
3.43823686496e-05
1.52704826321e-06
3.38606277071e-05
1.04388643739e-06
3.35023474788e-05
7.06213500118e-07
3.32596025597e-05
4.71749066971e-07
3.30975922071e-05
3.10304749751e-07
3.29913360569e-05
2.00283479633e-07
3.29230940792e-05
1.26235122977e-07
3.28804060085e-05
7.71344928348e-08
3.28546207347e-05
4.51524321661e-08
3.28397934788e-05
2.47700661585e-08
3.28318668166e-05
1.21336799132e-08
3.28279972034e-05
4.58896440154e-09
3.28269983726e-05
6.70805435463e-11
3.28271789707e-05
-1.81022457516e-09
3.28280271865e-05
-2.71289970921e-09
3.28291427404e-05
-2.93312966549e-09
3.28302897499e-05
-2.77394425264e-09
3.28313454713e-05
-2.4355197185e-09
3.28322556065e-05
-2.0365786239e-09
3.28330053154e-05
-1.64346503733e-09
3.2833600688e-05
-1.28974336882e-09
3.28340566569e-05
-9.89110991141e-10
3.28343914164e-05
-7.44247680558e-10
3.28346575835e-05
-5.53568343987e-10
3.2834873755e-05
-4.16234520226e-10
3.28350208244e-05
-2.80937596294e-10
3.2835119941e-05
-1.83508681385e-10
3.28351857542e-05
-1.15662447488e-10
3.28352276461e-05
-6.88211129477e-11
3.28352524844e-05
-3.56175852854e-11
3.28352642064e-05
-1.0424588875e-11
3.28352663487e-05
7.87896509366e-12
3.28352613841e-05
2.14435273882e-11
3.2835251116e-05
3.17055072039e-11
3.28352367565e-05
3.98830276983e-11
3.28352190522e-05
4.69614473272e-11
3.28351984715e-05
5.35851512492e-11
3.28351753202e-05
6.01808941838e-11
3.28351497874e-05
6.70749071638e-11
3.28351218918e-05
7.46453633362e-11
3.28350917011e-05
8.29459236895e-11
3.28350595031e-05
9.17975920276e-11
3.28350258278e-05
1.00987996774e-10
3.28349916033e-05
1.10061982002e-10
3.28349584575e-05
1.18110681838e-10
3.28349292141e-05
1.23450358455e-10
3.28349085074e-05
1.23304664531e-10
3.28349031299e-05
1.13984776884e-10
3.28349240879e-05
8.81932524988e-11
3.2834988565e-05
3.51854191941e-11
3.28351257169e-05
-6.42746758542e-11
3.2835386631e-05
-2.46835722134e-10
3.28358588085e-05
-5.78812815528e-10
3.28365644465e-05
-1.00918640579e-09
3.28375908288e-05
-1.66314286649e-09
3.28391928211e-05
-2.72069677097e-09
3.28417518556e-05
-4.38987507146e-09
3.28457722286e-05
-7.01709840113e-09
3.28520700291e-05
-1.11603427014e-08
3.28619619019e-05
-1.7728092912e-08
3.28776191849e-05
-2.82524332854e-08
3.29027148148e-05
-4.53998849784e-08
3.29426214412e-05
-7.3294925416e-08
3.30072086905e-05
-1.19721785775e-07
3.31135312743e-05
-1.99515730473e-07
3.3290735851e-05
-3.4210156362e-07
3.3587273238e-05
-6.07309687048e-07
3.40746665273e-05
-1.11390388782e-06
3.48197710193e-05
-2.09158144182e-06
3.56871317646e-05
-3.99019907384e-06
-7.14347842772e-06
3.57630866314e-05
5.35105665243e-05
8.90861284777e-06
5.55742224695e-05
1.5880874648e-05
5.52424828757e-05
1.62761346067e-05
5.35977864533e-05
1.40524893554e-05
5.15418483179e-05
1.11572129254e-05
4.95802806665e-05
8.45101081554e-06
4.79243517526e-05
6.22316732439e-06
4.66181399774e-05
4.49686522845e-06
4.56304672652e-05
3.20269002827e-06
4.49051183931e-05
2.25239716179e-06
4.43840912627e-05
1.56491357722e-06
4.40166951478e-05
1.07360960325e-06
4.37619686621e-05
7.26475517977e-07
4.35882700354e-05
4.84003319628e-07
4.34718706308e-05
3.16682807422e-07
4.33953604964e-05
2.02745166349e-07
4.3346190145e-05
1.26304745105e-07
4.33154524561e-05
7.58900201509e-08
4.32969160123e-05
4.33064101215e-08
4.32862898717e-05
2.27597188971e-08
4.32806869615e-05
1.01917669694e-08
4.32778792287e-05
2.87469263902e-09
4.32770513349e-05
-9.82471411286e-10
4.32772691416e-05
-2.93087294433e-09
4.32779565855e-05
-3.62076951981e-09
4.32788195369e-05
-3.63712137169e-09
4.32796922283e-05
-3.30846305528e-09
4.32804895488e-05
-2.8341706096e-09
4.32811751542e-05
-2.32935128707e-09
4.32817408339e-05
-1.85570152065e-09
4.32821934305e-05
-1.44197255263e-09
4.32825456758e-05
-1.09673432916e-09
4.32828073037e-05
-8.15404986655e-10
4.32829826135e-05
-5.91715184563e-10
4.32831156421e-05
-4.14097465668e-10
4.32832011272e-05
-2.69087692496e-10
4.32832551767e-05
-1.69773896064e-10
4.32832950951e-05
-1.08778665092e-10
4.3283319622e-05
-6.01715104945e-11
4.32833317359e-05
-2.25654797381e-11
4.32833348383e-05
4.73680283768e-12
4.32833308641e-05
2.53547974266e-11
4.32833215007e-05
4.09761273472e-11
4.32833078964e-05
5.33620728718e-11
4.3283290691e-05
6.40149191339e-11
4.32832703164e-05
7.37952217408e-11
4.3283247106e-05
8.32324502342e-11
4.32832213446e-05
9.2703058878e-11
4.32831933426e-05
1.02552384594e-10
4.32831637067e-05
1.12529405861e-10
4.32831330206e-05
1.22465973107e-10
4.32831021969e-05
1.31813168059e-10
4.32830726409e-05
1.3961589202e-10
4.32830464074e-05
1.44311620447e-10
4.32830263954e-05
1.43376893627e-10
4.32830168044e-05
1.32746782548e-10
4.32830249783e-05
1.0559983555e-10
4.3283062685e-05
5.0222723917e-11
4.32831488307e-05
-5.12579503014e-11
4.3283303341e-05
-2.19090979776e-10
4.32835260025e-05
-4.69786927993e-10
4.32839543382e-05
-1.00741255053e-09
4.32847029639e-05
-1.75804957986e-09
4.3285933348e-05
-2.89374188618e-09
4.32878510927e-05
-4.6386477959e-09
4.32908051024e-05
-7.34410038562e-09
4.32953554628e-05
-1.15676981865e-08
4.33023824654e-05
-1.81876201994e-08
4.33132718192e-05
-2.86177694392e-08
4.33301884627e-05
-4.51694537167e-08
4.33564546574e-05
-7.16665059518e-08
4.33976633286e-05
-1.14504072221e-07
4.34627058448e-05
-1.84764812172e-07
4.35653763976e-05
-3.02186796922e-07
4.37257485622e-05
-5.02474228824e-07
4.39686107577e-05
-8.50172362443e-07
4.43109045483e-05
-1.45619820786e-06
4.47142163173e-05
-2.49489392168e-06
4.49375551359e-05
-4.21353871688e-06
-6.6177391825e-06
4.44118160145e-05
5.27351380521e-05
6.17347485474e-06
5.57309346355e-05
1.28850782182e-05
5.73114745578e-05
1.46955947885e-05
5.76109921544e-05
1.37529718585e-05
5.71335231019e-05
1.16346820693e-05
5.6319468726e-05
9.26506527251e-06
5.54489887284e-05
7.09364739237e-06
5.46629783554e-05
5.28287566011e-06
5.40136829855e-05
3.85198544487e-06
5.35061518431e-05
2.75992833517e-06
5.31242561123e-05
1.94680932089e-06
5.28449867509e-05
1.35287895519e-06
5.2645440681e-05
9.26021554986e-07
5.2505716603e-05
6.2372734171e-07
5.24097219906e-05
4.12677344685e-07
5.23450161293e-05
2.6745093821e-07
5.23022784497e-05
1.6904232751e-07
5.22746914221e-05
1.03476946917e-07
5.22573669983e-05
6.06307321362e-08
5.22468584085e-05
3.32682048498e-08
5.22407587577e-05
1.62913065043e-08
5.22374498616e-05
6.18346398992e-09
5.22359511014e-05
5.16143759435e-10
5.22354429729e-05
-2.42291482288e-09
5.22355076789e-05
-3.68567379535e-09
5.22358528408e-05
-3.98250901066e-09
5.22363067483e-05
-3.76262061718e-09
5.22367727727e-05
-3.30046280947e-09
5.22371998236e-05
-2.75667821783e-09
5.22375651884e-05
-2.22133890061e-09
5.22378621796e-05
-1.73922214022e-09
5.22380936016e-05
-1.32839087642e-09
5.22382697319e-05
-9.91737226429e-10
5.22384024816e-05
-7.24629561888e-10
5.22385027569e-05
-5.14499272303e-10
5.22385872544e-05
-3.53674208705e-10
5.22386527839e-05
-2.35360676908e-10
5.22386950487e-05
-1.51077005525e-10
5.22387278445e-05
-9.29887076672e-11
5.22387432648e-05
-3.80078080363e-11
5.22387484577e-05
-4.91889925221e-13
5.22387459758e-05
2.77770429765e-11
5.22387377585e-05
4.91027477783e-11
5.22387251271e-05
6.58705337396e-11
5.22387089439e-05
8.00507701879e-11
5.22386898049e-05
9.27768744412e-11
5.22386682813e-05
1.04607785539e-10
5.22386453961e-05
1.15467487652e-10
5.22386204426e-05
1.27422610985e-10
5.22385931013e-05
1.3983221668e-10
5.22385646615e-05
1.50904157036e-10
5.22385361217e-05
1.60368941141e-10
5.22385089334e-05
1.66811140059e-10
5.22384853881e-05
1.67826698478e-10
5.22384696812e-05
1.5899666409e-10
5.22384726694e-05
1.2960637225e-10
5.22384987581e-05
7.92961132907e-11
5.22385647841e-05
-1.6064910277e-11
5.22386780594e-05
-1.64817899613e-10
5.22388572758e-05
-3.98597186059e-10
5.22391838552e-05
-7.96640438847e-10
5.22396833318e-05
-1.50713649831e-09
5.22404343473e-05
-2.5092885262e-09
5.22415686597e-05
-4.02826255829e-09
5.22432890081e-05
-6.35920574279e-09
5.22458967183e-05
-9.95203577145e-09
5.22498438332e-05
-1.55150592852e-08
5.22558220603e-05
-2.41661251768e-08
5.22648921884e-05
-3.76882228072e-08
5.22786763391e-05
-5.8953980081e-08
5.22996419593e-05
-9.26325524919e-08
5.23315206461e-05
-1.46383235476e-07
5.23796845393e-05
-2.32929209629e-07
5.24511083871e-05
-3.73611156773e-07
5.2552731463e-05
-6.04097796298e-07
5.26852019538e-05
-9.82643308824e-07
5.28263943065e-05
-1.59739098315e-06
5.28948000499e-05
-2.56330018705e-06
5.2677484749e-05
-3.99622420036e-06
-5.80834434447e-06
5.18680898143e-05
5.19834865155e-05
4.18998839884e-06
5.50586641493e-05
9.80990073579e-06
5.76386134554e-05
1.21156455857e-05
5.93259034686e-05
1.20656819452e-05
6.02280155675e-05
1.07325700632e-05
6.05929268096e-05
8.90015411315e-06
6.06482837815e-05
7.03829049377e-06
6.05531893657e-05
5.37797013803e-06
6.04029548234e-05
4.00222003674e-06
6.02479143371e-05
2.91496885578e-06
6.01107888125e-05
2.08393486084e-06
5.99990292754e-05
1.46463848531e-06
5.99125140649e-05
1.01253673456e-06
5.98479221153e-05
6.88319237462e-07
5.98010184697e-05
4.59580916869e-07
5.97677337229e-05
3.00735597405e-07
5.97445922596e-05
1.92183694077e-07
5.97288135995e-05
1.19255505466e-07
5.97182653331e-05
7.11788936149e-08
5.97113590236e-05
4.01744045513e-08
5.97069395563e-05
2.0710655591e-08
5.97042055365e-05
8.91735222828e-09
5.97025963732e-05
2.12515668473e-09
5.97016916911e-05
-1.51840586301e-09
5.97012332284e-05
-3.2274088945e-09
5.97010435195e-05
-3.79302192931e-09
5.97010070316e-05
-3.72637519931e-09
5.97010511089e-05
-3.34479782893e-09
5.97011320361e-05
-2.83787034523e-09
5.97012241505e-05
-2.31371549742e-09
5.97013135822e-05
-1.82890202685e-09
5.97013937244e-05
-1.40875812271e-09
5.97014631505e-05
-1.06135862754e-09
5.97015224691e-05
-7.8410902666e-10
5.9701572499e-05
-5.64653243289e-10
5.97016121491e-05
-3.93412388625e-10
5.97016398156e-05
-2.63083814592e-10
5.97016550656e-05
-1.6636081211e-10
5.97016533677e-05
-9.13130505037e-11
5.97016451708e-05
-2.98350833613e-11
5.97016384044e-05
6.23595435612e-12
5.97016288899e-05
3.72287012143e-11
5.97016181899e-05
5.97100672091e-11
5.97016062166e-05
7.7723385993e-11
5.97015918787e-05
9.42468235631e-11
5.97015749917e-05
1.09515922751e-10
5.97015555227e-05
1.23939930791e-10
5.9701533115e-05
1.37765286065e-10
5.97015093767e-05
1.51091577884e-10
5.97014857819e-05
1.63396980338e-10
5.97014625883e-05
1.74099721199e-10
5.97014410334e-05
1.8193937539e-10
5.97014228215e-05
1.85023926653e-10
5.97014098316e-05
1.80777202376e-10
5.97014026607e-05
1.66071855533e-10
5.97013939814e-05
1.38128239167e-10
5.97013919577e-05
8.11069117849e-11
5.97014016771e-05
-2.60355224699e-11
5.97014623823e-05
-2.25793601189e-10
5.9701636434e-05
-5.7291210998e-10
5.97019230774e-05
-1.08353429775e-09
5.97022931711e-05
-1.87746419221e-09
5.97028491568e-05
-3.06548993085e-09
5.97036740919e-05
-4.85340474441e-09
5.97048809224e-05
-7.56625169516e-09
5.9706633599e-05
-1.17049462629e-08
5.97091692957e-05
-1.8051014066e-08
5.97128306143e-05
-2.78277361611e-08
5.97181060777e-05
-4.29640189812e-08
5.97256763187e-05
-6.65245953249e-08
5.97364450829e-05
-1.03401740097e-07
5.97514761666e-05
-1.61414784271e-07
5.9771612e-05
-2.53065539193e-07
5.97962693217e-05
-3.98268989636e-07
5.98202979493e-05
-6.28126934694e-07
5.98268091501e-05
-9.89154981807e-07
5.97736767849e-05
-1.54425903939e-06
5.95726995763e-05
-2.36232339876e-06
5.90653365359e-05
-3.48886183915e-06
-4.83283393045e-06
5.8089825901e-05
5.14373054169e-05
2.75268304059e-06
5.42658207438e-05
6.98138555583e-06
5.72496434654e-05
9.13182296492e-06
5.97900278624e-05
9.52529764604e-06
6.17201283871e-05
8.80246963029e-06
6.30883033578e-05
7.53197922533e-06
6.40167169358e-05
6.1098769896e-06
6.46292367478e-05
4.76545038975e-06
6.50258037142e-05
3.6056531213e-06
6.52790782898e-05
2.66169431638e-06
6.54389733262e-05
1.92403984095e-06
6.55386901305e-05
1.36492167539e-06
6.55999286291e-05
9.51298206316e-07
6.56367433949e-05
6.51504418972e-07
6.5658194438e-05
4.38129801534e-07
6.56701026009e-05
2.88827347329e-07
6.56761917809e-05
1.86094416682e-07
6.5678828035e-05
1.16619147057e-07
6.56794984273e-05
7.05083910075e-08
6.56791221816e-05
4.05505330526e-08
6.56782547479e-05
2.15779624859e-08
6.5677223789e-05
9.94817109001e-09
6.56762144859e-05
3.13430328202e-09
6.56753051267e-05
-6.09222122876e-10
6.56745363412e-05
-2.45881939339e-09
6.56739078675e-05
-3.16476397315e-09
6.5673408829e-05
-3.22756978218e-09
6.56730217621e-05
-2.9579766781e-09
6.56727276846e-05
-2.54404399431e-09
6.5672508436e-05
-2.09471588292e-09
6.56723479108e-05
-1.66861474627e-09
6.56722324461e-05
-1.29351035323e-09
6.56721499186e-05
-9.79020278718e-10
6.56720897167e-05
-7.24064444055e-10
6.56720460676e-05
-5.21128156074e-10
6.5672014738e-05
-3.62173418582e-10
6.56719896034e-05
-2.3800953201e-10
6.56719679278e-05
-1.44723552499e-10
6.56719527596e-05
-7.61729322657e-11
6.56719508744e-05
-2.79808834025e-11
6.56719491945e-05
7.87151713685e-12
6.56719416283e-05
4.4728119211e-11
6.56719312049e-05
7.00392171078e-11
6.56719182474e-05
9.05597484999e-11
6.56719036435e-05
1.08712037289e-10
6.56718874044e-05
1.25613675728e-10
6.56718693716e-05
1.41845937275e-10
6.56718494772e-05
1.5756243342e-10
6.56718285787e-05
1.71929053323e-10
6.56718082594e-05
1.83692970845e-10
6.56717873444e-05
1.95019408681e-10
6.56717664041e-05
2.02889761502e-10
6.56717464814e-05
2.04936044752e-10
6.56717292704e-05
1.97936103853e-10
6.56717179556e-05
1.77280765778e-10
6.56717192496e-05
1.36671458956e-10
6.56717285765e-05
7.15679861327e-11
6.567174358e-05
-4.12797525763e-11
6.56718086438e-05
-2.91104382899e-10
6.56718952416e-05
-6.59754145727e-10
6.56720317416e-05
-1.22026739474e-09
6.56722241988e-05
-2.07014015296e-09
6.56724878572e-05
-3.3293572275e-09
6.56728384288e-05
-5.2041867956e-09
6.56732854985e-05
-8.01354373224e-09
6.56738249255e-05
-1.22446149856e-08
6.5674424955e-05
-1.86513133358e-08
6.56749963693e-05
-2.83994548138e-08
6.56753334484e-05
-4.33014334063e-08
6.5675003239e-05
-6.61947572359e-08
6.56731319359e-05
-1.01530843249e-07
6.56679697785e-05
-1.56253068151e-07
6.56559617022e-05
-2.41057939778e-07
6.56299465325e-05
-3.72254312627e-07
6.55757137636e-05
-5.73894655644e-07
6.54659158183e-05
-8.79357521902e-07
6.52511591676e-05
-1.32950282809e-06
6.48509558782e-05
-1.9621205161e-06
6.4152015901e-05
-2.78992246919e-06
-3.7435589647e-06
6.30627406425e-05
5.10850424086e-05
1.66764068859e-06
5.36118447288e-05
4.45458337644e-06
5.66873167129e-05
6.05635107815e-06
5.9689446778e-05
6.52316767552e-06
6.22997274343e-05
6.19218906351e-06
6.44136890388e-05
5.41801770344e-06
6.6047185221e-05
4.47638088128e-06
6.72686168091e-05
3.5440188664e-06
6.81598958921e-05
2.71437409096e-06
6.87977625444e-05
2.02382770128e-06
6.92467469823e-05
1.47505542092e-06
6.95579658844e-05
1.05370276859e-06
6.97704326366e-05
7.38831425809e-07
6.99131757904e-05
5.08761213657e-07
7.0007387015e-05
3.43918505508e-07
7.00682967263e-05
2.2791754856e-07
7.01066989323e-05
1.47692110573e-07
7.01301414322e-05
9.31765377336e-08
7.01438307621e-05
5.68189434864e-08
7.01513070677e-05
3.30741011332e-08
7.01549397406e-05
1.79451529624e-08
7.01562877007e-05
8.60006233486e-09
7.01563597516e-05
3.06209020682e-09
7.01557678158e-05
-1.74628337032e-11
7.01549070408e-05
-1.59823643586e-09
7.01539834841e-05
-2.24141487052e-09
7.01531148595e-05
-2.35916660635e-09
7.01523548258e-05
-2.19817511565e-09
7.01517205971e-05
-1.91005304075e-09
7.01512093186e-05
-1.58367253517e-09
7.01508080675e-05
-1.26758930417e-09
7.01504999009e-05
-9.85553645513e-10
7.01502671924e-05
-7.46497945985e-10
7.01500937827e-05
-5.50812210838e-10
7.01499666807e-05
-3.94151154478e-10
7.01498752299e-05
-2.70815742496e-10
7.0149812313e-05
-1.7515827304e-10
7.01497704978e-05
-1.0295344831e-10
7.01497417495e-05
-4.74594384119e-11
7.01497115273e-05
2.20511587294e-12
7.01496878353e-05
3.15145250802e-11
7.01496744992e-05
5.7994516946e-11
7.01496636243e-05
8.08185203098e-11
7.01496532897e-05
1.00775525588e-10
7.01496427486e-05
1.1912117517e-10
7.01496316255e-05
1.36606506234e-10
7.01496197897e-05
1.5356922942e-10
7.01496072796e-05
1.69991868161e-10
7.01495936243e-05
1.85539351162e-10
7.01495776934e-05
1.99610289578e-10
7.0149561391e-05
2.11324791865e-10
7.01495453632e-05
2.18914389186e-10
7.01495303254e-05
2.19943168928e-10
7.01495169456e-05
2.11243902737e-10
7.01495051629e-05
1.8894417693e-10
7.01494929596e-05
1.48707162791e-10
7.01494768171e-05
8.75026274732e-11
7.01494713334e-05
-3.60246299594e-11
7.01494676124e-05
-2.87610054565e-10
7.01494796961e-05
-6.72055578047e-10
7.01494912324e-05
-1.23200901541e-09
7.0149478649e-05
-2.05775512975e-09
7.01494137916e-05
-3.26470328992e-09
7.01492422221e-05
-5.03283823318e-09
7.01488631349e-05
-7.63469970808e-09
7.0148098727e-05
-1.14804726033e-08
7.01466455596e-05
-1.71984405319e-08
7.0143985723e-05
-2.57399390991e-08
7.01392360366e-05
-3.85520908616e-08
7.01309044473e-05
-5.78635348563e-08
7.01164927713e-05
-8.71195558916e-08
7.00918104327e-05
-1.31571157275e-07
7.00497220745e-05
-1.98970033953e-07
6.99781839539e-05
-3.00716671516e-07
6.98571130094e-05
-4.52824182215e-07
6.96538663865e-05
-6.76111351305e-07
6.93181951607e-05
-9.9383204559e-07
6.87799907497e-05
-1.42391653051e-06
6.79557697568e-05
-1.96570203714e-06
-2.57390906395e-06
6.67861195273e-05
5.08804132444e-05
7.87227498284e-07
5.31704663556e-05
2.16453039841e-06
5.62177499796e-05
3.00906754658e-06
5.94382700386e-05
3.30264770715e-06
6.24449699008e-05
3.18548928748e-06
6.50382533499e-05
2.82473433492e-06
6.71548669411e-05
2.3597673634e-06
6.8813565447e-05
1.88532042507e-06
7.00731714488e-05
1.45476814258e-06
7.10056684001e-05
1.09133078796e-06
7.16812646672e-05
7.99459172613e-07
7.21614239862e-05
5.73543446726e-07
7.24966048643e-05
4.03650520881e-07
7.27264813588e-05
2.78884669118e-07
7.28812801912e-05
1.89119602214e-07
7.29834698755e-05
1.25727775423e-07
7.3049413588e-05
8.17482943939e-08
7.30908156284e-05
5.17743814252e-08
7.31159095074e-05
3.17249378877e-08
7.31303939577e-05
1.85895139961e-08
7.31381486021e-05
1.01903619367e-08
7.31417689525e-05
4.97955546065e-09
7.31429565467e-05
1.87432954624e-09
7.31428100576e-05
1.28849775559e-10
7.31419866647e-05
-7.75030451992e-10
7.31409035677e-05
-1.15851584652e-09
7.31397884673e-05
-1.24427428043e-09
7.31387607638e-05
-1.17068841064e-09
7.31378729355e-05
-1.02244798605e-09
7.31371388768e-05
-8.49837463494e-10
7.31365512132e-05
-6.8014234314e-10
7.31360925694e-05
-5.27112313427e-10
7.31357420873e-05
-3.96198899517e-10
7.31354791475e-05
-2.88030151869e-10
7.31352854141e-05
-2.00545859235e-10
7.31351452604e-05
-1.30759907374e-10
7.31350454368e-05
-7.54064385951e-11
7.31349733984e-05
-3.09683250968e-11
7.31349198627e-05
6.03241414552e-12
7.31348896919e-05
3.23318381142e-11
7.31348661301e-05
5.50216689535e-11
7.31348488713e-05
7.51797420201e-11
7.31348360201e-05
9.35725069105e-11
7.31348257773e-05
1.10900832268e-10
7.31348168834e-05
1.27887435351e-10
7.31348084613e-05
1.44906571105e-10
7.31347998963e-05
1.62034167433e-10
7.31347907538e-05
1.79066775862e-10
7.31347807735e-05
1.95486438569e-10
7.31347698741e-05
2.10502579071e-10
7.31347580655e-05
2.23134666231e-10
7.31347453573e-05
2.31610252089e-10
7.31347317879e-05
2.33469113514e-10
7.31347174486e-05
2.25498953478e-10
7.31347026065e-05
2.03658896475e-10
7.31346878406e-05
1.63303071585e-10
7.31346741936e-05
1.00948359689e-10
7.31346465659e-05
-8.60667608705e-12
7.31346006304e-05
-2.41874331469e-10
7.31345276606e-05
-5.99269030621e-10
7.31344048073e-05
-1.10933179878e-09
7.31341885091e-05
-1.84163754207e-09
7.3133809517e-05
-2.88591089249e-09
7.31331515467e-05
-4.3750963937e-09
7.31320192377e-05
-6.50264700836e-09
7.31300871461e-05
-9.54866248014e-09
7.31268278989e-05
-1.39395030175e-08
7.31213766728e-05
-2.02890434817e-08
7.31123078828e-05
-2.9483651081e-08
7.30973030032e-05
-4.28590182808e-08
7.30726425722e-05
-6.24595070036e-08
7.30323756332e-05
-9.13046217185e-08
7.29669223244e-05
-1.335171667e-07
7.28611636711e-05
-1.94958466683e-07
7.26917673161e-05
-2.83428272801e-07
7.24239641904e-05
-4.08308673001e-07
7.2008964765e-05
-5.78833060604e-07
7.13849072703e-05
-7.99859465618e-07
7.04852530645e-05
-1.0660483693e-06
-1.35267035697e-06
6.92640140013e-05
5.07871726543e-05
5.48953537634e-11
5.29516500347e-05
5.31435548955e-11
5.5960688718e-05
2.89502705394e-11
5.92633222262e-05
1.42857505281e-11
6.24488088134e-05
2.78439512143e-12
6.52735493352e-05
-6.10797543877e-12
6.76333288168e-05
-1.20446324985e-11
6.95186643142e-05
-1.50067278366e-11
7.09734479516e-05
-1.54400108442e-11
7.20647927229e-05
-1.39436746924e-11
7.28642630689e-05
-1.11529041394e-11
7.3437814239e-05
-7.72529021136e-12
7.38414690576e-05
-4.32348989782e-12
7.41203552723e-05
-1.59516827901e-12
7.43094749355e-05
-1.32945870245e-13
7.44352029494e-05
-3.29926572826e-13
7.45169535902e-05
-2.45485585063e-12
7.45687341085e-05
-6.26036230257e-12
7.46004700205e-05
-1.11106830824e-11
7.46190754131e-05
-1.60260630752e-11
7.46292854967e-05
-1.98776713266e-11
7.46342864582e-05
-2.15691172105e-11
7.46361812507e-05
-2.06321718738e-11
7.46363282657e-05
-1.83401627447e-11
7.46355689117e-05
-1.58569238562e-11
7.46344229532e-05
-1.27444134235e-11
7.46331876486e-05
-9.16446149106e-12
7.46320219185e-05
-5.16088454636e-12
7.46309996449e-05
-3.82549468787e-13
7.46301458424e-05
3.7545524268e-12
7.46294570142e-05
8.47750585033e-12
7.46289161879e-05
1.35149275498e-11
7.46285009747e-05
1.88316360391e-11
7.46281882963e-05
2.44885949235e-11
7.46279569516e-05
3.06670437074e-11
7.46277885982e-05
3.74907942728e-11
7.462766807e-05
4.50450996216e-11
7.46275837243e-05
5.33199793293e-11
7.46275273768e-05
6.2332817749e-11
7.46274878891e-05
7.1772484314e-11
7.46274612718e-05
8.15833216378e-11
7.46274436782e-05
9.27007858975e-11
7.46274321192e-05
1.05038339809e-10
7.46274243685e-05
1.18539562642e-10
7.46274189017e-05
1.3323696318e-10
7.462741466e-05
1.49040648618e-10
7.4627410898e-05
1.65711745097e-10
7.46274070715e-05
1.82839654108e-10
7.46274027389e-05
1.99794023594e-10
7.46273975306e-05
2.15703961339e-10
7.46273912342e-05
2.29424318184e-10
7.46273835919e-05
2.3922723624e-10
7.46273742049e-05
2.42797586108e-10
7.46273624205e-05
2.37184383075e-10
7.46273471464e-05
2.18791507217e-10
7.46273267126e-05
1.83562681323e-10
7.46272998558e-05
1.27614627797e-10
7.4627256425e-05
3.46351055146e-11
7.46271633595e-05
-1.4898245413e-10
7.46270253709e-05
-4.61436325988e-10
7.46267985247e-05
-8.8264070682e-10
7.46264224468e-05
-1.46573347686e-09
7.46257999718e-05
-2.26364239978e-09
7.46247731662e-05
-3.34853509177e-09
7.46230840889e-05
-4.81385091259e-09
7.46203118444e-05
-6.77673649437e-09
7.46157941501e-05
-9.42214537294e-09
7.46084592858e-05
-1.29545277756e-08
7.45965537264e-05
-1.75784468923e-08
7.45772614793e-05
-2.35671224896e-08
7.45461743809e-05
-3.13727880688e-08
7.44964766673e-05
-4.16073059959e-08
7.44173633126e-05
-5.44042260039e-08
7.42923257308e-05
-6.99213191902e-08
7.40968027927e-05
-8.79057667944e-08
7.37956857856e-05
-1.07192106384e-07
7.33418573446e-05
-1.25005057575e-07
7.26781549592e-05
-1.36157510509e-07
7.17455531621e-05
-1.33447102658e-07
-1.0833498464e-07
7.0501217399e-05
5.07871716204e-05