/*--------------------------------*- C++ -*----------------------------------*\
| =========                 |                                                 |
| \\      /  F ield         | OpenFOAM: The Open Source CFD Toolbox           |
|  \\    /   O peration     | Version:  2106                                  |
|   \\  /    A nd           | Website:  www.openfoam.com                      |
|    \\/     M anipulation  |                                                 |
\*---------------------------------------------------------------------------*/
FoamFile
{
    version     2.0;
    format      ascii;
    arch        "LSB;label=32;scalar=64";
    class       volScalarField;
    location    "0.13";
    object      p;
}
// * * * * * * * * * * * * * * * * * * * * * * * * * * * * * * * * * * * * * //

dimensions      [1 -1 -2 0 0 0 0];

internalField   nonuniform List<scalar> 
800
(
1
1
1
1
1
1
1
1
1
1
1
1
1
1
1
1
1
1
1
1
1
1
1
1
1
1
1
1
1
1
1
1
1
1
1
1
1
1
1
1
1
1
1
1
1
1
1
1
1
1
1
1
1
1
1
1
1
1
1
1
1
1
1
1
1
1
1
1
1
1
1
1
1
1
1
1
1
1
1
1
1
1
1
1
1
1
1
1
1
1
1
1
1
1
1
1
1
1
1
1
1
1
1
1
1
1
1
1
1
1
1
1
1
1
1
1
1
1
1
1
1
1
1
1
1
1
1
1
1
1
1
1
1
1
1
1
1
1
1
1
1
1
1
1
1
1
1
1
1
1
1
1
1
1
1
1
1
1
1
1
1
1
1
1
1
1
1
1
1
1
1
1
1
1
1
1
1
1
1
1
1
1
1
1
1
1
1
1
1
1
1
1
1
1
1
1
1
1
1
1
1
1
1
1
1
1
1
1
1
1
1
1
1
1
1
1
1
1
1
1
1
1
1
1
1
1
1
1
1
1
1
1
1
1
1
1
1
1
1
1
1
1
1
1
1
1
1
0.999993
0.99958
0.995389
0.983793
0.969335
0.956599
0.946131
0.937206
0.929173
0.92163
0.914359
0.907249
0.900245
0.893321
0.886464
0.879668
0.872927
0.866241
0.859605
0.853019
0.846481
0.83999
0.833546
0.827146
0.820791
0.81448
0.808212
0.801987
0.795805
0.789664
0.783565
0.777507
0.771489
0.765513
0.759576
0.753679
0.747822
0.742004
0.736226
0.730486
0.724784
0.719121
0.713496
0.707909
0.702359
0.696846
0.691371
0.685932
0.68053
0.675165
0.669835
0.664542
0.659284
0.654062
0.648875
0.643723
0.638607
0.633524
0.628476
0.623463
0.618483
0.613538
0.608626
0.603747
0.598902
0.59409
0.58931
0.584563
0.579849
0.575167
0.570517
0.565898
0.561312
0.556757
0.552233
0.54774
0.543278
0.538847
0.534447
0.530077
0.525737
0.521427
0.517147
0.512896
0.508675
0.504484
0.500321
0.496188
0.492083
0.488007
0.483959
0.47994
0.475948
0.471985
0.46805
0.464142
0.460262
0.456409
0.452583
0.448784
0.445013
0.441268
0.437549
0.433857
0.430192
0.426552
0.422939
0.419351
0.415789
0.412253
0.408743
0.405257
0.401797
0.398362
0.394952
0.391567
0.388207
0.384872
0.381561
0.378274
0.375012
0.371773
0.368559
0.365369
0.362202
0.35906
0.355941
0.352845
0.349772
0.346723
0.343697
0.340694
0.337713
0.334755
0.33182
0.328906
0.326015
0.323145
0.320296
0.317468
0.314664
0.311893
0.309184
0.306607
0.304313
0.302534
0.301481
0.301106
0.301075
0.301294
0.301425
0.301402
0.301217
0.301124
0.30111
0.301124
0.301167
0.301204
0.301241
0.301284
0.301321
0.301352
0.301385
0.301435
0.301493
0.301541
0.301572
0.30159
0.301599
0.301604
0.30161
0.301629
0.301667
0.301705
0.301732
0.30175
0.301762
0.30177
0.301778
0.301792
0.301811
0.301822
0.301826
0.301823
0.301805
0.301771
0.301733
0.301703
0.301685
0.301676
0.301668
0.30166
0.301653
0.301646
0.301636
0.301624
0.301618
0.301618
0.301625
0.301632
0.301638
0.301647
0.301654
0.301655
0.301655
0.301662
0.301678
0.301691
0.301699
0.301706
0.301713
0.301716
0.301716
0.301723
0.301741
0.301759
0.301764
0.301764
0.301762
0.301754
0.301734
0.301714
0.301706
0.301702
0.301697
0.301689
0.301683
0.30168
0.30167
0.301658
0.301652
0.301659
0.301661
0.301656
0.301652
0.301653
0.301652
0.301647
0.301646
0.301662
0.301674
0.301675
0.301675
0.301683
0.301687
0.301684
0.301678
0.301693
0.301714
0.301718
0.301714
0.301724
0.301734
0.301732
0.301719
0.301716
0.301735
0.301735
0.301713
0.301704
0.301702
0.30169
0.301669
0.301657
0.301678
0.301686
0.301672
0.301667
0.301672
0.301676
0.301679
0.301721
0.301875
0.302142
0.302271
0.301919
0.302293
0.302615
0.30149
0.301065
0.301041
0.301045
0.301137
0.30145
0.302175
0.302764
0.302565
0.302288
0.301841
0.301267
0.300934
0.300908
0.300969
0.301299
0.302002
0.30244
0.302516
0.302521
0.302276
0.301645
0.301025
0.300915
0.300948
0.301103
0.301529
0.302143
0.302468
0.302449
0.30234
0.302035
0.301418
0.300993
0.300953
0.300983
0.301176
0.301701
0.302227
0.302361
0.302374
0.302251
0.301819
0.301208
0.301006
0.300992
0.301048
0.301322
0.301878
0.302283
0.302323
0.302279
0.3021
0.301647
0.301173
0.301039
0.301072
0.301174
0.301491
0.302025
0.302279
0.30229
0.302247
0.302023
0.301527
0.301181
0.301134
0.301142
0.301285
0.301689
0.302154
0.302257
0.302249
0.302172
0.301896
0.301422
0.301168
0.30116
0.301207
0.301383
0.30179
0.302119
0.302163
0.302144
0.302043
0.301725
0.301318
0.301191
0.301181
0.301236
0.301466
0.301882
0.302086
0.302103
0.302085
0.301939
0.301575
0.301282
0.301267
0.301323
0.301331
0.300916
0.294363
0.239623
0.12941
0.100488
0.1
0.1
0.1
0.1
0.1
0.1
0.1
0.1
0.1
0.1
0.1
0.1
0.1
0.1
0.1
0.1
0.1
0.1
0.1
0.1
0.1
0.1
0.1
0.1
0.1
0.1
0.1
0.1
0.1
0.1
0.1
0.1
0.1
0.1
0.1
0.1
0.1
0.1
0.1
0.1
0.1
0.1
0.1
0.1
0.1
0.1
0.1
0.1
0.1
0.1
0.1
0.1
0.1
0.1
0.1
0.1
0.1
0.1
0.1
0.1
0.1
0.1
0.1
0.1
0.1
0.1
0.1
0.1
0.1
0.1
0.1
0.1
0.1
0.1
0.1
0.1
0.1
0.1
0.1
0.1
0.1
0.1
0.1
0.1
0.1
0.1
0.1
0.1
0.1
0.1
0.1
0.1
0.1
0.1
0.1
0.1
0.1
0.1
0.1
0.1
0.1
0.1
0.1
0.1
0.1
0.1
0.1
0.1
0.1
0.1
0.1
0.1
0.1
0.1
0.1
0.1
0.1
0.1
0.1
0.1
0.1
0.1
0.1
0.1
0.1
0.1
0.1
0.1
0.1
0.1
0.1
0.1
0.1
0.1
0.1
0.1
0.1
0.1
0.1
0.1
0.1
0.1
0.1
0.1
0.1
0.1
0.1
0.1
0.1
0.1
0.1
0.1
0.1
0.1
0.1
0.1
0.1
0.1
0.1
0.1
0.1
0.1
0.1
0.1
0.1
0.1
0.1
0.1
0.1
)
;

boundaryField
{
    left
    {
        type            zeroGradient;
    }
    right
    {
        type            zeroGradient;
    }
    empty
    {
        type            empty;
    }
}


// ************************************************************************* //
