/*--------------------------------*- C++ -*----------------------------------*\
| =========                 |                                                 |
| \\      /  F ield         | OpenFOAM: The Open Source CFD Toolbox           |
|  \\    /   O peration     | Version:  2106                                  |
|   \\  /    A nd           | Website:  www.openfoam.com                      |
|    \\/     M anipulation  |                                                 |
\*---------------------------------------------------------------------------*/
FoamFile
{
    version     2.0;
    format      ascii;
    arch        "LSB;label=32;scalar=64";
    class       volScalarField;
    location    "0.13";
    object      rho;
}
// * * * * * * * * * * * * * * * * * * * * * * * * * * * * * * * * * * * * * //

dimensions      [1 -3 0 0 0 0 0];

internalField   nonuniform List<scalar> 
800
(
1.00435
1.00435
1.00435
1.00435
1.00435
1.00435
1.00435
1.00435
1.00435
1.00435
1.00435
1.00435
1.00435
1.00435
1.00435
1.00435
1.00435
1.00435
1.00435
1.00435
1.00435
1.00435
1.00435
1.00435
1.00435
1.00435
1.00435
1.00435
1.00435
1.00435
1.00435
1.00435
1.00435
1.00435
1.00435
1.00435
1.00435
1.00435
1.00435
1.00435
1.00435
1.00435
1.00435
1.00435
1.00435
1.00435
1.00435
1.00435
1.00435
1.00435
1.00435
1.00435
1.00435
1.00435
1.00435
1.00435
1.00435
1.00435
1.00435
1.00435
1.00435
1.00435
1.00435
1.00435
1.00435
1.00435
1.00435
1.00435
1.00435
1.00435
1.00435
1.00435
1.00435
1.00435
1.00435
1.00435
1.00435
1.00435
1.00435
1.00435
1.00435
1.00435
1.00435
1.00435
1.00435
1.00435
1.00435
1.00435
1.00435
1.00435
1.00435
1.00435
1.00435
1.00435
1.00435
1.00435
1.00435
1.00435
1.00435
1.00435
1.00435
1.00435
1.00435
1.00435
1.00435
1.00435
1.00435
1.00435
1.00435
1.00435
1.00435
1.00435
1.00435
1.00435
1.00435
1.00435
1.00435
1.00435
1.00435
1.00435
1.00435
1.00435
1.00435
1.00435
1.00435
1.00435
1.00435
1.00435
1.00435
1.00435
1.00435
1.00435
1.00435
1.00435
1.00435
1.00435
1.00435
1.00435
1.00435
1.00435
1.00435
1.00435
1.00435
1.00435
1.00435
1.00435
1.00435
1.00435
1.00435
1.00435
1.00435
1.00435
1.00435
1.00435
1.00435
1.00435
1.00435
1.00435
1.00435
1.00435
1.00435
1.00435
1.00435
1.00435
1.00435
1.00435
1.00435
1.00435
1.00435
1.00435
1.00435
1.00435
1.00435
1.00435
1.00435
1.00435
1.00435
1.00435
1.00435
1.00435
1.00435
1.00435
1.00435
1.00435
1.00435
1.00435
1.00435
1.00435
1.00435
1.00435
1.00435
1.00435
1.00435
1.00435
1.00435
1.00435
1.00435
1.00435
1.00435
1.00435
1.00435
1.00435
1.00435
1.00435
1.00435
1.00435
1.00435
1.00435
1.00435
1.00435
1.00435
1.00435
1.00435
1.00435
1.00435
1.00435
1.00435
1.00435
1.00435
1.00435
1.00435
1.00435
1.00435
1.00435
1.00435
1.00435
1.00435
1.00435
1.00435
1.00435
1.00435
1.00435
1.00435
1.00435
1.00435
1.00435
1.00435
1.00435
1.00435
1.00435
1.00435
1.00435
1.00435
1.00435
1.00435
1.00435
1.00435
1.00434
1.00405
1.00104
0.992695
0.982257
0.973025
0.965412
0.958901
0.953025
0.947494
0.942151
0.936914
0.931744
0.926621
0.921537
0.916487
0.911467
0.906476
0.901513
0.896575
0.891663
0.886776
0.881913
0.877073
0.872256
0.867462
0.86269
0.85794
0.853212
0.848506
0.843821
0.839157
0.834515
0.829893
0.825293
0.820713
0.816154
0.811615
0.807096
0.802598
0.79812
0.793662
0.789224
0.784806
0.780408
0.776029
0.77167
0.767331
0.763011
0.758711
0.754429
0.750167
0.745925
0.741701
0.737496
0.73331
0.729143
0.724995
0.720865
0.716754
0.712662
0.708588
0.704533
0.700495
0.696476
0.692476
0.688493
0.684528
0.680582
0.676653
0.672742
0.668849
0.664974
0.661116
0.657276
0.653453
0.649647
0.645859
0.642089
0.638335
0.634599
0.63088
0.627177
0.623492
0.619824
0.616172
0.612538
0.60892
0.605319
0.601734
0.598166
0.594614
0.591079
0.58756
0.584058
0.580571
0.577101
0.573647
0.57021
0.566788
0.563382
0.559993
0.556619
0.553261
0.549919
0.546593
0.543283
0.539988
0.536709
0.533446
0.530198
0.526966
0.523749
0.520548
0.517362
0.514192
0.511037
0.507898
0.504774
0.501665
0.498572
0.495494
0.492431
0.489384
0.486351
0.483334
0.480332
0.477345
0.474374
0.471417
0.468475
0.465548
0.462636
0.459739
0.456857
0.453989
0.451136
0.448296
0.44547
0.442658
0.439863
0.437093
0.434379
0.431791
0.429481
0.427687
0.426625
0.426243
0.426215
0.426436
0.426569
0.426546
0.426359
0.426263
0.426253
0.426268
0.426312
0.426349
0.426387
0.42643
0.426468
0.426499
0.426534
0.426586
0.426646
0.426695
0.426726
0.426744
0.426753
0.426758
0.426765
0.426786
0.426826
0.426866
0.426894
0.426913
0.426925
0.426933
0.426941
0.426956
0.426977
0.426991
0.426996
0.426993
0.426975
0.42694
0.426901
0.426871
0.426855
0.426847
0.426842
0.426835
0.42683
0.426823
0.426813
0.426802
0.426796
0.426798
0.426806
0.426815
0.426823
0.426834
0.426841
0.426843
0.426844
0.426851
0.426869
0.426883
0.426892
0.426901
0.42691
0.426915
0.426918
0.426926
0.426947
0.426966
0.426974
0.426975
0.426975
0.426968
0.42695
0.426932
0.426926
0.426925
0.426922
0.426915
0.42691
0.426907
0.426898
0.426887
0.426887
0.426896
0.426903
0.426902
0.426903
0.426908
0.426911
0.426909
0.426913
0.426932
0.42695
0.426953
0.426958
0.42697
0.426978
0.426978
0.426979
0.426996
0.427022
0.42703
0.427033
0.427046
0.427062
0.427065
0.427056
0.42706
0.427086
0.427096
0.427094
0.427115
0.427138
0.427131
0.427102
0.427058
0.426983
0.426746
0.426174
0.42499
0.422651
0.418236
0.410371
0.397303
0.37739
0.350275
0.318576
0.288755
0.269053
0.261026
0.258873
0.258543
0.258583
0.258743
0.259099
0.259722
0.260692
0.261574
0.261866
0.261963
0.261845
0.261558
0.261387
0.261387
0.26143
0.261613
0.261981
0.262161
0.262119
0.262023
0.261774
0.261282
0.260837
0.260737
0.260739
0.260848
0.261166
0.261621
0.261899
0.261972
0.261996
0.261876
0.261523
0.261263
0.261232
0.261224
0.261281
0.261529
0.26178
0.261802
0.261766
0.261653
0.261359
0.260993
0.260899
0.260924
0.261008
0.261239
0.261642
0.261934
0.261988
0.261987
0.261883
0.261582
0.261252
0.261132
0.2611
0.261103
0.261251
0.261555
0.261696
0.261699
0.261674
0.261555
0.261286
0.261115
0.261121
0.261161
0.261285
0.261567
0.261867
0.261933
0.261924
0.261856
0.261647
0.261311
0.261116
0.26108
0.261076
0.261166
0.261418
0.261629
0.261665
0.261672
0.261641
0.261475
0.261251
0.261199
0.261213
0.261266
0.261426
0.261681
0.261789
0.261777
0.261735
0.261607
0.261346
0.261148
0.26113
0.261158
0.261163
0.260913
0.256874
0.221855
0.145294
0.12382
0.123438
0.123438
0.123438
0.123438
0.123438
0.123438
0.123438
0.123438
0.123438
0.123438
0.123438
0.123438
0.123438
0.123438
0.123438
0.123438
0.123438
0.123438
0.123438
0.123438
0.123438
0.123438
0.123438
0.123438
0.123438
0.123438
0.123438
0.123438
0.123438
0.123438
0.123438
0.123438
0.123438
0.123438
0.123438
0.123438
0.123438
0.123438
0.123438
0.123438
0.123438
0.123438
0.123438
0.123438
0.123438
0.123438
0.123438
0.123438
0.123438
0.123438
0.123438
0.123438
0.123438
0.123438
0.123438
0.123438
0.123438
0.123438
0.123438
0.123438
0.123438
0.123438
0.123438
0.123438
0.123438
0.123438
0.123438
0.123438
0.123438
0.123438
0.123438
0.123438
0.123438
0.123438
0.123438
0.123438
0.123438
0.123438
0.123438
0.123438
0.123438
0.123438
0.123438
0.123438
0.123438
0.123438
0.123438
0.123438
0.123438
0.123438
0.123438
0.123438
0.123438
0.123438
0.123438
0.123438
0.123438
0.123438
0.123438
0.123438
0.123438
0.123438
0.123438
0.123438
0.123438
0.123438
0.123438
0.123438
0.123438
0.123438
0.123438
0.123438
0.123438
0.123438
0.123438
0.123438
0.123438
0.123438
0.123438
0.123438
0.123438
0.123438
0.123438
0.123438
0.123438
0.123438
0.123438
0.123438
0.123438
0.123438
0.123438
0.123438
0.123438
0.123438
0.123438
0.123438
0.123438
0.123438
0.123438
0.123438
0.123438
0.123438
0.123438
0.123438
0.123438
0.123438
0.123438
0.123438
0.123438
0.123438
0.123438
0.123438
0.123438
0.123438
0.123438
0.123438
0.123438
0.123438
0.123438
0.123438
0.123438
0.123438
0.123438
0.123438
0.123438
0.123438
0.123438
0.123438
0.123438
)
;

boundaryField
{
    left
    {
        type            calculated;
        value           uniform 0.123438;
    }
    right
    {
        type            calculated;
        value           uniform 1.00435;
    }
    empty
    {
        type            empty;
    }
}


// ************************************************************************* //
