/*--------------------------------*- C++ -*----------------------------------*\
| =========                 |                                                 |
| \\      /  F ield         | OpenFOAM: The Open Source CFD Toolbox           |
|  \\    /   O peration     | Version:  2106                                  |
|   \\  /    A nd           | Website:  www.openfoam.com                      |
|    \\/     M anipulation  |                                                 |
\*---------------------------------------------------------------------------*/
FoamFile
{
    version     2.0;
    format      ascii;
    arch        "LSB;label=32;scalar=64";
    class       volScalarField;
    location    "0.13";
    object      T;
}
// * * * * * * * * * * * * * * * * * * * * * * * * * * * * * * * * * * * * * //

dimensions      [0 0 0 1 0 0 0];

internalField   nonuniform List<scalar> 
800
(
0.003468
0.003468
0.003468
0.003468
0.003468
0.003468
0.003468
0.003468
0.003468
0.003468
0.003468
0.003468
0.003468
0.003468
0.003468
0.003468
0.003468
0.003468
0.003468
0.003468
0.003468
0.003468
0.003468
0.003468
0.003468
0.003468
0.003468
0.003468
0.003468
0.003468
0.003468
0.003468
0.003468
0.003468
0.003468
0.003468
0.003468
0.003468
0.003468
0.003468
0.003468
0.003468
0.003468
0.003468
0.003468
0.003468
0.003468
0.003468
0.003468
0.003468
0.003468
0.003468
0.003468
0.003468
0.003468
0.003468
0.003468
0.003468
0.003468
0.003468
0.003468
0.003468
0.003468
0.003468
0.003468
0.003468
0.003468
0.003468
0.003468
0.003468
0.003468
0.003468
0.003468
0.003468
0.003468
0.003468
0.003468
0.003468
0.003468
0.003468
0.003468
0.003468
0.003468
0.003468
0.003468
0.003468
0.003468
0.003468
0.003468
0.003468
0.003468
0.003468
0.003468
0.003468
0.003468
0.003468
0.003468
0.003468
0.003468
0.003468
0.003468
0.003468
0.003468
0.003468
0.003468
0.003468
0.003468
0.003468
0.003468
0.003468
0.003468
0.003468
0.003468
0.003468
0.003468
0.003468
0.003468
0.003468
0.003468
0.003468
0.003468
0.003468
0.003468
0.003468
0.003468
0.003468
0.003468
0.003468
0.003468
0.003468
0.003468
0.003468
0.003468
0.003468
0.003468
0.003468
0.003468
0.003468
0.003468
0.003468
0.003468
0.003468
0.003468
0.003468
0.003468
0.003468
0.003468
0.003468
0.003468
0.003468
0.003468
0.003468
0.003468
0.003468
0.003468
0.003468
0.003468
0.003468
0.003468
0.003468
0.003468
0.003468
0.003468
0.003468
0.003468
0.003468
0.003468
0.003468
0.003468
0.003468
0.003468
0.003468
0.003468
0.003468
0.003468
0.003468
0.003468
0.003468
0.003468
0.003468
0.003468
0.003468
0.003468
0.003468
0.003468
0.003468
0.003468
0.003468
0.003468
0.003468
0.003468
0.003468
0.003468
0.003468
0.003468
0.003468
0.003468
0.003468
0.003468
0.003468
0.003468
0.003468
0.003468
0.003468
0.003468
0.003468
0.003468
0.003468
0.003468
0.003468
0.003468
0.003468
0.003468
0.003468
0.003468
0.003468
0.003468
0.003468
0.003468
0.003468
0.003468
0.003468
0.003468
0.003468
0.003468
0.003468
0.003468
0.003468
0.003468
0.003468
0.003468
0.003468
0.003468
0.003468
0.003468
0.003468
0.003468
0.003468
0.003468
0.003468
0.003468
0.003468
0.003468
0.003468
0.003468
0.003468
0.003468
0.00346799
0.00346758
0.00346343
0.00345185
0.00343726
0.00342428
0.00341352
0.00340428
0.00339591
0.003388
0.00338034
0.0033728
0.00336533
0.00335791
0.00335052
0.00334315
0.00333581
0.00332848
0.00332117
0.00331387
0.00330659
0.00329932
0.00329206
0.00328481
0.00327758
0.00327035
0.00326313
0.00325593
0.00324873
0.00324154
0.00323436
0.00322719
0.00322003
0.00321288
0.00320573
0.0031986
0.00319147
0.00318435
0.00317724
0.00317013
0.00316304
0.00315595
0.00314887
0.0031418
0.00313474
0.00312768
0.00312064
0.0031136
0.00310657
0.00309954
0.00309253
0.00308552
0.00307852
0.00307153
0.00306454
0.00305756
0.0030506
0.00304363
0.00303668
0.00302973
0.00302279
0.00301586
0.00300894
0.00300202
0.00299511
0.00298821
0.00298132
0.00297443
0.00296755
0.00296068
0.00295382
0.00294696
0.00294011
0.00293327
0.00292643
0.00291961
0.00291279
0.00290597
0.00289917
0.00289237
0.00288558
0.0028788
0.00287202
0.00286525
0.00285849
0.00285173
0.00284499
0.00283824
0.00283151
0.00282478
0.00281807
0.00281135
0.00280465
0.00279795
0.00279126
0.00278458
0.0027779
0.00277123
0.00276457
0.00275792
0.00275127
0.00274463
0.002738
0.00273137
0.00272475
0.00271814
0.00271154
0.00270494
0.00269835
0.00269177
0.0026852
0.00267863
0.00267207
0.00266552
0.00265897
0.00265244
0.00264591
0.00263939
0.00263288
0.00262637
0.00261988
0.00261339
0.00260691
0.00260044
0.00259397
0.00258752
0.00258107
0.00257463
0.0025682
0.00256178
0.00255537
0.00254896
0.00254256
0.00253618
0.0025298
0.00252343
0.00251706
0.00251071
0.00250436
0.00249802
0.00249169
0.00248539
0.0024792
0.00247328
0.00246797
0.00246384
0.00246138
0.00246052
0.00246043
0.00246094
0.00246124
0.00246119
0.00246075
0.00246055
0.00246049
0.00246052
0.00246061
0.0024607
0.00246079
0.00246089
0.00246098
0.00246105
0.00246112
0.00246122
0.00246135
0.00246146
0.00246153
0.00246158
0.0024616
0.00246161
0.00246162
0.00246165
0.00246173
0.00246181
0.00246187
0.00246191
0.00246194
0.00246196
0.00246198
0.002462
0.00246204
0.00246205
0.00246205
0.00246204
0.002462
0.00246192
0.00246183
0.00246176
0.00246172
0.00246168
0.00246165
0.00246162
0.0024616
0.00246158
0.00246155
0.00246152
0.00246151
0.00246149
0.0024615
0.00246151
0.00246151
0.00246153
0.00246154
0.00246154
0.00246153
0.00246154
0.00246158
0.0024616
0.00246161
0.00246162
0.00246162
0.00246162
0.00246161
0.00246161
0.00246164
0.00246167
0.00246167
0.00246166
0.00246165
0.00246162
0.00246156
0.0024615
0.00246147
0.00246145
0.00246143
0.0024614
0.00246138
0.00246137
0.00246134
0.00246131
0.00246126
0.00246126
0.00246124
0.0024612
0.00246116
0.00246115
0.00246112
0.00246109
0.00246106
0.00246108
0.00246108
0.00246106
0.00246104
0.00246104
0.00246102
0.00246099
0.00246095
0.00246096
0.00246099
0.00246097
0.00246092
0.00246093
0.00246092
0.00246089
0.00246083
0.00246078
0.00246079
0.00246073
0.00246057
0.00246037
0.00246022
0.00246016
0.00246016
0.00246031
0.00246092
0.00246235
0.00246554
0.00247237
0.00248609
0.00251237
0.00256054
0.00264514
0.00278612
0.00300446
0.00330482
0.00364188
0.0039134
0.00403804
0.0040565
0.00405594
0.00405499
0.00405253
0.00404821
0.00404269
0.00403734
0.00403156
0.00402442
0.00401925
0.00401512
0.00401187
0.00401006
0.00400972
0.00400986
0.00401147
0.00401517
0.00401823
0.0040199
0.00402143
0.00402199
0.00402114
0.00401973
0.0040198
0.00402023
0.00402062
0.0040214
0.00402256
0.00402263
0.00402124
0.00401943
0.00401721
0.00401442
0.00401275
0.0040127
0.00401322
0.00401491
0.00401811
0.00402125
0.00402269
0.00402343
0.00402352
0.00402229
0.00401977
0.00401854
0.00401795
0.00401741
0.0040175
0.00401873
0.00401961
0.00401934
0.00401875
0.00401797
0.00401657
0.00401532
0.00401538
0.00401631
0.00401764
0.00401959
0.00402202
0.00402322
0.00402333
0.00402314
0.00402199
0.00401952
0.00401754
0.00401681
0.00401632
0.00401631
0.00401736
0.00401895
0.0040193
0.00401933
0.00401934
0.00401888
0.00401773
0.00401735
0.0040178
0.00401849
0.00401944
0.00402099
0.00402212
0.00402216
0.0040218
0.00402094
0.00401925
0.00401727
0.00401637
0.00401603
0.00401596
0.00401656
0.00401818
0.00401923
0.00401964
0.00402005
0.00402007
0.00401923
0.00401838
0.00401845
0.00401877
0.00401878
0.0040171
0.00399141
0.00376203
0.00310231
0.00282673
0.00282173
0.00282173
0.00282173
0.00282173
0.00282173
0.00282173
0.00282173
0.00282173
0.00282173
0.00282173
0.00282173
0.00282173
0.00282173
0.00282173
0.00282173
0.00282173
0.00282173
0.00282173
0.00282173
0.00282173
0.00282173
0.00282173
0.00282173
0.00282173
0.00282173
0.00282173
0.00282173
0.00282173
0.00282173
0.00282173
0.00282173
0.00282173
0.00282173
0.00282173
0.00282173
0.00282173
0.00282173
0.00282173
0.00282173
0.00282173
0.00282173
0.00282173
0.00282173
0.00282173
0.00282173
0.00282173
0.00282173
0.00282173
0.00282173
0.00282173
0.00282173
0.00282173
0.00282173
0.00282173
0.00282173
0.00282173
0.00282173
0.00282173
0.00282173
0.00282173
0.00282173
0.00282173
0.00282173
0.00282173
0.00282173
0.00282173
0.00282173
0.00282173
0.00282173
0.00282173
0.00282173
0.00282173
0.00282173
0.00282173
0.00282173
0.00282173
0.00282173
0.00282173
0.00282173
0.00282173
0.00282173
0.00282173
0.00282173
0.00282173
0.00282173
0.00282173
0.00282173
0.00282173
0.00282173
0.00282173
0.00282173
0.00282173
0.00282173
0.00282173
0.00282173
0.00282173
0.00282173
0.00282173
0.00282173
0.00282173
0.00282173
0.00282173
0.00282173
0.00282173
0.00282173
0.00282173
0.00282173
0.00282173
0.00282173
0.00282173
0.00282173
0.00282173
0.00282173
0.00282173
0.00282173
0.00282173
0.00282173
0.00282173
0.00282173
0.00282173
0.00282173
0.00282173
0.00282173
0.00282173
0.00282173
0.00282173
0.00282173
0.00282173
0.00282173
0.00282173
0.00282173
0.00282173
0.00282173
0.00282173
0.00282173
0.00282173
0.00282173
0.00282173
0.00282173
0.00282173
0.00282173
0.00282173
0.00282173
0.00282173
0.00282173
0.00282173
0.00282173
0.00282173
0.00282173
0.00282173
0.00282173
0.00282173
0.00282173
0.00282173
0.00282173
0.00282173
0.00282173
0.00282173
0.00282173
0.00282173
0.00282173
0.00282173
0.00282173
0.00282173
0.00282173
0.00282173
0.00282173
0.00282173
0.00282173
)
;

boundaryField
{
    left
    {
        type            zeroGradient;
    }
    right
    {
        type            zeroGradient;
    }
    empty
    {
        type            empty;
    }
}


// ************************************************************************* //
