/*--------------------------------*- C++ -*----------------------------------*\
| =========                 |                                                 |
| \\      /  F ield         | OpenFOAM: The Open Source CFD Toolbox           |
|  \\    /   O peration     | Version:  2106                                  |
|   \\  /    A nd           | Website:  www.openfoam.com                      |
|    \\/     M anipulation  |                                                 |
\*---------------------------------------------------------------------------*/
FoamFile
{
    version     2.0;
    format      ascii;
    arch        "LSB;label=32;scalar=64";
    class       volVectorField;
    location    "0.13";
    object      U;
}
// * * * * * * * * * * * * * * * * * * * * * * * * * * * * * * * * * * * * * //

dimensions      [0 1 -1 0 0 0 0];

internalField   nonuniform List<vector> 
800
(
(8.49749e-12 0 0)
(9.05009e-11 0 0)
(2.53984e-10 0 0)
(3.33223e-10 0 0)
(4.18205e-10 0 0)
(5.16002e-10 0 0)
(5.3573e-10 0 0)
(4.80096e-10 0 0)
(3.81041e-10 0 0)
(2.23436e-10 0 0)
(4.8959e-11 0 0)
(-4.47901e-11 0 0)
(-1.20839e-10 0 0)
(-1.61527e-10 0 0)
(-1.46011e-10 0 0)
(-8.75277e-11 0 0)
(-1.97251e-11 0 0)
(1.01998e-11 0 0)
(-5.72259e-11 0 0)
(-1.28901e-10 0 0)
(-1.39002e-10 0 0)
(-1.1184e-10 0 0)
(3.34571e-12 0 0)
(1.42741e-10 0 0)
(2.31617e-10 0 0)
(2.37177e-10 0 0)
(2.04338e-10 0 0)
(1.5366e-10 0 0)
(8.04398e-11 0 0)
(2.35316e-11 0 0)
(-3.18345e-11 0 0)
(-4.03066e-11 0 0)
(-7.04312e-11 0 0)
(-1.19688e-10 0 0)
(-1.79233e-10 0 0)
(-1.98295e-10 0 0)
(-2.066e-10 0 0)
(-1.96005e-10 0 0)
(-1.67158e-10 0 0)
(-1.49817e-10 0 0)
(-1.08251e-10 0 0)
(-9.43429e-11 0 0)
(-9.17958e-11 0 0)
(-1.32629e-10 0 0)
(-1.08443e-10 0 0)
(-6.31583e-11 0 0)
(-5.48931e-11 0 0)
(1.06589e-11 0 0)
(7.54709e-11 0 0)
(1.50227e-10 0 0)
(1.44755e-10 0 0)
(1.12479e-10 0 0)
(7.55309e-11 0 0)
(-8.26898e-12 0 0)
(-2.90738e-11 0 0)
(-7.70964e-11 0 0)
(-6.72263e-11 0 0)
(-4.70106e-11 0 0)
(-2.20664e-10 0 0)
(-3.395e-10 0 0)
(-4.02419e-10 0 0)
(-2.75316e-10 0 0)
(-1.91026e-10 0 0)
(-1.62432e-10 0 0)
(-7.70469e-11 0 0)
(-1.00313e-10 0 0)
(-1.98455e-10 0 0)
(-1.69438e-10 0 0)
(-1.41839e-10 0 0)
(-1.22815e-10 0 0)
(-1.50761e-10 0 0)
(-1.98161e-10 0 0)
(-2.43587e-10 0 0)
(-1.97832e-10 0 0)
(-8.13683e-11 0 0)
(-1.01561e-11 0 0)
(3.114e-11 0 0)
(4.89248e-11 0 0)
(8.55444e-11 0 0)
(2.44119e-11 0 0)
(2.50865e-13 0 0)
(1.4715e-11 0 0)
(-6.71537e-12 0 0)
(-4.70867e-11 0 0)
(-6.47915e-11 0 0)
(-1.2703e-10 0 0)
(-1.84937e-10 0 0)
(-2.40198e-10 0 0)
(-2.27018e-10 0 0)
(-2.14775e-10 0 0)
(-1.99649e-10 0 0)
(-1.63335e-10 0 0)
(-1.03657e-10 0 0)
(-1.29811e-10 0 0)
(-1.8321e-10 0 0)
(-1.30886e-10 0 0)
(-1.75017e-10 0 0)
(-2.14682e-10 0 0)
(-1.59148e-10 0 0)
(-1.45823e-10 0 0)
(-1.1233e-10 0 0)
(-2.95216e-11 0 0)
(-5.29849e-11 0 0)
(-1.07958e-10 0 0)
(-1.30529e-10 0 0)
(-1.48407e-10 0 0)
(-1.11994e-10 0 0)
(-7.22043e-11 0 0)
(-6.45992e-11 0 0)
(-5.62282e-11 0 0)
(-2.56832e-11 0 0)
(8.72779e-12 0 0)
(1.31906e-11 0 0)
(1.40015e-11 0 0)
(-2.27277e-11 0 0)
(-5.4553e-11 0 0)
(-9.41073e-11 0 0)
(-1.13342e-10 0 0)
(-1.23171e-10 0 0)
(-1.7587e-10 0 0)
(-2.54579e-10 0 0)
(-3.12173e-10 0 0)
(-3.22438e-10 0 0)
(-3.24539e-10 0 0)
(-2.92577e-10 0 0)
(-1.72643e-10 0 0)
(-4.50874e-11 0 0)
(5.07272e-12 0 0)
(-1.01873e-11 0 0)
(-2.60093e-11 0 0)
(-3.22039e-11 0 0)
(-5.56363e-11 0 0)
(-6.28688e-11 0 0)
(-7.0481e-11 0 0)
(-9.34835e-11 0 0)
(-1.33536e-10 0 0)
(-2.07878e-10 0 0)
(-2.85528e-10 0 0)
(-3.22668e-10 0 0)
(-2.78706e-10 0 0)
(-2.13969e-10 0 0)
(-1.70714e-10 0 0)
(-1.41845e-10 0 0)
(-1.65274e-10 0 0)
(-2.00814e-10 0 0)
(-1.57509e-10 0 0)
(-9.25296e-11 0 0)
(-4.31259e-11 0 0)
(2.75121e-11 0 0)
(1.01316e-10 0 0)
(1.58252e-10 0 0)
(1.3577e-10 0 0)
(1.30645e-10 0 0)
(1.31884e-10 0 0)
(1.46687e-10 0 0)
(1.72101e-10 0 0)
(1.72325e-10 0 0)
(9.20591e-11 0 0)
(-1.31071e-11 0 0)
(-5.82236e-11 0 0)
(-1.0755e-10 0 0)
(-1.22265e-10 0 0)
(-2.14363e-10 0 0)
(-2.35294e-10 0 0)
(-2.03511e-10 0 0)
(-1.68076e-10 0 0)
(-9.7587e-11 0 0)
(-3.68221e-11 0 0)
(4.41426e-11 0 0)
(7.36391e-11 0 0)
(7.55684e-11 0 0)
(8.86296e-11 0 0)
(1.47575e-10 0 0)
(2.35354e-10 0 0)
(3.25825e-10 0 0)
(3.65163e-10 0 0)
(3.75161e-10 0 0)
(3.52538e-10 0 0)
(3.47236e-10 0 0)
(3.85837e-10 0 0)
(3.48582e-10 0 0)
(3.38108e-10 0 0)
(3.18871e-10 0 0)
(2.79566e-10 0 0)
(2.52724e-10 0 0)
(2.34926e-10 0 0)
(2.15993e-10 0 0)
(1.19465e-10 0 0)
(8.52553e-11 0 0)
(4.7161e-11 0 0)
(8.85457e-13 0 0)
(-1.05543e-11 0 0)
(2.07714e-11 0 0)
(4.19677e-11 0 0)
(2.31794e-11 0 0)
(2.31349e-11 0 0)
(-4.21612e-12 0 0)
(-3.93403e-12 0 0)
(4.06586e-11 0 0)
(3.65158e-11 0 0)
(-5.91508e-11 0 0)
(-1.31074e-10 0 0)
(-1.34685e-10 0 0)
(-1.22676e-10 0 0)
(-6.2523e-11 0 0)
(-1.33558e-12 0 0)
(-4.98043e-12 0 0)
(-2.13184e-11 0 0)
(1.88336e-11 0 0)
(6.94432e-11 0 0)
(7.45448e-11 0 0)
(2.57308e-11 0 0)
(-5.177e-11 0 0)
(-6.93687e-11 0 0)
(-2.44452e-11 0 0)
(-8.9439e-11 0 0)
(-1.57917e-10 0 0)
(-1.63857e-10 0 0)
(-1.29046e-10 0 0)
(-1.2638e-10 0 0)
(-1.00011e-10 0 0)
(-2.13227e-11 0 0)
(6.85381e-11 0 0)
(1.25777e-10 0 0)
(1.78364e-10 0 0)
(1.99507e-10 0 0)
(1.57619e-10 0 0)
(1.72497e-10 0 0)
(2.11687e-10 0 0)
(1.56795e-10 0 0)
(6.05453e-11 0 0)
(2.4474e-11 0 0)
(-1.4411e-11 0 0)
(-1.15578e-10 0 0)
(-1.51132e-10 0 0)
(-1.62702e-10 0 0)
(-2.16158e-10 0 0)
(-3.1531e-10 0 0)
(-3.8429e-10 0 0)
(-4.81483e-10 0 0)
(-5.98889e-10 0 0)
(-7.71717e-10 0 0)
(-9.91168e-10 0 0)
(-1.1306e-09 0 0)
(-1.18067e-09 0 0)
(-1.07366e-09 0 0)
(7.19432e-09 0 0)
(5.56564e-06 0 0)
(0.000354186 0 0)
(0.00389514 0 0)
(0.0137564 0 0)
(0.0261952 0 0)
(0.0372903 0 0)
(0.0465057 0 0)
(0.0544317 0 0)
(0.0616211 0 0)
(0.0684197 0 0)
(0.075018 0 0)
(0.081514 0 0)
(0.0879557 0 0)
(0.0943661 0 0)
(0.100756 0 0)
(0.107132 0 0)
(0.113498 0 0)
(0.119854 0 0)
(0.126204 0 0)
(0.132547 0 0)
(0.138886 0 0)
(0.145221 0 0)
(0.151553 0 0)
(0.157881 0 0)
(0.164208 0 0)
(0.170532 0 0)
(0.176855 0 0)
(0.183177 0 0)
(0.189497 0 0)
(0.195816 0 0)
(0.202134 0 0)
(0.208451 0 0)
(0.214768 0 0)
(0.221084 0 0)
(0.2274 0 0)
(0.233715 0 0)
(0.24003 0 0)
(0.246345 0 0)
(0.252659 0 0)
(0.258973 0 0)
(0.265287 0 0)
(0.271601 0 0)
(0.277915 0 0)
(0.284229 0 0)
(0.290542 0 0)
(0.296856 0 0)
(0.30317 0 0)
(0.309484 0 0)
(0.315798 0 0)
(0.322112 0 0)
(0.328427 0 0)
(0.334741 0 0)
(0.341056 0 0)
(0.34737 0 0)
(0.353686 0 0)
(0.360001 0 0)
(0.366316 0 0)
(0.372632 0 0)
(0.378949 0 0)
(0.385265 0 0)
(0.391582 0 0)
(0.397899 0 0)
(0.404217 0 0)
(0.410535 0 0)
(0.416853 0 0)
(0.423172 0 0)
(0.429491 0 0)
(0.435811 0 0)
(0.442131 0 0)
(0.448452 0 0)
(0.454773 0 0)
(0.461095 0 0)
(0.467417 0 0)
(0.47374 0 0)
(0.480064 0 0)
(0.486388 0 0)
(0.492713 0 0)
(0.499038 0 0)
(0.505364 0 0)
(0.511691 0 0)
(0.518019 0 0)
(0.524347 0 0)
(0.530676 0 0)
(0.537005 0 0)
(0.543336 0 0)
(0.549667 0 0)
(0.555999 0 0)
(0.562331 0 0)
(0.568665 0 0)
(0.574999 0 0)
(0.581334 0 0)
(0.58767 0 0)
(0.594006 0 0)
(0.600344 0 0)
(0.606682 0 0)
(0.613021 0 0)
(0.619361 0 0)
(0.625701 0 0)
(0.632043 0 0)
(0.638385 0 0)
(0.644728 0 0)
(0.651072 0 0)
(0.657416 0 0)
(0.663761 0 0)
(0.670107 0 0)
(0.676454 0 0)
(0.682801 0 0)
(0.689149 0 0)
(0.695498 0 0)
(0.701847 0 0)
(0.708197 0 0)
(0.714547 0 0)
(0.720898 0 0)
(0.727249 0 0)
(0.7336 0 0)
(0.739952 0 0)
(0.746304 0 0)
(0.752656 0 0)
(0.759008 0 0)
(0.765361 0 0)
(0.771713 0 0)
(0.778065 0 0)
(0.784418 0 0)
(0.79077 0 0)
(0.797122 0 0)
(0.803473 0 0)
(0.809824 0 0)
(0.816175 0 0)
(0.822526 0 0)
(0.828876 0 0)
(0.835225 0 0)
(0.841574 0 0)
(0.847922 0 0)
(0.85427 0 0)
(0.860618 0 0)
(0.866965 0 0)
(0.873313 0 0)
(0.879661 0 0)
(0.886011 0 0)
(0.892362 0 0)
(0.898707 0 0)
(0.905025 0 0)
(0.911249 0 0)
(0.917212 0 0)
(0.92256 0 0)
(0.926729 0 0)
(0.929207 0 0)
(0.930095 0 0)
(0.930166 0 0)
(0.929651 0 0)
(0.929342 0 0)
(0.929395 0 0)
(0.929829 0 0)
(0.930053 0 0)
(0.930086 0 0)
(0.930051 0 0)
(0.929951 0 0)
(0.929864 0 0)
(0.929774 0 0)
(0.929673 0 0)
(0.929584 0 0)
(0.929512 0 0)
(0.929432 0 0)
(0.929315 0 0)
(0.929178 0 0)
(0.929066 0 0)
(0.928994 0 0)
(0.928955 0 0)
(0.928937 0 0)
(0.928926 0 0)
(0.928909 0 0)
(0.928859 0 0)
(0.928767 0 0)
(0.928676 0 0)
(0.928614 0 0)
(0.928573 0 0)
(0.928546 0 0)
(0.928527 0 0)
(0.928508 0 0)
(0.928475 0 0)
(0.928431 0 0)
(0.928402 0 0)
(0.928395 0 0)
(0.928402 0 0)
(0.928445 0 0)
(0.928526 0 0)
(0.928615 0 0)
(0.928685 0 0)
(0.928726 0 0)
(0.928749 0 0)
(0.928768 0 0)
(0.928787 0 0)
(0.928802 0 0)
(0.928817 0 0)
(0.928839 0 0)
(0.928867 0 0)
(0.928881 0 0)
(0.928879 0 0)
(0.928861 0 0)
(0.928846 0 0)
(0.928833 0 0)
(0.928817 0 0)
(0.928804 0 0)
(0.928801 0 0)
(0.9288 0 0)
(0.928782 0 0)
(0.928741 0 0)
(0.928708 0 0)
(0.928689 0 0)
(0.928671 0 0)
(0.928655 0 0)
(0.92865 0 0)
(0.928649 0 0)
(0.928638 0 0)
(0.928591 0 0)
(0.928552 0 0)
(0.928535 0 0)
(0.928535 0 0)
(0.928539 0 0)
(0.928559 0 0)
(0.928608 0 0)
(0.928656 0 0)
(0.928676 0 0)
(0.928683 0 0)
(0.928693 0 0)
(0.928712 0 0)
(0.928726 0 0)
(0.928736 0 0)
(0.928758 0 0)
(0.928788 0 0)
(0.928795 0 0)
(0.928779 0 0)
(0.928773 0 0)
(0.928783 0 0)
(0.928792 0 0)
(0.92879 0 0)
(0.928796 0 0)
(0.928814 0 0)
(0.928818 0 0)
(0.928783 0 0)
(0.928747 0 0)
(0.928742 0 0)
(0.928737 0 0)
(0.928714 0 0)
(0.928703 0 0)
(0.928714 0 0)
(0.928726 0 0)
(0.928699 0 0)
(0.928652 0 0)
(0.928646 0 0)
(0.92865 0 0)
(0.928627 0 0)
(0.928599 0 0)
(0.928602 0 0)
(0.928633 0 0)
(0.928636 0 0)
(0.928593 0 0)
(0.928597 0 0)
(0.928648 0 0)
(0.928672 0 0)
(0.928681 0 0)
(0.928697 0 0)
(0.928751 0 0)
(0.928779 0 0)
(0.928729 0 0)
(0.928712 0 0)
(0.928748 0 0)
(0.928765 0 0)
(0.928761 0 0)
(0.928779 0 0)
(0.92886 0 0)
(0.928995 0 0)
(0.929191 0 0)
(0.929706 0 0)
(0.930082 0 0)
(0.929344 0 0)
(0.930685 0 0)
(0.931778 0 0)
(0.928258 0 0)
(0.926975 0 0)
(0.926848 0 0)
(0.926813 0 0)
(0.927051 0 0)
(0.928 0 0)
(0.930182 0 0)
(0.931938 0 0)
(0.931412 0 0)
(0.930479 0 0)
(0.929146 0 0)
(0.927403 0 0)
(0.926388 0 0)
(0.926292 0 0)
(0.926462 0 0)
(0.927438 0 0)
(0.929535 0 0)
(0.930803 0 0)
(0.931046 0 0)
(0.931051 0 0)
(0.930291 0 0)
(0.928394 0 0)
(0.926543 0 0)
(0.926216 0 0)
(0.92635 0 0)
(0.926844 0 0)
(0.928157 0 0)
(0.93002 0 0)
(0.931015 0 0)
(0.931014 0 0)
(0.930679 0 0)
(0.929789 0 0)
(0.92795 0 0)
(0.926687 0 0)
(0.926572 0 0)
(0.926677 0 0)
(0.927265 0 0)
(0.928856 0 0)
(0.930431 0 0)
(0.930853 0 0)
(0.9309 0 0)
(0.930526 0 0)
(0.929237 0 0)
(0.927404 0 0)
(0.926801 0 0)
(0.926742 0 0)
(0.926917 0 0)
(0.92774 0 0)
(0.929409 0 0)
(0.930608 0 0)
(0.930732 0 0)
(0.930581 0 0)
(0.930034 0 0)
(0.92866 0 0)
(0.927227 0 0)
(0.926802 0 0)
(0.926877 0 0)
(0.927183 0 0)
(0.928123 0 0)
(0.929716 0 0)
(0.93047 0 0)
(0.930492 0 0)
(0.930351 0 0)
(0.929666 0 0)
(0.928154 0 0)
(0.927113 0 0)
(0.926933 0 0)
(0.926944 0 0)
(0.927365 0 0)
(0.928569 0 0)
(0.929961 0 0)
(0.93027 0 0)
(0.930253 0 0)
(0.930036 0 0)
(0.929229 0 0)
(0.927827 0 0)
(0.927093 0 0)
(0.927078 0 0)
(0.927251 0 0)
(0.927796 0 0)
(0.929037 0 0)
(0.930033 0 0)
(0.930182 0 0)
(0.930134 0 0)
(0.92984 0 0)
(0.928892 0 0)
(0.927676 0 0)
(0.927297 0 0)
(0.927269 0 0)
(0.927447 0 0)
(0.928141 0 0)
(0.9294 0 0)
(0.930008 0 0)
(0.930077 0 0)
(0.930024 0 0)
(0.929581 0 0)
(0.928485 0 0)
(0.927601 0 0)
(0.92755 0 0)
(0.927712 0 0)
(0.927724 0 0)
(0.926471 0 0)
(0.907114 0 0)
(0.728791 0 0)
(0.204541 0 0)
(0.0037022 0 0)
(1.74103e-06 0 0)
(-3.1727e-10 0 0)
(-3.03033e-10 0 0)
(-2.97147e-10 0 0)
(-2.55946e-10 0 0)
(-2.43373e-10 0 0)
(-2.43941e-10 0 0)
(-1.94546e-10 0 0)
(-1.45597e-10 0 0)
(-1.6007e-10 0 0)
(-1.85598e-10 0 0)
(-1.87445e-10 0 0)
(-2.74734e-11 0 0)
(5.47362e-11 0 0)
(8.31751e-11 0 0)
(1.76329e-11 0 0)
(-8.46515e-11 0 0)
(-6.58844e-11 0 0)
(-5.78423e-11 0 0)
(-1.33596e-10 0 0)
(-2.18816e-10 0 0)
(-2.26977e-10 0 0)
(-1.79294e-10 0 0)
(-8.40311e-11 0 0)
(3.05387e-11 0 0)
(1.22708e-10 0 0)
(1.42415e-10 0 0)
(1.13475e-10 0 0)
(6.03453e-11 0 0)
(2.20899e-11 0 0)
(-3.69186e-12 0 0)
(3.90111e-11 0 0)
(1.57693e-10 0 0)
(1.31811e-10 0 0)
(1.26415e-10 0 0)
(1.4535e-10 0 0)
(2.07955e-10 0 0)
(1.98121e-10 0 0)
(1.20786e-10 0 0)
(1.32234e-10 0 0)
(9.94866e-11 0 0)
(3.67266e-11 0 0)
(-6.757e-11 0 0)
(-1.54494e-11 0 0)
(6.35864e-11 0 0)
(1.07741e-10 0 0)
(1.39256e-10 0 0)
(1.82041e-10 0 0)
(2.1144e-10 0 0)
(2.05959e-10 0 0)
(7.96226e-11 0 0)
(4.8768e-12 0 0)
(-6.9284e-11 0 0)
(-1.42749e-10 0 0)
(-1.59095e-10 0 0)
(-1.8301e-10 0 0)
(-1.89562e-10 0 0)
(-8.84529e-11 0 0)
(4.95015e-11 0 0)
(1.02864e-10 0 0)
(1.04496e-10 0 0)
(5.81716e-11 0 0)
(-5.79529e-11 0 0)
(-1.07314e-10 0 0)
(-8.35636e-11 0 0)
(-6.56862e-11 0 0)
(-7.82803e-11 0 0)
(-8.34247e-11 0 0)
(-9.17743e-11 0 0)
(-1.17373e-10 0 0)
(-5.03708e-11 0 0)
(-4.61319e-11 0 0)
(-9.80372e-11 0 0)
(-3.40873e-11 0 0)
(8.69852e-11 0 0)
(2.32375e-10 0 0)
(3.53035e-10 0 0)
(3.11739e-10 0 0)
(2.27784e-10 0 0)
(1.80885e-10 0 0)
(1.52282e-10 0 0)
(1.1918e-10 0 0)
(7.55615e-11 0 0)
(-1.20212e-11 0 0)
(2.10229e-11 0 0)
(1.21895e-10 0 0)
(1.24868e-10 0 0)
(6.38515e-11 0 0)
(-6.65146e-13 0 0)
(-2.88586e-11 0 0)
(1.0054e-11 0 0)
(2.03484e-11 0 0)
(2.05427e-11 0 0)
(2.36971e-11 0 0)
(-6.32121e-11 0 0)
(-1.28749e-10 0 0)
(-1.65788e-10 0 0)
(-1.63984e-10 0 0)
(-1.76224e-10 0 0)
(-1.73133e-10 0 0)
(-1.59931e-10 0 0)
(-8.97907e-11 0 0)
(-7.18053e-12 0 0)
(-1.48093e-11 0 0)
(-1.67268e-11 0 0)
(-4.57155e-11 0 0)
(-9.88631e-11 0 0)
(-1.50278e-10 0 0)
(-1.81954e-10 0 0)
(-1.40677e-10 0 0)
(-7.60388e-11 0 0)
(-3.46756e-11 0 0)
(-6.36956e-11 0 0)
(-4.95665e-11 0 0)
(-9.68372e-11 0 0)
(-1.41277e-10 0 0)
(-6.98532e-11 0 0)
(6.24258e-11 0 0)
(1.56647e-10 0 0)
(1.91293e-10 0 0)
(1.8803e-10 0 0)
(1.58409e-10 0 0)
(1.36543e-10 0 0)
(1.23293e-10 0 0)
(9.83374e-11 0 0)
(9.25687e-11 0 0)
(1.00884e-10 0 0)
(1.2103e-10 0 0)
(1.36282e-10 0 0)
(1.21104e-10 0 0)
(1.22071e-10 0 0)
(1.14495e-10 0 0)
(1.31061e-10 0 0)
(1.31754e-10 0 0)
(7.06434e-11 0 0)
(2.22275e-11 0 0)
(1.43665e-12 0 0)
(-6.7832e-11 0 0)
(-9.80697e-11 0 0)
(-5.39609e-11 0 0)
(-1.82188e-11 0 0)
(4.28411e-11 0 0)
(9.3698e-11 0 0)
(1.33059e-10 0 0)
(1.77531e-10 0 0)
(1.88015e-10 0 0)
(1.83902e-10 0 0)
(1.3328e-10 0 0)
(7.67912e-11 0 0)
(8.15044e-11 0 0)
(1.00851e-11 0 0)
(1.75586e-11 0 0)
(4.27795e-11 0 0)
(1.68509e-11 0 0)
(1.65214e-11 0 0)
(-2.59903e-11 0 0)
(-8.33444e-11 0 0)
(-5.36186e-11 0 0)
(-4.61466e-11 0 0)
(-4.70647e-11 0 0)
(-5.69406e-11 0 0)
(-1.31309e-10 0 0)
(-9.45458e-11 0 0)
(5.17224e-12 0 0)
(5.27994e-11 0 0)
(2.86952e-11 0 0)
(1.07354e-11 0 0)
(7.98233e-12 0 0)
(1.5643e-11 0 0)
)
;

boundaryField
{
    left
    {
        type            noSlip;
    }
    right
    {
        type            noSlip;
    }
    empty
    {
        type            empty;
    }
}


// ************************************************************************* //
