/*--------------------------------*- C++ -*----------------------------------*\
| =========                 |                                                 |
| \\      /  F ield         | OpenFOAM: The Open Source CFD Toolbox           |
|  \\    /   O peration     | Version:  2106                                  |
|   \\  /    A nd           | Website:  www.openfoam.com                      |
|    \\/     M anipulation  |                                                 |
\*---------------------------------------------------------------------------*/
FoamFile
{
    version     2.0;
    format      ascii;
    arch        "LSB;label=32;scalar=64";
    class       surfaceScalarField;
    location    "0.18";
    object      phi;
}
// * * * * * * * * * * * * * * * * * * * * * * * * * * * * * * * * * * * * * //

dimensions      [0 3 -1 0 0 0 0];

oriented        oriented;

internalField   nonuniform List<scalar> 
18840
(
3.3754304429e-05
1.62456955714e-05
2.2535962811e-05
1.12183418457e-05
1.6302378518e-05
6.23358445658e-06
1.28098257071e-05
3.4925529249e-06
1.08065805878e-05
2.0032451613e-06
9.60476966978e-06
1.20181090101e-06
8.85167904578e-06
7.53090540663e-07
8.36503115021e-06
4.86647801129e-07
8.04518657402e-06
3.19844479318e-07
7.83374245156e-06
2.11444051168e-07
7.6942826618e-06
1.39459870165e-07
7.6030811975e-06
9.12016105447e-08
7.54426648015e-06
5.88148794638e-08
7.50707842215e-06
3.71882877659e-08
7.4841905903e-06
2.28879846463e-08
7.47062511514e-06
1.35655778118e-08
7.46302252637e-06
7.60257348847e-09
7.45913970061e-06
3.88274628744e-09
7.45749989452e-06
1.63966933338e-09
7.45714677829e-06
3.5301575353e-10
7.45748418018e-06
-3.3741790243e-10
7.45813530702e-06
-6.51132827489e-10
7.45888741153e-06
-7.52079166446e-10
7.45962120923e-06
-7.33766069026e-10
7.46027780139e-06
-6.5651123997e-10
7.46083439398e-06
-5.56525377917e-10
7.4612886779e-06
-4.54286505443e-10
7.46164896927e-06
-3.60359197287e-10
7.46192822166e-06
-2.79321864077e-10
7.46214054342e-06
-2.12351949454e-10
7.46229921947e-06
-1.58730745828e-10
7.46241599151e-06
-1.16828330104e-10
7.46250071329e-06
-8.47571853307e-11
7.46256136226e-06
-6.06803960517e-11
7.46260417722e-06
-4.28869785585e-11
7.46263402595e-06
-2.99084814992e-11
7.46265459309e-06
-2.05855051864e-11
7.46266853016e-06
-1.39678610924e-11
7.46267782027e-06
-9.31933584383e-12
7.46268392532e-06
-6.1348509036e-12
7.46268786802e-06
-4.00288947614e-12
7.46269044794e-06
-2.6163813688e-12
7.4626921477e-06
-1.65553685116e-12
7.46269317751e-06
-9.76191664692e-13
7.46269381193e-06
-5.92908746919e-13
7.46269419243e-06
-3.92539006108e-13
7.46269438271e-06
-2.8049778854e-13
7.46269451228e-06
-2.0618461841e-13
7.46269468099e-06
-2.07033301422e-13
7.46269485506e-06
-2.45082723309e-13
7.46269506174e-06
-2.52432223924e-13
7.46269535923e-06
-2.79512800307e-13
7.46269567053e-06
-3.51400368641e-13
7.46269597124e-06
-3.8597819831e-13
7.4626963387e-06
-3.73922816928e-13
7.46269675261e-06
-3.59095832651e-13
7.46269721852e-06
-3.79561039369e-13
7.46269777608e-06
-4.54722678223e-13
7.46269836149e-06
-5.21837116021e-13
7.4626989652e-06
-5.16156441944e-13
7.46269961371e-06
-5.06658756512e-13
7.46270022807e-06
-5.37532296241e-13
7.46270081963e-06
-5.66612959018e-13
7.46270147395e-06
-5.97154546566e-13
7.46270215901e-06
-6.35422566182e-13
7.46270285558e-06
-6.58760304325e-13
7.46270364412e-06
-7.16208393784e-13
7.46270447191e-06
-8.22980578581e-13
7.46270527593e-06
-8.88554327053e-13
7.46270612261e-06
-8.85975408649e-13
7.4627070163e-06
-8.91900413626e-13
7.46270792626e-06
-9.65263099236e-13
7.46270887783e-06
-1.08823720893e-12
7.46270988393e-06
-1.17258625692e-12
7.46271097336e-06
-1.17920605028e-12
7.46271220222e-06
-1.21386943037e-12
7.46271347423e-06
-1.29852274059e-12
7.46271472456e-06
-1.30955942692e-12
7.46271604806e-06
-1.28418007422e-12
7.46271740523e-06
-1.35253651021e-12
7.46271870583e-06
-1.4471150694e-12
7.46272011718e-06
-1.48410781921e-12
7.46272175644e-06
-1.55254998407e-12
7.46272340974e-06
-1.64517820862e-12
7.46272501496e-06
-1.66250389113e-12
7.46272674651e-06
-1.67543316471e-12
7.46272858412e-06
-1.73893611399e-12
7.4627304252e-06
-1.78698559596e-12
7.46273229358e-06
-1.83888043116e-12
7.46273419916e-06
-1.90792634889e-12
7.46273615756e-06
-1.95152439189e-12
7.46273820654e-06
-2.04837465734e-12
7.46274023027e-06
-2.19176572735e-12
7.46274217896e-06
-2.17959972933e-12
7.46274436315e-06
-2.14240290798e-12
7.46274679492e-06
-2.3560952355e-12
7.4627491593e-06
-2.57015401469e-12
7.46275167646e-06
-2.61310097099e-12
7.46275457414e-06
-2.76676401849e-12
7.46275758258e-06
-2.99762812292e-12
7.46276066233e-06
-3.07200587217e-12
7.46276415464e-06
-3.29479062405e-12
7.4627679443e-06
-3.81062574427e-12
7.46277208931e-06
-4.35881110723e-12
7.46277701249e-06
-4.98940059882e-12
7.46278264791e-06
-5.75774646039e-12
7.46278909375e-06
-6.57101670644e-12
7.46279672049e-06
-7.588474626e-12
7.46280562303e-06
-8.90133931724e-12
7.4628161605e-06
-1.04872361271e-11
7.46282896649e-06
-1.26513880228e-11
7.46284424685e-06
-1.55107333001e-11
7.46286250863e-06
-1.87073044569e-11
7.46288504689e-06
-2.25174319932e-11
7.46291265516e-06
-2.74597138705e-11
7.46294627968e-06
-3.36517474832e-11
7.46298759726e-06
-4.12900929197e-11
7.46303846026e-06
-5.07976267608e-11
7.4631008635e-06
-6.25589201694e-11
7.46317766451e-06
-7.70395355424e-11
7.46327262722e-06
-9.50077975134e-11
7.46338992791e-06
-1.17268570639e-10
7.46353519766e-06
-1.45077496857e-10
7.46371678425e-06
-1.81341920557e-10
7.46394241073e-06
-2.25490445589e-10
7.46421852168e-06
-2.76153254813e-10
7.46455943462e-06
-3.41185154013e-10
7.46498149071e-06
-4.22097080293e-10
7.46550434909e-06
-5.2259980056e-10
7.4661518345e-06
-6.47306486538e-10
7.46695350702e-06
-8.017121889e-10
7.46794654595e-06
-9.9293467979e-10
7.46917681988e-06
-1.23005558569e-09
7.4707008452e-06
-1.52391092653e-09
7.47258928972e-06
-1.88815142996e-09
7.4749296116e-06
-2.34006539142e-09
7.47783048194e-06
-2.90087701674e-09
7.48142729491e-06
-3.59695478497e-09
7.48588856998e-06
-4.46143067627e-09
7.49142463461e-06
-5.53613584644e-09
7.49829749222e-06
-6.87331220677e-09
7.50683591186e-06
-8.5388953374e-09
7.51745274787e-06
-1.06169531035e-08
7.53066717172e-06
-1.32144543556e-08
7.5471363113e-06
-1.64689401626e-08
7.56769516024e-06
-2.05586261298e-08
7.59341200176e-06
-2.57165983991e-08
7.62566402571e-06
-3.22517801435e-08
7.66624382008e-06
-4.05797018495e-08
7.71751486701e-06
-5.12707778205e-08
7.7826461867e-06
-6.51308208577e-08
7.86599685514e-06
-8.33505158843e-08
7.97382517988e-06
-1.07828403666e-07
8.11582588494e-06
-1.42000628494e-07
8.30906476531e-06
-1.93239096392e-07
8.58911171548e-06
-2.80046941382e-07
9.04311419517e-06
-4.54002430499e-07
9.91515703476e-06
-8.72042686919e-07
1.19581478341e-05
-2.0429899639e-06
-5.54768694134e-06
1.75058357497e-05
5.01388819494e-05
1.61068138291e-05
4.41591297475e-05
1.71980943639e-05
3.77598742825e-05
1.26328401147e-05
3.26495150935e-05
8.60291219415e-06
2.89465826754e-05
5.70617753488e-06
2.6367603628e-05
3.78078983998e-06
2.45938855858e-05
2.52680839834e-06
2.33783985686e-05
1.70213466123e-06
2.25473240893e-05
1.15091894261e-06
2.19811571598e-05
7.7761104168e-07
2.15978049733e-05
5.22812291885e-07
2.13405423008e-05
3.48464638204e-07
2.1169945066e-05
2.29412382771e-07
2.10585376292e-05
1.48596015753e-07
2.09871867161e-05
9.42390319193e-08
2.0942623252e-05
5.81290423683e-08
2.09157086491e-05
3.45170140294e-08
2.09002087701e-05
1.93824715966e-08
2.08919212376e-05
9.92709825772e-09
2.08880560713e-05
4.21811208238e-09
2.08867864745e-05
9.3220664979e-10
2.08869515743e-05
-8.16185568048e-10
2.08878300742e-05
-1.63047276179e-09
2.08889887713e-05
-1.89240734074e-09
2.08901823868e-05
-1.85011222834e-09
2.08912831481e-05
-1.65730589228e-09
2.0892234836e-05
-1.40601499417e-09
2.0893022753e-05
-1.14834182479e-09
2.08936545981e-05
-9.11272782317e-10
2.08941488173e-05
-7.0663030483e-10
2.08945274544e-05
-5.37431366468e-10
2.08948123873e-05
-4.01884129638e-10
2.08950234126e-05
-2.95946910768e-10
2.08951774923e-05
-2.14863642612e-10
2.08952884533e-05
-1.53925635325e-10
2.08953673149e-05
-1.08835109758e-10
2.08954226943e-05
-7.59585726232e-11
2.08954610432e-05
-5.23268330192e-11
2.08954871935e-05
-3.55514881825e-11
2.08955047782e-05
-2.38010255064e-11
2.08955163934e-05
-1.56832614442e-11
2.08955238559e-05
-1.01126055943e-11
2.08955286191e-05
-6.35288841118e-12
2.08955316386e-05
-3.9034940342e-12
2.08955334466e-05
-2.351119915e-12
2.08955344697e-05
-1.41260196185e-12
2.08955349049e-05
-8.47169631893e-13
2.08955350988e-05
-6.15520711296e-13
2.08955352543e-05
-4.76223663222e-13
2.08955353901e-05
-4.34069994897e-13
2.08955354694e-05
-4.1302078467e-13
2.08955356057e-05
-4.0102318069e-13
2.08955358067e-05
-4.47511887104e-13
2.08955359872e-05
-5.22091127384e-13
2.08955361992e-05
-5.81391031087e-13
2.08955364522e-05
-6.26239767036e-13
2.08955367528e-05
-6.44988046126e-13
2.08955371842e-05
-6.69096691711e-13
2.08955376751e-05
-7.39442512938e-13
2.08955381267e-05
-7.99191183107e-13
2.0895538609e-05
-8.39402252898e-13
2.08955390999e-05
-9.08638928488e-13
2.08955395493e-05
-9.83076013272e-13
2.08955400382e-05
-1.05982870542e-12
2.08955405804e-05
-1.1684820874e-12
2.08955411005e-05
-1.2517677036e-12
2.08955416874e-05
-1.30020883311e-12
2.08955423687e-05
-1.40700176307e-12
2.08955430397e-05
-1.5610059914e-12
2.08955437002e-05
-1.68160767232e-12
2.08955443606e-05
-1.77063822754e-12
2.08955450245e-05
-1.86258767226e-12
2.08955457719e-05
-1.97106129756e-12
2.08955466019e-05
-2.08326653966e-12
2.08955474444e-05
-2.13338187593e-12
2.08955484161e-05
-2.14243805622e-12
2.08955495093e-05
-2.22291531759e-12
2.08955505359e-05
-2.34243279984e-12
2.08955515412e-05
-2.43797476025e-12
2.08955526273e-05
-2.58666798903e-12
2.0895553706e-05
-2.74753950893e-12
2.08955548413e-05
-2.75192980458e-12
2.08955562256e-05
-2.69945269611e-12
2.08955576729e-05
-2.7993366978e-12
2.0895559005e-05
-2.96352288115e-12
2.08955604465e-05
-3.07225755607e-12
2.08955620839e-05
-3.20335292947e-12
2.0895563769e-05
-3.39359328146e-12
2.08955654967e-05
-3.6050990909e-12
2.08955672769e-05
-3.80475507236e-12
2.0895569091e-05
-3.94743768027e-12
2.08955710913e-05
-4.09808681081e-12
2.08955732774e-05
-4.38084363823e-12
2.0895575388e-05
-4.6525154846e-12
2.08955777042e-05
-4.77742095348e-12
2.08955805918e-05
-5.05111853859e-12
2.08955836636e-05
-5.57300601804e-12
2.08955869236e-05
-6.04031046265e-12
2.08955909271e-05
-6.51987484865e-12
2.08955955475e-05
-7.29269700235e-12
2.08956004741e-05
-8.24859131314e-12
2.08956062397e-05
-9.32922205624e-12
2.08956131016e-05
-1.0760630571e-11
2.0895621005e-05
-1.2489767581e-11
2.08956305794e-05
-1.45607475592e-11
2.08956421727e-05
-1.7204997867e-11
2.08956559923e-05
-2.04525199463e-11
2.08956726607e-05
-2.4377048432e-11
2.08956925632e-05
-2.90985158504e-11
2.08957158504e-05
-3.42859713476e-11
2.08957453082e-05
-4.2027022188e-11
2.08957821801e-05
-5.19126331626e-11
2.08958271567e-05
-6.38109087989e-11
2.08958826222e-05
-7.81576602636e-11
2.08959512965e-05
-9.60160014827e-11
2.08960359819e-05
-1.18275107711e-10
2.08961405937e-05
-1.45779776506e-10
2.08962699898e-05
-1.79910914857e-10
2.08964297473e-05
-2.22324712876e-10
2.0896627114e-05
-2.74679243939e-10
2.08968715388e-05
-3.39324873029e-10
2.08971737341e-05
-4.19344078622e-10
2.08975468094e-05
-5.18377749123e-10
2.0898006132e-05
-6.41106690021e-10
2.089857416e-05
-7.93683835369e-10
2.08992821111e-05
-9.83553066705e-10
2.09001608154e-05
-1.21922590605e-09
2.09012501216e-05
-1.51106688685e-09
2.09026000222e-05
-1.87243788679e-09
2.09042729534e-05
-2.32002079032e-09
2.09063457753e-05
-2.87435591465e-09
2.09089137708e-05
-3.56096023035e-09
2.09120957617e-05
-4.41176627576e-09
2.09160384371e-05
-5.4662913533e-09
2.09209239221e-05
-6.77357639941e-09
2.092697861e-05
-8.39473076927e-09
2.09344837537e-05
-1.04059011588e-08
2.09437892158e-05
-1.2902115278e-08
2.09553303278e-05
-1.60021392124e-08
2.09696503135e-05
-1.98553738536e-08
2.09874268339e-05
-2.46494754017e-08
2.10095085802e-05
-3.06207302164e-08
2.10369610254e-05
-3.80694065512e-08
2.107112476e-05
-4.73786014315e-08
2.11136954621e-05
-5.90402729056e-08
2.11668281248e-05
-7.36919727377e-08
2.12332802354e-05
-9.21691715731e-08
2.13166103453e-05
-1.15582146804e-07
2.14214620954e-05
-1.4543185037e-07
2.15539866676e-05
-1.8379590877e-07
2.17224997065e-05
-2.33644645977e-07
2.19385687435e-05
-2.99419819012e-07
2.22189357502e-05
-3.88195186444e-07
2.2589149913e-05
-5.12214799831e-07
2.30907958602e-05
-6.9488448465e-07
2.37962063706e-05
-9.8545725609e-07
2.48365511761e-05
-1.49434839262e-06
2.6441352836e-05
-2.47684506635e-06
2.89288438892e-05
-4.53048214035e-06
-8.8786420882e-06
3.2259799557e-05
5.35844268405e-05
1.25223871528e-05
5.29166012317e-05
1.78659201975e-05
4.9639302004e-05
1.59101394737e-05
4.58382176458e-05
1.24039965973e-05
4.24428751711e-05
9.10151994448e-06
3.97331597903e-05
6.490505113e-06
3.76912456987e-05
4.56872233527e-06
3.62011672623e-05
3.19221295859e-06
3.51355938876e-05
2.21649233338e-06
3.43848448927e-05
1.52836012459e-06
3.3862659505e-05
1.04499786788e-06
3.35040074358e-05
7.07117026775e-07
3.32609636511e-05
4.72456414023e-07
3.30987218744e-05
3.10838047152e-07
3.29922920139e-05
2.00669015843e-07
3.29239208916e-05
1.26500178155e-07
3.2881130911e-05
7.73068678081e-08
3.28552522382e-05
4.52610149198e-08
3.28403357171e-05
2.48435481136e-08
3.28323557952e-05
1.21979591056e-08
3.28286300017e-05
4.65799076294e-09
3.28274062026e-05
4.07626532012e-10
3.28275658687e-05
-1.79004091926e-09
3.28284121803e-05
-2.73864945504e-09
3.28295285383e-05
-2.96647508131e-09
3.28306784562e-05
-2.80729253868e-09
3.28317388737e-05
-2.46651307098e-09
3.28326556912e-05
-2.06522622432e-09
3.28334147154e-05
-1.67041281484e-09
3.28340234534e-05
-1.31544542343e-09
3.28344996099e-05
-1.0136067002e-09
3.28348644206e-05
-7.66711108601e-10
3.28351389486e-05
-5.70560417518e-10
3.28353423337e-05
-4.18330307542e-10
3.28354908553e-05
-3.02504156695e-10
3.28355978157e-05
-2.15852093857e-10
3.28356738655e-05
-1.52005788288e-10
3.28357272022e-05
-1.05653234093e-10
3.28357640462e-05
-7.24525885694e-11
3.28357891547e-05
-4.8972370375e-11
3.28358060502e-05
-3.25908807673e-11
3.28358172349e-05
-2.1317083781e-11
3.2835824565e-05
-1.36790755067e-11
3.2835829262e-05
-8.6170146026e-12
3.28358321615e-05
-5.32287952594e-12
3.28358339463e-05
-3.24104948652e-12
3.28358350496e-05
-2.0029725117e-12
3.28358355592e-05
-1.26816648494e-12
3.28358358044e-05
-8.15776321841e-13
3.28358359299e-05
-5.8345117768e-13
3.28358359326e-05
-5.16362451223e-13
3.28358359216e-05
-4.78683362398e-13
3.28358359821e-05
-4.67481836496e-13
3.28358360489e-05
-4.98164556304e-13
3.28358361338e-05
-5.60314037452e-13
3.28358362546e-05
-6.61747995082e-13
3.2835836404e-05
-7.51442965887e-13
3.28358366614e-05
-7.97074919718e-13
3.2835837015e-05
-8.67312064999e-13
3.2835837328e-05
-9.63536971878e-13
3.28358376409e-05
-1.04094713931e-12
3.28358379913e-05
-1.13697069101e-12
3.28358382976e-05
-1.25176591462e-12
3.2835838599e-05
-1.36817786161e-12
3.28358389731e-05
-1.51959226126e-12
3.28358393327e-05
-1.67784288406e-12
3.28358397044e-05
-1.78101132189e-12
3.2835840171e-05
-1.879720307e-12
3.28358406621e-05
-2.02537305667e-12
3.28358411237e-05
-2.19062688845e-12
3.28358415576e-05
-2.35145215516e-12
3.28358419803e-05
-2.48120221487e-12
3.28358424789e-05
-2.58499586853e-12
3.2835843086e-05
-2.71283186961e-12
3.2835843682e-05
-2.82138343325e-12
3.28358443305e-05
-2.85340607426e-12
3.28358451238e-05
-2.92118146681e-12
3.2835845878e-05
-3.09035849783e-12
3.28358465326e-05
-3.26134670792e-12
3.2835847292e-05
-3.41543314015e-12
3.2835848167e-05
-3.58144880482e-12
3.28358490239e-05
-3.65784383547e-12
3.28358499753e-05
-3.66672688103e-12
3.28358510402e-05
-3.79756676652e-12
3.2835852064e-05
-4.01564064795e-12
3.28358531393e-05
-4.18711996193e-12
3.28358543735e-05
-4.38288494965e-12
3.28358556896e-05
-4.6616560801e-12
3.28358571276e-05
-4.96855025042e-12
3.28358587025e-05
-5.29358990364e-12
3.28358602657e-05
-5.60189450107e-12
3.28358619211e-05
-5.86052013271e-12
3.28358639122e-05
-6.23907305696e-12
3.28358659965e-05
-6.77930663746e-12
3.28358681399e-05
-7.25063129636e-12
3.28358708562e-05
-7.79247890262e-12
3.28358740562e-05
-8.6587069286e-12
3.28358774999e-05
-9.5894793032e-12
3.28358815157e-05
-1.04438307731e-11
3.28358865083e-05
-1.1945403505e-11
3.28358921744e-05
-1.39827429027e-11
3.28358989308e-05
-1.63223450377e-11
3.28359073203e-05
-1.92253903775e-11
3.28359173263e-05
-2.27946576916e-11
3.28359295635e-05
-2.70605975393e-11
3.28359446996e-05
-3.23566704019e-11
3.28359631722e-05
-3.8946160391e-11
3.2835985974e-05
-4.71089451462e-11
3.28360143072e-05
-5.73500636409e-11
3.28360495518e-05
-6.99323046851e-11
3.28360923545e-05
-8.522166702e-11
3.28361450304e-05
-1.04357130195e-10
3.28362095739e-05
-1.28263172014e-10
3.28362890023e-05
-1.57723513866e-10
3.28363872085e-05
-1.94286277005e-10
3.28365084778e-05
-2.39689174303e-10
3.28366582279e-05
-2.95762432336e-10
3.28368434064e-05
-3.65123615998e-10
3.28370723249e-05
-4.51121347396e-10
3.28373552082e-05
-5.57532180719e-10
3.28377053304e-05
-6.8916292893e-10
3.28381385795e-05
-8.52241918737e-10
3.28386746644e-05
-1.05431335033e-09
3.28393382417e-05
-1.30477351243e-09
3.28401593023e-05
-1.6151232402e-09
3.28411756167e-05
-1.99980900983e-09
3.28424338185e-05
-2.47705041137e-09
3.28439914985e-05
-3.06866499372e-09
3.28459203233e-05
-3.80140845224e-09
3.28483094578e-05
-4.7088685102e-09
3.28512685818e-05
-5.83311246533e-09
3.2854933552e-05
-7.22596792281e-09
3.28594736902e-05
-8.95178071108e-09
3.28650982672e-05
-1.10907142924e-08
3.28720669284e-05
-1.37422458341e-08
3.28807022155e-05
-1.70301593548e-08
3.28914047175e-05
-2.11086907273e-08
3.29046725822e-05
-2.61702285288e-08
3.29211250155e-05
-3.2455153194e-08
3.29415343195e-05
-4.02649747319e-08
3.29668635526e-05
-4.99786454445e-08
3.29983163902e-05
-6.20735833825e-08
3.30374018831e-05
-7.71546841145e-08
3.30860158621e-05
-9.59923777349e-08
3.31465504558e-05
-1.19574482565e-07
3.32220372239e-05
-1.49178383641e-07
3.33163416189e-05
-1.86473487147e-07
3.34344307107e-05
-2.33671040901e-07
3.35827495232e-05
-2.93750314937e-07
3.3769769738e-05
-3.70816042704e-07
3.40068158586e-05
-4.70690661411e-07
3.43093557764e-05
-6.01959336435e-07
3.46990789546e-05
-7.77918728697e-07
3.5207280608e-05
-1.02041695376e-06
3.58801497073e-05
-1.36775379408e-06
3.67858509911e-05
-1.89115844214e-06
3.80192059593e-05
-2.72770236134e-06
3.9681748161e-05
-4.13938627098e-06
4.17538966057e-05
-6.60263061949e-06
-1.08129932846e-05
4.36882479911e-05
5.35705201853e-05
8.95186711641e-06
5.55863060173e-05
1.58501345421e-05
5.5241059353e-05
1.62553862337e-05
5.35976163789e-05
1.40474395958e-05
5.15429064436e-05
1.11562298094e-05
4.95819408866e-05
8.45147053888e-06
4.79262515552e-05
6.22441152024e-06
4.66200401029e-05
4.49842428715e-06
4.56322342368e-05
3.20429824628e-06
4.49066881794e-05
2.25390630309e-06
4.43854429944e-05
1.56624322711e-06
4.40178339529e-05
1.07472637459e-06
4.3762913698e-05
7.27376924842e-07
4.35890464361e-05
4.84705536772e-07
4.34725033145e-05
3.1721222962e-07
4.33958703237e-05
2.031331871e-07
4.33465922281e-05
1.26584878313e-07
4.33157580192e-05
7.60951178681e-08
4.32971365545e-05
4.34649646684e-08
4.32864349716e-05
2.28994879438e-08
4.32807417621e-05
1.03512017961e-08
4.32781191564e-05
3.03022934674e-09
4.32772926931e-05
-9.63536548525e-10
4.32774574469e-05
-2.90337766439e-09
4.32781091019e-05
-3.61815074126e-09
4.32789473599e-05
-3.64562454241e-09
4.3279802592e-05
-3.32184606967e-09
4.32805872568e-05
-2.84995938665e-09
4.32812634263e-05
-2.34667742912e-09
4.32818219673e-05
-1.87406625132e-09
4.32822691404e-05
-1.46080740093e-09
4.32826184273e-05
-1.11598726354e-09
4.32828856822e-05
-8.37859185339e-10
4.32830866291e-05
-6.19333255089e-10
4.32832354087e-05
-4.51295873298e-10
4.32833439545e-05
-3.24412323667e-10
4.32834220801e-05
-2.3013619089e-10
4.32834775652e-05
-1.61145307154e-10
4.32835164041e-05
-1.11359813151e-10
4.32835432327e-05
-7.58815893591e-11
4.3283561561e-05
-5.09362998045e-11
4.32835738757e-05
-3.36468174921e-11
4.32835820312e-05
-2.18488723107e-11
4.32835873371e-05
-1.39565617572e-11
4.32835906494e-05
-8.75328477705e-12
4.3283592654e-05
-5.35975771644e-12
4.32835938324e-05
-3.22780803516e-12
4.32835944252e-05
-1.937942347e-12
4.32835947076e-05
-1.15355977609e-12
4.32835948993e-05
-7.35576238564e-13
4.32835949488e-05
-5.72999415321e-13
4.32835949019e-05
-5.04122267765e-13
4.32835948804e-05
-4.61845886362e-13
4.32835948518e-05
-4.40484459041e-13
4.32835948204e-05
-4.50004333768e-13
4.32835948208e-05
-5.36793475424e-13
4.32835948287e-05
-6.75885715578e-13
4.32835948776e-05
-7.61392026673e-13
4.32835950166e-05
-8.29273816891e-13
4.3283595137e-05
-9.41136158909e-13
4.32835952202e-05
-1.04291220948e-12
4.32835953248e-05
-1.15952180385e-12
4.32835953907e-05
-1.32446997852e-12
4.32835954172e-05
-1.47496439632e-12
4.32835955108e-05
-1.62165028275e-12
4.32835956089e-05
-1.79413582538e-12
4.32835956761e-05
-1.94326535328e-12
4.32835958002e-05
-2.0602450493e-12
4.32835959537e-05
-2.19613547475e-12
4.32835960789e-05
-2.36055300538e-12
4.32835961786e-05
-2.5346961127e-12
4.3283596249e-05
-2.680213175e-12
4.32835963436e-05
-2.76912033309e-12
4.32835965552e-05
-2.86951804247e-12
4.32835967719e-05
-3.0191843051e-12
4.32835969523e-05
-3.13242076907e-12
4.32835972358e-05
-3.22611342323e-12
4.32835975421e-05
-3.39923239464e-12
4.32835977376e-05
-3.58430260293e-12
4.32835979928e-05
-3.70697180076e-12
4.32835984143e-05
-3.8434770537e-12
4.32835987963e-05
-3.99003904064e-12
4.32835991451e-05
-4.1126226733e-12
4.32835996252e-05
-4.30443777721e-12
4.32836001481e-05
-4.5567326564e-12
4.32836006734e-05
-4.78424689184e-12
4.32836013143e-05
-5.04893205777e-12
4.3283602066e-05
-5.39136893286e-12
4.32836029589e-05
-5.7451922714e-12
4.32836040497e-05
-6.13552097612e-12
4.32836051735e-05
-6.60864053042e-12
4.32836062913e-05
-7.08953589161e-12
4.32836077644e-05
-7.63836025236e-12
4.3283609553e-05
-8.4009263324e-12
4.32836113839e-05
-9.26976222767e-12
4.32836136983e-05
-1.02305912203e-11
4.32836167702e-05
-1.15415771637e-11
4.32836203657e-05
-1.31814101414e-11
4.32836247802e-05
-1.50280589713e-11
4.32836302448e-05
-1.73618221352e-11
4.32836366023e-05
-2.03977151696e-11
4.32836441278e-05
-2.40584836285e-11
4.32836534967e-05
-2.86072343802e-11
4.32836648529e-05
-3.43049283858e-11
4.32836787657e-05
-4.12319506775e-11
4.32836960384e-05
-4.97512359362e-11
4.32837172059e-05
-6.02799787908e-11
4.3283743236e-05
-7.32329038055e-11
4.32837755479e-05
-8.93791238599e-11
4.32838152122e-05
-1.09517242448e-10
4.32838639529e-05
-1.3433536312e-10
4.32839245612e-05
-1.64977501954e-10
4.32839994025e-05
-2.03050563077e-10
4.32840916174e-05
-2.5017362838e-10
4.32842057542e-05
-3.08536934836e-10
4.3284347022e-05
-3.80893210351e-10
4.32845216057e-05
-4.70379796719e-10
4.32847374911e-05
-5.81020486444e-10
4.32850046265e-05
-7.18111391772e-10
4.32853349162e-05
-8.87895764423e-10
4.32857436807e-05
-1.09795968459e-09
4.32862496422e-05
-1.35805360611e-09
4.32868758902e-05
-1.68030653361e-09
4.32876511286e-05
-2.07969943001e-09
4.3288610589e-05
-2.57454590979e-09
4.3289798402e-05
-3.18757970973e-09
4.32912688993e-05
-3.94747113758e-09
4.32930893464e-05
-4.88916106591e-09
4.32953431716e-05
-6.05541048829e-09
4.32981340572e-05
-7.49972334672e-09
4.33015901632e-05
-9.28903642649e-09
4.33058699492e-05
-1.15058621072e-08
4.33111705586e-05
-1.42524424719e-08
4.33177359817e-05
-1.76560621539e-08
4.33258687115e-05
-2.18749269576e-08
4.333594429e-05
-2.71057440834e-08
4.33484289062e-05
-3.3593281308e-08
4.33639018445e-05
-4.16429159868e-08
4.33830822964e-05
-5.16358450155e-08
4.34068661783e-05
-6.40491123269e-08
4.34363693781e-05
-7.94817973795e-08
4.34729834746e-05
-9.86878072225e-08
4.35184487563e-05
-1.22619967667e-07
4.35749449576e-05
-1.5248866091e-07
4.36452114633e-05
-1.89840940633e-07
4.37327025147e-05
-2.36669532692e-07
4.38417940232e-05
-2.95565437061e-07
4.39780616348e-05
-3.699387164e-07
4.41486582269e-05
-4.64346808615e-07
4.436284041e-05
-5.84998145613e-07
4.46327092316e-05
-7.40559249368e-07
4.49742548565e-05
-9.43505201641e-07
4.54088041859e-05
-1.21246802933e-06
4.59648457543e-05
-1.57645818155e-06
4.66796646948e-05
-2.08257310752e-06
4.75983935677e-05
-2.80988730989e-06
4.8763144466e-05
-3.89245329705e-06
5.01732013606e-05
-5.5494434647e-06
5.16733601043e-05
-8.10278968074e-06
-1.18839158049e-05
5.2744282557e-05
5.2760608622e-05
6.19125861392e-06
5.57402409494e-05
1.28705023584e-05
5.7312412428e-05
1.46832148316e-05
5.76111984133e-05
1.37486536125e-05
5.71338690476e-05
1.16335591008e-05
5.63199844937e-05
9.26535497097e-06
5.54496453075e-05
7.09475058294e-06
5.46637031737e-05
5.28436632174e-06
5.40144133724e-05
3.85358811113e-06
5.35068429597e-05
2.76147687725e-06
5.31248786628e-05
1.94820771599e-06
5.28455249538e-05
1.35408039587e-06
5.26458890277e-05
9.2701311798e-07
5.25060766098e-05
6.24518169014e-07
5.24099990433e-05
4.1328985583e-07
5.23452175306e-05
2.67914692224e-07
5.23024125219e-05
1.69389800932e-07
5.22747675508e-05
1.03739960103e-07
5.22573953524e-05
6.08370900436e-08
5.22468533057e-05
3.34414798156e-08
5.22407571633e-05
1.64473736556e-08
5.22374842952e-05
6.3031118095e-09
5.22359432347e-05
5.77543262476e-10
5.22354281301e-05
-2.3882663762e-09
5.22354802607e-05
-3.67030300567e-09
5.22358153074e-05
-3.98073941999e-09
5.22362627556e-05
-3.76942073892e-09
5.22367258284e-05
-3.31311143529e-09
5.22371539456e-05
-2.77483454973e-09
5.22375246938e-05
-2.24483342598e-09
5.22378320065e-05
-1.76813896422e-09
5.22380787032e-05
-1.3626953324e-09
5.22382717801e-05
-1.03099113542e-09
5.22384198089e-05
-7.67415432234e-10
5.22385313626e-05
-5.62819884263e-10
5.22386140767e-05
-4.07092826453e-10
5.22386745013e-05
-2.90562320793e-10
5.22387180523e-05
-2.0471449032e-10
5.22387490065e-05
-1.42368506146e-10
5.22387707025e-05
-9.76684475579e-11
5.22387857517e-05
-6.60394956109e-11
5.22387960257e-05
-4.39829073393e-11
5.22388029433e-05
-2.88283103657e-11
5.22388075643e-05
-1.85961311081e-11
5.22388105482e-05
-1.17996125614e-11
5.22388124074e-05
-7.33411510677e-12
5.2238813581e-05
-4.47200653516e-12
5.22388142476e-05
-2.69652365241e-12
5.22388145415e-05
-1.57648719586e-12
5.22388146814e-05
-8.92952671833e-13
5.22388147014e-05
-5.41529422554e-13
5.22388146053e-05
-3.6748323648e-13
5.22388144806e-05
-2.76802470574e-13
5.22388143425e-05
-2.56219071328e-13
5.22388142005e-05
-2.70620777391e-13
5.22388141093e-05
-3.38222442847e-13
5.22388140325e-05
-4.68455960172e-13
5.22388139594e-05
-5.79474235056e-13
5.22388139699e-05
-6.87599616451e-13
5.22388139866e-05
-8.38946746563e-13
5.22388139356e-05
-9.81420424162e-13
5.22388138968e-05
-1.12524835463e-12
5.2238813865e-05
-1.31015325421e-12
5.22388137805e-05
-1.47201459788e-12
5.2238813716e-05
-1.59747819312e-12
5.22388136658e-05
-1.7563973732e-12
5.22388135836e-05
-1.92902998867e-12
5.22388135315e-05
-2.07006829565e-12
5.22388135006e-05
-2.20580521754e-12
5.22388134446e-05
-2.35750681999e-12
5.22388133822e-05
-2.52863607986e-12
5.22388132997e-05
-2.68942464229e-12
5.22388131818e-05
-2.77185858378e-12
5.2238813147e-05
-2.82404926893e-12
5.22388131552e-05
-2.96667828542e-12
5.22388130827e-05
-3.14467465213e-12
5.22388130539e-05
-3.27681689294e-12
5.22388131176e-05
-3.43569045086e-12
5.22388131102e-05
-3.622868055e-12
5.22388130741e-05
-3.75155243873e-12
5.22388131774e-05
-3.87954312277e-12
5.22388132914e-05
-4.07751187571e-12
5.22388133113e-05
-4.2711137234e-12
5.22388133861e-05
-4.44811495888e-12
5.22388135333e-05
-4.68042434714e-12
5.22388136945e-05
-4.96246126623e-12
5.22388139646e-05
-5.28385236181e-12
5.22388143357e-05
-5.65718350079e-12
5.22388147578e-05
-6.05320756822e-12
5.22388153683e-05
-6.52583047143e-12
5.22388161346e-05
-7.17419762124e-12
5.22388168252e-05
-7.88229931974e-12
5.22388176906e-05
-8.56567198839e-12
5.22388189941e-05
-9.48214916636e-12
5.22388204158e-05
-1.07125743537e-11
5.22388221117e-05
-1.20837246666e-11
5.22388245418e-05
-1.37757910008e-11
5.22388275367e-05
-1.60106538699e-11
5.2238831041e-05
-1.86985491433e-11
5.22388356403e-05
-2.20101649358e-11
5.22388414078e-05
-2.62282612517e-11
5.22388483387e-05
-3.13609598341e-11
5.22388571226e-05
-3.76401172834e-11
5.22388681216e-05
-4.54651266656e-11
5.22388818015e-05
-5.50746434929e-11
5.22388989764e-05
-6.69464474684e-11
5.22389202642e-05
-8.16911432619e-11
5.22389465387e-05
-9.97937126725e-11
5.22389794074e-05
-1.22155581334e-10
5.2239020248e-05
-1.50084184976e-10
5.22390704145e-05
-1.84652728177e-10
5.22391326364e-05
-2.27271611835e-10
5.22392096628e-05
-2.80141015159e-10
5.22393047137e-05
-3.45621938276e-10
5.22394224873e-05
-4.26569146947e-10
5.22395685513e-05
-5.26785168296e-10
5.22397492603e-05
-6.50868942769e-10
5.22399727329e-05
-8.04417647222e-10
5.22402494433e-05
-9.94609952741e-10
5.22405918855e-05
-1.23024405795e-09
5.22410157793e-05
-1.5218986911e-09
5.22415405665e-05
-1.88290594049e-09
5.22421902646e-05
-2.32998313889e-09
5.22429947867e-05
-2.88392023808e-09
5.2243990629e-05
-3.57023509329e-09
5.22452232804e-05
-4.42038521992e-09
5.22467492846e-05
-5.4736031499e-09
5.22486387259e-05
-6.77837175525e-09
5.22509779001e-05
-8.39446620936e-09
5.22538739683e-05
-1.03960047262e-08
5.22574600705e-05
-1.28752666612e-08
5.22619005467e-05
-1.59465445758e-08
5.22673994496e-05
-1.97514887334e-08
5.22742093795e-05
-2.44661687747e-08
5.22826433662e-05
-3.03092849441e-08
5.22930898362e-05
-3.75525493711e-08
5.230603032e-05
-4.6533971798e-08
5.2322062721e-05
-5.76749914133e-08
5.23419282332e-05
-7.15011915258e-08
5.2366548204e-05
-8.86690992548e-08
5.2397068139e-05
-1.10001498207e-07
5.24349124487e-05
-1.36531947207e-07
5.24818561071e-05
-1.69563316716e-07
5.25401124543e-05
-2.10744900623e-07
5.26124472567e-05
-2.6217570084e-07
5.27023228788e-05
-3.26545092318e-07
5.28140839905e-05
-4.07326453264e-07
5.29531974078e-05
-5.09051928699e-07
5.31265607745e-05
-6.37710188151e-07
5.33428999169e-05
-8.01337117971e-07
5.36132648225e-05
-1.01092393788e-06
5.39516093862e-05
-1.28184983453e-06
5.43753437794e-05
-1.63620201168e-06
5.49054696731e-05
-2.1065835458e-06