/*--------------------------------*- C++ -*----------------------------------*\
| =========                 |                                                 |
| \\      /  F ield         | OpenFOAM: The Open Source CFD Toolbox           |
|  \\    /   O peration     | Version:  2106                                  |
|   \\  /    A nd           | Website:  www.openfoam.com                      |
|    \\/     M anipulation  |                                                 |
\*---------------------------------------------------------------------------*/
FoamFile
{
    version     2.0;
    format      ascii;
    arch        "LSB;label=32;scalar=64";
    class       volScalarField;
    location    "0.49";
    object      p;
}
// * * * * * * * * * * * * * * * * * * * * * * * * * * * * * * * * * * * * * //

dimensions      [0 2 -2 0 0 0 0];

internalField   nonuniform List<scalar> 
9600
(
2.27463485735
-0.623376745154
-1.52760765899
-1.91321668268
-2.13254841287
-2.27249238304
-2.37639714043
-2.46394621762
-2.54344608045
-2.61883643889
-2.69221004577
-2.76471859265
-2.83699191893
-2.90936031014
-2.98198077283
-3.05490901097
-3.12814495655
-3.20166032193
-3.27541476716
-3.34936545758
-3.42347152776
-3.49769864504
-3.57201646239
-3.64640069243
-3.72083203197
-3.7952954754
-3.86977937397
-3.94427467567
-4.01877455984
-4.09327378699
-4.16776835991
-4.24225506731
-4.31673119673
-4.39119443139
-4.46564272764
-4.54007410769
-4.61448655585
-4.68887809614
-4.76324672742
-4.8375903377
-4.91190664156
-4.98619324404
-5.06044752933
-5.13466681815
-5.20884802039
-5.28298777117
-5.35708257007
-5.43112860424
-5.50512179326
-5.57905769387
-5.65293161021
-5.72673852164
-5.80047304745
-5.87412932645
-5.94770102329
-6.0211814615
-6.09456352477
-6.16783954153
-6.24100137049
-6.31404041878
-6.3869475012
-6.4597126641
-6.53232527838
-6.60477412177
-6.6770472977
-6.74913216934
-6.82101530156
-6.89268239614
-6.96411828945
-7.03530696093
-7.10623149878
-7.17687401756
-7.24721562393
-7.31723633269
-7.38691498988
-7.45622926333
-7.52515564199
-7.59366940861
-7.66174461257
-7.72935401451
-7.79646898615
-7.8630594296
-7.92909373881
-7.99453877093
-8.05935980534
-8.12352058949
-8.18698337895
-8.24970877291
-8.3116555207
-8.37278053098
-8.43303899043
-8.49238438895
-8.55076831819
-8.60814033261
-8.66444810491
-8.71963751285
-8.77365252677
-8.82643500202
-8.87792464594
-8.92805932149
-8.9767750916
-9.02400603354
-9.06968405576
-9.11373886388
-9.15609833446
-9.19668849575
-9.23543350299
-9.27225555796
-9.30707492093
-9.33981002609
-9.3703776425
-9.3986928059
-9.42466865859
-9.44821688313
-9.4692476195
-9.48766963403
-9.50339046828
-9.51631624513
-9.52635183572
-9.53340094162
-9.53736626366
-9.53814983613
-9.53565286376
-9.52977571538
-9.52041839323
-9.50748093986
-9.49086168534
-9.47045868318
-9.44617041554
-9.41789471735
-9.38552868987
-9.34896933538
-9.30811336786
-9.26285693483
-9.21309500762
-9.15872101532
-9.09962702453
-9.03570323637
-8.96683649209
-8.8929088972
-8.81379675581
-8.72936954914
-8.63948713983
-8.54399634763
-8.44272768721
-8.33548971532
-8.2220626159
-8.10218861052
-7.97555797515
-7.84179185573
-7.70041308098
-7.55080134688
-7.39212176873
-7.2231957015
-7.04228915239
-6.84679685447
-6.63275297725
-6.39433112424
-6.13214801996
-5.90577412432
0.363094721257
-0.819260734168
-1.42793619805
-1.7819592639
-2.02457499186
-2.19513924948
-2.32321139588
-2.42771331592
-2.51878903109
-2.60206793647
-2.68084077181
-2.75705753986
-2.83187838779
-2.90599066961
-2.97979674677
-3.05352331641
-3.12729003871
-3.20115260281
-3.27512963193
-3.34921946226
-3.42341037448
-3.49768593626
-3.57202959165
-3.64642595602
-3.72086141553
-3.79532447768
-3.86980570474
-3.94429756398
-4.01879392751
-4.0932899173
-4.16778172399
-4.24226622557
-4.3167407261
-4.39120279442
-4.46565024939
-4.54008111442
-4.61449340592
-4.68888505975
-4.76325396642
-4.8375979809
-4.91191485721
-4.98620214837
-5.06045726396
-5.13467733623
-5.20885938728
-5.28300011909
-5.35709597019
-5.4311430703
-5.50513739984
-5.57907457926
-5.65294985989
-5.72675822447
-5.80049431873
-5.87415229206
-5.94772579504
-6.02120815051
-6.09459224318
-6.16787046389
-6.24103467013
-6.3140762452
-6.38698598378
-6.45975396467
-6.5323695813
-6.60482160253
-6.67709815234
-6.74918662731
-6.82107358374
-6.89274471223
-6.96418488524
-7.03537810853
-7.10630743601
-7.17695500066
-7.24730196378
-7.31732835195
-7.38701297283
-7.45633347189
-7.52526639205
-7.59378708031
-7.6618695788
-7.72948661009
-7.7966095594
-7.86320837591
-7.92925145389
-7.99470562421
-8.05953619712
-8.12370698385
-8.1871802506
-8.24991656787
-8.31187468799
-8.37301156634
-8.43328238395
-8.49264056819
-8.55103771909
-8.60842347529
-8.66474555244
-8.71994978514
-8.77398008596
-8.82677833744
-8.87828432322
-8.92843594518
-8.97716922194
-9.02441814328
-9.07011464567
-9.11418850477
-9.15656761556
-9.19717795047
-9.23594358488
-9.27278675523
-9.30762776813
-9.340385064
-9.37097525224
-9.39931313356
-9.4253119767
-9.448883499
-9.46993797704
-9.48838418915
-9.504129596
-9.51708029776
-9.52714114905
-9.53421595405
-9.53820752777
-9.53901778047
-9.53654796866
-9.53069870474
-9.52136972456
-9.50845951681
-9.49186745491
-9.47149291493
-9.44723422363
-9.41898995027
-9.38665826646
-9.35013675993
-9.30932261974
-9.26411312867
-9.21440493476
-9.16009333257
-9.10107237355
-9.03723474134
-8.96847065612
-8.89466662226
-8.81570412371
-8.7314589391
-8.64179945836
-8.54658334737
-8.44565481529
-8.33884012441
-8.22594285308
-8.10673723163
-7.9809572666
-7.84828600258
-7.70833842755
-7.56063656021
-7.40458219753
-7.23941627725
-7.06418622547
-6.87779285242
-6.67917504523
-6.46709731528
-6.24137030918
-6.02259536961
-0.6127481529
-1.09411516483
-1.48537571601
-1.77699179804
-1.99856423055
-2.16650031877
-2.29860291799
-2.40839117078
-2.5042495295
-2.59139454595
-2.67313691156
-2.75157107605
-2.8280184147
-2.90330791637
-2.97795583602
-3.05227759924
-3.12646039923
-3.20061020493
-3.27478283939
-3.34900393277
-3.42328127213
-3.49761273549
-3.57199164664
-3.64640954995
-3.72085759285
-3.79532756421
-3.86981216416
-3.94430528794
-4.0188018145
-4.09329741001
-4.16778854298
-4.24227230867
-4.31674615368
-4.39120769248
-4.46565471384
-4.54008523102
-4.61449730329
-4.68888890066
-4.76325787361
-4.83760196393
-4.91191899753
-4.98620652218
-5.06046191085
-5.13468226722
-5.20886462407
-5.28300572494
-5.35710199384
-5.43114960119
-5.50514449294
-5.5790822751
-5.65295818777
-5.72676721481
-5.80050398331
-5.87416267857
-5.94773701159
-6.02122026015
-6.09460526375
-6.16788447151
-6.24104980255
-6.31409256795
-6.38700350743
-6.45977273647
-6.53238968484
-6.60484312273
-6.6771211702
-6.74921122176
-6.82109985375
-6.89277279635
-6.96421492132
-7.03541021996
-7.10634173657
-7.1769915993
-7.24734096366
-7.31736986034
-7.38705712708
-7.45638043608
-7.52531632359
-7.59384012209
-7.66192587789
-7.72954632522
-7.79667285223
-7.86327539733
-7.92932233332
-7.99478049979
-8.05961528476
-8.12379056751
-8.18726856395
-8.2500097725
-8.31197297146
-8.37311517081
-8.43339152245
-8.49275536037
-8.55115827081
-8.60855000789
-8.66487837853
-8.7200891673
-8.77412617312
-8.82693127148
-8.87844434425
-8.92860329927
-8.97734405208
-9.02460054654
-9.07030475667
-9.11438654869
-9.15677377575
-9.19739238405
-9.23616643481
-9.27301821291
-9.3078680649
-9.34063449859
-9.37123427781
-9.39958231102
-9.42559164871
-9.4491740263
-9.47023974965
-9.48869764164
-9.50445517977
-9.51741840953
-9.52749222456
-9.53458062784
-9.53858657388
-9.53941196998
-9.53695820352
-9.53112608795
-9.5218157465
-9.50892705933
-9.49235893567
-9.47201047637
-9.44778030971
-9.41956755105
-9.38727106052
-9.35078915766
-9.31001988277
-9.26486140367
-9.21521172219
-9.1609682175
-9.10202721958
-9.03828370182
-8.96963095909
-8.89595991762
-8.81715771621
-8.73310678709
-8.64368381629
-8.54875715324
-8.44818473603
-8.34181098804
-8.22946282014
-8.1109452502
-7.98603496624
-7.85447388445
-7.71596135262
-7.57014357657
-7.41660988433
-7.25489495061
-7.08450568535
-6.90503060398
-6.71640067379
-6.51899502793
-6.31372173495
-6.10865836516
-1.16420958017
-1.35055352403
-1.59300186466
-1.81547081669
-2.00266076832
-2.15668794394
-2.28512612883
-2.39541692117
-2.49321111273
-2.58257129506
-2.66634271101
-2.74646925916
-2.82425916681
-2.90058132586
-2.97600598294
-3.05090191021
-3.12550284955
-3.19995309674
-3.27433888741
-3.34870911027
-3.42308929016
-3.49749071258
-3.571916771
-3.64636537273
-3.72083321341
-3.79531557082
-3.86980766522
-3.94430509856
-4.0188039353
-4.09330068611
-4.16779228408
-4.24227605999
-4.31674965938
-4.39121091673
-4.46565770652
-4.54008798627
-4.61449983637
-4.68889134645
-4.76326035723
-4.83760459287
-4.91192176534
-4.98620947912
-5.06046506712
-5.13468562118
-5.20886816028
-5.28300946107
-5.35710597158
-5.43115383948
-5.50514898416
-5.57908705569
-5.65296332554
-5.72677274088
-5.80050990852
-5.8741690331
-5.9477438672
-6.0212276589
-6.09461327329
-6.16789317225
-6.24105927101
-6.31410283796
-6.38701455375
-6.45978451278
-6.53240219746
-6.60485642851
-6.67713532512
-6.74922627724
-6.82111589866
-6.89278994028
-6.96423327183
-7.03542985031
-7.106362712
-7.17701397265
-7.24736476241
-7.31739513294
-7.38708397671
-7.45640898508
-7.52534666225
-7.59387232054
-7.6619600261
-7.72958253021
-7.79671120504
-7.86331596072
-7.92936516812
-7.99482570768
-8.05966303567
-8.12384105804
-8.18732193872
-8.25006611487
-8.31203237185
-8.37317775788
-8.43345743495
-8.49282470635
-8.55123113447
-8.60862652577
-8.66495875506
-8.72017360756
-8.77421485093
-8.82702433087
-8.87854194571
-8.9287056597
-8.97745145348
-9.02471326462
-9.07042298392
-9.11451046639
-9.15690357798
-9.1975283343
-9.23630887783
-9.27316742437
-9.3080242201
-9.34079775182
-9.37140464077
-9.3997597582
-9.42577642368
-9.44936632521
-9.47043977368
-9.48890575217
-9.50467175911
-9.5176437673
-9.52772672019
-9.53482474996
-9.5388409269
-9.53967735563
-9.53723550184
-9.5314162367
-9.5221197792
-9.50924607638
-9.49269470166
-9.47236519305
-9.44815696293
-9.41996954565
-9.38770224042
-9.35125449795
-9.31052577728
-9.26541543908
-9.21582286133
-9.16164750237
-9.10278834195
-9.03914344456
-8.97060978454
-8.89708272259
-8.8184552469
-8.73461736595
-8.6454548295
-8.55084741442
-8.45066744677
-8.34477804086
-8.23303086508
-8.11526296046
-7.99129384396
-7.86092284633
-7.72392804505
-7.58006633507
-7.42908001093
-7.27071587142
-7.10476451538
-6.93114340657
-6.75005088219
-6.56202955621
-6.36786487494
-6.17062042824
-1.50155529135
-1.55331659125
-1.69721131959
-1.86150557154
-2.01583861574
-2.15389540971
-2.27604949289
-2.38483831877
-2.48328225183
-2.57411241382
-2.65952039558
-2.74115843574
-2.82022837836
-2.89758237625
-2.97381185124
-3.04932042598
-3.12437893234
-3.19916549317
-3.27379485486
-3.34833905377
-3.42284181831
-3.49732851305
-3.57181288161
-3.64630069165
-3.72079444779
-3.79529364609
-3.86979642198
-3.94430040418
-4.0188031073
-4.09330204453
-4.16779478043
-4.24227902532
-4.31675269734
-4.39121384631
-4.46566048761
-4.54009061016
-4.6145023342
-4.68889377921
-4.76326285167
-4.83760721791
-4.9119245447
-4.98621238448
-5.06046811666
-5.13468886681
-5.20887163439
-5.28301319267
-5.35711004757
-5.43115833542
-5.50515390778
-5.57909238767
-5.65296911425
-5.72677901346
-5.80051663548
-5.87417624887
-5.94775162999
-6.02123602835
-6.09462230529
-6.16790291267
-6.24106976997
-6.31411415514
-6.38702671489
-6.45979752863
-6.53241611003
-6.60487130897
-6.67715122598
-6.7492432535
-6.82113403192
-6.89280934758
-6.96425404898
-7.03545205361
-7.10638640993
-7.17703925668
-7.24739172155
-7.31742384244
-7.387114516
-7.4564414495
-7.52538115128
-7.59390893749
-7.66199888701
-7.72962374577
-7.79675486018
-7.8633621404
-7.92941401484
-7.99487740145
-8.05971770709
-8.12389878698
-8.18738285303
-8.2501303942
-8.31210014958
-8.37324911095
-8.43353245683
-8.49290353482
-8.5513139182
-8.60871338976
-8.66504981099
-8.72026898983
-8.77431469315
-8.82712872715
-8.87865097988
-8.92881941563
-8.97756999166
-9.02483670139
-9.07055141505
-9.11464394984
-9.15704222527
-9.19767227296
-9.23645828142
-9.27332245012
-9.30818500627
-9.34096435215
-9.37157721364
-9.39993862731
-9.4259619038
-9.44955868341
-9.4706392576
-9.48911269128
-9.50488654763
-9.51786683351
-9.52795854697
-9.53506580782
-9.5390918348
-9.53993893065
-9.53750866947
-9.53170221584
-9.5224200648
-9.50956225235
-9.49302871363
-9.47271968724
-9.44853509839
-9.42037485775
-9.38813899322
-9.35172809846
-9.31104296025
-9.26598442555
-9.21645358269
-9.16235194326
-9.10358124013
-9.04004285702
-8.97163785158
-8.89826649373
-8.81982785648
-8.73621962005
-8.64733687389
-8.55307143832
-8.45331067851
-8.34793602141
-8.2368233494
-8.11984084923
-7.99684824965
-7.86769724062
-7.73223318908
-7.59030264451
-7.44176290186
-7.28650179776
-7.12447350771
-6.95574491511
-6.78055567811
-6.59929081385
-6.41226477017
-6.22016934318
-1.70562908781
-1.70064998302
-1.78462416055
-1.9054136362
-2.03205760758
-2.15473660687
-2.26963338807
-2.37583008038
-2.47411322275
-2.5659023444
-2.65266346457
-2.73567886008
-2.81598293571
-2.89436970699
-2.97142708794
-3.04757951864
-3.12312716487
-3.19827836842
-3.27317521002
-3.34791264271
-3.42255301496
-3.49713632022
-3.57168726926
-3.64622104879
-3.72074535047
-3.7952646263
-3.86978038598
-3.94429258129
-4.01880027464
-4.0933020905
-4.16779639626
-4.24228143783
-4.31675543719
-4.39121660975
-4.46566310884
-4.54009309589
-4.61450475303
-4.68889614707
-4.76326519729
-4.83760962667
-4.91192704007
-4.98621493336
-5.06047073268
-5.13469162613
-5.20887457994
-5.28301632839
-5.35711338701
-5.43116190328
-5.50515772389
-5.57909645295
-5.6529734601
-5.72678371072
-5.80052171741
-5.87418169029
-5.94775744064
-6.02124228382
-6.09462908797
-6.16791026889
-6.24107769294
-6.31412265829
-6.38703583678
-6.45980729421
-6.532426553
-6.6048824638
-6.67716313812
-6.74925598733
-6.82114766726
-6.89282396228
-6.96426969309
-7.03546875829
-7.10640421162
-7.17705820856
-7.24741188357
-7.31744526693
-7.38713724948
-7.45646555847
-7.52540673824
-7.59393611349
-7.66202773539
-7.72965432398
-7.79678721874
-7.86339634069
-7.92945015706
-7.99491561834
-8.05975810841
-8.12394144819
-8.18742788119
-8.25017793363
-8.3121502886
-8.37330186775
-8.433587905
-8.49296186628
-8.55137534783
-8.60877806236
-8.66511782126
-8.72034044703
-8.77438975071
-8.82720752191
-8.87873362085
-8.9289060676
-8.97766087211
-9.02493200501
-9.07065129433
-9.11474852339
-9.15715169554
-9.19778682046
-9.23657807676
-9.27344761714
-9.3083156553
-9.34110059063
-9.37171915116
-9.40008648746
-9.42611597854
-9.44971934029
-9.47080687098
-9.48928750485
-9.50506879465
-9.51805694813
-9.52815710725
-9.53527338015
-9.53930909785
-9.54016683044
-9.53774831102
-9.53195485407
-9.52268724875
-9.50984583671
-9.49333102316
-9.47304348424
-9.44888355367
-9.42075181063
-9.38854924208
-9.35217743328
-9.3115383405
-9.26653437726
-9.21706857982
-9.16304469054
-9.10436712219
-9.04094036778
-8.97266942833
-8.89945981156
-8.821216795
-8.73784535839
-8.64924934568
-8.55533206461
-8.45599590112
-8.351139688
-8.24066083369
-8.12445509534
-8.00241689265
-7.87444230756
-7.74043010003
-7.60029159628
-7.45396248371
-7.30141577197
-7.14268717486
-6.977895149
-6.80724866612
-6.63098818765
-6.44917160209
-6.26170274867
-1.82875718569
-1.80330145594
-1.85266003903
-1.94281884735
-2.04774478136
-2.15706686812
-2.26490333613
-2.36812732823
-2.46580145078
-2.55819187372
-2.64606339539
-2.73030767567
-2.8117629613
-2.89114086621
-2.96900868952
-3.04580060568
-3.12183962305
-3.19736047634
-3.27253038004
-3.34746637384
-3.42224901149
-3.49693269335
-3.57155359994
-3.6461353304
-3.72069179665
-3.79523244762
-3.86976212123
-3.94428315277
-4.01879629355
-4.09330132297
-4.1677974178
-4.24228340172
-4.31675784338
-4.39121910544
-4.46566548494
-4.54009537934
-4.61450699324
-4.68889833743
-4.76326731593
-4.83761169193
-4.91192909193
-4.98621699215
-5.06047282872
-5.13469382729
-5.20887696128
-5.28301892483
-5.35711619829
-5.43116494694
-5.50516103368
-5.57910005457
-5.65297734994
-5.72678788086
-5.80052621316
-5.87418652535
-5.94776262041
-6.02124786517
-6.09463512828
-6.16791678334
-6.24108468565
-6.31413012975
-6.3870438203
-6.45981584231
-6.53243570585
-6.60489225556
-6.67717363649
-6.74926725754
-6.82115976203
-6.89283691686
-6.96428353209
-7.03548351201
-7.10641992436
-7.17707494478
-7.24742971571
-7.31746424767
-7.38715741433
-7.45648696743
-7.5254294874
-7.59396029146
-7.66205339559
-7.72968150766
-7.79681598124
-7.86342675547
-7.92948231677
-7.99494963562
-8.05979408656
-8.12397945803
-8.18746797465
-8.25022015731
-8.31219470663
-8.37334857143
-8.43363698299
-8.49301341754
-8.55142948812
-8.60883486932
-8.66517735103
-8.72040277116
-8.77445495151
-8.82727568809
-8.87880482422
-8.92898041881
-8.97773849774
-9.0250129793
-9.07073572702
-9.11483654952
-9.15724346225
-9.19788253705
-9.23667779764
-9.27355140337
-9.30842367502
-9.34121306533
-9.37183637612
-9.40020863885
-9.4262431812
-9.44985192919
-9.4709452769
-9.48943205059
-9.50521978229
-9.51821483971
-9.52832243332
-9.53544672255
-9.53949114472
-9.54035859704
-9.53795104877
-9.53216990443
-9.52291616455
-9.51009061002
-9.49359395137
-9.47332723585
-9.44919144579
-9.42108799263
-9.38891874008
-9.35258618814
-9.3119934874
-9.26704460515
-9.21764440501
-9.1636987998
-9.10511496144
-9.0418005978
-8.97366434367
-8.90061656682
-8.82256852474
-8.73943235924
-8.65112045648
-8.55754619751
-8.458625162
-8.35427242653
-8.24440451025
-8.12894042481
-8.00780281785
-7.88092309008
-7.74824140802
-7.6097147397
-7.46532951349
-7.3151088042
-7.15912775826
-6.9975201002
-6.83046491089
-6.65814063995
-6.48058155079
-6.29765842939
-1.90279856627
-1.87174965204
-1.90168061498
-1.97145143327
-2.06062036592
-2.15949741131
-2.26137622619
-2.3618485802
-2.45877552632
-2.55152186872
-2.64025904199
-2.72552565205
-2.80797075045
-2.88821837954
-2.9668072759
-3.04417392806
-3.1206578303
-3.19651526561
-3.2719349202
-3.3470531409
-3.4219666735
-3.49674307129
-3.571428709
-3.64605506094
-3.7206413928
-3.79520198108
-3.86974463207
-3.94427392228
-4.01879219119
-4.09330027575
-4.1677980998
-4.24228499795
-4.31675985582
-4.39122122136
-4.46566758754
-4.54009740224
-4.61450893853
-4.68890018343
-4.76326906057
-4.83761335006
-4.91193069525
-4.98621860492
-5.06047449432
-5.13469558246
-5.20887885814
-5.28302101991
-5.35711848119
-5.43116740006
-5.505163682
-5.57910293135
-5.65298041641
-5.72679111805
-5.80052967655
-5.8741902916
-5.94776671902
-6.02125228696
-6.09463987385
-6.1679218664
-6.24109011375
-6.31413592786
-6.38705001732
-6.45982249786
-6.53244285176
-6.60489992621
-6.67718187782
-6.74927612463
-6.8211692824
-6.89284708448
-6.96429435082
-7.03549500565
-7.10643212164
-7.17708788538
-7.24744345858
-7.3174788565
-7.38717294746
-7.45650348235
-7.52544704106
-7.59397893922
-7.66207318232
-7.72970246574
-7.79683815135
-7.86345020867
-7.92950711601
-7.99497582192
-8.05982173261
-8.12400866648
-8.18749880114
-8.25025260978
-8.31222882602
-8.37338445564
-8.43367473386
-8.49305310998
-8.55147119331
-8.60887866281
-8.66522332298
-8.72045101149
-8.77450553323
-8.82732866934
-8.87886030367
-8.9290385232
-8.97779932776
-9.02507653619
-9.07080199333
-9.11490565206
-9.15731556866
-9.19795775823
-9.23675621654
-9.27363303357
-9.30850868533
-9.34130179062
-9.37192905639
-9.40030536115
-9.42634403926
-9.44995714858
-9.47105519904
-9.48954699789
-9.50534015902
-9.51834110495
-9.52845514988
-9.53558664233
-9.53963900287
-9.54051528527
-9.53811771137
-9.5323479353
-9.52310720408
-9.51029659339
-9.49381712458
-9.47357036126
-9.4494580005
-9.4213822086
-9.38924565216
-9.35295176511
-9.31240492331
-9.26751046951
-9.21817505214
-9.16430672971
-9.10581527376
-9.04261163011
-8.97460811275
-8.90171941763
-8.82386221416
-8.74095541924
-8.65291972595
-8.55967754958
-8.46115543859
-8.35728279788
-8.24799305533
-8.13322532661
-8.01292517682
-7.88705090005
-7.75557503341
-7.61848837688
-7.47581181592
-7.32760123652
-7.17395706512
-7.01502743048
-6.85099260986
-6.68204185851
-6.50830594465
-6.32986679598
-1.94503163554
-1.91346763036
-1.93311417938
-1.99055856627
-2.06957196274
-2.16135106789
-2.25896846414
-2.3573558933
-2.45363770531
-2.54657158236
-2.6359040931
-2.72190822804
-2.80508417311
-2.88598325508
-2.96511743025
-3.0429216091
-3.11974599841
-3.19586197882
-3.27147395202
-3.34673276722
-3.42174751772
-3.49659566183
-3.57133126107
-3.64599122168
-3.72060186176
-3.79517814438
-3.86973092259
-3.94426665252
-4.01878889437
-4.09329935957
-4.16779855291
-4.24228618392
-4.31676136486
-4.3912228395
-4.46566924223
-4.54009903535
-4.61451045983
-4.68890157709
-4.76327035375
-4.83761457368
-4.91193188142
-4.98621979987
-5.06047573485
-5.1346969083
-5.20888030962
-5.28302260446
-5.35712020506
-5.43116926688
-5.50516569144
-5.57910507991
-5.65298269686
-5.72679354249
-5.80053229821
-5.87419315962
-5.94776982284
-6.02125561142
-6.09464342708
-6.1679256518
-6.24109414154
-6.31414019767
-6.38705458889
-6.45982745703
-6.5324482336
-6.60490572973
-6.67718811933
-6.74928283715
-6.82117645874
-6.89285468836
-6.96430238403
-7.03550353546
-7.10644121857
-7.17709756287
-7.24745371177
-7.31748973984
-7.38718455871
-7.45651587251
-7.52546019454
-7.59399284706
-7.66208788552
-7.72971802664
-7.79685462535
-7.86346763926
-7.92952554329
-7.99499528038
-8.05984225604
-8.12403030681
-8.18752161198
-8.25027661554
-8.31225403223
-8.37341088601
-8.43370246622
-8.49308224921
-8.551501805
-8.6089107763
-8.66525697521
-8.72048626426
-8.77454243723
-8.82736727914
-8.87890070779
-8.92908080514
-8.97784352371
-9.0251226707
-9.07085011682
-9.11495582496
-9.15736787049
-9.19801228661
-9.23681306543
-9.27369243197
-9.30857079334
-9.34136667466
-9.37199678744
-9.40037608777
-9.42641803716
-9.45003466732
-9.47113645505
-9.48963225245
-9.50542978127
-9.5184356155
-9.52855520122
-9.53569294523
-9.5397523711
-9.54063656423
-9.53824797432
-9.53248852736
-9.52325966676
-9.51046286675
-9.49399968696
-9.47377214582
-9.44968245191
-9.42163345435
-9.38952872896
-9.35327260884
-9.31277042341
-9.26792899023
-9.21865696134
-9.16486453208
-9.10646362118
-9.04336813687
-8.97549426643
-8.90276095996
-8.82508973922
-8.74240525637
-8.65463576903
-8.56171270407
-8.46357229729
-8.3601561159
-8.25141218688
-8.13729675222
-8.01777569098
-7.89282873837
-7.76245319398
-7.62666789322
-7.48552087501
-7.33909596744
-7.18751818926
-7.03096016421
-6.86963366834
-6.70378369773
-6.53367262585
-6.35961614872
-1.96428076677
-1.93318302092
-1.94840891427
-2.00007580855
-2.07413290158
-2.16233462486
-2.25773866305
-2.35500702522
-2.45091914029
-2.54392999266
-2.6335652945
-2.71995595725
-2.80352051502
-2.88476915339
-2.9641975811
-3.04223886854
-3.11924827068
-3.19550495098
-3.27122182363
-3.34655741762
-3.42162746546
-3.49651486821
-3.57127797629
-3.6459571634
-3.72058032314
-3.79516509171
-3.86972344268
-3.94426271765
-4.01878713138
-4.09329888831
-4.16779884086
-4.24228689908
-4.31676225975
-4.39122382896
-4.46567027774
-4.54010005941
-4.61451141654
-4.68890244252
-4.76327114741
-4.83761533144
-4.91193264827
-4.9862205809
-5.06047655956
-5.13469782802
-5.20888134772
-5.28302372151
-5.35712136472
-5.43117047997
-5.50516698686
-5.57910645837
-5.65298418697
-5.72679519281
-5.80053412634
-5.87419515197
-5.9477719566
-6.02125783589
-6.09464573882
-6.16792809062
-6.24109675176
-6.31414300068
-6.38705761439
-6.45983073728
-6.53245181188
-6.60490961301
-6.67719228699
-6.74928728091
-6.82118118068
-6.89285968261
-6.96430764771
-7.03550910523
-7.10644716288
-7.17710392894
-7.24746050626
-7.31749696203
-7.38719221692
-7.45652396246
-7.52546870124
-7.59400177741
-7.66209729681
-7.7297280054
-7.79686522999
-7.86347887238
-7.92953739929
-7.99500779138
-8.05985545543
-8.12404418613
-8.18753615022
-8.25029183059
-8.31226998321
-8.37342764188
-8.43372008832
-8.49310076471
-8.55152120103
-8.60893109153
-8.66527824435
-8.72050849666
-8.77456563061
-8.82739147589
-8.87892600015
-8.92910722188
-8.97787108111
-9.025151478
-9.0708802165
-9.1149872779
-9.15740063693
-9.19804636874
-9.23684864144
-9.27372969275
-9.30860983208
-9.34140750765
-9.37203945068
-9.40042078771
-9.4264650685
-9.45008429813
-9.47118883123
-9.48968763479
-9.50548858664
-9.51849837639
-9.52862250663
-9.53576532168
-9.53983056701
-9.54072161621
-9.53834105063
-9.53259090799
-9.52337286596
-9.51058887401
-9.49414107086
-9.47393188579
-9.44986392204
-9.42184060126
-9.38976639225
-9.35354669359
-9.31308798974
-9.26829849095
-9.21908846325
-9.16537020032
-9.10705795544
-9.04406842402
-8.9763213896
-8.90373974756
-8.82624975483
-8.7437815991
-8.65626998561
-8.56365471759
-8.46588156149
-8.36290298617
-8.25467996983
-8.14118332773
-8.0223967123
-7.89831950917
-7.76896997635
-7.63439174445
-7.49465791278
-7.34987996527
-7.20021293502
-7.04586287909
-6.88708934537
-6.72421092111
-6.55761311509
-6.3877915803
-1.96428147827
-1.93318276195
-1.94840839748
-2.00007611535
-2.07413305524
-2.16233443532
-2.25773873685
-2.3550071609
-2.45091911289
-2.5439299829
-2.63356532132
-2.71995596115
-2.80352046028
-2.88476917784
-2.96419767171
-3.04223900864
-3.11924839249
-3.19550503902
-3.27122187614
-3.34655744822
-3.42162746629
-3.49651485136
-3.57127801092
-3.64595728118
-3.72058048788
-3.79516526516
-3.86972361546
-3.94426287017
-4.01878725184
-4.0932989978
-4.1677989697
-4.24228705169
-4.31676246725
-4.39122408598
-4.46567055877
-4.54010034145
-4.61451171119
-4.68890276916
-4.76327148841
-4.83761566605
-4.91193298435
-4.9862209513
-5.06047699487
-5.13469834494
-5.20888193256
-5.28302436864
-5.35712205196
-5.4311711825
-5.5051676812
-5.57910716514
-5.65298496338
-5.72679607766
-5.80053511272
-5.87419621891
-5.94777307744
-6.02125900244
-6.09464691538
-6.16792932509
-6.24109809846
-6.31414449231
-6.38705922596
-6.45983244719
-6.53245363459
-6.60491156037
-6.67719434806
-6.74928944146
-6.82118345628
-6.89286209246
-6.96431018456
-7.0355117561
-7.10644995606
-7.17710692671
-7.24746374167
-7.31750039921
-7.38719579388
-7.45652766921
-7.52547258173
-7.59400587092
-7.6621016111
-7.72973255527
-7.79687003608
-7.86348393105
-7.92954269403
-7.99501332575
-8.05986124046
-8.12405021294
-8.18754240122
-8.25029831336
-8.31227676382
-8.3734347884
-8.43372759861
-8.49310858792
-8.55152933879
-8.60893958976
-8.66528708086
-8.72051757268
-8.77457496116
-8.82740117764
-8.87893617221
-8.92911784256
-8.97788209925
-9.0251629516
-9.07089225852
-9.1149998366
-9.15741368356
-9.19805995905
-9.23686287947
-9.27374465566
-9.3086255234
-9.3414239925
-9.3720569424
-9.40043949974
-9.42648516794
-9.45010586442
-9.47121209008
-9.48971296835
-9.50551643085
-9.51852909207
-9.52865653701
-9.53580333155
-9.53987346326
-9.54077037105
-9.53839663519
-9.53265466511
-9.52344658294
-9.51067458224
-9.494241059
-9.47404891572
-9.45000152894
-9.42200283421
-9.38995793772
-9.35377328372
-9.31335682133
-9.26861829853
-9.21946929473
-9.16582383604
-9.10759873678
-9.04471355119
-8.97709136616
-8.90465873058
-8.82734651051
-8.74509074705
-8.65783224008
-8.56551831378
-8.46810370235
-8.36555124645
-8.2578346472
-8.14493778526
-8.02685997573
-7.90361959278
-7.77525503414
-7.64183325034
-7.50345290561
-7.36025333016
-7.21242394407
-7.0602094847
-6.90392000898
-6.74394457857
-6.58076465572
-6.41499020493
-1.9450333186
-1.91346688524
-1.9331129043
-1.99055938072
-2.06957238348
-2.16135065482
-2.25896865832
-2.35735618295
-2.45363759646
-2.54657158143
-2.63590421145
-2.72190818916
-2.80508409408
-2.8859833518
-2.96511764048
-3.04292195877
-3.119746363
-3.19586219619
-3.27147410275
-3.34673287559
-3.42174754533
-3.49659566916
-3.57133137393
-3.64599153103
-3.72060233899
-3.79517869146
-3.86973145296
-3.94426710463
-4.01878925731
-4.09329968919
-4.16779894095
-4.24228665981
-4.31676196482
-4.39122359885
-4.46567008968
-4.54009988647
-4.61451133094
-4.68890251755
-4.76327132751
-4.83761553496
-4.91193288896
-4.98622095523
-5.06047711305
-5.13469850188
-5.20888204704
-5.283024463
-5.35712214373
-5.43117122358
-5.5051676178
-5.57910704906
-5.6529849077
-5.72679615662
-5.80053527593
-5.87419638114
-5.94777324813
-6.02125917832
-6.09464706819
-6.16792941429
-6.24109815178
-6.31414457564
-6.38705933486
-6.45983251674
-6.53245363787
-6.6049115311
-6.67719429806
-6.74928932564
-6.8211832452
-6.89286182907
-6.96430992585
-7.03551149807
-7.10644966656
-7.17710661872
-7.24746344037
-7.31750006119
-7.38719534336
-7.45652709676
-7.52547192964
-7.59400514309
-7.66210076648
-7.72973156958
-7.79686894049
-7.8634827823
-7.92954147724
-7.9950119373
-8.05985961184
-8.12404836849
-8.1875403777
-8.25029610741
-8.31227438308
-8.37343227412
-8.43372496116
-8.49310578986
-8.55152631813
-8.60893627567
-8.66528341573
-8.72051351436
-8.77457052061
-8.82739641219
-8.87893117143
-8.92911261359
-8.97787661743
-9.02515716404
-9.07088615841
-9.11499346175
-9.15740699077
-9.19805295788
-9.23685562953
-9.27373715446
-9.30861781126
-9.34141617357
-9.37204921854
-9.40043209063
-9.42647820522
-9.45009944541
-9.47120634894
-9.48970826253
-9.50551309591
-9.51852747894
-9.52865706697
-9.53580684439
-9.53988093293
-9.54078267393
-9.53841467888
-9.53267973172
-9.5234805122
-9.51071946035
-9.49429908706
-9.47412270608
-9.4500945046
-9.42211930717
-9.39010287297
-9.35395245153
-9.31357721388
-9.26888855954
-9.21979966896
-9.16622620062
-9.1080873315
-9.04530548712
-8.97780720518
-8.90552274453
-8.82838705974
-8.74634215639
-8.65933547834
-8.56732151187
-8.47026375834
-8.36813439276
-8.26091950523
-8.14861731549
-8.03124132988
-7.90882820703
-7.78143621192
-7.6491556829
-7.5121116816
-7.37047088191
-7.22445685731
-7.07435435628
-6.92051818078
-6.7633915599
-6.60352042658
-6.44157372982
-1.9028001962
-1.87174864517
-1.90167932382
-1.97145236501
-2.06062088976
-2.15949711473
-2.26137649983
-2.3618489163
-2.45877546475
-2.5515218614
-2.64025915791
-2.72552568234
-2.8079708301
-2.88821857185
-2.96680752867
-3.04417426257
-3.12065825845
-3.19651562824
-3.27193519131
-3.34705335261
-3.42196685412
-3.49674325724
-3.57142900262
-3.64605558151
-3.72064214042
-3.79520284103
-3.86974545369
-3.94427461457
-4.01879276628
-4.09330084738
-4.16779876817
-4.24228580233
-4.31676083615
-4.39122243675