/*--------------------------------*- C++ -*----------------------------------*\
| =========                 |                                                 |
| \\      /  F ield         | OpenFOAM: The Open Source CFD Toolbox           |
|  \\    /   O peration     | Version:  2106                                  |
|   \\  /    A nd           | Website:  www.openfoam.com                      |
|    \\/     M anipulation  |                                                 |
\*---------------------------------------------------------------------------*/
FoamFile
{
    version     2.0;
    format      ascii;
    arch        "LSB;label=32;scalar=64";
    class       surfaceScalarField;
    location    "0.49";
    object      phi;
}
// * * * * * * * * * * * * * * * * * * * * * * * * * * * * * * * * * * * * * //

dimensions      [0 3 -1 0 0 0 0];

oriented        oriented;

internalField   nonuniform List<scalar> 
18840
(
3.37543046802e-05
1.62456953173e-05
2.25359624812e-05
1.12183414524e-05
1.63023777271e-05
6.23358463282e-06
1.28098253521e-05
3.49255311724e-06
1.08065803068e-05
2.00324496219e-06
9.60476917631e-06
1.20181077971e-06
8.85167870742e-06
7.53090610645e-07
8.36503098459e-06
4.86647838779e-07
8.04518637439e-06
3.19844509997e-07
7.83374216281e-06
2.11444150016e-07
7.69428221888e-06
1.39459965231e-07
7.60308055438e-06
9.1201648528e-08
7.54426562631e-06
5.88149168887e-08
7.50707740188e-06
3.71882850639e-08
7.48418947121e-06
2.28879153557e-08
7.47062395803e-06
1.35655026513e-08
7.46302145349e-06
7.60254392273e-09
7.45913872727e-06
3.88275624932e-09
7.45749903994e-06
1.6396988214e-09
7.45714595328e-06
3.53044649139e-10
7.4574833138e-06
-3.37355160524e-10
7.45813443217e-06
-6.5106132707e-10
7.458886449e-06
-7.52030964762e-10
7.45962013168e-06
-7.33750264716e-10
7.46027660706e-06
-6.56488706173e-10
7.46083311308e-06
-5.56474802353e-10
7.46128731284e-06
-4.5422356273e-10
7.46164752765e-06
-3.60250646685e-10
7.46192669854e-06
-2.7918116702e-10
7.46213891807e-06
-2.12188566922e-10
7.46229750862e-06
-1.5855797734e-10
7.46241418698e-06
-1.16669482029e-10
7.46249879479e-06
-8.45960286156e-11
7.46255931872e-06
-6.04809082865e-11
7.46260202558e-06
-4.26701569357e-11
7.46263172963e-06
-2.97064091533e-11
7.46265209736e-06
-2.03765733301e-11
7.4626658526e-06
-1.37535622741e-11
7.46267499878e-06
-9.14040401145e-12
7.46268097768e-06
-5.99388653235e-12
7.46268482539e-06
-3.88191564644e-12
7.46268730933e-06
-2.49783853623e-12
7.462688885e-06
-1.55571805978e-12
7.46268981121e-06
-9.21009327121e-13
7.46269036504e-06
-5.78902630809e-13
7.46269073092e-06
-3.65919596907e-13
7.46269101236e-06
-2.36567437782e-13
7.46269126308e-06
-1.89809678333e-13
7.46269148337e-06
-1.86700612374e-13
7.46269171299e-06
-1.93959835291e-13
7.46269196305e-06
-2.1960116783e-13
7.46269224174e-06
-2.59631718743e-13
7.46269253387e-06
-2.97635146426e-13
7.46269283924e-06
-3.29638547776e-13
7.46269318758e-06
-3.71242721389e-13
7.46269358169e-06
-4.23917413517e-13
7.46269400335e-06
-4.76482849062e-13
7.46269447194e-06
-5.06689162812e-13
7.46269500258e-06
-5.31432032074e-13
7.462695587e-06
-5.56463741814e-13
7.46269619108e-06
-5.83437214435e-13
7.46269680852e-06
-6.04323514306e-13
7.46269745504e-06
-6.27150552776e-13
7.46269811979e-06
-6.69458324314e-13
7.46269879367e-06
-7.17134149733e-13
7.46269949565e-06
-7.46237507061e-13
7.46270024012e-06
-7.70895207626e-13
7.46270102481e-06
-8.15886470988e-13
7.46270183902e-06
-8.69773005072e-13
7.46270269011e-06
-9.09813398223e-13
7.46270360226e-06
-9.5111244443e-13
7.46270458321e-06
-9.99329196221e-13
7.4627056102e-06
-1.03607084094e-12
7.46270666256e-06
-1.05116920973e-12
7.46270774765e-06
-1.06553444909e-12
7.46270887935e-06
-1.10924683462e-12
7.46271005078e-06
-1.17229901896e-12
7.46271125555e-06
-1.22074333041e-12
7.46271250752e-06
-1.25273356144e-12
7.46271381355e-06
-1.29372977083e-12
7.46271516681e-06
-1.34911702926e-12
7.46271655824e-06
-1.40139209837e-12
7.46271798462e-06
-1.44687980311e-12
7.46271944581e-06
-1.50109578791e-12
7.46272094775e-06
-1.56522827715e-12
7.46272251067e-06
-1.62345116207e-12
7.46272413557e-06
-1.67116918352e-12
7.46272580113e-06
-1.71645841418e-12
7.46272751631e-06
-1.767407974e-12
7.46272930432e-06
-1.81555135028e-12
7.46273118071e-06
-1.8564843145e-12
7.46273313334e-06
-1.90928526049e-12
7.4627351276e-06
-1.98128231182e-12
7.46273717967e-06
-2.06323495931e-12
7.46273932493e-06
-2.15059955231e-12
7.46274158491e-06
-2.24491023853e-12
7.4627439642e-06
-2.35961828837e-12
7.46274643717e-06
-2.49832761438e-12
7.46274903384e-06
-2.65262232116e-12
7.46275181976e-06
-2.82726358735e-12
7.46275486749e-06
-3.0651036277e-12
7.46275822228e-06
-3.36154327385e-12
7.46276191084e-06
-3.72069683899e-12
7.46276602837e-06
-4.15307175436e-12
7.46277068151e-06
-4.67891216075e-12
7.4627759779e-06
-5.32237232995e-12
7.46278209686e-06
-6.11838491951e-12
7.46278922632e-06
-7.10129231044e-12
7.46279757392e-06
-8.3144334571e-12
7.46280742751e-06
-9.80839731489e-12
7.46281915925e-06
-1.16695387058e-11
7.46283320359e-06
-1.39963538931e-11
7.46285019294e-06
-1.69163100545e-11
7.46287080844e-06
-2.05707055709e-11
7.46289591613e-06
-2.50653433589e-11
7.46292662181e-06
-3.06144156891e-11
7.46296423089e-06
-3.75115103873e-11
7.46301040085e-06
-4.60699756757e-11
7.46306718523e-06
-5.66925448717e-11
7.46313709468e-06
-6.98310072691e-11
7.46322327238e-06
-8.6041499924e-11
7.463329594e-06
-1.06151982492e-10
7.46346092489e-06
-1.31193312749e-10
7.46362386335e-06
-1.62779225226e-10
7.46382900154e-06
-2.04989294403e-10
7.46407962867e-06
-2.50451667007e-10
7.46438815827e-06
-3.08341821231e-10
7.46476979281e-06
-3.81545921563e-10
7.46524233409e-06
-4.72440751866e-10
7.46582750369e-06
-5.85161708941e-10
7.46655220345e-06
-7.24612315025e-10
7.4674497852e-06
-8.97285077033e-10
7.46856155691e-06
-1.11143008572e-09
7.46993869664e-06
-1.37695181499e-09
7.47164482201e-06
-1.70604363578e-09
7.47375902944e-06
-2.11405378579e-09
7.476379616e-06
-2.62026860734e-09
7.47962861748e-06
-3.24870172268e-09
7.4836579145e-06
-4.02919572559e-09
7.48865711786e-06
-4.99918488727e-09
7.49486312989e-06
-6.20595225459e-09
7.50257222199e-06
-7.70914222295e-09
7.51215616817e-06
-9.58411448473e-09
7.52408322335e-06
-1.19270798833e-08
7.53894525388e-06
-1.48618339416e-08
7.55749434227e-06
-1.85487649488e-08
7.5806919913e-06
-2.31974661768e-08
7.60977726644e-06
-2.90853048733e-08
7.64636311587e-06
-3.65857816173e-08
7.69257523521e-06
-4.6212046455e-08
7.75126509053e-06
-5.86899014025e-08
7.82636190817e-06
-7.50968761287e-08
7.92352813871e-06
-9.71665355374e-08
8.05160573006e-06
-1.28077631147e-07
8.22634793754e-06
-1.74742129824e-07
8.48099100593e-06
-2.54643529363e-07
8.89759539298e-06
-4.16604391387e-07
9.7064647984e-06
-8.08869437789e-07
1.16140370157e-05
-1.90757190775e-06
-5.15950907429e-06
1.67735468439e-05
5.01388819734e-05
1.61068140531e-05
4.41591297629e-05
1.71980939381e-05
3.77598734784e-05
1.26328398837e-05
3.2649514512e-05
8.60291235135e-06
2.89465823992e-05
5.70617752642e-06
2.63676032405e-05
3.78078971454e-06
2.45938852861e-05
2.52680842482e-06
2.33783984626e-05
1.70213476961e-06
2.25473239812e-05
1.15091900331e-06
2.19811569333e-05
7.77611091062e-07
2.15978045547e-05
5.22812335854e-07
2.1340541669e-05
3.48464616324e-07
2.11699441649e-05
2.29412323984e-07
2.1058536522e-05
1.48595963597e-07
2.09871855264e-05
9.42389663518e-08
2.09426220476e-05
5.81289805157e-08
2.09157075427e-05
3.45170257444e-08
2.09002077644e-05
1.93825555594e-08
2.0891920334e-05
9.92720266408e-09
2.08880551875e-05
4.21818895325e-09
2.08867854935e-05
9.32294449331e-10
2.08869504962e-05
-8.16076437387e-10
2.0887828822e-05
-1.63034670856e-09
2.08889873369e-05
-1.89226506779e-09
2.08901807365e-05
-1.84994822835e-09
2.08912812804e-05
-1.65707101206e-09
2.08922327753e-05
-1.40569296904e-09
2.08930204549e-05
-1.14794055527e-09
2.08936520346e-05
-9.10789525521e-10
2.08941459256e-05
-7.06056644387e-10
2.08945242071e-05
-5.36769335997e-10
2.08948087833e-05
-4.01165325147e-10
2.08950194378e-05
-2.95212007249e-10
2.08951730877e-05
-2.14115522257e-10
2.08952836216e-05
-1.53162758784e-10
2.08953620593e-05
-1.08097917484e-10
2.08954169543e-05
-7.52721490984e-11
2.08954548279e-05
-5.16802907392e-11
2.08954805742e-05
-3.49436207775e-11
2.0895497799e-05
-2.32547288591e-11
2.08955090768e-05
-1.51777483936e-11
2.08955162157e-05
-9.66988777152e-12
2.08955206332e-05
-5.99297922972e-12
2.08955233535e-05
-3.61759106823e-12
2.08955249468e-05
-2.12258387188e-12
2.08955258001e-05
-1.17498556159e-12
2.08955262129e-05
-6.18108605547e-13
2.08955264908e-05
-4.05192533584e-13
2.0895526679e-05
-3.07244540442e-13
2.08955268113e-05
-2.89604089003e-13
2.08955269328e-05
-3.24283420229e-13
2.08955270761e-05
-3.90435031668e-13
2.08955272246e-05
-4.84135530187e-13
2.08955273757e-05
-5.76350721993e-13
2.08955275735e-05
-6.40460060785e-13
2.08955278266e-05
-7.02140966385e-13
2.08955281124e-05
-7.81843727011e-13
2.08955284319e-05
-8.52421926607e-13
2.08955288173e-05
-8.89478479765e-13
2.08955292618e-05
-9.26725097634e-13
2.08955297249e-05
-9.82240143995e-13
2.08955301884e-05
-1.03562359618e-12
2.08955306691e-05
-1.08499973518e-12
2.08955311777e-05
-1.14991897414e-12
2.0895531703e-05
-1.23305562963e-12
2.08955322357e-05
-1.32117518987e-12
2.0895532787e-05
-1.40134869204e-12
2.08955333821e-05
-1.47064168245e-12
2.08955340169e-05
-1.54331538137e-12
2.089553467e-05
-1.61441618575e-12
2.0895535368e-05
-1.67144954032e-12
2.08955361413e-05
-1.72443087953e-12
2.08955369665e-05
-1.79236311298e-12
2.08955377975e-05
-1.87507796124e-12
2.08955386302e-05
-1.95093398433e-12
2.08955395073e-05
-2.01288240928e-12
2.08955404448e-05
-2.08203547765e-12
2.08955414166e-05
-2.17113700917e-12
2.08955424137e-05
-2.2693740706e-12
2.08955434524e-05
-2.36537048856e-12
2.08955445449e-05
-2.46056470939e-12
2.0895545681e-05
-2.56444263949e-12
2.08955468476e-05
-2.68348857355e-12
2.08955480544e-05
-2.81335336671e-12
2.08955493195e-05
-2.93388740656e-12
2.08955506544e-05
-3.03090508929e-12
2.08955520514e-05
-3.1277518462e-12
2.08955534973e-05
-3.24003478803e-12
2.08955550294e-05
-3.35011900944e-12
2.08955566865e-05
-3.45199165957e-12
2.08955584707e-05
-3.57186081378e-12
2.0895560369e-05
-3.75024078163e-12
2.08955623679e-05
-3.99166481806e-12
2.08955645165e-05
-4.25926797241e-12
2.08955668796e-05
-4.53642407131e-12
2.08955694863e-05
-4.8463463352e-12
2.08955723695e-05
-5.23658267096e-12
2.08955755578e-05
-5.7298173508e-12
2.08955791457e-05
-6.31164648522e-12
2.08955832635e-05
-7.00255098453e-12
2.08955879846e-05
-7.84709855979e-12
2.08955934501e-05
-8.88858050425e-12
2.08955998119e-05
-1.01535190496e-11
2.08956073113e-05
-1.167701893e-11
2.08956162297e-05
-1.35770287164e-11
2.08956268563e-05
-1.59485790472e-11
2.08956395959e-05
-1.88567332517e-11
2.08956549176e-05
-2.2385840632e-11
2.08956733362e-05
-2.66441357606e-11
2.08956953159e-05
-3.16730398822e-11
2.08957215006e-05
-3.77794461234e-11
2.08957545919e-05
-4.704233436e-11
2.08957955097e-05
-5.77565879003e-11
2.08958459585e-05
-7.08650485247e-11
2.08959081223e-05
-8.70710748336e-11
2.0895984808e-05
-1.07156696688e-10
2.08960794716e-05
-1.32049049619e-10
2.08961963973e-05
-1.62893861588e-10
2.08963409372e-05
-2.01086795725e-10
2.08965196456e-05
-2.48336487964e-10
2.0896740554e-05
-3.06782755198e-10
2.08970136268e-05
-3.7907317388e-10
2.08973511147e-05
-4.68441538578e-10
2.08977677126e-05
-5.79065860904e-10
2.08982794848e-05
-7.16507061275e-10
2.08989168707e-05
-8.87654858301e-10
2.08997089636e-05
-1.10027587406e-09
2.090069143e-05
-1.36379891377e-09
2.09019093416e-05
-1.69011549256e-09
2.09034186447e-05
-2.09409865996e-09
2.09052886661e-05
-2.59430733059e-09
2.09076054725e-05
-3.21388841701e-09
2.09104759632e-05
-3.98159262842e-09
2.09140325126e-05
-4.93310305529e-09
2.0918439382e-05
-6.11263095959e-09
2.0923900592e-05
-7.57510183906e-09
2.09306697185e-05
-9.38912218156e-09
2.09390619729e-05
-1.16405262714e-08
2.0949469578e-05
-1.44364841199e-08
2.09623816047e-05
-1.79111280919e-08
2.09784089541e-05
-2.22332162953e-08
2.09983159429e-05
-2.76158835753e-08
2.10230612931e-05
-3.43292708556e-08
2.1053851969e-05
-4.27177760333e-08
2.10922136851e-05
-5.32237991608e-08
2.11400854771e-05
-6.64206309942e-08
2.11999478528e-05
-8.30595386708e-08
2.12750014689e-05
-1.04138731221e-07
2.13694244207e-05
-1.3100869584e-07
2.14887542213e-05
-1.65541861507e-07
2.16404861531e-05
-2.10422032679e-07
2.18350709257e-05
-2.69681462972e-07
2.20876898997e-05
-3.49785414581e-07
2.24216318874e-05
-4.62019708856e-07
2.28750356718e-05
-6.28145433088e-07
2.35146118727e-05
-8.94219694919e-07
2.44616498523e-05
-1.36364224567e-06
2.59276751122e-05
-2.27489493723e-06
2.82015397694e-05
-4.18143697093e-06
-8.1900867635e-06
3.12321171432e-05
5.35844264612e-05
1.25223874428e-05
5.29166013793e-05
1.78659200771e-05
4.96393014344e-05
1.59101391566e-05
4.58382169486e-05
1.2403996613e-05
4.24428748237e-05
9.10152000835e-06
3.9733159497e-05
6.49050502623e-06
3.7691245449e-05
4.56872231129e-06
3.62011671419e-05
3.19221305211e-06
3.51355938049e-05
2.21649241293e-06
3.43848446985e-05
1.52836014671e-06
3.38626590778e-05
1.04499786077e-06
3.35040068058e-05
7.07117007301e-07
3.32609627607e-05
4.7245634318e-07
3.30987207405e-05
3.10837976476e-07
3.29922907848e-05
2.00668947107e-07
3.29239196762e-05
1.26500151833e-07
3.28811297863e-05
7.73068921936e-08
3.28552511792e-05
4.52610871386e-08
3.28403347227e-05
2.48436982162e-08
3.2832354829e-05
1.21981240923e-08
3.2828628919e-05
4.65816487717e-09
3.28274049852e-05
4.07860381936e-10
3.28275644252e-05
-1.78976178921e-09
3.28284104982e-05
-2.73833235222e-09
3.2829526606e-05
-2.96606569265e-09
3.28306762459e-05
-2.80676860831e-09
3.28317363913e-05
-2.46585085179e-09
3.28326528909e-05
-2.06441483289e-09
3.28334115576e-05
-1.66946361595e-09
3.28340198541e-05
-1.31436186668e-09
3.2834495509e-05
-1.01238554876e-09
3.28348597977e-05
-7.65384895719e-10
3.28351338088e-05
-5.69190031515e-10
3.28353366195e-05
-4.16932729494e-10
3.28354845363e-05
-3.01069367508e-10
3.2835590904e-05
-2.14440519916e-10
3.28356663293e-05
-1.50686666598e-10
3.28357190448e-05
-1.04418966679e-10
3.28357553256e-05
-7.12947165385e-11
3.28357799504e-05
-4.78843058881e-11
3.28357963689e-05
-3.16048622976e-11
3.28358071166e-05
-2.04414079326e-11
3.28358139937e-05
-1.29164282966e-11
3.28358183119e-05
-7.94646031287e-12
3.28358209691e-05
-4.75330500109e-12
3.28358225834e-05
-2.75885680375e-12
3.28358235415e-05
-1.54190319256e-12
3.28358240292e-05
-8.23172604244e-13
3.28358242083e-05
-4.18834453159e-13
3.28358242775e-05
-3.34872544735e-13
3.28358242983e-05
-3.36617096234e-13
3.28358243176e-05
-4.06378714197e-13
3.28358243481e-05
-5.23093524613e-13
3.28358243854e-05
-6.55094168876e-13
3.28358244412e-05
-7.68206508401e-13
3.28358245479e-05
-8.83110415136e-13
3.28358247147e-05
-9.8700992051e-13
3.28358249282e-05
-1.05401233572e-12
3.28358251803e-05
-1.09268678691e-12
3.28358254713e-05
-1.13075661821e-12
3.28358257881e-05
-1.19060149059e-12
3.28358260983e-05
-1.27347878872e-12
3.28358264006e-05
-1.3625525802e-12
3.2835826719e-05
-1.46022779781e-12
3.28358270598e-05
-1.57901908175e-12
3.28358274105e-05
-1.70648732497e-12
3.2835827771e-05
-1.82317390203e-12
3.28358281559e-05
-1.92399419197e-12
3.28358285768e-05
-2.0130471534e-12
3.28358290161e-05
-2.10212049845e-12
3.28358294837e-05
-2.1773309669e-12
3.28358300038e-05
-2.24155078829e-12
3.28358305677e-05
-2.32410536113e-12
3.28358311439e-05
-2.43090909179e-12
3.28358317167e-05
-2.53597033892e-12
3.28358323091e-05
-2.62614156914e-12
3.28358329433e-05
-2.72418639923e-12
3.28358336101e-05
-2.84983212567e-12
3.28358343019e-05
-2.99160491457e-12
3.28358350288e-05
-3.13107130515e-12
3.28358358e-05
-3.26838016732e-12
3.28358366068e-05
-3.42052591321e-12
3.28358374382e-05
-3.59414110299e-12
3.28358383112e-05
-3.7701913566e-12
3.28358392451e-05
-3.9213896911e-12
3.28358402397e-05
-4.04762871615e-12
3.28358412984e-05
-4.18722716352e-12
3.28358424211e-05
-4.36882805897e-12
3.28358436292e-05
-4.57720744921e-12
3.28358449519e-05
-4.79934678822e-12
3.28358464075e-05
-5.05168992269e-12
3.28358480193e-05
-5.36868310282e-12
3.28358497935e-05
-5.76993170704e-12
3.28358517651e-05
-6.23699534155e-12
3.28358539948e-05
-6.7662294751e-12
3.28358565229e-05
-7.38793158764e-12
3.28358594043e-05
-8.13332457818e-12
3.28358626843e-05
-9.03294881297e-12
3.28358664152e-05
-1.00906207913e-11
3.28358706526e-05
-1.12905092319e-11
3.28358759196e-05
-1.31691865946e-11
3.28358822886e-05
-1.52884358171e-11
3.28358899459e-05
-1.78496175533e-11
3.28358991821e-05
-2.09911906518e-11
3.28359104367e-05
-2.48806557786e-11
3.28359241912e-05
-2.97094167107e-11
3.28359410382e-05
-3.56439786132e-11
3.28359617198e-05
-4.29602284797e-11
3.28359872245e-05
-5.20257586689e-11
3.28360189486e-05
-6.327709351e-11
3.28360585066e-05
-7.72922282829e-11
3.28361061452e-05
-9.47017079353e-11
3.28361646268e-05
-1.16206479838e-10
3.28362366773e-05
-1.42843230847e-10
3.28363255177e-05
-1.75860200241e-10
3.28364351659e-05
-2.16736550606e-10
3.28365705534e-05
-2.67357147616e-10
3.28367378164e-05
-3.30049818956e-10
3.28369445946e-05
-4.07646436032e-10
3.28372002472e-05
-5.03690255337e-10
3.28375163194e-05
-6.22602373808e-10
3.28379072619e-05
-7.69755508901e-10
3.28383909535e-05
-9.51877632279e-10
3.28389895757e-05
-1.17747569475e-09
3.28397306367e-05
-1.45727074136e-09
3.28406472821e-05
-1.80428062326e-09
3.28417816554e-05
-2.23467408496e-09
3.28431859915e-05
-2.76814925197e-09
3.28449250698e-05
-3.42890734341e-09
3.28470788534e-05
-4.24730928451e-09
3.28497461909e-05
-5.26116446677e-09
3.28530497169e-05
-6.51716517815e-09
3.28571416589e-05
-8.07329680643e-09
3.28622106561e-05
-1.00017590568e-08
3.28684907111e-05
-1.23922659966e-08
3.28762721854e-05
-1.53562927135e-08
3.28859157767e-05
-1.90326684964e-08
3.28978699468e-05
-2.35946840627e-08
3.29126924883e-05
-2.92589397656e-08
3.29310781349e-05
-3.62967245627e-08
3.29538937627e-05
-4.50488062263e-08
3.29822229157e-05
-5.59448039037e-08
3.30174228916e-05
-6.95288684607e-08
3.3061199261e-05
-8.64937825712e-08
3.3115703335e-05
-1.07727696667e-07
3.31836617203e-05
-1.34379039243e-07
3.3268550937e-05
-1.67948814074e-07
3.33748381792e-05
-2.10426079757e-07
3.35083224855e-05
-2.64493171045e-07
3.36766320873e-05
-3.33851587968e-07
3.38899756047e-05
-4.23765872392e-07
3.41623236545e-05
-5.42029664252e-07
3.45133169688e-05
-7.00778687468e-07
3.49713784516e-05
-9.2008142283e-07
3.55785687888e-05
-1.23533558662e-06
3.6397008957e-05
-1.71265986582e-06
3.75127877617e-05
-2.47942084796e-06
3.90161824605e-05
-3.77828916683e-06
4.08811121005e-05
-6.04636650817e-06
-9.90425387162e-06
4.25952806774e-05
5.35705195532e-05
8.95186723336e-06
5.55863060504e-05
1.58501346686e-05
5.52410590002e-05
1.6255386013e-05
5.35976157034e-05
1.4047439496e-05
5.15429060008e-05
1.11562298906e-05
4.95819406389e-05
8.45147055889e-06
4.79262513828e-05
6.22441151885e-06
4.66200399819e-05
4.49842431536e-06
4.56322341407e-05
3.20429831961e-06
4.49066879952e-05
2.25390634332e-06
4.43854425839e-05
1.5662432199e-06
4.40178333063e-05
1.07472635824e-06
4.37629128092e-05
7.27376808266e-07
4.35890452855e-05
4.8470541242e-07
4.34725020751e-05
3.17212164066e-07
4.33958690907e-05
2.03133173855e-07
4.33465910785e-05
1.26584918056e-07
4.33157569527e-05
7.60952206546e-08
4.32971355109e-05
4.34651516075e-08
4.32864339476e-05
2.28997481207e-08
4.32807406476e-05
1.03515063843e-08
4.32781178837e-05
3.03057382668e-09
4.32772911772e-05
-9.63131127305e-10
4.32774557124e-05
-2.90284479001e-09
4.32781071219e-05
-3.61748897394e-09
4.32789451132e-05
-3.64480642683e-09
4.32798000838e-05
-3.32084529362e-09
4.32805844358e-05
-2.8487526477e-09
4.32812602611e-05
-2.34525683469e-09
4.3281818381e-05
-1.87246492749e-09
4.32822650534e-05
-1.45906085031e-09
4.32826138002e-05
-1.11411801624e-09
4.32828805482e-05
-8.35897275419e-10
4.32830809507e-05
-6.1731419388e-10
4.32832291075e-05
-4.49239703883e-10
4.32833370353e-05
-3.22379126116e-10
4.32834145634e-05
-2.28188546933e-10
4.32834694502e-05
-1.59303164272e-10
4.32835077436e-05
-1.09605785324e-10
4.32835340837e-05
-7.42464161193e-11
4.32835519364e-05
-4.94458087473e-11
4.32835638108e-05
-3.23250770626e-11
4.32835715298e-05
-2.06797285943e-11
4.32835764463e-05
-1.28873111801e-11
4.32835795007e-05
-7.78648703318e-12
4.32835813218e-05
-4.5388450646e-12
4.32835823388e-05
-2.5299139471e-12
4.32835828968e-05
-1.35458010677e-12
4.32835832389e-05
-7.42875236816e-13
4.32835833791e-05
-4.73742792576e-13
4.32835834077e-05
-3.79807684282e-13
4.32835833839e-05
-4.08778496108e-13
4.32835833422e-05
-4.9807445975e-13
4.3283583288e-05
-6.27521953231e-13
4.32835832242e-05
-7.55968956774e-13
4.32835831747e-05
-8.65398667061e-13
4.32835831595e-05
-9.67662664545e-13
4.32835831764e-05
-1.05656002747e-12
4.32835832073e-05
-1.13315492195e-12
4.32835832545e-05
-1.20260607763e-12
4.32835833182e-05
-1.27759332015e-12
4.32835833815e-05
-1.36306009345e-12
4.3283583434e-05
-1.46217636305e-12
4.32835834859e-05
-1.56595430444e-12
4.32835835496e-05
-1.68463442606e-12
4.3283583629e-05
-1.81269448202e-12
4.32835837034e-05
-1.94151157551e-12
4.32835837763e-05
-2.04844615554e-12
4.32835838613e-05
-2.14194961051e-12
4.32835839612e-05
-2.23503516741e-12
4.32835840774e-05
-2.32166328564e-12
4.32835842151e-05
-2.40407440107e-12
4.32835843772e-05
-2.48991937361e-12
4.32835845523e-05
-2.58266210414e-12
4.32835847184e-05
-2.68431884726e-12
4.32835848758e-05
-2.80040589604e-12
4.32835850476e-05
-2.93405943643e-12
4.32835852433e-05
-3.08083530696e-12
4.32835854583e-05
-3.23586452224e-12
4.32835856914e-05
-3.39833133959e-12
4.32835859453e-05
-3.57263896657e-12
4.32835862221e-05
-3.76324865751e-12
4.32835865271e-05
-3.96034368867e-12
4.32835868797e-05
-4.14684646358e-12
4.32835872844e-05
-4.32933753851e-12
4.32835877252e-05
-4.52106968196e-12
4.32835882189e-05
-4.72938888774e-12
4.32835887945e-05
-4.96848421258e-12
4.32835894718e-05
-5.2511178857e-12
4.32835902616e-05
-5.59900314496e-12
4.3283591176e-05
-6.02453092771e-12
4.32835922605e-05
-6.51603855837e-12
4.32835935563e-05
-7.08249178078e-12
4.32835950986e-05
-7.75581637003e-12
4.32835969412e-05
-8.57372688708e-12
4.32835991395e-05
-9.57277469624e-12
4.32836017785e-05
-1.07846408423e-11
4.32836049716e-05
-1.22716545993e-11
4.32836089001e-05
-1.40981609794e-11
4.32836138503e-05
-1.63278240043e-11
4.32836196677e-05
-1.90421546403e-11
4.32836267024e-05
-2.23527739782e-11
4.32836352482e-05
-2.64299101755e-11
4.32836456471e-05
-3.14732745034e-11
4.32836583994e-05
-3.76757125365e-11
4.32836741032e-05
-4.53367666012e-11
4.32836934092e-05
-5.48164907216e-11
4.32837171249e-05
-6.65566452711e-11
4.32837462904e-05
-8.10917832978e-11
4.32837821924e-05
-9.91261385235e-11
4.32838264556e-05
-1.21521455763e-10
4.32838811624e-05
-1.49361071687e-10
4.32839487398e-05
-1.83767951261e-10
4.32840322358e-05
-2.263189076e-10
4.32841354155e-05
-2.789932754e-10
4.32842629213e-05
-3.44192996516e-10
4.32844205123e-05
-4.24901371771e-10
4.32846153786e-05
-5.24806782042e-10
4.32848564096e-05
-6.48459261631e-10
4.32851545141e-05
-8.01550262034e-10
4.32855232519e-05
-9.91080609658e-10
4.32859794923e-05
-1.22571628672e-09
4.32865441029e-05
-1.51627295562e-09
4.3287242862e-05
-1.87611928604e-09
4.32881077084e-05
-2.32201951991e-09
4.32891781795e-05
-2.87463256773e-09
4.32905031991e-05
-3.55958702348e-09
4.32921434447e-05
-4.40819690584e-09
4.32941741593e-05
-5.45930458968e-09
4.32966884667e-05
-6.76128194638e-09
4.32998017268e-05
-8.37409549661e-09
4.33036568374e-05
-1.03720232732e-08
4.33084309922e-05
-1.28472895189e-08
4.33143438606e-05
-1.59144904128e-08
4.3321667922e-05
-1.97160582104e-08
4.33307410678e-05
-2.44291248456e-08
4.33419827023e-05
-3.0274076153e-08
4.33559139326e-05
-3.75256999478e-08
4.33731823696e-05
-4.65271778737e-08
4.33945936566e-05
-5.77079033827e-08
4.34211514771e-05
-7.16065299592e-08
4.3454107907e-05
-8.89010829334e-08
4.34950277435e-05
-1.10448553453e-07
4.35458712669e-05
-1.37337253572e-07
4.36091014722e-05
-1.70957973e-07
4.36878245722e-05
-2.13102226242e-07
4.37859756795e-05
-2.66099998297e-07
4.39085690015e-05
-3.33019474174e-07
4.40620401043e-05
-4.17964374052e-07
4.42547222396e-05
-5.26533598718e-07
4.44975182368e-05
-6.66561693289e-07
4.4804850963e-05
-8.49362336508e-07
4.51959776334e-05
-1.09190524973e-06
4.56966374515e-05
-1.42074129575e-06
4.63404765678e-05
-1.87917452513e-06
4.7167964501e-05
-2.54014796969e-06
4.82159087709e-05
-3.52736509441e-06
4.94798560577e-05
-5.04223683286e-06
5.08104983049e-05
-7.37700923533e-06
-1.08193815355e-05
5.17256259435e-05
5.276060799e-05
6.1912585064e-06
5.57402407473e-05
1.28705025843e-05
5.73124121724e-05
1.46832147615e-05
5.76111978595e-05
1.37486534727e-05
5.71338685688e-05
1.16335591426e-05
5.63199842433e-05
9.26535506255e-06
5.54496451665e-05
7.09475063583e-06
5.46637030912e-05
5.28436636165e-06
5.4014413271e-05
3.85358815793e-06
5.35068427655e-05
2.76147688196e-06
5.31248782619e-05
1.9482076337e-06
5.28455242508e-05
1.3540803131e-06
5.26458881295e-05
9.2701301519e-07
5.25060754782e-05
6.24518039218e-07
5.24099978063e-05
4.13289770276e-07
5.23452162932e-05
2.67914706446e-07
5.23024113738e-05
1.69389900536e-07
5.22747665018e-05
1.03740108899e-07
5.2257394324e-05
6.0837329464e-08
5.22468522842e-05
3.34418056086e-08
5.22407560572e-05
1.64477630627e-08
5.22374830574e-05
6.30357502715e-09
5.22359418191e-05
5.78097716446e-10
5.22354265258e-05
-2.38756587328e-09
5.2235478476e-05
-3.66943403035e-09
5.22358133373e-05
-3.97969208273e-09
5.22362606213e-05
-3.76816680345e-09
5.22367234904e-05
-3.31161102582e-09
5.22371513663e-05
-2.77308863356e-09
5.2237521813e-05
-2.24289381218e-09
5.22378287715e-05
-1.76604698826e-09
5.2238075082e-05
-1.36044487864e-09
5.22382678086e-05
-1.02859249057e-09
5.22384154683e-05
-7.64939907761e-10
5.22385265522e-05
-5.60336670142e-10
5.22386087968e-05
-4.04634663562e-10
5.22386688002e-05
-2.88164051632e-10
5.22387119476e-05
-2.02407110878e-10
5.22387425052e-05
-1.40176734771e-10
5.22387638533e-05
-9.5621699755e-11
5.22387785586e-05
-6.41726132448e-11
5.22387885337e-05
-4.23119657651e-11
5.22387951678e-05
-2.73406314545e-11
5.22387995064e-05
-1.72410463894e-11
5.22388023004e-05
-1.05673667386e-11
5.22388040798e-05
-6.27613366015e-12
5.22388051651e-05
-3.59617122153e-12
5.22388057751e-05
-1.9737822108e-12
5.22388060672e-05
-1.03340999486e-12
5.22388061454e-05
-5.49772919728e-13
5.22388060803e-05
-3.52219459523e-13
5.22388059446e-05
-3.20739986015e-13
5.22388058142e-05
-3.921873375e-13
5.22388056951e-05
-5.33385578603e-13
5.22388055755e-05
-6.9311370665e-13
5.22388054733e-05
-8.29226295761e-13
5.22388054058e-05
-9.30803947409e-13
5.22388053635e-05
-1.00869486757e-12
5.22388053173e-05
-1.08581675574e-12
5.22388052554e-05
-1.1589305679e-12
5.22388051914e-05
-1.23034682924e-12
5.22388051296e-05
-1.31958708082e-12
5.22388050562e-05
-1.42378159254e-12
5.22388049605e-05
-1.53646899157e-12
5.22388048622e-05
-1.65507844646e-12
5.22388047824e-05
-1.78073471129e-12
5.2238804711e-05
-1.90874137192e-12
5.22388046264e-05
-2.02223046969e-12
5.22388045326e-05
-2.1140366039e-12
5.22388044536e-05
-2.194138664e-12
5.22388043942e-05
-2.2735473664e-12
5.22388043399e-05
-2.34999019829e-12
5.22388042784e-05
-2.42099736036e-12
5.22388042096e-05
-2.50023827464e-12
5.22388041307e-05
-2.60822513828e-12
5.22388040394e-05
-2.74563074791e-12
5.22388039473e-05
-2.89414889873e-12
5.22388038681e-05
-3.0451460737e-12
5.22388038049e-05
-3.20694919931e-12
5.22388037547e-05
-3.38779701521e-12
5.22388037149e-05
-3.58366108582e-12
5.22388036919e-05
-3.78411104913e-12
5.22388036935e-05
-3.9824721137e-12
5.22388037267e-05
-4.18042926987e-12
5.22388037904e-05
-4.39474806302e-12
5.22388038692e-05
-4.63793399004e-12
5.22388039743e-05
-4.90024157608e-12
5.22388041367e-05
-5.18383964493e-12
5.22388043845e-05
-5.52819137147e-12
5.22388047316e-05
-5.97743901346e-12
5.22388051823e-05
-6.52598922497e-12
5.22388057784e-05
-7.14766189314e-12
5.22388065734e-05
-7.87026277809e-12
5.22388075987e-05
-8.75401719172e-12
5.2238808894e-05
-9.85311992926e-12
5.22388105111e-05
-1.12113951161e-11
5.22388125424e-05
-1.28675163132e-11
5.22388151091e-05
-1.48970798299e-11
5.22388183391e-05
-1.73901748265e-11
5.22388223916e-05
-2.04351571321e-11
5.223882751e-05
-2.41826824567e-11
5.2238833921e-05
-2.87727770275e-11
5.22388419171e-05
-3.44388531891e-11
5.22388518803e-05
-4.14574311551e-11
5.2238864292e-05
-5.0095378218e-11
5.22388797796e-05
-6.07536041655e-11
5.22388990369e-05
-7.39534213482e-11
5.223892292e-05
-9.03362603141e-11
5.2238952511e-05
-1.10655094512e-10
5.22389892032e-05
-1.35810766907e-10
5.22390346737e-05
-1.66961829165e-10
5.22390908899e-05
-2.0554772188e-10
5.22391603818e-05
-2.53263647443e-10
5.22392463591e-05
-3.12266926614e-10
5.22393527639e-05
-3.8527529812e-10
5.22394844147e-05
-4.75682145814e-10
5.22396472957e-05
-5.87633526929e-10
5.22398488825e-05
-7.26203570431e-10
5.22400983651e-05
-8.97709980711e-10
5.22404071015e-05
-1.11006488909e-09
5.22407891853e-05
-1.37298712941e-09
5.22412620939e-05
-1.69846300583e-09
5.22418475416e-05
-2.10145377525e-09
5.22425722054e-05
-2.60055884457e-09
5.2243469142e-05
-3.21883608774e-09
5.22445793947e-05
-3.98482559627e-09
5.22459538129e-05
-4.93380056715e-09
5.22476552221e-05
-6.10932502439e-09
5.22497614909e-05
-7.56535682244e-09
5.22523691403e-05
-9.36875291012e-09
5.22555977686e-05
-1.16024421822e-08
5.22595953819e-05
-1.43693200557e-08
5.22645454027e-05
-1.77970407792e-08
5.22706751321e-05
-2.20440525909e-08
5.22782663787e-05
-2.73071528068e-08
5.22876684509e-05
-3.38309842865e-08
5.22993144236e-05
-4.19198587977e-08
5.23137417947e-05
-5.19528573144e-08
5.23316176919e-05
-6.44028708393e-08
5.23537706224e-05
-7.98606835977e-08
5.2381230436e-05
-9.90661887653e-08
5.2415278266e-05
-1.22948783683e-07
5.245750986e-05
-1.52680039896e-07
5.2509915454e-05
-1.89742857057e-07
5.25749814635e-05
-2.36024181162e-07
5.26558211355e-05
-2.93941919707e-07
5.27563411551e-05
-3.66619946406e-07
5.28814577027e-05
-4.58136030797e-07
5.3037375431e-05
-5.73882341837e-07
5.32319453861e-05
-7.21103911236e-07
5.34751131631e-05
-9.09729300307e-07
5.37794381072e-05
-1.15368703805e-06
5.41605782612e-05
-1.47304558119e-06