/*--------------------------------*- C++ -*----------------------------------*\
| =========                 |                                                 |
| \\      /  F ield         | OpenFOAM: The Open Source CFD Toolbox           |
|  \\    /   O peration     | Version:  2106                                  |
|   \\  /    A nd           | Website:  www.openfoam.com                      |
|    \\/     M anipulation  |                                                 |
\*---------------------------------------------------------------------------*/
FoamFile
{
    version     2.0;
    format      ascii;
    arch        "LSB;label=32;scalar=64";
    class       volVectorField;
    location    "0.18";
    object      U;
}
// * * * * * * * * * * * * * * * * * * * * * * * * * * * * * * * * * * * * * //

dimensions      [0 1 -1 0 0 0 0];

internalField   nonuniform List<vector> 
11200
(
(0.662462405401 0.150569442291 0)
(0.558948679644 0.103243387754 0)
(0.383850749663 0.051351223237 0)
(0.283747614649 0.0248708541375 0)
(0.232075297007 0.0124170441167 0)
(0.201908621121 0.00662281585392 0)
(0.183197974207 0.00380291368838 0)
(0.171276535629 0.00231586965057 0)
(0.16351035766 0.00146450648327 0)
(0.158388823642 0.000944892686537 0)
(0.155006686025 0.000615177470114 0)
(0.15278673063 0.000402234629218 0)
(0.151346578965 0.000264233245946 0)
(0.150428339591 0.000175251367458 0)
(0.149856732379 0.000118362066251 0)
(0.149512527583 8.21615372308e-05 0)
(0.149314962978 5.88675511055e-05 0)
(0.149209596194 4.33173131592e-05 0)
(0.149159730696 3.29359399688e-05 0)
(0.14914248324 2.81876462357e-05 0)
(0.14914462995 2.76856530024e-05 0)
(0.149156895161 2.98911154684e-05 0)
(0.149172505457 3.30515434727e-05 0)
(0.14918804109 3.59672942757e-05 0)
(0.149202237682 3.86029281208e-05 0)
(0.149214495328 4.10420703307e-05 0)
(0.149224646365 4.33193758433e-05 0)
(0.149232797678 4.54659776076e-05 0)
(0.149239185985 4.75211296814e-05 0)
(0.14924409334 4.95318494449e-05 0)
(0.149247804784 5.15600234011e-05 0)
(0.149250587894 5.36965122834e-05 0)
(0.149252639699 5.6024524856e-05 0)
(0.149254130257 5.840564395e-05 0)
(0.149255192617 6.07665457587e-05 0)
(0.149255913509 6.30876782663e-05 0)
(0.149256389382 6.53792752633e-05 0)
(0.14925670377 6.76539988734e-05 0)
(0.149256910417 6.99234825161e-05 0)
(0.149257038148 7.2194008455e-05 0)
(0.149257107482 7.44666715641e-05 0)
(0.149257135428 7.6742449645e-05 0)
(0.149257133898 7.90210096623e-05 0)
(0.149257111468 8.13011522505e-05 0)
(0.149257074388 8.35811310231e-05 0)
(0.149257027515 8.58585457734e-05 0)
(0.14925697514 8.81304940693e-05 0)
(0.149256921491 9.03938866306e-05 0)
(0.149256871023 9.26457230133e-05 0)
(0.149256828894 9.48829691102e-05 0)
(0.149256801892 9.71026451662e-05 0)
(0.149256799138 9.93019428192e-05 0)
(0.149256832971 0.000101478031763 0)
(0.149256920674 0.000103627765921 0)
(0.149257086912 0.000105747116848 0)
(0.149257367215 0.000107830588043 0)
(0.149257812002 0.000109871310072 0)
(0.149258494458 0.000111859644997 0)
(0.149259522789 0.000113782270296 0)
(0.149261054501 0.00011561504139 0)
(0.14926332974 0.000117304666313 0)
(0.149266755512 0.000118763218184 0)
(0.149271811635 0.000120025089171 0)
(0.149279139957 0.000121277442617 0)
(0.149289768175 0.000122975414861 0)
(0.149305217015 0.000125337642176 0)
(0.149327871212 0.000128121730901 0)
(0.149361434438 0.000131093407065 0)
(0.149411513625 0.000134033013041 0)
(0.14948636156 0.000136825746943 0)
(0.149597949849 0.000140756905132 0)
(0.149769192151 0.00015167605159 0)
(0.150037961147 0.000172476887725 0)
(0.150467553427 0.000202829117049 0)
(0.151194038866 0.000232883519058 0)
(0.152495698379 0.000192049708219 0)
(0.155029917729 -0.000217655959765 0)
(0.162394577109 -0.002117815908 0)
(0.187776447241 -0.0108295582395 0)
(0.204658173407 -0.0498918195124 0)
(0.965408255598 0.289214705585 0)
(0.961962862875 0.252656037749 0)
(0.823574396447 0.159021438602 0)
(0.698139375261 0.0959957279697 0)
(0.610225472211 0.0582481110574 0)
(0.548971501711 0.0362148504958 0)
(0.506588899632 0.0231612830529 0)
(0.477567279407 0.0151375140072 0)
(0.457745500754 0.0100177546607 0)
(0.44422846721 0.00665814148718 0)
(0.435053301622 0.00441555730158 0)
(0.428873117036 0.00290686748401 0)
(0.424754196113 0.00189106055479 0)
(0.422046641305 0.00121004789661 0)
(0.420297799259 0.000757166324107 0)
(0.419193185147 0.000459259051009 0)
(0.418515574715 0.000265858112818 0)
(0.418116422135 0.000142402949014 0)
(0.417895812851 6.61126285145e-05 0)
(0.41778675598 2.30952274661e-05 0)
(0.417745335103 1.41030053321e-06 0)
(0.417742052235 -1.01601453362e-05 0)
(0.417756645626 -1.37116634131e-05 0)
(0.417778600472 -1.32652934292e-05 0)
(0.417802891662 -1.08333738068e-05 0)
(0.4178262601 -7.49076777672e-06 0)
(0.417847012556 -3.87501568718e-06 0)
(0.417864550398 -3.56152859501e-07 0)
(0.417878877543 2.86446178382e-06 0)
(0.417890309273 5.68310080445e-06 0)
(0.417899317198 8.03564726522e-06 0)
(0.417906395377 9.83802147424e-06 0)
(0.417911745668 1.10070676255e-05 0)
(0.417915601061 1.18590736754e-05 0)
(0.417918339789 1.26790217698e-05 0)
(0.417920236944 1.34344773095e-05 0)
(0.417921533603 1.41076316882e-05 0)
(0.417922420897 1.47219621996e-05 0)
(0.417923025731 1.53067221443e-05 0)
(0.417923419477 1.58760182291e-05 0)
(0.417923654365 1.64300923923e-05 0)
(0.417923773581 1.69739694643e-05 0)
(0.417923807534 1.75111791507e-05 0)
(0.417923778448 1.80447988326e-05 0)
(0.417923702285 1.85778349878e-05 0)
(0.417923590895 1.91125639095e-05 0)
(0.417923454561 1.96508907139e-05 0)
(0.417923303668 2.01948740034e-05 0)
(0.417923149371 2.07470247648e-05 0)
(0.417923004941 2.13089297354e-05 0)
(0.417922888333 2.18811164059e-05 0)
(0.417922823951 2.24640465356e-05 0)
(0.41792284469 2.30579265603e-05 0)
(0.417922995662 2.36623321487e-05 0)
(0.417923340009 2.42760393139e-05 0)
(0.417923968357 2.48973363187e-05 0)
(0.417925009628 2.55244696507e-05 0)
(0.417926651299 2.61472139698e-05 0)
(0.417929166975 2.67459504949e-05 0)
(0.417932944639 2.72904448455e-05 0)
(0.417938569757 2.77376571112e-05 0)
(0.417947131802 2.80221902966e-05 0)
(0.417960136104 2.82985739983e-05 0)
(0.417979711467 2.78865049024e-05 0)
(0.4180086506 2.5362734056e-05 0)
(0.418050562904 1.95845389585e-05 0)
(0.418111605683 9.74752480058e-06 0)
(0.418201921043 -5.67769596504e-06 0)
(0.418337161901 -2.92233101837e-05 0)
(0.418542312257 -6.45875052506e-05 0)
(0.418859427105 -0.000115986550986 0)
(0.419358362274 -0.000188426698641 0)
(0.42015303305 -0.000308740202723 0)
(0.421447925637 -0.000534701650872 0)
(0.423636255134 -0.00100361697065 0)
(0.427439931296 -0.00209859999087 0)
(0.434287935692 -0.00487563376674 0)
(0.448370582361 -0.012304516111 0)
(0.474876343446 -0.0343864782238 0)
(0.478659645687 -0.0992397121464 0)
(1.02222096626 0.238416185583 0)
(1.08213753201 0.295926649348 0)
(1.03447722928 0.23950306216 0)
(0.954615413137 0.174290159837 0)
(0.879992060897 0.121345463869 0)
(0.818614442091 0.0830993799754 0)
(0.7714108581 0.0567316636311 0)
(0.736634398997 0.0387409659049 0)
(0.711624441406 0.0264327853129 0)
(0.693916629716 0.0179731039045 0)
(0.681541419672 0.012142447975 0)
(0.673000126493 0.00812490901109 0)
(0.667180660377 0.00536632260813 0)
(0.663271689138 0.00348444702783 0)
(0.660688516389 0.00221256441641 0)
(0.659014190095 0.00136338518339 0)
(0.657954506582 0.000805247416127 0)
(0.657304210336 0.000445920280364 0)
(0.656921787904 0.000221072055039 0)
(0.656710218203 8.55842306765e-05 0)
(0.656603349866 8.36039950288e-06 0)
(0.656561796884 -3.37172554697e-05 0)
(0.656557892396 -5.68522008469e-05 0)
(0.656571364568 -6.68723072515e-05 0)
(0.656592891238 -6.84810486013e-05 0)
(0.656616708989 -6.55612396993e-05 0)
(0.656639510719 -6.05521929827e-05 0)
(0.656659689762 -5.48645051939e-05 0)
(0.656676661032 -4.92826142217e-05 0)
(0.656690402452 -4.42134507149e-05 0)
(0.656701160475 -3.98517198317e-05 0)
(0.656709318438 -3.63155654833e-05 0)
(0.656715571315 -3.37116814664e-05 0)
(0.656720609073 -3.18749509895e-05 0)
(0.656724477629 -3.0828741809e-05 0)
(0.656727192589 -3.0322559382e-05 0)
(0.656729062356 -3.02651245201e-05 0)
(0.656730366242 -3.05751878388e-05 0)
(0.656731273037 -3.11022351699e-05 0)
(0.656731872164 -3.17624105535e-05 0)
(0.656732237185 -3.25267296541e-05 0)
(0.656732433315 -3.33601327489e-05 0)
(0.656732505354 -3.42381530661e-05 0)
(0.656732486961 -3.5141961429e-05 0)
(0.656732402502 -3.60563892287e-05 0)
(0.656732270093 -3.69708393265e-05 0)
(0.656732105503 -3.78779430643e-05 0)
(0.656731924453 -3.87722305324e-05 0)
(0.656731742716 -3.96481965176e-05 0)
(0.656731577987 -4.05007414342e-05 0)
(0.656731455077 -4.1325020042e-05 0)
(0.656731408856 -4.21165241204e-05 0)
(0.656731486819 -4.2873186443e-05 0)
(0.656731754879 -4.35972175197e-05 0)
(0.656732306655 -4.429965191e-05 0)
(0.65673327704 -4.50089955772e-05 0)
(0.65673485232 -4.57774801669e-05 0)
(0.656737299912 -4.66981019912e-05 0)
(0.656741020856 -4.79030304782e-05 0)
(0.656746612982 -4.96026474894e-05 0)
(0.656754978719 -5.22780238889e-05 0)
(0.656767754159 -5.70054237542e-05 0)
(0.656786344265 -6.45408391447e-05 0)
(0.656812176846 -7.58019285632e-05 0)
(0.656848981015 -9.24442608813e-05 0)
(0.65690347452 -0.000116905737176 0)
(0.656985107141 -0.000152394099088 0)
(0.657107705074 -0.000204213735635 0)
(0.657293147451 -0.000280928206534 0)
(0.657576957008 -0.000396491352989 0)
(0.658017501787 -0.000575389388249 0)
(0.6587043897 -0.000865123163707 0)
(0.659785415926 -0.0013561903601 0)
(0.661519469713 -0.00222252287612 0)
(0.664351177864 -0.00382835001053 0)
(0.668980868639 -0.00697627153152 0)
(0.676442733689 -0.0134140714171 0)
(0.688759042537 -0.0269751734858 0)
(0.705512613779 -0.0566150812768 0)
(0.700961673999 -0.113769987031 0)
(1.02251475524 0.170807151339 0)
(1.1013897589 0.276496475515 0)
(1.11752426265 0.266664795151 0)
(1.09214660722 0.219901694423 0)
(1.05187815789 0.168168842995 0)
(1.01020822595 0.123567392271 0)
(0.97349469143 0.0888375176306 0)
(0.943864555208 0.0630063683444 0)
(0.921142796855 0.0442232017505 0)
(0.904284067661 0.0307423913114 0)
(0.892074861254 0.0211562935964 0)
(0.88340450068 0.0143954689157 0)
(0.877352658485 0.00966794950805 0)
(0.873197693695 0.00639383936288 0)
(0.870392915168 0.00415116768391 0)
(0.86853402444 0.00263449416294 0)
(0.867327625147 0.00162402066924 0)
(0.866564219039 0.000962678992823 0)
(0.866096458246 0.000539124912 0)
(0.865822212475 0.000275155453888 0)
(0.86567136548 0.000117069559052 0)
(0.865595112149 2.87926181165e-05 0)
(0.865564051704 -1.93255929908e-05 0)
(0.865561241785 -4.12634095404e-05 0)
(0.86557258471 -4.76693680785e-05 0)
(0.865589591012 -4.55309308815e-05 0)
(0.865607901873 -3.91638398501e-05 0)
(0.865625243458 -3.11554915762e-05 0)
(0.865640531965 -2.29769183904e-05 0)
(0.865653400334 -1.5395703844e-05 0)
(0.865663880132 -8.74043801446e-06 0)
(0.865672174696 -3.06377047203e-06 0)
(0.865678536539 1.71360293975e-06 0)
(0.865683174 5.44526734176e-06 0)
(0.865686503136 8.01553094333e-06 0)
(0.865688912472 9.77436866532e-06 0)
(0.865690553639 1.11253306927e-05 0)
(0.865691720778 1.22692028712e-05 0)
(0.86569259452 1.32366407693e-05 0)
(0.865693192266 1.41244214471e-05 0)
(0.865693560725 1.49222235065e-05 0)
(0.865693764672 1.56525562975e-05 0)
(0.865693842469 1.63309512633e-05 0)
(0.865693825162 1.69733398505e-05 0)
(0.865693734721 1.75942294013e-05 0)
(0.865693586713 1.82036576514e-05 0)
(0.865693395627 1.88095421261e-05 0)
(0.865693178161 1.94200464032e-05 0)
(0.8656929534 2.00465532171e-05 0)
(0.865692743984 2.06897414874e-05 0)
(0.865692580514 2.1338613869e-05 0)
(0.865692503178 2.19826888547e-05 0)
(0.865692564612 2.26065238327e-05 0)
(0.86569283464 2.3184976309e-05 0)
(0.865693405122 2.3679434772e-05 0)
(0.865694404979 2.40422211736e-05 0)
(0.865696013434 2.42383294884e-05 0)
(0.865698503679 2.41718185076e-05 0)
(0.865702278151 2.36756074621e-05 0)
(0.865707777541 2.23670279904e-05 0)
(0.865715376564 1.96383797632e-05 0)
(0.865726703578 1.48782714267e-05 0)
(0.865744384547 6.24802741181e-06 0)
(0.865771367168 -7.95909244125e-06 0)
(0.865811561257 -2.9740594404e-05 0)
(0.865870862546 -6.30133736995e-05 0)
(0.865958606912 -0.000114683605545 0)
(0.866089329066 -0.000195568314126 0)
(0.866285639138 -0.000323018214798 0)
(0.866582482316 -0.000525663734149 0)
(0.867033707339 -0.000852717913544 0)
(0.867724809983 -0.00139156567014 0)
(0.868792898302 -0.00229179436426 0)
(0.87045257839 -0.00382952500976 0)
(0.873025092435 -0.00653196103267 0)
(0.876913317035 -0.0114144616985 0)
(0.882446010159 -0.0203584165873 0)
(0.889814900635 -0.0366598580768 0)
(0.896582816007 -0.0659008659789 0)
(0.886865465146 -0.110845124239 0)
(1.01287875139 0.118961023141 0)
(1.08820670839 0.23180693491 0)
(1.13741367059 0.253106761718 0)
(1.15409086585 0.22899275023 0)
(1.14994210647 0.188368355473 0)
(1.13538465109 0.146579840778 0)
(1.11758894304 0.110150962818 0)
(1.10059499551 0.0808162196832 0)
(1.08612456297 0.0582265745421 0)
(1.07459091435 0.041318983792 0)
(1.06579145454 0.0289160197658 0)
(1.05928797482 0.0199601003266 0)
(1.05459974785 0.013581561317 0)
(1.05129074805 0.00909744520715 0)
(1.04899982861 0.00598615667701 0)
(1.04744338364 0.00385696955602 0)
(1.04640650806 0.00242160117106 0)
(1.04573059018 0.00147015315962 0)
(1.0453010318 0.000851704491733 0)
(1.04503653146 0.00045901822528 0)
(1.04488016584 0.00021675788252 0)
(1.04479254679 7.30175582406e-05 0)
(1.04474867926 -5.50587679115e-06 0)
(1.04473177806 -4.40120438744e-05 0)
(1.04472952613 -5.93914999677e-05 0)
(1.04473500957 -6.17277715836e-05 0)
(1.04474395781 -5.72569824902e-05 0)
(1.04475384304 -4.98179191739e-05 0)
(1.04476328573 -4.16614261343e-05 0)
(1.04477161581 -3.40082996942e-05 0)
(1.04477858293 -2.74446877027e-05 0)
(1.04478417418 -2.21740350742e-05 0)
(1.04478853524 -1.81514096151e-05 0)
(1.04479187698 -1.51638173415e-05 0)
(1.04479445276 -1.28351362433e-05 0)
(1.04479655342 -1.10415193023e-05 0)
(1.04479829458 -9.55869725795e-06 0)
(1.04479962247 -8.27129627729e-06 0)
(1.04480060638 -7.24875590704e-06 0)
(1.04480129727 -6.57374447718e-06 0)
(1.04480171379 -6.18876515482e-06 0)
(1.04480194411 -5.97412737192e-06 0)
(1.0448020333 -5.87906258199e-06 0)
(1.04480201948 -5.85507728824e-06 0)
(1.04480192733 -5.86140592565e-06 0)
(1.04480177433 -5.87823256496e-06 0)
(1.04480157902 -5.89638614388e-06 0)
(1.04480136437 -5.91373315615e-06 0)
(1.04480114494 -5.93834863941e-06 0)
(1.04480092651 -5.96903305778e-06 0)
(1.04480073317 -5.99269451988e-06 0)
(1.04480060735 -6.0092145698e-06 0)
(1.0448006007 -6.02488093971e-06 0)
(1.044800783 -6.05310353809e-06 0)
(1.04480126152 -6.12459173958e-06 0)
(1.04480222033 -6.32337208535e-06 0)
(1.04480387183 -6.88360850777e-06 0)
(1.04480647371 -8.13025903998e-06 0)
(1.04481033541 -1.05244769042e-05 0)
(1.04481590623 -1.43036428254e-05 0)
(1.04482421323 -1.92736717364e-05 0)
(1.04483642148 -2.54247346284e-05 0)
(1.04485374029 -3.50814487098e-05 0)
(1.04487847428 -5.12201162481e-05 0)
(1.04491409766 -7.81038349364e-05 0)
(1.04496575056 -0.000122016070931 0)
(1.04504103818 -0.00019277566319 0)
(1.04515131758 -0.000306030140417 0)
(1.04531376221 -0.000487070263879 0)
(1.04555430955 -0.000777142400922 0)
(1.04591181137 -0.00124394997885 0)
(1.046444422 -0.00199976543626 0)
(1.0472367739 -0.00323629020589 0)
(1.04840273479 -0.00528639778858 0)
(1.05007113839 -0.00873073942791 0)
(1.05230093795 -0.01457011417 0)
(1.05485102855 -0.0244246996151 0)
(1.05693400567 -0.0406283476324 0)
(1.05584087158 -0.0660613223809 0)
(1.04225009286 -0.100288590244 0)
(1.00447483487 0.0814039979853 0)
(1.06917237326 0.181288537878 0)
(1.13080568552 0.216950416746 0)
(1.17375000171 0.210789152979 0)
(1.19865264925 0.18369007402 0)
(1.210199877 0.149751680391 0)
(1.21350255385 0.116779141255 0)
(1.21251723591 0.0882206752348 0)
(1.20973097713 0.0650481485837 0)
(1.20651118876 0.0470209069804 0)
(1.20351912394 0.0334068071958 0)
(1.20101144116 0.0233557319191 0)
(1.19903443906 0.0160720140297 0)
(1.19753876592 0.0108795146949 0)
(1.19644129955 0.00723418970997 0)
(1.19565556872 0.00471352057248 0)
(1.19510487049 0.00299763134635 0)
(1.19472645471 0.00184916300443 0)
(1.19447147065 0.00109496219912 0)
(1.19430315709 0.000610612504504 0)
(1.19419451447 0.000307986770412 0)
(1.19412622637 0.000125767385275 0)
(1.19408517299 2.22202847407e-05 0)
(1.19406191046 -3.24570707061e-05 0)
(1.19404960636 -5.7278410015e-05 0)
(1.19404410389 -6.46072071601e-05 0)
(1.19404260243 -6.23887025208e-05 0)
(1.19404328368 -5.55377063008e-05 0)
(1.19404503206 -4.69644360699e-05 0)
(1.19404718928 -3.82822318702e-05 0)
(1.19404938291 -3.02922017924e-05 0)
(1.19405142066 -2.32994787424e-05 0)
(1.19405323305 -1.73276133722e-05 0)
(1.19405481434 -1.23027700196e-05 0)
(1.19405618073 -8.11833191439e-06 0)
(1.19405735138 -4.71868832481e-06 0)
(1.19405830049 -2.10453013474e-06 0)
(1.19405897642 -2.10253373978e-07 0)
(1.19405933563 1.11547880934e-06 0)
(1.19405944854 1.97537454348e-06 0)
(1.19405949888 2.65756756794e-06 0)
(1.19405952634 3.26645956395e-06 0)
(1.19405950281 3.80225589917e-06 0)
(1.19405944498 4.27365784469e-06 0)
(1.19405934885 4.69083874608e-06 0)
(1.19405920379 5.07002353661e-06 0)
(1.19405901019 5.42265633302e-06 0)
(1.1940587718 5.74980908301e-06 0)
(1.19405850821 6.03880688553e-06 0)
(1.19405826165 6.29090825346e-06 0)
(1.19405806624 6.52651465138e-06 0)
(1.19405795264 6.73642014224e-06 0)
(1.19405797134 6.89478874382e-06 0)
(1.19405818543 6.96190033802e-06 0)
(1.19405864899 6.88046692383e-06 0)
(1.19405935467 6.56784445089e-06 0)
(1.19406032379 5.87383290103e-06 0)
(1.19406169598 4.47563392092e-06 0)
(1.1940640148 1.83641102219e-06 0)
(1.19406836412 -2.25888041675e-06 0)
(1.19407549191 -8.57202448083e-06 0)
(1.19408524791 -1.85309394465e-05 0)
(1.19409828858 -3.41312448441e-05 0)
(1.19411658741 -5.82778673476e-05 0)
(1.19414227518 -9.55636803162e-05 0)
(1.19417815136 -0.000153325600571 0)
(1.19422818775 -0.000243260432424 0)
(1.19429799593 -0.000383923797353 0)
(1.19439543261 -0.000604924367206 0)
(1.19453126035 -0.000953867373078 0)
(1.19471957243 -0.00150773598475 0)
(1.19497720494 -0.00239152541397 0)
(1.19531905808 -0.00380981750138 0)
(1.19574259533 -0.00609791693997 0)
(1.19618776436 -0.00979878331956 0)
(1.19643495058 -0.0157634049539 0)
(1.19589656335 -0.0252150449419 0)
(1.19341457437 -0.0396298682586 0)
(1.18664304773 -0.0602824025307 0)
(1.17003490983 -0.0859046341409 0)
(0.998962325822 0.0544316263908 0)
(1.05310956829 0.133401607393 0)
(1.11628268066 0.170777557031 0)
(1.17301271714 0.175143870208 0)
(1.21791245959 0.159583604167 0)
(1.25049857556 0.134951017778 0)
(1.27288490732 0.108411654518 0)
(1.28776721611 0.0838849696692 0)
(1.29745267341 0.0630565704768 0)
(1.30366074231 0.0462999199453 0)
(1.30759233387 0.0333205139583 0)
(1.31005369036 0.0235495238846 0)
(1.31157361323 0.0163599083774 0)
(1.31249491508 0.0111713164209 0)
(1.31303860728 0.00749150843982 0)
(1.31334669796 0.00492448782257 0)
(1.31351011069 0.0031629569768 0)
(1.31358673917 0.00197475312196 0)
(1.31361311384 0.0011881973904 0)
(1.31361196255 0.00067862878594 0)
(1.31359712307 0.000357006723094 0)
(1.31357679992 0.000160750895026 0)
(1.31355580326 4.64642672861e-05 0)
(1.31353650522 -1.58764720003e-05 0)
(1.31351984438 -4.60675193175e-05 0)
(1.31350615246 -5.70805088694e-05 0)
(1.31349524462 -5.73385200246e-05 0)
(1.31348678384 -5.21035423505e-05 0)
(1.31348038199 -4.45448427074e-05 0)
(1.31347565385 -3.64865981365e-05 0)
(1.31347224828 -2.89016803588e-05 0)
(1.31346986216 -2.22434512046e-05 0)
(1.31346823607 -1.66631438939e-05 0)
(1.31346714193 -1.21676870461e-05 0)
(1.31346641404 -8.69103124941e-06 0)
(1.3134659549 -6.13137425154e-06 0)
(1.31346566425 -4.35175792286e-06 0)
(1.31346545211 -3.14718762709e-06 0)
(1.31346531157 -2.28946667958e-06 0)
(1.3134653309 -1.57201589503e-06 0)
(1.31346547799 -9.89147636625e-07 0)
(1.31346557286 -5.67516553276e-07 0)
(1.31346556221 -1.99031869602e-07 0)
(1.31346547637 1.4829220707e-07 0)
(1.31346533639 4.71884026357e-07 0)
(1.31346515521 7.80122985966e-07 0)
(1.3134649358 1.08566199187e-06 0)
(1.31346467983 1.40174055987e-06 0)
(1.31346440163 1.74318489439e-06 0)
(1.31346413382 2.09978772949e-06 0)
(1.31346389251 2.42615059647e-06 0)
(1.31346368536 2.68886832859e-06 0)
(1.3134635429 2.84563617085e-06 0)
(1.31346351452 2.83317620491e-06 0)
(1.31346367973 2.56258717848e-06 0)
(1.31346415787 1.92883006445e-06 0)
(1.31346498488 8.59733479923e-07 0)
(1.31346612464 -8.12323074227e-07 0)
(1.31346800705 -3.21998801352e-06 0)
(1.31347094164 -7.05372574953e-06 0)
(1.31347504438 -1.36536086824e-05 0)
(1.31348055735 -2.46422950319e-05 0)
(1.31348773168 -4.16005967082e-05 0)
(1.31349703391 -6.76789741892e-05 0)
(1.31350876259 -0.000107911747552 0)
(1.31352296244 -0.000170065667284 0)
(1.31353921852 -0.000266275418767 0)
(1.31355616553 -0.000415551250288 0)
(1.31357051404 -0.000647849872594 0)
(1.31357522831 -0.00101066304246 0)
(1.31355616994 -0.00157947824722 0)
(1.31348568552 -0.00247394607842 0)
(1.31330910728 -0.00388262302028 0)
(1.31291827361 -0.00610011259082 0)
(1.31210217735 -0.00957463629388 0)
(1.3104535237 -0.0149539699755 0)
(1.30721511695 -0.0230765601122 0)
(1.30116976116 -0.0347986231752 0)
(1.29043464406 -0.0505801840676 0)
(1.27150856418 -0.0692224289605 0)
(0.995736074383 0.0346338613845 0)
(1.04179514451 0.0905689214632 0)
(1.10222838793 0.121549564365 0)
(1.16491411787 0.12960583285 0)
(1.22202566551 0.122009266858 0)
(1.26951892308 0.106019936691 0)
(1.30680224094 0.0870975543165 0)
(1.33499535684 0.0686366795406 0)
(1.35574477795 0.0523698377249 0)
(1.37069617093 0.0389256169736 0)
(1.38128275842 0.0282980728127 0)
(1.38866267984 0.0201712770788 0)
(1.39373033562 0.0141175108458 0)
(1.39715660907 0.00970533693401 0)
(1.39943434987 0.00655059651843 0)
(1.40091967072 0.00433445604797 0)
(1.4018662157 0.00280414622991 0)
(1.40245223462 0.00176574413307 0)
(1.40280133036 0.00107419566745 0)
(1.4029980251 0.000623234883474 0)
(1.40309924397 0.000336408155994 0)
(1.40314269452 0.000159620877986 0)
(1.40315295167 5.51604765469e-05 0)
(1.40314545878 -3.00351550836e-06 0)
(1.40312969466 -3.21300970704e-05 0)
(1.40311128709 -4.39001148929e-05 0)
(1.40309324326 -4.57731203094e-05 0)
(1.40307708774 -4.24341019567e-05 0)
(1.40306342215 -3.6746424948e-05 0)
(1.40305232024 -3.03867017707e-05 0)
(1.40304358017 -2.42693669708e-05 0)
(1.40303687651 -1.88414372185e-05 0)
(1.40303184811 -1.42712243841e-05 0)
(1.40302814516 -1.05609729961e-05 0)
(1.40302546967 -7.61010509258e-06 0)
(1.40302358917 -5.29361507753e-06 0)
(1.40302232708 -3.48858146013e-06 0)
(1.40302153363 -2.05194971776e-06 0)
(1.4030210443 -8.77311054744e-07 0)
(1.40302066578 6.04085178977e-08 0)
(1.40302032718 7.78671591801e-07 0)
(1.40302010812 1.27839750113e-06 0)
(1.40301999984 1.65999058407e-06 0)
(1.40301991061 1.98945722431e-06 0)
(1.40301980437 2.30559705217e-06 0)
(1.40301967375 2.62705385578e-06 0)
(1.40301951701 2.96366783087e-06 0)
(1.40301933559 3.32108129624e-06 0)
(1.40301912819 3.70157126064e-06 0)
(1.40301888727 4.09077683554e-06 0)
(1.40301862673 4.44994818773e-06 0)
(1.40301837931 4.75062914846e-06 0)
(1.4030181714 4.95581755244e-06 0)
(1.40301802916 5.00929641688e-06 0)
(1.40301797435 4.82546101088e-06 0)
(1.40301801358 4.26677222123e-06 0)
(1.40301811577 3.12519488793e-06 0)
(1.40301836217 1.25979400206e-06 0)
(1.40301887208 -1.5987528879e-06 0)
(1.4030197461 -6.35608828869e-06 0)
(1.40302099186 -1.37766406387e-05 0)
(1.4030222485 -2.51722852804e-05 0)
(1.40302299154 -4.23803898054e-05 0)
(1.40302244901 -6.83707025932e-05 0)
(1.40301910102 -0.000107728151082 0)
(1.40301015145 -0.000167492764536 0)
(1.4029907523 -0.000258593083932 0)
(1.40295263468 -0.000397900823125 0)
(1.40288167412 -0.000611578051571 0)
(1.40275388848 -0.000940464424179 0)
(1.40252907432 -0.00144836133354 0)
(1.40214038556 -0.00223401089741 0)
(1.40147524676 -0.00344760265168 0)
(1.40034395129 -0.00531471957288 0)
(1.39843099596 -0.00816115202067 0)
(1.3952194344 -0.0124265527109 0)
(1.38988972576 -0.0186295181862 0)
(1.38128289595 -0.027219141512 0)
(1.36788471382 -0.0382926151763 0)
(1.34727308356 -0.0509756401394 0)
(0.994011531614 0.0192358079488 0)
(1.03484763661 0.0523338407963 0)
(1.09199262741 0.0723631269713 0)
(1.15662420054 0.0791292309006 0)
(1.22032116475 0.0761045448424 0)
(1.2770194548 0.0673339698765 0)
(1.32424419176 0.0561509019724 0)
(1.36181573919 0.0447990096373 0)
(1.39068531129 0.0345303765102 0)
(1.41226075315 0.02588143174 0)
(1.42801822403 0.0189465237074 0)
(1.43929884217 0.0135849822423 0)
(1.44722807438 0.00955653485027 0)
(1.45270412914 0.00660011632895 0)
(1.45641895335 0.00447419140852 0)
(1.45889143836 0.0029735147764 0)
(1.46050230243 0.00193277005766 0)
(1.46152569844 0.00122369512722 0)
(1.46215571309 0.000749551732842 0)
(1.46252753634 0.000439018646794 0)
(1.46273381135 0.000240521583472 0)
(1.46283695124 0.000117411712417 0)
(1.46287824994 4.40483197203e-05 0)
(1.46288448385 2.68870360184e-06 0)
(1.4628723529 -1.84479632218e-05 0)
(1.46285199375 -2.74435328399e-05 0)
(1.46282943339 -2.94453495323e-05 0)
(1.4628078847 -2.76974363149e-05 0)
(1.46278887555 -2.41975310964e-05 0)
(1.46277295033 -2.01267449675e-05 0)
(1.46276010023 -1.61336081276e-05 0)
(1.46275003091 -1.25409132436e-05 0)
(1.46274233184 -9.47520100846e-06 0)
(1.46273657092 -6.94737669232e-06 0)
(1.46273234963 -4.90359494559e-06 0)
(1.46272932586 -3.27421055494e-06 0)
(1.46272721185 -1.99557965409e-06 0)
(1.46272575165 -1.02608179802e-06 0)
(1.46272473144 -3.21203464221e-07 0)
(1.46272408786 2.07436596485e-07 0)
(1.46272371019 6.94500477636e-07 0)
(1.46272344686 1.17871947829e-06 0)
(1.46272326532 1.61435112638e-06 0)
(1.4627231267 2.00689999465e-06 0)
(1.46272300119 2.37755711538e-06 0)
(1.46272286951 2.74000390233e-06 0)
(1.46272271796 3.10014851339e-06 0)
(1.46272253772 3.45652013307e-06 0)
(1.46272232379 3.80065587959e-06 0)
(1.46272207342 4.12348733818e-06 0)
(1.46272178973 4.41831206616e-06 0)
(1.46272147955 4.65394493309e-06 0)
(1.4627211486 4.78129000559e-06 0)
(1.46272080415 4.73225195852e-06 0)
(1.46272045672 4.41626226412e-06 0)
(1.46272012266 3.72073367812e-06 0)
(1.46271982545 2.51921900662e-06 0)
(1.4627194577 7.42807055669e-07 0)
(1.46271879908 -1.94246448984e-06 0)
(1.4627177233 -6.26569048859e-06 0)
(1.4627159826 -1.30317168832e-05 0)
(1.4627128949 -2.33525491631e-05 0)
(1.46270732022 -3.87577631144e-05 0)
(1.46269742408 -6.16123109636e-05 0)
(1.46268010594 -9.54984090296e-05 0)
(1.46265014138 -0.000145800321556 0)
(1.4625989965 -0.000220766906855 0)
(1.46251282284 -0.000332761656053 0)
(1.46236887804 -0.000500431021984 0)
(1.46212989651 -0.000752375000301 0)
(1.46173577408 -0.0011329307805 0)
(1.46109120845 -0.0017092404679 0)
(1.46004350313 -0.00257800914653 0)
(1.45834978096 -0.0038800439389 0)
(1.45563303044 -0.00580955791715 0)
(1.45132274806 -0.00861262967484 0)
(1.44459034022 -0.0125540036122 0)
(1.43435386088 -0.0178207897208 0)
(1.41933383403 -0.0243700387994 0)
(1.39765384009 -0.0316657497 0)
(0.993269667619 0.00617015211771 0)
(1.03158100072 0.0171020466053 0)
(1.08672181867 0.0239906483977 0)
(1.15174554531 0.0265606650975 0)
(1.21823536419 0.0258180578765 0)
(1.27925774327 0.0230488851024 0)
(1.33140136183 0.0193656305147 0)
(1.37377598967 0.0155468571863 0)
(1.40691053632 0.0120449296664 0)
(1.43203313636 0.00906639946441 0)
(1.45060215036 0.00666059480453 0)
(1.46402985819 0.00479009190044 0)
(1.47355015974 0.00337842915963 0)
(1.48017563221 0.00233873943007 0)
(1.48470228574 0.00158891569828 0)
(1.48773620237 0.00105829105688 0)
(1.48972734029 0.000689465201119 0)
(1.49100277043 0.000437641051792 0)
(1.49179585035 0.000268888534255 0)
(1.49227022045 0.000158113977984 0)
(1.49253871133 8.71275530546e-05 0)
(1.49267778591 4.29777388837e-05 0)
(1.49273831637 1.65875834479e-05 0)
(1.49275348583 1.66656137358e-06 0)
(1.49274424279 -6.06648689333e-06 0)
(1.49272344677 -9.41218201833e-06 0)
(1.49269879297 -1.02189437329e-05 0)
(1.49267450942 -9.65630186371e-06 0)
(1.49265269361 -8.44291943234e-06 0)
(1.49263418703 -6.99675461868e-06 0)
(1.4926191123 -5.55810180762e-06 0)
(1.4926072072 -4.24692938433e-06 0)
(1.49259804234 -3.11068937129e-06 0)
(1.49259114239 -2.15551780555e-06 0)
(1.49258605366 -1.3650701013e-06 0)
(1.49258237625 -7.1730578207e-07 0)
(1.49257977471 -1.90474194182e-07 0)
(1.49257797936 2.37305441599e-07 0)
(1.49257678558 6.11651126397e-07 0)
(1.49257601573 9.87070590635e-07 0)
(1.49257551557 1.29957517666e-06 0)
(1.4925751936 1.59227289244e-06 0)
(1.49257499247 1.88323208467e-06 0)
(1.49257485982 2.18278250646e-06 0)
(1.49257475623 2.49843782361e-06 0)
(1.49257465512 2.83345707556e-06 0)
(1.49257453782 3.18780230148e-06 0)
(1.49257439073 3.55808662447e-06 0)
(1.49257420354 3.93675962736e-06 0)
(1.49257396764 4.31121968521e-06 0)
(1.49257367708 4.66258705101e-06 0)
(1.49257332767 4.95982612053e-06 0)
(1.49257291264 5.15988556331e-06 0)
(1.49257242024 5.20355816128e-06 0)
(1.49257183041 5.00961544361e-06 0)
(1.49257111279 4.46688372857e-06 0)
(1.49257025726 3.42279964608e-06 0)
(1.49256914947 1.70262289219e-06 0)
(1.49256732715 -8.43946844213e-07 0)
(1.49256446501 -4.61477438555e-06 0)
(1.49256020328 -1.03732687807e-05 0)
(1.4925535162 -1.88687183897e-05 0)
(1.49254276879 -3.1137413374e-05 0)
(1.49252539363 -4.87092742592e-05 0)
(1.49249724246 -7.37321510426e-05 0)
(1.49245149161 -0.000109173795924 0)
(1.49237730269 -0.000159535038075 0)
(1.49225755477 -0.000230997327125 0)
(1.49206447121 -0.000332076095466 0)
(1.49175272941 -0.000475666953328 0)
(1.49125042324 -0.000683179684197 0)
(1.49044806199 -0.000985501694481 0)
(1.48917382789 -0.00141608688913 0)
(1.48715986508 -0.00202319887121 0)
(1.48400428715 -0.00286868349566 0)
(1.47912148272 -0.0040207971575 0)
(1.47169548021 -0.005535101088 0)
(1.46069881422 -0.0074150447442 0)
(1.44496323835 -0.0095692099547 0)
(1.42284801025 -0.011751897496 0)
(0.993270465457 -0.0061684001528 0)
(1.03158098337 -0.0171003754252 0)
(1.08672175249 -0.0239897619874 0)
(1.15174558316 -0.026560247765 0)
(1.21823544219 -0.0258179942023 0)
(1.27925784535 -0.0230491112658 0)