/*--------------------------------*- C++ -*----------------------------------*\
| =========                 |                                                 |
| \\      /  F ield         | OpenFOAM: The Open Source CFD Toolbox           |
|  \\    /   O peration     | Version:  2106                                  |
|   \\  /    A nd           | Website:  www.openfoam.com                      |
|    \\/     M anipulation  |                                                 |
\*---------------------------------------------------------------------------*/
FoamFile
{
    version     2.0;
    format      ascii;
    arch        "LSB;label=32;scalar=64";
    class       surfaceScalarField;
    location    "0.13";
    object      phi;
}
// * * * * * * * * * * * * * * * * * * * * * * * * * * * * * * * * * * * * * //

dimensions      [0 3 -1 0 0 0 0];

oriented        oriented;

internalField   nonuniform List<scalar> 
22100
(
3.38461198577e-05
1.61538801227e-05
2.24572086552e-05
1.13889109082e-05
1.62585511041e-05
6.19865730611e-06
1.27977735347e-05
3.46077735206e-06
1.08046391867e-05
1.99313418458e-06
9.60458575828e-06
1.20005328532e-06
8.85131767953e-06
7.53267997667e-07
8.36434859489e-06
4.86969043925e-07
8.04433045492e-06
3.20018110777e-07
7.83283542899e-06
2.11495013613e-07
7.69339207841e-06
1.39443321797e-07
7.60223511026e-06
9.11569023946e-08
7.54347247652e-06
5.87625386966e-08
7.50633610149e-06
3.71362574593e-08
7.48349772042e-06
2.28382504142e-08
7.46997883921e-06
1.35187632352e-08
7.46241719268e-06
7.56157736265e-09
7.45855327058e-06
3.86393261165e-09
7.45683912533e-06
1.71424906495e-09
7.45643966438e-06
3.99648784854e-10
7.45679776129e-06
-3.57857378382e-10
7.4574930433e-06
-6.95040953625e-10
7.45826127967e-06
-7.68050950531e-10
7.45899728021e-06
-7.35919687054e-10
7.45965286593e-06
-6.55634601381e-10
7.46020836699e-06
-5.55670023448e-10
7.46066209322e-06
-4.5396994913e-10
7.46102229158e-06
-3.60446984746e-10
7.4613016747e-06
-2.79561290283e-10
7.46151414259e-06
-2.12516466824e-10
7.4616729114e-06
-1.58662950194e-10
7.46178953221e-06
-1.16377669268e-10
7.46187353466e-06
-8.36746851664e-11
7.46193304875e-06
-5.91711279691e-11
7.46197291756e-06
-3.95741787467e-11
7.46199724702e-06
-2.41234353742e-11
7.4620103992e-06
-1.30453014521e-11
7.46201633279e-06
-5.91099653486e-12
7.46201720635e-06
-9.06046713885e-13
7.46201424289e-06
2.90592724768e-12
7.46200835652e-06
5.8243464397e-12
7.46200020109e-06
8.09639350488e-12
7.46199022572e-06
9.91563240918e-12
7.46197872405e-06
1.14355696145e-11
7.46196584372e-06
1.28078125846e-11
7.46195161034e-06
1.41629792706e-11
7.46193592298e-06
1.56293706186e-11
7.46191852579e-06
1.73548507147e-11
7.46189898057e-06
1.95098361841e-11
7.46187673449e-06
2.22008240129e-11
7.4618510985e-06
2.55657703368e-11
7.46182126143e-06
2.97380401812e-11
7.46178631746e-06
3.48249588106e-11
7.46174530071e-06
4.08957522321e-11
7.46169724125e-06
4.79603342691e-11
7.4616412563e-06
5.59318068443e-11
7.46157666426e-06
6.45992319392e-11
7.4615031611e-06
7.35702225307e-11
7.46142140505e-06
8.18724181552e-11
7.46133378286e-06
8.77696997761e-11
7.46124619839e-06
8.77324210728e-11
7.46117093519e-06
7.53698300128e-11
7.46111699917e-06
5.39557309245e-11
7.46110247355e-06
1.44181447445e-11
7.46116335884e-06
-6.11317109195e-11
7.46135838484e-06
-1.95380208629e-10
7.46178308977e-06
-4.25098195824e-10
7.46258936509e-06
-8.06604282906e-10
7.46401549706e-06
-1.42629447108e-09
7.46642130838e-06
-2.40575683896e-09
7.47026023804e-06
-3.83867766476e-09
7.47676930158e-06
-6.50870527842e-09
7.48764460471e-06
-1.0874965736e-08
7.50599916101e-06
-1.83543351339e-08
7.53949490178e-06
-3.34956871466e-08
7.60930515769e-06
-6.98103527905e-08
7.77735279261e-06
-1.68047817177e-07
8.23616942418e-06
-4.58816846267e-07
9.71779830456e-06
-1.48162909482e-06
-5.51718662728e-06
1.52349848011e-05
5.02175945655e-05
1.59362852642e-05
4.42441108768e-05
1.73623941127e-05
3.77795003712e-05
1.26632674219e-05
3.2646142509e-05
8.59413489159e-06
2.89380900265e-05
5.70118645215e-06
2.63596192335e-05
3.77852391843e-06
2.4587514426e-05
2.52537270623e-06
2.33734719972e-05
1.7010114292e-06
2.2543522633e-05
1.14996742555e-06
2.19782137917e-05
7.76803779197e-07
2.15955114071e-05
5.22145591885e-07
2.13387354815e-05
3.47932666468e-07
2.11684953592e-05
2.29002461782e-07
2.10573402314e-05
1.48291175646e-07
2.0986156243e-05
9.40220625666e-08
2.09416896109e-05
5.7985304488e-08
2.0914815711e-05
3.4435515355e-08
2.08993270405e-05
1.93527871914e-08
2.089111693e-05
9.9246703335e-09
2.08873322148e-05
4.18474631212e-09
2.08862878864e-05
6.86844547285e-10
2.08865518594e-05
-9.58737095139e-10
2.08874470991e-05
-1.66318259568e-09
2.0888612722e-05
-1.90163640076e-09
2.08898136788e-05
-1.85686563297e-09
2.0890925262e-05
-1.66763234347e-09
2.08918917949e-05
-1.42087551725e-09
2.08926979517e-05
-1.16685370299e-09
2.08933508054e-05
-9.32454202352e-10
2.08938687789e-05
-7.30285121523e-10
2.08942755991e-05
-5.65066041986e-10
2.0894598514e-05
-4.38747861448e-10
2.08948327333e-05
-3.17331011247e-10
2.0894998857e-05
-2.24812238583e-10
2.08951149691e-05
-1.55346493456e-10
2.08951933855e-05
-1.02358637515e-10
2.08952433777e-05
-6.29913417769e-11
2.08952742723e-05
-3.68485755154e-11
2.08952915234e-05
-1.82421758967e-11
2.0895298381e-05
-4.04562337595e-12
2.08952973715e-05
6.74325190922e-12
2.08952904053e-05
1.49707857345e-11
2.0895278861e-05
2.13578012143e-11
2.08952636867e-05
2.64958589334e-11
2.08952454518e-05
3.09273114383e-11
2.08952244484e-05
3.5062643042e-11
2.08952007591e-05
3.92300278411e-11
2.08951742886e-05
4.37402771383e-11
2.08951447712e-05
4.89245020464e-11
2.08951119309e-05
5.4902657993e-11
2.08950754728e-05
6.18467892981e-11
2.0895035159e-05
6.98531280499e-11
2.0894990906e-05
7.88895715742e-11
2.08949429143e-05
8.87487635229e-11
2.08948918787e-05
9.89414265096e-11
2.08948393621e-05
1.08491553645e-10
2.0894788401e-05
1.15689452294e-10
2.08947443549e-05
1.17807815713e-10
2.08947164481e-05
1.10003411877e-10
2.08947196999e-05
8.47282397838e-11
2.08947799534e-05
2.76096145606e-11
2.0894945924e-05
-9.06202926815e-11
2.08952863091e-05
-2.86651565378e-10
2.08959188336e-05
-6.18540315119e-10
2.08969613231e-05
-1.10421232394e-09
2.08985822789e-05
-1.81696735397e-09
2.09011440845e-05
-2.98741056118e-09
2.0905201235e-05
-4.86398163192e-09
2.09116338087e-05
-7.85875373026e-09
2.09218843048e-05
-1.26558442148e-08
2.09384773232e-05
-2.04311369773e-08
2.09655996986e-05
-3.3630560576e-08
2.10102906709e-05
-5.55656022458e-08
2.1085892407e-05
-9.3956000808e-08
2.12186669792e-05
-1.66270423469e-07
2.14622346272e-05
-3.1337829884e-07
2.19260858699e-05
-6.31899388842e-07
2.2826016945e-05
-1.3587481574e-06
2.44977556654e-05
-3.15336796555e-06
-7.1492714572e-06
2.61298398872e-05
5.35171050659e-05
1.24191799342e-05
5.29349676114e-05
1.79445311576e-05
4.96538390511e-05
1.59443956609e-05
4.58401800211e-05
1.24077936428e-05
4.24400906652e-05
9.10127560651e-06
3.97291703493e-05
6.48944410763e-06
3.76873035332e-05
4.56723944998e-06
3.61976604216e-05
3.19065449454e-06
3.51326096258e-05
2.21501817273e-06
3.43823646756e-05
1.52704866742e-06
3.38606242439e-05
1.04388592276e-06
3.35023452602e-05
7.06211500413e-07
3.32596026615e-05
4.71744876237e-07
3.30975961091e-05
3.10297537023e-07
3.29913456906e-05
2.00272321923e-07
3.29231118559e-05
1.2621905802e-07
3.28804348194e-05
7.71125863877e-08
3.28546639178e-05
4.51238526682e-08
3.28398547426e-05
2.47341203715e-08
3.28319501777e-05
1.20896481843e-08
3.28281020811e-05
4.53526914497e-09
3.28271364709e-05
7.11443305724e-12
3.28273467146e-05
-1.87333489707e-09
3.28282292142e-05
-2.78422195742e-09
3.28293812747e-05
-3.00916702864e-09
3.28305661647e-05
-2.85284920649e-09
3.28316604618e-05
-2.51548738459e-09
3.28326091736e-05
-2.11576863746e-09
3.28333968037e-05
-1.72010373063e-09
3.28340288974e-05
-1.36219199417e-09
3.28345201441e-05
-1.05595271388e-09
3.28348860399e-05
-8.04186757132e-10
3.28351741639e-05
-6.04993183241e-10
3.28354068914e-05
-4.5715196972e-10
3.28355788196e-05
-3.27006602361e-10
3.28356952973e-05
-2.18694409997e-10
3.28357744213e-05
-1.42074508487e-10
3.2835826111e-05
-8.85596055387e-11
3.28358579705e-05
-5.01498817447e-11
3.28358748492e-05
-2.09805496728e-11
3.28358803414e-05
1.18735428187e-12
3.28358772385e-05
1.79924905072e-11
3.2835867681e-05
3.0811540638e-11
3.28358532242e-05
4.08330788111e-11
3.28358348841e-05
4.91486328999e-11
3.28358133269e-05
5.65175414875e-11
3.28357889767e-05
6.34987716258e-11
3.28357620217e-05
7.06243030389e-11
3.28357323801e-05
7.84854655485e-11
3.28357002106e-05
8.69644545449e-11
3.28356657847e-05
9.61335605888e-11
3.28356295771e-05
1.05900149327e-10
3.28355924503e-05
1.15857421213e-10
3.2835555927e-05
1.25146136927e-10
3.28355226442e-05
1.32159960876e-10
3.28354970574e-05
1.34089280694e-10
3.28354861655e-05
1.26666542272e-10
3.28355002993e-05
1.03819827137e-10
3.28355562889e-05
5.41902990238e-11
3.2835682658e-05
-4.14794685494e-11
3.28359297845e-05
-2.19426613419e-10
3.28363844759e-05
-5.45355014034e-10
3.28370779133e-05
-9.80310551263e-10
3.28380885278e-05
-1.62955352034e-09
3.28396696868e-05
-2.68589220613e-09
3.28422103834e-05
-4.3581908023e-09
3.28462184539e-05
-6.99586375077e-09
3.28525168336e-05
-1.11624847685e-08
3.28624343283e-05
-1.77760749372e-08
3.28781632772e-05
-2.83843887153e-08
3.29034120788e-05
-4.56794552642e-08
3.29436128993e-05
-7.38309672383e-08
3.30087492101e-05
-1.20701681464e-07
3.31160733651e-05
-2.01280137247e-07
3.32951007064e-05
-3.45297900021e-07
3.35949673873e-05
-6.13245192968e-07
3.40884359403e-05
-1.12536815416e-06
3.48443821948e-05
-2.11469454955e-06
3.57294053661e-05
-4.03839080097e-06
-7.24552245389e-06
3.58256575432e-05
5.35105661967e-05
8.90861350993e-06
5.55742215375e-05
1.58808754045e-05
5.52424814885e-05
1.62761353954e-05
5.35977846468e-05
1.40524902272e-05
5.15418461403e-05
1.11572139273e-05
4.95802781539e-05
8.45101196651e-06
4.79243489672e-05
6.22316856705e-06
4.66181370171e-05
4.49686640296e-06
4.5630464298e-05
3.20269084572e-06
4.49051157288e-05
2.25239717685e-06
4.43840893906e-05
1.56491216336e-06
4.40166948066e-05
1.07360593881e-06
4.37619709151e-05
7.26468587391e-07
4.35882763314e-05
4.83991932957e-07
4.34718828511e-05
3.16665645586e-07
4.33953809781e-05
2.02720849297e-07
4.33462216686e-05
1.2627192398e-07
4.33154981806e-05
7.58474905295e-08
4.32969793363e-05
4.32532191804e-08
4.3286374163e-05
2.26951348429e-08
4.32807942267e-05
1.01155106192e-08
4.32780103483e-05
2.79121602947e-09
4.32772197378e-05
-1.0826413282e-09
4.32774705585e-05
-3.03512194598e-09
4.32781931261e-05
-3.73195137267e-09
4.32790926706e-05
-3.75268134776e-09
4.32800026756e-05
-3.42576037616e-09
4.3280837284e-05
-2.95053673331e-09
4.32815593741e-05
-2.44218479312e-09
4.32821599599e-05
-1.96258692328e-09
4.32826452525e-05
-1.54090978098e-09
4.32830279565e-05
-1.18648246592e-09
4.32833189479e-05
-8.95584105105e-10
4.32835243372e-05
-6.62212400354e-10
4.32836737771e-05
-4.76220060678e-10
4.32837821904e-05
-3.26980225605e-10
4.32838432115e-05
-2.03039558304e-10
4.32838915122e-05
-1.36842437643e-10
4.32839231283e-05
-8.17635436377e-11
4.32839401365e-05
-3.79976546112e-11
4.3283946293e-05
-5.00054720485e-12
4.32839440443e-05
2.01737450083e-11
4.32839353139e-05
3.94358060984e-11
4.3283921592e-05
5.44232170697e-11
4.32839037374e-05
6.68679064584e-11
4.32838823159e-05
7.78211204358e-11
4.32838577301e-05
8.79934796447e-11
4.32838303174e-05
9.79650704791e-11
4.32838005484e-05
1.08182701792e-10
4.32837688195e-05
1.18605068017e-10
4.32837356864e-05
1.29155701894e-10
4.32837020623e-05
1.39396423082e-10
4.32836693392e-05
1.48452170977e-10
4.32836395645e-05
1.54814255546e-10
4.32836156562e-05
1.56003208584e-10
4.32836016935e-05
1.48042338446e-10
4.32836039833e-05
1.24429480042e-10
4.32836338958e-05
7.40129610455e-11
4.32837087209e-05
-2.05057811999e-11
4.32838512158e-05
-1.83862783288e-10
4.32840631983e-05
-4.31367915456e-10
4.32844695916e-05
-9.51834356981e-10
4.32851919187e-05
-1.70288575706e-09
4.32863975153e-05
-2.8355530404e-09
4.32882904046e-05
-4.57927232136e-09
4.32912203114e-05
-7.28855298604e-09
4.32957509345e-05
-1.15267762115e-08
4.33027695869e-05
-1.8181170165e-08
4.33136745968e-05
-2.86808533893e-08
4.33306531725e-05
-4.53625654146e-08
4.33570672875e-05
-7.20931393076e-08
4.3398576446e-05
-1.15339794566e-07
4.3464189379e-05
-1.86314458724e-07
4.35679033926e-05
-3.04994162889e-07
4.37301385653e-05
-5.07533191134e-07
4.39762467612e-05
-8.59353497743e-07
4.43239859266e-05
-1.4731074401e-06
4.47358040628e-05
-2.52651294913e-06
4.49704905661e-05
-4.27307762724e-06
-6.72888627604e-06
4.44538549217e-05
5.27351377369e-05
6.17347554818e-06
5.57309337656e-05
1.28850789827e-05
5.73114732986e-05
1.4695595565e-05
5.76109905612e-05
1.37529727111e-05
5.7133521255e-05
1.16346830569e-05
5.63194666864e-05
9.26506641017e-06
5.54489865802e-05
7.09364860213e-06
5.46629762035e-05
5.28287673625e-06
5.40136809778e-05
3.85198602415e-06
5.3506150226e-05
2.75992786807e-06
5.3124255252e-05
1.94680704038e-06
5.28449871851e-05
1.35287386239e-06
5.26454431752e-05
9.26012420197e-07
5.25057221961e-05
6.23712728407e-07
5.24097320283e-05
4.12655660743e-07
5.23450322803e-05
2.67420517246e-07
5.23023026895e-05
1.69001538855e-07
5.22747259861e-05
1.03424332709e-07
5.22574142932e-05
6.05651494707e-08
5.22469207988e-05
3.31889214377e-08
5.2240838346e-05
1.61982458804e-08
5.22375520541e-05
6.07771158565e-09
5.22360728319e-05
3.96653904135e-10
5.2235590116e-05
-2.55247962937e-09
5.22356810004e-05
-3.82302882808e-09
5.22360532579e-05
-4.12518797642e-09
5.22365348831e-05
-3.90760830258e-09
5.2237028853e-05
-3.4446249685e-09
5.22374837096e-05
-2.897007546e-09
5.2237876182e-05
-2.35487020069e-09
5.22381991521e-05
-1.86357575158e-09
5.22384546228e-05
-1.44160057429e-09
5.22386516212e-05
-1.0922492442e-09
5.22388015083e-05
-8.11832780403e-10
5.22389148646e-05
-5.89392309288e-10
5.22390032381e-05
-4.15239324857e-10
5.22390833659e-05
-2.83095451711e-10
5.2239133104e-05
-1.86526583434e-10
5.22391695161e-05
-1.18132135456e-10
5.22391918487e-05
-6.03077042332e-11
5.2239200684e-05
-1.38526557686e-11
5.2239200212e-05
2.05767010997e-11
5.22391928245e-05
4.67051016089e-11
5.22391801989e-05
6.69005719248e-11
5.22391635128e-05
8.3403581508e-11
5.22391436043e-05
9.76028006347e-11
5.22391213264e-05
1.10178501961e-10
5.22390977e-05
1.21523069824e-10
5.22390701987e-05
1.35620132155e-10
5.22390407313e-05
1.47995224395e-10
5.2239009959e-05
1.59828553047e-10
5.22389787708e-05
1.70466449963e-10
5.22389485399e-05
1.78561732832e-10
5.22389213702e-05
1.81878795779e-10
5.22389007766e-05
1.76524959673e-10
5.22388942589e-05
1.54534606171e-10
5.22389160478e-05
1.02665322791e-10
5.22389716067e-05
1.85193287223e-11
5.22390796398e-05
-1.2845525521e-10
5.22392450394e-05
-3.49198968349e-10
5.22395495732e-05
-7.35911707486e-10
5.22400327918e-05
-1.43518305878e-09
5.22407604435e-05
-2.43081158749e-09
5.2241866756e-05
-3.94226401879e-09
5.22435552799e-05
-6.26823639537e-09
5.22461290297e-05
-9.86266706669e-09
5.2250042565e-05
-1.54404878632e-08
5.22559922363e-05
-2.41307699629e-08
5.22650478614e-05
-3.77361975263e-08
5.22788483366e-05
-5.91626520204e-08
5.22998914873e-05
-9.3135922695e-08
5.23319587947e-05
-1.47406862902e-07
5.23805080464e-05
-2.3486361915e-07
5.24526546393e-05
-3.77140770333e-07
5.25555542061e-05
-6.10432786061e-07
5.26901468704e-05
-9.93946162943e-07
5.28345819924e-05
-1.61754251685e-06
5.29072516496e-05
-2.59918256979e-06
5.26937727531e-05
-4.0595989506e-06
-5.91796381086e-06
5.18828505009e-05
5.19834862179e-05
4.18998910174e-06
5.50586633483e-05
9.80990146899e-06
5.76386123326e-05
1.21156462909e-05
5.93259020991e-05
1.20656826957e-05
6.02280140565e-05
1.07325709289e-05
6.05929252352e-05
8.90015510969e-06
6.06482822321e-05
7.03829153543e-06
6.05531879234e-05
5.37797100345e-06
6.04029535681e-05
4.00222033672e-06
6.02479133743e-05
2.9149680057e-06
6.01107882724e-05
2.08393204946e-06
5.99990293352e-05
1.46463266049e-06
5.99125149763e-05
1.01252660525e-06
5.98479242253e-05
6.88303297067e-07
5.98010222364e-05
4.59557495419e-07
5.97677397234e-05
3.00702943623e-07
5.97446011825e-05
1.92140091366e-07
5.97288262255e-05
1.19199411204e-07
5.97182825034e-05
7.11090881397e-08
5.97113815867e-05
4.00901080374e-08
5.97069684278e-05
2.06116669121e-08
5.97042420544e-05
8.80427616805e-09
5.97026401494e-05
1.99863396649e-09
5.97017442837e-05
-1.65666643162e-09
5.9701295145e-05
-3.37404378908e-09
5.97011151828e-05
-3.94542316711e-09
5.97010888421e-05
-3.88143575772e-09
5.97011432816e-05
-3.4991387565e-09
5.97012345067e-05
-2.98817808331e-09
5.97013366861e-05
-2.45687205488e-09
5.97014356335e-05
-1.96226293516e-09
5.97015244896e-05
-1.53017065774e-09
5.97016011643e-05
-1.16866258007e-09
5.97016666119e-05
-8.77071985487e-10
5.97017218046e-05
-6.44429510058e-10
5.97017669695e-05
-4.60282361737e-10
5.97018001939e-05
-3.16208392306e-10
5.97018212704e-05
-2.07492269786e-10
5.97018273453e-05
-1.24107490521e-10
5.97018189364e-05
-5.18358117366e-11
5.97018110135e-05
-5.92888478996e-12
5.97018012575e-05
3.02593432077e-11
5.9701789698e-05
5.81256927152e-11
5.9701777345e-05
7.90764791742e-11
5.97017625355e-05
9.80360728071e-11
5.97017448846e-05
1.15109758952e-10
5.97017241251e-05
1.30840218901e-10
5.97016999082e-05
1.456793133e-10
5.97016756131e-05
1.59871232328e-10
5.97016503579e-05
1.73200388788e-10
5.97016249501e-05
1.85164614043e-10
5.9701600694e-05
1.94626661464e-10
5.97015793843e-05
1.99761901889e-10
5.97015632147e-05
1.97941842699e-10
5.97015539207e-05
1.85733994389e-10
5.97015489286e-05
1.59476140164e-10
5.9701539223e-05
1.1235655118e-10
5.97015478796e-05
9.8790603263e-12
5.9701578927e-05
-1.59473164651e-10
5.97017373965e-05
-5.0766301409e-10
5.97020083397e-05
-1.0069194543e-09
5.97023598225e-05
-1.78683938999e-09
5.97028907789e-05
-2.96206222487e-09
5.9703685271e-05
-4.73713241567e-09
5.97048556562e-05
-7.43899253718e-09
5.97065656199e-05
-1.15728903091e-08
5.97090521479e-05
-1.79270737259e-08
5.97126579852e-05
-2.77364491158e-08
5.9717873584e-05
-4.29514829978e-08
5.97253849038e-05
-6.66736115492e-08
5.97361079889e-05
-1.03858723351e-07
5.97511221928e-05
-1.62420916724e-07
5.9771296973e-05
-2.55038378439e-07
5.97960876249e-05
-4.01931441421e-07
5.9820380207e-05
-6.34725318821e-07
5.98272675637e-05
-1.00083337175e-06
5.97743989229e-05
-1.56467370061e-06
5.95727825125e-05
-2.39756602089e-06
5.90618106889e-05
-3.5486272653e-06
-4.93138490154e-06
5.80752318215e-05
5.14373051455e-05
2.75268374267e-06
5.4265820014e-05
6.98138622285e-06
5.72496424758e-05
9.13182354479e-06
5.97900267077e-05
9.52529822281e-06
6.17201271882e-05
8.802470282e-06
6.30883022009e-05
7.53197997616e-06
6.40167159006e-05
6.10987776655e-06
6.46292358724e-05
4.76545099204e-06
6.502580298e-05
3.6056531913e-06
6.52790776172e-05
2.66169331713e-06
6.54389725489e-05
1.92403703037e-06
6.55386889839e-05
1.36491609365e-06
6.55999267446e-05
9.51288678408e-07
6.56367402914e-05
6.51489573633e-07
6.5658189517e-05
4.38108116743e-07
6.56700951463e-05
2.88797222095e-07
6.56761809594e-05
1.8605427661e-07
6.56788129021e-05
1.16567569159e-07
6.5679477941e-05
7.04442386439e-08
6.5679095213e-05
4.04730754314e-08
6.56782201091e-05
2.14870048835e-08
6.56771803459e-05
9.84421323318e-09
6.56761610464e-05
3.01801024285e-09
6.56752421528e-05
-7.37801278426e-10
6.56744619588e-05
-2.5939587942e-09
6.56738218694e-05
-3.30547288306e-09
6.5673311288e-05
-3.37096324799e-09
6.56729129774e-05
-3.1008574564e-09
6.56726081631e-05
-2.68329369809e-09
6.56723788772e-05
-2.22742984634e-09
6.5672209146e-05
-1.79232682089e-09
6.56720854206e-05
-1.40623529652e-09
6.56719962332e-05
-1.0792911066e-09
6.56719307543e-05
-8.11443419704e-10
6.5671882379e-05
-5.95924860617e-10
6.56718469208e-05
-4.24691739523e-10
6.56718201175e-05
-2.89254812481e-10
6.56717963192e-05
-1.83532240413e-10
6.56717762014e-05
-1.03844092616e-10
6.56717697962e-05
-4.53384379209e-11
6.56717688585e-05
-4.98235701692e-12
6.56717619358e-05
3.70977755213e-11
6.5671751521e-05
6.83785366574e-11
6.56717379379e-05
9.24579639161e-11
6.56717226626e-05
1.13117144605e-10
6.56717057834e-05
1.31838545901e-10
6.56716870857e-05
1.49442876985e-10
6.56716664188e-05
1.66295703006e-10
6.5671645227e-05
1.81033909771e-10
6.56716237894e-05
1.9460504652e-10
6.56716013589e-05
2.07541201266e-10
6.56715785289e-05
2.17375668677e-10
6.56715562756e-05
2.2191186385e-10
6.56715360755e-05
2.18031313041e-10
6.56715204335e-05
2.01278457591e-10
6.56715144985e-05
1.6533917662e-10
6.56715233669e-05
1.03443965903e-10
6.56715276127e-05
5.61093004787e-12
6.5671589012e-05
-2.20891192918e-10
6.56716609869e-05
-5.79684159716e-10
6.56717799244e-05
-1.12596725647e-09
6.56719519408e-05
-1.95906134377e-09
6.56721898733e-05
-3.20029193609e-09
6.56725080527e-05
-5.0556484492e-09
6.56729143028e-05
-7.84553340288e-09
6.56734024868e-05
-1.20612192874e-08
6.56739373772e-05
-1.84619066185e-08
6.56744239707e-05
-2.82228044998e-08
6.56746491735e-05
-4.31763509527e-08
6.56741705152e-05
-6.6194649537e-08
6.56721052402e-05
-1.01793262748e-07
6.56666752225e-05
-1.56990854843e-07
6.56542829226e-05
-2.42646106233e-07
6.56276925184e-05
-3.75341026299e-07
6.55725463386e-05
-5.79579035613e-07
6.54611953556e-05
-8.89482177218e-07
6.52436242259e-05
-1.34710229754e-06
6.48380974079e-05
-1.99203898328e-06
6.41289749285e-05
-2.83950481831e-06
-3.82305583702e-06
6.3020645863e-05
5.10850421679e-05
1.66764137626e-06
5.36118440698e-05
4.45458394399e-06
5.66873158486e-05
6.05635148659e-06
5.96894458163e-05
6.52316801795e-06
6.22997265049e-05
6.19218942612e-06
6.44136882293e-05
5.41801812879e-06
6.60471845959e-05
4.47638133049e-06
6.72686163555e-05
3.54401919442e-06
6.81598954867e-05
2.71437402732e-06
6.87977619205e-05
2.02382683731e-06
6.92467456787e-05
1.47505319198e-06
6.95579632038e-05
1.05369844645e-06
6.97704276063e-05
7.38824119481e-07
6.99131671262e-05
5.08749882847e-07
7.00073730953e-05
3.43901992887e-07
7.00682755848e-05
2.27894629126e-07
7.01066682625e-05
1.47661575805e-07
7.01300986149e-05
9.31372862112e-08
7.01437729195e-05
5.67700847389e-08
7.0151231137e-05
3.30150568335e-08
7.01548425794e-05
1.78757631277e-08
7.0156166207e-05
8.52074335104e-09
7.01562098096e-05
2.97449241979e-09
7.01555917489e-05
-1.19734728032e-10
7.01546983552e-05
-1.70061755594e-09
7.01537423133e-05
-2.34950098045e-09
7.0152840824e-05
-2.46951664527e-09
7.01520482533e-05
-2.30827129857e-09
7.01513824952e-05
-2.01745673164e-09
7.01508412865e-05
-1.68609733909e-09
7.01504122461e-05
-1.36314853574e-09
7.01500788826e-05
-1.0727467754e-09
7.01498239622e-05
-8.24268666473e-10
7.01496312843e-05
-6.18674847237e-10
7.0149487582e-05
-4.52116994137e-10
7.01493820894e-05
-3.19054550127e-10
7.01493068184e-05
-2.13795731627e-10
7.01492555149e-05
-1.32019404679e-10
7.01492209052e-05
-6.90474275445e-11
7.01491902988e-05
-1.46148589146e-11
7.01491611677e-05
2.41633756041e-11
7.01491441242e-05
5.40462964136e-11
7.01491318538e-05
8.04671897015e-11
7.01491208177e-05
1.03273239821e-10
7.01491099587e-05
1.23770221799e-10
7.0149098741e-05
1.42902790355e-10
7.01490869076e-05
1.61185390172e-10
7.01490743822e-05
1.78780578887e-10
7.01490598388e-05
1.95562281998e-10
7.01490432705e-05
2.11158989257e-10
7.01490260237e-05
2.24755767538e-10
7.01490086305e-05
2.34707094145e-10
7.01489917932e-05
2.38658047258e-10
7.01489762765e-05
2.3344086835e-10
7.01489623928e-05
2.15055499126e-10
7.01489487364e-05
1.78900846236e-10
7.01489311407e-05
1.20963197884e-10
7.01489212334e-05
1.54558426392e-11
7.01489041242e-05
-2.03847457829e-10
7.01489048608e-05
-5.8051548583e-10
7.01489023656e-05
-1.12362720458e-09
7.01488719273e-05
-1.92885335658e-09
7.01487835042e-05
-3.11215565007e-09
7.01485806886e-05
-4.85312191534e-09
7.01481597111e-05
-7.42475781656e-09
7.01473394285e-05
-1.12409679042e-08
7.01458098794e-05
-1.69321976126e-08
7.01430410645e-05
-2.54536840009e-08
7.01381327276e-05
-3.82676790296e-08
7.01295682825e-05
-5.76299576092e-08
7.011482444e-05
-8.70493196004e-08
7.00896359073e-05
-1.31802351591e-07
7.00467595387e-05
-1.99769795641e-07
6.99739758111e-05
-3.02557254445e-07
6.98508990027e-05
-4.56502028651e-07
6.96443615526e-05
-6.829444131e-07
6.93032079134e-05
-1.00594829822e-06
6.87557962664e-05
-1.44462703752e-06
6.79161734476e-05
-1.99988192936e-06
-2.62815957621e-06
6.67212771845e-05
5.08804130339e-05
7.87228147027e-07
5.31704657653e-05
2.16453083613e-06
5.62177492285e-05
3.00906774819e-06
5.94382692393e-05
3.30264777012e-06
6.24449691882e-05
3.1854893073e-06
6.50382528083e-05
2.82473438477e-06
6.71548666192e-05
2.3597674508e-06
6.88135652881e-05
1.88532048855e-06
7.00731712444e-05
1.45476804241e-06
7.10056677334e-05
1.09133030678e-06
7.16812628435e-05
7.99458008139e-07
7.2161419967e-05
5.73541209767e-07
7.24965972028e-05
4.03646735536e-07
7.27264681419e-05
2.78878776418e-07
7.28812589924e-05
1.89110983699e-07
7.29834377512e-05
1.25715753763e-07
7.30493670745e-05
8.17322062925e-08
7.30907507913e-05
5.17536062071e-08
7.311582203e-05
3.16989582349e-08
7.31302792778e-05
1.85579704849e-08
7.31380021041e-05
1.01531112283e-08
7.31415863036e-05
4.9366954731e-09
7.31427351454e-05
1.82575505127e-09
7.31425398211e-05
7.56414796959e-11
7.31416711577e-05
-8.31939489435e-10
7.31405393004e-05
-1.21763781066e-09
7.31393745237e-05
-1.30471569266e-09
7.31382973762e-05
-1.23106835545e-09
7.31373614078e-05
-1.08140822322e-09
7.31365813635e-05
-9.05968104803e-10
7.31359508148e-05
-7.3253098942e-10
7.31354530403e-05
-5.74928355841e-10
7.3135067643e-05
-4.38841204725e-10
7.31347742077e-05
-3.25193646608e-10
7.31345543722e-05
-2.32184930469e-10
7.31343924289e-05
-1.56942884124e-10
7.31342752153e-05
-9.63506363703e-11
7.31341908242e-05
-4.73740964581e-11
7.31341264054e-05
-4.40953700337e-12
7.31340864657e-05
2.54542980948e-11
7.313405898e-05
5.1656695391e-11
7.31340383388e-05
7.45721638896e-11
7.31340233412e-05
9.52601778703e-11
7.31340119664e-05
1.14412051409e-10
7.31340026739e-05
1.32853563738e-10
7.31339943311e-05
1.51099993009e-10
7.31339860881e-05
1.69354625847e-10
7.31339773131e-05
1.87538511533e-10
7.31339676245e-05
2.05263232737e-10
7.31339568277e-05
2.21967711798e-10
7.31339448521e-05
2.3671663436e-10
7.31339316718e-05
2.47831707382e-10
7.3133917289e-05
2.52947390672e-10
7.31339017171e-05
2.48894451105e-10
7.31338850752e-05
2.31566118488e-10
7.313386785e-05
1.95995147968e-10
7.3133851353e-05
1.37342481595e-10
7.31338219032e-05
4.48020398565e-11
7.31337715123e-05
-1.53562904201e-10
7.31336904713e-05
-4.99609331758e-10
7.31335561461e-05
-9.89489200305e-10
7.31333249499e-05
-1.69789895158e-09
7.31329259043e-05
-2.71338002277e-09
7.31322401018e-05
-4.16755171895e-09
7.31310679465e-05
-6.25270896516e-09
7.31290806878e-05
-9.2536377202e-09
7.31257425189e-05
-1.35937820814e-08
7.31201700583e-05
-1.98808809083e-08
7.31109128046e-05
-2.90101187283e-08
7.30956179729e-05
-4.23349577402e-08
7.30705289386e-05
-6.19602764732e-08
7.30295825763e-05
-9.08560922132e-08
7.29630424582e-05
-1.33229769529e-07
7.28555399265e-05
-1.9505465806e-07
7.26833300123e-05
-2.84291847476e-07
7.24109682245e-05
-4.10582228777e-07
7.19885774999e-05
-5.83557171685e-07
7.13525966352e-05
-8.08645853056e-07
7.04339627288e-05
-1.08124790293e-06
-1.37743677462e-06
6.91832399249e-05
5.07871724734e-05
5.54770218352e-11
5.29516495105e-05
5.34257314049e-11
5.59606880652e-05
2.89200066851e-11
5.92633215535e-05
1.40424821021e-11
6.24488082593e-05
2.42858807749e-12
6.52735489761e-05
-6.45647471582e-12
6.76333286931e-05
-1.23346469994e-11
6.95186643431e-05
-1.51981276735e-11
7.09734478781e-05
-1.55172585036e-11
7.20647920476e-05
-1.38987300113e-11
7.28642609694e-05
-1.09792680163e-11
7.34378094907e-05
-7.4145244325e-12
7.38414599534e-05
-3.86652904979e-12
7.41203395607e-05
-9.94040255002e-13
7.43094497393e-05
6.43396673053e-13
7.44351647973e-05
5.66709745792e-13
7.45168983799e-05
-1.44588494367e-12
7.45686571831e-05
-5.1933090102e-12
7.46003662697e-05
-1.00544920042e-11
7.46189394356e-05
-1.50690430897e-11
7.46291118171e-05
-1.9118263126e-11
7.46340697616e-05
-2.10987128159e-11
7.46359162024e-05
-2.05566999367e-11
7.46360105447e-05
-1.85982289375e-11
7.4635195199e-05
-1.65088976622e-11
7.46339912763e-05
-1.36335175484e-11
7.46326968867e-05
-1.02389297494e-11
7.46314722628e-05
-6.35568580742e-12
7.46303926788e-05
-1.74911611078e-12
7.46294838477e-05
2.90616617821e-12
7.46287436819e-05
7.63704865145e-12
7.46281559118e-05
1.28122997715e-11
7.46276987365e-05
1.83040201415e-11
7.46273494139e-05
2.41428102771e-11
7.46270868155e-05
3.05113678076e-11
7.46268924763e-05
3.75917433718e-11
7.46267508691e-05
4.55254074585e-11
7.46266494172e-05
5.43628587336e-11
7.46265810875e-05
6.41530806303e-11
7.46265325614e-05
7.41046906814e-11
7.46264995844e-05
8.46209621491e-11
7.46264777666e-05
9.62492287693e-11
7.46264636995e-05
1.09104988901e-10
7.46264547366e-05
1.23136760559e-10
7.46264489863e-05
1.38407599492e-10
7.46264450813e-05
1.54883221631e-10
7.46264420103e-05
1.72382107335e-10
7.46264390048e-05
1.90559434911e-10
7.46264354457e-05
2.08863627918e-10
7.46264308903e-05
2.26552338246e-10
7.46264250501e-05
2.42543285681e-10
7.46264176165e-05
2.55198124494e-10
7.46264081671e-05
2.62283495803e-10
7.46263960413e-05
2.6087343715e-10
7.46263801596e-05
2.47282340252e-10
7.46263588585e-05
2.17131431346e-10
7.46263304542e-05
1.65596520879e-10
7.46262852118e-05
8.99101491645e-11
7.46261963398e-05
-6.48221802601e-11
7.46260523446e-05
-3.55767888631e-10
7.46258177813e-05
-7.55122487168e-10
7.46254314195e-05
-1.31177513425e-09
7.4624794662e-05
-2.07686668194e-09
7.46237464448e-05
-3.11950980789e-09
7.46220236259e-05
-4.52992181882e-09
7.46192044516e-05
-6.43430976289e-09
7.46146175971e-05
-9.00661444331e-09
7.46071661865e-05
-1.24291087182e-08
7.45950653003e-05
-1.69089529333e-08
7.45754569695e-05
-2.27265212634e-08
7.45439214386e-05
-3.04248226425e-08
7.44934775007e-05
-4.04123196227e-08
7.44131459564e-05
-5.28983563479e-08
7.42861322928e-05
-6.80409347828e-08
7.40874078459e-05
-8.55671344804e-08
7.37811145253e-05
-1.04288490704e-07
7.33189612084e-05
-1.21403441491e-07
7.26420116898e-05
-1.31696037768e-07
7.1688701202e-05
-1.27937293007e-07
-1.01516630118e-07
7.04127810632e-05
5.07871714718e-05
-7.87116190254e-07