/*--------------------------------*- C++ -*----------------------------------*\
| =========                 |                                                 |
| \\      /  F ield         | OpenFOAM: The Open Source CFD Toolbox           |
|  \\    /   O peration     | Version:  2106                                  |
|   \\  /    A nd           | Website:  www.openfoam.com                      |
|    \\/     M anipulation  |                                                 |
\*---------------------------------------------------------------------------*/
FoamFile
{
    version     2.0;
    format      ascii;
    arch        "LSB;label=32;scalar=64";
    class       volVectorField;
    location    "0.13";
    object      U;
}
// * * * * * * * * * * * * * * * * * * * * * * * * * * * * * * * * * * * * * //

dimensions      [0 1 -1 0 0 0 0];

internalField   nonuniform List<vector> 
11200
(
(0.662462400004 0.150569445924 0)
(0.558948657769 0.103243391571 0)
(0.383850711897 0.0513512279149 0)
(0.283747561224 0.0248708588981 0)
(0.23207522931 0.0124170484719 0)
(0.201908541327 0.00662281964754 0)
(0.183197884369 0.0038029169771 0)
(0.171276437775 0.00231587248288 0)
(0.163510253325 0.00146450899801 0)
(0.1583887143 0.000944894972119 0)
(0.155006573501 0.000615179399012 0)
(0.152786617451 0.000402235904103 0)
(0.15134646932 0.000264233352527 0)
(0.150428240334 0.000175249455382 0)
(0.149856653862 0.000118356892584 0)
(0.14951248442 8.21513141562e-05 0)
(0.149314974356 5.88496066748e-05 0)
(0.149209683907 4.3288123275e-05 0)
(0.149159914293 3.28952967852e-05 0)
(0.149142792262 2.81460535158e-05 0)
(0.149145105346 2.76374478577e-05 0)
(0.149157554136 2.98710513191e-05 0)
(0.149173357894 3.30377480268e-05 0)
(0.149189107256 3.59526735722e-05 0)
(0.149203531828 3.85900738168e-05 0)
(0.149216025367 4.10335630451e-05 0)
(0.149226415243 4.33164341296e-05 0)
(0.149234803891 4.54687544102e-05 0)
(0.149241423993 4.75282172853e-05 0)
(0.149246553515 4.9538755063e-05 0)
(0.149250472369 5.15560577006e-05 0)
(0.149253444637 5.36631011114e-05 0)
(0.149255669078 5.59552649279e-05 0)
(0.149257310224 5.83308355118e-05 0)
(0.149258507916 6.07025939932e-05 0)
(0.149259351444 6.30405849473e-05 0)
(0.149259922091 6.53475532206e-05 0)
(0.149260305099 6.76314404291e-05 0)
(0.149260563354 6.99069914571e-05 0)
(0.149260729098 7.21822989115e-05 0)
(0.149260823589 7.44595571917e-05 0)
(0.149260864362 7.67393601456e-05 0)
(0.149260865112 7.90212353011e-05 0)
(0.149260836726 8.13038563611e-05 0)
(0.149260788045 8.3585343502e-05 0)
(0.149260726441 8.58632445543e-05 0)
(0.149260658431 8.81347708669e-05 0)
(0.149260589722 9.0397094466e-05 0)
(0.149260524952 9.26475989978e-05 0)
(0.149260468827 9.48834968621e-05 0)
(0.149260427326 9.71023211858e-05 0)
(0.149260408294 9.93015518447e-05 0)
(0.149260422882 0.000101478422076 0)
(0.14926048739 0.000103629774314 0)
(0.14926062565 0.000105751675928 0)
(0.149260872507 0.000107838699143 0)
(0.149261278574 0.000109883371389 0)
(0.149261916354 0.000111876095987 0)
(0.14926289261 0.000113802659024 0)
(0.149264365154 0.000115638989392 0)
(0.14926657451 0.000117333619622 0)
(0.149269923817 0.000118800401135 0)
(0.149274900239 0.000120064533914 0)
(0.149282148482 0.000121310020013 0)
(0.149292695164 0.000122987513325 0)
(0.149308065605 0.000125342365687 0)
(0.149330653034 0.000128128467042 0)
(0.149364183088 0.000131105566809 0)
(0.149414295089 0.000134050415729 0)
(0.14948928264 0.000136852838235 0)
(0.149601170446 0.000140837122757 0)
(0.149773072251 0.000151936740924 0)
(0.150043018105 0.000172873954239 0)
(0.150474450113 0.000203419219985 0)
(0.151203839605 0.000233807579616 0)
(0.152510456766 0.000193187080442 0)
(0.15505355059 -0.000218446128908 0)
(0.162436471802 -0.00213129212233 0)
(0.187919213366 -0.0109095834092 0)
(0.205264384013 -0.050372301095 0)
(0.965408251926 0.289214716003 0)
(0.961962849262 0.252656049224 0)
(0.823574377095 0.159021451074 0)
(0.698139347935 0.0959957403689 0)
(0.61022543602 0.0582481228582 0)
(0.548971456604 0.0362148615 0)
(0.506588845395 0.0231612933708 0)
(0.477567216411 0.0151375235451 0)
(0.457745430117 0.0100177630181 0)
(0.444228391518 0.00665814782111 0)
(0.435053225923 0.00441556002699 0)
(0.42887304964 0.0029068641494 0)
(0.424754149734 0.0018910478192 0)
(0.42204663437 0.00121002151015 0)
(0.420297856996 0.00075712125496 0)
(0.419193340268 0.000459189701414 0)
(0.418515867457 0.000265758652281 0)
(0.418116900119 0.000142268435723 0)
(0.41789653089 6.59446019405e-05 0)
(0.417787773123 2.29098825787e-05 0)
(0.417746756444 1.20164695809e-06 0)
(0.417743905786 -1.04465960135e-05 0)
(0.417758930131 -1.40322605878e-05 0)
(0.417781381725 -1.36163343728e-05 0)
(0.417806215845 -1.12123920111e-05 0)
(0.417830152187 -7.88967782438e-06 0)
(0.417851484518 -4.28401696445e-06 0)
(0.417869601941 -7.6474487082e-07 0)
(0.417884494884 2.46836704949e-06 0)
(0.417896462824 5.31489997167e-06 0)
(0.417905960021 7.71806884706e-06 0)
(0.417913486178 9.60600847161e-06 0)
(0.417919280074 1.08774228996e-05 0)
(0.417923542636 1.17739406729e-05 0)
(0.417926627283 1.25718373451e-05 0)
(0.41792881622 1.3333021588e-05 0)
(0.417930329918 1.40279433116e-05 0)
(0.4179313707 1.46571628705e-05 0)
(0.417932088427 1.52559614898e-05 0)
(0.4179325637 1.58386503096e-05 0)
(0.417932852628 1.64073765527e-05 0)
(0.417933001851 1.69650212371e-05 0)
(0.417933047384 1.75140440527e-05 0)
(0.417933016646 1.80566382904e-05 0)
(0.417932930083 1.85955335867e-05 0)
(0.417932803027 1.91332833926e-05 0)
(0.417932648154 1.96726451703e-05 0)
(0.41793247695 2.0216954388e-05 0)
(0.417932300012 2.0769795075e-05 0)
(0.417932130137 2.1332399754e-05 0)
(0.417931984924 2.19063991859e-05 0)
(0.417931887817 2.24930655557e-05 0)
(0.417931871086 2.30927512438e-05 0)
(0.417931979544 2.37046438188e-05 0)
(0.417932275614 2.4326673076e-05 0)
(0.417932847775 2.49556593728e-05 0)
(0.417933823703 2.55877933141e-05 0)
(0.417935386686 2.62167494433e-05 0)
(0.417937804516 2.68225108247e-05 0)
(0.417941464188 2.7373649486e-05 0)
(0.417946949858 2.78252945589e-05 0)
(0.417955334713 2.81095486375e-05 0)
(0.417968133785 2.83631495944e-05 0)
(0.417987486126 2.79660523217e-05 0)
(0.418016213313 2.54780082157e-05 0)
(0.418057940432 1.96972802807e-05 0)
(0.41811883105 9.81731931093e-06 0)
(0.41820909354 -5.69778515245e-06 0)
(0.418344494893 -2.94004617189e-05 0)
(0.418550212199 -6.5018396843e-05 0)
(0.41886862539 -0.000116792186953 0)
(0.419370047491 -0.00018976413693 0)
(0.420169223277 -0.000311122303551 0)
(0.421472217158 -0.000538905907648 0)
(0.423675142799 -0.00101120936721 0)
(0.427505978445 -0.00211373076477 0)
(0.43440681062 -0.00491104193879 0)
(0.448597760258 -0.0123993980474 0)
(0.475351292198 -0.0346665910727 0)
(0.479659408503 -0.100181167089 0)
(1.02222096347 0.238416196357 0)
(1.08213752083 0.295926662488 0)
(1.0344772145 0.239503075975 0)
(0.954615392806 0.174290174066 0)
(0.879992034179 0.121345478714 0)
(0.818614409008 0.0830993954842 0)
(0.77141081862 0.0567316795658 0)
(0.736634353735 0.0387409813239 0)
(0.711624392205 0.02643279818 0)
(0.693916580645 0.0179731109469 0)
(0.681541378081 0.0121424443859 0)
(0.673000104059 0.00812488813716 0)
(0.667180674544 0.00536627598825 0)
(0.663271764637 0.00348436463176 0)
(0.660688686567 0.00221243512654 0)
(0.659014497898 0.00136319764801 0)
(0.657955004847 0.000804991273243 0)
(0.657304961653 0.000445587974506 0)
(0.656922864232 0.000220660402254 0)
(0.656711692448 8.50944439289e-05 0)
(0.65660527044 7.79052449566e-06 0)
(0.656564255451 -3.44605066036e-05 0)
(0.656560976895 -5.77682942133e-05 0)
(0.656575100226 -6.78733559951e-05 0)
(0.656597329622 -6.9545851032e-05 0)
(0.656621890081 -6.66801320219e-05 0)
(0.656645455894 -6.17106827474e-05 0)
(0.656666404933 -5.60453713871e-05 0)
(0.656684138676 -5.0467435291e-05 0)
(0.656698623652 -4.53822544386e-05 0)
(0.656710096486 -4.0979928962e-05 0)
(0.65671890925 -3.73662258302e-05 0)
(0.656725686938 -3.46513808783e-05 0)
(0.656731112128 -3.26968864809e-05 0)
(0.656735383684 -3.14763461862e-05 0)
(0.656738513809 -3.08415057616e-05 0)
(0.656740690338 -3.06260432396e-05 0)
(0.65674220851 -3.08346583871e-05 0)
(0.656743275193 -3.12902438682e-05 0)
(0.656743991152 -3.18918931894e-05 0)
(0.656744436087 -3.26037652538e-05 0)
(0.656744679135 -3.3396291143e-05 0)
(0.65674477284 -3.42442456223e-05 0)
(0.656744757743 -3.51275188026e-05 0)
(0.656744664217 -3.60290225766e-05 0)
(0.656744514931 -3.69364753671e-05 0)
(0.656744328847 -3.78410662719e-05 0)
(0.656744123001 -3.8735550252e-05 0)
(0.656743911602 -3.96118121292e-05 0)
(0.656743712452 -4.04645701373e-05 0)
(0.656743551678 -4.12869236906e-05 0)
(0.656743463491 -4.20739124877e-05 0)
(0.656743494347 -4.2823269993e-05 0)
(0.656743708778 -4.35365934651e-05 0)
(0.65674419781 -4.4223166401e-05 0)
(0.65674509211 -4.49084746415e-05 0)
(0.656746579288 -4.56457271222e-05 0)
(0.656748921594 -4.65232940282e-05 0)
(0.656752507644 -4.76826817581e-05 0)
(0.656757928789 -4.9343034941e-05 0)
(0.656766082406 -5.19676647311e-05 0)
(0.656778582661 -5.66039108266e-05 0)
(0.656796904366 -6.40719011759e-05 0)
(0.656822484331 -7.53268531343e-05 0)
(0.656858969364 -9.19876413915e-05 0)
(0.656913114189 -0.000116530001765 0)
(0.656994464864 -0.000152182358227 0)
(0.657116941079 -0.000204296036342 0)
(0.657302581308 -0.000281522461538 0)
(0.6575871897 -0.000397963694002 0)
(0.658029618373 -0.000578359201184 0)
(0.658720270287 -0.000870645478658 0)
(0.659808385773 -0.00136605756683 0)
(0.661555463537 -0.00224000823503 0)
(0.664410838604 -0.00385986870038 0)
(0.669083691224 -0.00703553453023 0)
(0.676624431748 -0.0135327986601 0)
(0.689083596362 -0.0272299329506 0)
(0.706091810978 -0.0571936597201 0)
(0.701929353435 -0.11513439146 0)
(1.02251475267 0.170807162958 0)
(1.10138974847 0.276496489732 0)
(1.11752424962 0.266664809918 0)
(1.09214659008 0.219901709977 0)
(1.0518781363 0.168168859876 0)
(1.01020820052 0.123567410707 0)
(0.97349466275 0.0888375369081 0)
(0.94386452453 0.0630063864559 0)
(0.921142766659 0.0442232149462 0)
(0.904284042576 0.0307423937252 0)
(0.892074849003 0.021156276839 0)
(0.883404513095 0.014395421812 0)
(0.877352712911 0.00966785810324 0)
(0.873197814441 0.00639368725678 0)
(0.870393134832 0.00415093676099 0)
(0.868534384786 0.00263416559893 0)
(0.867328177234 0.00162357626503 0)
(0.86656502248 0.000962102643731 0)
(0.866097580385 0.000538403414328 0)
(0.865823722787 0.000274277530548 0)
(0.865673307858 0.000116029740727 0)
(0.865597525698 2.76141988242e-05 0)
(0.865567078316 -2.06477607596e-05 0)
(0.865564966539 -4.27249758864e-05 0)
(0.865576998079 -4.92297321272e-05 0)
(0.865594718308 -4.71528260095e-05 0)
(0.865613766412 -4.08116769288e-05 0)
(0.865631852336 -3.279337125e-05 0)
(0.865647876019 -2.45701321099e-05 0)
(0.865661454647 -1.69124899161e-05 0)
(0.865672607509 -1.01565311285e-05 0)
(0.865681533454 -4.36516719297e-06 0)
(0.865688490213 5.51934194252e-07 0)
(0.865693700161 4.49770362703e-06 0)
(0.865697497283 7.35985795737e-06 0)
(0.865700290785 9.3190048388e-06 0)
(0.865702216069 1.07351211927e-05 0)
(0.865703542552 1.19700121384e-05 0)
(0.865704554032 1.30202797852e-05 0)
(0.865705265976 1.39568333144e-05 0)
(0.865705712986 1.4811534604e-05 0)
(0.865705960026 1.55951646026e-05 0)
(0.865706057167 1.63181942314e-05 0)
(0.865706042304 1.69940256004e-05 0)
(0.865705942622 1.76380679812e-05 0)
(0.86570577699 1.8262296716e-05 0)
(0.865705562511 1.88779145945e-05 0)
(0.865705318216 1.94988741422e-05 0)
(0.865705061752 2.01408413672e-05 0)
(0.865704815913 2.07927144698e-05 0)
(0.865704612215 2.14503346247e-05 0)
(0.865704489386 2.21072763239e-05 0)
(0.865704499922 2.27497623561e-05 0)
(0.865704714149 2.33534350616e-05 0)
(0.865705223763 2.38789469604e-05 0)
(0.865706150851 2.42705408346e-05 0)
(0.865707672393 2.44712860756e-05 0)
(0.865710046595 2.44276139988e-05 0)
(0.865713655252 2.39632357955e-05 0)
(0.865718956011 2.27220065813e-05 0)
(0.865726350943 2.00701957564e-05 0)
(0.865737383132 1.53533856457e-05 0)
(0.865754645645 6.83433388765e-06 0)
(0.865781176815 -7.31260232211e-06 0)
(0.865820929043 -2.91044512716e-05 0)
(0.8658797927 -6.24518156424e-05 0)
(0.865967142149 -0.000114323679956 0)
(0.86609759905 -0.000195645669308 0)
(0.866293938992 -0.000323947741513 0)
(0.866591403311 -0.000528158571837 0)
(0.867044372176 -0.000857996145349 0)
(0.867739239289 -0.00140169672656 0)
(0.868814668985 -0.00231036295676 0)
(0.8704879956 -0.00386302176765 0)
(0.873085166359 -0.00659253266033 0)
(0.877017021327 -0.0115258304645 0)
(0.882624817455 -0.020568667891 0)
(0.890117169859 -0.0370678588721 0)
(0.897072319773 -0.0667067113815 0)
(0.887575280149 -0.112433292162 0)
(1.01287874884 0.11896103492 0)
(1.08820669847 0.231806949049 0)
(1.13741365918 0.253106776285 0)
(1.15409085171 0.22899276576 0)
(1.14994208972 0.188368372656 0)
(1.13538463296 0.146579859816 0)
(1.11758892469 0.110150982594 0)
(1.10059497854 0.0808162372992 0)
(1.08612454981 0.0582265847688 0)
(1.07459090885 0.0413189786007 0)
(1.06579146262 0.0289159878124 0)
(1.05928800512 0.0199600267306 0)
(1.05459981279 0.0135814276406 0)
(1.05129086499 0.00909722989354 0)
(1.04900002084 0.00598583588412 0)
(1.047443681 0.00385651838035 0)
(1.04640694695 0.00242099522325 0)
(1.04573121283 0.00146937048556 0)
(1.04530188525 0.000850727489955 0)
(1.04503766476 0.000457834039186 0)
(1.04488162296 0.00021536233029 0)
(1.04479439203 7.14459262539e-05 0)
(1.04475095145 -7.19440719959e-06 0)
(1.04473450546 -4.58657201576e-05 0)
(1.04473276445 -6.13732012106e-05 0)
(1.04473878059 -6.378355234e-05 0)
(1.04474827599 -5.93316622538e-05 0)
(1.0447587165 -5.18552074732e-05 0)
(1.04476871474 -4.36071366284e-05 0)
(1.04477759118 -3.5813943248e-05 0)
(1.04478508555 -2.90688507229e-05 0)
(1.04479117258 -2.35871877619e-05 0)
(1.04479597806 -1.93447383108e-05 0)
(1.04479970218 -1.61669506614e-05 0)
(1.04480257122 -1.37230433724e-05 0)
(1.04480484193 -1.18161882276e-05 0)
(1.04480676037 -1.02993673388e-05 0)
(1.04480829612 -8.91704323418e-06 0)
(1.04480939958 -7.75672721478e-06 0)
(1.04481019138 -6.90185595921e-06 0)
(1.04481070342 -6.37721118328e-06 0)
(1.04481098861 -6.06829801768e-06 0)
(1.04481110381 -5.90580580967e-06 0)
(1.04481109653 -5.83901524773e-06 0)
(1.04481099906 -5.81818567696e-06 0)
(1.04481083391 -5.81844207581e-06 0)
(1.04481062492 -5.82882014109e-06 0)
(1.04481039677 -5.84873004472e-06 0)
(1.04481014799 -5.88682391126e-06 0)
(1.04480988745 -5.91946099869e-06 0)
(1.04480965354 -5.93952860522e-06 0)
(1.04480948492 -5.94912871277e-06 0)
(1.04480943017 -5.95427575598e-06 0)
(1.04480955585 -5.96781728716e-06 0)
(1.04480995899 -6.01676283463e-06 0)
(1.04481080056 -6.16507515428e-06 0)
(1.04481233483 -6.59067058005e-06 0)
(1.0448148207 -7.68571278743e-06 0)
(1.04481854212 -9.86677220247e-06 0)
(1.04482392445 -1.35992091058e-05 0)
(1.04483193219 -1.85709572814e-05 0)
(1.04484380676 -2.47476954138e-05 0)
(1.04486077282 -3.43553516209e-05 0)
(1.04488505451 -5.03942084592e-05 0)
(1.04492015016 -7.72050215902e-05 0)
(1.044971221 -0.000121138474541 0)
(1.04504590777 -0.000192105506313 0)
(1.04515562733 -0.000305902210052 0)
(1.04531766769 -0.000488075850302 0)
(1.04555818202 -0.000780305647509 0)
(1.0459164316 -0.00125103199785 0)
(1.0464512589 -0.00201375656901 0)
(1.04724845304 -0.00326238257899 0)
(1.04842384709 -0.00533378096418 0)
(1.05010944089 -0.00881594922038 0)
(1.05236889282 -0.0147234722942 0)
(1.05496690809 -0.024702492997 0)
(1.05712012507 -0.0411344415529 0)
(1.05611203264 -0.0669810205802 0)
(1.04256921245 -0.101929440527 0)
(1.00447483234 0.0814040098613 0)
(1.06917236388 0.181288551624 0)
(1.13080567581 0.216950430474 0)
(1.17374999066 0.210789167376 0)
(1.1986526374 0.183690089942 0)
(1.21019986603 0.149751698031 0)
(1.21350254526 0.116779159255 0)
(1.21251723125 0.0882206901696 0)
(1.20973097802 0.0650481543915 0)
(1.20651119707 0.0470208944279 0)
(1.20351914192 0.0334067633425 0)
(1.2010114716 0.0233556398804 0)
(1.1990344858 0.0160718530156 0)
(1.19753883445 0.0108792604688 0)
(1.19644139753 0.00723381541814 0)
(1.19565570629 0.00471299813587 0)
(1.19510506028 0.00299693324687 0)
(1.19472671144 0.00184826452214 0)
(1.19447181061 0.00109384386852 0)
(1.1943035972 0.000609261923588 0)
(1.19419507056 0.000306401182974 0)
(1.19412692343 0.000123960286177 0)
(1.19408601881 2.0190832984e-05 0)
(1.19406291498 -3.46662906566e-05 0)
(1.19405079427 -5.96163070115e-05 0)
(1.19404548163 -6.70326508868e-05 0)
(1.19404417808 -6.48518594664e-05 0)
(1.19404506367 -5.79840478356e-05 0)
(1.19404701789 -4.9342663755e-05 0)
(1.19404937787 -4.05505727719e-05 0)
(1.19405176672 -3.24211615222e-05 0)
(1.1940539865 -2.52745703698e-05 0)
(1.19405595822 -1.91451220036e-05 0)
(1.19405767552 -1.39528465874e-05 0)
(1.19405915724 -9.589996777e-06 0)
(1.19406042288 -5.97377612449e-06 0)
(1.19406147903 -3.07207299639e-06 0)
(1.19406228009 -9.27844926824e-07 0)
(1.194062768 6.23912856747e-07 0)
(1.19406295339 1.67651237206e-06 0)
(1.19406299494 2.46506319582e-06 0)
(1.19406300747 3.15696743366e-06 0)
(1.19406297414 3.76729481628e-06 0)
(1.19406290606 4.3005740841e-06 0)
(1.19406280234 4.76169385816e-06 0)
(1.19406264674 5.16865815853e-06 0)
(1.19406243463 5.53596844104e-06 0)
(1.19406216853 5.8644485218e-06 0)
(1.19406188485 6.14262386784e-06 0)
(1.19406162227 6.4007338312e-06 0)
(1.19406139619 6.65108154754e-06 0)
(1.19406124145 6.88156804861e-06 0)
(1.19406121132 7.06731197297e-06 0)
(1.19406137255 7.16935444303e-06 0)
(1.19406179468 7.1294793789e-06 0)
(1.19406250576 6.86463805108e-06 0)
(1.19406345614 6.24325191139e-06 0)
(1.19406476081 4.96752216671e-06 0)
(1.19406681002 2.45510056759e-06 0)
(1.19407076261 -1.50289229588e-06 0)
(1.19407759205 -7.68007192373e-06 0)
(1.19408705313 -1.74624362493e-05 0)
(1.19409972347 -3.2913008804e-05 0)
(1.1941175357 -5.69267270819e-05 0)
(1.19414263345 -9.41194808675e-05 0)
(1.1941778126 -0.000151883418598 0)
(1.19422704075 -0.00024201415681 0)
(1.19429592653 -0.000383240504768 0)
(1.19439234095 -0.000605480515286 0)
(1.19452709958 -0.000956863932545 0)
(1.19471446186 -0.00151527193676 0)
(1.1949715143 -0.00240711557447 0)
(1.19531352067 -0.00383954279431 0)
(1.19573855462 -0.00615236498671 0)
(1.19618734827 -0.00989643236056 0)
(1.19644079342 -0.0159366091628 0)
(1.19591001577 -0.0255202383449 0)
(1.19343006692 -0.0401635731668 0)
(1.18663301048 -0.0612025219816 0)
(1.16991314262 -0.087449478209 0)
(0.998962323377 0.054431638245 0)
(1.05310955957 0.133401620306 0)
(1.11628267267 0.170777569186 0)
(1.17301270912 0.175143882429 0)
(1.21791245244 0.159583617409 0)
(1.25049857129 0.134951032314 0)
(1.27288490747 0.108411669065 0)
(1.28776722186 0.0838849808219 0)
(1.29745268505 0.0630565722066 0)
(1.30366075899 0.046299903078 0)
(1.30759235314 0.0333204657381 0)
(1.31005370778 0.0235494276809 0)
(1.3115736222 0.0163597438337 0)
(1.3124949068 0.011171059795 0)
(1.31303857072 0.00749113342201 0)
(1.31334661986 0.00492396677911 0)
(1.3135099755 0.00316226278129 0)
(1.31358652899 0.00197386127749 0)
(1.31361280861 0.00118708841691 0)
(1.31361154024 0.000677290288528 0)
(1.31359655951 0.000355435366376 0)
(1.31357607301 0.000158954090504 0)
(1.31355488602 4.44464097004e-05 0)
(1.31353539235 -1.80854147176e-05 0)
(1.31351852509 -4.84048400337e-05 0)
(1.31350460124 -5.95091291584e-05 0)
(1.31349346053 -5.98101286696e-05 0)
(1.31348477224 -5.45648430178e-05 0)
(1.31347815122 -4.69431568612e-05 0)
(1.31347321618 -3.87726593673e-05 0)
(1.31346961942 -3.10334075069e-05 0)
(1.3134670608 -2.41867119428e-05 0)
(1.31346528771 -1.83910640973e-05 0)
(1.31346407719 -1.36526844762e-05 0)
(1.31346325329 -9.91446196405e-06 0)
(1.31346270805 -7.08447103992e-06 0)
(1.31346236133 -5.04278968092e-06 0)
(1.31346211448 -3.63650923711e-06 0)
(1.31346191411 -2.64131580775e-06 0)
(1.3134618516 -1.85692917475e-06 0)
(1.31346195917 -1.17222074492e-06 0)
(1.31346206582 -6.56579798583e-07 0)
(1.31346206708 -2.22672962258e-07 0)
(1.31346197941 1.80768173938e-07 0)
(1.31346183007 5.49738318693e-07 0)
(1.31346163907 8.92412723346e-07 0)
(1.3134614098 1.22581180122e-06 0)
(1.31346114213 1.57110469587e-06 0)
(1.31346085689 1.94855000534e-06 0)
(1.31346058076 2.32780874227e-06 0)
(1.31346031945 2.67738380144e-06 0)
(1.31346008471 2.97141877343e-06 0)
(1.31345990773 3.17015532892e-06 0)
(1.31345983408 3.21140313767e-06 0)
(1.31345993296 3.00429003363e-06 0)
(1.31346031645 2.42828630002e-06 0)
(1.31346108117 1.3670640999e-06 0)
(1.31346214612 -2.51188375153e-07 0)
(1.3134638942 -2.63025143824e-06 0)
(1.31346664688 -6.28086331586e-06 0)
(1.31347047637 -1.26456807265e-05 0)
(1.31347566006 -2.33883741019e-05 0)
(1.31348243369 -4.01127799204e-05 0)
(1.31349122695 -6.59546983486e-05 0)
(1.31350231364 -0.000105972398972 0)
(1.3135157071 -0.000167993308199 0)
(1.31353094807 -0.0002642430062 0)
(1.3135465893 -0.000413893509047 0)
(1.31355922375 -0.000647213541938 0)
(1.31356165036 -0.00101223023953 0)
(1.31353960523 -0.00158537450029 0)
(1.31346513892 -0.00248762036655 0)
(1.31328295611 -0.00391006324014 0)
(1.31288393607 -0.00615165089724 0)
(1.31205529305 -0.00966791783965 0)
(1.31038613178 -0.0151188939897 0)
(1.3071118111 -0.0233630534085 0)
(1.30100002451 -0.0352876670191 0)
(1.29013751313 -0.0513965709001 0)
(1.27096378418 -0.0705429179776 0)
(0.99573607208 0.0346338730734 0)
(1.04179513653 0.0905689330338 0)
(1.10222838165 0.12154957418 0)
(1.1649141127 0.129605841896 0)
(1.22202566258 0.122009276191 0)
(1.26951892463 0.106019946758 0)
(1.30680224843 0.0870975642442 0)
(1.33499537086 0.068636686562 0)
(1.35574479733 0.0523698367806 0)
(1.37069619198 0.0389256003357 0)
(1.38128277401 0.0282980297424 0)
(1.38866267837 0.0201711936326 0)
(1.39373030032 0.0141173699451 0)
(1.39715651726 0.00970511867606 0)
(1.39943417237 0.00655027881709 0)
(1.40091937161 0.00433401556052 0)
(1.40186575215 0.00280355993406 0)
(1.40245155713 0.00176499109866 0)
(1.40280038359 0.00107325902124 0)
(1.40299674913 0.000622103699039 0)
(1.40309757574 0.000335079420735 0)
(1.4031405701 0.000158102049498 0)
(1.40315030339 5.34709295439e-05 0)
(1.40314226099 -4.81405917581e-06 0)
(1.40312590692 -3.40922510904e-05 0)
(1.40310685307 -4.5959345956e-05 0)
(1.40308815328 -4.78742199702e-05 0)
(1.40307134433 -4.45282669295e-05 0)
(1.40305703973 -3.8786993891e-05 0)
(1.40304532559 -3.23292434646e-05 0)
(1.40303601148 -2.60766642962e-05 0)
(1.40302878206 -2.04828899213e-05 0)
(1.40302328505 -1.57243990772e-05 0)
(1.40301917531 -1.18175961528e-05 0)
(1.40301615044 -8.67581672992e-06 0)
(1.40301397057 -6.1768141165e-06 0)
(1.40301245352 -4.19986586057e-06 0)
(1.40301145484 -2.62578579466e-06 0)
(1.40301082246 -1.32446351048e-06 0)
(1.40301037927 -2.54709903994e-07 0)
(1.40300999093 5.90626468437e-07 0)
(1.40300969828 1.19462013356e-06 0)
(1.40300954421 1.64503819636e-06 0)
(1.40300943927 2.0195875788e-06 0)
(1.40300932853 2.36895518638e-06 0)
(1.40300919843 2.71669249486e-06 0)
(1.4030090449 3.07542673149e-06 0)
(1.40300886648 3.45406444901e-06 0)
(1.40300865509 3.85828158604e-06 0)
(1.40300840484 4.26598472912e-06 0)
(1.40300813368 4.64777494762e-06 0)
(1.40300786974 4.97955666722e-06 0)
(1.40300763767 5.22597062638e-06 0)
(1.40300746434 5.33252508173e-06 0)
(1.40300737445 5.21786270937e-06 0)
(1.40300737789 4.75586592582e-06 0)
(1.40300746288 3.74942043489e-06 0)
(1.40300766785 1.990366122e-06 0)
(1.40300802536 -7.11176951485e-07 0)
(1.40300868325 -5.28653336715e-06 0)
(1.4030096965 -1.2489502578e-05 0)
(1.40301067596 -2.36260688457e-05 0)
(1.40301106122 -4.05424039813e-05 0)
(1.4030100426 -6.62067781414e-05 0)
(1.4030060554 -0.000105220731459 0)
(1.40299625129 -0.000164679792192 0)
(1.40297570629 -0.000255571852147 0)
(1.40293598823 -0.000394879157124 0)
(1.40286271686 -0.000609027968005 0)
(1.40273150736 -0.000939308175518 0)
(1.40250179499 -0.0014504114221 0)
(1.40210591974 -0.00224198906992 0)
(1.40142967402 -0.00346639389633 0)
(1.40028095061 -0.00535277813616 0)
(1.39834022208 -0.00823273506617 0)
(1.3950835497 -0.0125553358966 0)
(1.38967925159 -0.0188539459706 0)
(1.38094764782 -0.0275994485065 0)
(1.36733936151 -0.0389180889597 0)
(1.34637415897 -0.0519678393753 0)
(0.99401152946 0.0192358192192 0)
(1.03484762937 0.052333850555 0)
(1.09199262276 0.0723631338225 0)
(1.15662419791 0.0791292359355 0)
(1.22032116535 0.0761045493025 0)
(1.27701946099 0.0673339745294 0)
(1.32424420491 0.05615090661 0)
(1.36181575932 0.0447990126621 0)
(1.39068533602 0.0345303746622 0)
(1.41226077648 0.02588141995 0)
(1.42801823505 0.0189464948615 0)
(1.43929882366 0.0135849271489 0)
(1.44722800154 0.00955644222418 0)
(1.4527039684 0.00659997297333 0)
(1.4564186613 0.00447398264834 0)
(1.45889096127 0.00297322492302 0)
(1.46050157612 0.00193238354342 0)
(1.46152464861 0.00122319761867 0)
(1.46215425669 0.000748931445402 0)
(1.46252558379 0.000438267667928 0)
(1.46273126988 0.000239637280163 0)
(1.46283373243 0.00011639836637 0)
(1.46287427854 4.29191074398e-05 0)
(1.46287964065 1.47553531837e-06 0)
(1.46286656789 -1.97656203678e-05 0)
(1.46284526308 -2.88289960422e-05 0)
(1.4628217225 -3.08608506939e-05 0)
(1.46279918327 -2.91095942954e-05 0)
(1.46277920022 -2.55745453532e-05 0)
(1.46276233736 -2.14377175821e-05 0)
(1.4627486033 -1.73544548455e-05 0)
(1.46273772024 -1.3652298698e-05 0)
(1.4627292891 -1.04636021703e-05 0)
(1.46272288465 -7.80748784366e-06 0)
(1.46271810941 -5.63648520365e-06 0)
(1.4627146192 -3.88168173291e-06 0)
(1.46271212571 -2.477669885e-06 0)
(1.46271037765 -1.38053576127e-06 0)
(1.46270913746 -5.57021633437e-07 0)
(1.4627083078 7.34960895839e-08 0)
(1.4627078043 6.05040001044e-07 0)
(1.46270747363 1.13518581116e-06 0)
(1.46270724772 1.62231619544e-06 0)
(1.46270708542 2.05610302488e-06 0)
(1.46270695179 2.4573097441e-06 0)
(1.46270682269 2.84306526288e-06 0)
(1.4627066801 3.22228477844e-06 0)
(1.46270651151 3.59607481035e-06 0)
(1.46270630828 3.95913664142e-06 0)
(1.46270606589 4.30989993586e-06 0)
(1.46270578651 4.64035457307e-06 0)
(1.46270547513 4.92078456894e-06 0)
(1.46270513654 5.10447506376e-06 0)
(1.46270477707 5.12540324323e-06 0)
(1.46270440543 4.89371630029e-06 0)
(1.46270403692 4.29459692e-06 0)
(1.46270369559 3.19698128979e-06 0)
(1.46270328663 1.48015123556e-06 0)
(1.46270258023 -1.12454504571e-06 0)
(1.4627013997 -5.17662552353e-06 0)
(1.46269948106 -1.16334319489e-05 0)
(1.46269616277 -2.16171620701e-05 0)
(1.46269028662 -3.66418343931e-05 0)
(1.46267997811 -5.90568244798e-05 0)
(1.46266206907 -9.24402710391e-05 0)
(1.46263127261 -0.000142223256892 0)
(1.46257897288 -0.000216653875802 0)
(1.46249108748 -0.0003281068896 0)
(1.46234450195 -0.000495390704215 0)
(1.4621013075 -0.000747409865641 0)
(1.46170095643 -0.00112946729595 0)
(1.46104695488 -0.00170852696742 0)
(1.45998408714 -0.00258292986461 0)
(1.45826604907 -0.00389586342639 0)
(1.45551019715 -0.00584516859138 0)
(1.45113666872 -0.00868272602829 0)
(1.4443016296 -0.0126821792903 0)
(1.43389898889 -0.0180433814418 0)
(1.41861157919 -0.0247398125154 0)
(1.39650576942 -0.0322531044865 0)
(0.993269665622 0.00617016256689 0)
(1.03158099422 0.0171020541248 0)
(1.08672181549 0.0239906518587 0)
(1.15174554478 0.026560665654 0)
(1.21823536748 0.0258180569757 0)
(1.27925775276 0.0230488837827 0)
(1.3314013788 0.0193656295197 0)
(1.37377601383 0.0155468564635 0)
(1.40691056456 0.0120449283306 0)
(1.4320331614 0.00906639589925 0)
(1.45060215922 0.00666058665126 0)
(1.46402983057 0.00479007606708 0)
(1.47355006644 0.00337840185181 0)
(1.4801754337 0.00233869610538 0)
(1.4847019308 0.00158885107511 0)
(1.48773562751 0.00105819959693 0)
(1.48972646963 0.000689341039575 0)
(1.49100151605 0.000437478533295 0)
(1.49179411396 0.000268682664994 0)
(1.49226789608 0.000157860899506 0)
(1.49253568896 8.68250699556e-05 0)
(1.49267395666 4.26254773826e-05 0)
(1.49273357843 1.61832747876e-05 0)
(1.49274773455 1.20207343412e-06 0)
(1.49273739927 -6.54912110368e-06 0)
(1.49271546751 -9.91303034798e-06 0)
(1.49268964444 -1.07306996843e-05 0)
(1.4926641819 -1.01669570715e-05 0)
(1.49264120617 -8.94021897299e-06 0)
(1.49262158058 -7.47261985464e-06 0)
(1.49260544818 -6.00154073787e-06 0)
(1.49259256774 -4.64993838485e-06 0)
(1.49258252361 -3.46811820122e-06 0)
(1.49257484943 -2.46474619478e-06 0)
(1.49256909505 -1.62517932873e-06 0)
(1.49256485929 -9.27362267154e-07 0)
(1.49256180101 -3.49827433021e-07 0)
(1.49255964096 1.25086204533e-07 0)
(1.49255817227 5.28508885416e-07 0)
(1.49255720342 9.33341113781e-07 0)
(1.49255656311 1.29014058237e-06 0)
(1.49255614978 1.61249983366e-06 0)
(1.49255589234 1.92581042319e-06 0)
(1.49255573162 2.24325847637e-06 0)
(1.49255562066 2.57442155928e-06 0)
(1.49255552624 2.92424413824e-06 0)
(1.49255542423 3.29417436917e-06 0)
(1.49255529665 3.68244673074e-06 0)
(1.49255512937 4.08293356314e-06 0)
(1.49255491147 4.48522593141e-06 0)
(1.49255463596 4.87172422562e-06 0)
(1.49255429719 5.21359711237e-06 0)
(1.49255388751 5.46980546575e-06 0)
(1.4925533951 5.58298399018e-06 0)
(1.49255280018 5.47329064712e-06 0)
(1.49255207222 5.0290145364e-06 0)
(1.4925511831 4.08964830955e-06 0)
(1.49255003691 2.45059798215e-06 0)
(1.49254826469 5.33532686121e-08 0)
(1.49254540753 -3.43050386732e-06 0)
(1.49254101137 -8.88688586146e-06 0)
(1.49253415776 -1.70348381564e-05 0)
(1.49252319826 -2.88772213295e-05 0)
(1.49250552179 -4.59131536405e-05 0)
(1.49247688869 -7.02441114819e-05 0)
(1.49243042221 -0.000104890880977 0)
(1.49235524272 -0.000154277780711 0)
(1.49223394815 -0.000224440672236 0)
(1.4920382845 -0.000323939314212 0)
(1.49172189231 -0.0004659910559 0)
(1.4912128992 -0.000673752094721 0)
(1.49040054883 -0.000975109858872 0)
(1.48910946492 -0.00140477848572 0)
(1.48706801157 -0.00201215254166 0)
(1.48386793587 -0.00286020622542 0)
(1.47891307744 -0.00401894048546 0)
(1.47137070902 -0.00554663498393 0)
(1.46018761007 -0.00745064361693 0)
(1.44415671819 -0.00964455778087 0)
(1.42158032789 -0.0118877398689 0)
(0.99327046364 -0.00616839093055 0)
(1.03158097765 -0.0171003705301 0)
(1.08672175067 -0.0239897623303 0)
(1.15174558429 -0.0265602521182 0)
(1.21823544715 -0.0258180009587 0)
(1.27925785655 -0.0230491188801 0)
(1.33140150675 -0.019366054951 0)