/*--------------------------------*- C++ -*----------------------------------*\
| =========                 |                                                 |
| \\      /  F ield         | OpenFOAM: The Open Source CFD Toolbox           |
|  \\    /   O peration     | Version:  2106                                  |
|   \\  /    A nd           | Website:  www.openfoam.com                      |
|    \\/     M anipulation  |                                                 |
\*---------------------------------------------------------------------------*/
FoamFile
{
    version     2.0;
    format      ascii;
    arch        "LSB;label=32;scalar=64";
    class       volVectorField;
    location    "0.3";
    object      U;
}
// * * * * * * * * * * * * * * * * * * * * * * * * * * * * * * * * * * * * * //

dimensions      [0 1 -1 0 0 0 0];

internalField   nonuniform List<vector> 
11200
(
(0.662462406625 0.150569441348 0)
(0.558948685407 0.103243388079 0)
(0.383850761469 0.0513512243429 0)
(0.283747630758 0.0248708554261 0)
(0.232075316996 0.0124170453476 0)
(0.201908645202 0.00662281689662 0)
(0.183198002949 0.00380291444369 0)
(0.171276569699 0.00231587006206 0)
(0.163510397963 0.00146450652262 0)
(0.158388871203 0.000944892374094 0)
(0.155006741883 0.000615176853298 0)
(0.152786795693 0.000402233778184 0)
(0.151346653913 0.000264232222257 0)
(0.15042842492 0.000175250211787 0)
(0.149856828507 0.000118360820068 0)
(0.149512634921 8.21602487027e-05 0)
(0.149315081977 5.88663352501e-05 0)
(0.149209727502 4.33163842554e-05 0)
(0.149159875578 3.29354166828e-05 0)
(0.149142642147 2.81864661004e-05 0)
(0.149144802747 2.76843393876e-05 0)
(0.149157082316 2.98896975205e-05 0)
(0.149172707149 3.30500204826e-05 0)
(0.149188257251 3.59656278918e-05 0)
(0.149202468192 3.8601118729e-05 0)
(0.149214740061 4.10401713655e-05 0)
(0.149224905137 4.33174364104e-05 0)
(0.149233070143 4.54640501501e-05 0)
(0.149239471587 4.75192807558e-05 0)
(0.149244391321 4.95301979319e-05 0)
(0.14924811429 5.15589282305e-05 0)
(0.149250907927 5.36964629223e-05 0)
(0.149252969311 5.60252412506e-05 0)
(0.149254468548 5.84067386462e-05 0)
(0.149255538165 6.07678177511e-05 0)
(0.149256264639 6.30889135351e-05 0)
(0.149256744857 6.53803848886e-05 0)
(0.149257062517 6.76551535934e-05 0)
(0.149257271266 6.99247833801e-05 0)
(0.149257400271 7.21953663647e-05 0)
(0.149257470484 7.44679762622e-05 0)
(0.149257499183 7.6743606741e-05 0)
(0.149257498606 7.90219454025e-05 0)
(0.149257477633 8.13018220127e-05 0)
(0.149257442632 8.35815180036e-05 0)
(0.149257398361 8.58587452707e-05 0)
(0.149257348962 8.81307431613e-05 0)
(0.14925729857 9.03944881998e-05 0)
(0.14925725165 9.26468143742e-05 0)
(0.149257213348 9.48846487829e-05 0)
(0.149257190453 9.71048749496e-05 0)
(0.149257192731 9.93046954176e-05 0)
(0.149257233445 0.000101481089564 0)
(0.149257330664 0.000103630650293 0)
(0.14925751003 0.000105749019228 0)
(0.149257807919 0.000107830593479 0)
(0.149258275429 0.000109868357231 0)
(0.149258987528 0.000111852442957 0)
(0.149260053671 0.00011377028487 0)
(0.149261631938 0.000115597152438 0)
(0.149263968228 0.000117277376705 0)
(0.149267470475 0.000118726772067 0)
(0.149272608415 0.000119984915983 0)
(0.149280028419 0.000121244113315 0)
(0.149290762359 0.000122966261549 0)
(0.149306330596 0.000125337808561 0)
(0.149329118271 0.000128118697075 0)
(0.149362819992 0.000131081719201 0)
(0.149413028256 0.000134010934981 0)
(0.149487973506 0.000136792192858 0)
(0.149599594503 0.000140700674886 0)
(0.149770722045 0.000151557400493 0)
(0.150039126921 0.000172288725109 0)
(0.15046797673 0.000202550354644 0)
(0.151193082995 0.000232487538852 0)
(0.152492127222 0.000191683661863 0)
(0.155021340237 -0.000216826593024 0)
(0.162375270565 -0.00211051785632 0)
(0.187706326719 -0.0107905707328 0)
(0.204373885563 -0.0496700730186 0)
(0.965408257634 0.289214705099 0)
(0.961962872248 0.252656039964 0)
(0.823574415403 0.159021442495 0)
(0.698139401642 0.0959957323642 0)
(0.61022550528 0.0582481153965 0)
(0.548971541321 0.0362148544785 0)
(0.506588945989 0.0231612864457 0)
(0.477567332804 0.0151375166571 0)
(0.457745561756 0.010017756506 0)
(0.444228536546 0.00665814256183 0)
(0.435053380096 0.00441555769481 0)
(0.428873205351 0.00290686728286 0)
(0.424754294767 0.0018910598551 0)
(0.422046750661 0.00121004677591 0)
(0.420297919649 0.000757164854924 0)
(0.419193316978 0.000459257298906 0)
(0.418515718562 0.00026585622931 0)
(0.418116578676 0.000142401142889 0)
(0.417895982343 6.61110203451e-05 0)
(0.417786939021 2.30930247687e-05 0)
(0.41774553209 1.40782735908e-06 0)
(0.417742262858 -1.0162560004e-05 0)
(0.417756869619 -1.37140023863e-05 0)
(0.41777883735 -1.32674771856e-05 0)
(0.417803140909 -1.08352621923e-05 0)
(0.417826521076 -7.4921991702e-06 0)
(0.417847284426 -3.87586427539e-06 0)
(0.417864832108 -3.56351500444e-07 0)
(0.41787916787 2.86487234414e-06 0)
(0.417890607111 5.68390599362e-06 0)
(0.417899621599 8.03637741023e-06 0)
(0.417906704473 9.83790146523e-06 0)
(0.417912057715 1.10066034926e-05 0)
(0.417915915383 1.18591929976e-05 0)
(0.417918655157 1.26813868612e-05 0)
(0.417920552006 1.34383901036e-05 0)
(0.417921848284 1.41124427252e-05 0)
(0.417922735266 1.47278609272e-05 0)
(0.417923339128 1.53135234535e-05 0)
(0.41792373148 1.58829524571e-05 0)
(0.417923965089 1.64365188258e-05 0)
(0.417924083364 1.69793442757e-05 0)
(0.417924117001 1.75151169945e-05 0)
(0.417924088578 1.80471356751e-05 0)
(0.417924014455 1.85785432294e-05 0)
(0.417923906864 1.91117942278e-05 0)
(0.417923776383 1.96488799483e-05 0)
(0.417923633564 2.0191706581e-05 0)
(0.417923490028 2.07422629273e-05 0)
(0.41792335929 2.13025177425e-05 0)
(0.417923259309 2.18724493884e-05 0)
(0.417923215075 2.24524205484e-05 0)
(0.417923260318 2.30423354478e-05 0)
(0.417923441212 2.36417937012e-05 0)
(0.417923822786 2.42499535609e-05 0)
(0.417924497794 2.48659678948e-05 0)
(0.417925597437 2.54877758899e-05 0)
(0.417927314702 2.610328633e-05 0)
(0.417929927128 2.66952757193e-05 0)
(0.417933823744 2.72330331357e-05 0)
(0.417939604762 2.76678610467e-05 0)
(0.417948367288 2.79480929755e-05 0)
(0.417961600653 2.82336382989e-05 0)
(0.41798144101 2.77854910232e-05 0)
(0.418010655408 2.51907249314e-05 0)
(0.418052849742 1.93717315221e-05 0)
(0.418114206639 9.5229275349e-06 0)
(0.418204842599 -5.88697881182e-06 0)
(0.418340357865 -2.93817160357e-05 0)
(0.41854564555 -6.46426481704e-05 0)
(0.418862601339 -0.00011586424402 0)
(0.419360832054 -0.00018802113018 0)
(0.420153819624 -0.000307806564615 0)
(0.421445246009 -0.000532806174541 0)
(0.423626822837 -0.000999871736778 0)
(0.427417386382 -0.00209077492798 0)
(0.434239407032 -0.00485728910092 0)
(0.448268590423 -0.0122565977319 0)
(0.474654080673 -0.0342493284514 0)
(0.478189304921 -0.098793796673 0)
(1.02222096887 0.238416186746 0)
(1.08213754354 0.295926653407 0)
(1.03447725237 0.239503068033 0)
(0.954615445954 0.174290166494 0)
(0.879992102802 0.121345470679 0)
(0.818614492786 0.0830993865433 0)
(0.771410917533 0.0567316696549 0)
(0.736634467198 0.0387409711421 0)
(0.711624518662 0.0264327896521 0)
(0.69391671645 0.0179731073477 0)
(0.681541516356 0.0121424505922 0)
(0.673000233549 0.00812491083106 0)
(0.66718077811 0.00536632368555 0)
(0.663271817746 0.00348444742383 0)
(0.660688656061 0.00221256417486 0)
(0.659014341137 0.00136338437941 0)
(0.657954669457 0.000805246175618 0)
(0.657304385608 0.000445918724404 0)
(0.656921975935 0.000221070280902 0)
(0.656710419277 8.55827391996e-05 0)
(0.656603564206 8.35908874917e-06 0)
(0.656562024132 -3.37180350265e-05 0)
(0.656558131917 -5.68521516906e-05 0)
(0.656571615753 -6.68712128054e-05 0)
(0.656593153341 -6.84785959215e-05 0)
(0.656616981082 -6.55571252517e-05 0)
(0.656639791638 -6.05461748275e-05 0)
(0.656659978063 -5.48564279016e-05 0)
(0.656676955006 -4.92723383088e-05 0)
(0.656690700229 -4.42008665259e-05 0)
(0.656701460176 -3.98369615144e-05 0)
(0.65670961933 -3.62990453448e-05 0)
(0.656715873705 -3.36929101254e-05 0)
(0.656720913306 -3.185430242e-05 0)
(0.656724781102 -3.0808053291e-05 0)
(0.656727492277 -3.03011224046e-05 0)
(0.656729359057 -3.02458031794e-05 0)
(0.656730660819 -3.05567182231e-05 0)
(0.656731564781 -3.10842252478e-05 0)
(0.656732160875 -3.17460025235e-05 0)
(0.656732523498 -3.25125245415e-05 0)
(0.656732718007 -3.33487103483e-05 0)
(0.656732789553 -3.42300112877e-05 0)
(0.656732772178 -3.51372387632e-05 0)
(0.656732690685 -3.60549422734e-05 0)
(0.656732563681 -3.69722514429e-05 0)
(0.656732407347 -3.78815868993e-05 0)
(0.656732237688 -3.87774409536e-05 0)
(0.656732071822 -3.96553092052e-05 0)
(0.656731927834 -4.05096389763e-05 0)
(0.656731830243 -4.13370252977e-05 0)
(0.656731814833 -4.21333196171e-05 0)
(0.656731930387 -4.28968232767e-05 0)
(0.656732244866 -4.36306017172e-05 0)
(0.656732854954 -4.434774245e-05 0)
(0.656733897828 -4.50789811111e-05 0)
(0.65673556112 -4.58787858558e-05 0)
(0.656738121209 -4.68424532958e-05 0)
(0.656741986639 -4.80956341856e-05 0)
(0.656747754616 -4.98555201782e-05 0)
(0.656756353766 -5.26286407464e-05 0)
(0.65676943157 -5.74315599887e-05 0)
(0.656788314155 -6.50568627235e-05 0)
(0.65681444042 -7.63756712446e-05 0)
(0.656851640092 -9.30774923071e-05 0)
(0.656906620978 -0.000117562956336 0)
(0.656988766351 -0.000153033226792 0)
(0.657111865752 -0.000204774802782 0)
(0.657297733234 -0.000281308642313 0)
(0.657581763224 -0.000396512552307 0)
(0.658022090293 -0.000574741733079 0)
(0.658707924961 -0.000863271545655 0)
(0.659786348531 -0.00135219880696 0)
(0.661514954999 -0.0022146816995 0)
(0.664336022758 -0.00381334643415 0)
(0.668945525048 -0.00694717817461 0)
(0.676369752019 -0.0133552669723 0)
(0.688617264103 -0.0268497765792 0)
(0.705248232683 -0.0563340841084 0)
(0.700510525546 -0.113117828784 0)
(1.022514758 0.170807152523 0)
(1.10138977119 0.276496479469 0)
(1.11752428745 0.266664800867 0)
(1.0921466429 0.21990170107 0)
(1.05187820399 0.168168850007 0)
(1.0102082822 0.12356739922 0)
(0.973494757731 0.088837524189 0)
(0.943864631473 0.0630063742705 0)
(0.921142883252 0.0442232068808 0)
(0.904284164449 0.0307423955808 0)
(0.892074968681 0.0211562970092 0)
(0.883404618965 0.0143954714848 0)
(0.877352787791 0.00966795125681 0)
(0.873197834098 0.00639384032907 0)
(0.870393066787 0.00415116794713 0)
(0.868534187539 0.00263449386194 0)
(0.867327800165 0.00162402001252 0)
(0.866564406473 0.000962678231596 0)
(0.86609665849 0.000539124283047 0)
(0.865822425731 0.000275155330384 0)
(0.865671591743 0.000117070139216 0)
(0.865595351151 2.87940273316e-05 0)
(0.865564302815 -1.93230037484e-05 0)
(0.86556150433 -4.12592033342e-05 0)
(0.865572858054 -4.76632044521e-05 0)
(0.865589874288 -4.5522522103e-05 0)
(0.865608193963 -3.91529941074e-05 0)
(0.865625543069 -3.11421283733e-05 0)
(0.865640837699 -2.2961010949e-05 0)
(0.865653710764 -1.53772622317e-05 0)
(0.865664193825 -8.71950931308e-06 0)
(0.865672490266 -3.04042692826e-06 0)
(0.865678852281 1.73814621977e-06 0)
(0.865683487563 5.46911208696e-06 0)
(0.865686814261 8.03573267234e-06 0)
(0.865689219349 9.79262205268e-06 0)
(0.865690857564 1.11464976905e-05 0)
(0.865692025279 1.22914866371e-05 0)
(0.865692897903 1.32603723795e-05 0)
(0.865693494029 1.41467570924e-05 0)
(0.865693861935 1.49418037251e-05 0)
(0.865694066129 1.56681815216e-05 0)
(0.865694145407 1.63415305333e-05 0)
(0.865694131292 1.69782323692e-05 0)
(0.865694046268 1.75930096106e-05 0)
(0.865693906623 1.81962111417e-05 0)
(0.865693727507 1.87954421594e-05 0)
(0.865693525449 1.93971279195e-05 0)
(0.865693321098 2.00094076326e-05 0)
(0.865693137435 2.0640332665e-05 0)
(0.865693004801 2.12757320976e-05 0)
(0.86569296501 2.19030643561e-05 0)
(0.865693071423 2.25057968646e-05 0)
(0.865693394108 2.30579138876e-05 0)
(0.865694026651 2.35224419243e-05 0)
(0.865695101292 2.38617378415e-05 0)
(0.865696801247 2.40418093612e-05 0)
(0.865699415638 2.39425964828e-05 0)
(0.865703350751 2.34144326408e-05 0)
(0.865709026139 2.20489122575e-05 0)
(0.865716892274 1.9273027849e-05 0)
(0.865728574503 1.44019471766e-05 0)
(0.865746669691 5.60196619663e-06 0)
(0.865774137627 -8.73285061155e-06 0)
(0.865814852279 -3.05991185481e-05 0)
(0.865874728946 -6.39466450656e-05 0)
(0.865963101008 -0.000115649916421 0)
(0.86609447623 -0.000196470853532 0)
(0.866291399492 -0.000323670183892 0)
(0.866588686089 -0.00052572576704 0)
(0.867039938461 -0.000851591521788 0)
(0.867730226117 -0.00138821737283 0)
(0.868795910733 -0.00228440373271 0)
(0.870450275784 -0.00381479780463 0)
(0.873012272092 -0.0065037745348 0)
(0.876880915033 -0.0113610116273 0)
(0.882378906322 -0.020256154432 0)
(0.889689722398 -0.0364610819276 0)
(0.896368550825 -0.0655101013417 0)
(0.886544335339 -0.110080448751 0)
(1.01287875414 0.118961023718 0)
(1.08820672079 0.231806938024 0)
(1.13741369582 0.253106766444 0)
(1.15409090238 0.228992755906 0)
(1.14994215398 0.188368361674 0)
(1.13538470941 0.14657984713 0)
(1.11758901211 0.110150968986 0)
(1.10059507527 0.0808162254609 0)
(1.08612465354 0.0582265797387 0)
(1.0745910159 0.0413189882865 0)
(1.06579156722 0.0289160234664 0)
(1.05928809873 0.019960103214 0)
(1.05459988305 0.0135815633817 0)
(1.05129089455 0.00909744647023 0)
(1.04899998652 0.00598615724683 0)
(1.04744355322 0.00385696962888 0)
(1.04640668974 0.00242160101249 0)
(1.04573078446 0.00147015306355 0)
(1.04530123908 0.000851704758317 0)
(1.04503675194 0.000459019148283 0)
(1.0448803995 0.000216759746513 0)
(1.0447927934 7.30206413472e-05 0)
(1.04474893856 -5.50125056197e-06 0)
(1.04473204964 -4.40052969274e-05 0)
(1.04472980941 -5.93822594168e-05 0)
(1.04473530386 -6.17157846603e-05 0)
(1.04474426217 -5.72421296825e-05 0)
(1.04475415636 -4.98002336513e-05 0)
(1.04476360671 -4.16411798351e-05 0)
(1.04477194299 -3.39859553439e-05 0)
(1.04477891478 -2.74208562055e-05 0)
(1.04478450941 -2.21493386424e-05 0)
(1.04478887294 -1.8126288037e-05 0)
(1.04479221645 -1.51376589241e-05 0)
(1.0447947947 -1.28060934832e-05 0)
(1.0447969012 -1.1009488169e-05 0)
(1.04479864685 -9.52007267031e-06 0)
(1.04479997691 -8.23030468395e-06 0)
(1.04480096179 -7.21152178704e-06 0)
(1.04480165248 -6.5429812361e-06 0)
(1.04480207081 -6.16378484928e-06 0)
(1.04480230378 -5.95548927019e-06 0)
(1.04480239687 -5.8674002996e-06 0)
(1.04480238854 -5.84997345141e-06 0)
(1.04480230388 -5.86288802114e-06 0)
(1.04480216073 -5.88640851235e-06 0)
(1.04480197677 -5.91092864625e-06 0)
(1.0448017733 -5.93281017016e-06 0)
(1.04480157437 -5.95642051084e-06 0)
(1.04480138646 -5.99202143161e-06 0)
(1.04480122645 -6.02322392418e-06 0)
(1.04480113949 -6.04840540053e-06 0)
(1.04480117968 -6.07407553656e-06 0)
(1.04480142129 -6.11500951813e-06 0)
(1.04480198408 -6.20829158451e-06 0)
(1.04480305477 -6.463004169e-06 0)
(1.0448048202 -7.14386071259e-06 0)
(1.04480756282 -8.52838757531e-06 0)
(1.044811599 -1.11052937857e-05 0)
(1.04481739603 -1.4929440675e-05 0)
(1.04482597433 -1.98734020977e-05 0)
(1.04483848398 -2.60871928469e-05 0)
(1.04485619807 -3.58649723236e-05 0)
(1.04488142301 -5.21860046229e-05 0)
(1.04491762759 -7.92703643546e-05 0)
(1.0449699595 -0.000123364603546 0)
(1.04504601778 -0.000194239071869 0)
(1.04515714488 -0.000307472561618 0)
(1.04532048009 -0.000488231640766 0)
(1.04556187901 -0.000777545121868 0)
(1.04592001536 -0.00124274385954 0)
(1.04645274067 -0.00199548937154 0)
(1.04724416836 -0.0032263637533 0)
(1.0484072523 -0.00526623112771 0)
(1.05006933417 -0.00869209653982 0)
(1.05228713972 -0.0144980072481 0)
(1.05481678045 -0.0242915812413 0)
(1.05686878804 -0.0403838634644 0)
(1.0557373684 -0.0656162141341 0)
(1.04212434223 -0.0994950151845 0)
(1.00447483756 0.0814039980111 0)
(1.06917238553 0.181288540142 0)
(1.13080571061 0.216950420445 0)
(1.17375003812 0.210789157569 0)
(1.19865269678 0.183690079182 0)
(1.21019993551 0.149751685863 0)
(1.2135026234 0.116779146737 0)
(1.21251731653 0.0882206805243 0)
(1.20973106893 0.0650481534791 0)
(1.20651129189 0.0470209113254 0)
(1.20351923849 0.0334068108514 0)
(1.20101156719 0.0233557348307 0)
(1.19903457658 0.0160720161666 0)
(1.19753891493 0.0108795160895 0)
(1.19644146014 0.00723419046137 0)
(1.19565574119 0.00471352089858 0)
(1.19510505531 0.00299763153541 0)
(1.19472665238 0.00184916335861 0)
(1.19447168157 0.0010949630121 0)
(1.19430338155 0.000610614083642 0)
(1.1941947526 0.000307989462882 0)
(1.19412647824 0.000125771608471 0)
(1.19408543864 2.22265467156e-05 0)
(1.19406218979 -3.24482884937e-05 0)
(1.19404989917 -5.72667591314e-05 0)
(1.1940444099 -6.45923230658e-05 0)
(1.19404292119 -6.23703262468e-05 0)
(1.19404361457 -5.55156913081e-05 0)
(1.19404537431 -4.69387923597e-05 0)
(1.19404754218 -3.82530493548e-05 0)
(1.19404974578 -3.02594990811e-05 0)
(1.19405179302 -2.32630211963e-05 0)
(1.19405361479 -1.7287109691e-05 0)
(1.19405520546 -1.22582430923e-05 0)
(1.19405658115 -8.07001692766e-06 0)
(1.19405776092 -4.66851186271e-06 0)
(1.19405871702 -2.05774713874e-06 0)
(1.19405939606 -1.68642453401e-07 0)
(1.19405975784 1.1484104938e-06 0)
(1.19405987829 2.00422160003e-06 0)
(1.19405993849 2.68236278375e-06 0)
(1.19405997491 3.28480370521e-06 0)
(1.19405996146 3.81134607048e-06 0)
(1.19405991482 4.27135346403e-06 0)
(1.19405983069 4.67653297663e-06 0)
(1.1940597 5.04356017514e-06 0)
(1.19405952534 5.38445066394e-06 0)
(1.19405931333 5.70184607617e-06 0)
(1.19405907548 5.98648762498e-06 0)
(1.19405885409 6.22498437848e-06 0)
(1.19405869391 6.4405316727e-06 0)
(1.19405862473 6.62581634004e-06 0)
(1.19405869565 6.75433027055e-06 0)
(1.19405896538 6.78541294487e-06 0)
(1.19405947115 6.65995914242e-06 0)
(1.19406018915 6.28826475144e-06 0)
(1.19406120275 5.51407171671e-06 0)
(1.19406267023 3.96521555751e-06 0)
(1.19406525014 1.21777854556e-06 0)
(1.19406997562 -3.01348736029e-06 0)
(1.19407739769 -9.50400296727e-06 0)
(1.1940874441 -1.96429856016e-05 0)
(1.19410086892 -3.54405174897e-05 0)
(1.19411966154 -5.98118466539e-05 0)
(1.19414594919 -9.73384614364e-05 0)
(1.19418255022 -0.000155335787131 0)
(1.19423345137 -0.000245450580388 0)
(1.19430428092 -0.000386163004022 0)
(1.19440291621 -0.000606934720609 0)
(1.19454012573 -0.000955109869385 0)
(1.1947299475 -0.00150722298072 0)
(1.19498914805 -0.00238758674329 0)
(1.19533252941 -0.00379948936693 0)
(1.19575733498 -0.00607598190386 0)
(1.19620322201 -0.00975612158896 0)
(1.1964504396 -0.0156840984728 0)
(1.19591210773 -0.025071468801 0)
(1.19343351071 -0.0393749981032 0)
(1.1866790317 -0.0598394523996 0)
(1.17012884883 -0.0851572736246 0)
(0.998962328428 0.0544316259798 0)
(1.05310958037 0.13340160892 0)
(1.11628270542 0.17077755984 0)
(1.17301275305 0.17514387385 0)
(1.21791250656 0.159583608348 0)
(1.2504986335 0.134951022328 0)
(1.27288497635 0.108411659202 0)
(1.28776729635 0.0838849742905 0)
(1.29745276499 0.0630565748529 0)
(1.3036608454 0.0462999238854 0)
(1.30759244856 0.0333205173312 0)
(1.31005381671 0.0235495265979 0)
(1.31157375121 0.0163599103981 0)
(1.31249506468 0.0111713177732 0)
(1.31303876863 0.00749150923216 0)
(1.31334687139 0.00492448824156 0)
(1.31351029669 0.0031629572844 0)
(1.31358693823 0.00197475359654 0)
(1.31361332645 0.0011881983213 0)
(1.31361218913 0.000678630497961 0)
(1.31359736401 0.000357009588737 0)
(1.31357705559 0.000160755352007 0)
(1.31355607407 4.64708160862e-05 0)
(1.31353679141 -1.58673585341e-05 0)
(1.3135201462 -4.60555770877e-05 0)
(1.31350647023 -5.70653212947e-05 0)
(1.31349557847 -5.73197943549e-05 0)
(1.31348713375 -5.20811441576e-05 0)
(1.31348074783 -4.45187459849e-05 0)
(1.31347603546 -3.64569636575e-05 0)
(1.3134726456 -2.88688884398e-05 0)
(1.31347027521 -2.22079024971e-05 0)
(1.31346866464 -1.66254154204e-05 0)
(1.31346758558 -1.21289215245e-05 0)
(1.31346687249 -8.65270771222e-06 0)
(1.3134664279 -6.09524782434e-06 0)
(1.3134661505 -4.31937874972e-06 0)
(1.31346595088 -3.11752965868e-06 0)
(1.31346582665 -2.26014654529e-06 0)
(1.31346586349 -1.5432153984e-06 0)
(1.31346602355 -9.67447772914e-07 0)
(1.31346612889 -5.54555150729e-07 0)
(1.31346612883 -1.9526791991e-07 0)
(1.31346605541 1.40220068501e-07 0)
(1.31346593003 4.4994880403e-07 0)
(1.31346576529 7.42406445851e-07 0)
(1.31346556446 1.02949273778e-06 0)
(1.31346533012 1.32187406242e-06 0)
(1.31346507317 1.63050675772e-06 0)
(1.31346482732 1.95609812919e-06 0)
(1.31346461477 2.24889245443e-06 0)
(1.31346444324 2.47098147058e-06 0)
(1.31346434349 2.57824484285e-06 0)
(1.31346436839 2.50697861449e-06 0)
(1.31346460506 2.17082339513e-06 0)
(1.31346517264 1.48024689424e-06 0)
(1.31346604745 3.85212073279e-07 0)
(1.31346731187 -1.300679732e-06 0)
(1.31346938944 -3.79373294428e-06 0)
(1.31347250291 -7.82133714069e-06 0)
(1.31347685079 -1.46719639601e-05 0)
(1.31348266573 -2.59233577995e-05 0)
(1.31349022118 -4.31657142567e-05 0)
(1.31350000245 -6.95696036361e-05 0)
(1.31351232686 -0.000110162388394 0)
(1.31352727441 -0.00017268891586 0)
(1.31354446167 -0.000269232037311 0)
(1.31356257527 -0.000418744729705 0)
(1.3135784188 -0.000651041740129 0)
(1.31358507694 -0.00101334964495 0)
(1.3135684905 -0.00158068762974 0)
(1.31350122082 -0.00247211238069 0)
(1.31332902595 -0.00387490148097 0)
(1.3129443144 -0.00608149093921 0)
(1.3121370702 -0.00953649878724 0)
(1.31050191036 -0.0148816927167 0)
(1.30728542027 -0.0229457359629 0)
(1.30127783205 -0.0345696753218 0)
(1.29061104097 -0.0501919673579 0)
(1.271812255 -0.0685875396694 0)
(0.995736076915 0.0346338606391 0)
(1.04179515641 0.0905689223641 0)
(1.10222841235 0.121549566415 0)
(1.16491415323 0.129605835722 0)
(1.22202571178 0.122009270254 0)
(1.26951898026 0.106019940416 0)
(1.30680230916 0.0870975582125 0)
(1.3349954363 0.0686366834285 0)
(1.35574486882 0.0523698414631 0)
(1.37069627339 0.0389256203818 0)
(1.3812828726 0.0282980757701 0)
(1.38866280577 0.0201712794829 0)
(1.39373047329 0.0141175126358 0)
(1.39715675848 0.00970533812185 0)
(1.39943451114 0.00655059720911 0)
(1.40091984421 0.00433445640075 0)
(1.40186640191 0.00280414644313 0)
(1.4024524341 0.00176574445418 0)
(1.40280154368 0.00107419636199 0)
(1.40299825282 0.000623236246697 0)
(1.40309948672 0.000336410525393 0)
(1.40314295296 0.000159624625844 0)
(1.40315322656 5.51659414911e-05 0)
(1.40314575065 -2.99609132303e-06 0)
(1.40313000428 -3.21201097363e-05 0)
(1.40311161537 -4.38872821611e-05 0)
(1.40309359083 -4.57572196382e-05 0)
(1.40307745518 -4.24150769638e-05 0)
(1.40306380995 -3.67243122043e-05 0)
(1.40305272875 -3.0361652025e-05 0)
(1.40304400984 -2.42417056355e-05 0)
(1.40303732787 -1.88116010892e-05 0)
(1.40303232146 -1.42397251046e-05 0)
(1.40302864058 -1.05282072601e-05 0)
(1.40302598722 -7.57641861995e-06 0)
(1.40302412905 -5.25955982487e-06 0)
(1.40302288947 -3.45488404591e-06 0)
(1.40302211782 -2.01870836866e-06 0)
(1.40302164856 -8.46348182003e-07 0)
(1.40302128695 8.52232464347e-08 0)
(1.40302096542 7.94260399442e-07 0)
(1.4030207661 1.28369148563e-06 0)
(1.40302067629 1.65542637101e-06 0)
(1.40302060379 1.97483445214e-06 0)
(1.40302051402 2.27947722116e-06 0)
(1.40302040013 2.58737697938e-06 0)
(1.40302026068 2.90774272801e-06 0)
(1.40302009781 3.24535454446e-06 0)
(1.40301991282 3.60094068657e-06 0)
(1.4030196986 3.96425253559e-06 0)
(1.40301946721 4.29390858257e-06 0)
(1.40301925261 4.55841382332e-06 0)
(1.40301908321 4.71958207049e-06 0)
(1.40301898428 4.719996918e-06 0)
(1.40301897342 4.47153157977e-06 0)
(1.40301905595 3.83188103097e-06 0)
(1.40301923366 2.59698230389e-06 0)
(1.40301952163 6.45996634428e-07 0)
(1.40302013761 -2.41566046252e-06 0)
(1.40302124447 -7.38283553496e-06 0)
(1.40302271778 -1.50460668679e-05 0)
(1.40302422618 -2.67245923882e-05 0)
(1.40302528936 -4.42676390098e-05 0)
(1.40302516201 -7.06564056923e-05 0)
(1.40302235259 -0.000110477475296 0)
(1.40301411724 -0.000170756994487 0)
(1.40299564738 -0.000262370181092 0)
(1.40295875543 -0.000402181677789 0)
(1.40288949058 -0.000616244752896 0)
(1.40276411667 -0.000945174850508 0)
(1.40254259194 -0.00145232156831 0)
(1.40215855289 -0.00223611125781 0)
(1.40150039575 -0.00344561949443 0)
(1.40037969507 -0.0053046579524 0)
(1.39848305424 -0.00813617918331 0)
(1.39529713877 -0.0123752268735 0)
(1.39000855749 -0.0185331641087 0)
(1.38146864966 -0.0270483602607 0)
(1.36818051887 -0.0380035151255 0)
(1.34775069562 -0.0505076101226 0)
(0.994011534077 0.0192358070097 0)
(1.03484764833 0.0523338412331 0)
(1.09199265153 0.0723631284235 0)
(1.15662423543 0.0791292331475 0)
(1.22032121037 0.0761045476285 0)
(1.27701951124 0.0673339729546 0)
(1.32424425922 0.056150905207 0)
(1.3618158179 0.0447990128805 0)
(1.39068540146 0.0345303796421 0)
(1.41226085497 0.0258814346173 0)
(1.42801833763 0.0189465262121 0)
(1.43929896758 0.0135849842888 0)
(1.44722821157 0.00955653637848 0)
(1.45270427814 0.0066001173355 0)
(1.4564191143 0.00447419195959 0)
(1.45889161161 0.002973515002 0)
(1.46050248849 0.00193277009975 0)
(1.46152589791 0.00122369516427 0)
(1.4621559266 0.000749551971185 0)
(1.46252776459 0.000439019314542 0)
(1.46273405513 0.000240522924554 0)
(1.46283721139 0.000117413967428 0)
(1.46287852733 4.40516955156e-05 0)
(1.46288477967 2.69336185469e-06 0)
(1.46287266831 -1.84415888138e-05 0)
(1.46285232981 -2.74352349991e-05 0)
(1.46282979121 -2.94349476342e-05 0)
(1.4628082653 -2.76848783519e-05 0)
(1.46278927991 -2.41828572016e-05 0)
(1.46277337935 -2.01100664849e-05 0)
(1.46276055482 -1.61151273599e-05 0)
(1.46275051199 -1.25208400473e-05 0)
(1.46274284014 -9.45381737592e-06 0)
(1.46273710691 -6.92493702955e-06 0)
(1.46273291355 -4.88048644011e-06 0)
(1.46272991761 -3.25116086455e-06 0)
(1.46272783067 -1.97396256587e-06 0)
(1.46272639582 -1.00780882613e-06 0)
(1.46272540143 -3.07621314026e-07 0)
(1.46272478298 2.14618406247e-07 0)
(1.46272442726 6.96436974087e-07 0)
(1.46272418478 1.17293596185e-06 0)
(1.4627240233 1.59798658682e-06 0)
(1.46272390353 1.97847244039e-06 0)
(1.46272379598 2.33557148235e-06 0)
(1.46272368162 2.68276792635e-06 0)
(1.46272354705 3.02541418417e-06 0)
(1.46272338378 3.36161335577e-06 0)
(1.46272318748 3.68181159342e-06 0)
(1.46272295573 3.97356729843e-06 0)
(1.46272269196 4.22901262066e-06 0)
(1.46272240425 4.41669299652e-06 0)
(1.46272209992 4.48579351316e-06 0)
(1.46272178863 4.36636748112e-06 0)
(1.46272148558 3.96755760941e-06 0)
(1.46272121222 3.17898849007e-06 0)
(1.46272094947 1.87960368988e-06 0)
(1.46272060185 -3.98052025122e-08 0)
(1.46272001675 -2.84057692648e-06 0)
(1.46271906323 -7.36908333696e-06 0)
(1.46271747976 -1.44122334998e-05 0)
(1.46271458602 -2.5066010283e-05 0)
(1.46270925946 -4.08724798945e-05 0)
(1.46269969003 -6.42098067143e-05 0)
(1.46268281368 -9.86757375334e-05 0)
(1.46265348294 -0.000149655597409 0)
(1.4626031872 -0.000225336750332 0)
(1.46251816739 -0.000338172781855 0)
(1.46237593805 -0.000506757949396 0)
(1.46213961893 -0.000759514891757 0)
(1.46174923599 -0.00114023676514 0)
(1.46111017068 -0.00171653918819 0)
(1.4600712095 -0.0025841504275 0)
(1.45839123038 -0.00388268994465 0)
(1.45569612112 -0.00580464415419 0)
(1.45142018161 -0.00859328824133 0)
(1.44474255093 -0.0125090302572 0)
(1.43459341425 -0.0177327004749 0)
(1.41971216544 -0.0242130973888 0)
(1.39825117869 -0.0314049233914 0)
(0.993269670033 0.00617015108861 0)
(1.03158101229 0.0171020466947 0)
(1.08672184252 0.0239906493929 0)
(1.15174557982 0.0265606668298 0)
(1.21823540931 0.0258180601063 0)
(1.27925779916 0.0230488876442 0)
(1.33140142875 0.0193656331938 0)
(1.37377606788 0.0155468598618 0)
(1.40691062603 0.0120449322274 0)
(1.43203323776 0.00906640181374 0)
(1.45060226358 0.00666059685238 0)
(1.46402998326 0.00479009356295 0)
(1.47355029662 0.00337843040861 0)
(1.48017578091 0.00233874025684 0)
(1.48470244642 0.00158891613014 0)
(1.48773637537 0.00105829116585 0)
(1.48972752612 0.000689465073114 0)
(1.49100296971 0.000437640767892 0)
(1.49179606377 0.000268888209494 0)
(1.49227044877 0.000158113747244 0)
(1.49253895539 8.71275270591e-05 0)
(1.49267804668 4.29780016234e-05 0)
(1.49273859488 1.65882604365e-05 0)
(1.49275378333 1.66791160358e-06 0)
(1.49274456063 -6.06472037142e-06 0)
(1.4927237864 -9.40976258534e-06 0)
(1.4926991557 -1.02157188363e-05 0)
(1.49267489651 -9.65221712343e-06 0)
(1.49265310629 -8.43810647573e-06 0)
(1.49263462644 -6.99130019048e-06 0)
(1.49261957964 -5.55191365438e-06 0)
(1.49260770369 -4.24005697216e-06 0)
(1.49259856889 -3.1032249303e-06 0)
(1.49259169961 -2.14762842167e-06 0)
(1.49258664176 -1.35716585239e-06 0)
(1.49258299502 -7.10101266685e-07 0)
(1.4925804236 -1.84932555029e-07 0)
(1.49257865763 2.40328818704e-07 0)
(1.4925774914 6.11989659306e-07 0)
(1.49257674726 9.81523424753e-07 0)
(1.49257627152 1.2870693236e-06 0)
(1.49257597229 1.57214071189e-06 0)
(1.49257579219 1.85414310971e-06 0)
(1.49257567865 2.14335752734e-06 0)
(1.4925755925 2.44697823556e-06 0)
(1.49257550738 2.76779593548e-06 0)
(1.49257540483 3.10517631707e-06 0)
(1.49257527159 3.45505236817e-06 0)
(1.49257509768 3.80883913784e-06 0)
(1.49257487472 4.15239283548e-06 0)
(1.49257459733 4.46586127006e-06 0)
(1.49257426201 4.7172006463e-06 0)
(1.49257386257 4.86163311712e-06 0)
(1.49257338741 4.83812604005e-06 0)
(1.49257281558 4.56289654313e-06 0)
(1.49257211948 3.91959557719e-06 0)
(1.49257128617 2.7569423583e-06 0)
(1.4925701833 9.73288952749e-07 0)
(1.49256838696 -1.65336133116e-06 0)
(1.49256559316 -5.73376490484e-06 0)
(1.49256141569 -1.18145372326e-05 0)
(1.49255483212 -2.06636278053e-05 0)
(1.49254422614 -3.33652039372e-05 0)
(1.49252705178 -5.14693916378e-05 0)
(1.4924991954 -7.71707692495e-05 0)
(1.49245394441 -0.000113482026255 0)
(1.49238042748 -0.000164791757505 0)
(1.49226158748 -0.00023755802994 0)
(1.49207002557 -0.000340252330894 0)
(1.49176105546 -0.000485449083331 0)
(1.49126240863 -0.000693478145221 0)
(1.49046536877 -0.000997877961336 0)
(1.48920036181 -0.0014309326451 0)
(1.48720131885 -0.00204025178424 0)
(1.4840695777 -0.00288723392405 0)
(1.47922493433 -0.00403938950961 0)
(1.47185992952 -0.00555104762735 0)
(1.46096009503 -0.00742381504158 0)
(1.44537677354 -0.00956382485195 0)
(1.42349827862 -0.011722785183 0)
(0.993270467829 -0.00616840117188 0)
(1.03158099483 -0.017100375585 0)
(1.0867217761 -0.0239897613608 0)
(1.15174561736 -0.026560246431 0)
(1.218235487 -0.0258179924553 0)
(1.27925790097 -0.0230491092578 0)