/*--------------------------------*- C++ -*----------------------------------*\
| =========                 |                                                 |
| \\      /  F ield         | OpenFOAM: The Open Source CFD Toolbox           |
|  \\    /   O peration     | Version:  2106                                  |
|   \\  /    A nd           | Website:  www.openfoam.com                      |
|    \\/     M anipulation  |                                                 |
\*---------------------------------------------------------------------------*/
FoamFile
{
    version     2.0;
    format      ascii;
    arch        "LSB;label=32;scalar=64";
    class       volVectorField;
    location    "0.03";
    object      U;
}
// * * * * * * * * * * * * * * * * * * * * * * * * * * * * * * * * * * * * * //

dimensions      [0 1 -1 0 0 0 0];

internalField   nonuniform List<vector> 
9600
(
(0.675377821953 0.157693650987 0)
(0.563782820284 0.102441089274 0)
(0.381535960105 0.0510578083636 0)
(0.284004073679 0.0244248855663 0)
(0.232737983392 0.0118627795745 0)
(0.202853425729 0.00611293933758 0)
(0.184802746007 0.00335874106578 0)
(0.173742085711 0.00191901926873 0)
(0.16694518432 0.00110078786036 0)
(0.162838777952 0.000611090116768 0)
(0.160451056874 0.000314445290736 0)
(0.159146639248 0.000138820666772 0)
(0.158502979067 4.0370253536e-05 0)
(0.158242298191 -9.86175254932e-06 0)
(0.158187159317 -3.13163533453e-05 0)
(0.158230271291 -3.59293578467e-05 0)
(0.158310297354 -3.31499015685e-05 0)
(0.158394676952 -2.73993333636e-05 0)
(0.158468982072 -2.11066766118e-05 0)
(0.158528491618 -1.54780593096e-05 0)
(0.158573342075 -1.09388738508e-05 0)
(0.158605719835 -7.5086286267e-06 0)
(0.158628339851 -5.03369217682e-06 0)
(0.158643733624 -3.30887858296e-06 0)
(0.158653983729 -2.13930280661e-06 0)
(0.158660680216 -1.36500541741e-06 0)
(0.158664979522 -8.63277401586e-07 0)
(0.158667694947 -5.44116144224e-07 0)
(0.158669382434 -3.44826211706e-07 0)
(0.158670412983 -2.22959032752e-07 0)
(0.15867103062 -1.49468783477e-07 0)
(0.158671393701 -1.05102406745e-07 0)
(0.158671602554 -7.79097350872e-08 0)
(0.158671719422 -6.06245950717e-08 0)
(0.158671782677 -4.90390702608e-08 0)
(0.158671815494 -4.17174573011e-08 0)
(0.158671830575 -3.90989429548e-08 0)
(0.158671834713 -3.9960853193e-08 0)
(0.158671832769 -4.24505917321e-08 0)
(0.158671828397 -4.61693771876e-08 0)
(0.158671823515 -5.08561803951e-08 0)
(0.158671818773 -5.61118698655e-08 0)
(0.15867181436 -6.16536264747e-08 0)
(0.158671810482 -6.72641376624e-08 0)
(0.158671807065 -7.29843466686e-08 0)
(0.158671803671 -7.90392362379e-08 0)
(0.158671799792 -8.56664966381e-08 0)
(0.158671795234 -9.29857287631e-08 0)
(0.158671790343 -1.00904348331e-07 0)
(0.158671785721 -1.09216373695e-07 0)
(0.158671781564 -1.17940569348e-07 0)
(0.158671777422 -1.27333838438e-07 0)
(0.158671772769 -1.37589491772e-07 0)
(0.158671767656 -1.4863668378e-07 0)
(0.158671762643 -1.60307400976e-07 0)
(0.158671758175 -1.72607707328e-07 0)
(0.158671754208 -1.85745582525e-07 0)
(0.158671750441 -1.99925990258e-07 0)
(0.158671746739 -2.15183942193e-07 0)
(0.158671743215 -2.31421800281e-07 0)
(0.158671739895 -2.48606788868e-07 0)
(0.15867173643 -2.66893612166e-07 0)
(0.158671732273 -2.865227753e-07 0)
(0.158671727196 -3.07601290311e-07 0)
(0.158671721588 -3.30032606888e-07 0)
(0.158671716177 -3.53656783405e-07 0)
(0.158671711475 -3.78449805306e-07 0)
(0.158671707426 -4.04555500973e-07 0)
(0.158671703493 -4.32194146317e-07 0)
(0.158671699035 -4.61559014584e-07 0)
(0.158671693667 -4.9275569748e-07 0)
(0.158671687419 -5.25806034271e-07 0)
(0.15867168072 -5.60687319827e-07 0)
(0.158671674228 -5.9737472709e-07 0)
(0.158671668564 -6.35861205482e-07 0)
(0.158671663996 -6.76178666419e-07 0)
(0.158671660197 -7.18458309153e-07 0)
(0.158671656288 -7.62963892438e-07 0)
(0.158671651343 -8.09993946928e-07 0)
(0.158671645105 -8.59676995992e-07 0)
(0.158671638315 -9.11860227528e-07 0)
(0.158671632207 -9.66261212846e-07 0)
(0.158671627491 -1.02276947608e-06 0)
(0.158671623718 -1.08160874762e-06 0)
(0.158671619645 -1.14321183638e-06 0)
(0.158671614266 -1.20792984167e-06 0)
(0.158671607621 -1.27581742753e-06 0)
(0.158671600712 -1.34663979265e-06 0)
(0.158671594573 -1.42010579819e-06 0)
(0.158671589278 -1.49617449976e-06 0)
(0.15867158377 -1.57517654574e-06 0)
(0.158671576826 -1.6575592877e-06 0)
(0.158671568453 -1.74341944368e-06 0)
(0.158671560343 -1.83228967891e-06 0)
(0.15867155469 -1.92353180679e-06 0)
(0.158671552284 -2.01703763293e-06 0)
(0.158671551848 -2.11345866741e-06 0)
(0.15867155152 -2.21357566342e-06 0)
(0.158671551106 -2.31744269894e-06 0)
(0.158671552738 -2.42423171592e-06 0)
(0.158671559227 -2.53293754163e-06 0)
(0.158671571888 -2.64307951862e-06 0)
(0.158671590278 -2.75470041164e-06 0)
(0.158671614251 -2.8681271156e-06 0)
(0.158671645245 -2.98337451729e-06 0)
(0.158671686069 -3.10020054016e-06 0)
(0.158671739956 -3.21836453161e-06 0)
(0.15867180951 -3.33820785908e-06 0)
(0.158671897226 -3.46047644607e-06 0)
(0.158672007188 -3.58581969058e-06 0)
(0.158672145768 -3.71535868889e-06 0)
(0.15867232028 -3.85334860201e-06 0)
(0.158672540382 -4.00901633691e-06 0)
(0.158672818415 -4.18074253159e-06 0)
(0.158673168469 -4.36473451274e-06 0)
(0.158673608124 -4.55973005815e-06 0)
(0.158674158408 -4.76664168472e-06 0)
(0.158674844899 -4.98733073042e-06 0)
(0.158675701523 -5.2232675905e-06 0)
(0.158676773126 -5.47537520308e-06 0)
(0.15867811507 -5.74532475265e-06 0)
(0.158679793109 -6.03700923953e-06 0)
(0.158681888431 -6.35660521654e-06 0)
(0.158684510611 -6.71507085482e-06 0)
(0.158687816263 -7.14712775392e-06 0)
(0.158691974833 -7.74951903161e-06 0)
(0.158697147512 -8.57374464308e-06 0)
(0.158703575982 -9.56336215075e-06 0)
(0.158711604088 -1.06933963496e-05 0)
(0.158721648374 -1.19682885919e-05 0)
(0.15873421859 -1.3408468037e-05 0)
(0.158749949128 -1.50434362262e-05 0)
(0.158769637744 -1.69081709158e-05 0)
(0.158794286836 -1.90462995861e-05 0)
(0.158825151501 -2.15165299717e-05 0)
(0.158863807684 -2.43946257529e-05 0)
(0.158912242171 -2.77737155776e-05 0)
(0.158972957092 -3.17712165324e-05 0)
(0.159049098821 -3.65400364936e-05 0)
(0.159144635867 -4.22771446815e-05 0)
(0.15926459426 -4.92343822607e-05 0)
(0.159415347446 -5.77389759789e-05 0)
(0.15960498637 -6.82163109175e-05 0)
(0.159843823186 -8.12115418497e-05 0)
(0.160145068597 -9.74316430773e-05 0)
(0.160525725625 -0.000117816368192 0)
(0.161007805337 -0.000143615302737 0)
(0.161620024084 -0.000176485440433 0)
(0.162400184554 -0.000218657141696 0)
(0.163398581859 -0.000273161902238 0)
(0.164683019004 -0.00034413082473 0)
(0.166346460665 -0.000437329451929 0)
(0.168519577718 -0.00056150004926 0)
(0.171394699819 -0.000733174072307 0)
(0.1752814109 -0.000996330920958 0)
(0.180744357048 -0.00149922363649 0)
(0.189004082307 -0.00278634378135 0)
(0.203658018247 -0.00697084035486 0)
(0.236690772861 -0.0226180164032 0)
(0.314245785058 -0.0846273352209 0)
(0.977191158295 0.297025793605 0)
(0.962720416775 0.250350761618 0)
(0.820913121344 0.158407129736 0)
(0.698618666506 0.0954247453501 0)
(0.61219115389 0.0572848348462 0)
(0.552172832012 0.0349947802448 0)
(0.51152011956 0.0217547594685 0)
(0.484622187548 0.0135918792581 0)
(0.467173987213 0.00840053404604 0)
(0.45613530467 0.00505415447143 0)
(0.449388484464 0.00290874735541 0)
(0.445452289199 0.00156376905151 0)
(0.443299154157 0.000751998558546 0)
(0.442231033338 0.000288300548573 0)
(0.441788447936 4.38587724483e-05 0)
(0.441680189069 -6.84570868881e-05 0)
(0.441731181504 -0.000107396185122 0)
(0.441843230031 -0.000108933453067 0)
(0.441965080689 -9.41244791039e-05 0)
(0.442073575188 -7.45135253806e-05 0)
(0.442160966103 -5.57310979984e-05 0)
(0.442227114554 -4.00196827586e-05 0)
(0.442275061714 -2.78562504534e-05 0)
(0.442308707164 -1.89097444913e-05 0)
(0.442331719518 -1.25693733042e-05 0)
(0.442347128421 -8.20405210826e-06 0)
(0.442357259396 -5.26796924016e-06 0)
(0.442363812677 -3.33144143461e-06 0)
(0.442367987362 -2.07647600348e-06 0)
(0.442370607489 -1.27630518183e-06 0)
(0.442372228246 -7.73057492063e-07 0)
(0.442373216259 -4.60281080863e-07 0)
(0.442373808998 -2.68286215743e-07 0)
(0.442374158031 -1.52054495295e-07 0)
(0.442374358531 -8.28426901924e-08 0)
(0.442374468987 -4.31895394912e-08 0)
(0.442374525581 -2.28995972317e-08 0)
(0.442374551188 -1.42315878755e-08 0)
(0.44237455934 -1.11903717716e-08 0)
(0.442374558286 -1.02000572411e-08 0)
(0.442374553365 -9.88403422197e-09 0)
(0.442374547095 -1.02450058704e-08 0)
(0.442374540492 -1.09882549906e-08 0)
(0.442374534024 -1.17393164472e-08 0)
(0.442374527544 -1.2545728673e-08 0)
(0.442374520564 -1.37520835172e-08 0)
(0.442374512656 -1.55218686757e-08 0)
(0.442374503896 -1.77454372423e-08 0)
(0.442374494931 -1.9992399139e-08 0)
(0.44237448631 -2.19054397749e-08 0)
(0.442374477833 -2.35921292429e-08 0)
(0.442374468814 -2.53959955297e-08 0)
(0.442374458888 -2.74256566793e-08 0)
(0.442374448386 -2.9437607124e-08 0)
(0.442374437898 -3.12134173861e-08 0)
(0.442374427657 -3.28863102091e-08 0)
(0.442374417457 -3.48095592822e-08 0)
(0.44237440706 -3.71898222166e-08 0)
(0.442374396512 -3.99140004675e-08 0)
(0.442374385971 -4.27444188892e-08 0)
(0.442374375276 -4.56332175814e-08 0)
(0.442374363855 -4.87811190757e-08 0)
(0.442374351165 -5.23719509843e-08 0)
(0.442374337227 -5.62946219582e-08 0)
(0.442374322671 -6.01859075106e-08 0)
(0.442374308222 -6.37695410543e-08 0)
(0.44237429418 -6.71316039873e-08 0)
(0.442374280263 -7.06024451438e-08 0)
(0.442374265813 -7.45321902362e-08 0)
(0.442374250201 -7.90592117699e-08 0)
(0.442374233143 -8.4062502885e-08 0)
(0.442374214793 -8.93010888479e-08 0)
(0.442374195683 -9.45612539823e-08 0)
(0.442374176539 -9.9736742917e-08 0)
(0.442374157993 -1.04817386872e-07 0)
(0.442374140208 -1.09884079388e-07 0)
(0.442374122604 -1.1515943136e-07 0)
(0.442374104053 -1.20989979032e-07 0)
(0.44237408364 -1.27629409436e-07 0)
(0.442374061467 -1.34948315803e-07 0)
(0.442374038726 -1.42418458406e-07 0)
(0.442374016799 -1.49510250292e-07 0)
(0.442373996107 -1.56172574817e-07 0)
(0.442373975748 -1.62934921295e-07 0)
(0.442373954242 -1.70538745741e-07 0)
(0.442373930773 -1.79415451437e-07 0)
(0.442373905885 -1.8941613422e-07 0)
(0.442373881047 -1.99956825153e-07 0)
(0.442373857379 -2.10513366333e-07 0)
(0.442373834599 -2.21119137206e-07 0)
(0.442373811241 -2.32398099385e-07 0)
(0.44237378621 -2.44950593462e-07 0)
(0.442373760349 -2.58610443722e-07 0)
(0.442373736314 -2.72421947371e-07 0)
(0.442373716551 -2.85647747388e-07 0)
(0.442373701279 -2.98838736743e-07 0)
(0.442373688751 -3.13642313652e-07 0)
(0.442373677757 -3.31312302747e-07 0)
(0.442373669797 -3.51506742662e-07 0)
(0.442373668675 -3.72795994764e-07 0)
(0.442373678054 -3.94490588757e-07 0)
(0.442373699585 -4.18047263695e-07 0)
(0.442373733395 -4.47044481757e-07 0)
(0.44237378118 -4.84352444532e-07 0)
(0.442373847255 -5.28385851133e-07 0)
(0.442373937522 -5.7784092326e-07 0)
(0.442374058265 -6.32788602606e-07 0)
(0.442374215538 -6.94848808062e-07 0)
(0.442374416797 -7.65836471581e-07 0)
(0.442374672448 -8.46156484013e-07 0)
(0.44237499435 -9.34604456905e-07 0)
(0.442375393366 -1.02781099e-06 0)
(0.442375897476 -1.1176668337e-06 0)
(0.44237654683 -1.21178992083e-06 0)
(0.442377376007 -1.32072085191e-06 0)
(0.442378424602 -1.45139072921e-06 0)
(0.442379743485 -1.61127865804e-06 0)
(0.442381398289 -1.80948628438e-06 0)
(0.442383474634 -2.05586390922e-06 0)
(0.442386081434 -2.36212071533e-06 0)
(0.442389352344 -2.74481732481e-06 0)
(0.442393450641 -3.22726395258e-06 0)
(0.442398580012 -3.83831162619e-06 0)
(0.442404993791 -4.61354101583e-06 0)
(0.442412997901 -5.61186563071e-06 0)
(0.442423003101 -6.95238239452e-06 0)
(0.44243557563 -8.74728777634e-06 0)
(0.442451393935 -1.10446971777e-05 0)
(0.442471260978 -1.3930727805e-05 0)
(0.442496192115 -1.75386322563e-05 0)
(0.442527467095 -2.20487152964e-05 0)
(0.442566697677 -2.76885099769e-05 0)
(0.442615913036 -3.4738394664e-05 0)
(0.442677660139 -4.35499810081e-05 0)
(0.442755136463 -5.45689147292e-05 0)
(0.44285236987 -6.83549779818e-05 0)
(0.442974441283 -8.5610920122e-05 0)
(0.443127753657 -0.000107228676995 0)
(0.443320379928 -0.000134342586127 0)
(0.443562525475 -0.000168388903785 0)
(0.44386712261 -0.000211197561044 0)
(0.444250588912 -0.000265128426508 0)
(0.44473382075 -0.000333234096044 0)
(0.445343507046 -0.000419464966233 0)
(0.446113869795 -0.000528983189308 0)
(0.447089019332 -0.000668620317048 0)
(0.448326193457 -0.000847500887076 0)
(0.449900243535 -0.00107796150377 0)
(0.451910005515 -0.00137697660281 0)
(0.454487659413 -0.0017683862395 0)
(0.457812904899 -0.00228659833711 0)
(0.462135411139 -0.00298333613087 0)
(0.467812530482 -0.00394139673466 0)
(0.475377576973 -0.0053068184821 0)
(0.48567406432 -0.00737388789698 0)
(0.500116905784 -0.0108240990926 0)
(0.521172267551 -0.0174037467388 0)
(0.553552461301 -0.0319197772731 0)
(0.606953099501 -0.0683317976766 0)
(0.690107964464 -0.164083520425 0)
(1.03387473218 0.239240031782 0)
(1.08325637433 0.293430308681 0)
(1.03343922171 0.238550032934 0)
(0.955671916669 0.173421992181 0)
(0.88263755518 0.119778305065 0)
(0.823015297258 0.0807538794306 0)
(0.778159216662 0.0536866129377 0)
(0.746196459136 0.0351606293082 0)
(0.724298560575 0.0225476582153 0)
(0.709823433132 0.0140399744292 0)
(0.700613333574 0.0084000719825 0)
(0.695004834243 0.00475923426349 0)
(0.691768342513 0.00249272761275 0)
(0.690029637067 0.00114737212934 0)
(0.689191515969 0.000397797137881 0)
(0.688862969852 1.61952293684e-05 0)
(0.688800110579 -0.000149992410511 0)
(0.688859411435 -0.000199413230151 0)
(0.688961741076 -0.000191784695935 0)
(0.689067272018 -0.00016114851433 0)
(0.689158905066 -0.000125354358499 0)
(0.689231606559 -9.2643139785e-05 0)
(0.689286088107 -6.59668905435e-05 0)
(0.689325311659 -4.56387103263e-05 0)
(0.689352710227 -3.08448753568e-05 0)
(0.68937139545 -2.04369683995e-05 0)
(0.689383888129 -1.33047595003e-05 0)
(0.68939209877 -8.52132307316e-06 0)
(0.689397412468 -5.37181724209e-06 0)
(0.689400802513 -3.33142884607e-06 0)
(0.6894029361 -2.02884730569e-06 0)
(0.68940426072 -1.20927291252e-06 0)
(0.689405071307 -7.01623425991e-07 0)
(0.689405559517 -3.92747915338e-07 0)
(0.689405848219 -2.08852518083e-07 0)
(0.689406014744 -1.02282791207e-07 0)
(0.689406107125 -4.24150597096e-08 0)
(0.689406155343 -1.0202499011e-08 0)
(0.689406178288 6.07086238556e-09 0)
(0.689406187102 1.39176416463e-08 0)
(0.689406187618 1.76228934557e-08 0)
(0.689406183483 1.95701779331e-08 0)
(0.689406177369 2.12998307858e-08 0)
(0.689406170456 2.31842108746e-08 0)
(0.689406162783 2.50221085163e-08 0)
(0.689406154137 2.66020744464e-08 0)
(0.68940614448 2.78517559073e-08 0)
(0.689406134167 2.91159869263e-08 0)
(0.689406123848 3.08081592141e-08 0)
(0.68940611379 3.30256448044e-08 0)
(0.689406103612 3.56254210255e-08 0)
(0.689406092725 3.85491515966e-08 0)
(0.689406080928 4.19842966292e-08 0)
(0.689406068522 4.6105337367e-08 0)
(0.689406055891 5.07810245979e-08 0)
(0.689406043144 5.56539650256e-08 0)
(0.689406030171 6.04678079062e-08 0)
(0.689406016933 6.52565960466e-08 0)
(0.689406003557 7.02107780715e-08 0)
(0.689405990093 7.5398224979e-08 0)
(0.689405976239 8.06784242613e-08 0)
(0.689405961443 8.59218276211e-08 0)
(0.689405945343 9.12933524049e-08 0)
(0.68940592811 9.72603307881e-08 0)
(0.689405910303 1.04268702882e-07 0)
(0.68940589238 1.1240409478e-07 0)
(0.689405874418 1.21361759677e-07 0)
(0.689405856104 1.30638050803e-07 0)
(0.689405836929 1.39949853865e-07 0)
(0.689405816504 1.49428525579e-07 0)
(0.689405794681 1.59496241651e-07 0)
(0.689405771591 1.70594892979e-07 0)
(0.689405747641 1.82946665665e-07 0)
(0.689405723441 1.96501676731e-07 0)
(0.689405699556 2.11038576052e-07 0)
(0.689405676086 2.26271040523e-07 0)
(0.689405652404 2.41922022352e-07 0)
(0.689405627438 2.57844471526e-07 0)
(0.689405600489 2.74195729826e-07 0)
(0.689405571911 2.91476439581e-07 0)
(0.689405542936 3.10262090798e-07 0)
(0.689405514687 3.30777451977e-07 0)
(0.68940548722 3.52687089592e-07 0)
(0.689405459438 3.75304158462e-07 0)
(0.689405429988 3.98046016372e-07 0)
(0.689405398398 4.20801393628e-07 0)
(0.689405365561 4.43974213571e-07 0)
(0.689405333075 4.6818889011e-07 0)
(0.689405301874 4.93818016348e-07 0)
(0.689405271353 5.20712688827e-07 0)
(0.689405239994 5.48474856578e-07 0)
(0.689405207127 5.77124616295e-07 0)
(0.689405174182 6.07413782743e-07 0)
(0.689405143912 6.40216071244e-07 0)
(0.689405118157 6.75411169856e-07 0)
(0.689405096535 7.11592151017e-07 0)
(0.68940507763 7.47225987386e-07 0)
(0.689405061518 7.82154251467e-07 0)
(0.689405050887 8.17732778809e-07 0)
(0.689405049531 8.55305883411e-07 0)
(0.689405059804 8.9458665958e-07 0)
(0.689405081529 9.33844397021e-07 0)
(0.6894051151 9.724331657e-07 0)
(0.689405167531 1.01129794121e-06 0)
(0.689405247568 1.04854223118e-06 0)
(0.689405361657 1.08308972904e-06 0)
(0.68940551662 1.11257722476e-06 0)
(0.689405720769 1.13323129416e-06 0)
(0.689405986323 1.14168915743e-06 0)
(0.689406330904 1.13582956329e-06 0)
(0.689406777943 1.11360896379e-06 0)
(0.689407357579 1.07315581633e-06 0)
(0.689408093732 1.01685167509e-06 0)
(0.689409012895 9.3185445476e-07 0)
(0.689410164777 8.01172785626e-07 0)
(0.689411613173 6.08708870124e-07 0)
(0.689413432414 3.35429566037e-07 0)
(0.689415715174 -4.19917880102e-08 0)
(0.68941858013 -5.52107720905e-07 0)
(0.689422176266 -1.2315828179e-06 0)
(0.689426687285 -2.12882893117e-06 0)
(0.68943234192 -3.30513561345e-06 0)
(0.689439430625 -4.83441201963e-06 0)
(0.689448322406 -6.80653165326e-06 0)
(0.689459476042 -9.33239388948e-06 0)
(0.689473459734 -1.25427991776e-05 0)
(0.68949099098 -1.66268884173e-05 0)
(0.689512977487 -2.18457510391e-05 0)
(0.689540560794 -2.85088224177e-05 0)
(0.68957517407 -3.70011206386e-05 0)
(0.689618615394 -4.78077322351e-05 0)
(0.689673148758 -6.15347612312e-05 0)
(0.689741622744 -7.89426475353e-05 0)
(0.68982761496 -0.00010099167485 0)
(0.689935625071 -0.000128890653525 0)
(0.690071324618 -0.000164157734848 0)
(0.690241864249 -0.000208711420304 0)
(0.690456261366 -0.000264988916674 0)
(0.690725904931 -0.000336081417422 0)
(0.691065200593 -0.00042590826261 0)
(0.691492388556 -0.000539469821432 0)
(0.692030611823 -0.000683189581096 0)
(0.692709324799 -0.000865353117075 0)
(0.693566122651 -0.00109670654591 0)
(0.694649146386 -0.00139130061198 0)
(0.696020334746 -0.0017676735434 0)
(0.697759851259 -0.00225056198217 0)
(0.699972158794 -0.00287344783091 0)
(0.702794570108 -0.00368241146846 0)
(0.7064095945 -0.00474224334473 0)
(0.711063230623 -0.0061466809951 0)
(0.717092989436 -0.00803654489469 0)
(0.724972247151 -0.0106343586751 0)
(0.735382614163 -0.014315485816 0)
(0.749334795948 -0.0197640667365 0)
(0.768355053846 -0.028328541223 0)
(0.794687873954 -0.0428159913371 0)
(0.831436046729 -0.0691704802711 0)
(0.882168267681 -0.119881607707 0)
(0.942936447037 -0.21817364489 0)
(1.03385278777 0.171248538947 0)
(1.10246109624 0.275120679601 0)
(1.11718536736 0.265224733794 0)
(1.09341464381 0.217899679324 0)
(1.05455242816 0.165124107503 0)
(1.01461008819 0.119366184797 0)
(0.980198009726 0.0835591274761 0)
(0.953310127299 0.056889620027 0)
(0.933614330507 0.037626571595 0)
(0.919899918119 0.0240742618568 0)
(0.910778547647 0.0148013128678 0)
(0.904984487439 0.00865706444571 0)
(0.901483897141 0.00473795638644 0)
(0.899491020913 0.00234998435562 0)
(0.89844188271 0.00097535569005 0)
(0.897952147443 0.000241577888362 0)
(0.897772769191 -0.000107587592804 0)
(0.897751091908 -0.00024050991679 0)
(0.89779896981 -0.000261979914314 0)
(0.897868824809 -0.000233300904208 0)
(0.897937595036 -0.000187883929279 0)
(0.897995936722 -0.000142195311042 0)
(0.898041568891 -0.000103079454954 0)
(0.898075440092 -7.23578187698e-05 0)
(0.898099665019 -4.95207905684e-05 0)
(0.898116510663 -3.31912046528e-05 0)
(0.898127965765 -2.18520877498e-05 0)
(0.898135611503 -1.4160194054e-05 0)
(0.898140632938 -9.04293184871e-06 0)
(0.898143883654 -5.69509035762e-06 0)
(0.898145960219 -3.53759521662e-06 0)
(0.898147269634 -2.1669039905e-06 0)
(0.898148084559 -1.30830351756e-06 0)
(0.898148584915 -7.78081057235e-07 0)
(0.898148887443 -4.55532233343e-07 0)
(0.898149066556 -2.62695619134e-07 0)
(0.898149169104 -1.49940057286e-07 0)
(0.898149224689 -8.58814786342e-08 0)
(0.898149252162 -5.09845430337e-08 0)
(0.898149263477 -3.33097746027e-08 0)
(0.898149266119 -2.51093508435e-08 0)
(0.898149264393 -2.14232199106e-08 0)
(0.89814926012 -1.99540197523e-08 0)
(0.898149253799 -2.01034097108e-08 0)
(0.898149245658 -2.17699289587e-08 0)
(0.898149235781 -2.46038801526e-08 0)
(0.898149224455 -2.81725281028e-08 0)
(0.898149212318 -3.19574430211e-08 0)
(0.898149199969 -3.56888110539e-08 0)
(0.898149187634 -3.93431530988e-08 0)
(0.898149175046 -4.28992123222e-08 0)
(0.898149161746 -4.62124760878e-08 0)
(0.898149147478 -4.91690815646e-08 0)
(0.898149132281 -5.19156526625e-08 0)
(0.898149116355 -5.48218615686e-08 0)
(0.898149099892 -5.81994169161e-08 0)
(0.898149083013 -6.2116941555e-08 0)
(0.898149065801 -6.64926652306e-08 0)
(0.898149048275 -7.13339846974e-08 0)
(0.898149030299 -7.68333336765e-08 0)
(0.898149011539 -8.31878181301e-08 0)
(0.898148991642 -9.03095382703e-08 0)
(0.898148970507 -9.77337828051e-08 0)
(0.898148948368 -1.04887713826e-07 0)
(0.898148925573 -1.11527582395e-07 0)
(0.8981489023 -1.179424823e-07 0)
(0.898148878401 -1.24705080211e-07 0)
(0.898148853577 -1.32357432621e-07 0)
(0.8981488276 -1.41010903346e-07 0)
(0.898148800325 -1.50289606143e-07 0)
(0.898148771676 -1.59633896764e-07 0)
(0.898148741652 -1.68654070061e-07 0)
(0.898148710424 -1.77344773274e-07 0)
(0.898148678417 -1.86031838487e-07 0)
(0.89814864613 -1.95162556947e-07 0)
(0.898148613711 -2.05115004516e-07 0)
(0.898148580668 -2.16082486816e-07 0)
(0.898148546133 -2.2799345386e-07 0)
(0.898148509602 -2.40498814444e-07 0)
(0.898148471471 -2.53136754972e-07 0)
(0.898148432789 -2.65648953999e-07 0)
(0.898148394386 -2.78221466873e-07 0)
(0.898148356114 -2.91444151747e-07 0)
(0.898148316889 -3.0601562949e-07 0)
(0.898148275557 -3.22390908874e-07 0)
(0.898148231927 -3.40579681958e-07 0)
(0.89814818711 -3.60198258e-07 0)
(0.898148142746 -3.80824057759e-07 0)
(0.898148099636 -4.02398805308e-07 0)
(0.898148057087 -4.25286392658e-07 0)
(0.898148013784 -4.4982120352e-07 0)
(0.898147969491 -4.75790157228e-07 0)
(0.898147925821 -5.02575818404e-07 0)
(0.898147885096 -5.30141074069e-07 0)
(0.898147848472 -5.59729102298e-07 0)
(0.898147815499 -5.93265118732e-07 0)
(0.898147785701 -6.31872850909e-07 0)
(0.898147760417 -6.75097887218e-07 0)
(0.898147742879 -7.21846557412e-07 0)
(0.898147736519 -7.72185124893e-07 0)
(0.898147743735 -8.28107678247e-07 0)
(0.898147767083 -8.92287382896e-07 0)
(0.898147810124 -9.65364021764e-07 0)
(0.898147875481 -1.04587161313e-06 0)
(0.898147968353 -1.13589567396e-06 0)
(0.89814809761 -1.23812696316e-06 0)
(0.898148271365 -1.35707003527e-06 0)
(0.898148499568 -1.49808745115e-06 0)
(0.898148796843 -1.66582650297e-06 0)
(0.898149182223 -1.86511758937e-06 0)
(0.898149677402 -2.10433281661e-06 0)
(0.898150308499 -2.39917372821e-06 0)
(0.898151108903 -2.77398146593e-06 0)
(0.898152122457 -3.24367499266e-06 0)
(0.898153405629 -3.82453917818e-06 0)
(0.898155026374 -4.54185533327e-06 0)
(0.898157067211 -5.42992225288e-06 0)
(0.898159633146 -6.53180447007e-06 0)
(0.898162858471 -7.9011730381e-06 0)
(0.898166911273 -9.60633826654e-06 0)
(0.898172000109 -1.1734380956e-05 0)
(0.898178387156 -1.43934733864e-05 0)
(0.898186405034 -1.77166557847e-05 0)
(0.898196472892 -2.18728724278e-05 0)
(0.898209113666 -2.70820026444e-05 0)
(0.898224981691 -3.36221648626e-05 0)
(0.898244902443 -4.18342041826e-05 0)
(0.898269914987 -5.21368867548e-05 0)
(0.898301322013 -6.50563677339e-05 0)
(0.898340759836 -8.1263235657e-05 0)
(0.898390289938 -0.000101602403354 0)
(0.898452510436 -0.000127134452714 0)
(0.898530688206 -0.000159199130402 0)
(0.898628930277 -0.000199491301803 0)
(0.898752409733 -0.000250147099894 0)
(0.898907646354 -0.000313859055866 0)
(0.899102854492 -0.000394034201616 0)
(0.899348394358 -0.000494992169692 0)
(0.899657354797 -0.00062221332723 0)
(0.900046282016 -0.000782670768577 0)
(0.900536103956 -0.00098527027652 0)
(0.901153341063 -0.00124142034465 0)
(0.901931682294 -0.00156580412274 0)
(0.902914015225 -0.00197744780484 0)
(0.904155083966 -0.0025011707123 0)
(0.905725018116 -0.00316960317132 0)
(0.907714043332 -0.00402611340687 0)
(0.910238849927 -0.00512908888602 0)
(0.913451314563 -0.00655833566589 0)
(0.917550602789 -0.00842507073051 0)
(0.922800258496 -0.0108881426022 0)
(0.929552580418 -0.0141815634296 0)
(0.938283280593 -0.0186636968166 0)
(0.949639307202 -0.0249091456427 0)
(0.964498836565 -0.0338863076768 0)
(0.984018626569 -0.0473043843684 0)
(1.00955278303 -0.0682586022699 0)
(1.04219254683 -0.102258159044 0)
(1.08135181067 -0.158430531552 0)
(1.11904447554 -0.248853542682 0)
(1.02389451704 0.119206564966 0)
(1.08887229191 0.230863856115 0)
(1.13702732216 0.251331768224 0)
(1.15506408469 0.226150179948 0)
(1.15192056219 0.184125226395 0)
(1.13858562583 0.140826395705 0)
(1.12243694247 0.10299532591 0)
(1.10740440896 0.0725698063105 0)
(1.09509865731 0.0493534414463 0)
(1.08582265389 0.0323492075697 0)
(1.07925487671 0.0203522938451 0)
(1.07484859079 0.0122031985984 0)
(1.07204041396 0.00688945362034 0)
(1.07034401874 0.00357993289132 0)
(1.06938002361 0.00162676378083 0)
(1.06887339338 0.000549392154758 0)
(1.06863643501 8.83467328336e-06 0)
(1.0685483125 -0.000221702802965 0)
(1.06853556087 -0.000286746136456 0)
(1.06855595958 -0.000272522696966 0)
(1.0685869657 -0.00022733108609 0)
(1.06861775187 -0.000175989539554 0)
(1.06864394691 -0.000129665470129 0)
(1.06866446613 -9.21738845652e-05 0)
(1.0686797164 -6.37427173899e-05 0)
(1.06869064105 -4.31131706016e-05 0)
(1.06869825399 -2.86215333255e-05 0)
(1.06870344439 -1.86950443966e-05 0)
(1.06870691989 -1.20336935915e-05 0)
(1.06870921164 -7.64031193854e-06 0)
(1.06871070227 -4.78666533538e-06 0)
(1.06871165945 -2.95903715456e-06 0)
(1.06871226653 -1.80407664665e-06 0)
(1.06871264697 -1.08363014828e-06 0)
(1.06871288217 -6.40089872497e-07 0)
(1.06871302479 -3.70935245851e-07 0)
(1.06871310859 -2.10305134614e-07 0)
(1.06871315546 -1.16173771948e-07 0)
(1.06871317983 -6.19525096349e-08 0)
(1.06871319106 -3.09957894167e-08 0)
(1.06871319462 -1.32312475046e-08 0)
(1.06871319328 -3.13698100154e-09 0)
(1.06871318839 2.15549280222e-09 0)
(1.06871318072 4.4181491601e-09 0)
(1.06871317095 4.83768681388e-09 0)
(1.06871315967 4.21919351003e-09 0)
(1.0687131473 3.18273784935e-09 0)
(1.06871313429 2.03681712208e-09 0)
(1.06871312108 9.6191225352e-10 0)
(1.06871310785 1.78939138839e-10 0)
(1.06871309442 -3.6964823604e-11 0)
(1.06871308029 4.88177985314e-10 0)
(1.06871306498 1.61835874338e-09 0)
(1.06871304837 2.9812753047e-09 0)
(1.06871303068 4.28060994438e-09 0)
(1.06871301228 5.4812392109e-09 0)
(1.0687129934 6.68632761234e-09 0)
(1.06871297406 7.87695670155e-09 0)
(1.06871295415 8.80871565352e-09 0)
(1.06871293351 9.18418212756e-09 0)
(1.06871291202 8.96487460587e-09 0)
(1.06871288963 8.54904464595e-09 0)
(1.06871286638 8.61797320299e-09 0)
(1.06871284229 9.70416497774e-09 0)
(1.06871281725 1.18057926904e-08 0)
(1.06871279108 1.43647893885e-08 0)
(1.06871276363 1.66545452244e-08 0)
(1.06871273491 1.83125003248e-08 0)
(1.06871270509 1.95393702433e-08 0)
(1.06871267431 2.09638014043e-08 0)
(1.06871264243 2.32427256321e-08 0)
(1.06871260915 2.66644721031e-08 0)
(1.06871257432 3.10241612562e-08 0)
(1.06871253816 3.58170935937e-08 0)
(1.06871250121 4.05645909393e-08 0)
(1.06871246379 4.50448340431e-08 0)
(1.06871242563 4.93494143834e-08 0)
(1.06871238609 5.38107422604e-08 0)
(1.06871234472 5.8835762787e-08 0)
(1.06871230177 6.46819520739e-08 0)
(1.06871225799 7.1285996529e-08 0)
(1.06871221393 7.82682990499e-08 0)
(1.06871216931 8.51137276417e-08 0)
(1.06871212317 9.14010144511e-08 0)
(1.06871207458 9.69805811402e-08 0)
(1.06871202361 1.02033107522e-07 0)
(1.0687119715 1.06957021539e-07 0)
(1.0687119197 1.12047732499e-07 0)
(1.06871186874 1.17243061378e-07 0)
(1.06871181785 1.22257342561e-07 0)
(1.06871176601 1.27052977506e-07 0)
(1.06871171327 1.32058887896e-07 0)
(1.06871166096 1.3766609566e-07 0)
(1.06871161056 1.43347387069e-07 0)
(1.06871156262 1.47571118541e-07 0)
(1.06871151709 1.48827247006e-07 0)
(1.06871147458 1.46736060393e-07 0)
(1.06871143715 1.41937885943e-07 0)
(1.0687114075 1.34647143015e-07 0)
(1.06871138758 1.23225090124e-07 0)
(1.06871137836 1.04204791736e-07 0)
(1.06871138138 7.35512524411e-08 0)
(1.06871140101 2.7321146732e-08 0)
(1.06871144404 -3.73442200924e-08 0)
(1.06871151771 -1.211074938e-07 0)
(1.06871162866 -2.28388808081e-07 0)
(1.06871178396 -3.66531023717e-07 0)
(1.06871199458 -5.43058371985e-07 0)
(1.06871227678 -7.64807793512e-07 0)
(1.06871264997 -1.04015015676e-06 0)
(1.06871313491 -1.38194871904e-06 0)
(1.06871375637 -1.80780525625e-06 0)
(1.06871454756 -2.33948124458e-06 0)
(1.06871555313 -3.00157946735e-06 0)
(1.06871682977 -3.82533310519e-06 0)
(1.06871844579 -4.85205102901e-06 0)
(1.06872048496 -6.13388213687e-06 0)
(1.06872305408 -7.73496841171e-06 0)
(1.06872628915 -9.73474572114e-06 0)
(1.06873035997 -1.2233543034e-05 0)
(1.06873547841 -1.5357705054e-05 0)
(1.06874191244 -1.92642160744e-05 0)
(1.06875000082 -2.41494138035e-05 0)
(1.0687601675 -3.02627425031e-05 0)
(1.06877294239 -3.79223940878e-05 0)
(1.06878899328 -4.75281698631e-05 0)
(1.06880916366 -5.95780507543e-05 0)
(1.06883451121 -7.46957826005e-05 0)
(1.06886635988 -9.36671403818e-05 0)
(1.0689063771 -0.000117480350904 0)
(1.06895666826 -0.000147373438976 0)
(1.06901988414 -0.000184903488029 0)
(1.06909935439 -0.000232037467915 0)
(1.06919926789 -0.000291257542499 0)
(1.06932490393 -0.00036569189921 0)
(1.06948291314 -0.000459290397429 0)
(1.06968167044 -0.000577049148851 0)
(1.06993173303 -0.000725290204992 0)
(1.07024642128 -0.000912030673199 0)
(1.07064254582 -0.00114747438994 0)
(1.07114133804 -0.00144463701922 0)
(1.07176964456 -0.00182015646842 0)
(1.07256144705 -0.00229540191477 0)
(1.07355981796 -0.00289797956975 0)
(1.0748194539 -0.00366375609822 0)