/*--------------------------------*- C++ -*----------------------------------*\
| =========                 |                                                 |
| \\      /  F ield         | OpenFOAM: The Open Source CFD Toolbox           |
|  \\    /   O peration     | Version:  2106                                  |
|   \\  /    A nd           | Website:  www.openfoam.com                      |
|    \\/     M anipulation  |                                                 |
\*---------------------------------------------------------------------------*/
FoamFile
{
    version     2.0;
    format      ascii;
    arch        "LSB;label=32;scalar=64";
    class       volScalarField;
    location    "0.18";
    object      p;
}
// * * * * * * * * * * * * * * * * * * * * * * * * * * * * * * * * * * * * * //

dimensions      [0 2 -2 0 0 0 0];

internalField   nonuniform List<scalar> 
11200
(
150.171614884
147.243012881
146.129161365
145.601829076
145.23449797
144.93971792
144.678072168
144.429531492
144.185010656
143.939940059
143.691622621
143.438303716
143.178751364
142.912029993
142.637372737
142.354106206
142.061604661
141.759262225
141.446480188
141.122670599
140.787209714
140.439448586
140.078728906
139.704382808
139.31572467
138.912053122
138.492651888
138.056790483
137.603724969
137.132698593
136.64294235
136.133675474
135.604105492
135.053428498
134.480829806
133.885485096
133.266560282
132.623211717
131.954586638
131.259823624
130.538052954
129.788396845
129.009969617
128.201877728
127.363219664
126.49308566
125.590557206
124.654706323
123.684594482
122.679271073
121.637771346
120.559113667
119.442295822
118.28629017
117.090037466
115.852438996
114.572346532
113.248549688
111.879760174
110.464591918
109.001536182
107.488930042
105.924915959
104.30739328
102.633952237
100.901787905
99.1075900495
97.2473987175
95.3164099388
93.3087091175
91.2169073197
89.0316454252
86.7407251554
84.3279612976
81.7712706114
79.038998706
76.08355579
72.8323923391
69.1319062803
64.368956398
148.37857307
147.020398724
146.229426572
145.729411191
145.338421554
145.014537299
144.730014099
144.465409458
144.209918905
143.957394095
143.70400778
143.447246431
143.18537302
142.917111075
142.641460161
142.357585488
142.064749742
141.762270216
141.449488606
141.125743114
140.790383689
140.442734882
140.082152992
139.707969861
139.319489444
138.916004644
138.496796345
138.061132239
137.608267106
137.137443221
136.647890578
136.138826866
135.609457721
135.05898289
134.486589652
133.891453692
133.272740651
132.629606825
131.961199458
131.26665721
130.545110525
129.795681846
129.017485809
128.209629315
127.371211426
126.501323104
125.599046769
124.663455636
123.6936127
122.688569263
121.647362951
120.569015086
119.452527151
118.296876128
117.101008482
115.863832549
114.584208844
113.260937798
111.892744618
110.478260162
109.015997128
107.504320233
105.941405668
104.325190735
102.653308075
100.923016577
99.1311010252
97.2737242539
95.3462470028
93.3429846347
91.2568683146
89.0789416464
86.7976573189
84.3978796339
81.8592136718
79.1531517639
76.2388954926
73.0586050461
69.509476121
65.3965428896
147.383382902
146.729182244
146.176825845
145.739207038
145.367581848
145.045478408
144.7563765
144.486140248
144.225674678
143.96919099
143.712804259
143.453832833
143.190364678
142.920972812
142.644536165
142.360126157
142.066933249
141.764218967
141.451285145
141.127455013
140.792066606
140.444480381
140.08395234
139.709828797
139.321417617
138.918009145
138.498881963
138.063302682
137.61052579
137.139793789
136.650337551
136.14137696
135.612121142
135.06176265
134.489483695
133.894462296
133.275865246
132.632849337
131.964562664
131.270144738
130.548726879
129.799432466
129.021377242
128.213669405
127.375409577
126.505690617
125.603597266
124.668205569
123.698581994
122.69378215
121.652848962
120.574810229
119.45867536
118.303431052
117.108035644
115.871411928
114.592438091
113.269936351
111.90265885
110.489269682
109.028321673
107.518227893
105.95722457
104.34334199
102.674343287
100.947635671
99.1601775638
97.3083703867
95.3879000583
93.3935279872
91.3188045099
89.1556667507
86.8940196655
84.520946799
82.0197259401
79.3684941848
76.5392719197
73.500431606
70.2159782409
66.6628533198
146.833621809
146.470240223
146.070341501
145.701349897
145.363731558
145.055626993
144.77026106
144.499554102
144.237178796
143.978508243
143.720124474
143.459495979
143.194722935
142.924338069
142.647165318
142.36222222
142.068652551
141.765680239
141.452578273
141.128646832
140.793195069
140.445532861
140.085019008
139.710930344
139.322556099
138.919188496
138.500105876
138.064573624
137.611845114
137.141161834
136.651753484
136.142838162
135.61362324
135.063307006
134.4910792
133.89611424
133.277579793
132.634633491
131.966422433
131.272086599
130.550758123
129.801561409
129.023613645
128.216024882
127.377898041
126.508328866
125.606405673
124.671208878
123.701810288
122.697272
121.656644787
120.578966057
119.463256959
118.308518533
117.113726715
115.877826035
114.599721706
113.278269294
111.912261849
110.500413754
109.041342862
107.533552719
105.975381572
104.364971098
102.700219565
100.978728085
99.1977215454
97.3539480236
95.4435545354
93.4619312242
91.4035211023
89.2615946209
87.0279198065
84.6924540169
82.2431067486
79.6657767392
76.9457133291
74.0732010748
71.0518284492
67.9187588543
146.499574004
146.267778274
145.966365155
145.655386859
145.350545583
145.058519912
144.779541586
144.510412377
144.247448738
143.98736061
143.727387643
143.465292451
143.19928252
142.927908783
142.649974581
142.364463013
142.070481548
141.767221091
141.453926446
141.129875103
140.794362261
140.44669164
140.086166907
139.712077449
139.323726069
138.920396367
138.501361462
138.065884336
137.613217018
137.142600437
136.653264372
136.144427604
135.615297998
135.065072193
134.492936192
133.898066193
133.279627541
132.636777924
131.968667866
131.274437722
130.55322215
129.804147886
129.026334563
128.218895002
127.380935352
126.5115552
125.609847465
124.674898127
123.70578567
122.701580635
121.661344291
120.584126712
119.46896446
118.314877366
117.120864239
115.885897162
114.608913911
113.288810397
111.924429344
110.514549943
109.057870587
107.5529786
105.998337496
104.39225278
102.732830995
101.017930446
99.245103789
97.4115291091
95.5139269034
93.5484630123
91.5106407404
89.3951954585
87.1960185913
84.9061909632
82.5182907403
80.0253068647
77.4230401939
74.7159298134
71.9253344453
69.1019511745
146.296181669
146.120279372
145.879083933
145.611756997
145.334568362
145.057927892
144.786235524
144.519730767
144.256962139
143.995949641
143.734658425
143.471221478
143.204013351
142.931643239
142.652918295
142.366800899
142.072369109
141.768783643
141.455261881
141.131058119
140.795449025
140.447722759
140.087169933
139.713080797
139.324744727
138.921440903
138.502439806
138.06700238
137.614379157
137.143809812
136.654523137
136.145737076
135.616658924
135.06648545
134.494403302
133.899589669
133.281212895
132.638432559
131.970399772
131.276258841
130.555145355
129.806186738
129.028504698
128.221214622
127.38342601
126.51424298
125.612764076
124.678082189
123.709284421
122.705451374
121.665656417
120.588964534
119.474430368
118.321095731
117.127986325
115.894107769
114.618441654
113.299936804
111.93750091
110.529987761
109.076179335
107.574782593
106.024414446
104.423559265
102.770550052
101.063537058
99.3004495264
97.4789538557
95.596410232
93.649833008
91.6358662774
89.5507986046
87.390664055
85.1515216111
82.8300864543
80.425006998
77.9393516876
75.3852771921
72.7897378748
70.1998428203
146.173065036
146.017457191
145.811154779
145.574591692
145.319115168
145.055834017
144.791218797
144.52770789
144.265572128
144.003983753
143.741608793
143.476970783
143.208639983
142.935307885
142.655802376
142.369075962
142.07418382
141.770260229
141.45649728
141.132127149
140.79640807
140.448613649
140.088025055
139.713924723
139.325593745
138.922306338
138.503330141
138.067923923
137.6153367
137.144807288
136.65556408
136.146825001
135.617797588
135.067679336
134.495658093
133.900911947
133.282609671
132.639911661
131.971970011
131.277928332
130.556921985
129.808082199
129.030535071
128.223400256
127.385792122
126.516820031
125.61558887
124.681199291
123.712747829
122.709326668
121.670023268
120.593920011
119.480092746
118.327609115
117.135526177
115.902887084
114.628716232
113.312018302
111.951769397
110.546906351
109.096329269
107.598878668
106.053325567
104.458357643
102.812563243
101.114413243
99.3622433699
97.5542398354
95.6884331004
93.762708994
91.7748537495
89.7226617507
87.6041546932
85.4180011278
83.1642713434
80.8457251804
78.4699157063
76.0524485233
73.620210953
71.2125769049
146.098985501
145.9489752
145.762219086
145.546112932
145.306405812
145.053583253
144.794944582
144.534204619
144.272835993
144.010912377
143.747692969
143.482054378
143.212756133
142.938577039
142.658373642
142.371096181
142.075783266
141.771547672
141.457559954
141.133033017
140.79720894
140.449348406
140.088722459
139.714605504
139.326273779
138.922996534
138.504038658
138.068656876
137.616098852
137.145602596
136.656396107
136.147697238
135.618713709
135.068643248
134.496673855
133.901984096
133.283743596
132.641113255
131.973246141
131.279288688
130.558382464
129.809660971
129.032250978
128.22527558
127.387853776
126.519100763
125.618128504
124.684046241
123.715960938
122.71297771
121.674200023
120.598729009
119.485663264
118.334098122
117.143124511
115.911827471
114.639283796
113.32456203
111.96671084
110.564764459
109.117730804
107.624590273
106.08428869
104.49572948
102.857768398
101.169210105
99.4288091546
97.6352795732
95.7873201851
93.883666493
91.9231870392
89.9050522694
87.8290182861
85.6958995764
83.5083123784
81.2717943254
78.9963887292
76.6987109217
74.4034559726
72.1426517121
146.056709257
145.907261432
145.730845474
145.527106711
145.297573291
145.051863972
144.797502843
144.538863133
144.278154885
144.01605914
143.752260054
143.485899803
143.215886897
142.941072739
142.660340651
142.372642528
142.077006435
141.772529939
141.458367793
141.133718506
140.797811957
140.449898936
140.089242771
139.715112841
139.326777936
138.92350732
138.504562792
138.069199341
137.616663647
137.14619317
136.657015649
136.148348932
135.619400934
135.069369755
134.497443949
133.902802903
133.28461735
132.642049974
131.974256233
131.280384796
130.559575958
129.810966759
129.033689024
128.226870228
127.389634381
126.521102834
125.620395108
124.686629728
123.718924988
122.716399622
121.678173379
120.603367555
119.491105302
118.340511741
117.150713992
115.920840817
114.650022334
113.337388061
111.982070898
110.583201279
109.139908014
107.651317795
106.116555026
104.534743141
102.905009136
101.226492686
99.4983632817
97.7198493667
95.8902882937
94.009207595
92.0764535796
90.0923938119
88.0582262268
85.9764447223
83.8514994738
81.6906914246
79.5052797273
77.3116889095
75.1319806144
72.9923555677
146.037432924
145.887554935
145.715591642
145.517655685
145.293093682
145.050973752
144.798837571
144.541327437
144.280998964
144.018836341
143.754744346
143.488007285
143.217615604
142.942461873
142.661445497
142.373520371
142.077709536
141.773102719
141.458846323
141.134131156
140.798180526
140.450239874
140.089568286
139.715431844
139.327098
138.923833308
138.504898631
138.069548249
137.617028419
137.146576484
136.657420173
136.148777528
135.619856819
135.069856685
134.497966413
133.903366347
133.285228407
132.642716628
131.974987688
131.281191451
130.560472823
129.811971201
129.034821648
128.228155907
127.391103273
126.522791547
125.622348119
124.6889011
123.721580444
122.719519038
121.681853817
120.6077269
119.496286642
118.346688749
117.158097512
115.929687002
114.66064279
113.350161316
111.997456308
110.601759503
109.162318234
107.678406208
106.14932738
104.574424151
102.953090725
101.28479289
99.5690981292
97.8057192236
95.9945817281
94.1359228304
92.2304366198
90.2794924103
88.2854359604
86.2520226852
84.1849638826
82.0926109427
79.9866973011
77.882991517
75.8012022559
73.7632770663
146.037435599
145.887571084
145.715618719
145.517691962
145.293138388
145.051026055
144.798896551
144.541392272
144.281068961
144.018910926
143.75482306
143.488089769
143.217701599
142.942551204
142.661538058
142.373616119
142.077808482
141.773204925
141.458951904
141.134240272
140.798293392
140.450356772
140.089689592
139.715558061
139.327229821
138.923971466
138.505044048
138.06970206
137.617192023
137.146751444
136.657608524
136.148981725
135.620079824
135.070102085
134.498238553
133.90367049
133.285570924
132.643105266
131.975432018
131.281703504
130.561066682
129.81266394
129.035634052
128.229113199
127.392236034
126.52413689
125.623951135
124.69081661
123.723875072
122.722273699
121.685166788
120.611717459
119.501099547
118.35249964
117.165119403
115.938178207
114.670916375
113.362597389
112.012516227
110.620000771
109.184421395
107.705195024
106.181800709
104.613792962
103.00082157
101.34265804
99.6392344801
97.8907010922
96.0975048859
94.2604994714
92.3811384036
90.4616676374
88.505229656
86.5164551025
84.5018624442
82.470358916
80.4337399021
78.4070369471
76.4081709555
74.4562561603
146.056717341
145.907310255
145.730927306
145.52721629
145.297708271
145.05202165
144.797680427
144.539058176
144.278365319
144.016283255
143.752496475
143.48614747
143.21614504
142.941340836
142.660618388
142.372929779
142.07730324
141.772836494
141.458684441
141.134045726
140.798150393
140.450249428
140.089606421
139.715491175
139.327172914
138.923921131
138.504998157
138.069659584
137.617152829
137.146716215
136.657578562
136.148958961
135.620066846
135.070102194
134.498255878
133.903710152
133.285639225
132.643209917
131.975582428
131.281911128
130.561345424
129.813030698
129.036109339
128.229721881
127.393008278
126.525109334
125.625168306
124.692332624
123.725755663
122.724598717
121.688033168
120.615242807
119.505426444
118.357800921
117.171604538
115.946101131
114.680584846
113.374385239
112.026873716
110.637474631
109.205674097
107.73102751
106.213177668
104.651876186
103.047008509
101.398632596
99.7070486503
97.9728155498
96.1968275678
94.3804625735
92.525674769
90.6352057749
88.7130062527
86.7643313943
84.7961778755
82.8177051283
80.840595084
78.879265243
76.9504504215
75.0716131943
146.098999175
145.949057819
145.762357322
145.546297651
145.306632897
145.053848026
144.795242304
144.534531185
144.273187952
144.011286883
143.74808775
143.482467696
143.213186718
142.939024034
142.658836539
142.371574787
142.076277664
141.772058202
141.458087183
141.13357775
140.797772273
140.449931755
140.089327575
139.715234973
139.326930456
138.923684168
138.50476176
138.069420924
137.616910514
137.146469989
136.657329062
136.148707625
135.619815861
135.069854517
134.498015322
133.903481515
133.285428461
132.643024366
131.975431089
131.281804981
130.561297834
129.813057899
129.03623102
128.229961923
127.393395685
126.525679371
125.625963853
124.693405761
123.727169659
122.726430422
121.690375816
120.618209499
119.509154232
118.362455836
117.177387574
115.953255673
114.689405518
113.385229024
112.040172962
110.653749001
109.225549894
107.755262486
106.242688391
104.687769152
103.090616247
101.451539439
99.7710814145
98.0501278491
96.2899934763
94.4924886621
92.6600664796
90.795991217
88.904570751
86.9914095782
85.0637294701
83.1307062673
81.2037872432
79.2969292295
77.4262805574
75.6087776028
146.173084664
146.017575739
145.811352482
145.574854941
145.31943775
145.056209072
144.791639521
144.528168467
144.266067725
144.004510411
143.742163372
143.477550884
143.209243861
142.935934366
142.656450772
142.369746016
142.074875654
141.770974305
141.457234355
141.132888298
140.797194773
140.449427906
140.088869419
139.714802526
139.326508962
138.923264054
138.504336546
138.06898652
137.616464628
137.146011679
136.656858441
136.14822569
135.619324405
135.069356116
134.497513385
133.902980386
133.28493357
132.642542478
131.974970551
131.281376032
130.560912965
129.812732286
129.035983076
128.229813984
127.393374882
126.525818712
125.626303473
124.693994418
123.728066608
122.727707616
121.692120551
120.620527561
119.512173751
118.366331974
117.182308167
115.959447936
114.697144209
113.394846265
112.052070419
110.668413086
109.243563762
107.777327174
106.269642052
104.720607119
103.130517189
101.499914201
99.8296296863
98.1208442612
96.3751688797
94.5947468814
92.7823772636
90.9416606831
89.0771782927
87.1947048444
85.3014707266
83.4064612737
81.5207594609
79.6579417364
77.8340313487
76.0664572993
146.296207914
146.120437538
145.879346281
145.612104538
145.334992303
145.058418877
144.786784535
144.520330248
144.257605894
143.99663265
143.735376732
143.471972067
143.204794036
142.932452558
142.653755398
142.36766546
142.073261246
141.769703834
141.456210891
141.132036979
140.796458999
140.448765681
140.088250156
139.714204059
139.32591555
138.922665018
138.503724646
138.068357078
137.615814872
137.145340252
136.656165085
136.147511037
135.618589883
135.068603925
134.496746534
133.902202751
133.284149992
132.64175893
131.97419439
131.280616325
130.560180861
129.81204144
129.035350167
128.229259325
127.392923171
126.525499966
125.626154154
124.694058843
123.728398602
122.728372478
121.693197479
120.62211248
119.514382706
118.369305317
117.186215711
115.96449497
114.703578895
113.402968215
112.062240681
110.681065904
109.259222323
107.796617719
106.293314004
104.749557513
103.165814078
101.542811564
99.8815928708
98.1835801366
96.4506476028
94.6852081164
92.8903166611
91.0697912411
89.2283550911
87.3717982011
85.5071810932
83.6430965417
81.7900587345
79.9611504205
78.1724098023
76.4425247342
146.499607531
146.267980898
145.966698612
145.655825675
145.351077705
145.059133061
144.780224376
144.511155512
144.24824474
143.988203494
143.728272731
143.466216209
143.200242423
142.928903204
142.651002676
142.365524613
142.071577023
141.768351169
141.455091988
141.131077134
140.795602247
140.447970609
140.087486763
139.713451435
139.325158023
138.921891994
138.502928991
138.067534144
137.614961802
137.144455497
136.655248098
136.14656208
135.617609946
135.067594732
134.495710587
133.901143447
133.283071745
132.64066727
131.973096069
131.279519418
130.559094982
129.810978204
129.034323754
128.228287096
127.392026389
126.524704612
125.625491924
124.693568371
123.728126832
122.728376503
121.693546492
120.622890385
119.515691177
118.371267327
117.188980113
115.968241548
114.708523707
113.409371648
112.070416468
110.691391154
109.272149322
107.81268781
106.313173096
104.773972861
103.19569352
101.579224232
99.9257875672
98.2369998486
96.514939616
94.7622245706
92.9820963692
91.1785127932
89.356247417
87.5209959295
85.679507797
83.839774281
82.0114128141
80.2065739517
78.4407727499
76.733865518
146.833662617
146.470490955
146.070748562
145.701880361
145.36436942
145.056356569
144.771068489
144.500428402
144.2381113
143.979492112
143.721154424
143.460568077
143.195834446
142.925487379
142.64835189
142.363446578
142.069916278
141.766985871
141.453928805
141.13004609
140.79465205
140.447063109
140.086595204
139.712555632
139.324244187
138.920950631
138.501953724
138.066520887
137.613908016
137.143359693
136.65410957
136.145380752
135.61638624
135.066329505
134.494405142
133.899799714
133.281692578
132.639256553
131.971658864
131.278062393
130.557626859
129.809509224
129.032866244
128.226855995
127.390639803
126.523384461
125.624264795
124.692466615
123.727189757
122.72765189
121.693091817
120.622775018
119.515998999
118.372099634
117.190459143
115.970515036
114.711771504
113.413810625
112.076307313
110.699046732
109.281944375
107.825069797
106.328674443
104.793224328
103.219438396
101.60833294
99.9612723322
98.280026228
96.5668320663
94.8244619837
93.0562916931
91.2663676065
89.4594651664
87.6411343782
85.8177370225
83.9964860784
82.185677015
80.395680598
78.6397014478
76.93637034
147.38343577
146.729495204
146.1773165
145.739834462
145.368326353
145.046321023
144.757301157
144.487134515
144.226728848
143.970297423
143.713956998
143.455027305
143.19159748
142.922241551
142.645839367
142.361463306
142.068305097
141.765628359
141.452737244
141.128956346
140.793617538
140.446050583
140.085576524
139.711515132
139.323170949
138.919836989
138.500794563
138.065312943
137.612649515
137.142049842
136.652748273
136.143968526
135.614924189
135.064819292
134.492848936
133.898199839
133.280050512
132.637575021
131.969941517
131.276313469
130.555851047
129.807713397
129.031059179
128.225048601
127.38884556
126.521619955
125.622550364
124.690827029
123.725655119
122.726258258
121.691883652
120.621806304
119.515335161
118.371819804
117.190658867
115.971309233
114.713297401
113.416233786
112.079826919
110.70390166
109.288420431
107.833508111
106.339480949
104.806880215
103.23651112
101.629486944
99.9872789145
98.3117704678
96.6053147558
94.8707975941
93.1116924106
91.332109124
89.5368200441
87.7312530128
85.9214232133
84.1137147684
82.3147807124
80.5321653423
78.7729640193
77.0458138535
148.37867338
147.020857187
146.230109771
145.730266212
145.339425264
145.015668934
144.731256755
144.466750191
144.211347633
143.958902844
143.705590212
143.448897432
143.187088332
142.91888692
142.643292867
142.359471096
142.066683435
141.76424545
141.451499972
141.12779842
140.792481199
140.444898937
140.084399659
139.710299975
139.321908201
138.918520738
138.499420541
138.063875871
137.61114577
137.140477312
136.651105456
136.142254265
135.613137614
135.062959812
134.490916335
133.896194819
133.277976628
132.635434832
131.96773766
131.274049428
130.553531472
129.805343447
129.028645038
128.222597855
127.386367506
126.51912601
125.620054491
124.688346323
123.723210443
122.72387503
121.689592324
120.619643628
119.513345558
118.370056945
117.189187635
115.970208545
114.712663268
113.416180778
112.080492428
110.705450331
109.291049079
107.837451158
106.345016366
104.814335858
103.246271368
101.641999723
100.003062141
98.3314159234
96.6294884101
94.9002536917
93.1472596108
91.3746745955
89.5873034643
87.790563606
85.9903515575
84.19253253
82.4026342705
80.6254136781
78.8556746694
77.0637848283
150.171781896
147.243683793
146.130155163
145.603083493
145.235982758
144.941408464
144.679949974
144.431583132
144.18722636
143.942312864
143.694147849
143.440978663
143.181575225
142.915003934
142.640500041
142.357392319
142.065057049
141.76288968
141.450287714
141.126643693
140.791352443
140.443773991
140.083239431
139.70908353
139.32062416
138.917162147
138.497983715
138.062363882
137.609560367
137.138818714
136.64937392
136.140450208
135.611261525
135.061012223
134.488897774
133.89410554
133.275815753
132.633202485
131.9654346
131.271676748
130.551090623
129.802836476
129.02607474
128.219967844
127.383682311
126.516391352
125.61727741
124.685535419
123.720376216
122.721030316
121.686752717
120.616828017
119.510576786
118.36736268
117.186601147
115.967769629
114.7104195
113.414189874
112.078823753
110.704186921
109.290290167
107.837315052
106.345643863
104.815894275
103.248958736
101.646049185
100.008746922
98.339059758
96.6394831354
94.9130236419
93.1632866371
91.3945094705
89.6115816376
87.8200226808
86.0258815173
84.2356631316
82.4558000211
80.691110111
78.9212258863
77.0215094082
56.9727552191
53.421006317
51.0299791799
49.0734128253
47.4026908471
45.9475467949
44.6638632126
43.5217663621
42.4994052806
41.5798684116
40.7496157005
39.9975520132
39.314434349
38.6924697288
38.1250239686
37.6064017066
37.1316753839
36.6965499037
36.2972553743
35.9304621382
35.5932129248
35.2828699718
34.9970716444
34.7336976132
34.490839349
34.2667749329
34.0599476999
33.8689469679
33.6924922108
33.529418699
33.3786654119
33.2392641663
33.1103296694
32.9910507514
32.8806818994
32.7785361161
32.6839790295
32.5964249928
32.515348135
32.4403417832
32.371094637
32.3070621314
32.2478008504
32.1929539623
32.1421924118
32.0952008056
32.0516989747
32.0114174348
31.9741088857
31.9395437144
31.9075090753
31.8778069782
31.8502535218
31.8246789228
31.8009258315
31.7788480215
31.7583100558
31.7391860029
31.7213591196
31.7047204692
31.6891718637
31.6746216948
31.6609851039
31.6481834447
31.636143863
31.6247992094
31.6140877594
31.6039528774
31.5943428878
31.5852108366
31.5765186676
31.5682221659
31.5602820454
31.5526655778
31.5453435279
31.5382832561
31.5314575261
31.5248472841
31.5184469203
31.5122205684
31.506145652
31.5002045869
31.4943824735
31.4886651564
31.4830383928
31.4774905873
31.4720116345
31.4665927208
31.4612230988
31.4558934798
31.4505951824
31.4453224908
31.4400680234
31.4348250567
31.4295865625
31.4243477715
31.4191030855
31.4138462377
31.4085704827
31.4032706535
31.3979415355
31.3925768803
31.3871704791
31.3817173187
31.3762127284
31.3706502833
31.3650225909
31.3593219522
31.3535416948
31.3476738983
31.3417103049
31.335642804
31.329462237
31.3231564554
31.3167129846
31.3101214776
31.3033695263
31.2964423814
31.289324178
31.2819969413
31.2744418891
31.2666411774
31.2585740853
31.2502158624
31.2415366033
31.2325078691
31.2231012298
31.2132829273
31.2030126764
31.192245631
31.1809292957
31.1690085535
31.1564104111
31.14304889
31.128809978
31.1135678237
31.0971400654
31.0793076566
31.0597963255
31.0382409088
31.0140914927
30.9870889853
30.9559077671
30.9192461456
30.8747328774
30.8186592321
30.7433005078
30.6317821772
30.448505008
30.128129847
29.5693458871
28.6422856188
27.2154936529
25.1939416425
22.54603494
19.3215590148
15.6346245603
11.4521683675
6.49889344381
1.53601715717
60.1544022353
56.1015686223
53.3900836182
51.2386925511
49.4381552413
47.8899720737
46.5357889232
45.3382009173
44.2708563296
43.3139612496
42.4520483609
41.6726910251
40.9657002876
40.3225980119
39.7362440223
39.2005631028
38.7103382041
38.2610500217
37.8487524972
37.4699749667
37.1216469284
36.8010366418
36.505705247
36.2334669882
35.9823578094
35.7506081676
35.5366196834
35.3389455334
35.1562730915
34.9874089992
34.8312677063
34.6868587849
34.5532795153
34.4297036214
34.3153755108
34.2096013914
34.1117450995
34.0212208564
33.9374823548
33.8599964753
33.7881950219
33.7217620219
33.660296262
33.6034050365
33.5507417111
33.5019960328
33.4568670342
33.4150825515
33.3763880115
33.3405463422
33.3073368445
33.2765555889
33.2480139143
33.2215424769
33.1969710273
33.1741458056
33.1529251698
33.1331788446
33.1147863255
33.0976393078
33.0816296018
33.0666603448
33.0526439205
33.0394987555
33.0271489707
33.0155244688
33.0045629867
32.9942042977
32.9843936699
32.9750781785
32.9662058816
32.9577385864
32.9496409398
32.9418770473
32.9344129808
32.9272206691
32.9202733872
32.9135459292
32.907012087
32.9006520569
32.8944470797
32.8883824263
32.8824430634
32.8766142139
32.8708825289
32.8652344883
32.8596617915
32.8541526114
32.8486993475
32.8432881367
32.8379158355
32.8325702527
32.8272501134
32.8219421601
32.8166452005
32.8113493397
32.8060534171
32.800746904
32.7954259429
32.7900841394
32.7847162553
32.7793171729
32.7738784529
32.7683974016
32.7628672278
32.7572845133
32.7516372892
32.7459236197
32.7401321563
32.7342594099
32.7282941467
32.7222300746
32.716058363
32.7097653802
32.703342644
32.6967762194
32.6900601724
32.6831759349
32.6761108913
32.6688463386
32.6613669543
32.6536568763
32.6456969519
32.6374658122
32.6289341983
32.6200803655
32.6108778283
32.6012993707
32.5913108434
32.58086757
32.5699284668
32.5584455501
32.5463550442
32.5335851046
32.5200311306
32.5055738973
32.4900555851
32.4732682497
32.4549582129
32.4347769183
32.4122764995
32.3867936566
32.3572461602
32.322031534
32.278152855
32.2209264607
32.1405724361
32.016868497
31.8088911541
31.4447745386
30.817220577
29.7938273013
28.2467460697
26.0910098447
23.3069686912
19.9490032762
16.1291149804
11.8285722023
6.78565246318
1.66864806796
62.3621427195
58.4286147735
55.5620240215
53.2791498229
51.3786716047
49.7540117652
48.3399896947
47.094418444
45.9877006287
44.9978201231
44.1077595572
43.303991657
42.5755330707
41.9133239847
41.3097925247
40.7585384573
40.2540969368
39.7917570207
39.367422355
38.9775031701
38.6188323724
38.2885999891
37.9843015076
37.703696565
37.4447742506
37.2057246405
36.9849144509
36.780865881
36.5922390461
36.4178158523
36.2564883306
36.1072448663
35.9691618186
35.8413926371
35.7231605707
35.6137496172
35.5124997892
35.4188009472
35.3320920112
35.2518642351
35.1776235942
35.1088352447
35.0451487226
34.9862106995
34.931666176
34.8812005338
34.834498695
34.7912667249
34.7512423542
34.7141801756
34.6798521518
34.648046032
34.6185641621
34.5912175685
34.5658410872
34.5422784908
34.520383182
34.5000202065
34.4810625006
34.4633899989
34.4468996438
34.4314934046
34.4170787433
34.4035683682
34.3908855394
34.3789569029
34.3677134153
34.3570924667
34.3470416623
34.3375090357
34.3284477603
34.3198141876
34.3115678047
34.3036710181
34.2960897091
34.2887927753
34.2817517913
34.2749421246
34.268339573
34.2619220517
34.2556678274
34.2495597841
34.2435817257
34.2377180262
34.2319555896
34.2262801477
34.2206825437
34.2151498663
34.209675033
34.2042444438
34.1988550106
34.1934934623
34.1881579868
34.1828358776
34.1775259286
34.172218052
34.1669104616
34.1615933261
34.1562625205
34.150912398
34.145537122
34.1401316683
34.1346882446
34.1292042959
34.1236719474
34.1180881005
34.1124422815
34.1067326833
34.1009481222
34.095085464
34.0891347878
34.0830881888
34.0769374815
34.070670126
34.0642790298
34.0577518809
34.0510826204
34.044252299
34.0372503411
34.0300611328
34.022669254
34.0150611551
34.0072188305
33.9991251612
33.9907539611
33.9820865493
33.9731029871
33.9637776555
33.9540788718
33.9439753639
33.9334298953
33.9224044358
33.9108414031
33.8986842963
33.8858430146
33.8722052072
33.8576335714
33.8419453185
33.8249112435
33.8061937422
33.7852892044
33.7615116354
33.7337434781
33.7001032454
33.6569145201
33.5984940954
33.5129166187
33.3766112238
33.1434219384
32.7353968785
32.0400047977
30.923205618
29.2612070225
26.9784747212
24.0656149876
20.579802262
16.6296290471
12.2100241479
7.07371795193
1.79966356774
64.1665581716
60.4419668339
57.5386338649
55.1845984408
53.2160628289
51.5335761021
50.0718227831
48.7867511634
47.6469423816
46.6289225853
45.7145656707
44.8895163344
44.142175147
43.4630226688
42.8441423012
42.2788727568