/*--------------------------------*- C++ -*----------------------------------*\
| =========                 |                                                 |
| \\      /  F ield         | OpenFOAM: The Open Source CFD Toolbox           |
|  \\    /   O peration     | Version:  2106                                  |
|   \\  /    A nd           | Website:  www.openfoam.com                      |
|    \\/     M anipulation  |                                                 |
\*---------------------------------------------------------------------------*/
FoamFile
{
    version     2.0;
    format      ascii;
    arch        "LSB;label=32;scalar=64";
    class       surfaceScalarField;
    location    "0.26";
    object      phi;
}
// * * * * * * * * * * * * * * * * * * * * * * * * * * * * * * * * * * * * * //

dimensions      [0 3 -1 0 0 0 0];

oriented        oriented;

internalField   nonuniform List<scalar> 
18840
(
3.37543038632e-05
1.62456961445e-05
2.25359629613e-05
1.12183420679e-05
1.63023780124e-05
6.2335842671e-06
1.28098249228e-05
3.49255286142e-06
1.08065798364e-05
2.00324513155e-06
9.60476899619e-06
1.20181081787e-06
8.85167845501e-06
7.53090443483e-07
8.36503055911e-06
4.86647819589e-07
8.04518599047e-06
3.1984459063e-07
7.83374177787e-06
2.11444135641e-07
7.69428172016e-06
1.3945995181e-07
7.60308001599e-06
9.12016993508e-08
7.54426514416e-06
5.88148901109e-08
7.50707690914e-06
3.71882587606e-08
7.4841890298e-06
2.2887963692e-08
7.47062354575e-06
1.35655753239e-08
7.46302097981e-06
7.60259007499e-09
7.45913814143e-06
3.88278365462e-09
7.45749830876e-06
1.63973465662e-09
7.45714516408e-06
3.53066219353e-10
7.45748247282e-06
-3.37380807243e-10
7.45813350614e-06
-6.51096712952e-10
7.45888552009e-06
-7.52041684683e-10
7.45961925187e-06
-7.3374506043e-10
7.46027576395e-06
-6.56473871631e-10
7.46083226407e-06
-5.56425534978e-10
7.46128642566e-06
-4.54142794832e-10
7.46164657315e-06
-3.60232285297e-10
7.46192567465e-06
-2.79235269097e-10
7.46213785173e-06
-2.12254372491e-10
7.4622964395e-06
-1.58589625275e-10
7.46241312754e-06
-1.16673243938e-10
7.46249773585e-06
-8.46185280713e-11
7.46255824578e-06
-6.05332419698e-11
7.46260096703e-06
-4.27028163527e-11
7.46263073585e-06
-2.96928104655e-11
7.4626511784e-06
-2.0356959864e-11
7.46266498984e-06
-1.37790257405e-11
7.46267416978e-06
-9.20949470586e-12
7.46268020643e-06
-6.0596889763e-12
7.46268418098e-06
-3.91658617081e-12
7.46268684418e-06
-2.52763945351e-12
7.46268861173e-06
-1.61416892719e-12
7.46268971237e-06
-9.6803675262e-13
7.46269045218e-06
-6.15239940773e-13
7.46269099755e-06
-4.19692587989e-13
7.46269144195e-06
-3.26490957545e-13
7.46269182937e-06
-2.78749519875e-13
7.46269221508e-06
-2.56944878863e-13
7.46269264208e-06
-2.62014297649e-13
7.46269309625e-06
-2.90080277907e-13
7.46269353164e-06
-3.2322185213e-13
7.46269396339e-06
-3.50606108649e-13
7.46269444367e-06
-3.88035038107e-13
7.46269497178e-06
-4.25518082716e-13
7.46269554384e-06
-4.40307564355e-13
7.46269615033e-06
-4.62870731627e-13
7.46269676647e-06
-5.11460363718e-13
7.46269739447e-06
-5.61001935897e-13
7.46269806795e-06
-5.93011640467e-13
7.46269877995e-06
-6.19376225742e-13
7.46269948516e-06
-6.42232448495e-13
7.46270017814e-06
-6.58380281273e-13
7.4627008811e-06
-6.81235435869e-13
7.46270160064e-06
-7.21550470972e-13
7.46270233207e-06
-7.69601963667e-13
7.46270308351e-06
-8.12298127944e-13
7.46270387722e-06
-8.48829824541e-13
7.46270473984e-06
-8.86052485393e-13
7.46270568034e-06
-9.30011352205e-13
7.46270667599e-06
-9.74933790753e-13
7.46270770709e-06
-1.00715207344e-12
7.46270878585e-06
-1.02456854554e-12
7.46270991601e-06
-1.03771788165e-12
7.46271105775e-06
-1.04940350608e-12
7.46271217406e-06
-1.06640852423e-12
7.46271326969e-06
-1.11995086673e-12
7.46271439094e-06
-1.21610839289e-12
7.46271559604e-06
-1.30556250999e-12
7.46271690069e-06
-1.34259220107e-12
7.46271826498e-06
-1.36010681126e-12
7.46271963757e-06
-1.42505000917e-12
7.46272103212e-06
-1.52669606107e-12
7.46272252882e-06
-1.58743549039e-12
7.46272416804e-06
-1.57872290304e-12
7.46272589197e-06
-1.57091397246e-12
7.46272762911e-06
-1.63979031506e-12
7.46272939446e-06
-1.76071837351e-12
7.46273124394e-06
-1.84417785206e-12
7.46273319233e-06
-1.85484643705e-12
7.46273523012e-06
-1.85174469435e-12
7.46273734233e-06
-1.89923633075e-12
7.46273951027e-06
-1.98299308487e-12
7.46274173381e-06
-2.0591089805e-12
7.46274402689e-06
-2.13702887499e-12
7.46274639117e-06
-2.25416526435e-12
7.46274884516e-06
-2.40043411046e-12
7.46275144043e-06
-2.54270668869e-12
7.46275417845e-06
-2.67997310841e-12
7.46275705984e-06
-2.86405594259e-12
7.46276019149e-06
-3.15658584565e-12
7.46276367018e-06
-3.53158090581e-12
7.46276754956e-06
-3.91799463096e-12
7.46277185516e-06
-4.30826457153e-12
7.4627766661e-06
-4.81504050228e-12
7.46278214285e-06
-5.55527678493e-12
7.46278841075e-06
-6.48651084227e-12
7.46279571662e-06
-7.53014435013e-12
7.46280438659e-06
-8.75363208823e-12
7.46281471918e-06
-1.0247999521e-11
7.46282709832e-06
-1.21394281425e-11
7.46284192555e-06
-1.46270346585e-11
7.4628597303e-06
-1.77954982037e-11
7.46288132481e-06
-2.17141044967e-11
7.46290768151e-06
-2.64947731187e-11
7.46293998734e-06
-3.23787176497e-11
7.46297958521e-06
-3.96791194354e-11
7.46302821951e-06
-4.87031787369e-11
7.46308825186e-06
-5.99093362352e-11
7.46316222874e-06
-7.38749562046e-11
7.46325333787e-06
-9.1128840901e-11
7.46336574239e-06
-1.12501903081e-10
7.46350476395e-06
-1.3921162746e-10
7.46367790012e-06
-1.73340306703e-10
7.4638948209e-06
-2.1665568695e-10
7.4641596483e-06
-2.64606367594e-10
7.46448630065e-06
-3.26910161823e-10
7.4648905362e-06
-4.04479783498e-10
7.46539125135e-06
-5.00777391631e-10
7.46601121568e-06
-6.2026383669e-10
7.46677900391e-06
-7.68090472263e-10
7.4677302697e-06
-9.51150391814e-10
7.46890871452e-06
-1.17811824939e-09
7.47036853355e-06
-1.45956763016e-09
7.47217723826e-06
-1.80851727587e-09
7.47441865647e-06
-2.24117537808e-09
7.47719690562e-06
-2.77792822802e-09
7.48064146936e-06
-3.44420609718e-09
7.4849137714e-06
-4.27181465432e-09
7.49021490529e-06
-5.3006989296e-09
7.49679584726e-06
-6.58081386626e-09
7.50497130836e-06
-8.1752364247e-09
7.51513616463e-06
-1.0164499617e-08
7.52778674082e-06
-1.26508638452e-08
7.54355167739e-06
-1.5765396771e-08
7.56322999975e-06
-1.96784046794e-08
7.58784243073e-06
-2.46125959943e-08
7.61870536327e-06
-3.08631656131e-08
7.65753224386e-06
-3.88272815685e-08
7.70658116508e-06
-4.90495663918e-08
7.76888080085e-06
-6.2299984238e-08
7.84859972631e-06
-7.97189173454e-08
7.95173137052e-06
-1.0313167163e-07
8.08759130237e-06
-1.35859797351e-07
8.27266158819e-06
-1.85069910921e-07
8.54147099075e-06
-2.68809007453e-07
8.9788831956e-06
-4.37412121473e-07
9.82275098176e-06
-8.43867598915e-07
1.18047835222e-05
-1.98203209322e-06
-5.37070442975e-06
1.71754888193e-05
5.01388811508e-05
1.6106813803e-05
4.41591295977e-05
1.71980946351e-05
3.77598738611e-05
1.26328399668e-05
3.26495143302e-05
8.60291200237e-06
2.89465818957e-05
5.70617742409e-06
2.6367602957e-05
3.78078976676e-06
2.45938850803e-05
2.52680834434e-06
2.33783980562e-05
1.70213468892e-06
2.25473235213e-05
1.15091906884e-06
2.19811565111e-05
7.77611155854e-07
2.15978040473e-05
5.22812340967e-07
2.13405410599e-05
3.48464670879e-07
2.11699436713e-05
2.29412370564e-07
2.10585360716e-05
1.48595968909e-07
2.09871851058e-05
9.42390112366e-08
2.09426216261e-05
5.81290617965e-08
2.09157070556e-05
3.45170673056e-08
2.09002071707e-05
1.93825260437e-08
2.08919195763e-05
9.92714130364e-09
2.08880543497e-05
4.21812020791e-09
2.08867846334e-05
9.32188701419e-10
2.08869495811e-05
-8.16175391293e-10
2.08878279119e-05
-1.63037354112e-09
2.08889864869e-05
-1.89220842501e-09
2.08901799495e-05
-1.84984922564e-09
2.08912804922e-05
-1.65700444262e-09
2.08922318901e-05
-1.40568038343e-09
2.08930194886e-05
-1.14796406907e-09
2.08936510296e-05
-9.10840778749e-10
2.08941449034e-05
-7.06102187556e-10
2.08945231784e-05
-5.36779016515e-10
2.0894807738e-05
-4.01149687894e-10
2.08950183911e-05
-2.95199692701e-10
2.08951720632e-05
-2.14119085747e-10
2.08952826296e-05
-1.53167193905e-10
2.08953611028e-05
-1.08089718424e-10
2.08954160279e-05
-7.52576066467e-11
2.08954539337e-05
-5.16818877036e-11
2.08954797181e-05
-3.49735497819e-11
2.08954970028e-05
-2.32753430348e-11
2.08955083962e-05
-1.51922243648e-11
2.08955157184e-05
-9.69899884736e-12
2.08955203284e-05
-6.0621608706e-12
2.08955232382e-05
-3.70859309987e-12
2.08955250163e-05
-2.20219861119e-12
2.08955260488e-05
-1.22462054337e-12
2.08955266373e-05
-6.73608096749e-13
2.08955270518e-05
-4.53280571901e-13
2.08955273835e-05
-3.37685019353e-13
2.08955277037e-05
-2.94603966956e-13
2.0895528027e-05
-3.12619774106e-13
2.08955283178e-05
-3.87911824261e-13
2.08955285884e-05
-4.63854142895e-13
2.08955289239e-05
-5.16762620744e-13
2.08955293279e-05
-5.73293483701e-13
2.08955297539e-05
-6.4841443422e-13
2.08955301979e-05
-7.45005051641e-13
2.08955306655e-05
-8.57992677026e-13
2.08955311601e-05
-9.49847525619e-13
2.08955316985e-05
-1.00355355622e-12
2.08955322715e-05
-1.05008776419e-12
2.08955328332e-05
-1.11359557922e-12
2.0895533372e-05
-1.17999220934e-12
2.08955339173e-05
-1.23349581334e-12
2.08955344816e-05
-1.29396539507e-12
2.08955350544e-05
-1.37705212271e-12
2.08955356441e-05
-1.47129923686e-12
2.0895536272e-05
-1.54672343573e-12
2.08955369545e-05
-1.58722337653e-12
2.08955376941e-05
-1.60823886414e-12
2.08955384783e-05
-1.64510739004e-12
2.08955392952e-05
-1.7037227455e-12
2.0895540159e-05
-1.7544703301e-12
2.08955410796e-05
-1.80215726984e-12
2.0895542002e-05
-1.87825791196e-12
2.08955428621e-05
-1.99314831794e-12
2.08955436802e-05
-2.12540378908e-12
2.0895544551e-05
-2.25028056698e-12
2.08955455383e-05
-2.35386705094e-12
2.08955466089e-05
-2.43741198502e-12
2.08955476949e-05
-2.52506439174e-12
2.08955487858e-05
-2.6393259354e-12
2.08955499422e-05
-2.75585795084e-12
2.08955512272e-05
-2.82903795617e-12
2.08955526206e-05
-2.8757957334e-12
2.08955540561e-05
-2.9602386131e-12
2.08955555359e-05
-3.08422858751e-12
2.08955571347e-05
-3.190107478e-12
2.08955588698e-05
-3.27056791624e-12
2.0895560686e-05
-3.37218628258e-12
2.08955625897e-05
-3.51754007356e-12
2.08955646501e-05
-3.70160950208e-12
2.08955668815e-05
-3.92523743638e-12
2.0895569237e-05
-4.19461566616e-12
2.08955717298e-05
-4.51688969258e-12
2.08955744561e-05
-4.89726114242e-12
2.08955774964e-05
-5.33304637435e-12
2.08955809183e-05
-5.84470719794e-12
2.08955847487e-05
-6.49361626751e-12
2.08955890306e-05
-7.30175639155e-12
2.08955939437e-05
-8.20880759444e-12
2.08955997211e-05
-9.26755899038e-12
2.08956065242e-05
-1.05887395733e-11
2.08956144475e-05
-1.22547613059e-11
2.0895623715e-05
-1.42942075908e-11
2.08956348045e-05
-1.67972478891e-11
2.08956481453e-05
-1.98679616065e-11
2.08956642e-05
-2.35617868734e-11
2.08956835034e-05
-2.79817822708e-11
2.08957063657e-05
-3.31026725677e-11
2.08957343883e-05
-4.01940040372e-11
2.08957694928e-05
-4.97677677599e-11
2.08958127463e-05
-6.1135342931e-11
2.08958660139e-05
-7.50750824735e-11
2.08959317133e-05
-9.22458221435e-11
2.08960128737e-05
-1.13523901523e-10
2.08961130956e-05
-1.39970442089e-10
2.08962368615e-05
-1.72655067487e-10
2.08963899855e-05
-2.13054017621e-10
2.08965793971e-05
-2.63118482142e-10
2.08968134251e-05
-3.25119626317e-10
2.08971027016e-05
-4.01868716611e-10
2.08974602143e-05
-4.9688161184e-10
2.08979009328e-05
-6.14412656197e-10
2.08984439544e-05
-7.60132807105e-10
2.08991212319e-05
-9.41918247493e-10
2.08999617769e-05
-1.16778022005e-09
2.09010039534e-05
-1.44717422726e-09
2.0902296075e-05
-1.792888344e-09
2.09038973997e-05
-2.22122578783e-09
2.09058812916e-05
-2.75186178534e-09
2.09083393365e-05
-3.40909503088e-09
2.09113848574e-05
-4.22346261032e-09
2.09151583769e-05
-5.23283902528e-09
2.09198344019e-05
-6.48418052715e-09
2.09256293821e-05
-8.03594017295e-09
2.09328123238e-05
-9.9609314965e-09
2.09417178055e-05
-1.23499338461e-08
2.09527624573e-05
-1.53166600531e-08
2.09664657462e-05
-1.90040001193e-08
2.09834760207e-05
-2.35911958325e-08
2.10046048778e-05
-2.93041536786e-08
2.10308711257e-05
-3.64302292658e-08
2.10635564132e-05
-4.53357353227e-08
2.1104281701e-05
-5.64902700555e-08
2.11551073246e-05
-7.05031447304e-08
2.12186679377e-05
-8.81728433705e-08
2.12983643716e-05
-1.10559572591e-07
2.1398635151e-05
-1.39097736376e-07
2.15253595737e-05
-1.75773830896e-07
2.1686489643e-05
-2.23430111876e-07
2.18930966214e-05
-2.86325840629e-07
2.21612272118e-05
-3.71262533573e-07
2.25154208262e-05
-4.90053889881e-07
2.2995716397e-05
-6.65365588585e-07
2.36719129736e-05
-9.45005779461e-07
2.46706991702e-05
-1.43619912997e-06
2.62133769253e-05
-2.38654585214e-06
2.86046498639e-05
-4.37330514938e-06
-8.56562199524e-06
3.17995670708e-05
5.35844262581e-05
1.25223868319e-05
5.29166007982e-05
1.78659203337e-05
4.96393015369e-05
1.59101394104e-05
4.5838216948e-05
1.24039964265e-05
4.24428744272e-05
9.10151981286e-06
3.9733159124e-05
6.49050507151e-06
3.76912452418e-05
4.56872233396e-06
3.6201166825e-05
3.19221298942e-06
3.51355933295e-05
2.21649244484e-06
3.43848442192e-05
1.52836024196e-06
3.38626585854e-05
1.04499789878e-06
3.35040061754e-05
7.07117014069e-07
3.32609622251e-05
4.72456394583e-07
3.3098720304e-05
3.10838018018e-07
3.2992290381e-05
2.00669013274e-07
3.29239192252e-05
1.26500226608e-07
3.28811292502e-05
7.73069437276e-08
3.28552505612e-05
4.52610653393e-08
3.28403339562e-05
2.48435805305e-08
3.28323539641e-05
1.21979991795e-08
3.28286280622e-05
4.65805575569e-09
3.28274041182e-05
4.07753884146e-10
3.28275635744e-05
-1.78979098478e-09
3.28284096882e-05
-2.73825069435e-09
3.28295258177e-05
-2.96597171295e-09
3.28306754477e-05
-2.80673206033e-09
3.28317355112e-05
-2.46589009775e-09
3.28326519368e-05
-2.06447752097e-09
3.28334105854e-05
-1.66950591756e-09
3.2834018882e-05
-1.31439814584e-09
3.28344945215e-05
-1.01243814898e-09
3.2834858773e-05
-7.65435027569e-10
3.28351327723e-05
-5.69198811395e-10
3.28353356121e-05
-4.16906462653e-10
3.28354835683e-05
-3.01041964484e-10
3.28355899662e-05
-2.14420809735e-10
3.28356654039e-05
-1.50664366113e-10
3.28357181391e-05
-1.04395403293e-10
3.28357544787e-05
-7.12619044081e-11
3.28357791595e-05
-4.78573097093e-11
3.28357956798e-05
-3.15782574247e-11
3.28358065768e-05
-2.04462716447e-11
3.28358136545e-05
-1.29646607623e-11
3.2835818176e-05
-8.02315068032e-12
3.28358210206e-05
-4.82426584669e-12
3.28358228127e-05
-2.79764765074e-12
3.28358239332e-05
-1.56494014218e-12
3.28358245748e-05
-8.46443551084e-13
3.28358249374e-05
-4.5238197562e-13
3.28358251731e-05
-3.20228713082e-13
3.28358253728e-05
-3.13883440566e-13
3.283582555e-05
-3.80584480819e-13
3.28358257082e-05
-4.79804324108e-13
3.28358259041e-05
-5.68766769694e-13
3.2835826161e-05
-6.76448897509e-13
3.28358264383e-05
-8.12851550794e-13
3.28358267323e-05
-9.51200937811e-13
3.28358270708e-05
-1.07441557205e-12
3.28358274454e-05
-1.17459010376e-12
3.2835827843e-05
-1.26045600633e-12
3.28358282601e-05
-1.35023520654e-12
3.28358286742e-05
-1.45479472239e-12
3.28358290682e-05
-1.55558289571e-12
3.28358294513e-05
-1.63940136945e-12
3.28358298342e-05
-1.71835500628e-12
3.28358302233e-05
-1.80971966002e-12
3.28358306328e-05
-1.90672368227e-12
3.28358310733e-05
-1.99239922964e-12
3.28358315485e-05
-2.05509645328e-12
3.28358320676e-05
-2.09980993273e-12
3.28358326282e-05
-2.140970431e-12
3.28358332136e-05
-2.1982223278e-12
3.28358338214e-05
-2.26425536512e-12
3.28358344496e-05
-2.33792995203e-12
3.28358350712e-05
-2.45470312259e-12
3.28358356462e-05
-2.63034564396e-12
3.28358361921e-05
-2.82130936327e-12
3.28358367876e-05
-2.97166097461e-12
3.28358374847e-05
-3.08623264889e-12
3.28358382376e-05
-3.2123624233e-12
3.28358389852e-05
-3.3624041101e-12
3.28358397518e-05
-3.50757066683e-12
3.28358406093e-05
-3.62383763058e-12
3.28358415778e-05
-3.72372238255e-12
3.28358426119e-05
-3.85247990601e-12
3.28358436842e-05
-4.0284753996e-12
3.28358448246e-05
-4.20059822053e-12
3.28358460854e-05
-4.32249339707e-12
3.28358474822e-05
-4.43800336688e-12
3.28358489817e-05
-4.62665344012e-12
3.28358505841e-05
-4.9012268173e-12
3.28358523529e-05
-5.23141388874e-12
3.2835854331e-05
-5.63030905059e-12
3.28358565031e-05
-6.14133750632e-12
3.28358588908e-05
-6.77033580514e-12
3.28358615936e-05
-7.49887654036e-12
3.28358646809e-05
-8.32593357456e-12
3.28358681855e-05
-9.28877842862e-12
3.28358721269e-05
-1.043229434e-11
3.28358766846e-05
-1.19576854262e-11
3.28358822759e-05
-1.39111607226e-11
3.28358890625e-05
-1.6095077693e-11
3.28358972586e-05
-1.87802065954e-11
3.28359071027e-05
-2.21871702256e-11
3.28359189417e-05
-2.6377432696e-11
3.28359334122e-05
-3.14294312407e-11
3.28359511975e-05
-3.7608853952e-11
3.28359730691e-05
-4.52876581178e-11
3.2836000152e-05
-5.48890308904e-11
3.2836033976e-05
-6.68619003957e-11
3.28360754592e-05
-8.17132033154e-11
3.28361258116e-05
-1.00183683929e-10
3.28361876328e-05
-1.23091468043e-10
3.28362638269e-05
-1.51403123484e-10
3.28363578254e-05
-1.86379589177e-10
3.2836473923e-05
-2.29696447597e-10
3.28366174332e-05
-2.8341614252e-10
3.28367947109e-05
-3.49955495014e-10
3.28370139063e-05
-4.3227779145e-10
3.2837284988e-05
-5.34231797003e-10
3.28376200986e-05
-6.60437939452e-10
3.28380345571e-05
-8.16508130462e-10
3.28385477174e-05
-1.00983121577e-09
3.28391829149e-05
-1.2495212924e-09
3.28399689256e-05
-1.54654968981e-09
3.28409415696e-05
-1.91473804106e-09
3.284214544e-05
-2.3716035746e-09
3.28436357315e-05
-2.93771205351e-09
3.28454813353e-05
-3.63868793572e-09
3.28477672887e-05
-4.50701614892e-09
3.28505984844e-05
-5.58279916427e-09
3.28541051992e-05
-6.9156287267e-09
3.28584489393e-05
-8.56714356939e-09
3.28638300265e-05
-1.06138324013e-08
3.28704970417e-05
-1.31508970054e-08
3.28787583657e-05
-1.62968431961e-08
3.28889971351e-05
-2.01991520892e-08
3.29016894317e-05
-2.50417959569e-08
3.2917427598e-05
-3.1054770313e-08
3.29369500889e-05
-3.85263386843e-08
3.29611777822e-05
-4.78185910514e-08
3.29912612064e-05
-5.93878347586e-08
3.30286430141e-05
-7.38123351591e-08
3.30751356389e-05
-9.18285005112e-08
3.31330249207e-05
-1.14379846982e-07
3.32052085485e-05
-1.42686860211e-07
3.32953802181e-05
-1.78344816572e-07
3.34082862215e-05
-2.23466212449e-07
3.35500868843e-05
-2.80898587946e-07
3.37288807575e-05
-3.54567551262e-07
3.39554973718e-05
-4.50046724563e-07
3.42447396851e-05
-5.7556789601e-07
3.46173849006e-05
-7.43907425465e-07
3.51034445164e-05
-9.76113279193e-07
3.57472549491e-05
-1.30917580499e-06
3.66142559198e-05
-1.81200655797e-06
3.77953092977e-05
-2.61725236897e-06
3.9386812477e-05
-3.97804885037e-06
4.13661878302e-05
-6.35268002335e-06
-1.04017642446e-05
4.32023300587e-05
5.35705198878e-05
8.9518667556e-06
5.5586305462e-05
1.58501345229e-05
5.52410587975e-05
1.62553861935e-05
5.35976157168e-05
1.40474394661e-05
5.15429057763e-05
1.11562296521e-05
4.95819402469e-05
8.45147050049e-06
4.7926251119e-05
6.22441157394e-06
4.66200397321e-05
4.4984243611e-06
4.56322337039e-05
3.20429836408e-06
4.49066874694e-05
2.25390642426e-06
4.4385442064e-05
1.56624326978e-06
4.40178326985e-05
1.07472636574e-06
4.37629122617e-05
7.27376913756e-07
4.35890448634e-05
4.8470553325e-07
4.34725016797e-05
3.17212239872e-07
4.33958686281e-05
2.03133213916e-07
4.3346590498e-05
1.26584910841e-07
4.33157562749e-05
7.60951168189e-08
4.3297134738e-05
4.34649503702e-08
4.32864330882e-05
2.2899535964e-08
4.3280739787e-05
1.03513723332e-08
4.32781170644e-05
3.03053606064e-09
4.32772903984e-05
-9.63081437618e-10
4.32774549178e-05
-2.90276205949e-09
4.32781063102e-05
-3.61740027938e-09
4.32789442842e-05
-3.64476660579e-09
4.32797992098e-05
-3.32086723846e-09
4.32805835174e-05
-2.84879092817e-09
4.32812593146e-05
-2.34529053984e-09
4.32818174173e-05
-1.87251183204e-09
4.32822640823e-05
-1.45912800783e-09
4.32826128128e-05
-1.11417613285e-09
4.32828795416e-05
-8.35912818231e-10
4.32830799487e-05
-6.17291998347e-10
4.32832281372e-05
-4.49209163824e-10
4.32833361003e-05
-3.2234274743e-10
4.32834136388e-05
-2.28134292245e-10
4.32834685495e-05
-1.59227018137e-10
4.32835068902e-05
-1.09552015524e-10
4.32835332867e-05
-7.42340088134e-11
4.32835512171e-05
-4.94629585696e-11
4.32835632295e-05
-3.23398424256e-11
4.32835711523e-05
-2.06934938789e-11
4.32835762891e-05
-1.29179699865e-11
4.32835795484e-05
-7.83659529144e-12
4.32835815491e-05
-4.58698457864e-12
4.32835827285e-05
-2.56566487792e-12
4.32835834368e-05
-1.37053695254e-12
4.32835839149e-05
-7.30293243779e-13
4.32835842335e-05
-4.4535501969e-13
4.32835844351e-05
-3.38730039206e-13
4.32835845847e-05
-3.44452306174e-13
4.32835846877e-05
-4.2681266935e-13
4.32835847681e-05
-5.14707124865e-13
4.32835848665e-05
-6.44336539915e-13
4.32835849796e-05
-8.05583841544e-13
4.32835851076e-05
-9.58445264252e-13
4.32835852686e-05
-1.07298400711e-12
4.32835854594e-05
-1.16961443569e-12
4.32835856489e-05
-1.26851498747e-12
4.32835858241e-05
-1.37437924482e-12
4.32835859831e-05
-1.48625710387e-12
4.32835861208e-05
-1.59881984539e-12
4.32835862327e-05
-1.70611944159e-12
4.32835863311e-05
-1.81860663362e-12
4.32835864318e-05
-1.93516203145e-12
4.32835865519e-05
-2.04590821708e-12
4.32835867033e-05
-2.14083264265e-12
4.32835868751e-05
-2.21831759359e-12
4.32835870409e-05
-2.27620226898e-12
4.32835872188e-05
-2.32642880267e-12
4.32835874353e-05
-2.38955301708e-12
4.32835876599e-05
-2.46032152658e-12
4.32835878686e-05
-2.54722942445e-12
4.32835880423e-05
-2.67247859325e-12
4.32835881785e-05
-2.84727307702e-12
4.32835883058e-05
-3.02729642929e-12
4.32835884648e-05
-3.1697679362e-12
4.32835886768e-05
-3.29724061602e-12
4.32835889178e-05
-3.44855880389e-12
4.32835891569e-05
-3.622165608e-12
4.32835894155e-05
-3.7946110042e-12
4.32835897433e-05
-3.96136470905e-12
4.32835901492e-05
-4.13253190057e-12
4.32835906148e-05
-4.32140726211e-12
4.32835911532e-05
-4.52550462738e-12
4.32835917856e-05
-4.7117041922e-12
4.32835925174e-05
-4.86894298162e-12
4.32835933568e-05
-5.06898001422e-12
4.32835943091e-05
-5.40603073296e-12
4.32835953967e-05
-5.85615722577e-12
4.32835966671e-05
-6.34181795176e-12
4.32835981581e-05
-6.90899300965e-12
4.32835998904e-05
-7.6629583183e-12
4.32836019139e-05
-8.63096197738e-12
4.32836043381e-05
-9.78742056197e-12
4.32836072432e-05
-1.1143049758e-11
4.32836107128e-05
-1.27583084667e-11
4.32836149896e-05
-1.47217299982e-11
4.32836202396e-05
-1.71415610682e-11
4.32836264631e-05
-2.00503513389e-11
4.32836339579e-05
-2.35515117811e-11
4.32836430555e-05
-2.7859195846e-11
4.32836541557e-05
-3.32531955391e-11
4.32836676661e-05
-3.99147935646e-11
4.32836842202e-05
-4.80219682512e-11
4.32837045804e-05
-5.79785381968e-11
4.32837296167e-05
-7.03389989851e-11
4.32837604863e-05
-8.57226195879e-11
4.32837985306e-05
-1.04850361244e-10
4.3283845445e-05
-1.28621475732e-10
4.32839033773e-05
-1.58150671291e-10
4.32839749456e-05
-1.94725192078e-10
4.32840634117e-05
-2.39955561899e-10
4.3284172692e-05
-2.95871509978e-10
4.32843077687e-05
-3.64995473106e-10
4.32844749144e-05
-4.5060422223e-10
4.32846816054e-05
-5.56646077539e-10
4.32849372235e-05
-6.87880668654e-10
4.32852535101e-05
-8.50439431605e-10
4.32856447334e-05
-1.05176069278e-09
4.32861286348e-05
-1.3008568919e-09
4.3286727796e-05
-1.60908035672e-09
4.32874696537e-05
-1.9910842704e-09
4.32883876129e-05
-2.46460618067e-09
4.32895239473e-05
-3.05120962977e-09
4.32909307597e-05
-3.77820952138e-09
4.32926721665e-05
-4.67899690085e-09
4.32948280526e-05
-5.7947363303e-09
4.32974976517e-05
-7.17669002351e-09
4.33008033896e-05
-8.88855714063e-09
4.33048970789e-05
-1.10093498659e-08
4.33099669742e-05
-1.3637104286e-08
4.33162463683e-05
-1.68934246116e-08
4.33240246872e-05
-2.09294401699e-08
4.3333660987e-05
-2.59331876742e-08
4.3345601004e-05
-3.21388956531e-08
4.33603981641e-05
-3.98387055612e-08
4.33787403462e-05
-4.93970810126e-08
4.34014841054e-05
-6.12699880858e-08
4.34296961028e-05
-7.60300353303e-08
4.34647061349e-05
-9.43978561769e-08
4.35081776293e-05
-1.17283889431e-07
4.35621944182e-05
-1.45844881274e-07
4.36293737133e-05
-1.81558947082e-07
4.37130168254e-05
-2.26329767695e-07
4.381730558e-05
-2.82633375232e-07
4.39475676098e-05
-3.53728477396e-07
4.41106398274e-05
-4.43970933052e-07
4.43153710858e-05
-5.59298557403e-07
4.45733314953e-05
-7.0800722427e-07
4.48998168084e-05
-9.02053368721e-07
4.53152344882e-05
-1.15932483219e-06
4.58468477551e-05
-1.50772635476e-06
4.65303157512e-05
-1.99264369509e-06
4.74086807451e-05
-2.69037135736e-06
4.85216725466e-05
-3.73024461531e-06
4.98669165114e-05
-5.32329352919e-06
5.12919970194e-05
-7.77776070474e-06
-1.14047111763e-05
5.22949440227e-05
5.27606085223e-05
6.19125840781e-06
5.57402403986e-05
1.28705023001e-05
5.73124118059e-05
1.4683214822e-05
5.76111977401e-05
1.37486535963e-05
5.71338684836e-05
1.16335590185e-05
5.63199839308e-05
9.26535495676e-06
5.54496448935e-05
7.09475068047e-06
5.46637028482e-05
5.28436641604e-06
5.40144128665e-05
3.85358818094e-06
5.35068422202e-05
2.76147693349e-06
5.31248777147e-05
1.94820771717e-06
5.28455237083e-05
1.35408035842e-06
5.26458875958e-05
9.27013090356e-07
5.25060750348e-05
6.24518163868e-07
5.24099974001e-05
4.13289862697e-07
5.23452158127e-05
2.67914693742e-07
5.23024107399e-05
1.6938980346e-07
5.22747657656e-05
1.03739960204e-07
5.22573935435e-05
6.08371194162e-08
5.22468514692e-05
3.34416013842e-08
5.22407552506e-05
1.64476485747e-08
5.22374822882e-05
6.30355777336e-09
5.22359410593e-05
5.78140958216e-10
5.22354257384e-05
-2.38750978612e-09
5.22354776416e-05
-3.669386558e-09
5.223581248e-05
-3.97964744604e-09
5.22362597486e-05
-3.76814579578e-09
5.22367225864e-05
-3.31163857415e-09
5.2237150422e-05
-2.77316134494e-09
5.22375208443e-05
-2.24298782116e-09
5.22378278093e-05
-1.76613146861e-09
5.22380741195e-05
-1.3604998477e-09
5.22382668203e-05
-1.02860938332e-09
5.2238414465e-05
-7.64923059521e-10
5.22385255794e-05
-5.60294237808e-10
5.22386078675e-05
-4.04579642913e-10
5.22386678845e-05
-2.88094400167e-10
5.22387110292e-05
-2.02311745413e-10
5.2238741624e-05
-1.40083922558e-10
5.22387630363e-05
-9.55790049727e-11
5.22387778388e-05
-6.41671748255e-11
5.22387879499e-05
-4.22970140634e-11
5.22387947727e-05
-2.73088364849e-11
5.22387993239e-05
-1.72219316413e-11
5.22388023272e-05
-1.05734399569e-11
5.22388042822e-05
-6.28464885363e-12
5.22388055249e-05
-3.5793227106e-12
5.22388062907e-05
-1.92888594697e-12
5.22388067514e-05
-9.8482341725e-13
5.22388069996e-05
-5.10287983959e-13
5.22388071139e-05
-3.09385081356e-13
5.22388071627e-05
-2.74432955904e-13
5.22388071764e-05
-3.47806362271e-13
5.22388071802e-05
-4.69857996621e-13
5.22388072071e-05
-6.116925893e-13
5.22388072615e-05
-7.53422478282e-13
5.22388073215e-05
-8.71479978221e-13
5.22388073938e-05
-9.68859069641e-13
5.22388074751e-05
-1.0759148283e-12
5.22388075491e-05
-1.19746731661e-12
5.22388076159e-05
-1.31663563628e-12
5.22388076774e-05
-1.42962080917e-12
5.22388077063e-05
-1.5458847558e-12
5.22388076894e-05
-1.66620876454e-12
5.22388076407e-05
-1.78864580272e-12
5.22388075877e-05
-1.91075244971e-12
5.22388075524e-05
-2.02377765757e-12
5.22388075471e-05
-2.11468893861e-12
5.22388075629e-05
-2.17769509204e-12
5.2238807573e-05
-2.21536482694e-12
5.2238807569e-05
-2.24180259313e-12
5.22388075623e-05
-2.29140218707e-12
5.22388075584e-05
-2.38566997415e-12
5.22388075335e-05
-2.51835402483e-12
5.22388074577e-05
-2.67454942963e-12
5.22388073328e-05
-2.84095236507e-12
5.2238807209e-05
-3.00777114614e-12
5.2238807129e-05
-3.17256732693e-12
5.22388070891e-05
-3.33243781162e-12
5.22388070542e-05
-3.48690001563e-12
5.22388070021e-05
-3.64216203995e-12
5.22388069537e-05
-3.80759443638e-12
5.2238806945e-05
-3.9907824118e-12
5.22388069976e-05
-4.18515137977e-12
5.22388071223e-05
-4.37323460226e-12
5.22388073295e-05
-4.55523077032e-12
5.22388076012e-05
-4.75282773465e-12
5.22388079101e-05
-4.98700956207e-12
5.2238808278e-05
-5.29217294841e-12
5.22388087427e-05
-5.71617017999e-12
5.22388093278e-05
-6.27070842674e-12
5.22388100724e-05
-6.9489176646e-12
5.22388110332e-05
-7.78114734506e-12
5.22388122522e-05
-8.81191656458e-12
5.22388137588e-05
-1.00589305134e-11
5.22388156263e-05
-1.15517174851e-11
5.22388179401e-05
-1.33723225665e-11
5.22388207714e-05
-1.5601084959e-11
5.22388242791e-05
-1.82830036331e-11
5.2238828693e-05
-2.15395708516e-11
5.22388342649e-05
-2.55285698435e-11
5.22388411733e-05
-3.04183406491e-11
5.22388497238e-05
-3.64366691029e-11
5.22388604045e-05
-4.38659534594e-11
5.22388736855e-05
-5.3030972108e-11
5.2238890141e-05
-6.43576227699e-11
5.22389105219e-05
-7.84023086679e-11
5.22389357656e-05
-9.57935028945e-11
5.22389671594e-05
-1.17266523334e-10
5.22390061552e-05
-1.43842373162e-10
5.22390543382e-05
-1.76838912228e-10
5.22391138448e-05
-2.1778570733e-10
5.22391874788e-05
-2.68474123642e-10
5.22392786683e-05
-3.31213150834e-10
5.22393914947e-05
-4.08818851269e-10
5.22395310388e-05
-5.04756183544e-10
5.22397038696e-05
-6.23480494612e-10
5.22399178154e-05
-7.70544270862e-10
5.22401824833e-05
-9.52629918017e-10
5.22405101429e-05
-1.17804960596e-09
5.22409157634e-05
-1.45726320641e-09
5.22414177068e-05
-1.80289068181e-09
5.22420391038e-05
-2.23067442632e-09
5.22428086277e-05
-2.76053898426e-09
5.22437611075e-05
-3.41702897699e-09
5.22449401299e-05
-4.23020632605e-09
5.22463998084e-05
-5.23765002095e-09
5.22482067176e-05
-6.48578826795e-09
5.2250443594e-05
-8.03171232149e-09
5.22532132435e-05
-9.94638322756e-09
5.22566425436e-05
-1.23179922915e-08
5.226088879e-05
-1.52557656073e-08
5.22661470366e-05
-1.88952997872e-08
5.22726587903e-05
-2.34050058235e-08
5.22807234447e-05
-2.89939430001e-08
5.22907121355e-05
-3.59218303116e-08
5.23030851777e-05
-4.45119841656e-08
5.2318413776e-05
-5.51673830816e-08
5.23374067905e-05
-6.83903006614e-08
5.23609449374e-05
-8.48082617661e-08
5.23901229529e-05
-1.05207913358e-07
5.24263020032e-05
-1.30577171316e-07
5.24711784053e-05
-1.62160653344e-07
5.25268681461e-05
-2.01534420253e-07
5.2596013675e-05
-2.5070429845e-07
5.26819236894e-05
-3.12239664341e-07
5.27887504707e-05
-3.89459819792e-07
5.2921718132e-05
-4.86696043368e-07
5.30874193062e-05
-6.09672213535e-07
5.32941946423e-05
-7.66073577441e-07
5.35526061038e-05
-9.66418704432e-07
5.38759919616e-05
-1.2254394925e-06
5.42809884545e-05
-1.56432098244e-06