/*--------------------------------*- C++ -*----------------------------------*\
| =========                 |                                                 |
| \\      /  F ield         | OpenFOAM: The Open Source CFD Toolbox           |
|  \\    /   O peration     | Version:  2106                                  |
|   \\  /    A nd           | Website:  www.openfoam.com                      |
|    \\/     M anipulation  |                                                 |
\*---------------------------------------------------------------------------*/
FoamFile
{
    version     2.0;
    format      ascii;
    arch        "LSB;label=32;scalar=64";
    class       surfaceScalarField;
    location    "0.305";
    object      phi;
}
// * * * * * * * * * * * * * * * * * * * * * * * * * * * * * * * * * * * * * //

dimensions      [0 3 -1 0 0 0 0];

oriented        oriented;

internalField   nonuniform List<scalar> 
22100
(
3.38461201473e-05
1.61538798532e-05
2.24572089818e-05
1.13889104811e-05
1.62585515556e-05
6.19865685865e-06
1.2797774052e-05
3.46077695186e-06
1.08046396561e-05
1.99313384613e-06
9.60458611069e-06
1.20005299557e-06
8.85131783276e-06
7.53267729314e-07
8.3643485013e-06
4.8696878417e-07
8.0443301044e-06
3.20017850864e-07
7.83283479308e-06
2.11494766182e-07
7.69339111018e-06
1.39443139028e-07
7.60223369836e-06
9.1156869877e-08
7.54347038269e-06
5.87627756992e-08
7.50633292282e-06
3.7136921793e-08
7.4834928566e-06
2.28395302211e-08
7.46997146465e-06
1.35208584376e-08
7.46240626262e-06
7.56467136221e-09
7.45853764288e-06
3.86809201339e-09
7.45681806202e-06
1.71905601014e-09
7.45641082942e-06
4.06710118683e-10
7.45676005391e-06
-3.49744119086e-10
7.45744563785e-06
-6.86099629039e-10
7.45820339434e-06
-7.58269633838e-10
7.45892812419e-06
-7.25239467852e-10
7.45957187475e-06
-6.4425652494e-10
7.46011526712e-06
-5.43894051135e-10
7.46055685917e-06
-4.42089314507e-10
7.46090510725e-06
-3.48740923441e-10
7.46117291906e-06
-2.68300020734e-10
7.46137438138e-06
-2.01945631978e-10
7.4615228707e-06
-1.48967755436e-10
7.46163009329e-06
-1.07696089651e-10
7.46170577601e-06
-7.61503769985e-11
7.4617580488e-06
-5.27348342889e-11
7.46179086567e-06
-3.32734495089e-11
7.46180921502e-06
-1.88009667482e-11
7.46181786165e-06
-9.09317457231e-12
7.46182024355e-06
-2.82333623035e-12
7.46181830575e-06
1.50152305167e-12
7.4618131862e-06
4.68804161629e-12
7.46180581945e-06
6.93940875578e-12
7.4617968114e-06
8.58472711067e-12
7.46178653073e-06
9.86114826118e-12
7.46177515176e-06
1.09630913279e-11
7.46176268006e-06
1.20592402639e-11
7.46174899484e-06
1.32759434641e-11
7.46173387359e-06
1.47150761165e-11
7.46171700001e-06
1.64707359111e-11
7.46169795577e-06
1.86452410198e-11
7.46167620484e-06
2.13565933099e-11
7.46165114264e-06
2.46737001852e-11
7.46162207527e-06
2.86860231282e-11
7.46158821762e-06
3.34845700002e-11
7.46154871627e-06
3.91379693446e-11
7.46150269869e-06
4.5665071987e-11
7.46144933812e-06
5.3020160664e-11
7.46138796194e-06
6.10491114063e-11
7.4613184515e-06
6.91979433185e-11
7.46124150435e-06
7.66511031741e-11
7.46115956232e-06
8.16624204744e-11
7.46107892534e-06
8.0374886168e-11
7.46101174024e-06
6.69383835895e-11
7.46096568951e-06
4.58176668818e-11
7.4609600062e-06
5.46160503913e-12
7.46103059957e-06
-7.08014907953e-11
7.46123569325e-06
-2.05293894172e-10
7.46166972717e-06
-4.34234878491e-10
7.46248271191e-06
-8.13191147975e-10
7.46390985653e-06
-1.42736235664e-09
7.46630662396e-06
-2.3970036303e-09
7.470122558e-06
-3.81619873342e-09
7.476568071e-06
-6.4458162636e-09
7.48733555171e-06
-1.0767828007e-08
7.50550725336e-06
-1.81720962943e-08
7.53869064435e-06
-3.31838275047e-08
7.60790714475e-06
-6.92169530978e-08
7.77458207759e-06
-1.66675380876e-07
8.22954015643e-06
-4.54958599097e-07
9.69733964334e-06
-1.46780028877e-06
-5.4521563156e-06
1.51494951927e-05
5.02175944645e-05
1.59362847015e-05
4.42441103379e-05
1.73623934683e-05
3.77794994226e-05
1.26632667608e-05
3.2646141152e-05
8.59413422272e-06
2.89380882402e-05
5.70118576063e-06
2.6359617042e-05
3.77852319808e-06
2.45875118346e-05
2.52537194328e-06
2.33734689853e-05
1.70101064173e-06
2.25435191541e-05
1.14996669238e-06
2.19782096979e-05
7.76803235397e-07
2.15955064104e-05
5.22145442716e-07
2.13387290963e-05
3.4793320344e-07
2.11684868322e-05
2.29004062783e-07
2.10573284869e-05
1.48294293724e-07
2.09861398433e-05
9.4027204182e-08
2.09416667422e-05
5.79929937143e-08
2.09147842118e-05
3.44462397949e-08
2.08992844e-05
1.93669465571e-08
2.08910599182e-05
9.94258684065e-09
2.08872589249e-05
4.20675884603e-09
2.08861891914e-05
7.19050019391e-10
2.08864341503e-05
-9.31991390126e-10
2.08873048282e-05
-1.62987245016e-09
2.08884435675e-05
-1.86489639236e-09
2.08896161377e-05
-1.8177368186e-09
2.08906983752e-05
-1.62703384471e-09
2.08916352247e-05
-1.37983287731e-09
2.08924120152e-05
-1.12641682968e-09
2.08930365124e-05
-8.9367378058e-10
2.08935279319e-05
-6.94232847199e-10
2.08939110457e-05
-5.32939994607e-10
2.08942118854e-05
-4.0938545357e-10
2.08944221608e-05
-2.87267242897e-10
2.08945685302e-05
-1.99936403943e-10
2.08946682204e-05
-1.33786084372e-10
2.08947329258e-05
-8.43189332989e-11
2.08947728115e-05
-4.97820429056e-11
2.08947960502e-05
-2.6856428043e-11
2.08948074572e-05
-1.06916512617e-11
2.08948099676e-05
1.39945254099e-12
2.08948059978e-05
1.01385679854e-11
2.0894797212e-05
1.6607014695e-11
2.08947847495e-05
2.15668845287e-11
2.08947693265e-05
2.56356712234e-11
2.08947513146e-05
2.93268815354e-11
2.0894730852e-05
3.30002849789e-11
2.08947079218e-05
3.69134281471e-11
2.08946824025e-05
4.12655551575e-11
2.08946540953e-05
4.62368727627e-11
2.08946227287e-05
5.20184400181e-11
2.08945880874e-05
5.86232538768e-11
2.08945500294e-05
6.60677438796e-11
2.08945085684e-05
7.42868747516e-11
2.08944640169e-05
8.30505350625e-11
2.08944172335e-05
9.18313844642e-11
2.08943700108e-05
9.96500728802e-11
2.08943256413e-05
1.0485297299e-10
2.08942900848e-05
1.04216926161e-10
2.0894272805e-05
9.34240720809e-11
2.08942890523e-05
6.49377155735e-11
2.08943656907e-05
3.28663561323e-12
2.08945515182e-05
-1.19315495238e-10
2.08949148906e-05
-3.17956754199e-10
2.08955743311e-05
-6.54364790098e-10
2.0896638049e-05
-1.13489310438e-09
2.08982826091e-05
-1.85022456897e-09
2.0900865813e-05
-3.01782220686e-09
2.09049355033e-05
-4.88329022135e-09
2.0911360801e-05
-7.85310394144e-09
2.09215653478e-05
-1.26020412171e-08
2.09380392666e-05
-2.02906659567e-08
2.09649288914e-05
-3.33360522757e-08
2.10091739636e-05
-5.50135869951e-08
2.10839488143e-05
-9.29477291502e-08
2.12151824034e-05
-1.64418296759e-07
2.14557887312e-05
-3.0982421302e-07
2.19136379678e-05
-6.24525501618e-07
2.28006774327e-05
-1.34199874004e-06
2.44447951227e-05
-3.1119182477e-06
-7.0390120391e-06
2.60316494882e-05
5.35171048685e-05
1.24191792626e-05
5.29349669332e-05
1.79445304063e-05
4.96538378919e-05
1.59443949161e-05
4.58401783633e-05
1.24077928766e-05
4.24400884833e-05
9.10127476799e-06
3.97291676409e-05
6.48944316855e-06
3.76873002826e-05
4.56723843112e-06
3.61976565772e-05
3.19065347866e-06
3.51326050691e-05
2.21501733416e-06
3.43823591484e-05
1.52704829215e-06
3.38606173032e-05
1.04388642643e-06
3.35023362064e-05
7.06213441937e-07
3.32595904566e-05
4.71748957668e-07
3.3097579311e-05
3.1030458787e-07
3.29913224022e-05
2.00283265438e-07
3.29230796935e-05
1.26234858982e-07
3.28803909101e-05
7.71341837989e-08
3.28546049347e-05
4.51520869411e-08
3.28397769943e-05
2.47696963041e-08
3.28318496431e-05
1.21332847708e-08
3.2827979323e-05
4.58854962239e-09
3.28269798487e-05
6.66667675718e-11
3.28271597732e-05
-1.81060666047e-09
3.28280073347e-05
-2.71326103093e-09
3.28291222504e-05
-2.93344934425e-09
3.28302686367e-05
-2.77421008671e-09
3.28313237453e-05
-2.43572432228e-09
3.28322332713e-05
-2.03671817664e-09
3.28329823673e-05
-1.64353751047e-09
3.28335771216e-05
-1.28974730322e-09
3.28340324862e-05
-9.89056018348e-10
3.2834366533e-05
-7.44174512423e-10
3.28346319725e-05
-5.53440863299e-10
3.28348473763e-05
-4.16066263414e-10
3.28349936738e-05
-2.80801641745e-10
3.28350919885e-05
-1.83343184069e-10
3.2835156944e-05
-1.15438999166e-10
3.2835197969e-05
-6.85753521708e-11
3.28352219433e-05
-3.53526628612e-11
3.28352328293e-05
-1.0166313362e-11
3.28352341871e-05
8.10752308431e-12
3.2835228513e-05
2.16140878679e-11
3.28352176284e-05
3.17904843578e-11
3.28352027608e-05
3.98476558545e-11
3.28351846648e-05
4.67727348178e-11
3.28351638058e-05
5.32144437557e-11
3.28351404808e-05
5.95991975404e-11
3.28351148943e-05
6.62190354397e-11
3.28350871619e-05
7.33440352197e-11
3.28350572859e-05
8.12791171093e-11
3.28350255792e-05
8.97270331745e-11
3.28349926405e-05
9.84172776915e-11
3.28349595015e-05
1.06852520166e-10
3.283492794e-05
1.14055759791e-10
3.28349009557e-05
1.18277726666e-10
3.2834883244e-05
1.16844017263e-10
3.28348817713e-05
1.05831603354e-10
3.28349080152e-05
7.750375832e-11
3.28349792714e-05
2.17246714503e-11
3.28351252636e-05
-8.14720911373e-11
3.28353973665e-05
-2.69212653775e-10
3.28358845084e-05
-6.06832327746e-10
3.28366007932e-05
-1.03459089572e-09
3.28376415239e-05
-1.69542932519e-09
3.28392648023e-05
-2.75850166992e-09
3.28418464352e-05
-4.43218801079e-09
3.28458902709e-05
-7.0619959919e-09
3.28522105832e-05
-1.12039569146e-08
3.28621201764e-05
-1.77630800082e-08
3.28777831956e-05
-2.82654883169e-08
3.29028598028e-05
-4.53677563019e-08
3.29427006844e-05
-7.31774768502e-08
3.30071347066e-05
-1.19448216094e-07
3.31131435725e-05
-1.98957268461e-07
3.32897397182e-05
-3.41015182618e-07
3.35851273316e-05
-6.05212665752e-07
3.40703886068e-05
-1.1097878528e-06
3.48116667462e-05
-2.08327821001e-06
3.56727745656e-05
-3.97302643762e-06
-7.10755973694e-06
3.57413227418e-05
5.35105659748e-05
8.90861274851e-06
5.55742208271e-05
1.58808745839e-05
5.52424802767e-05
1.62761346028e-05
5.35977828933e-05
1.40524894063e-05
5.15418437926e-05
1.11572130164e-05
4.95802751776e-05
8.45101093206e-06
4.79243453065e-05
6.22316745247e-06
4.66181325839e-05
4.49686535326e-06
4.56304589373e-05
3.20269013492e-06
4.49051091495e-05
2.25239723625e-06
4.43840811272e-05
1.56491360762e-06
4.401668415e-05
1.07360958087e-06
4.37619568346e-05
7.26475437568e-07
4.35882574112e-05
4.84003178822e-07
4.34718572403e-05
3.1668260734e-07
4.33953463636e-05
2.02744910575e-07
4.3346175287e-05
1.26304439945e-07
4.33154368829e-05
7.58896743845e-08
4.32968997316e-05
4.33060352658e-08
4.32862728843e-05
2.27593244999e-08
4.32806692661e-05
1.01913660101e-08
4.32778608241e-05
2.87431248015e-09
4.3277032259e-05
-9.82832325127e-10
4.32772493888e-05
-2.93117553588e-09
4.32779361693e-05
-3.62100803185e-09
4.32787984705e-05
-3.63728275184e-09
4.32796705212e-05
-3.30853960513e-09
4.3280467205e-05
-2.83415930681e-09
4.3281152171e-05
-2.32925352745e-09
4.32817172039e-05
-1.85552269154e-09
4.3282169138e-05
-1.44172526236e-09
4.3282520675e-05
-1.09643875381e-09
4.32827815719e-05
-8.15056921155e-10
4.32829561226e-05
-5.91327874908e-10
4.32830883248e-05
-4.13706323394e-10
4.32831729235e-05
-2.68636348569e-10
4.32832261409e-05
-1.69342510817e-10
4.32832652033e-05
-1.08316269961e-10
4.32832889013e-05
-5.97219884854e-11
4.32833002282e-05
-2.21580105176e-11
4.32833026056e-05
5.07164192039e-12
4.32832979933e-05
2.55736130352e-11
4.32832880898e-05
4.104682888e-11
4.3283274062e-05
5.32337183011e-11
4.32832565634e-05
6.36348704162e-11
4.32832360311e-05
7.31153655939e-11
4.3283212806e-05
8.21983159058e-11
4.32831871839e-05
9.12212988798e-11
4.32831595212e-05
1.00394870842e-10
4.32831304055e-05
1.09792830914e-10
4.32831004776e-05
1.19064198805e-10
4.32830707086e-05
1.2760882622e-10
4.3283042573e-05
1.34425695867e-10
4.3283018182e-05
1.37900512694e-10
4.32830004687e-05
1.35462698577e-10
4.32829938585e-05
1.22946873578e-10
4.32830063387e-05
9.28696707006e-11
4.32830499252e-05
3.34612429338e-11
4.32831438442e-05
-7.26287064526e-11
4.32833049701e-05
-2.43008098013e-10
4.32835449935e-05
-5.09624565269e-10
4.32839875213e-05
-1.04972579857e-09
4.32847577428e-05
-1.8051581292e-09
4.32860099876e-05
-2.94800355125e-09
4.3287951782e-05
-4.70061696207e-09
4.32909328989e-05
-7.41362549013e-09
4.3295512818e-05
-1.16422411049e-08
4.33025700036e-05
-1.82614816132e-08
4.33134863646e-05
-2.86798054241e-08
4.333041952e-05
-4.51990486745e-08
4.33566781976e-05
-7.16268956037e-08
4.33978320377e-05
-1.14331851763e-07
4.3462730927e-05
-1.8434772121e-07
4.35650964812e-05
-3.01323489844e-07
4.37248786227e-05
-5.00797975521e-07
4.39666651774e-05
-8.46999837345e-07
4.43071065491e-05
-1.45022998426e-06
4.47074747833e-05
-2.48364773473e-06
4.49268142889e-05
-4.19236707385e-06
-6.57836984854e-06
4.43976246617e-05
5.27351375003e-05
6.17347471596e-06
5.57309330106e-05
1.28850781084e-05
5.73114720067e-05
1.4695594746e-05
5.761098868e-05
1.37529718818e-05
5.71335187026e-05
1.16346821444e-05
5.63194634027e-05
9.2650653833e-06
5.5448982485e-05
7.09364752322e-06
5.46629711988e-05
5.28287579441e-06
5.40136749253e-05
3.85198556562e-06
5.35061428941e-05
2.75992842686e-06
5.31242462941e-05
1.94680936964e-06
5.28449760891e-05
1.35287895092e-06
5.26454292041e-05
9.26021490707e-07
5.25057043397e-05
6.23727214317e-07
5.24097089669e-05
4.1267715457e-07
5.23450023661e-05
2.67450689176e-07
5.23022639615e-05
1.69042026426e-07
5.22746762181e-05
1.03476603979e-07
5.22573510834e-05
6.06303599048e-08
5.22468417851e-05
3.3267818274e-08
5.22407414279e-05
1.62909238251e-08
5.22374318377e-05
6.18310879362e-09
5.22359323851e-05
5.15831983427e-10
5.22354235856e-05
-2.42315839965e-09
5.22354876333e-05
-3.6858316288e-09
5.22358321507e-05
-3.98256944327e-09
5.22362854257e-05
-3.76257686743e-09
5.22367508248e-05
-3.30031332452e-09
5.22371772508e-05
-2.75642673809e-09
5.22375419831e-05
-2.22099513697e-09
5.2237838325e-05
-1.73879994429e-09
5.22380690695e-05
-1.32790812648e-09
5.22382445032e-05
-9.91207151002e-10
5.22383765364e-05
-7.24069052707e-10
5.2238476059e-05
-5.13928370346e-10
5.22385598387e-05
-3.53107322231e-10
5.22386245837e-05
-2.34771274079e-10
5.22386661151e-05
-1.50523797806e-10
5.22386981389e-05
-9.24150866983e-11
5.22387128374e-05
-3.75192774034e-11
5.2238717379e-05
-1.26838305942e-13
5.22387143407e-05
2.79608185621e-11
5.22387056684e-05
4.90738196733e-11
5.22386926937e-05
6.55685458098e-11
5.22386762842e-05
7.94096167458e-11
5.22386570128e-05
9.17570238371e-11
5.22386353701e-05
1.03216668932e-10
5.22386120651e-05
1.1390838087e-10
5.22385880085e-05
1.23841059279e-10
5.22385613072e-05
1.35892909469e-10
5.22385336837e-05
1.46097797817e-10
5.22385062501e-05
1.54466069585e-10
5.22384805837e-05
1.59530483594e-10
5.22384592562e-05
1.58682756992e-10
5.2238447512e-05
1.46681684794e-10
5.22384555156e-05
1.1444147559e-10
5.22384855218e-05
6.23873891754e-11
5.2238560397e-05
-4.18673426958e-11
5.22386793552e-05
-1.92018114376e-10
5.22388719805e-05
-4.36044155898e-10
5.22392084249e-05
-8.46456835949e-10
5.22397239084e-05
-1.56557392508e-09
5.22404943589e-05
-2.57595394387e-09
5.22416522329e-05
-4.10620614327e-09
5.22434007007e-05
-6.44940299597e-09
5.2246040964e-05
-1.00542066378e-08
5.22500247881e-05
-1.56263904536e-08
5.2256043131e-05
-2.42801676093e-08
5.22651546127e-05
-3.77916588915e-08
5.22789764436e-05
-5.9021287864e-08
5.22999663672e-05
-9.26172757005e-08
5.23318400586e-05
-1.46206077021e-07
5.2379941032e-05
-2.32449336605e-07
5.24511958222e-05
-3.72579012283e-07
5.25524688976e-05
-6.02071786063e-07
5.26843066236e-05
-9.78838224822e-07
5.28244848191e-05
-1.59040884781e-06
5.2891517741e-05
-2.55068161173e-06
5.26729376215e-05
-3.97378818788e-06
-5.76942642908e-06
5.18639940992e-05
5.19834859607e-05
4.18998822387e-06
5.50586625318e-05
9.80990057343e-06
5.76386109297e-05
1.21156454876e-05
5.93259000445e-05
1.20656819162e-05
6.02280112468e-05
1.07325700929e-05
6.05929215949e-05
8.90015418696e-06
6.0648277676e-05
7.03829059548e-06
6.05531823751e-05
5.37797025051e-06
6.04029469562e-05
4.00222014195e-06
6.02479056058e-05
2.91496893681e-06
6.01107792347e-05
2.08393490276e-06
5.99990188736e-05
1.46463847681e-06
5.99125028645e-05
1.01253666764e-06
5.98479101416e-05
6.88319108098e-07
5.98010057454e-05
4.59580725095e-07
5.9767720266e-05
3.00735346474e-07
5.97445780831e-05
1.92183391395e-07
5.97287987116e-05
1.19255162032e-07
5.97182497392e-05
7.1178523516e-08
5.97113427278e-05
4.01740253541e-08
5.97069225642e-05
2.07102883487e-08
5.97041878584e-05
8.9170207403e-09
5.970257802e-05
2.12488223348e-09
5.97016726831e-05
-1.51860358229e-09
5.97012135831e-05
-3.22750737032e-09
5.97010232568e-05
-3.79301206244e-09
5.97009861706e-05
-3.72625281624e-09
5.97010296659e-05
-3.34456382118e-09
5.97011100221e-05
-2.83753065235e-09
5.97012015711e-05
-2.31328391766e-09
5.97012904359e-05
-1.82839674847e-09
5.97013700016e-05
-1.40819816577e-09
5.97014388454e-05
-1.06076739206e-09
5.97014975681e-05
-7.83499708424e-10
5.97015469736e-05
-5.64033641185e-10
5.97015859572e-05
-3.92782326679e-10
5.97016129598e-05
-2.62457457395e-10
5.97016275114e-05
-1.65751632015e-10
5.9701625159e-05
-9.07318104816e-11
5.97016164249e-05
-2.94476647662e-11
5.97016091801e-05
6.46148525912e-12
5.97015993273e-05
3.71631486368e-11
5.97015882884e-05
5.94677827652e-11
5.97015760887e-05
7.71285785477e-11
5.97015616593e-05
9.3204257635e-11
5.97015448424e-05
1.0794426981e-10
5.97015256973e-05
1.21737603159e-10
5.97015042015e-05
1.34786579768e-10
5.97014803739e-05
1.47058784303e-10
5.9701457381e-05
1.58284690004e-10
5.97014351667e-05
1.67722734804e-10
5.97014149828e-05
1.74073951704e-10
5.97013985142e-05
1.7543784587e-10
5.97013873585e-05
1.69295111283e-10
5.97013807654e-05
1.52754072813e-10
5.9701371113e-05
1.2359318315e-10
5.9701374882e-05
5.81406574641e-11
5.97013861143e-05
-5.35518295701e-11
5.97014672161e-05
-2.73554901619e-10
5.97016540916e-05
-6.23328758791e-10
5.97019521242e-05
-1.14487657535e-09
5.97023368009e-05
-1.95061517927e-09
5.97029123177e-05
-3.15181490723e-09
5.97037611654e-05
-4.955380987e-09
5.97049971492e-05
-7.68570315336e-09
5.97067850856e-05
-1.18424581155e-08
5.97093627792e-05
-1.82044077789e-08
5.97130738529e-05
-2.79915869675e-08
5.97184075038e-05
-4.31256892276e-08
5.97260438826e-05
-6.66580813004e-08
5.97368838579e-05
-1.03457703671e-07
5.97519890111e-05
-1.61311745627e-07
5.9772195587e-05
-2.52656527602e-07
5.97969104028e-05
-3.97294548088e-07
5.98209750185e-05
-6.261371708e-07
5.98275119267e-05
-9.85375928758e-07
5.97744768575e-05
-1.53737455696e-06
5.95739417611e-05
-2.35014727529e-06
5.90680676156e-05
-3.46791539609e-06
-4.79796819013e-06
5.80966089183e-05
5.14373048583e-05
2.75268283485e-06
5.42658191259e-05
6.98138534298e-06
5.72496409461e-05
9.13182280735e-06
5.97900244565e-05
9.52529755533e-06
6.17201240997e-05
8.80246960097e-06
6.30882981934e-05
7.53197924557e-06
6.40167108991e-05
6.10987704382e-06
6.46292298447e-05
4.7654504608e-06
6.50257959537e-05
3.60565319096e-06
6.52790696836e-05
2.66169436685e-06
6.54389638916e-05
1.92403985718e-06
6.55386798884e-05
1.36492164536e-06
6.55999176026e-05
9.51298121811e-07
6.56367316068e-05
6.515042755e-07
6.56581819083e-05
4.3812959858e-07
6.5670089346e-05
2.88827087626e-07
6.56761778129e-05
1.86094107453e-07
6.56788133622e-05
1.16618799727e-07
6.56794830565e-05
7.05080210236e-08
6.5679106119e-05
4.05501592967e-08
6.56782380017e-05
2.15776070662e-08
6.56772063712e-05
9.94785805288e-09
6.56761964125e-05
3.1340534667e-09
6.56752864277e-05
-6.09400094909e-10
6.5674517033e-05
-2.4588875875e-09
6.56738879786e-05
-3.16472576036e-09
6.5673388389e-05
-3.22742438962e-09
6.5673000799e-05
-2.95772780867e-09
6.56727062206e-05
-2.54369882827e-09
6.56724864894e-05
-2.09429175872e-09
6.56723254938e-05
-1.66813257392e-09
6.56722095619e-05
-1.29299006661e-09
6.56721265583e-05
-9.78479444203e-10
6.56720658664e-05
-7.23515267522e-10
6.56720217131e-05
-5.20579104202e-10
6.56719898679e-05
-3.61627548042e-10
6.56719642066e-05
-2.3747861286e-10
6.56719420522e-05
-1.44272315555e-10
6.567192648e-05
-7.58277704524e-11
6.5671924127e-05
-2.77564021695e-11
6.56719219939e-05
7.93894524979e-12
6.56719140421e-05
4.44650576408e-11
6.56719033976e-05
6.94677140587e-11
6.56718903097e-05
8.95773104287e-11
6.56718756689e-05
1.07211068047e-10
6.5671859501e-05
1.23483430222e-10
6.56718416597e-05
1.38956013219e-10
6.56718220755e-05
1.5375376145e-10
6.56718012897e-05
1.67234664876e-10
6.56717813295e-05
1.77644452837e-10
6.5671761095e-05
1.87368258434e-10
6.56717411202e-05
1.93472980294e-10
6.56717225311e-05
1.9346657874e-10
6.56717072197e-05
1.84064755318e-10
6.5671698871e-05
1.60582930936e-10
6.56717049464e-05
1.17020159375e-10
6.56717113408e-05
5.12667482708e-11
6.56717418225e-05
-8.44873807186e-11
6.56718089031e-05
-3.41063383407e-10
6.56719054881e-05
-7.20325079777e-10
6.56720539875e-05
-1.29376531965e-09
6.56722611823e-05
-2.15817656651e-09
6.56725434908e-05
-3.43446738922e-09
6.56729174093e-05
-5.32962704425e-09
6.56733937585e-05
-8.16237169856e-09
6.56739700106e-05
-1.24190278904e-08
6.5674615882e-05
-1.8850603744e-08
6.56752454976e-05
-2.86215482278e-08
6.5675657479e-05
-4.353805043e-08
6.56754238587e-05
-6.64248804731e-08
6.56736752855e-05
-1.01709594178e-07
6.56686774359e-05
-1.56314418335e-07
6.56568951671e-05
-2.40874866859e-07
6.56311992694e-05
-3.71599355313e-07
6.55774385768e-05
-5.723772264e-07
6.54683806988e-05
-8.76318902804e-07
6.52548603791e-05
-1.32385520463e-06
6.48568359906e-05
-1.95212361012e-06
6.41618443762e-05
-2.77292502415e-06
-3.7158172116e-06
6.30796927054e-05
5.10850418463e-05
1.66764045883e-06
5.3611843107e-05
4.4545831198e-06
5.66873141896e-05
6.05635086514e-06
5.96894433712e-05
6.52316752394e-06
6.22997231516e-05
6.19218897239e-06
6.44136838861e-05
5.4180176639e-06
6.60471792054e-05
4.47638087922e-06
6.72686099379e-05
3.54401888483e-06
6.81598881753e-05
2.71437411214e-06
6.87977539949e-05
2.02382770785e-06
6.92467376172e-05
1.47505539805e-06
6.9557955724e-05
1.05370270465e-06
6.97704217026e-05
7.3883131245e-07
6.99131641038e-05
5.0876104673e-07
7.00073745937e-05
3.43918284351e-07
7.0068283586e-05
2.27917274725e-07
7.01066850853e-05
1.47691791714e-07
7.01301268873e-05
9.31761853368e-08
7.01438155274e-05
5.68185730421e-08
7.0151291152e-05
3.30737317504e-08
7.01549231549e-05
1.79448063085e-08
7.01562704594e-05
8.59976118345e-09
7.01563418656e-05
3.06186058248e-09
7.01557493457e-05
-1.76607929874e-11
7.01548879821e-05
-1.59829822409e-09
7.01539638817e-05
-2.24139289318e-09
7.01530947531e-05
-2.35905657855e-09
7.0152334255e-05
-2.19798360114e-09
7.01516995931e-05
-1.90978352604e-09
7.01511879124e-05
-1.5833500568e-09
7.01507862849e-05
-1.2672361973e-09
7.01504777584e-05
-9.85186382925e-10
7.01502446956e-05
-7.46131267427e-10
7.01500709318e-05
-5.5045760021e-10
7.01499434727e-05
-3.93817955134e-10
7.01498516699e-05
-2.70514555974e-10
7.01497884235e-05
-1.74914319186e-10
7.01497462732e-05
-1.02796816045e-10
7.01497171621e-05
-4.73848361489e-11
7.01496866493e-05
2.09490696679e-12
7.01496627013e-05
3.12318516418e-11
7.01496491202e-05
5.73968344314e-11
7.01496380798e-05
7.98642122218e-11
7.01496276459e-05
9.93728039951e-11
7.01496170629e-05
1.17160758751e-10
7.01496059527e-05
1.33965798962e-10
7.01495941795e-05
1.50106524367e-10
7.01495817774e-05
1.65539395123e-10
7.01495685284e-05
1.79874842256e-10
7.01495530746e-05
1.92499056465e-10
7.01495373638e-05
2.02491382167e-10
7.01495221992e-05
2.08063167472e-10
7.01495083404e-05
2.0676696218e-10
7.01494963839e-05
1.95480523483e-10
7.01494859316e-05
1.70510639734e-10
7.01494744242e-05
1.28026579991e-10
7.01494651973e-05
6.00177850048e-11
7.01494550339e-05
-7.47717327855e-11
7.01494634913e-05
-3.49952972192e-10
7.01494845096e-05
-7.41757411891e-10
7.01495057328e-05
-1.3153780579e-09
7.01495053215e-05
-2.15813365459e-09
7.01494562859e-05
-3.38577913735e-09
7.0149305246e-05
-5.17891824695e-09
7.01489530859e-05
-7.81053552815e-09
7.01482243874e-05
-1.16906523575e-08
7.01468174134e-05
-1.74439590435e-08
7.01442202033e-05
-2.60246835547e-08
7.01395578306e-05
-3.88760480145e-08
7.01313484258e-05
-5.82158814165e-08
7.01171024955e-05
-8.74641198279e-08
7.00926645443e-05
-1.31876985519e-07
7.00509432346e-05
-1.99154149703e-07
6.99799637805e-05
-3.00620570463e-07
6.98597597689e-05
-4.52173939035e-07
6.96578863554e-05
-6.74446303808e-07
6.93244302303e-05
-9.90400080902e-07
6.87898426593e-05
-1.41753682466e-06
6.79715340232e-05
-1.95461748426e-06
-2.55569816958e-06
6.68114141638e-05
5.08804126787e-05
7.87227250766e-07
5.31704647294e-05
2.16453010628e-06
5.62177474493e-05
3.00906728567e-06
5.94382666233e-05
3.30264750012e-06
6.24449656101e-05
3.18548913755e-06
6.50382481911e-05
2.82473423594e-06
6.71548609227e-05
2.35976730232e-06
6.88135585784e-05
1.88532038569e-06
7.00731637412e-05
1.45476810789e-06
7.10056598679e-05
1.09133074188e-06
7.1681255328e-05
7.99459101243e-07
7.21614138598e-05
5.73543339023e-07
7.24965939717e-05
4.03650369767e-07
7.27264697196e-05
2.78884471157e-07
7.28812678213e-05
1.8911935839e-07
7.29834567917e-05
1.25727483625e-07
7.30493998022e-05
8.17479645298e-08
7.30908011505e-05
5.1774024693e-08
7.31158943468e-05
3.17245688596e-08
7.31303781253e-05
1.85891502322e-08
7.31381321115e-05
1.01900222951e-08
7.31417518223e-05
4.97925797677e-09
7.31429388087e-05
1.87408758002e-09
7.31427916989e-05
1.28668401397e-10
7.314196776e-05
-7.75133542013e-10
7.31408841485e-05
-1.15854911536e-09
7.31397685803e-05
-1.24424924238e-09
7.31387404632e-05
-1.17062016132e-09
7.31378522488e-05
-1.02231548915e-09
7.31371178479e-05
-8.49687732023e-10
7.31365298837e-05
-6.80002676027e-10
7.31360709673e-05
-5.26992555488e-10
7.31357202302e-05
-3.96108733437e-10
7.31354570444e-05
-2.87978075524e-10
7.31352630679e-05
-2.00539650486e-10
7.31351226718e-05
-1.30808710187e-10
7.31350226037e-05
-7.55285974866e-11
7.3134950349e-05
-3.12170793115e-11
7.31348965387e-05
5.75760855457e-12
7.31348661561e-05
3.18163647585e-11
7.31348424317e-05
5.43011781429e-11
7.31348250131e-05
7.41659081547e-11
7.31348120401e-05
9.21929857605e-11
7.31348017102e-05
1.09063416515e-10
7.31347927549e-05
1.25481538158e-10
7.3134784291e-05
1.41800535669e-10
7.31347757031e-05
1.58071329489e-10
7.31347665624e-05
1.74063745263e-10
7.3134756604e-05
1.89225116993e-10
7.31347457935e-05
2.0271100321e-10
7.31347341915e-05
2.1350626902e-10
7.31347218679e-05
2.19813232768e-10
7.31347089449e-05
2.19132479806e-10
7.31346956571e-05
2.08224254249e-10
7.31346825541e-05
1.83090337076e-10
7.3134670702e-05
1.39380714491e-10
7.31346551617e-05
7.50849941688e-11
7.313463099e-05
-5.10506236247e-11
7.3134588352e-05
-3.07749902383e-10
7.31345211031e-05
-6.74919978881e-10
7.31344056223e-05
-1.20028514462e-09
7.31341985201e-05
-1.95140029137e-09
7.31338316312e-05
-3.01924063261e-09
7.31331899002e-05
-4.53752347451e-09
7.31320801813e-05
-6.70114604495e-09
7.31301803282e-05
-9.79112869082e-09
7.312696299e-05
-1.42269587798e-08
7.31215725041e-05
-2.06345482478e-08
7.31125949486e-05
-2.98988554453e-08
7.30977246079e-05
-4.33459250208e-08
7.30732537132e-05
-6.29936564076e-08
7.30332824622e-05
-9.19062416132e-08
7.29682925788e-05
-1.34164859812e-07
7.28632607745e-05
-1.95589420963e-07
7.26950118379e-05
-2.839257411e-07
7.24290310838e-05
-4.08466366621e-07
7.20169341873e-05
-5.78304149886e-07
7.13974884769e-05
-7.98091970978e-07
7.05050882195e-05
-1.06221824138e-06
-1.34564090706e-06
6.92950300788e-05
5.07871720858e-05
5.46351697936e-11
5.29516484056e-05
5.28232463903e-11
5.59606861821e-05
2.86492325212e-11
5.92633188028e-05
1.40294178607e-11
6.24488045133e-05
2.57883823575e-12
6.52735441663e-05
-6.26414368953e-12
6.76333227889e-05
-1.21659822582e-11
6.95186574383e-05
-1.51074723955e-11
7.09734402401e-05
-1.55357244248e-11
7.2064784191e-05
-1.40487146047e-11
7.28642537345e-05
-1.1279316763e-11
7.34378041219e-05
-7.88255847549e-12
7.38414581783e-05
-4.5177971659e-12
7.41203436507e-05
-1.82920951621e-12
7.43094625824e-05
-3.97891018668e-13
7.44351898864e-05
-6.41462713518e-13
7.45169398278e-05
-2.79394944893e-12
7.45687196572e-05
-6.61744826758e-12
7.46004548909e-05
-1.14730699729e-11
7.46190596171e-05
-1.63793021536e-11
7.46292690486e-05
-2.02073342152e-11
7.46342693762e-05
-2.18623368405e-11
7.46361635557e-05
-2.08790365326e-11
7.46363099777e-05
-1.85344877124e-11
7.46355500737e-05
-1.60041554814e-11
7.4634403608e-05
-1.28513681353e-11
7.46331678458e-05
-9.24828439424e-12
7.46320017431e-05
-5.27157631763e-12
7.46309790894e-05
-4.08639182756e-13
7.46301249698e-05
3.69259479153e-12
7.46294358826e-05
8.35307400179e-12
7.46288948306e-05
1.33362923515e-11
7.46284794143e-05
1.85926217867e-11
7.46281665455e-05
2.41841676967e-11
7.4627935015e-05
3.02927050572e-11
7.46277664763e-05
3.7040083392e-11
7.46276457602e-05
4.45054393645e-11
7.46275611969e-05
5.26715481654e-11
7.46275047135e-05
6.15734772425e-11
7.46274650354e-05
7.08334051075e-11
7.4627438254e-05
8.04276394274e-11
7.46274205081e-05
9.1262499024e-11
7.4627408811e-05
1.03245836121e-10
7.46274009304e-05
1.16304805862e-10
7.46273953282e-05
1.30449451994e-10
7.46273909342e-05
1.45565568334e-10
7.46273869972e-05
1.61385531052e-10
7.46273829784e-05
1.77466493993e-10
7.46273784535e-05
1.9314195637e-10
7.46273730743e-05
2.07491330923e-10
7.46273666627e-05
2.19330136601e-10
7.46273590053e-05
2.26896204055e-10
7.4627349735e-05
2.27843587339e-10
7.46273381929e-05
2.19224259772e-10
7.46273232189e-05
1.97541057575e-10
7.46273030894e-05
1.59020276881e-10
7.46272769533e-05
1.00749759013e-10
7.46272316121e-05
-6.1654783435e-12
7.46271429832e-05
-2.19550806147e-10
7.46270066105e-05
-5.38953082179e-10
7.46267832152e-05
-9.77278399673e-10
7.46264119566e-05
-1.5805107338e-09
7.46257963853e-05
-2.40402207144e-09
7.46247796684e-05
-3.52114860676e-09
7.46231066754e-05
-5.02848769345e-09
7.46203603478e-05
-7.0451345132e-09
7.46158746504e-05
-9.74160434386e-09
7.46085912445e-05
-1.33514991708e-08
7.45967719896e-05
-1.80799682569e-08
7.45776151384e-05
-2.41894562179e-08
7.45467048468e-05
-3.20837888142e-08
7.44973104113e-05
-4.25123221577e-08
7.44186899481e-05
-5.55450121416e-08
7.42944426133e-05
-7.1342745884e-08
7.41001841919e-05
-8.96680783105e-08
7.38010878723e-05
-1.09370908536e-07
7.33504750676e-05
-1.27692301788e-07
7.26918443045e-05
-1.39462114838e-07
7.17671184789e-05
-1.37493399516e-07
-1.13289635941e-07
7.05347663044e-05
5.07871710502e-05
-7.87116945185e-07
5.29516475497e-05
-2.1644246398e-06