/*--------------------------------*- C++ -*----------------------------------*\
| =========                 |                                                 |
| \\      /  F ield         | OpenFOAM: The Open Source CFD Toolbox           |
|  \\    /   O peration     | Version:  2106                                  |
|   \\  /    A nd           | Website:  www.openfoam.com                      |
|    \\/     M anipulation  |                                                 |
\*---------------------------------------------------------------------------*/
FoamFile
{
    version     2.0;
    format      ascii;
    arch        "LSB;label=32;scalar=64";
    class       surfaceScalarField;
    location    "0.43";
    object      phi;
}
// * * * * * * * * * * * * * * * * * * * * * * * * * * * * * * * * * * * * * //

dimensions      [0 3 -1 0 0 0 0];

oriented        oriented;

internalField   nonuniform List<scalar> 
22100
(
3.38461205808e-05
1.61538794064e-05
2.2457210742e-05
1.13889102673e-05
1.62585543873e-05
6.19865670451e-06
1.27977779243e-05
3.46077681761e-06
1.08046445896e-05
1.99313372385e-06
9.60459211955e-06
1.20005287295e-06
8.85132491908e-06
7.53267600542e-07
8.36435668029e-06
4.86968652101e-07
8.04433939752e-06
3.20017718417e-07
7.83284521973e-06
2.11494633149e-07
7.69340269534e-06
1.3944299863e-07
7.60224648128e-06
9.11567133848e-08
7.54348442242e-06
5.87625977197e-08
7.50634829005e-06
3.71367185887e-08
7.48350963003e-06
2.28392968224e-08
7.46998972457e-06
1.35205940317e-08
7.46242608246e-06
7.564383705e-09
7.45855907941e-06
3.86778523551e-09
7.45684117883e-06
1.71873954365e-09
7.45643560362e-06
4.06374612064e-10
7.45678649417e-06
-3.50091285041e-10
7.45747368907e-06
-6.86439700518e-10
7.45823302204e-06
-7.58634162052e-10
7.45895930144e-06
-7.25643873797e-10
7.45960460012e-06
-6.44695934615e-10
7.4601495566e-06
-5.44364443502e-10
7.46059275055e-06
-4.42583498523e-10
7.46094265536e-06
-3.4924079599e-10
7.46121216873e-06
-2.6877780656e-10
7.46141535638e-06
-2.02384970677e-10
7.4615655638e-06
-1.49359594272e-10
7.46167446359e-06
-1.08027958613e-10
7.46175173684e-06
-7.64410660083e-11
7.46180558411e-06
-5.3020915508e-11
7.4618398006e-06
-3.35177180754e-11
7.46185951751e-06
-1.89809803149e-11
7.4618693916e-06
-9.31973494519e-12
7.46187298482e-06
-3.05807373625e-12
7.46187222088e-06
1.24747735915e-12
7.46186825746e-06
4.40575191363e-12
7.46186203846e-06
6.6337331801e-12
7.46185416897e-06
8.25784672114e-12
7.46184502692e-06
9.51372944065e-12
7.46183477117e-06
1.06146446821e-11
7.46182341041e-06
1.1746815955e-11
7.46181080417e-06
1.29993521766e-11
7.46179671407e-06
1.44692902913e-11
7.46178082482e-06
1.62658670582e-11
7.46176271293e-06
1.84728071152e-11
7.46174182233e-06
2.12031494944e-11
7.46171756141e-06
2.45204773998e-11
7.4616892414e-06
2.8505956335e-11
7.46165607961e-06
3.32551974065e-11
7.46161722891e-06
3.88421110305e-11
7.46157182604e-06
4.53026893882e-11
7.46151905418e-06
5.26081873291e-11
7.46145832372e-06
6.0526570184e-11
7.4613895136e-06
6.8551283437e-11
7.46131345678e-06
7.58547942963e-11
7.46123251379e-06
8.06803807589e-11
7.46115328828e-06
7.90533824343e-11
7.46108764614e-06
6.54191791567e-11
7.46104342712e-06
4.41883901912e-11
7.4610398727e-06
3.50111197564e-12
7.46111318791e-06
-7.31529043857e-11
7.46132142553e-06
-2.08012712956e-10
7.46175913299e-06
-4.37506126924e-10
7.46257642585e-06
-8.17101817458e-10
7.46400850978e-06
-1.43197766677e-09
7.46641078602e-06
-2.40228765906e-09
7.47023232295e-06
-3.8217159895e-09
7.47668560926e-06
-6.45362282517e-09
7.48746016417e-06
-1.07749712242e-08
7.50563830457e-06
-1.81786047893e-08
7.53882561029e-06
-3.31878233867e-08
7.60803834386e-06
-6.92132893035e-08
7.77468739789e-06
-1.66649627145e-07
8.22955371713e-06
-4.54866903501e-07
9.69702922943e-06
-1.46747619298e-06
-5.45081075235e-06
1.51478395024e-05
5.02175952787e-05
1.59362845339e-05
4.42441128714e-05
1.73623933678e-05
3.77795035226e-05
1.26632666972e-05
3.26461468034e-05
8.59413419108e-06
2.89380954489e-05
5.70118576179e-06
2.63596258099e-05
3.77852323057e-06
2.45875221581e-05
2.52537200387e-06
2.33734808748e-05
1.70101073253e-06
2.25435326271e-05
1.14996681589e-06
2.19782247695e-05
7.76803385668e-07
2.15955231039e-05
5.22145608565e-07
2.13387474524e-05
3.47933374209e-07
2.11685069064e-05
2.29004230069e-07
2.10573503407e-05
1.48294446189e-07
2.09861635469e-05
9.4027332457e-08
2.09416923703e-05
5.79930933426e-08
2.09148118317e-05
3.44463119903e-08
2.08993140816e-05
1.93670114499e-08
2.08910916356e-05
9.94259669889e-09
2.08872926823e-05
4.2067337424e-09
2.08862250326e-05
7.18928709597e-10
2.0886471933e-05
-9.32097902403e-10
2.08873445421e-05
-1.63005056828e-09
2.08884851879e-05
-1.86513088111e-09
2.08896596557e-05
-1.81800960966e-09
2.08907438047e-05
-1.62732537007e-09
2.08916826085e-05
-1.38012367793e-09
2.08924614138e-05
-1.1266819211e-09
2.08930879702e-05
-8.93890124565e-10
2.08935814737e-05
-6.94391295157e-10
2.0893966659e-05
-5.33023618889e-10
2.08942695322e-05
-4.09455295855e-10
2.08944817708e-05
-2.87306946778e-10
2.08946300928e-05
-2.00013619142e-10
2.08947314887e-05
-1.33736591003e-10
2.08947978547e-05
-8.42996212062e-11
2.08948392843e-05
-4.9812125184e-11
2.08948640191e-05
-2.69417798785e-11
2.08948768826e-05
-1.08164793673e-11
2.08948808391e-05
1.24646379353e-12
2.08948783096e-05
9.94861958569e-12
2.08948709657e-05
1.63660940134e-11
2.08948599688e-05
2.12936246544e-11
2.08948460278e-05
2.53330884191e-11
2.08948294948e-05
2.90234588978e-11
2.08948104917e-05
3.27258269073e-11
2.08947889967e-05
3.66563086773e-11
2.08947648789e-05
4.10129858487e-11
2.08947379317e-05
4.59602120041e-11
2.08947078657e-05
5.16748406175e-11
2.08946744749e-05
5.81700059458e-11
2.0894637624e-05
6.54639496493e-11
2.08945973358e-05
7.3508843439e-11
2.08945539484e-05
8.20840750101e-11
2.08945083608e-05
9.06651862361e-11
2.08944623861e-05
9.83003861469e-11
2.0894419471e-05
1.03168909079e-10
2.08943856431e-05
1.02033855456e-10
2.08943704764e-05
9.07819335628e-11
2.08943892771e-05
6.16254096944e-11
2.08944693671e-05
-1.13332347633e-12
2.08946591257e-05
-1.24504397852e-10
2.08950274532e-05
-3.24016937742e-10
2.08956930594e-05
-6.61886261105e-10
2.08967625853e-05
-1.14217309934e-09
2.08984143806e-05
-1.85959712486e-09
2.09010064555e-05
-3.02945898299e-09
2.09050866834e-05
-4.89734451503e-09
2.09115242047e-05
-7.86971022177e-09
2.09217426314e-05
-1.26211343767e-08
2.09382321198e-05
-2.03118215634e-08
2.096513643e-05
-3.33586681058e-08
2.10093950511e-05
-5.50344465824e-08
2.10841778244e-05
-9.29623311951e-08
2.12154051693e-05
-1.64416190784e-07
2.14559730438e-05
-3.09782209489e-07
2.19137118959e-05
-6.24389511186e-07
2.28004808288e-05
-1.34163680317e-06
2.4443996007e-05
-3.11099222515e-06
-7.03663253703e-06
2.60298159081e-05
5.35171057515e-05
1.24191791114e-05
5.29349695141e-05
1.79445302315e-05
4.96538420313e-05
1.59443947548e-05
4.58401840625e-05
1.24077927607e-05
4.2440095756e-05
9.10127470984e-06
3.97291764892e-05
6.48944316885e-06
3.76873107063e-05
4.56723848931e-06
3.61976685874e-05
3.19065359342e-06
3.51326186785e-05
2.2150175e-06
3.438237437e-05
1.5270484943e-06
3.38606341622e-05
1.04388664907e-06
3.35023547454e-05
7.06213672087e-07
3.32596107288e-05
4.71749182267e-07
3.30976013789e-05
3.10304792676e-07
3.29913463393e-05
2.00283444063e-07
3.29231055784e-05
1.26235010701e-07
3.28804188218e-05
7.71343006223e-08
3.28546349051e-05
4.515214992e-08
3.283980904e-05
2.47697108071e-08
3.28318837705e-05
1.21332438396e-08
3.2828015427e-05
4.58842209571e-09
3.28270179641e-05
6.64948112757e-11
3.28271998174e-05
-1.81084742325e-09
3.28280492919e-05
-2.71357202333e-09
3.28291661081e-05
-2.9338030903e-09
3.28303144093e-05
-2.77458473941e-09
3.28313714819e-05
-2.43609714877e-09
3.28322830278e-05
-2.03706236074e-09
3.28330341815e-05
-1.64383909626e-09
3.2833631017e-05
-1.28999645498e-09
3.28340884266e-05
-9.89269947884e-10
3.28344244661e-05
-7.44305698262e-10
3.28346917712e-05
-5.53423372451e-10
3.28349091706e-05
-4.16113230484e-10
3.28350571096e-05
-2.807953703e-10
3.28351570366e-05
-1.83389178811e-10
3.28352235328e-05
-1.15523642602e-10
3.28352660473e-05
-6.86802133159e-11
3.28352914698e-05
-3.54870937383e-11
3.28353037828e-05
-1.03228613734e-11
3.28353065557e-05
7.88830826688e-12
3.28353023206e-05
2.12968871669e-11
3.28352929041e-05
3.13936683563e-11
3.28352795282e-05
3.94093372903e-11
3.28352629203e-05
4.62985462308e-11
3.28352435306e-05
5.27295276726e-11
3.28352216672e-05
5.91092685169e-11
3.28351975226e-05
6.56827417432e-11
3.28351712216e-05
7.26842017152e-11
3.28351427531e-05
8.04597868397e-11
3.28351124343e-05
8.87132622111e-11
3.2835080874e-05
9.71784744648e-11
3.28350491277e-05
1.05335929277e-10
3.28350190242e-05
1.1220203255e-10
3.28349935988e-05
1.16039077351e-10
3.28349775034e-05
1.14261614945e-10
3.28349779461e-05
1.0252633895e-10
3.28350066165e-05
7.31567332392e-11
3.28350808557e-05
1.63526157951e-11
3.28352306356e-05
-8.83381774253e-11
3.28355073268e-05
-2.78017831095e-10
3.28360006796e-05
-6.18000425216e-10
3.28367219657e-05
-1.04500345025e-09
3.28377691966e-05
-1.70892905822e-09
3.28394022375e-05
-2.77537491445e-09
3.28419952634e-05
-4.45265088669e-09
3.28460523746e-05
-7.08657413752e-09
3.28523881277e-05
-1.12331540234e-08
3.28623154833e-05
-1.7797239959e-08
3.28779984927e-05
-2.83045068908e-08
3.29030966989e-05
-4.54105689291e-08
3.29429590558e-05
-7.32217033103e-08
3.30074121147e-05
-1.1948826418e-07
3.31134309865e-05
-1.98982022338e-07
3.32900159916e-05
-3.41002050422e-07
3.35853486015e-05
-6.05115735845e-07
3.40704703948e-05
-1.1095123234e-06
3.48114589246e-05
-2.08262627824e-06
3.56720530097e-05
-3.97158629501e-06
-7.10449984423e-06
3.57399220459e-05
5.35105668616e-05
8.90861255956e-06
5.5574223383e-05
1.58808743605e-05
5.52424843464e-05
1.62761343884e-05
5.35977884724e-05
1.4052489248e-05
5.15418508945e-05
1.11572129366e-05
4.95802838051e-05
8.4510109342e-06
4.79243554587e-05
6.22316753492e-06
4.66181442692e-05
4.49686550871e-06
4.56304721629e-05
3.2026903478e-06
4.49051239289e-05
2.2523974876e-06
4.4384097489e-05
1.56491387931e-06
4.40167021381e-05
1.0736098535e-06
4.37619765019e-05
7.26475690447e-07
4.35882788256e-05
4.84003396875e-07
4.34718804795e-05
3.16682784802e-07
4.33953715023e-05
2.02745049775e-07
4.33462024003e-05
1.26304542649e-07
4.33154660199e-05
7.58897281384e-08
4.32969309039e-05
4.33060329144e-08
4.32863060792e-05
2.27592596323e-08
4.32807044198e-05
1.0191215402e-08
4.32778978985e-05
2.87409756897e-09
4.32770712596e-05
-9.83140477555e-10
4.32772902536e-05
-2.9315412872e-09
4.32779788917e-05
-3.62142720391e-09
4.32788430755e-05
-3.63772660123e-09
4.3279717063e-05
-3.3089812861e-09
4.32805157289e-05
-2.83458204843e-09
4.32812027102e-05
-2.32964782884e-09
4.32817697558e-05
-1.85585764542e-09
4.32822236941e-05
-1.4420021167e-09
4.32825772107e-05
-1.09661508552e-09
4.32828400952e-05
-8.15186528637e-10
4.3283016196e-05
-5.9155954461e-10
4.32831501258e-05
-4.13796514033e-10
4.32832363454e-05
-2.68758485367e-10
4.32832910395e-05
-1.69374335163e-10
4.32833315542e-05
-1.08405940648e-10
4.32833566421e-05
-5.97915332972e-11
4.32833693355e-05
-2.2308525058e-11
4.32833730693e-05
4.83777353996e-12
4.32833698461e-05
2.52361315136e-11
4.32833613777e-05
4.05659236776e-11
4.32833488186e-05
5.27015746213e-11
4.3283332769e-05
6.30905735869e-11
4.32833136797e-05
7.24878086166e-11
4.32832919015e-05
8.14713642901e-11
4.32832677281e-05
9.03593736915e-11
4.32832414778e-05
9.93372057453e-11
4.32832137812e-05
1.08474937575e-10
4.32831852785e-05
1.17488048203e-10
4.32831569406e-05
1.25734032557e-10
4.3283130253e-05
1.32198775355e-10
4.32831073245e-05
1.35255732246e-10
4.32830910685e-05
1.32327523567e-10
4.32830860802e-05
1.1919124178e-10
4.32831005419e-05
8.78010196476e-11
4.32831467215e-05
2.68492329519e-11
4.32832437569e-05
-8.09075547711e-11
4.32834075103e-05
-2.52186481981e-10
4.32836550572e-05
-5.26116901016e-10
4.32841031971e-05
-1.0661097401e-09
4.32848820945e-05
-1.82430949263e-09
4.32861437656e-05
-2.97077928963e-09
4.32880963457e-05
-4.72797317021e-09
4.32910904188e-05
-7.44668931193e-09
4.3295685826e-05
-1.1681986153e-08
4.3302761318e-05
-1.83087627206e-08
4.33136990249e-05
-2.8735207483e-08
4.33306565667e-05
-4.52624643127e-08
4.33569422806e-05
-7.16968281089e-08
4.33981244174e-05
-1.14404490113e-07
4.34630500988e-05
-1.84414666406e-07
4.35654350941e-05
-3.01367767908e-07
4.37252186003e-05
-5.00786303647e-07
4.39669703691e-05
-8.46868256447e-07
4.43073137151e-05
-1.44985654398e-06
4.47074890011e-05
-2.48280261912e-06
4.49265305191e-05
-4.19062886472e-06
-6.57500391338e-06
4.43970349215e-05
5.27351383945e-05
6.17347449041e-06
5.5730935578e-05
1.28850778701e-05
5.73114760724e-05
1.4695594528e-05
5.76109942262e-05
1.3752971732e-05
5.71335257347e-05
1.1634682089e-05
5.63194719205e-05
9.26506542829e-06
5.54489924834e-05
7.09364766573e-06
5.46629826803e-05
5.28287602339e-06
5.4013687895e-05
3.85198585835e-06
5.35061573673e-05
2.75992876034e-06
5.31242623001e-05
1.94680972186e-06
5.28449936723e-05
1.35287929807e-06
5.2645448421e-05
9.26021809161e-07
5.25057252635e-05
6.23727491636e-07
5.24097316789e-05
4.12677386204e-07
5.23450269397e-05
2.6745087527e-07
5.2302290464e-05
1.69042168916e-07
5.22747047036e-05
1.03476697592e-07
5.22573815652e-05
6.06303906551e-08
5.22468742403e-05
3.32677704607e-08
5.2240775812e-05
1.62907842232e-08
5.22374681256e-05
6.18288427699e-09
5.22359705221e-05
5.15519462956e-10
5.22354635607e-05
-2.42353921218e-09
5.22355294443e-05
-3.68626548123e-09
5.22358758284e-05
-3.98303478982e-09
5.22363310227e-05
-3.76305081078e-09
5.22367983833e-05
-3.30077531162e-09
5.22372268144e-05
-2.75685763426e-09
5.2237593541e-05
-2.22137536555e-09
5.22378918902e-05
-1.73910600359e-09
5.22381245294e-05
-1.32813320736e-09
5.22383018462e-05
-9.9138715436e-10
5.22384354916e-05
-7.24239003304e-10
5.22385366387e-05
-5.14024368176e-10
5.22386218898e-05
-3.53129253405e-10
5.22386881004e-05
-2.34741780155e-10
5.22387310866e-05
-1.50537252733e-10
5.22387644431e-05
-9.24716129595e-11
5.22387804846e-05
-3.76645130222e-11
5.22387863472e-05
-3.37956913045e-13
5.22387846298e-05
2.76991980138e-11
5.22387774275e-05
4.85593480141e-11
5.22387658785e-05
6.51246954114e-11
5.22387508605e-05
7.88589952307e-11
5.22387329774e-05
9.10609251952e-11
5.22387126799e-05
1.02364790652e-10
5.22386905855e-05
1.12958216056e-10
5.22386679895e-05
1.22357226908e-10
5.22386427426e-05
1.34175709477e-10
5.22386165243e-05
1.44113138959e-10
5.22385904998e-05
1.52091089529e-10
5.22385662994e-05
1.56648588412e-10
5.22385466329e-05
1.55061585139e-10
5.22385374052e-05
1.41531773371e-10
5.22385465607e-05
1.09763865399e-10
5.22385786621e-05
5.54225545178e-11
5.22386572725e-05
-5.18955981342e-11
5.22387788579e-05
-2.02709675618e-10
5.22389769838e-05
-4.50518056318e-10
5.22393168627e-05
-8.65985390485e-10
5.22398390729e-05
-1.58834815887e-09
5.22406172632e-05
-2.60261378755e-09
5.22417847349e-05
-4.13833621189e-09
5.22435449815e-05
-6.48824937017e-09
5.22461994178e-05
-1.01011494272e-08
5.22502001861e-05
-1.56828188873e-08
5.22562386847e-05
-2.43474464244e-08
5.22653740137e-05
-3.7870883709e-08
5.22792237168e-05
-5.9112682396e-08
5.2300245548e-05
-9.27192853287e-08
5.23321547417e-05
-1.46314377011e-07
5.23802935262e-05
-2.32554186779e-07
5.2451585292e-05
-3.72660292147e-07
5.2552888817e-05
-6.0209059818e-07
5.26847421017e-05
-9.78722284145e-07
5.28249121077e-05
-1.5900272725e-06
5.28919124591e-05
-2.5498037717e-06
5.26733067763e-05
-3.97202418346e-06
-5.76615574152e-06
5.18644584606e-05
5.19834868696e-05
4.18998797596e-06
5.50586651415e-05
9.80990034478e-06
5.7638615046e-05
1.21156452977e-05
5.93259056342e-05
1.20656818065e-05
6.02280183041e-05
1.07325700884e-05
6.05929301136e-05
8.90015429619e-06
6.0648287645e-05
7.03829081358e-06
6.05531937882e-05
5.37797056184e-06
6.04029598183e-05
4.00222052125e-06
6.02479199337e-05
2.9149693585e-06
6.01107950583e-05
2.08393533941e-06
5.99990362384e-05
1.46463890166e-06
5.99125218339e-05
1.01253705951e-06
5.98479307918e-05
6.883194563e-07
5.98010281584e-05
4.59581028648e-07
5.97677445161e-05
3.0073560291e-07
5.97446042347e-05
1.92183596413e-07
5.97288268139e-05
1.19255307426e-07
5.97182798043e-05
7.11785935301e-08
5.97113747333e-05
4.01740058793e-08
5.97069564745e-05
2.07101743145e-08
5.970422364e-05
8.91681827398e-09
5.97026156346e-05
2.12459502874e-09
5.97017121166e-05
-1.51896579427e-09
5.9701254844e-05
-3.22791786932e-09
5.97010663805e-05
-3.79345745511e-09
5.97010312089e-05
-3.72671386918e-09
5.97010766593e-05
-3.34501769393e-09
5.97011590117e-05
-2.8379380936e-09
5.97012525393e-05
-2.31363086962e-09
5.97013433841e-05
-1.82866014635e-09
5.97014248025e-05
-1.40842404427e-09
5.97014954482e-05
-1.06090084213e-09
5.97015558144e-05
-7.83587302722e-10
5.97016068014e-05
-5.64058147864e-10
5.9701647299e-05
-3.92779082051e-10
5.9701675765e-05
-2.62429750475e-10
5.97016916426e-05
-1.65801325667e-10
5.9701690679e-05
-9.08319142936e-11
5.97016832725e-05
-2.95513380696e-11
5.97016773302e-05
6.32661982622e-12
5.97016686972e-05
3.7033395384e-11
5.97016592645e-05
5.92465015442e-11
5.97016483685e-05
7.68839972171e-11
5.97016352901e-05
9.26843882345e-11
5.97016198762e-05
1.07138059024e-10
5.97016021925e-05
1.20622007699e-10
5.97015823003e-05
1.33331851298e-10
5.97015598228e-05
1.45244512578e-10
5.97015381936e-05
1.56028577584e-10
5.97015173876e-05
1.64985285474e-10
5.97014986224e-05
1.70787167723e-10
5.97014835421e-05
1.71503749758e-10
5.97014735896e-05
1.64608099272e-10
5.97014670709e-05
1.47400764517e-10
5.97014584463e-05
1.17912939999e-10
5.97014646865e-05
4.90697116809e-11
5.97014770347e-05
-6.43511670482e-11
5.9701565338e-05
-2.91347559511e-10
5.97017573233e-05
-6.42524135265e-10
5.97020597645e-05
-1.16843433981e-09
5.97024502289e-05
-1.97886030829e-09
5.97030332786e-05
-3.18573076604e-09
5.97038913689e-05
-4.9964722176e-09
5.97051386917e-05
-7.73558926917e-09
5.97069404534e-05
-1.19029840892e-08
5.97095349313e-05
-1.8277448156e-08
5.9713266379e-05
-2.80791695406e-08
5.97186247884e-05
-4.32297149906e-08
5.97262911191e-05
-6.67795827293e-08
5.97371668981e-05
-1.0359573208e-07
5.97523146165e-05
-1.61462806215e-07
5.9772571661e-05
-2.52811964992e-07
5.97973457159e-05
-3.97435104935e-07
5.98214794286e-05
-6.26225081318e-07
5.98280982625e-05
-9.85341910453e-07
5.97751671198e-05
-1.53709675463e-06
5.95747825371e-05
-2.34941976629e-06
5.90691646051e-05
-3.46640719842e-06
-4.79518198983e-06
5.80981905336e-05
5.14373057843e-05
2.75268258012e-06
5.42658217932e-05
6.98138514461e-06
5.72496451394e-05
9.13182266543e-06
5.97900301281e-05
9.52529750438e-06
6.17201312332e-05
8.80246966392e-06
6.30883067736e-05
7.53197943136e-06
6.40167209064e-05
6.10987734756e-06
6.46292412654e-05
4.76545086185e-06
6.50258087919e-05
3.60565366389e-06
6.52790839562e-05
2.66169488383e-06
6.54389796306e-05
1.92404038833e-06
6.55386971436e-05
1.36492216343e-06
6.5599936443e-05
9.51298608887e-07
6.56367521121e-05
6.51504717799e-07
6.56582041574e-05
4.38129989303e-07
6.56701134139e-05
2.88827424331e-07
6.56762037638e-05
1.86094383416e-07
6.56788412396e-05
1.16619006736e-07
6.56795128715e-05
7.05081438966e-08
6.56791378521e-05
4.05501861977e-08
6.56782716214e-05
2.15775369721e-08
6.5677241843e-05
9.94769467545e-09
6.56762337066e-05
3.13380021655e-09
6.56753255431e-05
-6.09742484599e-10
6.56745579732e-05
-2.459267298e-09
6.5673930785e-05
-3.16513335162e-09
6.56734331136e-05
-3.22783348758e-09
6.56730474924e-05
-2.95812376345e-09
6.56727548998e-05
-2.54405569995e-09
6.56725371502e-05
-2.0945983749e-09
6.56723780867e-05
-1.66833711127e-09
6.56722640234e-05
-1.29313284545e-09
6.56721827901e-05
-9.78551612764e-10
6.56721237578e-05
-7.23548455012e-10
6.56720811641e-05
-5.20578319371e-10
6.56720508035e-05
-3.61605746332e-10
6.56720265546e-05
-2.37463522648e-10
6.56720057285e-05
-1.44265456638e-10
6.56719914185e-05
-7.58044699023e-11
6.56719904256e-05
-2.77978784525e-11
6.56719895999e-05
7.86797521906e-12
6.56719831245e-05
4.42590410704e-11
6.56719735533e-05
6.8949866557e-11
6.56719618111e-05
8.89741464198e-11
6.56719485235e-05
1.06436839675e-10
6.56719337206e-05
1.2245797176e-10
6.56719172513e-05
1.37606937543e-10
6.56718990466e-05
1.52029024866e-10
6.5671879553e-05
1.65155362305e-10
6.56718608317e-05
1.75054953915e-10
6.56718418648e-05
1.84142553298e-10
6.56718231345e-05
1.8960326254e-10
6.56718057856e-05
1.88843733403e-10
6.56717918079e-05
1.78600618966e-10
6.567178509e-05
1.54108402812e-10
6.56717934727e-05
1.0965081421e-10
6.56717987269e-05
4.33555904145e-11
6.56718353845e-05
-1.01149815356e-10
6.56719037388e-05
-3.5960782619e-10
6.56720041072e-05
-7.429419965e-10
6.56721571286e-05
-1.32134769287e-09
6.56723698143e-05
-2.19149024297e-09
6.56726589502e-05
-3.47482408738e-09
6.56730412863e-05
-5.37878667934e-09
6.56735279771e-05
-8.22231187708e-09
6.56741169725e-05
-1.24920897297e-08
6.56747784629e-05
-1.89391541677e-08
6.56754274014e-05
-2.87284446679e-08
6.56758636041e-05
-4.36663972237e-08
6.56756604841e-05
-6.65770571529e-08
6.5673949921e-05
-1.01885848819e-07
6.56690000467e-05
-1.56513638464e-07
6.5657279752e-05
-2.4109236836e-07
6.563166504e-05
-3.71821083908e-07
6.55780127132e-05
-5.72573441471e-07
6.54691040419e-05
-8.7643402332e-07
6.52557983515e-05
-1.32379179493e-06
6.48580979327e-05
-1.9517198943e-06
6.41636174353e-05
-2.77192753162e-06
-3.71385664698e-06
6.30822916786e-05
5.10850427916e-05
1.667640212e-06
5.36118458373e-05
4.45458296642e-06
5.66873184704e-05
6.05635078224e-06
5.96894491407e-05
6.52316753909e-06
6.22997303838e-05
6.19218910943e-06
6.44136925554e-05
5.41801792607e-06
6.60471892801e-05
4.47638126517e-06
6.72686213999e-05
3.54401937049e-06
6.81599010274e-05
2.71437467346e-06
6.87977682539e-05
2.02382831584e-06
6.92467533182e-05
1.47505602074e-06
6.95579729226e-05
1.05370331412e-06
6.97704404687e-05
7.38831891514e-07
6.991318452e-05
5.08761584524e-07
7.00073967416e-05
3.4391877004e-07
7.00683075393e-05
2.27917702416e-07
7.0106710908e-05
1.47692150234e-07
7.01301546164e-05
9.31764617582e-08
7.01438451733e-05
5.68187554353e-08
7.01513227003e-05
3.30738117354e-08
7.0154956578e-05
1.7944783153e-08
7.01563057254e-05
8.59964021721e-09
7.01563789461e-05
3.06165845334e-09
7.01557882719e-05
-1.7925506413e-11
7.01549287352e-05
-1.59860963213e-09
7.01540065115e-05
-2.24173417428e-09
7.01531393022e-05
-2.35938596735e-09
7.01523807794e-05
-2.19827696875e-09
7.01517480978e-05
-1.91001829276e-09
7.01512384173e-05
-1.58354813804e-09
7.01508386877e-05
-1.26738348137e-09
7.01505320296e-05
-9.85268988263e-10
7.01503007091e-05
-7.46166583394e-10
7.01501285904e-05
-5.50460411106e-10
7.01500026766e-05
-3.93799455872e-10
7.01499123321e-05
-2.70479549095e-10
7.01498504544e-05
-1.74880852658e-10
7.01498096343e-05
-1.02768762016e-10
7.01497819331e-05
-4.74219354094e-11
7.01497527018e-05
2.02254728375e-12
7.01497300897e-05
3.11499928616e-11
7.01497177728e-05
5.71320269096e-11
7.0149707909e-05
7.93595602004e-11
7.01496987199e-05
9.86874490532e-11
7.01496894304e-05
1.16264253609e-10
7.01496796247e-05
1.32792675036e-10
7.01496691563e-05
1.48596551348e-10
7.01496580476e-05
1.63628398894e-10
7.01496461449e-05
1.77478238666e-10
7.01496320077e-05
1.89536261129e-10
7.01496175356e-05
1.98880554982e-10
7.01496035597e-05
2.03718111869e-10
7.0149590867e-05
2.01559565265e-10
7.01495799448e-05
1.89440429352e-10
7.014957035e-05
1.63628889593e-10
7.01495590525e-05
1.20571515987e-10
7.0149554184e-05
4.85162590715e-11
7.01495420588e-05
-8.90739659494e-11
7.01495549999e-05
-3.72516223527e-10
7.01495794204e-05
-7.67446939324e-10
7.01496042378e-05
-1.34613634204e-09
7.01496081814e-05
-2.19541120165e-09
7.01495645972e-05
-3.43121720589e-09
7.01494203587e-05
-5.23453224694e-09
7.01490766619e-05
-7.87868733986e-09
7.01483586333e-05
-1.17742238769e-08
7.01469648904e-05
-1.75456971589e-08
7.0144384457e-05
-2.61484253482e-08
7.01397440779e-05
-3.90265783817e-08
7.01315638063e-05
-5.83974485355e-08
7.01173554607e-05
-8.76782149655e-08
7.00929673967e-05
-1.32126287973e-07
7.00513152598e-05
-1.99440920758e-07
6.99804332807e-05
-3.00939759715e-07
6.98603688303e-05
-4.52509643058e-07
6.96586994445e-05
-6.74765331883e-07
6.9325548259e-05
-9.90641298715e-07
6.87914246192e-05
-1.41759675102e-06
6.79738295825e-05
-1.95433316538e-06
-2.55483222548e-06
6.68148047157e-05
5.08804136457e-05
7.87227029705e-07
5.31704675224e-05
2.16453000949e-06
5.62177518191e-05
3.00906726871e-06
5.94382724967e-05
3.30264758392e-06
6.24449729458e-05
3.18548935153e-06
6.50382569575e-05
2.82473456423e-06
6.71548710717e-05
2.35976775005e-06
6.88135700925e-05
1.88532093914e-06
7.00731766214e-05
1.45476874312e-06
7.10056741311e-05
1.09133142723e-06
7.16812710125e-05
7.99459803945e-07
7.21614310263e-05
5.73544032167e-07
7.24966126918e-05
4.03651034166e-07
7.2726490076e-05
2.78885095252e-07
7.28812899004e-05
1.89119930967e-07
7.2983480664e-05
1.25727997444e-07
7.30494255296e-05
8.17484039221e-08
7.30908287681e-05
5.17743735324e-08
7.31159238652e-05
3.17248153852e-08
7.31304095357e-05
1.85892870911e-08
7.31381653922e-05
1.01900472876e-08
7.31417869496e-05
4.979178113e-09
7.3142975777e-05
1.87391547171e-09
7.31428304773e-05
1.28421135812e-10
7.31420083979e-05
-7.75396311513e-10
7.31409266843e-05
-1.15881027326e-09
7.31398130454e-05
-1.2444904194e-09
7.31387869069e-05
-1.17083275229e-09
7.31379006535e-05
-1.0224893325e-09
7.31371682587e-05
-8.49801436287e-10
7.31365821929e-05
-6.80073690487e-10
7.31361251275e-05
-5.27012237596e-10
7.31357761149e-05
-3.96102218666e-10
7.31355145585e-05
-2.87944479217e-10
7.31353221193e-05
-2.00481813738e-10
7.31351831683e-05
-1.30738374175e-10
7.31350844826e-05
-7.54693498908e-11
7.31350135755e-05
-3.11759395582e-11
7.31349610573e-05
5.75535647718e-12
7.31349319359e-05
3.17548589687e-11
7.31349094984e-05
5.41303830349e-11
7.31348933354e-05
7.38559523567e-11
7.3134881574e-05
9.16995227616e-11
7.31348724685e-05
1.08371807287e-10
7.31348647618e-05
1.24557228316e-10
7.31348575482e-05
1.40586346281e-10
7.3134850204e-05
1.56501524149e-10
7.31348422868e-05
1.72059029246e-10
7.31348335129e-05
1.86700663595e-10
7.31348238434e-05
1.99579663032e-10
7.31348133349e-05
2.09682686551e-10
7.3134802002e-05
2.15207363804e-10
7.31347900813e-05
2.13648318464e-10
7.31347777672e-05
2.01727815081e-10
7.3134765856e-05
1.75549069148e-10
7.31347555108e-05
1.30992067671e-10
7.31347392606e-05
6.53741882354e-11
7.31347166962e-05
-6.65755100685e-11
7.31346759809e-05
-3.31892292866e-10
7.3134610923e-05
-7.02451532684e-10
7.31344979636e-05
-1.23320830341e-09
7.31342939071e-05
-1.99134693167e-09
7.31339308265e-05
-3.06812417642e-09
7.31332938745e-05
-4.59761136971e-09
7.3132190192e-05
-6.77512798388e-09
7.31302983091e-05
-9.88254200459e-09
7.31270907635e-05
-1.43384638336e-08
7.31217129964e-05
-2.07711051492e-08
7.31127533619e-05
-3.00675275777e-08
7.30979082493e-05
-4.35530349036e-08
7.30734709345e-05
-6.32416451614e-08
7.30335466079e-05
-9.22027028703e-08
7.29686261958e-05
-1.34521191039e-07
7.28636980603e-05
-1.96012198349e-07
7.26956048339e-05
-2.84416996661e-07
7.24298602288e-05
-4.09021334186e-07
7.20181243559e-05
-5.78906062156e-07
7.13992322489e-05
-7.98705108038e-07
7.05076782404e-05
-1.06277970111e-06
-1.34605211818e-06
6.92988976766e-05
5.07871730748e-05
5.44533861813e-11
5.29516512575e-05
5.27906196424e-11
5.59606906372e-05
2.87040598523e-11
5.92633247813e-05
1.41836213925e-11
6.24488119408e-05
2.86750871095e-12
6.52735530228e-05
-5.88321952268e-12
6.76333330132e-05
-1.16535581766e-11
6.95186690076e-05
-1.44876920995e-11
7.09734531536e-05
-1.48309750656e-11
7.20647984665e-05
-1.32919516481e-11
7.28642694136e-05
-1.05028538096e-11
7.34378212681e-05
-7.10928796145e-12
7.38414768665e-05
-3.76426044682e-12
7.4120363964e-05
-1.10984309951e-12
7.43094846117e-05
2.68332350806e-13
7.44352136969e-05
-3.07060305255e-14
7.45169654793e-05
-2.26669623236e-12
7.45687471854e-05
-6.1897350521e-12
7.46004843086e-05
-1.11550202652e-11
7.46190909191e-05
-1.61773524129e-11
7.46293022205e-05
-2.01218437421e-11
7.46343044019e-05
-2.1882164149e-11
7.46362004328e-05
-2.09830520255e-11
7.46363487028e-05
-1.87017033829e-11
7.46355906687e-05
-1.62072880305e-11
7.46344461153e-05
-1.30456269946e-11
7.46332122856e-05
-9.40993059765e-12
7.46320481581e-05
-5.35455556924e-12
7.46310274709e-05
-4.62322607903e-13
7.46301753433e-05
3.67755620851e-12
7.46294881563e-05
8.36067680533e-12
7.46289489329e-05
1.33812990993e-11
7.4628535235e-05
1.86562734463e-11
7.4628223991e-05
2.42645524705e-11
7.46279939898e-05
3.03800859405e-11
7.46278268867e-05
3.71170946868e-11
7.46277075549e-05
4.4559711327e-11
7.46276242976e-05
5.27059452327e-11
7.46275690891e-05
6.15774183525e-11
7.46275306841e-05
7.08034338272e-11
7.46275051399e-05
8.03025581106e-11
7.4627488606e-05
9.09987828491e-11
7.46274780982e-05
1.02815176035e-10
7.46274714091e-05
1.15664598784e-10
7.46274670075e-05
1.29560693e-10
7.46274638091e-05
1.44372086123e-10
7.46274610413e-05
1.59815320146e-10
7.46274581577e-05
1.7543947592e-10
7.46274547359e-05
1.90582174717e-10
7.46274504141e-05
2.04315532121e-10
7.46274449854e-05
2.15438632631e-10
7.46274381983e-05
2.22170705869e-10
7.46274297404e-05
2.2224976656e-10
7.46274189093e-05
2.1260839301e-10
7.46274046049e-05
1.89877177954e-10
7.46273850499e-05
1.50590404932e-10
7.4627359595e-05
9.08064550902e-11
7.46273139569e-05
-2.12164757695e-11
7.46272263076e-05
-2.44416169999e-10
7.46270911978e-05
-5.67413282401e-10
7.46268690346e-05
-1.01109721338e-09
7.46264991739e-05
-1.62147888491e-09
7.46258853883e-05
-2.45432178059e-09
7.46248710082e-05
-3.58329845236e-09
7.4623201132e-05
-5.105417332e-09
7.46204595172e-05
-7.14117771905e-09
7.46159791408e-05
-9.85844325402e-09
7.46087029535e-05
-1.34954076695e-08
7.45968960423e-05
-1.82612154932e-08
7.45777592137e-05
-2.44168855456e-08
7.45468743236e-05
-3.23574626597e-08
7.44975168116e-05
-4.2845884292e-08
7.44189572313e-05
-5.59622803698e-08
7.42948066964e-05
-7.18622319477e-08
7.41007004922e-05
-9.0311367281e-08
7.38018429861e-05
-1.10164391189e-07
7.33516038057e-05
-1.28667448837e-07
7.2693553737e-05
-1.40655507138e-07
7.17697198148e-05
-1.38946273808e-07
-1.15056712029e-07
7.05387239526e-05
5.07871720594e-05
-7.87117080729e-07
5.29516504541e-05