/*--------------------------------*- C++ -*----------------------------------*\
| =========                 |                                                 |
| \\      /  F ield         | OpenFOAM: The Open Source CFD Toolbox           |
|  \\    /   O peration     | Version:  2106                                  |
|   \\  /    A nd           | Website:  www.openfoam.com                      |
|    \\/     M anipulation  |                                                 |
\*---------------------------------------------------------------------------*/
FoamFile
{
    version     2.0;
    format      ascii;
    arch        "LSB;label=32;scalar=64";
    class       volScalarField;
    location    "0.085";
    object      p;
}
// * * * * * * * * * * * * * * * * * * * * * * * * * * * * * * * * * * * * * //

dimensions      [0 2 -2 0 0 0 0];

internalField   nonuniform List<scalar> 
11200
(
143.525711186
140.597109038
139.483257523
138.955925513
138.588595247
138.293816925
138.032174202
137.783638229
137.539124039
137.294062108
137.045755209
136.792448303
136.532908754
136.266200084
135.99155428
135.708296523
135.415799226
135.113454314
134.800663663
134.476849976
134.141370946
133.793579805
133.432823604
133.058433099
132.669723524
132.265994659
131.846531343
131.410604223
130.957470374
130.486373837
129.996546157
129.487206911
128.95756404
128.406813961
127.834141962
127.238723393
126.619724319
125.976301365
125.307602149
124.612765683
123.890922559
123.14119513
122.36269764
121.554536289
120.715809204
119.84560625
118.943008651
118.007088313
117.036906788
116.03151374
114.9899448
113.911218678
112.794333373
111.638261281
110.441942949
109.204279211
107.924121282
106.600258308
105.231401688
103.816165269
102.353040386
100.840364267
99.2762797281
97.6586859269
95.9851732499
94.2529370491
92.4586673567
90.5984045847
88.6673451659
86.6595751683
84.5677075783
82.3823890731
80.0914188087
77.6786256889
75.1219523915
72.3897991639
69.4346713246
66.1842652741
62.4861552113
57.7264511428
141.732669463
140.374494986
139.583522858
139.083507656
138.692518559
138.368635459
138.084114358
137.819513039
137.564027231
137.311508642
137.058129902
136.80137717
136.539512943
136.271260114
135.995617476
135.711749392
135.418917816
135.116439692
134.80365498
134.479892077
134.144501973
133.796818986
133.436205582
133.061981854
132.673453627
132.269915621
131.850649632
131.414924271
130.96199521
130.491105458
130.001485616
129.492353974
128.962916406
128.412369532
127.839902653
127.244692492
126.625905045
125.98269675
125.314215199
124.619599485
123.897980344
123.148480351
122.370214065
121.562288111
120.723801175
119.853843856
118.951498316
118.01583767
117.045924998
116.040811882
114.999536355
113.921120121
112.804564884
111.648847608
110.452914484
109.215673354
107.935984165
106.612646932
105.244386584
103.829833874
102.367501551
100.855754343
99.2927689896
97.6764831835
96.0045298023
94.2741662407
92.4821777923
90.6247276928
88.6971769834
86.6938412642
84.6076513823
82.4296490334
80.1482921509
77.7484463651
75.2097219487
72.5036221571
69.5893549573
66.4090420402
62.8597893192
58.7457529845
140.737479188
140.083278411
139.530921981
139.093303216
138.721678268
138.399575471
138.110474875
137.840240836
137.579778546
137.323299253
137.066917952
136.807952762
136.544491288
136.275106029
135.998675213
135.71426936
135.421077809
135.118360778
134.805418982
134.481577591
134.146183788
133.798551443
133.437992892
133.063833364
132.67537797
132.271918524
131.852734974
131.417095047
130.964254155
130.493455549
130.003930621
129.494899458
128.965571563
128.415143036
127.84279436
127.247700585
126.629029743
125.985939493
125.317578565
124.623087068
123.901596666
123.152230895
122.374105399
121.56632808
120.727999159
119.858211114
118.956048429
118.020587092
117.050893712
116.04602419
115.00502184
113.926914831
112.810712775
111.655402302
110.459941456
109.223252593
107.944213435
106.621645775
105.254301414
103.840844287
102.379827632
100.869664876
99.3085926456
97.6946382774
96.0255661764
94.2987855258
92.5112542123
90.6593733921
88.7388286842
86.7443809711
84.6695795714
82.5063599565
80.2446251716
77.8714522817
75.3701091876
72.7187123639
69.8892335489
66.849944561
63.5647250163
60.0102179631
140.187717883
139.824336187
139.424437376
139.055445684
138.717827331
138.409722981
138.124357705
137.853652048
137.591278831
137.332611209
137.074231173
136.813607073
136.548838817
136.278458711
136.001290087
135.716349673
135.422780272
135.119804807
134.806695222
134.482749315
134.147275624
133.799613195
133.439069657
133.064936265
132.676515419
132.273097372
131.853959886
131.418368901
130.965578436
130.49483056
130.005355467
129.496371585
128.967086101
128.416696565
127.844392763
127.249352163
126.630743309
125.987722531
125.319437616
124.625028766
123.903628162
123.154360316
122.376342315
121.568683966
120.730487882
119.860849501
118.958856941
118.023590573
117.054122304
116.0495145
115.008818366
113.931071671
112.815295719
111.660491424
110.465634327
109.229668341
107.951497947
106.629978361
105.263902842
103.851986299
102.392846053
100.88498383
99.3267415236
97.7162613705
96.0514396703
94.3298769292
92.5487979527
90.7049508986
88.794482603
86.8127826135
84.7542927003
82.6122803202
80.378508779
78.0429271731
75.5934307497
73.0158932261
70.2955198142
67.4225288806
64.4004445567
61.2663131381
139.853669814
139.621874001
139.320460757
139.009482277
138.704640802
138.412615032
138.133636877
137.864508271
137.601545789
137.34145943
137.081488842
136.819396559
136.55338988
136.282019405
136.004087956
135.718577941
135.424596
135.121332185
134.808030475
134.483967198
134.148436719
133.800743307
133.440180677
133.066056481
132.677663384
132.274285423
131.855197113
131.419662393
130.966934071
130.496253613
130.006851294
129.497946396
128.968747324
128.418451489
127.846245228
127.251304415
126.632792886
125.989869729
125.32168445
124.627380222
123.906091736
123.156945889
122.379062172
121.571553007
120.7335241
119.86407463
118.962297215
118.027277859
117.058095528
116.053821031
115.013515847
113.936230297
112.821001008
111.666847638
110.472768675
109.237736072
107.96068819
106.640520071
105.276073997
103.866126237
102.409377277
100.904417008
99.3497052524
97.7435487932
96.0840545455
94.3690810333
92.5961809068
90.7625322382
88.8648552739
86.8993151634
84.8614139043
82.7458843205
80.5466137835
78.2566763076
75.86863936
73.3754758037
70.7729647506
68.0655258313
65.2745204283
62.4506675351
139.650277228
139.474374883
139.233179295
138.965852099
138.688663135
138.412022357
138.140329838
137.873825208
137.611057085
137.35004553
137.088755715
136.825320583
136.558114541
136.285746497
136.007023147
135.720906242
135.426473078
135.122883528
134.809354133
134.485138298
134.149511636
133.801761205
133.441176569
133.067052084
132.678674387
132.275323229
131.856269973
131.420776264
130.968093323
130.497461564
130.008110308
129.499257771
128.970111318
128.419867777
127.847713641
127.252826175
126.634374278
125.991518716
125.323413237
124.629201167
123.908016849
123.158987634
122.381235088
121.57387476
120.736016239
119.866763456
118.965214908
118.030463507
117.061596306
116.057694256
115.017831114
113.941072023
112.826471615
111.673071492
110.47989695
109.245952863
107.970218867
106.651644221
105.289137096
103.881555898
102.427680662
100.926215771
99.3757780093
97.7748526283
96.1217724332
94.4146876793
92.6515278227
90.8299595661
88.9473433016
87.000693335
84.986653366
82.9015107312
80.7412981301
78.5020725608
76.1805470141
73.775369153
71.2896124598
68.7354569349
66.1399124795
63.5501911324
139.527160392
139.371552527
139.16524994
138.928686522
138.673209564
138.409927953
138.145312363
137.881801273
137.619665602
137.358077647
137.095703463
136.831066551
136.562737033
136.289406134
136.00990131
135.723174479
135.428280089
135.1243516
134.81058025
134.486197358
134.150460382
133.802642526
133.442024135
133.067888643
132.679516181
132.276182172
131.857154745
131.421693236
130.969047279
130.498456256
130.00914899
129.500343696
128.971248118
128.421059821
127.848966964
127.254148305
126.635773227
125.993002694
125.32498774
124.630870484
123.909789945
123.160878655
122.38326143
121.576057164
120.738379667
119.869338088
118.968037275
118.033578046
117.065057191
116.061567022
115.022195371
113.946024673
112.832130659
111.679580689
110.487431545
109.25472644
107.980490771
106.663726635
105.30341034
103.898480144
102.447833745
100.950313377
99.4046901626
97.8096516559
96.1637861252
94.4655646239
92.7133232663
90.9052488404
89.0393725133
87.1135808716
85.1256612091
83.0734085466
80.9548473022
78.7686504666
76.5148964442
74.1963608102
71.8206262262
69.4033542164
66.971521073
64.5646345695
139.453080724
139.303070412
139.11631409
138.900207536
138.660499886
138.407676738
138.149037525
137.888297165
137.62692837
137.36500487
137.101785882
136.836147975
136.566850529
136.292672072
136.012468729
135.725190166
135.42987429
135.125633092
134.811636309
134.487096047
134.151253701
133.803369519
133.442713828
133.068562291
132.680189253
132.276865978
131.857857565
131.422421239
130.969805226
130.499248036
130.009978065
129.501213457
128.97216216
128.422022117
127.849981604
127.255219534
126.636905759
125.99420127
125.326260235
124.632231878
123.911254697
123.162461571
122.384980496
121.577934544
120.740442455
119.871619288
118.970577007
118.036424973
117.068270381
116.065218736
115.026373415
113.950835533
112.837703548
111.686072499
110.495032922
109.2636694
107.991058712
106.676267306
105.318347228
103.91633283
102.469231377
100.976022432
99.4356516267
97.847022436
96.2089907158
94.5203614948
92.7798899703
90.9862912232
89.1382654775
87.2345500031
85.2740161165
83.2558362042
81.1797736903
79.0466538866
76.859110809
74.6227119354
72.3475490352
70.0503151944
67.7558126263
65.4962083361
139.410804423
139.261356585
139.08494039
138.881201165
138.651667126
138.405957106
138.151595297
137.892955034
137.632246452
137.370150656
137.106351813
136.839992043
136.569979695
136.295165875
136.014433474
135.726733815
135.431094271
135.12661165
134.812439926
134.487776853
134.151851657
133.803914659
133.443228642
133.069062998
132.680688158
132.277372059
131.858377456
131.422959992
130.970366862
130.499835976
130.010595463
129.501863429
128.972848013
128.422747542
127.850750835
127.256037622
126.63777907
125.995138501
125.327272231
124.633327024
123.912445891
123.163765411
122.38641698
121.579527792
120.742221698
119.873620035
118.972842427
118.039007562
117.071233896
116.068640287
115.03034654
113.95547385
112.843145102
111.69248509
110.502620602
109.272680301
108.001794318
106.689093522
105.333708156
103.934769637
102.491407992
101.002749044
99.4679169369
97.8860350303
96.2562304217
94.5776433206
92.8494439781
91.0708622661
89.2412375443
87.3600992171
85.4272973843
83.4432040079
81.4090285748
79.3272801458
77.2024334693
75.0418295537
72.8567886659
70.6638259553
68.4851191408
66.3470067063
139.391528108
139.241650102
139.069686555
138.871750102
138.647187419
138.405066707
138.152929748
137.895418959
137.635090056
137.372927297
137.10883548
136.842098838
136.571707644
136.296554159
136.015537336
135.727610494
135.431795982
135.127182774
134.812916509
134.488187268
134.152217739
133.804252967
133.443551893
133.069379769
132.681005695
132.277695648
131.858711139
131.423307033
130.970730073
130.500217972
130.010998906
129.502291124
128.973303125
128.423233789
127.851272706
127.256600626
126.638389945
125.995805158
125.328002893
124.63413419
123.913343636
123.16477052
122.387549855
121.580813278
120.743690033
119.875307983
118.974794655
118.041278306
117.073889009
116.071759734
115.034027383
113.95983386
112.84832719
111.698662726
110.510004428
109.281526212
108.012413402
106.701864304
105.349091146
103.953323602
102.51381468
101.029834253
99.5006860952
97.925713093
96.3043097167
94.6359422871
92.920178765
91.1567335222
89.3455338317
87.4868167404
85.5812823281
83.6303051657
81.6362502062
79.6028879178
77.5359563929
75.4438524149
73.3383773896
71.2353967673
69.1547393849
67.1184914779
139.391530882
139.241666346
139.069713726
138.87178647
138.647232202
138.405119059
138.15298874
137.895483764
137.635159987
137.373001798
137.108914112
136.842181275
136.571793649
136.296643575
136.015630068
135.727706484
135.431895223
135.1272853
134.813022395
134.488296642
134.152330798
133.804369996
133.443673342
133.069506133
132.681137628
132.277833924
131.858856689
131.423460991
130.970893813
130.500393133
130.011187369
129.502495319
128.973526008
128.423478965
127.851544567
127.256904479
126.638732178
125.996193541
125.328447447
124.634646471
123.913937609
123.165463207
122.388361963
121.581769997
120.744821998
119.876652437
118.976396851
118.043193203
117.076183324
116.074514416
115.037340623
113.963824761
112.853140247
111.704473296
110.51702536
109.290015863
108.022685296
106.714298779
105.36414987
103.971565726
102.535916694
101.056623714
99.5331616382
97.9650835326
96.3520380902
94.6937970228
92.9902952483
91.2416858965
89.4484177174
87.6113659579
85.7320285345
83.8125259975
81.8560776552
79.8673441801
77.8528699615
75.8216060756
73.7854152314
71.7594254241
69.7616780056
67.8114195854
139.410812795
139.261405687
139.085022501
138.881311009
138.651802326
138.406114927
138.151772916
137.893149991
137.632456696
137.370374523
137.106588005
136.840239585
136.570237886
136.29543424
136.014711717
135.727021786
135.431391955
135.126919155
134.812757483
134.488104846
134.152190671
133.804265518
133.443592595
133.069441686
132.681083439
132.277786214
131.858813237
131.423420722
130.970856563
130.500359499
130.011158665
129.502473465
128.973513611
128.423479383
127.851562016
127.256944182
126.638800536
125.996298335
125.328598087
124.634854321
123.914216484
123.16582991
122.388836933
121.582378098
120.745593478
119.877624066
118.977613301
118.044708719
117.078063741
116.07683959
115.040207389
113.967350526
112.857467379
111.709774432
110.523509848
109.297937564
108.032351985
106.726083514
105.378504932
103.98903789
102.557165105
101.082443617
99.5645196498
98.0031466917
96.3982152799
94.7497915144
93.0581561459
91.32385682
89.5478063589
87.7313679777
85.8764603807
83.9859595959
82.063757926
80.1151141375
78.1470530488
76.168775142
74.1920240077
72.2313084678
70.3034823749
68.4261487142
139.453094865
139.303153477
139.11645277
138.900392671
138.660727318
138.407941742
138.149335309
137.888623595
137.627280022
137.365378983
137.102180308
136.836561105
136.567281209
136.293119521
136.012932467
135.725669964
135.430370135
135.126145174
134.812165027
134.487642061
134.151818004
133.803953421
133.443319383
133.069192011
132.680846271
132.277554071
131.858581264
131.423186002
130.970617643
130.500116076
130.01091138
129.502223777
128.973263762
128.423232421
127.85132187
127.25671578
126.638589965
125.996113023
125.328447041
124.634748458
123.914169051
123.165857029
122.388958245
121.582617531
120.745980144
119.878193358
118.978408214
118.04578146
117.079477663
116.078671518
115.042550453
113.970317613
112.861195309
111.714429026
110.529292057
109.305090869
108.041171295
106.736925796
105.391802229
104.005314231
102.577052822
101.106703628
99.5940669418
98.0390798026
96.4418460537
94.8026719882
93.1221235926
91.4011000061
89.6409003183
87.8433349432
86.0108537089
84.1467295169
82.2552705162
80.3420940113
78.4144413726
76.4815181483
74.5548200941
72.6483825853
70.7784659047
68.9621521463
139.52718064
139.371671666
139.165448228
138.928950316
138.673532603
138.410303316
138.145733169
137.88226167
137.620160791
137.358603785
137.096257576
136.831646418
136.563341067
136.290033261
136.010550879
135.723846177
135.428973897
135.125067768
134.811319296
134.486960165
134.151248342
133.803457502
133.442868962
133.068766724
132.68043177
132.277140442
131.8581619
131.422756736
130.970176126
130.499661344
130.010443565
129.501743926
128.972773757
128.422734963
127.850820512
127.256215009
126.638095332
125.995631357
125.327986725
124.63431972
123.913784317
123.165531403
122.388710086
121.582469179
120.745958806
119.878332139
118.978747362
118.046369858
117.08037462
116.079948947
115.04429551
113.972635908
112.864214797
111.718304702
110.534211623
109.31128151
108.048907757
106.746540017
105.403694614
104.019967131
102.595047766
101.128739557
99.6209806103
98.07187226
96.4817136814
94.8510431773
93.1806879408
91.4718278464
89.7260761126
87.9455792167
86.1331368
84.2923505756
82.4278009335
80.5452669126
78.6519872611
76.756962784
74.8713059277
73.0086497363
71.1851126357
69.4182647221
139.650304199
139.47453375
139.233442339
138.966200288
138.689087621
138.41251371
138.14087895
137.874424479
137.61170036
137.350727925
137.089473474
136.826070914
136.558895455
136.286556658
136.007861739
135.721772865
135.427367655
135.12380624
134.810305359
134.486118739
134.150522602
133.802805259
133.442259232
133.068177179
132.679846713
132.276548983
131.857556701
131.422133076
130.96953121
130.498993828
130.009753235
129.501031491
128.972040753
128.421983741
127.850054272
127.255437816
126.637312106
125.994848008
125.327210465
124.633559512
123.913051328
123.164839416
122.388075956
121.581913372
120.745506117
119.878012647
118.978597595
118.04643417
117.080706827
116.080614284
115.045373011
113.97422129
112.866423942
111.721277888
110.538118632
109.316327794
108.055341786
106.754661848
105.413866062
104.032623728
102.610712609
101.148039777
99.6446664667
98.1008379064
96.5170194473
94.8939399997
93.2326441764
91.5345542496
89.8015434808
88.0360238979
86.2410490173
84.4204369048
82.5789075645
80.7222481204
78.8575163401
76.9933036084
75.1401285321
73.3110969329
71.5223093605
69.7925626367
139.853704132
139.622077398
139.320794991
139.00992182
138.705173533
138.413228589
138.134319783
137.865251182
137.602341265
137.342301636
137.082373326
136.820320051
136.554350093
136.283014863
136.005117855
135.719642018
135.425694403
135.122465263
134.809198591
134.485171226
134.149678073
133.802021985
133.441507651
133.067435073
132.679098661
132.275784352
131.85676831
131.421316268
130.968683174
130.498113096
130.008839352
129.500084816
128.971062376
128.420975519
127.849018902
127.254378966
126.636234562
125.993757679
125.326114253
124.632465308
123.911968358
123.163778817
122.387051555
121.580942429
120.744609987
119.877217513
118.977935372
118.045943625
117.08043499
116.08061819
115.045721832
113.974998836
112.867731735
111.723238899
110.540881717
109.32007254
108.060284198
106.761062359
105.422038275
104.042944619
102.62363448
101.164103979
99.6645190415
98.1252470614
96.5468942677
94.9303495359
93.2768357165
91.5879693067
89.865828425
88.1130296241
86.332812272
84.5291316593
82.7067561276
80.8713738839
79.0297230647
77.1897778136
75.3611319646
73.5559161369
71.7896530602
70.0822155286
140.187759504
139.824587722
139.424845254
139.055976921
138.718465839
138.410452987
138.12516526
137.854526123
137.592210795
137.333594374
137.075260499
136.814678917
136.54995072
136.279609246
136.00247877
135.717576957
135.424047586
135.12111449
134.808050256
134.484155342
134.148743174
133.801129295
133.440629189
133.066551117
132.67819536
132.274852155
131.855800785
131.420309284
130.967634313
130.497021101
130.007703714
129.498905623
128.969840239
128.419711398
127.847714035
127.253035044
126.634854134
125.992344447
125.324673698
124.631004565
123.910496164
123.162305918
122.385590764
121.579508883
120.743221774
119.875896474
118.976708013
118.044842206
117.079498844
116.079894772
115.045268416
113.974884659
112.868040528
111.724071866
110.542361124
109.322346671
108.063533318
106.765503384
105.427931855
104.050603529
102.633433233
101.176489723
99.6800237805
98.1445011115
96.5706406926
94.9594590311
93.3123207514
91.6309954656
89.917719978
88.1752651013
86.4070043531
84.6169809302
82.8099647527
80.9914969719
79.167924759
77.3464351156
75.5352772676
73.7447529185
71.9879989683
70.2834821393
140.737532882
140.083592186
139.531413466
139.093931427
138.722423426
138.400418524
138.111399667
137.841234892
137.580832193
137.324404994
137.068070075
136.809147006
136.545724541
136.276376089
135.999980632
135.715609488
135.422453241
135.119774471
134.806876527
134.48308345
134.147726497
133.800129175
133.439622408
133.065521549
132.677131664
132.27374657
131.854648137
131.419106291
130.966379077
130.495712939
130.006342838
129.497492906
128.968377205
128.418200269
127.846157631
127.251436093
126.633214214
125.990666214
125.322959709
124.629258338
123.908722955
123.160512427
122.383785514
121.577702733
120.74142831
119.87413244
118.974993856
118.043202699
117.077963687
116.078500391
115.044059244
113.973914642
112.867375047
111.723790064
110.542558513
109.323137613
108.065055348
106.767922233
105.431446746
104.055453426
102.639904137
101.184923026
99.6908257433
98.1581532616
96.5877107007
94.9806115116
93.3383270341
91.6627404636
89.9562047717
88.2216047024
86.4624123333
84.6827352939
82.8873424371
81.081655935
79.2716808079
77.4637796878
75.6645552436
73.881448969
72.1214345238
70.3927032108
141.732770594
140.374954253
139.58420687
139.084363444
138.6935229
138.369767522
138.085357158
137.820853592
137.565455486
137.31301676
137.059711781
136.803028003
136.541228759
136.273037285
135.997452234
135.713637345
135.420853227
135.118414345
134.805662227
134.481943179
134.146595559
133.798991756
133.438458361
133.06431669
132.675877015
132.272436412
131.853278852
131.417675242
130.964882228
130.494146776
130.004705568
129.495783309
128.966594264
128.416343132
127.844225801
127.249430515
126.63113895
125.988523966
125.320753836
124.626992778
123.906401996
123.158141228
122.381370375
121.575251301
120.738949895
119.871638423
118.972498164
118.04072239
117.075519718
116.07611798
115.041768741
113.97175273
112.865386136
111.722027938
110.541088497
109.322039638
108.064424747
106.767873402
105.43211701
104.057007316
102.64253826
101.188871561
99.696366421
98.1656137711
96.5974754631
94.9931285931
93.3541143995
91.6823893119
89.9803836689
88.2510694876
86.4979942552
84.7253262385
82.9378710463
81.1410484142
79.34075763
77.5428644979
75.7528910337
73.9755684999
72.2057705821
70.4129257884
143.525879
140.597780768
139.484252134
138.957180677
138.590080633
138.295507863
138.034052139
137.785689707
137.541339321
137.296434365
137.048279993
136.795123217
136.535733292
136.269175624
135.99468419
135.711586293
135.419256596
135.117088706
134.804478956
134.480824758
134.145522894
133.797911039
133.437336792
133.063135535
132.674624714
132.271105838
131.851865731
131.416177638
130.96330418
130.492492419
130.002976186
129.493979898
128.964717942
128.414395049
127.842206983
127.247341287
126.628978232
125.986291868
125.318450969
124.624620139
123.903961136
123.155634292
122.378800169
121.572621424
120.73626491
119.868904023
118.969721375
118.03791179
117.072685734
116.073273325
115.038928936
113.968936664
112.862616734
111.719332917
110.538501118
109.319599386
108.062179583
106.765881104
105.430446881
104.055742356
102.641777737
101.188733983
99.6969929546
98.1671720887
96.6001639879
94.99718094
93.3598050392
91.6900462969
89.9903959313
88.2638629268
86.5140537447
84.745207394
82.9622172744
81.1706120074
79.376468033
77.5863574365
75.8068229328
74.0429938399
72.2753899179
70.3780749613
50.3104039806
46.762914817
44.37696446
42.4282401481
40.7666024006
39.3200247711
38.0430187491
36.9048763036
35.88350217
34.9622470849
34.1281639465
33.3708817958
32.6818506729
32.0538389702
31.480604237
30.9566813485
30.477242935
30.0380045939
29.635152761
29.2652884782
28.9253772331
28.6127075258
28.3248520044
28.0596345477
27.8151012095
27.5894928998
27.3812243792
27.1888627359
27.0111102642
26.8467898807
26.6948308058
26.5542574516
26.4241798079
26.3037843764
26.1923260883
26.0891223213
25.9935469201
25.9050248456
25.8230273123
25.7470677049
25.6766979412
25.611505916
25.5511161391
25.4951833461
25.4433487669
25.3952968013
25.3507386592
25.3094065754
25.2710523743
25.2354466984
25.2023798896
25.1716680688
25.1431151018
25.1165460513
25.0918014908
25.0687342408
25.0472081915
25.0270973854
25.0082850887
24.9906631654
24.9741316702
24.9585983378
24.9439780205
24.930192042
24.9171676779
24.9048379083
24.8931410257
24.8820200927
24.8714226539
24.8613005553
24.8516095058
24.8423086914
24.8333606855
24.8247312383
24.8163888072
24.8083042588
24.8004508877
24.7928044185
24.7853426624
24.7780449722
24.7708921139
24.7638665917
24.7569524395
24.7501345122
24.7433983676
24.7367306576
24.7301192818
24.7235528922
24.7170202841
24.7105106053
24.7040136547
24.6975193934
24.6910175595
24.6844974995
24.6779483783
24.6713594755
24.6647194366
24.6580158698
24.6512356782
24.6443649581
24.6373885716
24.6302895892
24.6230494096
24.6156475676
24.6080608595
24.6002631646
24.5922253862
24.5839149583
24.5752947344
24.5663224074
24.5569498012
24.5471223434
24.5367775301
24.5258435479
24.514237749
24.5018649748
24.4886154409
24.4743612412
24.4589534947
24.4422180764
24.4239505941
24.4039108657
24.3818136781
24.3573194022
24.3300211275
24.2994289743
24.2649492572
24.2258557188
24.1812530703
24.1300292147
24.0707906278
24.001772499
23.9207163419
23.8247050032
23.7099344186
23.5714051153
23.4025404406
23.1947842832
22.9373531586
22.6175590525
22.2224818569
21.7427846297
21.1790643815
20.5492214945
19.8934240299
19.2720521599
18.7543975202
18.3991091323
18.2301082336
18.2186014654
18.2747950823
18.2489621896
17.9632596591
17.2440865714
15.9553073883
14.0423362243
11.5762885141
8.61491688976
4.94269968695
1.0375015813
53.4956011767
49.4437860402
46.7378288557
44.5946273991
42.8032676405
41.2635965978
39.9159243275
38.7220542764
37.6554367366
36.6965797344
35.830637747
35.0459217068
34.3329378708
33.6837615659
33.0916319803
32.5506903841
32.0558071072
31.6024635253
31.1866628099
30.8048612486
30.4539087305
30.130999989
29.8336314989
29.5595631052
29.3067872182
29.0734991192
28.8580732438
28.6590419357
28.4750768546
28.3049728906
28.1476350575
28.0020653418
27.8673528621
27.7426644188
27.6272360492
27.5203662902
27.4214095902
27.3297712636
27.244902091
27.1662941344
27.0934768198
27.0260130829
26.9634961507
26.9055494959
26.8518336623
26.8020332724
26.7558530003
26.7130181013
26.6732733076
26.6363809509
26.6021190528
26.57028177
26.5406816222
26.5131440877
26.4875059392
26.4636153703
26.4413315882
26.4205238576
26.401070881
26.3828604094
26.3657886231
26.3497596056
26.3346846974
26.3204819845
26.3070759194
26.2943967752
26.2823803459
26.2709674343
26.2601034298
26.2497381721
26.2398255387
26.2303228797
26.2211911664
26.2123948651
26.2039010123
26.1956791047
26.187701343
26.179942368
26.172379072
26.1649899306
26.1577547742
26.1506555585
26.1436756937
26.1367991314
26.1300109342
26.1232975703
26.1166462478
26.1100453356
26.1034835779
26.0969497176
26.0904334762
26.0839247782
26.0774131206
26.0708880254
26.0643386945
26.0577545344
26.0511248093
26.044437168
26.037678922
26.0308370364
26.0238962178
26.0168406845
26.0096526345
26.002311663
25.9947964896
25.987081319
25.9791381544
25.9709363302
25.962439428
25.9536063175
25.9443922536
25.9347409981
25.9245954757
25.9138834701
25.9025244601
25.8904255514
25.8774788039
25.8635575133
25.8485145657
25.8321771377
25.8143399897
25.794765612
25.7731658037
25.7491986924
25.7224552526
25.6924370234
25.6585446275
25.6200360836
25.5759995542
25.5252992042
25.4665077204
25.3978140094
25.3168998274
25.2207593112
25.105470299
24.9658613955
24.7951140371
24.5843127669
24.322162781
23.9952648558
23.5897839415
23.095328581
22.5114749397
21.8553127387
21.1663612789
20.5047979588
19.9382497576
19.5246770003
19.2858194684
19.1918516119
19.1504306144
19.0159566649
18.6142919735
17.7787740371
16.3818935406
14.375395789
11.8292585101
8.80371489029
5.09536991593
1.12371490853
55.706268442
51.7730108936
48.9119675307
46.6372874558
44.7458258552
43.129392364
41.7215158228
40.47926853
39.3729038511
38.3807433315
37.4864117006
36.6771242636
35.9425858315
35.2742761605
34.6649852989
34.108513391
33.5994689913
33.133131879
32.7053478915
32.3124504196
31.9511912134
31.6186866745
31.3123689803
31.0299447605
30.7693619765
30.5287768187
30.3065303037
30.1011246476
29.9112039286
29.7355377815
29.5730075822
29.4225927159
29.2833607782
29.1544579962
29.0351005048
28.9245677908
28.8221968341
28.7273765217
28.6395427132
28.5581743513
28.4827900356
28.4129441998
28.3482247615
28.2882501198
28.2326639444
28.1811367139
28.1333629345
28.0890590081
28.0479616385
28.0098262254
27.974425431
27.9415483127
27.9109973509
27.8825893181
27.8561542771
27.8315345653
27.80858393
27.7871666667
27.7671568933
27.7484381048
27.730902579
27.7144506825
27.6989902331
27.6844361445
27.6707099873
27.6577393303
27.6454575135
27.6338031747
27.6227196214
27.6121546443
27.6020603192
27.592392458
27.5831105797
27.5741778077
27.5655599406
27.5572253477
27.5491453575
27.5412937334
27.5336464146
27.5261813163
27.5188778116
27.5117171044
27.5046820245
27.4977562122
27.4909243787
27.484172667
27.4774880133
27.4708585736
27.4642730006
27.4577199094
27.4511889918
27.4446701472
27.4381528265
27.4316266835
27.425081122
27.4185058052
27.4118903621
27.4052229299
27.3984912167
27.3916826421
27.3847826057
27.3777758865
27.3706455369
27.3633720817
27.3559352789
27.3483106313
27.3404709751
27.3323871546
27.3240246763
27.3153434693
27.3063010768
27.2968433975
27.2869147749
27.2764457533
27.2653578921
27.2535604362
27.2409483491
27.2273974086
27.2127621877
27.1968731372
27.1795265572
27.1604864801
27.1394662584
27.1161241929
27.0900519131
27.0607486789
27.0276112365
26.9898926432
26.9466721647
26.8968014973
26.8388363762
26.7709399908
26.6907606941
26.595244559
26.4804003213
26.3409575672
26.1699510738
25.9582428062
25.6941999061
25.363925126
24.9528977493
24.4498599446
23.8534460524
23.1798060121
22.4670849162
21.7749275823
21.1679908933
20.7033602021
20.4001278282
20.2260692564
20.0891893433
19.8456695518
19.3268062245
18.3728335214
16.8645108363
14.7593096793
12.1253765426
9.024755727
5.26596010578
1.21381538189
57.5126029136
53.78955067
50.8918233619
48.5458107956
46.5859468019
44.9112157352
43.4550803794
42.1728101741
41.0328878098
40.0122093599
39.0933041683
38.2625568099
37.5090417967
36.8237600043