/*--------------------------------*- C++ -*----------------------------------*\
| =========                 |                                                 |
| \\      /  F ield         | OpenFOAM: The Open Source CFD Toolbox           |
|  \\    /   O peration     | Version:  2106                                  |
|   \\  /    A nd           | Website:  www.openfoam.com                      |
|    \\/     M anipulation  |                                                 |
\*---------------------------------------------------------------------------*/
FoamFile
{
    version     2.0;
    format      ascii;
    arch        "LSB;label=32;scalar=64";
    class       surfaceScalarField;
    location    "0.085";
    object      phi;
}
// * * * * * * * * * * * * * * * * * * * * * * * * * * * * * * * * * * * * * //

dimensions      [0 3 -1 0 0 0 0];

oriented        oriented;

internalField   nonuniform List<scalar> 
22100
(
3.38461194611e-05
1.61538805466e-05
2.24572059398e-05
1.13889134933e-05
1.62585442478e-05
6.19866169429e-06
1.27977617511e-05
3.4607825618e-06
1.0804623367e-05
1.99313850488e-06
9.60456984484e-06
1.20005366794e-06
8.85131023424e-06
7.53259730563e-07
8.36436454167e-06
4.8694574588e-07
8.04439251437e-06
3.19971989047e-07
7.83297493309e-06
2.1141746957e-07
7.69364898066e-06
1.39325819609e-07
7.60265694417e-06
9.09919470397e-08
7.54411228342e-06
5.85446601935e-08
7.50724956033e-06
3.68628162241e-08
7.48473979281e-06
2.25099234814e-08
7.4716002287e-06
1.3139731795e-08
7.46446017363e-06
7.14018651097e-09
7.46104060559e-06
3.41962648178e-09
7.45973715852e-06
1.30342211957e-09
7.45983682512e-06
-9.97593158431e-11
7.46065397891e-06
-8.17278716922e-10
7.46174297999e-06
-1.0891147995e-09
7.46287749378e-06
-1.13458099804e-09
7.46394122318e-06
-1.06373468172e-09
7.46487640402e-06
-9.35131512205e-10
7.46566115798e-06
-7.84670872205e-10
7.46629558009e-06
-6.34327596061e-10
7.46679214043e-06
-4.96466884662e-10
7.46716928908e-06
-3.77059990897e-10
7.46744741153e-06
-2.78042241806e-10
7.46764639815e-06
-1.98919980039e-10
7.46778426006e-06
-1.37812936996e-10
7.46787641335e-06
-9.21215198674e-11
7.46793528825e-06
-5.88537880037e-11
7.46796892016e-06
-3.36117188398e-11
7.46798359151e-06
-1.46430095572e-11
7.46798642841e-06
-2.7985813043e-12
7.4679821422e-06
4.32742537685e-12
7.46797328632e-06
8.88998596146e-12
7.46796166268e-06
1.16447810346e-11
7.46794851751e-06
1.31550937091e-11
7.46793462224e-06
1.39046540197e-11
7.46792042445e-06
1.42156874077e-11
7.46790612476e-06
1.4321348837e-11
7.46789170387e-06
1.44293679335e-11
7.46787693816e-06
1.47468124319e-11
7.46786140334e-06
1.54842916468e-11
7.46784450542e-06
1.68118112277e-11
7.46782554268e-06
1.88433035509e-11
7.46780373204e-06
2.16762304475e-11
7.46777825097e-06
2.53587140365e-11
7.46774826886e-06
2.9888724787e-11
7.46771295902e-06
3.52468897866e-11
7.46767149082e-06
4.14284983545e-11
7.46762301708e-06
4.84512371153e-11
7.46756670057e-06
5.63143105237e-11
7.46750181337e-06
6.49106793252e-11
7.46742790426e-06
7.39558522093e-11
7.46734531338e-06
8.26551884013e-11
7.46725596547e-06
8.94167179057e-11
7.46716550961e-06
9.05044473442e-11
7.46708596628e-06
7.95628015649e-11
7.4670277231e-06
5.82540028252e-11
7.46700830615e-06
1.94419798372e-11
7.46706425179e-06
-5.58998053078e-11
7.46725557535e-06
-1.91274203917e-10
7.46768006965e-06
-4.24468340929e-10
7.46849341135e-06
-8.1334052479e-10
7.46993990663e-06
-1.44649698821e-09
7.47238745007e-06
-2.44751644813e-09
7.47629473715e-06
-3.90722102418e-09
7.48295758078e-06
-6.66276693319e-09
7.49406635316e-06
-1.11086824391e-08
7.51279405025e-06
-1.87275938195e-08
7.54690925134e-06
-3.41151157983e-08
7.61790249175e-06
-7.09932010966e-08
7.78875259966e-06
-1.70850126302e-07
8.25557809544e-06
-4.66825478191e-07
9.76636395441e-06
-1.51078583389e-06
-5.65521581496e-06
1.54215797767e-05
5.02175922988e-05
1.5936288252e-05
4.42441026905e-05
1.73624031293e-05
3.77794845956e-05
1.26632799037e-05
3.26461209559e-05
8.5941463901e-06
2.89380701644e-05
5.70118951495e-06
2.63596172481e-05
3.77850675631e-06
2.45875586955e-05
2.52531835237e-06
2.33736066105e-05
1.70089777003e-06
2.25438102288e-05
1.14976820787e-06
2.19787369556e-05
7.76490561321e-07
2.1596372113e-05
5.21690545134e-07
2.13400521955e-05
3.47311881229e-07
2.11703977251e-05
2.28199290648e-07
2.1059961673e-05
1.47299116477e-07
2.09896251173e-05
9.28467396547e-08
2.0946119754e-05
5.66452922288e-08
2.09202978853e-05
3.29621362978e-08
2.09059303156e-05
1.7787146506e-08
2.0898932926e-05
8.3006571728e-09
2.08963622939e-05
2.47067363179e-09
2.08964016198e-05
-8.56779569981e-10
2.08976289697e-05
-2.3165636955e-09
2.08994546835e-05
-2.96029409323e-09
2.09014465404e-05
-3.05550109369e-09
2.09033541183e-05
-2.84256105835e-09
2.09050492429e-05
-2.47962535438e-09
2.09064801964e-05
-2.06511198917e-09
2.09076415181e-05
-1.65763099809e-09
2.09085538744e-05
-1.28927995758e-09
2.09092510884e-05
-9.75150203081e-10
2.09097725265e-05
-7.20285855337e-10
2.09101598226e-05
-5.25064415434e-10
2.09104361935e-05
-3.684612591e-10
2.09106109436e-05
-2.33568361199e-10
2.09107168387e-05
-1.3945341735e-10
2.09107747958e-05
-7.25279287209e-11
2.09108022074e-05
-3.01313600803e-11
2.09108107276e-05
-4.12477202243e-12
2.09108070953e-05
1.25679914308e-11
2.09107959812e-05
2.27834854261e-11
2.09107804853e-05
2.86675447772e-11
2.09107624047e-05
3.20075625689e-11
2.09107426536e-05
3.39894206614e-11
2.09107215827e-05
3.53903964188e-11
2.09106991954e-05
3.67674146942e-11
2.09106752909e-05
3.85468814454e-11
2.09106495298e-05
4.10867744746e-11
2.09106215064e-05
4.46364209787e-11
2.09105908159e-05
4.93262833097e-11
2.09105570235e-05
5.52827596574e-11
2.09105196903e-05
6.25389564795e-11
2.09104784373e-05
7.1024355474e-11
2.09104330298e-05
8.05793971336e-11
2.09103834944e-05
9.0937851732e-11
2.09103303081e-05
1.01657305851e-10
2.09102747443e-05
1.11929768619e-10
2.09102195023e-05
1.20225890131e-10
2.09101696046e-05
1.23952604896e-10
2.09101339324e-05
1.18443524519e-10
2.09101271615e-05
9.62769032657e-11
2.09101751361e-05
4.25677719839e-11
2.09103259482e-05
-7.12300417141e-11
2.09106501885e-05
-2.65949216954e-10
2.09112668717e-05
-5.97182499696e-10
2.09123006417e-05
-1.08960536787e-09
2.09139184506e-05
-1.80902295321e-09
2.09164909696e-05
-2.99693166155e-09
2.09205861687e-05
-4.90850045528e-09
2.09271067792e-05
-7.96705286121e-09
2.09375340847e-05
-1.28746777872e-08
2.0954463657e-05
-2.0836572108e-08
2.09821581797e-05
-3.43570687644e-08
2.10278667009e-05
-5.68170668294e-08
2.11052746987e-05
-9.61355461911e-08
2.12413358504e-05
-1.70176252703e-07
2.14911486959e-05
-3.20806086333e-07
2.19676160316e-05
-6.47317509156e-07
2.28946823147e-05
-1.39389172234e-06
2.46244194005e-05
-3.24052281563e-06
-7.38103153961e-06
2.63502352707e-05
5.35171027338e-05
1.24191855274e-05
5.2934959863e-05
1.79445459993e-05
4.96538257099e-05
1.59444141323e-05
4.58401661761e-05
1.24078060645e-05
4.2440089651e-05
9.10126621301e-06
3.97292074484e-05
6.48938909684e-06
3.76874200854e-05
4.5671057627e-06
3.61979178699e-05
3.19039993244e-06
3.51330926808e-05
2.21459326544e-06
3.43831827955e-05
1.52640031265e-06
3.38619107509e-05
1.04296252303e-06
3.35042536439e-05
7.04969034058e-07
3.32623000072e-05
4.70153078344e-07
3.31012540795e-05
3.08345254097e-07
3.29961298777e-05
1.97971146252e-07
3.29291707606e-05
1.23604551026e-07
3.28878902159e-05
7.42427204422e-08
3.28636027811e-05
4.20745125521e-08
3.28503099208e-05
2.15933749912e-08
3.28438325351e-05
8.94789690975e-09
3.28416592333e-05
1.31639488612e-09
3.2841907081e-05
-2.56446210212e-09
3.28433624098e-05
-4.41558770749e-09
3.28453529688e-05
-5.04595647655e-09
3.28474532668e-05
-4.94271675624e-09
3.28494249649e-05
-4.45117025299e-09
3.2851150499e-05
-3.79049924975e-09
3.28525870882e-05
-3.09409320194e-09
3.28537360041e-05
-2.43809988561e-09
3.28546220921e-05
-1.86117734282e-09
3.28552803126e-05
-1.37847445002e-09
3.28557465275e-05
-9.91260854178e-10
3.28560721182e-05
-6.94028689664e-10
3.28563195663e-05
-4.80975084053e-10
3.2856487157e-05
-3.06981935888e-10
3.28565849449e-05
-1.70243753159e-10
3.28566385321e-05
-8.36538498854e-11
3.28566636298e-05
-2.91808307527e-11
3.28566696319e-05
6.57807324296e-12
3.28566635737e-05
2.88368531049e-11
3.28566502749e-05
4.19678824569e-11
3.28566326239e-05
4.96800771385e-11
3.2856612209e-05
5.44348060209e-11
3.28565897972e-05
5.78194962093e-11
3.28565656736e-05
6.08722361881e-11
3.28565398549e-05
6.4289358945e-11
3.28565121593e-05
6.8638063901e-11
3.28564823757e-05
7.42284882855e-11
3.2856450436e-05
8.10697565539e-11
3.28564162994e-05
8.92513123014e-11
3.28563800006e-05
9.87073309528e-11
3.28563417711e-05
1.09156520283e-10
3.2856302199e-05
1.20083557741e-10
3.28562624763e-05
1.30627594669e-10
3.28562248142e-05
1.39327279737e-10
3.28561931592e-05
1.43629057981e-10
3.28561742132e-05
1.39248840766e-10
3.2856178282e-05
1.19986713442e-10
3.2856221704e-05
7.51194256769e-11
3.28563314917e-05
-1.34501062603e-11
3.28565576801e-05
-1.83590248664e-10
3.28569868098e-05
-5.00329153119e-10
3.28576635536e-05
-9.42641734609e-10
3.28586544853e-05
-1.58805043806e-09
3.2860214553e-05
-2.64962449462e-09
3.28627459428e-05
-4.34038187135e-09
3.28667677043e-05
-7.01866842224e-09
3.28731230534e-05
-1.1263817606e-08
3.28831760701e-05
-1.80200121996e-08
3.28991793955e-05
-2.88779246358e-08
3.29249422286e-05
-4.65992821407e-08
3.29660677594e-05
-7.54824469695e-08
3.3032864405e-05
-1.23613598938e-07
3.31431487149e-05
-2.06419794183e-07
3.3327486607e-05
-3.54514146067e-07
3.36369597959e-05
-6.30279259143e-07
3.41478252432e-05
-1.15818293396e-06
3.49345717082e-05
-2.18063815702e-06
3.58691860346e-05
-4.17513717837e-06
-7.53273607722e-06
3.60208903811e-05
5.35105648786e-05
8.9086206421e-06
5.55742173613e-05
1.58808934788e-05
5.52424758807e-05
1.62761556492e-05
5.35977846274e-05
1.40524974215e-05
5.15418672173e-05
1.11571837543e-05
4.95803477511e-05
8.45090867943e-06
4.79245100245e-05
6.22294353204e-06
4.6618451513e-05
4.49645840279e-06
4.56310159666e-05
3.20202871556e-06
4.49060112997e-05
2.25140489266e-06
4.43854577509e-05
1.56351604711e-06
4.40186836387e-05
1.07174321324e-06
4.37647407215e-05
7.24096138274e-07
4.35919921864e-05
4.81093969054e-07
4.34767045286e-05
3.132589654e-07
4.34014523898e-05
1.98856782063e-07
4.33536604334e-05
1.22034674472e-07
4.33243855808e-05
7.13492782916e-08
4.33073544176e-05
3.86244041346e-08
4.32982381945e-05
1.80639900503e-08
4.32939095111e-05
5.64500013049e-09
4.32926328499e-05
-1.28780105981e-09
4.32931320962e-05
-4.91475739218e-09
4.32944697385e-05
-6.38346685193e-09
4.32961339273e-05
-6.60674811378e-09
4.32978230407e-05
-6.1401263434e-09
4.32993734509e-05
-5.34077453751e-09
4.33007093625e-05
-4.42991014476e-09
4.33018085817e-05
-3.53727185151e-09
4.33026798675e-05
-2.73245563656e-09
4.33033483002e-05
-2.04691827851e-09
4.33038452096e-05
-1.48817503745e-09
4.33041987433e-05
-1.0475412858e-09
4.3304425587e-05
-7.07765373464e-10
4.3304568149e-05
-4.49467260442e-10
4.33046413682e-05
-2.43383294789e-10
4.33046846986e-05
-1.26924944925e-10
4.33047076443e-05
-5.21039349715e-11
4.33047141608e-05
4.97649126827e-14
4.33047097692e-05
3.32065491244e-11
4.3304698544e-05
5.31904597221e-11
4.33046827877e-05
6.54628193728e-11
4.33046637512e-05
7.35132258999e-11
4.33046421009e-05
7.95014210473e-11
4.33046181262e-05
8.48391982902e-11
4.33045918921e-05
9.04507099993e-11
4.33045634381e-05
9.69537303767e-11
4.33045328458e-05
1.04644137898e-10
4.33045002175e-05
1.13519310353e-10
4.33044657284e-05
1.23586607038e-10
4.33044297512e-05
1.3456871561e-10
4.33043929664e-05
1.45861575988e-10
4.3304356511e-05
1.5648766974e-10
4.33043221806e-05
1.64932828134e-10
4.33042926826e-05
1.6883153602e-10
4.33042719247e-05
1.64434363804e-10
4.33042655842e-05
1.45679396542e-10
4.33042833764e-05
1.02297026166e-10
4.33043415439e-05
1.70254919076e-11
4.33044642489e-05
-1.36118737014e-10
4.33046583432e-05
-3.77665875955e-10
4.33050299853e-05
-8.71945620586e-10
4.33057142241e-05
-1.62683123483e-09
4.33068872313e-05
-2.76099277241e-09
4.3308752808e-05
-4.51514307858e-09
4.33116656257e-05
-7.25317357995e-09
4.3316201222e-05
-1.15542578514e-08
4.33232686576e-05
-1.83312048401e-08
4.33343043137e-05
-2.90555766854e-08
4.33515613641e-05
-4.61348759376e-08
4.33785171751e-05
-7.35549948731e-08
4.34210245295e-05
-1.17989708651e-07
4.34884301513e-05
-1.91019133711e-07
4.35953114041e-05
-3.13301012474e-07
4.37630698511e-05
-5.22272583726e-07
4.40186361682e-05
-8.85845500145e-07
4.43820144452e-05
-1.5215611038e-06
4.48179053439e-05
-2.61652898918e-06
4.50840422121e-05
-4.44127397663e-06
-7.0397566836e-06
4.45910627155e-05
5.27351376565e-05
6.17348295552e-06
5.57309337256e-05
1.28850973262e-05
5.7311475631e-05
1.46956137456e-05
5.76110019099e-05
1.37529712217e-05
5.7133554627e-05
1.16346311513e-05
5.63195437847e-05
9.26491962479e-06
5.54491400709e-05
7.09334728971e-06
5.46632519142e-05
5.28234654324e-06
5.40141395742e-05
3.85114100402e-06
5.35068679831e-05
2.75867644506e-06
5.31253235418e-05
1.94506049946e-06
5.28465103305e-05
1.35055650308e-06
5.26475345561e-05
9.23072042622e-07
5.2508498754e-05
6.20129914179e-07
5.24133075108e-05
4.08450320164e-07
5.2349509783e-05
2.62654554402e-07
5.23077672572e-05
1.63777164952e-07
5.22812382456e-05
9.78781947741e-08
5.22650047171e-05
5.48578196249e-08
5.22555773299e-05
2.74912915873e-08
5.22505285877e-05
1.06937201733e-08
5.22483017801e-05
9.39061400755e-10
5.22477170461e-05
-4.32990061061e-09
5.22480683409e-05
-6.73459611284e-09
5.22488779683e-05
-7.4161971873e-09
5.22498553086e-05
-7.11730650007e-09
5.22508313318e-05
-6.31668384438e-09
5.22517157177e-05
-5.31424521908e-09
5.22524679537e-05
-4.28951714807e-09
5.22530768015e-05
-3.34134845456e-09
5.22535477009e-05
-2.5178641874e-09
5.22538954056e-05
-1.83589736027e-09
5.22541407146e-05
-1.29282311306e-09
5.22543090553e-05
-8.76037510378e-10
5.2254424674e-05
-5.64996970602e-10
5.22545220427e-05
-3.406723995e-10
5.22545844739e-05
-1.89314537499e-10
5.22546280077e-05
-9.56473210785e-11
5.22546454723e-05
-1.74596195819e-11
5.22546480242e-05
3.06114647838e-11
5.2254641305e-05
5.99020403697e-11
5.22546288778e-05
7.7927177082e-11
5.22546126945e-05
8.97603766688e-11
5.22545936845e-05
9.85627749261e-11
5.22545723506e-05
1.06169976017e-10
5.22545492927e-05
1.13430419638e-10
5.22545240536e-05
1.2205499092e-10
5.22544958626e-05
1.32671480128e-10
5.22544655788e-05
1.43643443072e-10
5.22544334054e-05
1.55622937608e-10
5.22543996551e-05
1.68211151374e-10
5.22543650093e-05
1.80427697183e-10
5.22543306183e-05
1.90826667067e-10
5.22542982864e-05
1.9724132903e-10
5.22542709019e-05
1.96228719518e-10
5.22542537097e-05
1.81687946661e-10
5.22542601221e-05
1.39364769942e-10
5.22543012451e-05
6.12641238301e-11
5.22543980812e-05
-7.97578303954e-11
5.22545417668e-05
-2.79781522051e-10
5.22548114343e-05
-6.47317494057e-10
5.22552686367e-05
-1.32912420825e-09
5.22559605688e-05
-2.31872839362e-09
5.22570265877e-05
-3.82695958286e-09
5.22586734006e-05
-6.16190659927e-09
5.22612093995e-05
-9.78916870471e-09
5.2265098093e-05
-1.54429736017e-08
5.22710521877e-05
-2.42852917863e-08
5.22801711788e-05
-3.81745005584e-08
5.22941464521e-05
-6.0110041525e-08
5.23155655755e-05
-9.49740136012e-08
5.23483593407e-05
-1.50783372345e-07
5.23982362012e-05
-2.40895946871e-07
5.2472714918e-05
-3.87779691638e-07
5.25795604622e-05
-6.29118050033e-07
5.27205142633e-05
-1.02679921767e-06
5.28744292122e-05
-1.67547591749e-06
5.29592485135e-05
-2.7013482176e-06
5.27561957424e-05
-4.23822112524e-06
-6.22323846106e-06
5.19396774206e-05
5.1983487149e-05
4.18999574958e-06
5.50586666254e-05
9.80991772671e-06
5.76386201628e-05
1.21156601765e-05
5.9325918477e-05
1.20656729594e-05
6.02280454112e-05
1.07325043169e-05
6.05929810959e-05
8.89998404084e-06
6.06483756393e-05
7.03795280763e-06
6.05533358341e-05
5.3773863717e-06
6.04031771287e-05
4.00129970674e-06
6.02482380587e-05
2.91361551927e-06
6.01112438178e-05
2.08205478131e-06
5.99996493123e-05
1.46215108862e-06
5.99133359186e-05
1.00938553884e-06
5.98489842649e-05
6.84481662697e-07
5.98023592474e-05
4.5507539119e-07
5.97693890751e-05
2.95624718008e-07
5.97465933614e-05
1.86572814143e-07
5.97311846978e-05
1.13286767473e-07
5.97210215709e-05
6.50208667499e-08
5.97145047656e-05
3.40080634852e-08
5.97104796824e-05
1.47188396977e-08
5.97081451909e-05
3.27366388749e-09
5.97068857084e-05
-3.07024830115e-09
5.97063126846e-05
-6.16137136559e-09
5.9706150972e-05
-7.2542882272e-09
5.97062192432e-05
-7.18542485341e-09
5.97064012482e-05
-6.49860988727e-09
5.97066251092e-05
-5.53810990968e-09
5.97068488216e-05
-4.51329668951e-09
5.97070507882e-05
-3.54340623683e-09
5.97072221909e-05
-2.68933860916e-09
5.97073614829e-05
-1.97520879124e-09
5.97074715365e-05
-1.40283320873e-09
5.97075590617e-05
-9.63471983655e-10
5.97076284876e-05
-6.34319017806e-10
5.97076790736e-05
-3.91183032297e-10
5.9707708313e-05
-2.18539077037e-10
5.97077079862e-05
-9.53704392137e-11
5.97076991327e-05
-8.68941134505e-12
5.97076899451e-05
3.97349503113e-11
5.9707682711e-05
6.71307580905e-11
5.97076736156e-05
8.70828992978e-11
5.97076616689e-05
1.01803464331e-10
5.97076467745e-05
1.13535345176e-10
5.97076288799e-05
1.24073813261e-10
5.9707607639e-05
1.34597618532e-10
5.97075837615e-05
1.45799352958e-10
5.97075583721e-05
1.57908342614e-10
5.97075310913e-05
1.70785684781e-10
5.97075024028e-05
1.84198949062e-10
5.97074731105e-05
1.97412015886e-10
5.97074443465e-05
2.09119062348e-10
5.97074177454e-05
2.17379382717e-10
5.97073955049e-05
2.19466132759e-10
5.97073800387e-05
2.11724644849e-10
5.97073720465e-05
1.89757386642e-10
5.97073618121e-05
1.49693631493e-10
5.97073569502e-05
6.6198441627e-11
5.97073620346e-05
-8.48070367612e-11
5.97074829303e-05
-4.0066385054e-10
5.9707724591e-05
-8.88962698163e-10
5.9708044831e-05
-1.64934083016e-09
5.97085350552e-05
-2.80892022687e-09
5.97092815777e-05
-4.57344615317e-09
5.97103966048e-05
-7.27691925332e-09
5.97120444554e-05
-1.14370240513e-08
5.97144639546e-05
-1.78624813022e-08
5.97180027141e-05
-2.78240478507e-08
5.97231622176e-05
-4.33339376913e-08
5.97306504074e-05
-6.75980955446e-08
5.97414207162e-05
-1.05744164567e-07
5.97566080929e-05
-1.65970631239e-07
5.97771697197e-05
-2.6145752188e-07
5.98026774909e-05
-4.13287400241e-07
5.98281204194e-05
-6.54560884545e-07
5.9836523384e-05
-1.03520207527e-06
5.97848535958e-05
-1.62380602139e-06
5.95817965025e-05
-2.49829104156e-06
5.90608076107e-05
-3.71723213076e-06
-5.20546195556e-06
5.80430309748e-05
5.1437306769e-05
2.75268889959e-06
5.42658254314e-05
6.98139891355e-06
5.7249652894e-05
9.1318326571e-06
5.97900419699e-05
9.52528391207e-06
6.17201447285e-05
8.80240163896e-06
6.30883158005e-05
7.53181307569e-06
6.40167140539e-05
6.10955464066e-06
6.4629200257e-05
4.76490023116e-06
6.50257072243e-05
3.60479279042e-06
6.52788867136e-05
2.66043607865e-06
6.54386432203e-05
1.92229833289e-06
6.55381710834e-05
1.36262329451e-06
6.55991656831e-05
9.48391006925e-07
6.56356803038e-05
6.47967084559e-07
6.56567774297e-05
4.33978262788e-07
6.56682842297e-05
2.84117868171e-07
6.56739344653e-05
1.80922500889e-07
6.56761069873e-05
1.11114172511e-07
6.5676303575e-05
6.48242396447e-08
6.56754587423e-05
3.48529148331e-08
6.56741449299e-05
1.60327429329e-08
6.56727078993e-05
4.71085423628e-09
6.56713262038e-05
-1.68834258894e-09
6.56700968939e-05
-4.93183486319e-09
6.5669054432e-05
-6.21162690345e-09
6.5668202669e-05
-6.33353183784e-09
6.56675277253e-05
-5.82363087889e-09
6.56670072788e-05
-5.01771936084e-09
6.56666162628e-05
-4.12239565825e-09
6.5666330372e-05
-3.25764125505e-09
6.5666127562e-05
-2.4866146996e-09
6.56659884922e-05
-1.83615244828e-09
6.56658965201e-05
-1.31079999233e-09
6.56658352746e-05
-9.02120567075e-10
6.56657938423e-05
-5.92784579704e-10
6.56657658811e-05
-3.63174125087e-10
6.56657433732e-05
-1.96067378972e-10
6.56657319416e-05
-8.40470792079e-11
6.56657395287e-05
-1.64039503783e-11
6.56657409269e-05
3.82575024121e-11
6.56657347419e-05
7.33249597936e-11
6.56657265267e-05
9.53912614214e-11
6.56657168549e-05
1.1160462692e-10
6.56657053985e-05
1.25089955965e-10
6.56656917479e-05
1.37740946258e-10
6.56656755715e-05
1.50700293978e-10
6.56656566519e-05
1.6458518479e-10
6.56656351404e-05
1.79273094979e-10
6.56656128818e-05
1.92918494893e-10
6.56655890801e-05
2.07901608148e-10
6.56655636745e-05
2.22738212982e-10
6.56655372271e-05
2.35504132571e-10
6.56655106123e-05
2.4395440945e-10
6.56654850967e-05
2.44980676612e-10
6.56654626462e-05
2.34228075789e-10
6.56654469923e-05
2.05503576864e-10
6.56654462312e-05
1.50549448453e-10
6.56654468419e-05
6.56539109284e-11
6.56654760632e-05
-1.14003235091e-10
6.56655320293e-05
-4.56634719934e-10
6.56656218849e-05
-9.78828057903e-10
6.56657586819e-05
-1.78612673476e-09
6.56659521349e-05
-3.00234353421e-09
6.56662142403e-05
-4.83554891169e-09
6.56665499259e-05
-7.61263551518e-09
6.56669486606e-05
-1.18357835898e-08
6.566736783e-05
-1.82816587314e-08
6.56677019056e-05
-2.81580960237e-08
6.56677239625e-05
-4.33559017436e-08
6.56669740708e-05
-6.68480534951e-08
6.56645407245e-05
-1.03310684987e-07
6.56585832063e-05
-1.60013050027e-07
6.56453989585e-05
-2.48273266922e-07
6.56175526754e-05
-3.85441083361e-07
6.55602804924e-05
-5.97288625984e-07
6.54450870766e-05
-9.20008556904e-07
6.52202025316e-05
-1.39892132105e-06
6.48003853222e-05
-2.07847378197e-06
6.40634704681e-05
-2.98031723997e-06
-4.044927064e-06
6.29029354846e-05
5.10850442193e-05
1.66764457835e-06
5.36118506439e-05
4.45459232466e-06
5.66873267242e-05
6.05635650892e-06
5.96894563137e-05
6.52315434727e-06
6.22997247775e-05
6.19213324809e-06
6.44136522033e-05
5.41788576418e-06
6.6047078454e-05
4.47612851797e-06
6.7268387223e-05
3.54359157397e-06
6.81594708184e-05
2.7137092866e-06
6.87970482334e-05
2.02285873966e-06
6.92456292461e-05
1.4737173844e-06
6.95563130626e-05
1.05193952735e-06
6.97681009684e-05
7.36603123777e-07
6.99100169204e-05
5.06051116932e-07
7.00032570097e-05
3.40738119146e-07
7.00630657211e-05
2.24309078994e-07
7.01002603802e-05
1.43727767561e-07
7.01224199943e-05
8.89545117564e-08
7.01347878959e-05
5.24563399348e-08
7.014094341e-05
2.86974679867e-08
7.01432953703e-05
1.36809206121e-08
7.01434412729e-05
4.56515282942e-09
7.01424047517e-05
-6.51581774502e-10
7.01408361586e-05
-3.3630047883e-09
7.01391224375e-05
-4.49771886946e-09
7.01374846029e-05
-4.69559880428e-09
7.013603474e-05
-4.37377428891e-09
7.01348170225e-05
-3.8001010782e-09
7.01338351167e-05
-3.14064427148e-09
7.01330703115e-05
-2.49298811798e-09
7.0132493109e-05
-1.90950452023e-09
7.01320703584e-05
-1.41340379682e-09
7.01317695223e-05
-1.00988597427e-09
7.013156103e-05
-6.93515595634e-10
7.01314210663e-05
-4.52735224033e-10
7.0131332019e-05
-2.74123729338e-10
7.01312818626e-05
-1.4600992611e-10
7.01312540439e-05
-5.63936740754e-11
7.01312266224e-05
1.08632610504e-11
7.01312159569e-05
4.88531015892e-11
7.01312117962e-05
7.75329640254e-11
7.01312086576e-05
9.86686463924e-11
7.01312049387e-05
1.15483126455e-10
7.01311997889e-05
1.30342728542e-10
7.01311927685e-05
1.4476376721e-10
7.01311837471e-05
1.59630991899e-10
7.01311728321e-05
1.75362922749e-10
7.01311600351e-05
1.91937229573e-10
7.01311438556e-05
2.08993835017e-10
7.01311254694e-05
2.26211136615e-10
7.01311056226e-05
2.42525952403e-10
7.01310848492e-05
2.56230103927e-10
7.01310638271e-05
2.6495136654e-10
7.01310433526e-05
2.65478378001e-10
7.01310240632e-05
2.53596076363e-10
7.01310055847e-05
2.2408895089e-10
7.0130985208e-05
1.71023329899e-10
7.01309615849e-05
8.9333048466e-11
7.01309291355e-05
-8.15503505108e-11
7.01309058653e-05
-4.33401138374e-10
7.01308769558e-05
-9.49957261645e-10
7.01308135282e-05
-1.72269699475e-09
7.01306810551e-05
-2.86984269249e-09
7.01304189529e-05
-4.57343930983e-09
7.01299177021e-05
-7.11140861564e-09
7.01289869139e-05
-1.09050318348e-08
7.01272997905e-05
-1.65945315449e-08
7.0124299683e-05
-2.51579096792e-08
7.01190468612e-05
-3.81029233801e-08
7.01099696156e-05
-5.77706167287e-08
7.00944538639e-05
-8.77948181204e-08
7.00680528273e-05
-1.33611975972e-07
7.00232380122e-05
-2.03458460114e-07
6.99473086206e-05
-3.09511718177e-07
6.98190450836e-05
-4.69025007449e-07
6.96038293812e-05
-7.04792729642e-07
6.92480030589e-05
-1.04309478243e-06
6.8675721673e-05
-1.50619241522e-06
6.77943613076e-05
-2.0989569396e-06
-2.78180465902e-06
6.65312388808e-05
5.08804153203e-05
7.8722914984e-07
5.31704728508e-05
2.16453463063e-06
5.62177595666e-05
3.00906971377e-06
5.94382743869e-05
3.30263954279e-06
6.24449497922e-05
3.18545793442e-06
6.50381741241e-05
2.82466156803e-06
6.71546735434e-05
2.35962925855e-06
6.88131777102e-05
1.88508755781e-06
7.00724803723e-05
1.45440675017e-06
7.10045342917e-05
1.09080491377e-06
7.16795179792e-05
7.98733754174e-07
7.21588694288e-05
5.72588095783e-07
7.24930289794e-05
4.02443545952e-07
7.27216632382e-05
2.77416789661e-07
7.28750045068e-05
1.87396759719e-07
7.29755410411e-05
1.23772457743e-07
7.30396694555e-05
7.95992951503e-08
7.30791393299e-05
4.94846246409e-08
7.31022380146e-05
2.9357700015e-08
7.31147222714e-05
1.62133227237e-08
7.31205297421e-05
7.87362956943e-09
7.31223101962e-05
2.78493021695e-09
7.31218050675e-05
-1.46203031e-10
7.31201342444e-05
-1.69195630099e-09
7.31179942545e-05
-2.35756991393e-09
7.31157974793e-05
-2.49876047638e-09
7.31137697698e-05
-2.34610873351e-09
7.31120178061e-05
-2.04827406107e-09
7.31105747827e-05
-1.69780468819e-09
7.31094312091e-05
-1.34957605e-09
7.31085550842e-05
-1.03345814799e-09
7.31079045172e-05
-7.62811790347e-10
7.31074359232e-05
-5.41190899604e-10
7.31071087326e-05
-3.66210740896e-10
7.31068880988e-05
-2.32046548935e-10
7.31067454484e-05
-1.315313655e-10
7.31066567276e-05
-5.74577983775e-11
7.31066002427e-05
-1.22650414279e-13
7.31065759519e-05
3.49889710696e-11
7.31065622899e-05
6.24718441954e-11
7.31065566121e-05
8.33064780379e-11
7.31065550255e-05
1.0043892235e-10
7.31065548001e-05
1.15887919613e-10
7.31065542488e-05
1.30987118976e-10
7.31065524092e-05
1.46579467089e-10
7.31065487908e-05
1.63138525474e-10
7.31065431821e-05
1.80835220882e-10
7.31065354856e-05
1.99520635888e-10
7.31065256689e-05
2.1873432073e-10
7.31065138375e-05
2.37990150069e-10
7.31065000881e-05
2.56228649555e-10
7.3106484491e-05
2.71786183724e-10
7.31064670559e-05
2.82378764171e-10
7.31064476645e-05
2.84922922906e-10
7.31064260465e-05
2.75323622312e-10
7.31064019025e-05
2.48360982461e-10
7.31063750992e-05
1.97919825325e-10
7.31063454373e-05
1.19018528808e-10
7.31062901156e-05
-2.62688200403e-11
7.31061904814e-05
-3.33838905951e-10
7.31060337801e-05
-7.93308313001e-10
7.31057731619e-05
-1.4620808851e-09
7.3105333309e-05
-2.42995672375e-09
7.3104589467e-05
-3.82956115929e-09
7.31033344981e-05
-5.85643928758e-09
7.31012277374e-05
-8.79829906258e-09
7.30977084353e-05
-1.30752190527e-08
7.30918523657e-05
-1.93017232488e-08
7.30821497519e-05
-2.84001009355e-08
7.30661653564e-05
-4.17860309641e-08
7.30400029246e-05
-6.16322944032e-08
7.29973239717e-05
-9.09330603677e-08
7.29279712175e-05
-1.34105837789e-07
7.281588868e-05
-1.97429287665e-07
7.26361964986e-05
-2.89332694415e-07
7.23515961609e-05
-4.20192191435e-07
7.19092432591e-05
-6.00741676777e-07
7.12409945993e-05
-8.37943770132e-07
7.02711242451e-05
-1.12908665246e-06
-1.45208174842e-06
6.89414013915e-05
5.07871748404e-05
5.41929845673e-11
5.29516567236e-05
5.25796202882e-11
5.59606978056e-05
2.85540497745e-11
5.92633232674e-05
1.40992504874e-11
6.24487784089e-05
2.90349166393e-12
6.52734458488e-05
-5.70713632117e-12
6.76330865635e-05
-1.12670135587e-11
6.95181881604e-05
-1.38598257983e-11
7.09726089994e-05
-1.39407967217e-11
7.20634261426e-05
-1.2129919064e-11
7.28621690285e-05
-9.08989270309e-12
7.34347626163e-05
-5.51259952492e-12
7.38372081922e-05
-2.10585678279e-12
7.41146244144e-05
4.59153033125e-13
7.43020193913e-05
1.67333062202e-12
7.44257907842e-05
9.8533554751e-13
7.45053916864e-05
-1.63876940468e-12
7.45548822307e-05
-5.8951219795e-12
7.45842510278e-05
-1.10096246893e-11
7.4600480436e-05
-1.59325523079e-11
7.46083736963e-05
-1.94213245519e-11
7.46111793545e-05
-2.04864504826e-11
7.46110536219e-05
-2.02317960736e-11
7.46093809593e-05
-1.90946251442e-11
7.46070408817e-05
-1.73647564122e-11
7.46045571673e-05
-1.50163187076e-11
7.46022229678e-05
-1.19892983535e-11
7.46001826998e-05
-8.17701256897e-12
7.45984880311e-05
-3.33718336257e-12
7.45971360764e-05
2.22584303541e-12
7.45960946756e-05
7.89353374628e-12
7.45953176252e-05
1.42979352908e-11
7.45947555153e-05
2.10408890275e-11
7.45943614442e-05
2.79666803663e-11
7.45940942439e-05
3.51641121361e-11
7.45939197628e-05
4.28252932255e-11
7.45938110215e-05
5.10567177271e-11
7.45937507321e-05
5.99291355859e-11
7.45937172243e-05
6.83495019909e-11
7.4593702227e-05
7.74744342344e-11
7.45936979718e-05
8.7708678414e-11
7.45936993607e-05
9.92595405662e-11
7.45937031317e-05
1.1228647524e-10
7.45937072897e-05
1.26887936256e-10
7.45937107096e-05
1.43101054304e-10
7.45937128273e-05
1.60895842413e-10
7.45937133899e-05
1.80149338718e-10
7.45937122503e-05
2.00579130141e-10
7.45937092502e-05
2.2169213516e-10
7.45937043446e-05
2.42864586913e-10
7.45936974762e-05
2.63057728916e-10
7.45936884781e-05
2.80751470298e-10
7.459367699e-05
2.93877454397e-10
7.45936623137e-05
2.99678345661e-10
7.45936432049e-05
2.94570229767e-10
7.45936176239e-05
2.74084890925e-10
7.45935826322e-05
2.32990582165e-10
7.45935359953e-05
1.65641319816e-10
7.45934564411e-05
5.3198006111e-11
7.45932912929e-05
-1.68788788455e-10
7.45930453273e-05
-5.47393764704e-10
7.45926381196e-05
-1.05487655427e-09
7.45919678848e-05
-1.75969696912e-09
7.45908688381e-05
-2.73049698377e-09
7.45890713956e-05
-4.0590283039e-09
7.45861423649e-05
-5.86932189219e-09
7.458137894e-05
-8.31176286895e-09
7.45736321191e-05
-1.15547364045e-08
7.45610442132e-05
-1.58119389794e-08
7.45406676673e-05
-2.14092715542e-08
7.45079396588e-05
-2.8904265352e-08
7.44555216891e-05
-3.85152185731e-08
7.43719500747e-05
-5.05344207962e-08
7.42396377161e-05
-6.51169691737e-08
7.4032268442e-05
-8.19632279398e-08
7.37119301497e-05
-9.9853691696e-08
7.32271420216e-05
-1.15953400371e-07
7.25142162661e-05
-1.25018016091e-07
7.15049440401e-05
-1.19814483608e-07
-9.16949521769e-08
7.01445573651e-05
5.0787173775e-05
-7.87119694018e-07
5.29516558121e-05