/*--------------------------------*- C++ -*----------------------------------*\
| =========                 |                                                 |
| \\      /  F ield         | OpenFOAM: The Open Source CFD Toolbox           |
|  \\    /   O peration     | Version:  2106                                  |
|   \\  /    A nd           | Website:  www.openfoam.com                      |
|    \\/     M anipulation  |                                                 |
\*---------------------------------------------------------------------------*/
FoamFile
{
    version     2.0;
    format      ascii;
    arch        "LSB;label=32;scalar=64";
    class       volVectorField;
    location    "0.155";
    object      U;
}
// * * * * * * * * * * * * * * * * * * * * * * * * * * * * * * * * * * * * * //

dimensions      [0 1 -1 0 0 0 0];

internalField   nonuniform List<vector> 
11200
(
(0.662462405851 0.150569442318 0)
(0.558948681131 0.103243388281 0)
(0.383850752253 0.0513512242286 0)
(0.283747617498 0.0248708553312 0)
(0.232075300076 0.0124170452711 0)
(0.201908624629 0.00662281682082 0)
(0.183197978624 0.00380291436921 0)
(0.171276541672 0.00231587000586 0)
(0.163510366261 0.00146450650857 0)
(0.158388835823 0.000944892401685 0)
(0.155006702764 0.000615176919076 0)
(0.15278675276 0.000402233873221 0)
(0.151346607102 0.000264232328375 0)
(0.150428374193 0.000175250302661 0)
(0.149856773895 0.000118360863818 0)
(0.149512576614 8.2160185735e-05 0)
(0.149315020435 5.88660355811e-05 0)
(0.14920966333 4.33155411401e-05 0)
(0.149159808919 3.29338033136e-05 0)
(0.149142574415 2.81852291203e-05 0)
(0.149144736768 2.76827933087e-05 0)
(0.149157019458 2.98898883666e-05 0)
(0.149172648955 3.30505019673e-05 0)
(0.149188206503 3.59659763772e-05 0)
(0.149202427765 3.86015530361e-05 0)
(0.149214712772 4.10408828007e-05 0)
(0.149224893717 4.33185183827e-05 0)
(0.149233077164 4.54654774532e-05 0)
(0.149239499343 4.75207063442e-05 0)
(0.14924444152 4.95304218487e-05 0)
(0.149248187577 5.15548810068e-05 0)
(0.149251005508 5.36838608166e-05 0)
(0.149253091144 5.60082972239e-05 0)
(0.149254612646 5.83896851358e-05 0)
(0.149255705418 6.07527987677e-05 0)
(0.149256456026 6.30771874762e-05 0)
(0.149256956912 6.53721550036e-05 0)
(0.149257291322 6.76490534631e-05 0)
(0.149257514879 6.99200158192e-05 0)
(0.14925765704 7.2191663718e-05 0)
(0.14925773849 7.44651838457e-05 0)
(0.149257776451 7.67415198434e-05 0)
(0.149257783087 7.90204184824e-05 0)
(0.14925776728 8.13007159738e-05 0)
(0.149257735533 8.35807425381e-05 0)
(0.149257692667 8.58581964869e-05 0)
(0.149257642813 8.81302570447e-05 0)
(0.149257590091 9.03938274819e-05 0)
(0.149257538778 9.26458783517e-05 0)
(0.14925749403 9.48832967422e-05 0)
(0.149257462954 9.71031205279e-05 0)
(0.149257455144 9.93024999465e-05 0)
(0.149257483535 0.000101478539719 0)
(0.149257565892 0.000103628118651 0)
(0.149257727006 0.000105747383439 0)
(0.149258002049 0.00010783107483 0)
(0.149258440938 0.000109872302682 0)
(0.1492591158 0.000111861722171 0)
(0.14926013342 0.00011378586126 0)
(0.149261650574 0.000115620661548 0)
(0.149263907232 0.000117313217098 0)
(0.149267308589 0.000118776151631 0)
(0.149272337375 0.000120040110182 0)
(0.149279637048 0.000121290622483 0)
(0.149290235306 0.000122980336303 0)
(0.149305654446 0.000125340036678 0)
(0.14932828183 0.00012812531494 0)
(0.14936182935 0.000131099459375 0)
(0.149411916099 0.000134041248609 0)
(0.14948681022 0.000136837267437 0)
(0.149598504159 0.000140786580549 0)
(0.149769987418 0.000151769160408 0)
(0.150039196326 0.000172616761455 0)
(0.150469490471 0.000203031774565 0)
(0.151197100391 0.000233190371668 0)
(0.15250068622 0.000192401361835 0)
(0.155038345103 -0.000218051348584 0)
(0.162410043681 -0.00212284868286 0)
(0.187828824015 -0.0108585680668 0)
(0.204876391935 -0.0500639237017 0)
(0.965408256346 0.289214706226 0)
(0.961962865965 0.252656039846 0)
(0.823574402781 0.159021441671 0)
(0.698139383238 0.0959957315044 0)
(0.610225481243 0.058248114587 0)
(0.548971511607 0.0362148537187 0)
(0.506588910409 0.0231612857432 0)
(0.477567291331 0.0151375160275 0)
(0.457745514341 0.0100177559628 0)
(0.444228483174 0.00665814207991 0)
(0.435053320771 0.00441555722808 0)
(0.428873140147 0.00290686675348 0)
(0.424754223886 0.00189105913437 0)
(0.422046674518 0.00121004569038 0)
(0.420297839002 0.000757163188539 0)
(0.41919323307 0.000459254779102 0)
(0.418515633174 0.00026585246122 0)
(0.418116494169 0.000142395575706 0)
(0.417895902127 6.61032942418e-05 0)
(0.417786867038 2.30840773324e-05 0)
(0.417745475834 1.39661111128e-06 0)
(0.417742226255 -1.01800740576e-05 0)
(0.417756855711 -1.37356119647e-05 0)
(0.417778854305 -1.32937628109e-05 0)
(0.417803196362 -1.08667631426e-05 0)
(0.417826621902 -7.52896331047e-06 0)
(0.41784743709 -3.91759385408e-06 0)
(0.417865042355 -4.02328591929e-07 0)
(0.417879440005 2.81608988684e-06 0)
(0.417890942678 5.6351358156e-06 0)
(0.417900019582 7.99343517206e-06 0)
(0.417907172992 9.80976338157e-06 0)
(0.417912602857 1.09883405821e-05 0)
(0.417916531549 1.18437270811e-05 0)
(0.417919340569 1.26571826064e-05 0)
(0.4179213052 1.34123016371e-05 0)
(0.417922659019 1.40891622482e-05 0)
(0.417923592984 1.47057894856e-05 0)
(0.417924237874 1.52926520607e-05 0)
(0.417924665713 1.58640719144e-05 0)
(0.417924928534 1.64203502913e-05 0)
(0.417925069706 1.69663368534e-05 0)
(0.417925120108 1.75056358113e-05 0)
(0.417925102702 1.80411646906e-05 0)
(0.41792503445 1.85760866091e-05 0)
(0.417924927932 1.91128223184e-05 0)
(0.417924793869 1.9653388212e-05 0)
(0.417924642984 2.01999031714e-05 0)
(0.417924486459 2.07548609094e-05 0)
(0.417924337683 2.13192280061e-05 0)
(0.417924214825 2.18933755439e-05 0)
(0.417924142305 2.24777586432e-05 0)
(0.417924153122 2.30726264532e-05 0)
(0.417924292461 2.36777299214e-05 0)
(0.417924623122 2.42920332752e-05 0)
(0.417925234585 2.49137680514e-05 0)
(0.417926254985 2.55409201712e-05 0)
(0.417927869999 2.61654237438e-05 0)
(0.417930350756 2.67675562874e-05 0)
(0.417934084469 2.73165299927e-05 0)
(0.417939656338 2.77680037837e-05 0)
(0.417948149636 2.80549516555e-05 0)
(0.41796107334 2.83243986914e-05 0)
(0.417980559819 2.79216767335e-05 0)
(0.418009414649 2.54167695048e-05 0)
(0.418051252285 1.9641085383e-05 0)
(0.418112229111 9.79023055626e-06 0)
(0.418202511619 -5.66710440736e-06 0)
(0.418337794514 -2.92706561049e-05 0)
(0.418543132791 -6.47301524363e-05 0)
(0.418860702216 -0.000116271596581 0)
(0.41936053058 -0.00018891547835 0)
(0.420156841814 -0.000309626054936 0)
(0.42145470576 -0.000536280698621 0)
(0.423648405188 -0.00100647986572 0)
(0.427462064601 -0.00210428233901 0)
(0.434329419646 -0.00488877393131 0)
(0.448451566077 -0.0123392698533 0)
(0.475047059804 -0.0344880999523 0)
(0.479018986624 -0.0995786866631 0)
(1.02222096733 0.238416186466 0)
(1.08213753643 0.295926652469 0)
(1.0344772384 0.239503066538 0)
(0.954615425503 0.174290164996 0)
(0.87999207579 0.121345469368 0)
(0.818614459152 0.0830993854684 0)
(0.771410877095 0.0567316688103 0)
(0.736634419941 0.0387409704864 0)
(0.711624464577 0.0264327891095 0)
(0.6939166556 0.0179731068095 0)
(0.68154144887 0.0121424498879 0)
(0.673000159668 0.00812490970989 0)
(0.667180698265 0.00536632177903 0)
(0.663271732701 0.00348444423851 0)
(0.660688567092 0.0022125591143 0)
(0.659014250182 0.00136337672985 0)
(0.657954579211 0.000805235050973 0)
(0.657304299628 0.000445903170662 0)
(0.656921898916 0.000221049363457 0)
(0.656710356603 8.55552458624e-05 0)
(0.656603520641 8.32376223377e-06 0)
(0.656562008456 -3.3768701869e-05 0)
(0.656558153564 -5.6920392909e-05 0)
(0.656571681309 -6.69525487166e-05 0)
(0.656593272232 -6.85733037765e-05 0)
(0.656617162757 -6.5666308525e-05 0)
(0.656640045007 -6.06703617464e-05 0)
(0.656660311547 -5.49955845565e-05 0)
(0.656677376589 -4.94258544271e-05 0)
(0.656691217791 -4.43671444566e-05 0)
(0.656702080562 -4.00118640321e-05 0)
(0.656710336669 -3.64748102533e-05 0)
(0.656716674052 -3.38716018944e-05 0)
(0.656721786292 -3.20295311011e-05 0)
(0.656725738851 -3.09625633551e-05 0)
(0.65672854728 -3.04403261267e-05 0)
(0.656730494752 -3.03541358772e-05 0)
(0.656731861204 -3.06456466482e-05 0)
(0.656732822307 -3.1159181311e-05 0)
(0.656733467722 -3.18068901889e-05 0)
(0.656733870749 -3.2559814075e-05 0)
(0.656734096732 -3.33837906782e-05 0)
(0.65673419088 -3.42538517174e-05 0)
(0.656734187831 -3.51513900552e-05 0)
(0.656734113443 -3.60606140644e-05 0)
(0.656733986911 -3.69704533905e-05 0)
(0.656733824869 -3.78734085715e-05 0)
(0.656733643684 -3.87639570582e-05 0)
(0.656733458788 -3.96361677303e-05 0)
(0.656733287867 -4.04855071601e-05 0)
(0.656733156269 -4.13071275995e-05 0)
(0.656733098844 -4.20966521353e-05 0)
(0.656733162892 -4.28518132125e-05 0)
(0.656733413885 -4.35741405617e-05 0)
(0.656733944299 -4.42733847339e-05 0)
(0.65673488722 -4.49761414415e-05 0)
(0.656736429606 -4.57342266477e-05 0)
(0.65673883682 -4.66382342003e-05 0)
(0.656742504984 -4.78241210338e-05 0)
(0.656748029325 -4.95056382591e-05 0)
(0.656756310379 -5.21564585352e-05 0)
(0.65676897555 -5.68418577604e-05 0)
(0.656787459163 -6.4343963149e-05 0)
(0.656813192426 -7.55968947175e-05 0)
(0.656849867715 -9.22395706579e-05 0)
(0.65690421596 -0.000116726631528 0)
(0.656985724372 -0.000152272183287 0)
(0.657108252128 -0.000204197597223 0)
(0.657293735465 -0.000281099222067 0)
(0.65757779958 -0.000396986069075 0)
(0.658018990477 -0.000576437911192 0)
(0.658707208239 -0.000867117123579 0)
(0.659790777636 -0.00135979543812 0)
(0.661529541779 -0.00222894807714 0)
(0.664369840869 -0.00383994884986 0)
(0.66901520916 -0.00699803952335 0)
(0.676505696276 -0.0134574937294 0)
(0.688873773559 -0.0270678527279 0)
(0.705719410851 -0.0568245519557 0)
(0.701308680621 -0.11426205503 0)
(1.02251475644 0.170807151988 0)
(1.10138976386 0.276496478533 0)
(1.11752427303 0.266664799656 0)
(1.0921466218 0.219901700022 0)
(1.05187817598 0.168168849309 0)
(1.0102082472 0.123567398919 0)
(0.973494715584 0.088837524237 0)
(0.943864582186 0.063006374545 0)
(0.921142826862 0.0442232072283 0)
(0.904284101078 0.0307423957954 0)
(0.892074898529 0.0211562967803 0)
(0.883404542335 0.0143954703735 0)
(0.877352705159 0.00966794862509 0)
(0.873197746285 0.00639383533241 0)
(0.87039297513 0.00415115953176 0)
(0.868534093999 0.00263448071274 0)
(0.867327707422 0.00162400053747 0)
(0.866564318021 0.000962650574678 0)
(0.866096578779 0.000539086375658 0)
(0.865822360013 0.000275104753369 0)
(0.865671544385 0.000117004619824 0)
(0.865595326937 2.87127872069e-05 0)
(0.865564315349 -1.94226721363e-05 0)
(0.865561564503 -4.13795756673e-05 0)
(0.865572970381 -4.78034156435e-05 0)
(0.865590046564 -4.56818032219e-05 0)
(0.865608434525 -3.93302224667e-05 0)
(0.865625859341 -3.13354662495e-05 0)
(0.865641235762 -2.31679876182e-05 0)
(0.865654195161 -1.55949840296e-05 0)
(0.865664768225 -8.945606599e-06 0)
(0.865673157356 -3.27269921658e-06 0)
(0.865679617261 1.51369412702e-06 0)
(0.865684360101 5.27019093832e-06 0)
(0.865687784812 7.88477181133e-06 0)
(0.86569028593 9.67485937025e-06 0)
(0.86569200316 1.10292359423e-05 0)
(0.865693221094 1.21859677036e-05 0)
(0.865694144631 1.31653723044e-05 0)
(0.865694787962 1.40603394259e-05 0)
(0.865695193495 1.48686370548e-05 0)
(0.865695426293 1.56109756934e-05 0)
(0.865695525388 1.63018156746e-05 0)
(0.865695522635 1.69552509216e-05 0)
(0.865695441752 1.75860730525e-05 0)
(0.865695299062 1.82045200826e-05 0)
(0.865695109628 1.88188064283e-05 0)
(0.865694891186 1.94382023536e-05 0)
(0.865694662545 2.00760033518e-05 0)
(0.865694446228 2.07283303889e-05 0)
(0.865694273151 2.1384770895e-05 0)
(0.865694183205 2.20356355055e-05 0)
(0.865694229062 2.26662876025e-05 0)
(0.865694480661 2.32524277481e-05 0)
(0.865695029665 2.37559726135e-05 0)
(0.865696002304 2.41270393355e-05 0)
(0.86569757707 2.43225456318e-05 0)
(0.865700021147 2.42649258296e-05 0)
(0.865703729136 2.37832050808e-05 0)
(0.865709149128 2.25043547117e-05 0)
(0.865716666918 1.98107287027e-05 0)
(0.865727876381 1.50729979568e-05 0)
(0.865745388997 6.49454010371e-06 0)
(0.865772189135 -7.68108422415e-06 0)
(0.865812203649 -2.94588943276e-05 0)
(0.86587132332 -6.27506010971e-05 0)
(0.865958896369 -0.000114486009869 0)
(0.866089487116 -0.000195522618247 0)
(0.866285764491 -0.000323277662862 0)
(0.866582780865 -0.000526491353275 0)
(0.867034577992 -0.000854562230647 0)
(0.867726977559 -0.00139518827565 0)
(0.868797653147 -0.00229851268121 0)
(0.870462201256 -0.00384171642034 0)
(0.873043566704 -0.00655405552258 0)
(0.876947500077 -0.0114550723346 0)
(0.882507269112 -0.0204349332931 0)
(0.889920712341 -0.036807931658 0)
(0.896756233421 -0.0661925458138 0)
(0.887118693347 -0.111418800642 0)
(1.01287875262 0.118961023246 0)
(1.08820671347 0.231806937274 0)
(1.13741368136 0.253106765703 0)
(1.15409088129 0.228992755543 0)
(1.149942126 0.18836836183 0)
(1.13538467449 0.146579847805 0)
(1.11758897012 0.110150970073 0)
(1.10059502624 0.0808162267598 0)
(1.08612459755 0.0582265810349 0)
(1.07459095309 0.0413189892952 0)
(1.06579149777 0.0289160237759 0)
(1.05928802287 0.0199601022191 0)
(1.0545998011 0.0135815602128 0)
(1.05129080712 0.00909744000014 0)
(1.04899989453 0.00598614601446 0)
(1.04744345805 0.00385695181608 0)
(1.04640659323 0.00242157442018 0)
(1.04573068899 0.00147011514915 0)
(1.04530114768 0.000851652759681 0)
(1.04503666827 0.000458950102829 0)
(1.04488032757 0.000216670849796 0)
(1.04479273939 7.29115025957e-05 0)
(1.04474890753 -5.62913460271e-06 0)
(1.04473204717 -4.41589096829e-05 0)
(1.04472984368 -5.95610517253e-05 0)
(1.04473538079 -6.19179445616e-05 0)
(1.04474438789 -5.74648906815e-05 0)
(1.04475433696 -5.00394231084e-05 0)
(1.04476384808 -4.18913109366e-05 0)
(1.04477225064 -3.42403413266e-05 0)
(1.04477929365 -2.7671868072e-05 0)
(1.04478496224 -2.23898876638e-05 0)
(1.04478939932 -1.83508010302e-05 0)
(1.04479281418 -1.53492896655e-05 0)
(1.04479545197 -1.30171890971e-05 0)
(1.04479759142 -1.12178409693e-05 0)
(1.04479937698 -9.74696603545e-06 0)
(1.04480076017 -8.45291919443e-06 0)
(1.04480178337 -7.40512246398e-06 0)
(1.04480251215 -6.68572156539e-06 0)
(1.04480296595 -6.26982214917e-06 0)
(1.04480322534 -6.03164371204e-06 0)
(1.04480333492 -5.91443662277e-06 0)
(1.0448033343 -5.87526139546e-06 0)
(1.04480325076 -5.87023163153e-06 0)
(1.04480310267 -5.8774925786e-06 0)
(1.04480291006 -5.88750948558e-06 0)
(1.04480269794 -5.89910603477e-06 0)
(1.04480247583 -5.92294060111e-06 0)
(1.04480224854 -5.95121202874e-06 0)
(1.04480204456 -5.97181465619e-06 0)
(1.0448019061 -5.98513868429e-06 0)
(1.04480188409 -5.99730471509e-06 0)
(1.04480204695 -6.02137390558e-06 0)
(1.04480249774 -6.08614895076e-06 0)
(1.04480341097 -6.26695760298e-06 0)
(1.04480501663 -6.77458327673e-06 0)
(1.04480757265 -7.96078873583e-06 0)
(1.04481137714 -1.02699981659e-05 0)
(1.044816871 -1.40255981432e-05 0)
(1.04482505701 -1.89909193762e-05 0)
(1.04483713167 -2.51469614837e-05 0)
(1.04485431035 -3.47779600697e-05 0)
(1.04487886369 -5.08677967907e-05 0)
(1.04491427454 -7.77108262058e-05 0)
(1.04496568952 -0.000121615615038 0)
(1.04504072526 -0.000192435377551 0)
(1.04515075841 -0.000305872322941 0)
(1.04531300208 -0.000487311333905 0)
(1.0455534704 -0.000778157394676 0)
(1.04591116167 -0.00124638358503 0)
(1.04644447627 -0.00200471121508 0)
(1.04723846196 -0.00324564560184 0)
(1.04840769416 -0.00530351482625 0)
(1.05008214517 -0.00876163210097 0)
(1.0523224578 -0.0146257771558 0)
(1.05488962056 -0.0245254882805 0)
(1.05699771443 -0.0408117561242 0)
(1.05593509068 -0.0663942100184 0)
(1.04236175474 -0.100882041204 0)
(1.00447483609 0.0814039975932 0)
(1.06917237829 0.181288539524 0)
(1.13080569632 0.216950420036 0)
(1.17375001743 0.210789157717 0)
(1.19865266945 0.183690079993 0)
(1.21019990157 0.149751687272 0)
(1.21350258276 0.11677914858 0)
(1.21251726926 0.0882206825495 0)
(1.20973101514 0.0650481554264 0)
(1.20651123168 0.0470209128582 0)
(1.20351917196 0.0334068115074 0)
(1.20101149436 0.0233557339026 0)
(1.19903449749 0.0160720126894 0)
(1.19753882971 0.0108795087872 0)
(1.19644136903 0.00723417766316 0)
(1.19565564449 0.0047135005053 0)
(1.19510495343 0.00299760101199 0)
(1.19472654591 0.0018491198186 0)
(1.1944715713 0.00109490335679 0)
(1.1943032685 0.000610535112309 0)
(1.19419463804 0.000307888094758 0)
(1.19412636443 0.000125645399599 0)
(1.19408532672 2.2071732432e-05 0)
(1.19406208231 -3.26326456156e-05 0)
(1.19404979968 -5.74783324238e-05 0)
(1.19404431998 -6.48312111592e-05 0)
(1.19404284336 -6.26351740486e-05 0)
(1.19404355141 -5.58034572319e-05 0)
(1.19404532799 -4.72455599059e-05 0)
(1.19404751439 -3.85747958816e-05 0)
(1.19404973767 -3.05927071191e-05 0)
(1.19405180452 -2.36055903198e-05 0)
(1.19405364394 -1.76370208517e-05 0)
(1.19405525055 -1.26113226561e-05 0)
(1.19405664067 -8.42074740829e-06 0)
(1.19405783295 -5.00200451515e-06 0)
(1.1940588099 -2.34376759463e-06 0)
(1.19405952435 -4.05835025963e-07 0)
(1.19405992941 9.65821435846e-07 0)
(1.19406006568 1.86085594296e-06 0)
(1.19406011625 2.56510731172e-06 0)
(1.19406015103 3.19201527747e-06 0)
(1.19406013223 3.74594250564e-06 0)
(1.19406007422 4.23877640337e-06 0)
(1.1940599797 4.67613992808e-06 0)
(1.19405983592 5.07261114818e-06 0)
(1.1940596409 5.43965905135e-06 0)
(1.19405939665 5.77761126048e-06 0)
(1.1940591281 6.07155732727e-06 0)
(1.19405887856 6.33125106566e-06 0)
(1.1940586763 6.57603317387e-06 0)
(1.19405855214 6.79591771743e-06 0)
(1.19405855672 6.96538044445e-06 0)
(1.19405875403 7.04524116632e-06 0)
(1.19405920409 6.97827821811e-06 0)
(1.19405991391 6.6822601713e-06 0)
(1.19406087627 6.01481615832e-06 0)
(1.19406221969 4.66762543965e-06 0)
(1.19406443154 2.08280826748e-06 0)
(1.19406862399 -1.95535372916e-06 0)
(1.19407563111 -8.20955481483e-06 0)
(1.19408526875 -1.80905721891e-05 0)
(1.19409816225 -3.36225310665e-05 0)
(1.19411626781 -5.77058039567e-05 0)
(1.19414172042 -9.49412745002e-05 0)
(1.19417731652 -0.000152685336209 0)
(1.19422702421 -0.000242671094023 0)
(1.19429645137 -0.00038351714263 0)
(1.19439345712 -0.000604945205613 0)
(1.19452882046 -0.000954752437801 0)
(1.19471669145 -0.0015102490052 0)
(1.19497399001 -0.00239694423304 0)
(1.19531573901 -0.00382035521681 0)
(1.19573961403 -0.00611742439656 0)
(1.19618583407 -0.00983396889306 0)
(1.19643495098 -0.0158259914453 0)
(1.19589890059 -0.025325445914 0)
(1.19341717673 -0.0398229704646 0)
(1.18663595284 -0.0606153023881 0)
(1.16998715608 -0.0864637018303 0)
(0.998962327011 0.0544316255998 0)
(1.05310957325 0.133401608385 0)
(1.11628269137 0.170777559615 0)
(1.17301273289 0.175143874262 0)
(1.21791248014 0.159583609494 0)
(1.25049860094 0.134951024092 0)
(1.27288493762 0.108411661402 0)
(1.28776725157 0.0838849766423 0)
(1.29745271426 0.0630565770678 0)
(1.30366078877 0.0462999256202 0)
(1.30759238596 0.033320518125 0)
(1.31005374794 0.0235495257646 0)
(1.31157367594 0.0163599070305 0)
(1.31249498245 0.0111713106387 0)
(1.31303867878 0.0074914966969 0)
(1.31334677297 0.00492446823305 0)
(1.31351018843 0.00316292730234 0)
(1.31358681857 0.00197471078007 0)
(1.3136131935 0.00118813957848 0)
(1.31361204068 0.000678552653343 0)
(1.31359719754 0.000356909552434 0)
(1.31357686843 0.000160630276565 0)
(1.31355586274 4.63170344116e-05 0)
(1.31353655628 -1.60523749378e-05 0)
(1.31351988527 -4.626689607e-05 0)
(1.3135061779 -5.73040357136e-05 0)
(1.31349525294 -5.75850010925e-05 0)
(1.31348677366 -5.2370104883e-05 0)
(1.31348035178 -4.48274313049e-05 0)
(1.31347560241 -3.67802740682e-05 0)
(1.31347217494 -2.92008011598e-05 0)
(1.31346976686 -2.25416558795e-05 0)
(1.31346812085 -1.69529590108e-05 0)
(1.31346701053 -1.24394409683e-05 0)
(1.31346626862 -8.93528720044e-06 0)
(1.31346579626 -6.33951185322e-06 0)
(1.31346549821 -4.51866154221e-06 0)
(1.31346528103 -3.28168416362e-06 0)
(1.31346512159 -2.40481591637e-06 0)
(1.31346511758 -1.68450904486e-06 0)
(1.31346525598 -1.07645625226e-06 0)
(1.31346535283 -6.29334857379e-07 0)
(1.31346534826 -2.46480633168e-07 0)
(1.31346526613 1.18376873812e-07 0)
(1.31346512482 4.61123506825e-07 0)
(1.31346494069 7.87956201569e-07 0)
(1.31346471812 1.11158192136e-06 0)
(1.31346445835 1.44669399275e-06 0)
(1.31346417775 1.81026373751e-06 0)
(1.31346390794 2.18481737944e-06 0)
(1.31346366168 2.52726343921e-06 0)
(1.31346344702 2.8063033688e-06 0)
(1.31346329431 2.9807976936e-06 0)
(1.31346325105 2.98866591028e-06 0)
(1.3134633922 2.74137357717e-06 0)
(1.3134638336 2.12914071745e-06 0)
(1.31346463943 1.06166034806e-06 0)
(1.31346575325 -5.85212845142e-07 0)
(1.31346757942 -2.97504394347e-06 0)
(1.31347043896 -6.73644227269e-06 0)
(1.31347443425 -1.32401454225e-05 0)
(1.31347981814 -2.41247859404e-05 0)
(1.31348683536 -4.09812845393e-05 0)
(1.31349593774 -6.69546470696e-05 0)
(1.31350741399 -0.000107087378292 0)
(1.31352129541 -0.000169167913806 0)
(1.31353714875 -0.000265364177477 0)
(1.31355357617 -0.000414744219754 0)
(1.31356724168 -0.000647378501472 0)
(1.31357104625 -0.00101095429018 0)
(1.31355080238 -0.00158130031018 0)
(1.31347873875 -0.00247854382829 0)
(1.3132999459 -0.00389216660115 0)
(1.31290590278 -0.00611834938127 0)
(1.31208494273 -0.00960796141909 0)
(1.31042844708 -0.0150132076835 0)
(1.3071765102 -0.0231797707459 0)
(1.30110648035 -0.0349751033419 0)
(1.29032456207 -0.0508751412852 0)
(1.27130817587 -0.0697001126041 0)
(0.995736075549 0.0346338603016 0)
(1.0417951494 0.0905689218662 0)
(1.10222839853 0.121549566233 0)
(1.16491413359 0.129605836139 0)
(1.22202568624 0.122009271384 0)
(1.26951894905 0.106019942119 0)
(1.30680227235 0.087097560301 0)
(1.33499539401 0.0686366856361 0)
(1.35574482114 0.0523698434933 0)
(1.3706962203 0.0389256219309 0)
(1.38128281387 0.0282980764482 0)
(1.38866274098 0.0201712787759 0)
(1.39373040174 0.0141175098309 0)
(1.39715667913 0.00970533223722 0)
(1.39943442247 0.00655058690265 0)
(1.40091974406 0.00433443995453 0)
(1.40186628737 0.00280412175264 0)
(1.40245230151 0.00176570908452 0)
(1.40280138856 0.00107414765789 0)
(1.40299806986 0.00062317147743 0)
(1.40309926974 0.000336327089786 0)
(1.4031426948 0.000159520398325 0)
(1.40315291829 5.50400665107e-05 0)
(1.40314539086 -3.14087543825e-06 0)
(1.40312958597 -3.22943881032e-05 0)
(1.4031111254 -4.40880998291e-05 0)
(1.4030930235 -4.59814581382e-05 0)
(1.40307680527 -4.26598752628e-05 0)
(1.40306307265 -3.69859586208e-05 0)
(1.4030519005 -3.06354462232e-05 0)
(1.40304308853 -2.45221502727e-05 0)
(1.4030363131 -1.90923712131e-05 0)
(1.40303121529 -1.45140908382e-05 0)
(1.40302744698 -1.07911158596e-05 0)
(1.40302471008 -7.82461906478e-06 0)
(1.40302277115 -5.48993290495e-06 0)
(1.40302145331 -3.66500261531e-06 0)
(1.40302061078 -2.21201660756e-06 0)
(1.40302008485 -1.01677006581e-06 0)
(1.40301968681 -5.35499711306e-08 0)
(1.40301932915 6.95415778703e-07 0)
(1.40301908033 1.22627613648e-06 0)
(1.40301894986 1.63169835049e-06 0)
(1.40301885026 1.97742981786e-06 0)
(1.40301873787 2.30719001947e-06 0)
(1.40301860331 2.64173686019e-06 0)
(1.40301844444 2.99147393253e-06 0)
(1.40301826179 3.36233716345e-06 0)
(1.40301805189 3.75733352968e-06 0)
(1.40301780745 4.15928967369e-06 0)
(1.40301754362 4.53121556728e-06 0)
(1.40301729177 4.84607036812e-06 0)
(1.40301707726 5.06770420657e-06 0)
(1.40301692609 5.14101377951e-06 0)
(1.40301686104 4.98287675354e-06 0)
(1.40301688872 4.4612290443e-06 0)
(1.40301698863 3.37406365118e-06 0)
(1.40301722236 1.5478482728e-06 0)
(1.40301766777 -1.24629195406e-06 0)
(1.40301845347 -5.92756554608e-06 0)
(1.40301961023 -1.32528426382e-05 0)
(1.40302076096 -2.45364627045e-05 0)
(1.40302136623 -4.16190839851e-05 0)
(1.40302063962 -6.74693790537e-05 0)
(1.40301704441 -0.000106676452878 0)
(1.40300776311 -0.000166299643027 0)
(1.40298791841 -0.000257289190669 0)
(1.40294917918 -0.000396554423403 0)
(1.40287732315 -0.0006103537006 0)
(1.40274821944 -0.000939691112243 0)
(1.40252153187 -0.00144868795716 0)
(1.40213010457 -0.00223640700148 0)
(1.40146075099 -0.00345382810137 0)
(1.40032288199 -0.00532782875386 0)
(1.39839951987 -0.00818629745181 0)
(1.39517116337 -0.0124722913481 0)
(1.38981385215 -0.0187097465619 0)
(1.38116110785 -0.0273556527887 0)
(1.36768596792 -0.0385177879416 0)
(1.34694524793 -0.0513337449469 0)
(0.994011532757 0.0192358067024 0)
(1.03484764143 0.0523338407097 0)
(1.09199263791 0.0723631281488 0)
(1.1566242162 0.079129233341 0)
(1.22032118555 0.0761045484166 0)
(1.27701948112 0.0673339742092 0)
(1.32424422395 0.0561509067343 0)
(1.3618157776 0.0447990144547 0)
(1.39068535622 0.0345303810162 0)
(1.41226080468 0.0258814355851 0)
(1.42801828197 0.0189465265431 0)
(1.43929890593 0.0135849837222 0)
(1.44722814297 0.00955653452629 0)
(1.45270420108 0.0066001136301 0)
(1.45641902657 0.00447418559028 0)
(1.45889151011 0.00297350485758 0)
(1.46050236906 0.00193275478734 0)
(1.46152575524 0.00122367304888 0)
(1.46215575421 0.000749521226667 0)
(1.46252755474 0.000438978032253 0)
(1.46273379902 0.000240469272169 0)
(1.46283689986 0.000117346446614 0)
(1.46287815178 4.39698634795e-05 0)
(1.46288432302 2.59932166389e-06 0)
(1.46287211848 -1.85562281111e-05 0)
(1.46285168195 -2.75683952995e-05 0)
(1.46282903339 -2.9584491613e-05 0)
(1.46280738739 -2.78488913854e-05 0)
(1.46278827398 -2.43588420873e-05 0)
(1.46277223948 -2.02948469988e-05 0)
(1.46275927738 -1.63051135288e-05 0)
(1.46274909588 -1.271195689e-05 0)
(1.46274128697 -9.64181812987e-06 0)
(1.46273542077 -7.10637758588e-06 0)
(1.46273110016 -5.05241244081e-06 0)
(1.46272798423 -3.41007968103e-06 0)
(1.4627257879 -2.11472308004e-06 0)
(1.46272425956 -1.12449948651e-06 0)
(1.46272317402 -3.99908563726e-07 0)
(1.46272247147 1.49253499737e-07 0)
(1.46272205444 6.44196737763e-07 0)
(1.46272176073 1.13939922867e-06 0)
(1.4627215541 1.5926794379e-06 0)
(1.46272139778 2.002025776e-06 0)
(1.46272126021 2.38760146872e-06 0)
(1.46272112106 2.7637609103e-06 0)
(1.46272096574 3.13683225774e-06 0)
(1.46272078436 3.50564966391e-06 0)
(1.46272057081 3.86242136568e-06 0)
(1.46272032164 4.20007422338e-06 0)
(1.46272003934 4.51164131016e-06 0)
(1.46271972988 4.76633947455e-06 0)
(1.46271939812 4.91595779645e-06 0)
(1.46271905053 4.89370939557e-06 0)
(1.46271869647 4.61034113697e-06 0)
(1.46271835186 3.95351767653e-06 0)
(1.46271803915 2.79959513855e-06 0)
(1.46271765966 1.05574801412e-06 0)
(1.4627169846 -1.57303195276e-06 0)
(1.46271587019 -5.80874440387e-06 0)
(1.46271406494 -1.2456686098e-05 0)
(1.46271088912 -2.26396108818e-05 0)
(1.46270519907 -3.78857196056e-05 0)
(1.46269514584 -6.05570115465e-05 0)
(1.46267760369 -9.42314254825e-05 0)
(1.46264732195 -0.0001443090361 0)
(1.46259573618 -0.000219039149485 0)
(1.46250891015 -0.000330784033469 0)
(1.46236395958 -0.000498250462087 0)
(1.46212338422 -0.00075015342364 0)
(1.46172692239 -0.00113117381487 0)
(1.46107882024 -0.00170836126118 0)
(1.46002544226 -0.00257903069457 0)
(1.45832266001 -0.00388485232247 0)
(1.45559140467 -0.00582134543394 0)
(1.45125775702 -0.00863668184202 0)
(1.44448757397 -0.0125988217194 0)
(1.43419013856 -0.0178994929185 0)
(1.41907227952 -0.0245017428996 0)
(1.3972367303 -0.0318760929052 0)
(0.993269668738 0.00617015079169 0)
(1.03158100547 0.0171020461037 0)
(1.08672182903 0.0239906489345 0)
(1.15174556085 0.0265606666509 0)
(1.21823538496 0.0258180603161 0)
(1.27925776971 0.0230488881644 0)
(1.33140139441 0.0193656338406 0)
(1.37377602878 0.0155468604538 0)
(1.40691058223 0.0120449326228 0)
(1.43203318914 0.00906640192964 0)
(1.45060220974 0.00666059668523 0)
(1.46402992349 0.00479009314853 0)
(1.4735502298 0.00337842977068 0)
(1.48017570529 0.00233873936724 0)
(1.48470235944 0.00158891485639 0)
(1.4877362734 0.00105828916019 0)
(1.48972740434 0.000689461868036 0)
(1.49100282194 0.000437635788031 0)
(1.49179588241 0.000268880737455 0)
(1.49227022476 0.000158102955909 0)
(1.49253867836 8.71125343196e-05 0)
(1.4926777052 4.29578218227e-05 0)
(1.49273817681 1.65609678404e-05 0)
(1.49275327406 1.62953580188e-06 0)
(1.49274394648 -6.10516683365e-06 0)
(1.49272305548 -9.4551814596e-06 0)
(1.4926982952 -1.02675713327e-05 0)
(1.49267389499 -9.71032474925e-06 0)
(1.49265195429 -8.50169397082e-06 0)
(1.49263331671 -7.05930973005e-06 0)
(1.4926181076 -5.62279638833e-06 0)
(1.49260606781 -4.31202964616e-06 0)
(1.49259677077 -3.17430639264e-06 0)
(1.49258974381 -2.21591581473e-06 0)
(1.49258453537 -1.42067837247e-06 0)
(1.49258074719 -7.66480885975e-07 0)
(1.49257804468 -2.31629857604e-07 0)
(1.49257615802 2.03703997127e-07 0)
(1.49257488975 5.80214227756e-07 0)
(1.49257406028 9.67711432046e-07 0)
(1.49257350897 1.29223860723e-06 0)
(1.4925731463 1.59317267202e-06 0)
(1.49257291418 1.89228740899e-06 0)
(1.49257275984 2.19962081797e-06 0)
(1.49257264213 2.52309301332e-06 0)
(1.49257253304 2.86644238224e-06 0)
(1.49257241259 3.22986985722e-06 0)
(1.49257226591 3.61026299373e-06 0)
(1.49257208143 4.0002322449e-06 0)
(1.49257184959 4.38749580249e-06 0)
(1.49257156393 4.75361076418e-06 0)
(1.49257121945 5.06832470963e-06 0)
(1.4925708087 5.28942725574e-06 0)
(1.49257031994 5.35878640514e-06 0)
(1.49256973338 5.19607254287e-06 0)
(1.49256902004 4.68943924911e-06 0)
(1.49256816226 3.68194443155e-06 0)
(1.49256705754 1.98273780447e-06 0)
(1.49256522825 -5.23052315118e-07 0)
(1.49256234262 -4.15293613859e-06 0)
(1.49255805114 -9.76980665999e-06 0)
(1.49255131363 -1.81164543928e-05 0)
(1.49254049153 -3.02052842421e-05 0)
(1.49252300614 -4.75575303787e-05 0)
(1.49249467868 -7.22975250605e-05 0)
(1.4924486612 -0.000107410324447 0)
(1.49237410206 -0.000157371424605 0)
(1.49225377515 -0.000228298551006 0)
(1.4920597178 -0.000328733856418 0)
(1.49174623454 -0.000471707743704 0)
(1.4912414553 -0.000679240884197 0)
(1.49043539702 -0.000981050085555 0)
(1.48915490812 -0.00141110332693 0)
(1.48713076702 -0.00201807971027 0)
(1.48395876726 -0.00286422150921 0)
(1.47904944885 -0.00401840152128 0)
(1.4715807381 -0.00553715187368 0)
(1.46051580348 -0.00742532458037 0)
(1.44467227046 -0.00959332105479 0)
(1.42238858878 -0.0117973089227 0)
(0.993270466542 -0.00616840148582 0)
(1.03158098806 -0.0171003762604 0)
(1.08672176269 -0.0239897620501 0)
(1.15174559847 -0.0265602470599 0)
(1.21823546279 -0.0258179929239 0)
(1.27925787171 -0.0230491096284 0)