/*--------------------------------*- C++ -*----------------------------------*\
| =========                 |                                                 |
| \\      /  F ield         | OpenFOAM: The Open Source CFD Toolbox           |
|  \\    /   O peration     | Version:  2106                                  |
|   \\  /    A nd           | Website:  www.openfoam.com                      |
|    \\/     M anipulation  |                                                 |
\*---------------------------------------------------------------------------*/
FoamFile
{
    version     2.0;
    format      ascii;
    arch        "LSB;label=32;scalar=64";
    class       volScalarField;
    location    "0.335";
    object      p;
}
// * * * * * * * * * * * * * * * * * * * * * * * * * * * * * * * * * * * * * //

dimensions      [0 2 -2 0 0 0 0];

internalField   nonuniform List<scalar> 
11200
(
150.108632464
147.180030932
146.066181115
145.53885155
145.17152423
144.876749
144.615109115
144.366575297
144.122062224
143.877000149
143.628691835
143.375382506
143.115840078
142.849128905
142.574482078
142.291226151
141.998735294
141.696403522
141.38363199
141.059832535
140.724381376
140.37662945
140.015918321
139.641580048
139.252928955
138.849263628
138.42986776
137.994010833
137.540948866
137.069925042
136.580170281
136.070903736
135.54133295
134.99065401
134.418052286
133.822703559
133.203773854
132.560419664
131.891788354
131.197018631
130.475240817
129.725577069
128.947141581
128.13904064
127.300372607
126.430227665
125.527687349
124.591823875
123.621698962
122.616362304
121.574849413
120.496178777
119.379348168
118.223329824
117.027064272
115.78945248
114.509345941
113.18553415
111.816728786
110.401543972
108.938471134
107.42584743
105.861815492
104.244274879
102.570815619
100.838632471
99.0444151902
97.1842038341
95.253194362
93.2454720611
91.1536478113
88.9683619941
86.6774160658
84.2646236133
81.7078987264
78.9755812437
76.0200711401
72.7687914845
69.06801311
64.3047115193
148.315590343
146.957416515
146.166446086
145.666433437
145.275447594
144.951568182
144.66705089
144.40245315
144.146970396
143.894454132
143.641076953
143.384325183
143.122461699
142.854209967
142.578569507
142.294705467
142.001880433
141.699411569
141.386640435
141.062905151
140.727555461
140.379915856
140.019342523
139.645167227
139.256693862
138.853215289
138.43401237
137.99835276
137.545491183
137.074669842
136.585118675
136.076055276
135.546685315
134.996208534
134.423812245
133.82867224
133.209954302
132.566814852
131.898401283
131.203852369
130.482298578
129.732862285
128.954657993
128.146792428
127.308364506
126.438465166
125.536176908
124.600573135
123.630717094
122.625660385
121.584440908
120.506080127
119.389579496
118.233915833
117.038035346
115.800846057
114.521208218
113.197922216
111.829713211
110.415212197
108.952932138
107.44123784
105.878305557
104.262072406
102.590170769
100.859860131
99.0679251411
97.2105284715
95.2830308044
93.2797474819
91.1936096829
89.0156610992
86.7343541682
84.3345530336
81.7958625291
79.089774377
76.1754905203
72.9951773601
69.4460455762
65.3332412956
147.320399991
146.666199885
146.11384522
145.67622917
145.304607801
144.982509235
144.693413265
144.423183946
144.162726196
143.906251055
143.649873449
143.390911592
143.127453363
142.858071724
142.581645552
142.297246201
142.004064025
141.70136041
141.388437073
141.064617132
140.729238468
140.381661417
140.021141932
139.647026229
139.258622105
138.855219863
138.436098065
138.000523285
137.547749947
137.077020473
136.587565668
136.07860543
135.549348819
134.998988393
134.426706375
133.831680924
133.213078971
132.57005745
131.901764616
131.207340065
130.485915118
129.736613082
128.958549551
128.150832573
127.312562634
126.442832565
125.540727239
124.605322894
123.635686273
122.63087324
121.589926979
120.511875439
119.395727991
118.24047112
117.045062853
115.808425651
114.529437452
113.206920501
111.839626927
110.426220883
108.965255417
107.455143859
105.894122146
104.280221759
102.611205279
100.884479153
99.0970017254
97.2451745804
95.3246837469
93.3302907989
91.2555462223
89.0923873072
86.830719307
84.4576265723
81.9563884379
79.3051451926
76.4759240331
73.4371110473
70.152730589
66.5997630995
146.770638742
146.407257728
146.007360754
145.638371933
145.300757445
144.992657788
144.707297824
144.436597823
144.174230347
143.915568338
143.65719368
143.39657475
143.131811646
142.861437031
142.584274785
142.299342365
142.005783435
141.702821794
141.389730304
141.065809028
140.730366992
140.382713956
140.022208644
139.64812781
139.259760617
138.856399243
138.437322002
138.00179424
137.549069263
137.078388491
136.588981559
136.080066553
135.550850783
135.000532598
134.428301794
133.833332804
133.214793534
132.571841687
131.903624531
131.209282122
130.487946574
129.7387422
128.960786029
128.153188008
127.315050965
126.445470608
125.543535367
124.608325869
123.638914215
122.634362744
121.593722495
120.516030968
119.400309252
118.245558172
117.050753412
115.81483932
114.536720848
113.215253513
111.849230431
110.437366066
108.978279096
107.470471751
105.912283142
104.301854167
102.637083374
100.915572338
99.134545848
97.2907519662
95.380337808
93.398693645
91.3402625837
89.1983153208
86.9646204166
84.6291362441
82.17977421
79.6024366305
76.8823789192
74.0098949432
70.988584674
67.855629382
146.436590779
146.204795634
145.903384279
145.592408797
145.287571406
144.99555068
144.716578354
144.447456123
144.18450032
143.924420733
143.664456873
143.402371251
143.136371278
142.865007823
142.58708415
142.301583276
142.007612555
141.704362764
141.391078575
141.067037374
140.731534239
140.383872782
140.02335658
139.649274937
139.260930597
138.857607121
138.438577592
138.003104944
137.550441148
137.079827066
136.590492434
136.081656004
135.552525602
135.002297896
134.430158943
133.835285006
133.216841514
132.573986398
131.905870243
131.211633525
130.490410866
129.741328886
128.963507028
128.156058095
127.318088124
126.44869674
125.546976974
124.612015052
123.642889848
122.638671875
121.598422752
120.521192645
119.406018016
118.251918444
117.057892406
115.8229115
114.545913134
113.225793736
111.861395742
110.451499791
108.994803269
107.489894247
105.935235714
104.329133108
102.669692903
100.954773339
99.1819270008
97.3483320981
95.4507092942
93.4852245448
91.447381236
89.3319149128
87.1327173225
84.8428700056
82.4549524739
79.9619558845
77.359684293
74.6525798861
71.862003246
69.0386523341
146.233198296
146.057296598
145.816102941
145.548778849
145.271594132
144.994958644
144.723272305
144.456774542
144.194013751
143.933009791
143.671727685
143.408300322
143.141102178
142.868742374
142.590027985
142.303921289
142.009500239
141.70592543
141.392414105
141.068220459
140.73262105
140.384903934
140.024359623
139.650278285
139.261949243
138.858651638
138.439655908
138.004222945
137.551603221
137.081036361
136.591751114
136.082965378
135.553886427
135.003711051
134.431625928
133.836808359
133.218426828
132.575641064
131.907602316
131.213454894
130.492334328
129.743367937
128.965677194
128.158377605
127.320578539
126.451384144
125.549893105
124.615198534
123.646387748
122.64254184
121.60273413
120.526029557
119.411482626
118.258134934
117.065012084
115.831119999
114.555440478
113.236920832
111.87447079
110.466940707
109.013114786
107.511700642
105.961314825
104.36044124
102.70741301
101.000380437
99.2372727601
97.4157564828
95.5331918774
93.5865933279
91.5726048323
89.4875148882
87.3273573518
85.0881911817
82.7667316697
80.3616273529
77.8759461772
75.3218421679
72.7262631597
70.1363078236
146.110081537
145.954474305
145.748173696
145.511613479
145.256140906
144.992864769
144.728255602
144.4647517
144.202623778
143.941043942
143.678678103
143.414049698
143.145728904
142.872407134
142.592912193
142.306196485
142.011315074
141.707402127
141.393649601
141.069289564
140.733580144
140.385794845
140.025214743
139.651122195
139.262798234
138.859517035
138.440546194
138.005144424
137.552560681
137.082033735
136.592791942
136.0840532
135.555025012
135.004904894
134.432880754
133.838130775
133.219823872
132.57712057
131.909173026
131.215124795
130.494111296
129.745263684
128.967707999
128.160563558
127.322944839
126.453961288
125.552717966
124.618315801
123.649851583
122.646417814
121.607101956
120.530986299
119.417146546
118.264650124
117.072553861
115.839900664
114.565715037
113.249001784
111.888735442
110.483856375
109.033263157
107.535795983
105.990225632
104.39523957
102.749426258
101.051256613
99.2990664297
97.4910420762
95.6252140431
93.6994680663
91.7115900153
89.6593739948
87.5408407638
85.354657852
83.1008941715
80.7823073752
78.4064465847
75.9889101901
73.5565731459
71.1487928511
146.036001904
145.885992225
145.699237931
145.483134673
145.243431538
144.990614022
144.731981421
144.47124847
144.209887687
143.947972616
143.684762339
143.419133373
143.149845153
142.875676403
142.595483584
142.308216831
142.012914642
141.708689677
141.394712368
141.070195503
140.734381057
140.386529612
140.025912129
139.65180294
139.263478227
138.860207177
138.441254636
138.005877279
137.553322714
137.082828916
136.593623842
136.084925312
135.55594103
135.005868742
134.433896511
133.839202998
133.220957953
132.578322373
131.910449382
131.216485471
130.49557208
129.746842622
128.969423817
128.162438596
127.325006031
126.456241448
125.555257031
124.621162284
123.653064413
122.650068644
121.611278442
120.535794823
119.422716216
118.271137825
117.080150512
115.848839507
114.576282246
113.261544012
111.903678179
110.501715784
109.054665677
107.561508388
106.021189468
104.432612054
102.794631927
101.106053812
99.365632346
97.5720817917
95.7241008852
93.820424826
91.8599213847
89.8417608063
87.76569741
85.6325436164
83.4449129848
81.2083389615
78.9328579395
76.6350748309
74.3396689106
72.0786484466
145.993725585
145.84427839
145.667864268
145.464128426
145.234599017
144.988894767
144.734539724
144.475907035
144.215206633
143.953119439
143.689329496
143.422978882
143.152976018
142.878172219
142.59745072
142.309763306
142.014137936
141.709672056
141.3955203
141.070881058
140.734984108
140.387080143
140.026432415
139.652310236
139.263982329
138.860717893
138.441778673
138.006419622
137.553887378
137.083419354
136.594243249
136.085576874
135.556628129
135.006595164
134.434666593
133.840021898
133.221831917
132.579259414
131.911459866
131.217581959
130.496765877
129.748148577
128.970861829
128.164033042
127.326786302
126.458243135
125.557523309
124.62374559
123.656028456
122.653490733
121.615252128
120.540433763
119.428158616
118.277551736
117.087740141
115.8578525
114.587019052
113.274369509
111.91903674
110.520151559
109.076842613
107.58823609
106.053456213
104.471626305
102.841873324
101.163337035
99.4351869616
97.656652012
95.8270693326
93.9459662226
92.0131879605
90.0291014823
87.9949019779
85.9130809644
83.788084913
81.6272092328
79.4417041005
77.2479813088
75.0680847507
72.9281936329
145.974449196
145.824571842
145.652610403
145.454677394
145.230119424
144.988004585
144.735874502
144.478371398
144.218050778
143.955896713
143.691813874
143.425086462
143.154704836
142.879561476
142.598555699
142.310641278
142.014841163
141.710244951
141.395998924
141.071293772
140.735352706
140.387421081
140.026757907
139.652629193
139.264302328
138.861043793
138.442114403
138.006768401
137.554252007
137.083802515
136.594647614
136.086005311
135.557083877
135.007082005
134.435189048
133.840585437
133.222443184
132.57992637
131.912191695
131.218388981
130.497663037
129.749153157
128.97199437
128.165318431
127.328254758
126.459931377
125.55947593
124.626016739
123.658683876
122.656610239
121.618932674
120.544793101
119.433339724
118.28372822
117.095122793
115.866697605
114.597638215
113.287142344
111.934422738
110.538710341
109.099253386
107.615325233
106.086229454
104.511308347
102.889956024
101.221638322
99.5059226333
97.7425225305
95.9313633755
94.0726829055
92.1671733809
90.2162041104
88.222115248
86.1886604489
84.1215474551
82.0291213054
79.9231053845
77.8192541452
75.7372575608
73.6990400216
145.974451834
145.824587957
145.652637462
145.454713679
145.230164161
144.988056939
144.735933547
144.478436307
144.218120857
143.955971388
143.691892686
143.425169058
143.154790953
142.879650934
142.598648378
142.310737158
142.014940239
141.710347275
141.396104597
141.071402947
140.735465597
140.387537978
140.026879192
139.652755366
139.264434075
138.86118185
138.442259692
138.006922065
137.554415462
137.083977322
136.594835798
136.086209344
135.557306747
135.007327318
134.435461178
133.840889668
133.222785898
132.580315299
131.912636373
131.218901368
130.498257137
129.749845979
128.972806654
128.166275417
127.329387099
126.461276292
125.561078615
124.627932084
123.66097852
122.659365066
121.622245854
120.54878381
119.43815262
118.289538784
117.102143913
115.875187644
114.607909954
113.299576232
111.949479361
110.55695084
109.121356343
107.642113969
106.118702739
104.550676832
102.937686271
101.279503799
99.5760623578
97.8275115472
96.0342971532
94.1972694945
92.317858561
90.398364557
88.4419000988
86.4530882432
84.4384447849
82.4068713635
80.3701538892
78.3433101114
76.3442426068
74.3920445565
145.993733553
145.84432711
145.667946049
145.464238026
145.234734087
144.989052595
144.734717499
144.476102297
144.215417307
143.953343817
143.689566211
143.42322688
143.153234524
142.878440699
142.597728848
142.310050955
142.014435128
141.709978961
141.395837223
141.071208457
140.735322624
140.387430633
140.026795992
139.652688419
139.26437708
138.861131405
138.442213676
138.006879452
137.554376119
137.083941933
136.594805663
136.08618641
135.557293623
135.007327327
134.435478479
133.840929404
133.222854363
132.580420209
131.91278709
131.219109266
130.498536043
129.75021274
128.973281758
128.166883763
127.330158928
126.462248344
125.562295508
124.629447987
123.66285919
122.661690289
121.625112433
120.55230922
119.442479373
118.294839626
117.108628409
115.883109781
114.6175781
113.311364191
111.963839138
110.574425381
109.142611096
107.667949135
106.150083374
104.5887657
102.983881491
101.335486729
99.6438686135
97.9096111043
96.1336025044
94.3172187415
92.4624356161
90.5719381194
88.64970421
86.7009910365
84.7327898454
82.7542539544
80.7770564944
78.8156019754
76.886607303
75.0075127712
146.036015386
145.886074673
145.699376082
145.483319426
145.243658776
144.990879053
144.732279472
144.471575407
144.210240048
143.948347563
143.685157614
143.419547238
143.150276337
142.876124033
142.595947137
142.308696099
142.013409679
141.709200775
141.395240045
141.070740533
140.734944527
140.387112951
140.026517106
139.652432146
139.264134513
138.860894316
138.441977152
138.00664066
137.554133655
137.083695536
136.594555978
136.085934881
135.557042464
135.007079524
134.435237872
133.840700813
133.222643748
132.580234888
131.912636017
131.219003352
130.498488579
129.750239901
128.973403218
128.167123449
127.330545931
126.46281802
125.563090798
124.630521029
123.664273263
122.663522169
121.627455263
120.555275981
119.446206986
118.29949401
117.114410721
115.890263487
114.626398081
113.322206835
111.977135891
110.590697857
109.162483537
107.692180591
106.179588833
104.624648208
103.027473156
101.388377071
99.7079141205
97.9869445386
96.2267895022
94.4292629907
92.5968197332
90.7327211904
88.841276109
86.9280862366
85.0003701112
83.0672997459
81.1403157742
79.2333641904
77.3625770689
75.544868508
146.110100904
145.954592624
145.748371293
145.51187679
145.256463724
144.993240211
144.728676812
144.46521282
144.203119956
143.941571229
143.679233375
143.414630564
143.146333617
142.873034505
142.593561512
142.306867464
142.01200779
141.708116973
141.394387284
141.070051119
140.734367033
140.386609072
140.026058882
139.651999597
139.263712891
138.860474051
138.441551785
138.006206102
137.553687598
137.083237035
136.594085151
136.085452732
135.55655081
135.006580977
134.434735868
133.840199714
133.222148995
132.579753205
131.912175689
131.218574565
130.498103766
129.749914197
128.973155039
128.166975168
127.330524768
126.462957057
125.563430233
124.631109664
123.665170331
122.664799536
121.629200118
120.557594023
119.449226255
118.30336972
117.119330761
115.896455319
114.634136728
113.331824599
111.989035109
110.605363077
109.180499075
107.714247476
106.20654711
104.657497896
103.067391619
101.436768197
99.7664620671
98.057656472
96.3119628636
94.5315232327
92.7191357275
90.8784001719
89.0138980315
87.1314032703
85.2381449562
83.3431066926
81.4573676835
79.5944968973
77.7705045569
76.0027995886
146.23322421
146.05745449
145.816365177
145.549126497
145.272018408
144.995450163
144.723821982
144.457374762
144.194658288
143.933693629
143.672446888
143.409051891
143.141883933
142.869552836
142.590866274
142.304787036
142.010393492
141.706846586
141.39336387
141.069199816
140.733631237
140.385946781
140.025439511
139.651400994
139.263119324
138.859874844
138.440939703
138.005576474
137.553037643
137.082565394
136.593391567
136.084737847
135.55581607
135.005828618
134.433968931
133.839422089
133.221365506
132.578969791
131.911399657
131.217814919
130.497371609
129.749223155
128.972521814
128.166420123
127.330072666
126.462637977
125.563280702
124.631174019
123.665502346
122.665464449
121.630277025
120.559178735
119.451434778
118.306342505
117.123237604
115.901501585
114.640570595
113.339945564
111.999204362
110.618016291
109.196159015
107.733539546
106.230219323
104.686444821
103.102682734
101.479661718
99.8184249821
98.1203941528
96.3874440888
94.6219879011
92.8270805975
91.0065393763
89.1650878288
87.3085165368
85.4438864967
83.5797911095
81.7267445101
79.8978269794
78.1090691617
76.379144636
146.436623922
146.204997959
145.90371764
145.592847787
145.288103978
144.996164526
144.71726201
144.448200216
144.185297317
143.925264646
143.665343046
143.403296182
143.13733246
142.866003619
142.588113682
142.302646305
142.008709362
141.705493983
141.392244994
141.068239959
140.732774435
140.38515162
140.024675991
139.65064821
139.262361629
138.859101646
138.440143863
138.004753338
137.552184347
137.081680389
136.592474312
136.083788617
135.554835889
135.004819241
134.432932884
133.838362766
133.220287295
132.577878204
131.910301411
131.216718072
130.496285711
129.748159847
128.971495285
128.16544777
127.32917578
126.461842576
125.562618544
124.630683748
123.665230881
122.66546878
121.630626279
120.559956761
119.452743203
118.308304361
117.126001779
115.905248007
114.645515589
113.346349497
112.007380747
110.628341835
109.209085927
107.749609476
106.250078727
104.710861306
103.132563732
101.516075638
99.862620508
98.173814858
96.4517375798
94.69900651
92.9188633818
91.1152659111
89.2929882332
87.4577273114
85.6162345313
83.7765039611
81.9481569819
80.1433479007
78.3775922955
76.6707452827
146.770679139
146.407508165
146.007767762
145.638902666
145.301395897
144.993388246
144.708106339
144.437473317
144.175164075
143.916553444
143.658224905
143.397648202
143.132924625
142.862587928
142.585463021
142.300568375
142.007048692
141.704128725
141.391081812
141.06720887
140.731824158
140.384244008
140.023784292
139.649752241
139.261447608
138.858160093
138.439168395
138.003739861
137.551130316
137.080584304
136.591335479
136.082606994
135.553611928
135.003553813
134.43162729
133.837018932
133.21890804
132.576467386
131.908863999
131.215260805
130.494817204
129.746690327
128.970037161
128.164016078
127.327788683
126.460522038
125.561391173
124.629581834
123.664293639
122.664743886
121.630171132
120.559840711
119.453050205
118.30913576
117.127479895
115.907520519
114.648762269
113.350787288
112.013270319
110.635996137
109.218879759
107.761990275
106.265578861
104.73011158
103.156307637
101.545183775
99.8981049176
98.2168411009
96.5036301121
94.7612442355
92.9930592828
91.2031218559
89.3962081766
87.5778697094
85.754470807
83.9332285997
82.1224456738
80.3325033322
78.5766170575
76.8734396673
147.320452452
146.666512602
146.11433591
145.676856992
145.305353064
144.98335294
144.694339245
144.424179655
144.16378183
143.907358939
143.651027645
143.392107582
143.128687797
142.859342228
142.582950613
142.298585195
142.005437569
141.702771231
141.389890224
141.066119047
140.730789534
140.383231349
140.022765442
139.648711553
139.260374172
138.857046251
138.438009025
138.002531688
137.549871559
137.079274165
136.589973883
136.081194492
135.552149647
135.002043429
134.430070989
133.83541906
133.217266016
132.574785963
131.907146836
131.213511792
130.493041222
129.744894298
128.968229904
128.162208535
127.325994372
126.458757575
125.559676886
124.627942472
123.662759224
122.663350489
121.628963238
120.558872267
119.452386582
118.308856118
117.127679976
115.908315477
114.650289318
113.353211937
112.016791628
110.640852872
109.225357599
107.770430198
106.276386665
104.743768396
103.173380915
101.566338051
99.9241115033
98.2485851637
96.5421123788
94.8075790352
93.0484587017
91.2688613341
89.4735598991
87.6679833481
85.858148979
84.0504447849
82.2515315691
80.4689687052
78.7098702035
76.9829307563
148.315690228
146.95787481
146.167129431
145.667289
145.276452238
144.952701116
144.668295099
144.403795569
144.14840083
143.895964555
143.642661033
143.385977864
143.12417879
142.855987721
142.580404213
142.296593055
142.003815945
141.701388327
141.388652915
141.064961018
140.72965308
140.382079554
140.021588409
139.647496213
139.259111231
138.855729796
138.436634783
138.001094352
137.548367514
137.077701314
136.588330753
136.079479939
135.550362794
135.000183676
134.428138105
133.833413738
133.215191959
132.572645563
131.904942678
131.211247462
130.490721322
129.742524016
128.965815452
128.159757522
127.323516136
126.456263545
125.557180995
124.625461699
123.660314342
122.660966925
121.626671387
120.556708933
119.450396244
118.307092475
117.126207919
115.907213739
114.649653983
113.35315757
112.017455554
110.642399692
109.227984161
107.774371039
106.281919881
104.751221955
103.18313933
101.578849263
99.9398934211
98.2682297564
96.5662849444
94.8370334039
93.0840231263
91.3114223591
89.5240359966
87.7272815108
85.9270560414
84.1292263326
82.339322039
80.5621060087
78.7923810656
77.0006387993
150.108798868
147.180701721
146.067175135
145.540106592
145.17301004
144.878440941
144.616988596
144.368628765
144.124279787
143.879374777
143.631218845
143.378059249
143.118665816
142.852104843
142.577611464
142.294514321
142.002189573
141.700032544
141.387440647
141.063806348
140.728524256
140.380954465
140.020428007
139.64627958
139.257826981
138.854370969
138.435197689
137.999582107
137.54678184
137.076042443
136.58659895
136.077675627
135.548486461
134.998235855
134.426119347
133.831324298
133.213030884
132.570413006
131.902639346
131.208874471
130.488280128
129.74001672
128.963244876
128.15712729
127.320830818
126.453528839
125.554403877
124.62265078
123.657480046
122.658122105
121.623831647
120.553893174
119.447627372
118.304398193
117.123621587
115.904775323
114.647410924
113.351167461
112.015787681
110.641137006
109.227225783
107.774235214
106.282547401
104.752780068
103.185826034
101.582897692
99.9455765331
98.2758700449
96.5762752638
94.8497977912
93.1000428518
91.3312475241
89.5483009897
87.7567220486
85.9625568797
84.1723027847
82.3923808224
80.6275749602
78.8574265813
76.957473129
56.9106141038
53.3584945131
50.9670553097
49.0096479827
47.3376369432
45.8808553681
44.5953205214
43.4513244322
42.4271896203
41.5061628027
40.6748290824
39.9221738857
39.2389863712
38.6174594557
38.0509067106
37.5335540435
37.0603813714
36.6269993186
36.2295512683
35.8646343148
35.5292344296
35.2206728313
34.9365610741
34.6747631198
34.4333633288
34.2106392214
34.0050379328
33.8151563354
33.639723573
33.4775861481
33.3276945492
33.1890920171
33.0609042964
32.942331063
32.8326379391
32.7311495828
32.6372435587
32.550344545
32.4699183343
32.3954651093
32.3265100077
32.2625964449
32.2033653545
32.1488349477
32.0985690155
32.052130057
32.0091071555
31.9692481721
31.9323288036
31.8981318031
31.8664469404
31.8370875105
31.8098982575
31.7847132562
31.7613419601
31.7396744349
31.7195571409
31.7008674954
31.6834781204
31.6672827461
31.6521778233
31.6380704045
31.6248759211
31.6125174691
31.6009218509
31.590022734
31.5797591576
31.57007423
31.5609148743
31.5522330384
31.5439851612
31.5361307206
31.5286321361
31.5214555696
31.5145693869
31.5079446222
31.5015557014
31.4953771608
31.489387461
31.483568962
31.4779013024
31.4723698382
31.4669596701
31.4616560989
31.4564467685
31.4513205317
31.4462668177
31.4412795117
31.4363571884
31.4314905985
31.4266687958
31.4218865303
31.4171355035
31.4124110665
31.4077137419
31.4030614301
31.3984259751
31.3937977461
31.3891717926
31.3845436287
31.3799091584
31.3752647986
31.3706072875
31.3659335637
31.361240763
31.3565260183
31.3517863423
31.3470186868
31.3422198765
31.3373868391
31.3325169939
31.3276082443
31.3226588851
31.3176676781
31.3126336391
31.307555776
31.3024329416
31.2972644429
31.2920495411
31.2867886671
31.2814817292
31.2761284238
31.2707226213
31.2652414363
31.2596366273
31.2539064021
31.2488548243
31.2439434668
31.2388306172
31.2337380085
31.2287682095
31.2239627647
31.2193747117
31.2150725562
31.2111274093
31.2076102064
31.2045932185
31.2021337827
31.2002726069
31.1989445745
31.1985885877
31.1987113195
31.1992787821
31.1997358341
31.1984013877
31.1909615388
31.1671972011
31.1052161397
30.963548624
30.6714694284
30.1236171808
29.1870716019
27.7291518231
25.6572250773
22.9455138974
19.650398763
15.8906417173
11.6345744178
6.60700605709
1.57167537146
60.0919606436
56.0391500322
53.3271665037
51.1748239233
49.3729105753
47.8230212869
46.4669434641
45.2674403642
44.1983321497
43.2399787722
42.3770322057
41.5971394677
40.8901371586
40.2475276588
39.6621137599
39.1277392599
38.6390925652
38.191560626
37.7811111401
37.4042026554
37.0577092491
36.7388611777
36.4451942255
36.1745089645
35.9248353677
35.6944037111
35.4816200526
35.2850444804
35.1033731726
34.9354229638
34.7801174145
34.6364747178
34.5035983846
34.3806672901
34.2669285091
34.1616905306
34.0643173268
33.9742242571
33.8908734327
33.813771862
33.7424698545
33.6765609173
33.6156454229
33.5591995204
33.5069269886
33.4585566626
33.4138224638
33.3724534981
33.3341896093
33.2987906498
33.2660293378
33.2357005936
33.2076138736
33.1815787488
33.157430892
33.1350421911
33.1142522496
33.0949222405
33.0769474537
33.06021788
33.0446261012
33.0300780984
33.016487857
33.0037739378
32.9918564515
32.9806668531
32.9701398105
32.9602166
32.9508419595
32.9419656907
32.9335420206
32.9255299373
32.9178883883
32.9105849683
32.9035804947
32.8968567578
32.8903719818
32.8841182605
32.8780581984
32.8721792622
32.8664580956
32.8608805533
32.8554290841
32.8500899058
32.8448514893
32.8397014573
32.8346302515
32.8296269626
32.8246754137
32.8197684854
32.8149024747
32.8100703657
32.8052670062
32.8004875488
32.7957241002
32.7909693366
32.786220647
32.781478165
32.7767382992
32.7719980051
32.767253007
32.762500377
32.7577361504
32.7529582615
32.7481632046
32.7433489334
32.7385119187
32.7336492399
32.7287577204
32.7238344138
32.7188763021
32.7138815929
32.7088483832
32.7037753155
32.6986615134
32.6935059532
32.6883078539
32.683066952
32.6777836375
32.672459531
32.6670971088
32.6617017227
32.6562796118
32.6508428934
32.6454210545
32.6400249654
32.6347045023
32.6291505812
32.6238502027
32.6187360454
32.6137583448
32.6089860789
32.60448193
32.6003214576
32.5965865578
32.5933628494
32.5907442137
32.588778096
32.5875761239
32.5871410195
32.5875959277
32.5887559552
32.5904096466
32.591768105
32.5906288321
32.5816956614
32.5527815458
32.4787361236
32.3131409252
31.9789510523
31.3646823442
30.3344008074
28.7584988066
26.5541518818
23.7074569712
20.2792982412
16.3864505036
12.0125318175
6.89614375594
1.7052350444
62.2994018587
58.365958091
55.4988121053
53.2149027107
51.312978007
49.6865638981
48.2706279954
47.0231523625
45.9147084181
44.9234281915
44.0324062417
43.228181172
42.4997881226
41.8381420449
41.2356097537
40.6857076981
40.1828757741
39.7223098844
39.2998291321
38.911774745
38.5549269605
38.2264396928
37.9237855646
37.6447120664
37.3872038067
37.1494517469
36.9298271098
36.7268590727
36.5392158246
36.365688666
36.2051776469
36.0566794119
35.9192774003
35.7921319651
35.6744727123
35.5655919369
35.4648381503
35.3716113376
35.2853576599
35.2055655777
35.1317602123
35.0635030804
35.0003907911
34.9419984869
34.88782827
34.837731133
34.7914159741
34.7485864486
34.7089725238
34.672326642
34.6384161761
34.6070321247
34.5779785398
34.5510696801
34.5261337717
34.5030248556
34.4815851673
34.4616681952
34.4431566416
34.4259374806
34.4098997773
34.3949439675
34.3809785702
34.367916938
34.3556829408
34.3442061431
34.333418543
34.3232592363
34.3136708306
34.3046017685
34.2960037756
34.2878345628
34.2800506908
34.2726196829
34.2654998339
34.2586707396
34.2520924589
34.245742097
34.2396000052
34.2336423344
34.2278492862
34.2222048858
34.2166909345
34.21129318
34.2059981015
34.200791999
34.1956575278
34.1905894845
34.1855846878
34.1806368441
34.1757362202
34.170873815
34.166042717
34.1612375722
34.1564531668
34.1516860944
34.1469293128
34.1421783431
34.137427971
34.1326750176
34.1279149375
34.1231444146
34.1183593933
34.1135578816
34.1087362002
34.1038920659
34.0990219935
34.0941230787
34.0891921635
34.0842264154
34.0792229718
34.0741801248
34.0690960755
34.0639695024
34.0587996533
34.0535857568
34.0483271541
34.0430241679
34.0376776348
34.0322898359
34.0268639592
34.0214067567
34.0159257628
34.0104328801
34.0049477694
33.99946216
33.994014751
33.9886550546
33.9833774947
33.9782557036
33.9731334936
33.9683197987
33.9638572772
33.9598023686
33.9562427982
33.9532764988
33.951026647
33.9494783219
33.9488125092
33.949072082
33.9502816373
33.9523126962
33.9548204884
33.9567557522
33.955350386
33.9442619027
33.9093175698
33.8220999835
33.6314528807
33.2545002111
32.5744796387
31.4533989724
29.7651742409
27.4360666033
24.4622896495
20.9074094997
16.8848979956
12.3929055791
7.18481387743
1.83655498932
64.1035865375
60.3788740634
57.4748983504
55.1197477048
53.1497053135
51.4654336837
50.0017689052
48.7148268522
47.5733525553
46.5540135397
45.6387873198
44.8133761897
44.0661919099
43.3876842136
42.7698712967