/*--------------------------------*- C++ -*----------------------------------*\
| =========                 |                                                 |
| \\      /  F ield         | OpenFOAM: The Open Source CFD Toolbox           |
|  \\    /   O peration     | Version:  v1706                                 |
|   \\  /    A nd           | Web:      www.OpenFOAM.com                      |
|    \\/     M anipulation  |                                                 |
\*---------------------------------------------------------------------------*/
FoamFile
{
    version     2.0;
    format      ascii;
    class       volScalarField;
    location    "0.02";
    object      p;
}
// * * * * * * * * * * * * * * * * * * * * * * * * * * * * * * * * * * * * * //

dimensions      [0 2 -2 0 0 0 0];


internalField   nonuniform List<scalar> 
800
(
-4.15362e-17
-1.06588e-31
3.54802e-17
3.78565e-17
3.45926e-17
3.37252e-17
3.39025e-17
3.40269e-17
3.40319e-17
3.40194e-17
3.40163e-17
3.40207e-17
3.40299e-17
3.40109e-17
3.38932e-17
3.38618e-17
3.49287e-17
3.716e-17
3.10085e-17
-1.44222e-18
-1.43357e-18
3.10014e-17
3.70348e-17
3.47754e-17
3.47841e-17
3.70277e-17
3.08758e-17
-1.5876e-18
-5.17011e-19
3.41552e-17
3.40188e-17
-8.16028e-19
-8.47383e-19
3.49371e-17
3.72865e-17
-3.53191e-18
-3.7062e-17
-4.57981e-18
3.41438e-17
3.80827e-17
3.47753e-17
3.37357e-17
3.38852e-17
3.40262e-17
3.40416e-17
3.4001e-17
3.38983e-17
3.39886e-17
3.50998e-17
3.62543e-17
2.77346e-17
1.28234e-18
3.47723e-17
7.05254e-17
4.03027e-17
-6.68591e-18
-3.79756e-17
-4.42277e-18
3.42691e-17
3.809e-17
3.47636e-17
3.37331e-17
3.38861e-17
3.40229e-17
3.40329e-17
3.40204e-17
3.40171e-17
3.40177e-17
3.40173e-17
3.40169e-17
3.40238e-17
3.40409e-17
3.40056e-17
3.37777e-17
3.37027e-17
3.57437e-17
4.01551e-17
2.86463e-17
-3.4329e-17
-3.84092e-17
6.4264e-19
5.10609e-18
-4.41143e-17
-1.05006e-16
-4.22658e-17
3.41134e-17
4.20212e-17
3.55275e-17
3.34805e-17
3.37601e-17
3.38939e-17
3.37658e-17
3.4777e-17
3.80689e-17
3.41506e-17
-4.45413e-18
-3.69085e-17
-4.45417e-18
3.41515e-17
3.8071e-17
3.47723e-17
3.37368e-17
3.38859e-17
3.40226e-17
3.40328e-17
3.402e-17
3.40164e-17
3.40207e-17
3.40299e-17
3.40109e-17
3.38932e-17
3.38617e-17
3.49287e-17
3.71604e-17
3.10092e-17
-1.44525e-18
-1.44525e-18
3.10092e-17
3.71605e-17
3.49287e-17
3.38614e-17
3.38925e-17
3.40133e-17
3.40404e-17
3.40161e-17
3.39072e-17
3.38657e-17
3.4796e-17
3.68785e-17
3.17664e-17
2.61889e-18
-1.31985e-18
-7.5851e-18
-3.3911e-17
-2.64035e-18
3.70125e-17
3.47807e-17
2.12208e-19
1.42742e-18
2.7871e-17
1.70082e-18
-5.20839e-19
3.0854e-17
3.70363e-17
3.4935e-17
3.38808e-17
3.37756e-17
3.37215e-17
3.46586e-17
3.79176e-17
3.50614e-17
-1.31273e-18
-3.99182e-17
-3.99145e-17
-1.30056e-18
3.50541e-17
3.77922e-17
3.45016e-17
3.46347e-17
3.69289e-17
3.08672e-17
-6.41911e-19
1.41283e-18
2.86394e-17
5.58887e-18
3.96071e-19
-4.64128e-18
-3.61157e-17
-3.6026e-17
-3.54019e-18
2.62344e-18
-6.98341e-19
-4.09614e-18
2.16745e-18
3.58655e-17
3.71517e-17
-3.77515e-18
-3.7359e-17
-3.93932e-18
3.80433e-17
3.9126e-17
-5.55044e-19
-4.01996e-17
-4.00506e-17
-1.30818e-18
3.50793e-17
3.7928e-17
3.46419e-17
3.36157e-17
3.37339e-17
3.48112e-17
3.70181e-17
3.19216e-17
1.69594e-18
-4.45459e-18
-4.45414e-18
1.69711e-18
3.19198e-17
3.7004e-17
3.48037e-17
3.38545e-17
3.39049e-17
3.40133e-17
3.40281e-17
3.4023e-17
3.40321e-17
3.40221e-17
3.38859e-17
3.37369e-17
3.47715e-17
3.80693e-17
3.4156e-17
-4.42953e-18
-3.69067e-17
-4.68611e-18
3.37128e-17
3.94921e-17
4.15361e-17
3.24074e-17
-3.31298e-17
-7.46081e-17
-7.76065e-17
-6.83211e-17
-3.71859e-17
-3.22883e-17
-3.47198e-17
-3.55741e-17
-3.43077e-17
-3.29923e-17
-4.23025e-17
-7.069e-17
-3.29981e-17
2.87688e-17
5.47489e-18
1.00905e-19
3.05778e-17
3.69168e-17
3.49277e-17
3.38871e-17
3.38981e-17
3.40091e-17
3.4029e-17
3.40211e-17
3.40176e-17
3.40177e-17
3.40181e-17
3.40182e-17
3.40182e-17
3.40182e-17
3.40177e-17
3.40166e-17
3.40193e-17
3.40351e-17
3.40372e-17
3.38903e-17
3.36041e-17
3.44899e-17
3.88275e-17
3.82191e-17
-4.31642e-18
-7.55132e-17
-7.56623e-17
-3.567e-18
4.22566e-17
3.89612e-17
-3.9707e-18
-3.73277e-17
-4.69346e-18
3.40209e-17
3.8881e-17
3.76389e-17
3.13482e-17
2.1936e-18
-5.53176e-19
-3.3955e-18
-3.3631e-17
-4.20177e-17
-3.69295e-17
-5.15202e-19
3.48941e-17
3.76881e-17
3.44793e-17
3.45261e-17
3.6886e-17
3.19265e-17
1.71068e-18
-4.4523e-18
-4.45526e-18
1.69666e-18
3.19199e-17
3.70041e-17
3.48032e-17
3.38533e-17
3.39076e-17
3.40291e-17
3.40306e-17
3.38767e-17
3.3743e-17
3.48958e-17
3.82293e-17
3.32545e-17
-7.59021e-18
-3.4018e-17
3.07352e-17
7.02485e-17
4.48442e-17
3.23926e-17
-1.7496e-18
-3.58406e-17
-3.96548e-17
-3.97622e-17
-3.5874e-17
-5.61759e-19
3.47809e-17
3.77828e-17
3.46518e-17
3.37441e-17
3.38999e-17
3.40244e-17
3.40317e-17
3.402e-17
3.40166e-17
3.40171e-17
3.40212e-17
3.40299e-17
3.40103e-17
3.38916e-17
3.38635e-17
3.49463e-17
3.71757e-17
3.08684e-17
-1.84561e-18
-8.24865e-19
3.59567e-17
4.01917e-17
-6.84256e-18
-7.07188e-17
-3.39961e-17
2.47969e-17
-2.80071e-17
-2.9111e-17
2.24719e-17
-2.77235e-17
-3.82361e-17
-8.14873e-18
5.1784e-18
3.76846e-17
4.01132e-17
-5.96952e-18
-7.07348e-17
-4.46435e-17
5.48669e-18
3.89417e-17
-9.46416e-19
-6.35478e-17
-5.06455e-17
-6.71696e-17
-3.69996e-17
-5.68396e-19
2.19932e-18
-2.15778e-18
4.14337e-18
2.94209e-17
5.48242e-18
-6.54208e-19
-6.84503e-18
-3.10147e-17
-5.78074e-18
2.58353e-18
2.37931e-18
-7.03414e-18
-3.23244e-17
2.45709e-18
2.8744e-17
-3.01082e-17
-3.82726e-17
-3.39853e-18
4.00242e-18
-9.85792e-18
-3.36749e-17
3.72219e-17
1.04508e-16
5.14506e-17
-6.80507e-18
-8.41767e-17
-1.0732e-16
1.54263e-18
7.66619e-17
2.02174e-18
-1.02468e-16
-7.87831e-17
-4.35819e-17
-6.68115e-17
-3.58706e-17
2.74712e-17
4.06418e-17
7.37844e-17
1.04112e-16
7.38905e-17
4.08485e-17
2.69331e-17
-3.88072e-17
-6.69916e-17
-1.58611e-17
-2.68765e-17
4.27347e-18
2.96118e-17
-2.68113e-17
-4.21735e-17
-4.42509e-17
-3.29664e-17
3.60723e-17
7.25148e-17
3.47695e-17
-7.97459e-19
3.18132e-17
6.32133e-17
4.40756e-17
7.01424e-17
6.62869e-17
5.78896e-18
-5.38168e-18
-1.1632e-17
-2.95669e-17
3.52228e-17
6.52662e-17
2.94714e-18
2.94607e-18
6.63195e-17
3.83957e-17
-3.37582e-17
-4.9635e-17
-3.41832e-17
3.91055e-17
7.15645e-17
5.48783e-18
-4.2574e-17
-4.14136e-17
-6.42371e-19
3.9249e-17
3.92577e-17
-1.70028e-18
-4.46922e-17
-3.85259e-17
4.42452e-17
1.03098e-16
3.5307e-18
-6.96505e-17
-1.80669e-17
3.81154e-18
4.00501e-17
7.00906e-17
3.75155e-17
1.14662e-19
-2.64972e-18
-6.91636e-18
-3.00324e-17
-1.7261e-18
2.72232e-18
-3.58536e-17
-7.77609e-17
-7.27818e-17
-2.90632e-18
4.18152e-17
3.94801e-17
-7.76982e-20
-3.62743e-17
-4.00374e-17
-3.99338e-17
-3.49306e-17
2.70975e-18
3.1929e-17
1.42227e-18
-3.95015e-18
3.36145e-17
7.22353e-17
7.11482e-17
4.08235e-17
3.07218e-17
-4.58498e-18
-3.3744e-17
-6.42885e-18
1.72385e-18
-5.77559e-19
-2.91803e-18
4.40532e-18
2.97013e-17
4.68006e-18
-3.7789e-18
-4.77193e-18
2.49327e-18
3.50573e-17
3.40061e-17
-6.57027e-19
-1.60917e-18
3.08962e-17
3.71532e-17
3.49281e-17
3.38712e-17
3.40168e-17
3.41698e-17
3.3131e-17
3.08716e-17
3.6901e-17
6.93236e-17
7.0394e-17
4.0183e-17
2.78732e-17
-2.47404e-18
-1.56281e-18
3.17674e-17
4.09309e-17
3.56815e-17
-7.0346e-19
-3.59823e-17
-3.99086e-17
-4.00495e-17
-3.52403e-17
3.21253e-18
3.56708e-17
3.3746e-18
-3.61489e-17
-4.33254e-17
-3.70499e-17
5.15539e-19
3.80616e-17
3.47826e-17
-8.24386e-19
-1.72261e-18
3.08916e-17
3.71672e-17
3.49423e-17
3.38636e-17
3.38921e-17
3.40104e-17
3.40299e-17
3.40212e-17
3.40175e-17
3.40177e-17
3.40181e-17
3.40182e-17
3.40181e-17
3.40181e-17
3.40182e-17
3.40181e-17
3.40178e-17
3.40175e-17
3.40202e-17
3.40281e-17
3.40161e-17
3.39196e-17
3.38593e-17
3.46721e-17
3.67197e-17
3.26623e-17
5.75729e-18
-4.19586e-18
-4.27706e-17
-7.01409e-17
-9.69185e-18
4.01581e-17
7.43127e-17
6.99466e-17
3.64754e-17
3.16528e-17
3.6277e-17
3.11755e-17
-1.4436e-18
-1.5958e-18
3.19076e-17
4.02998e-17
3.19205e-17
-1.60118e-18
-1.5702e-18
3.10018e-17
3.71721e-17
3.49317e-17
3.38611e-17
3.38927e-17
3.40108e-17
3.40299e-17
3.40211e-17
3.40175e-17
3.40177e-17
3.40182e-17
3.40182e-17
3.40172e-17
3.40164e-17
3.40234e-17
3.40446e-17
3.40152e-17
3.376e-17
3.35786e-17
3.56878e-17
4.1239e-17
3.11426e-17
-4.01631e-17
-7.2817e-17
-5.92331e-18
4.43326e-17
3.70166e-17
-3.61774e-17
-7.57872e-17
-4.30661e-17
1.84656e-18
3.59903e-17
3.77595e-17
3.45198e-17
3.3724e-17
3.3924e-17
3.40329e-17
3.38992e-17
3.37383e-17
3.47713e-17
3.80703e-17
3.415e-17
-4.45331e-18
-3.68927e-17
-4.43325e-18
3.40372e-17
3.76641e-17
3.51276e-17
3.82669e-17
3.86936e-17
-5.45991e-19
-7.44764e-17
-1.09783e-16
-7.51109e-17
-3.8873e-17
-3.22495e-17
8.25793e-19
3.85449e-17
3.77952e-17
-3.81273e-18
-3.71679e-17
-4.57393e-18
3.41443e-17
3.80941e-17
3.49098e-17
3.38867e-17
3.28639e-17
3.07312e-17
3.78318e-17
7.23375e-17
6.71007e-17
5.45974e-18
-3.54358e-18
-5.23134e-18
-3.66189e-17
-3.8882e-17
-1.46089e-18
3.49254e-17
3.79039e-17
3.46586e-17
3.37352e-17
3.39116e-17
3.40294e-17
3.38998e-17
3.37387e-17
3.47712e-17
3.80706e-17
3.41516e-17
-4.4541e-18
-3.6909e-17
-4.45525e-18
3.41534e-17
3.80846e-17
3.4779e-17
3.36192e-17
3.36089e-17
3.46444e-17
3.78043e-17
3.4908e-17
-4.02399e-19
-3.67757e-17
-4.29265e-17
-3.67752e-17
-4.01204e-19
3.49057e-17
3.77888e-17
3.46383e-17
3.37461e-17
3.39258e-17
3.40238e-17
3.37885e-17
3.35892e-17
3.55602e-17
4.09261e-17
3.17854e-17
-3.60143e-17
-7.14456e-17
-4.30701e-17
-3.602e-17
-3.11826e-17
1.73511e-19
2.36334e-19
-3.30183e-17
-4.22812e-17
-3.70462e-17
-5.20223e-19
3.49115e-17
3.78032e-17
3.4642e-17
3.37401e-17
3.39001e-17
3.40249e-17
3.40318e-17
3.402e-17
3.40171e-17
3.40177e-17
3.40182e-17
3.40182e-17
3.40181e-17
3.40181e-17
3.40181e-17
3.40182e-17
3.40182e-17
3.40172e-17
3.40159e-17
3.40229e-17
3.40475e-17
3.4026e-17
3.37518e-17
3.34603e-17
3.55522e-17
4.21239e-17
3.40393e-17
-4.33715e-17
-1.06296e-16
-3.58877e-17
3.23199e-17
-2.86695e-17
-7.38725e-17
-4.34891e-17
1.56586e-18
3.5981e-17
3.7787e-17
3.45296e-17
3.37306e-17
3.39034e-17
3.39182e-17
3.38792e-17
3.47972e-17
3.68809e-17
3.17747e-17
2.60042e-18
-1.43677e-18
-7.61994e-18
-3.28568e-17
-3.98981e-19
3.10009e-17
2.48705e-18
-8.30645e-19
3.04582e-17
3.77853e-17
3.89854e-17
3.40094e-17
-4.57725e-18
-3.69181e-17
-4.44104e-18
3.41685e-17
3.80778e-17
3.46514e-17
3.34481e-17
3.45147e-17
3.79184e-17
3.50798e-17
-1.29831e-18
-3.9927e-17
-4.00406e-17
-1.45396e-18
3.5976e-17
4.09266e-17
3.13711e-17
-9.72351e-19
2.36608e-18
3.08606e-17
-6.66054e-19
-3.20891e-17
-3.57311e-18
-1.41484e-18
-3.60214e-17
-3.83623e-17
1.26645e-18
3.25612e-17
6.34393e-18
1.16533e-19
-4.76116e-18
-3.59717e-17
-3.58534e-17
-4.59534e-18
-8.0561e-19
3.1964e-18
3.57009e-17
3.7011e-17
-3.64304e-18
-3.70462e-17
-4.75157e-18
3.36955e-17
3.90465e-17
)
;

boundaryField
{
    left
    {
        type            zeroGradient;
    }
    right
    {
        type            zeroGradient;
    }
    empty
    {
        type            empty;
    }
}


// ************************************************************************* //
