/*--------------------------------*- C++ -*----------------------------------*\
| =========                 |                                                 |
| \\      /  F ield         | OpenFOAM: The Open Source CFD Toolbox           |
|  \\    /   O peration     | Version:  v1706                                 |
|   \\  /    A nd           | Web:      www.OpenFOAM.com                      |
|    \\/     M anipulation  |                                                 |
\*---------------------------------------------------------------------------*/
FoamFile
{
    version     2.0;
    format      ascii;
    class       surfaceScalarField;
    location    "0.02";
    object      phi;
}
// * * * * * * * * * * * * * * * * * * * * * * * * * * * * * * * * * * * * * //

dimensions      [0 3 -1 0 0 0 0];
oriented        oriented;


internalField   nonuniform List<scalar> 
799
(
7.71877e-34
8.20025e-34
8.17298e-34
1.2732e-33
7.63672e-34
1.16443e-33
9.96387e-34
8.53144e-34
1.13142e-33
7.85212e-34
9.83314e-34
9.17325e-34
8.08216e-34
9.68478e-34
8.06144e-34
8.90602e-34
8.8905e-34
8.27736e-34
9.04284e-34
8.37179e-34
8.62155e-34
8.65352e-34
8.29711e-34
8.49753e-34
8.15887e-34
8.03662e-34
7.86171e-34
7.54714e-34
7.40279e-34
7.15753e-34
6.92131e-34
6.69555e-34
6.42478e-34
6.16523e-34
5.91321e-34
5.67999e-34
5.43172e-34
5.20603e-34
5.02735e-34
4.89194e-34
4.82634e-34
4.77597e-34
4.73242e-34
4.74429e-34
4.73917e-34
4.75006e-34
4.7661e-34
4.82094e-34
4.89006e-34
4.954e-34
5.033e-34
5.06309e-34
5.08566e-34
5.09318e-34
5.07061e-34
5.15337e-34
5.19098e-34
5.31135e-34
5.44771e-34
5.5267e-34
5.61604e-34
5.69645e-34
5.7849e-34
5.84564e-34
5.87362e-34
5.85892e-34
5.76177e-34
5.65024e-34
5.50958e-34
5.41326e-34
5.37058e-34
5.3633e-34
5.39458e-34
5.47269e-34
5.58031e-34
5.73077e-34
5.89816e-34
6.1389e-34
6.37776e-34
6.5602e-34
6.76332e-34
6.9815e-34
7.16205e-34
7.32756e-34
7.40279e-34
7.46486e-34
7.47426e-34
7.53116e-34
7.57688e-34
7.63008e-34
7.6862e-34
7.79094e-34
7.87581e-34
8.0385e-34
8.23034e-34
8.46356e-34
8.71935e-34
8.95256e-34
9.17826e-34
9.30615e-34
9.39055e-34
9.43358e-34
9.42406e-34
9.36307e-34
9.27464e-34
9.1674e-34
9.03082e-34
8.91255e-34
8.81171e-34
8.70988e-34
8.63651e-34
8.52939e-34
8.46544e-34
8.37704e-34
8.34319e-34
8.29643e-34
8.24539e-34
8.17016e-34
8.11749e-34
8.07612e-34
8.03384e-34
8.06072e-34
8.11874e-34
8.22584e-34
8.31574e-34
8.39667e-34
8.46967e-34
8.53268e-34
8.62343e-34
8.71935e-34
8.78423e-34
8.79458e-34
8.81715e-34
8.85476e-34
8.92247e-34
8.97231e-34
9.04284e-34
9.09268e-34
9.17074e-34
9.26101e-34
9.3701e-34
9.46414e-34
9.55066e-34
9.6668e-34
9.76577e-34
9.87971e-34
9.9776e-34
1.00526e-33
1.01299e-33
1.01882e-33
1.02014e-33
1.02315e-33
1.0291e-33
1.03067e-33
1.03519e-33
1.03914e-33
1.04271e-33
1.05131e-33
1.05484e-33
1.05531e-33
1.054e-33
1.05395e-33
1.05324e-33
1.06001e-33
1.06302e-33
1.06735e-33
1.07356e-33
1.08178e-33
1.08108e-33
1.08296e-33
1.08315e-33
1.08672e-33
1.09161e-33
1.09838e-33
1.10548e-33
1.11192e-33
1.12246e-33
1.12998e-33
1.136e-33
1.13694e-33
1.12998e-33
1.11794e-33
1.10354e-33
1.08183e-33
1.05174e-33
1.03293e-33
1.00942e-33
9.89437e-34
9.72545e-34
9.56006e-34
9.48295e-34
9.39831e-34
9.32872e-34
9.29675e-34
9.2844e-34
9.27418e-34
9.30615e-34
9.3212e-34
9.3212e-34
9.27324e-34
9.13399e-34
8.95083e-34
8.70934e-34
8.51107e-34
8.32658e-34
8.21283e-34
8.17639e-34
8.21218e-34
8.34319e-34
8.52469e-34
8.75226e-34
8.96761e-34
9.26101e-34
9.59956e-34
9.91553e-34
1.02277e-33
1.05508e-33
1.08334e-33
1.1029e-33
1.11343e-33
1.11992e-33
1.11719e-33
1.11794e-33
1.12584e-33
1.13242e-33
1.13997e-33
1.15142e-33
1.16929e-33
1.18904e-33
1.21273e-33
1.2338e-33
1.25336e-33
1.27442e-33
1.28909e-33
1.30226e-33
1.31129e-33
1.3198e-33
1.32655e-33
1.33012e-33
1.33428e-33
1.33002e-33
1.32023e-33
1.30265e-33
1.29256e-33
1.28243e-33
1.27686e-33
1.27203e-33
1.26881e-33
1.26428e-33
1.25465e-33
1.24139e-33
1.22123e-33
1.19759e-33
1.16841e-33
1.13559e-33
1.09923e-33
1.06302e-33
1.02569e-33
9.88544e-34
9.56946e-34
9.06336e-34
8.66668e-34
8.32062e-34
7.96515e-34
7.64353e-34
7.47802e-34
7.38022e-34
7.26738e-34
7.19779e-34
7.15923e-34
7.13384e-34
7.12444e-34
7.09528e-34
7.09528e-34
7.12444e-34
7.1376e-34
7.14324e-34
7.08682e-34
6.96645e-34
6.75768e-34
6.58935e-34
6.41548e-34
6.26303e-34
6.1389e-34
6.07119e-34
6.01289e-34
5.92838e-34
5.8549e-34
5.79284e-34
5.75898e-34
5.73077e-34
5.66988e-34
5.60452e-34
5.52659e-34
5.42716e-34
5.33745e-34
5.236e-34
5.1181e-34
5.04428e-34
4.99538e-34
4.9051e-34
4.82987e-34
4.73959e-34
4.63427e-34
4.40857e-34
4.21297e-34
4.07755e-34
3.97223e-34
3.91769e-34
3.90623e-34
3.92991e-34
3.95718e-34
4.00232e-34
4.03712e-34
4.00232e-34
4.00608e-34
4.00814e-34
4.04632e-34
4.09002e-34
4.22019e-34
4.2186e-34
4.5133e-34
4.61582e-34
4.9031e-34
5.31004e-34
5.00217e-34
6.551e-34
4.52471e-34
8.40525e-34
3.79544e-34
9.29863e-34
5.62333e-34
4.37848e-34
1.59924e-33
-1.19769e-33
3.68635e-33
-3.0213e-33
3.81123e-33
9.16321e-34
-7.00665e-33
1.87387e-32
-2.69028e-32
2.06936e-32
2.44887e-32
-1.24023e-31
2.85737e-31
-4.02036e-31
3.21569e-31
2.84266e-31
-1.67797e-30
3.61933e-30
-5.42228e-30
4.75217e-30
9.37528e-31
-1.31125e-29
3.11443e-29
-4.49365e-29
4.12458e-29
-3.0402e-30
-8.05128e-29
1.84012e-28
-2.63962e-28
2.33879e-28
-1.5006e-29
-3.7603e-28
8.55883e-28
-1.13669e-27
9.06807e-28
-7.38123e-30
-1.54454e-27
3.07224e-27
-3.72469e-27
2.66562e-27
6.07214e-28
-5.00305e-27
8.83973e-27
-9.64599e-27
5.36223e-27
3.11257e-27
-1.34713e-26
2.04689e-26
-1.8974e-26
8.0099e-27
1.08283e-26
-2.90654e-26
3.73053e-26
-3.01209e-26
5.77823e-27
2.53038e-26
-4.98693e-26
5.58149e-26
-3.51573e-26
-3.03562e-27
4.44218e-26
-7.01361e-26
6.4621e-26
-3.15721e-26
-1.79415e-26
6.12864e-26
-7.71025e-26
6.12863e-26
-1.79412e-26
-3.15724e-26
6.46211e-26
-7.01361e-26
4.44216e-26
-3.0354e-27
-3.51575e-26
5.5815e-26
-4.98692e-26
2.53037e-26
5.77839e-27
-3.0121e-26
3.73053e-26
-2.90653e-26
1.08282e-26
8.01e-27
-1.8974e-26
2.04689e-26
-1.34713e-26
3.11252e-27
5.36227e-27
-9.64601e-27
8.83973e-27
-5.00304e-27
6.07197e-28
2.66563e-27
-3.72469e-27
3.07224e-27
-1.54453e-27
-7.3857e-30
9.06809e-28
-1.13669e-27
8.55882e-28
-3.76029e-28
-1.50071e-29
2.33879e-28
-2.63962e-28
1.84011e-28
-8.0513e-29
-3.04077e-30
4.12453e-29
-4.49369e-29
3.11437e-29
-1.31131e-29
9.36917e-31
4.75151e-30
-5.42288e-30
3.61868e-30
-1.67861e-30
2.83633e-31
3.20922e-31
-4.02674e-31
2.85081e-31
-1.2468e-31
2.38138e-32
2.00056e-32
-2.75982e-32
1.8033e-32
-7.70823e-33
2.18924e-34
3.11158e-33
-3.74202e-33
2.94955e-33
-1.95903e-33
8.26043e-34
-3.51708e-34
-2.25921e-34
1.5761e-34
-3.61112e-34
1.34665e-34
-2.12153e-34
3.34781e-35
-8.42594e-35
-1.80556e-35
-2.30867e-35
-1.57986e-35
5.64237e-36
4.5139e-36
2.70834e-35
3.23496e-35
3.94966e-35
4.40105e-35
4.89006e-35
4.87125e-35
5.34145e-35
5.19098e-35
5.39787e-35
5.00761e-35
5.04052e-35
5.19098e-35
4.84069e-35
4.81482e-35
4.81953e-35
4.43867e-35
4.17536e-35
3.41364e-35
2.52026e-35
1.57105e-35
5.95976e-36
-4.23178e-37
-9.21588e-36
-1.74914e-35
-3.0845e-35
-5.35085e-35
-6.92131e-35
-9.25349e-35
-1.07581e-34
-1.23544e-34
-1.33912e-34
-1.45197e-34
-1.57234e-34
-1.67014e-34
-1.74537e-34
-1.76606e-34
-1.81843e-34
-1.83189e-34
-1.77547e-34
-1.70024e-34
-1.58739e-34
-1.41435e-34
-1.2338e-34
-1.05136e-34
-8.72687e-35
-6.92131e-35
-4.80542e-35
-2.8588e-35
-9.19237e-36
5.26621e-36
2.05006e-35
3.39483e-35
3.84622e-35
4.06457e-35
3.61318e-35
1.9932e-35
4.18439e-36
-1.17807e-35
-2.43043e-35
-4.10775e-35
-5.29578e-35
-6.59265e-35
-7.62863e-35
-8.54044e-35
-9.22552e-35
-1.00794e-34
-1.06767e-34
-1.11295e-34
-1.14224e-34
-1.143e-34
-1.0598e-34
-1.00223e-34
-9.46508e-35
-8.76919e-35
-7.73945e-35
-7.07177e-35
-6.24423e-35
-5.26621e-35
-5.34145e-35
-6.01853e-35
-7.3727e-35
-8.72687e-35
-1.13036e-34
-1.30903e-34
-1.47642e-34
-1.58739e-34
-1.70776e-34
-1.79804e-34
-1.89108e-34
-2.05382e-34
-2.24943e-34
-2.45443e-34
-2.67072e-34
-2.88295e-34
-3.07697e-34
-3.22368e-34
-3.38354e-34
-3.53589e-34
-3.5872e-34
-3.61503e-34
-3.59032e-34
-3.52127e-34
-3.42221e-34
-3.30673e-34
-3.17449e-34
-3.01277e-34
-2.89289e-34
-2.72099e-34
-2.56884e-34
-2.41806e-34
-2.27376e-34
-2.1508e-34
-1.95779e-34
-1.77171e-34
-1.55729e-34
-1.29398e-34
-9.93058e-35
-7.52316e-35
-4.81482e-35
-1.50463e-35
1.6739e-35
3.91205e-35
5.26621e-35
6.69562e-35
7.3727e-35
7.3727e-35
6.68621e-35
5.4731e-35
3.91675e-35
2.42034e-35
1.29363e-35
-2.01597e-36
-1.74267e-35
-3.39953e-35
-5.55774e-35
-7.00595e-35
-8.87733e-35
-9.62965e-35
-9.47919e-35
-9.32872e-35
-8.65164e-35
-7.89932e-35
-6.87429e-35
-5.23213e-35
-3.61112e-35
-9.0278e-36
2.10649e-35
5.26621e-35
8.27548e-35
1.06829e-34
1.24132e-34
1.4294e-34
1.61442e-34
1.88079e-34
2.09144e-34
2.30961e-34
2.45255e-34
2.56634e-34
2.63875e-34
2.65262e-34
2.5835e-34
2.52026e-34
2.40177e-34
2.25695e-34
2.0557e-34
1.89584e-34
1.79051e-34
1.70635e-34
1.6551e-34
1.65698e-34
1.68519e-34
1.70024e-34
1.72563e-34
1.7529e-34
1.80721e-34
1.83395e-34
1.913e-34
1.95255e-34
1.97172e-34
1.97342e-34
1.9579e-34
1.94662e-34
1.88079e-34
1.81308e-34
1.70776e-34
1.57986e-34
1.51686e-34
1.45855e-34
1.38332e-34
1.34882e-34
1.34782e-34
1.36922e-34
1.48018e-34
1.64005e-34
1.80556e-34
2.0463e-34
2.25131e-34
2.49769e-34
2.75348e-34
3.01397e-34
3.26693e-34
3.43244e-34
3.54658e-34
3.54744e-34
3.52131e-34
3.47605e-34
3.39201e-34
3.2707e-34
3.11083e-34
2.91899e-34
2.61806e-34
2.36227e-34
2.05194e-34
1.77171e-34
1.54977e-34
1.37121e-34
1.22628e-34
1.12095e-34
1.10402e-34
1.08334e-34
1.20371e-34
1.34288e-34
1.52062e-34
1.74185e-34
1.95032e-34
2.22165e-34
2.42381e-34
2.61009e-34
2.74922e-34
2.78676e-34
2.76428e-34
2.69494e-34
2.51916e-34
2.40634e-34
2.21616e-34
2.03764e-34
1.8481e-34
1.65348e-34
1.4942e-34
1.27301e-34
1.112e-34
9.54861e-35
7.94752e-35
6.78613e-35
5.80224e-35
5.15337e-35
4.57032e-35
4.21297e-35
4.81482e-35
7.22224e-35
9.0278e-35
1.14352e-34
1.45949e-34
1.74537e-34
2.06135e-34
2.31713e-34
2.51368e-34
2.58421e-34
2.60419e-34
2.51186e-34
2.44407e-34
2.35017e-34
2.28352e-34
2.19864e-34
2.10272e-34
2.00116e-34
1.84882e-34
1.7134e-34
1.56482e-34
1.3316e-34
1.16609e-34
9.78011e-35
8.03098e-35
6.54515e-35
4.66436e-35
3.01397e-35
1.33536e-35
-4.5139e-36
-1.35417e-35
-2.55788e-35
-3.91205e-35
-4.39165e-35
-5.92449e-35
-6.51224e-35
-7.43853e-35
-8.60462e-35
-8.40714e-35
-9.62965e-35
-8.57641e-35
-9.24673e-35
-9.17826e-35
-4.96529e-35
-8.68925e-35
-2.63311e-35
-3.61112e-35
-6.62979e-35
5.56714e-35
-1.03067e-34
5.26621e-35
2.10649e-35
-1.13224e-34
2.42246e-34
-1.65698e-34
1.68519e-34
2.07639e-34
-2.50521e-34
6.56396e-34
-2.55035e-34
3.62616e-34
6.77502e-34
-3.83681e-34
1.53463e-33
2.31337e-35
1.04271e-33
1.95607e-33
2.72339e-34
3.22443e-33
1.39404e-33
2.18172e-33
2.81592e-33
)
;

boundaryField
{
    left
    {
        type            calculated;
        value           uniform 0;
    }
    right
    {
        type            calculated;
        value           uniform 0;
    }
    empty
    {
        type            empty;
        value           nonuniform 0();
    }
}


// ************************************************************************* //
