/*--------------------------------*- C++ -*----------------------------------*\
| =========                 |                                                 |
| \\      /  F ield         | OpenFOAM: The Open Source CFD Toolbox           |
|  \\    /   O peration     | Version:  2106                                  |
|   \\  /    A nd           | Website:  www.openfoam.com                      |
|    \\/     M anipulation  |                                                 |
\*---------------------------------------------------------------------------*/
FoamFile
{
    version     2.0;
    format      ascii;
    arch        "LSB;label=32;scalar=64";
    class       volScalarField;
    location    "0.265";
    object      p;
}
// * * * * * * * * * * * * * * * * * * * * * * * * * * * * * * * * * * * * * //

dimensions      [0 2 -2 0 0 0 0];

internalField   nonuniform List<scalar> 
11200
(
150.289681038
147.361078953
146.247226986
145.719894
145.352562006
145.057780879
144.796133899
144.547591836
144.303069405
144.057996919
143.809677194
143.556355511
143.296799835
143.030074563
142.755412814
142.472141166
142.179633807
141.877284762
141.564495243
141.240677127
140.905206653
140.55743482
140.196703309
139.822344281
139.433672174
139.029985691
138.610568632
138.174690575
137.721607611
137.250562978
136.760787634
136.251500768
135.721909932
135.171211246
134.598590079
134.003222218
133.384273715
132.740901094
132.072251767
131.377464454
130.655669501
129.905989088
129.127537422
128.319420824
127.48073767
126.610578162
125.708023872
124.772146992
123.802009241
122.796660294
121.755135655
120.676453811
119.559612505
118.403583927
117.207308553
115.969687305
114.689571624
113.365750963
111.996937002
110.581743781
109.118662679
107.606030832
106.041990849
104.424442105
102.750974613
101.01878319
99.2245573855
97.3643371748
95.4333184281
93.42558641
91.3337519849
89.1484555279
86.8574987541
84.4446952573
81.8879594148
79.1556317596
76.2001134341
72.9488306567
69.2480687617
64.4847822698
148.496639305
147.138464829
146.347492218
145.847476135
145.456485608
145.13260029
144.848075887
144.583469886
144.327977761
144.075451072
143.822062473
143.565298341
143.303421604
143.035155769
142.759500387
142.475620629
142.182779098
141.880292985
141.56750386
141.243749868
140.908380842
140.560721302
140.20012756
139.825931486
139.43743709
139.03393735
138.614713232
138.179032487
137.726149916
137.255307772
136.765736025
136.256652298
135.727262281
135.176765744
134.604350007
134.00919087
133.390454116
132.747296223
132.07886462
131.384298103
130.66272716
129.913274189
129.135053714
128.327172489
127.488729459
126.618815566
125.716513333
124.780896165
123.811027305
122.805958335
121.764727142
120.686355175
119.569843862
118.414169971
117.218279661
115.981080914
114.701433933
113.378139047
112.009921434
110.595412033
109.13312371
107.621421229
106.058480872
104.442239734
102.77033017
101.040011389
99.2480679129
97.3906623817
95.4631554236
93.4598623338
91.3737142761
89.1957549805
86.9144367976
84.5146239141
81.9759211544
79.2698202066
76.3555227797
73.1751941913
69.626042627
65.5131997111
147.501449117
146.847248315
146.294891453
145.857271953
145.485645887
145.163541405
144.874438318
144.604200728
144.343733597
144.087248029
143.830859003
143.571884787
143.308413306
143.039017567
142.762576478
142.478161409
142.184962728
141.882241855
141.569300506
141.24546184
140.910063801
140.562466829
140.201926922
139.827790431
139.439365274
139.035941869
138.616798881
138.181202976
137.728408653
137.257658394
136.768183039
136.259202482
135.729925806
135.179545605
134.607244109
134.012199499
133.393578704
132.75053872
132.082227828
131.387785658
130.666343554
129.917024844
129.138945153
128.331212534
127.492927506
126.623182923
125.721063637
124.785645907
123.815996465
122.811171186
121.770213233
120.692150522
119.57599239
118.420725282
117.225307187
115.988660538
114.709663236
113.387137451
112.019835333
110.606421014
109.145447474
107.635327844
106.074298241
104.460389726
102.791365014
101.064630522
99.2771445436
97.425308547
95.5048084669
93.5104058057
91.4356510061
89.2724813158
87.010801904
84.6376970606
82.1364458822
79.4851881164
76.6559498893
73.617115083
70.332704623
66.7796946977
146.951687967
146.588306234
146.188407052
145.819414772
145.481795575
145.173689991
144.8883229
144.617614621
144.355237761
144.09656532
143.838179241
143.577547952
143.312771595
143.042382878
142.765205711
142.480257564
142.186682122
141.883703201
141.570593686
141.246653674
140.911192252
140.563519274
140.202993546
139.828891928
139.440503711
139.037121189
138.618022781
138.182473919
137.729727978
137.259026429
136.769598943
136.260663613
135.731427788
135.181089785
134.608839456
134.013851275
133.395293146
132.752322816
132.084087586
131.389727545
130.66837484
129.919153808
129.141181518
128.333567888
127.49541577
126.625820918
125.723871756
124.788648916
123.819224485
122.814660829
121.774008941
120.696306294
119.580573935
118.425812644
117.230998044
115.995074421
114.716946773
113.395470524
112.029438748
110.617565872
109.15847035
107.650654864
106.092458152
104.48202124
102.817242591
101.095723472
99.3146886092
97.4708860054
95.5604626862
93.5788088649
91.5203676368
89.3784096465
87.1447033541
84.8092070123
82.3598317732
79.7824794453
77.0624046253
74.1898998592
71.1685627586
68.0355714137
146.617640073
146.385844199
146.08443063
145.773451678
145.468609568
145.176582906
144.897603445
144.62847293
144.36550774
144.10541772
143.845442438
143.583344454
143.317331227
143.045953666
142.768015067
142.482498456
142.188511205
141.885244115
141.571941886
141.247881934
140.912359402
140.564677991
140.204141371
139.83003896
139.441673618
139.03832902
138.619278354
138.183784639
137.731099906
137.260465067
136.771109884
136.262253122
135.733102634
135.182855084
134.610696566
134.015803387
133.397341014
132.754467388
132.08633313
131.392078766
130.670838934
129.921740296
129.143902366
128.336437846
127.498452853
126.629047001
125.727313338
124.792338088
123.823200071
122.818969921
121.778709159
120.701467899
119.586282568
118.432172728
117.238136844
116.00314658
114.726139173
113.406011065
112.041604702
110.631700359
109.174995636
107.670078342
106.115411689
104.509301015
102.849852693
101.134924859
99.3620700516
97.5284663907
95.6308344286
93.6653400734
91.6274866946
89.5120097939
87.3128010528
85.0229419126
82.63501173
80.1420014
77.5397145746
74.8325932302
72.04199743
69.2186232677
146.414247638
146.238345205
145.997149329
145.729821758
145.452632315
145.175990881
144.904297403
144.637791351
144.375021171
144.114006777
143.85271325
143.589273523
143.322062122
143.049688206
142.770958874
142.484836429
142.190398833
141.886806702
141.573277318
141.249064906
140.913446091
140.565709016
140.205144295
139.831042209
139.442692193
139.0393735
138.620356668
138.184902671
137.732262038
137.261674431
136.772368621
136.263562539
135.734463472
135.184268213
134.612163492
134.017326637
133.398926179
132.756121868
132.088064996
131.393899935
130.672762187
129.923779139
129.146072392
128.338757218
127.500943145
126.631734338
125.730229483
124.795521699
123.826698332
122.82284034
121.783021076
120.706305452
119.591747937
118.438390086
117.245257396
116.011355623
114.73566669
113.417138058
112.054678919
110.647140433
109.193306369
107.691884088
106.141490205
104.540608682
102.887572453
101.180531714
99.417415662
97.5958907192
95.7133170741
93.7667090719
91.7527107009
89.66761047
87.5074422623
85.2682650311
82.9467940849
80.5416780295
78.0559848911
75.5018694163
72.9062806206
70.3163166691
146.291130904
146.135522932
145.9292201
145.692656397
145.437179093
145.173897004
144.909280693
144.645768498
144.383631186
144.122040916
143.859663652
143.59502288
143.326688822
143.053352931
142.773843034
142.487111559
142.192213585
141.888283295
141.574512686
141.250133868
140.914405036
140.56659978
140.205999282
139.831886009
139.443541109
139.040238864
138.621246959
138.185824185
137.733219556
137.262671875
136.773409525
136.264650411
135.735602073
135.185462044
134.613418262
134.018648958
133.400323083
132.757601208
132.089635529
131.395569624
130.674538902
129.925674577
129.148102664
128.340942743
127.50330912
126.634311247
125.733054194
124.798638886
123.830162112
122.826716288
121.787388867
120.711262125
119.597411736
118.444905092
117.252798997
116.020136288
114.745941416
113.429219139
112.068944592
110.66405693
109.213455266
107.715979715
106.170401148
104.575407045
102.929585662
101.231407823
99.4792092622
97.6711762689
95.8053392689
93.8795839732
91.8916962736
89.8394703
87.7209269566
85.5347339247
83.2809603523
80.9623643299
78.5864955403
76.1689535841
73.736615929
71.328840735
146.217051273
146.06704085
145.88028433
145.664177582
145.424469712
145.171646241
144.913006494
144.652265251
144.390895077
144.128969571
143.865747867
143.600106529
143.330805039
143.056622154
142.776414363
142.489131823
142.193813048
141.88957072
141.575575305
141.251039646
140.915205784
140.56733439
140.206696529
139.832566647
139.444221031
139.040928979
138.621955418
138.186557095
137.733981667
137.263467138
136.774241498
136.265522585
135.736518116
135.186425871
134.61443395
134.019721068
133.401457009
132.758802808
132.090911632
131.396929971
130.675999426
129.927253326
129.149818387
128.342817697
127.505370275
126.636591436
125.73559336
124.801485553
123.833375195
122.830367471
121.79156582
120.716071244
119.602982131
118.451393589
117.260396398
116.02907564
114.756508727
113.441761929
112.083887062
110.681916063
109.23485758
107.741691985
106.201364852
104.612779362
102.974791158
101.286204861
99.5457750307
97.7522158516
95.9042260167
94.0005407455
92.040027907
90.0218576959
87.9457847091
85.8126216985
83.6249826465
81.3884017201
79.1129164256
76.8151331858
74.5197343995
72.2587302155
146.174774933
146.025326989
145.848910641
145.645171306
145.41563716
145.169926955
144.915564767
144.656923788
144.396213998
144.134116369
143.870314995
143.603952002
143.333935857
143.059117907
142.778381414
142.490678192
142.195036211
141.890552948
141.57638307
141.251725023
140.915808657
140.567884755
140.207216673
139.833073831
139.444725066
139.041439675
138.622479483
138.187099499
137.73454641
137.264057662
136.774860977
136.26617419
135.737205232
135.187152266
134.615203959
134.020539843
133.402330801
132.759739643
132.091921927
131.398026245
130.677192957
129.928559036
129.15125623
128.34441201
127.507150458
126.638593098
125.737859691
124.804068989
123.836339439
122.833789819
121.79553981
120.720710523
119.608424889
118.457807842
117.267986328
116.038089028
114.76724581
113.454587607
112.099246078
110.70035222
109.257034654
107.768419718
106.233631581
104.651793483
103.02203235
101.343487837
99.6153293847
97.8367858032
96.0071942122
94.1260819104
92.1932943083
90.2091983409
88.1749896164
86.0931600429
83.9681566579
81.8072757764
79.6217690983
77.4280502303
75.2481663404
73.1082994799
146.155498496
146.00562039
145.833656724
145.635720221
145.411157515
145.169036723
144.9168995
144.659388108
144.399058103
144.136893601
143.872799325
143.606059527
143.335664605
143.060507077
142.779486283
142.491556035
142.195739288
141.891125673
141.576861509
141.252137544
140.916177066
140.568225521
140.207542021
139.833392685
139.445045006
139.041765562
138.622815242
138.18744834
137.73491112
137.264440911
136.775265418
136.266602678
135.737660995
135.18763908
134.61572634
134.021103264
133.402941905
132.760406393
132.092653438
131.398832996
130.678089861
129.929563384
129.152388598
128.345697276
127.50861885
126.640281346
125.739812404
124.806340318
123.838995116
122.836909664
121.799220784
120.725070373
119.613606558
118.46398488
117.275369534
116.04693469
114.777865864
113.467360829
112.114632192
110.718910989
109.279445404
107.795508779
106.266404695
104.69147531
103.07011474
101.401788749
99.6860646894
97.9226559899
96.1114879717
94.252798176
92.3472791124
90.3962999522
88.4022018437
86.368738728
84.3016188371
82.2091881911
80.1031719141
77.9993265906
75.9173454204
73.8791563572
146.15550106
146.005636431
145.833683708
145.635756432
145.411202183
145.16908901
144.916958483
144.65945296
144.399128124
144.136968216
143.872878072
143.606142046
143.335750633
143.060596429
142.779578848
142.491651768
142.195838194
141.891227808
141.576966983
141.252246518
140.916289764
140.568342244
140.207663163
139.833518758
139.445176702
139.041903612
138.622960565
138.187602074
137.735074656
137.264615795
136.775453668
136.26680675
135.737883865
135.187884356
134.615998392
134.021407377
133.403284456
132.760795124
132.09309792
131.399345165
130.678683742
129.930256
129.153200713
128.346654141
127.50975113
126.641626276
125.741415193
124.808255852
123.841290026
122.839664831
121.802534377
120.729061544
119.618419924
118.469795956
117.282391282
116.055425395
114.788138659
113.479795356
112.12968965
110.737151924
109.301548603
107.822297648
106.298878018
104.730843839
103.11784508
101.459654166
99.7562037171
98.0076433674
96.2144191886
94.3773822929
92.4979676315
90.5784641272
88.621989129
86.6331679101
84.618516729
82.5869379867
80.5502191587
78.5233801539
76.5243265094
74.5721545655
146.17478268
146.025375485
145.848992196
145.645280684
145.415772017
145.170084583
144.915742357
144.657118875
144.396424501
144.134340569
143.870551513
143.604199773
143.334194093
143.059386066
142.778659165
142.490965396
142.195332895
141.890859291
141.576699398
141.252051821
140.916146597
140.568234728
140.207579826
139.833451717
139.445119659
139.041853161
138.622914575
138.187559513
137.735035381
137.264580471
136.775423588
136.266783847
135.737870738
135.187884333
134.616015633
134.021447017
133.403352801
132.760899878
132.093248461
131.399552879
130.678962467
129.930622586
129.153675665
128.347262376
127.51052291
126.642598354
125.742632191
124.80977194
123.843170951
122.841990381
121.80540136
120.732587403
119.622747121
118.475097265
117.288876232
116.063348075
114.797807213
113.491583581
112.144048766
110.754625694
109.322802783
107.848132251
106.330257885
104.768931467
103.164038251
101.515634638
99.8240103976
98.0897462069
96.313728811
94.4973351245
92.6425364746
90.7520292988
88.8297868282
86.8810649224
84.9128557074
82.9343134844
80.957112844
78.9956604308
77.0666760046
75.1876033056
146.217064388
146.067122923
145.880422106
145.664361966
145.424696594
145.171910937
144.913304233
144.652591892
144.391247149
144.129344218
143.866142811
143.600520015
143.331235774
143.057069249
142.776877284
142.489610352
142.194307243
141.890080892
141.576102005
141.251583688
140.915768309
140.567916883
140.207300813
139.833195358
139.444877045
139.041616061
138.622678071
138.187320762
137.734792973
137.264334131
136.77517395
136.266532351
135.737619587
135.187636512
134.61577498
134.021218347
133.403142078
132.760714433
132.093097247
131.399446809
130.678914844
129.930649595
129.153796995
128.347501975
127.51090989
126.643168079
125.743427607
124.810845182
123.844585296
122.843822606
121.807744593
120.735554582
119.626475169
118.479752132
117.294658979
116.070502185
114.806627387
113.502426632
112.157346517
110.770899717
109.342676235
107.872364473
106.359764301
104.804815774
103.207633666
101.568529419
99.888055223
98.1670747958
96.4069105874
94.6093749619
92.7769219294
90.9128133597
89.021357728
87.1081571952
85.1804309026
83.2473514233
81.3203604558
79.4134057789
77.5426220402
75.7249268141
146.291149759
146.135640725
145.929417168
145.692919185
145.437501405
145.174271964
144.909701448
144.646229185
144.384126936
144.12256776
143.860218441
143.595603199
143.327292897
143.053979546
142.774491466
142.487781511
142.192905138
141.888996869
141.575249025
141.250894067
140.915190629
140.567412849
140.206842469
139.832762728
139.444455386
139.041195799
138.622252729
138.186886247
137.734346972
137.263875686
136.774703168
136.266050235
135.737127948
135.187137954
134.615272939
134.020717186
133.402647236
132.760232644
132.092636807
131.399017899
130.678529905
129.930323772
129.153548714
128.347353641
127.510888734
126.643307191
125.74376718
124.81143402
123.845482637
122.845100318
121.809489835
120.737873024
119.629494872
118.48362825
117.299579391
116.076694274
114.81436612
113.512044399
112.169245404
110.785564325
109.360691484
107.894431132
106.38672199
104.837663784
103.247547934
101.616916037
99.9466017536
98.237787516
96.4920845328
94.7116349144
92.8992369293
91.0584905345
89.1939769832
87.3114702765
85.4181997735
83.523149298
81.637398657
79.7745180811
77.9505198376
76.1828159916
146.414272894
146.238502416
145.99741088
145.730168722
145.453055924
145.176481757
144.904846465
144.638390977
144.375665119
144.114690007
143.853431794
143.590024356
143.322843031
143.050497683
142.771796021
142.485700865
142.191290617
141.88772626
141.574225397
141.250042563
140.914454655
140.566750412
140.206222992
139.832164058
139.443861791
139.040596604
138.621640688
138.18625667
137.733697072
137.263204097
136.774009627
136.265335381
135.736393226
135.18638559
134.614505973
134.019939519
133.401863697
132.759449174
132.091860712
131.398258183
130.677797667
129.929632662
129.152915441
128.346798578
127.510436658
126.642988196
125.743617796
124.811498579
123.845814926
122.845765573
121.810567119
120.73945813
119.631703802
118.486601401
117.303486587
116.081740867
114.820800328
113.520165854
112.179415239
110.798217775
109.376351306
107.913722872
106.410393922
104.866610917
103.282840399
101.659810701
99.99856496
98.3005248894
96.5675652221
94.8020988613
93.0071807
91.1866280305
89.3451642946
87.4885798212
85.6239356374
83.7598249997
81.9067619911
80.077827402
78.289053109
76.5591149692
146.617672418
146.386045691
146.084763146
145.773889817
145.469141303
145.177195933
144.89828631
144.629216251
144.366303969
144.106260842
143.846327765
143.584268451
143.318291354
143.046948254
142.769043208
142.483559907
142.189606259
141.886373436
141.57310631
141.249082513
140.913597682
140.565955113
140.205459371
139.831411209
139.443104057
139.039823397
138.62084487
138.18543357
137.732843816
137.262319136
136.773092416
136.264386193
135.735413076
135.185376228
134.613469921
134.018880182
133.400785488
132.758357601
132.090762478
131.39716131
130.676711746
129.92856932
129.151888892
128.345826224
127.509539804
126.642192881
125.742955773
124.81100848
123.845543665
122.845770121
121.810916609
120.740236404
119.633012457
118.48856347
117.306250966
116.085487452
114.825745363
113.52656977
112.187591618
110.808543454
109.38927847
107.929793073
106.430253468
104.891027311
103.31272107
101.696224284
100.042760226
98.353945306
96.6318583353
94.8791169789
93.0989628165
91.295353491
89.4730630209
87.6377880019
85.7962795711
83.956531315
82.1281638981
80.3233311805
78.5575487631
76.850672184
146.951727429
146.588555682
146.188813045
145.819944471
145.482433
145.174419434
144.889130424
144.61848914
144.356170516
144.097549429
143.839209409
143.578620251
143.313883295
143.043532334
142.766392315
142.481481745
142.187945359
141.885007954
141.571942919
141.248051238
140.912647245
140.565047367
140.204567565
139.830515168
139.442189998
139.038881833
138.619869414
138.184420122
137.731789823
137.261223095
136.771953625
136.263204606
135.734189147
135.184110824
134.612164342
134.017536353
133.399406262
132.756946819
132.089325145
131.395704084
130.675243312
129.927099926
129.150430926
128.344394705
127.508152896
126.640872557
125.741728649
124.809906846
123.844606751
122.845045558
121.810461806
120.740120752
119.633319845
118.489395241
117.30772943
116.087760311
114.828992423
113.531007962
112.193481639
110.816198211
109.399072709
107.942174229
106.445753922
104.910277854
103.336465172
101.725332524
100.078244676
98.3969715327
96.6837507676
94.9413545312
93.1731584607
91.3832090179
89.5762822796
87.7579293394
85.9345140909
84.113252953
82.3024473168
80.5124769309
78.7565556294
77.053333427
147.501500529
146.847559881
146.295380943
145.857898541
145.486389911
145.164383876
144.875363081
144.605195233
144.344788028
144.088354683
143.832011909
143.573079392
143.309646227
143.040286394
142.763879668
142.479498329
142.186334005
141.883650238
141.57075113
141.246961244
140.911612477
140.564034582
140.203548631
139.829474422
139.441116528
139.037767972
138.618710038
138.183211961
137.730531091
137.259912988
136.770592068
136.261792146
135.732726908
135.182600484
134.610608077
134.015936481
133.397764234
132.755265322
132.087607822
131.39395511
130.673467408
129.925303992
129.14862378
128.342587292
127.50635873
126.639108249
125.740014522
124.808267636
123.843072405
122.843652234
121.809253944
120.739152328
119.632656265
118.489115664
117.307929515
116.08855516
114.830519267
113.533432307
112.197002583
110.821054546
109.405550137
107.950613758
106.456561406
104.923934426
103.353538273
101.746486672
100.104251192
98.4287155608
96.7222330108
94.9876893464
93.2285579396
91.4489486662
89.6536343024
87.8480434768
86.0381930563
84.2304703087
82.4315346566
80.6489430834
78.8898064735
77.1628115018
148.496738104
147.138921819
146.348174176
145.848330256
145.457488791
145.13373176
144.849318647
144.584810862
144.329406748
144.076960024
143.823645029
143.566949414
143.305136964
143.036931636
142.761333023
142.477505949
142.184712148
141.88226711
141.569513617
141.245803031
140.910475854
140.562882652
140.202371493
139.828259011
139.439853546
139.036451494
138.617335786
138.181774639
137.729027066
137.258340168
136.768948973
136.260077628
135.730940097
135.180740795
134.608675304
134.013931332
133.395690211
132.753124968
132.085403757
131.391690839
130.671147587
129.922933814
129.146209458
128.340136438
127.503880672
126.636614398
125.737518804
124.805787056
123.840627772
122.841268905
121.806962369
120.736989275
119.630666182
118.487352257
117.306457704
116.087453749
114.829884351
113.533378389
112.197666983
110.822601892
109.408177273
107.954555178
106.462095164
104.931388464
103.363297097
101.758998222
100.120033354
98.4483602448
96.7464056895
95.0171439509
93.2641227748
91.4915103777
89.7041115375
87.9073435453
86.1071033276
84.3092571619
82.5193340327
80.7420954471
78.9723428474
77.1805486524
150.289846598
147.361748392
146.248219535
145.721147502
145.354046246
145.05947124
144.798011803
144.549643724
144.30528538
144.060369932
143.812202539
143.559030508
143.299623713
143.033048492
142.758540016
142.475426962
142.183085526
141.880911085
141.568301095
141.244648104
140.909346823
140.561757422
140.201210985
139.827042304
139.438569256
139.035092658
138.615898701
138.180262365
137.727441363
137.256681278
136.767217167
136.258273331
135.729063803
135.178793041
134.60665662
134.011841954
133.393529238
132.7508925
132.083100538
131.389317957
130.668706522
129.920426669
129.143639055
128.337506394
127.501195546
126.633879859
125.734741857
124.802976295
123.837793681
122.838424258
121.804122718
120.734173548
119.627897312
118.484657955
117.30387134
116.085015232
114.82764112
113.53138808
112.1959989
110.821339011
109.40741873
107.954419226
106.462722616
104.932946585
103.365983884
101.763046803
100.125716767
98.4560013158
96.756396932
95.0299094377
93.280143903
91.511337338
89.7283788864
87.9367873056
86.1426090684
84.3523424094
82.5724094285
80.807598003
79.0374582066
77.1374949485
57.0903899726
53.5383031942
51.1468699068
49.1895289322
47.5176542509
46.0610800642
44.7758158677
43.6321361406
42.608340108
41.687647575
40.8566168865
40.1042091981
39.4211938026
38.7997496296
38.2331828023
37.7157183752
37.2423412606
36.8086720081
36.4108673536
36.0455395761
35.7096902481
35.4006554422
35.1160600704
34.8537794122
34.6119070221
34.3887272698
34.1826922891
33.9924019904
33.816587006
33.6540938869
33.503872221
33.3649634099
33.2364908392
33.1176509647
33.0077053286
32.9059732886
32.8118245962
32.7246720343
32.6439616951
32.5691719835
32.4998994993
32.4360770576
32.3771823668
32.3227371359
32.2723256798
32.2256385671
32.1824045715
32.1423692511
32.1052974566
32.0709894717
32.0392239479
32.0097971714
31.9825240783
31.9572439187
31.9338003719
31.9120364074
31.8918138557
31.8730066288
31.8554975308
31.8391781559
31.8239494905
31.8097201695
31.7964052747
31.7839262184
31.7722104525
31.7611909989
31.7508060404
31.7409989898
31.7317175308
31.7229135826
31.7145430451
31.7065654738
31.6989437385
31.6916437832
31.6846344653
31.6778871828
31.6713759318
31.6650771166
31.6589687309
31.6530308691
31.6472455943
31.6415960999
31.636067416
31.6306458009
31.6253183639
31.620073159
31.614899671
31.6097876713
31.6047295378
31.5997168389
31.594743071
31.5898011476
31.5848857774
31.5799907083
31.5751288359
31.5702878879
31.5654542662
31.5606249512
31.5558008967
31.5510115654
31.5462156841
31.5414030527
31.5365688741
31.5317095175
31.5268212042
31.5219001304
31.5169427065
31.5119454376
31.5069046517
31.5018168243
31.4966789004
31.4914874901
31.4862389182
31.4809301361
31.4755579151
31.4701198084
31.4646120912
31.4590307583
31.4533749126
31.447641908
31.4418285898
31.4359338452
31.4299549101
31.4238845517
31.4177030908
31.4113277834
31.4045778216
31.3987755323
31.392856828
31.3867215539
31.3805959993
31.3744555296
31.3683701619
31.3624325563
31.3566803558
31.351160411
31.3458839944
31.3408843007
31.3361550838
31.3316364869
31.327596968
31.3234480102
31.3189490615
31.3132644654
31.3043626363
31.2877793861
31.2530496108
31.1787045652
31.0237267773
30.7179846375
30.1566608763
29.2076227459
27.7393943035
25.6604619011
22.9453176068
19.6496561941
15.8906230249
11.6340067864
6.60424973636
1.57050797519
60.2717902242
56.2189388994
53.5069754846
51.3547185378
49.5529605196
48.0032968642
46.6475045591
45.4483279246
44.3795635678
43.4215437886
42.5588952498
41.7792406024
41.072398625
40.4298581813
39.8444164247
39.3099167594
38.821054222
38.3732255954
37.9624130444
37.5850896761
37.2381460025
36.9188259038
36.6246790868
36.3535161598
36.1033764121
35.8724963102
35.6592866949
35.4623103397
35.2802650855
35.1119678138
34.9563414
34.8124033001
34.6792553142
34.5560751652
34.4421091246
34.3366656014
34.2391100854
34.1488620354
34.065391804
33.9882173337
33.916868086
33.8507554578
33.7895475445
33.7329117133
33.680525967
33.6320747024
33.5872584821
33.545798291
33.5074332113
33.4719181146
33.4390331719
33.4085768329
33.3803543336
33.3541878043
33.3299113135
33.3073816799
33.286458806
33.2670118331
33.2489221074
33.232079569
33.2163782391
33.2017199541
33.188015087
33.1751826916
33.1631460536
33.1518359687
33.1411882044
33.1311428491
33.1216467128
33.1126484362
33.1041027341
33.0959673868
33.08820322
33.0807754338
33.0736507261
33.0668001624
33.0601957316
33.0538133719
33.0476298178
33.0416249034
33.0357787038
33.0300749981
33.0244977636
33.0190318135
33.013666152
33.0083855698
33.0031841417
32.9980518559
32.9929803407
32.9879568625
32.9829758396
32.9780293415
32.9731125529
32.9682215719
32.9633302269
32.9584415145
32.953553736
32.9486620933
32.943758906
32.9388394094
32.933905825
32.9289590849
32.9239945929
32.9190093423
32.9140003895
32.9089631634
32.9038952795
32.8987924521
32.8936510912
32.8884688134
32.8832411657
32.8779653398
32.8726379558
32.867254787
32.8618143324
32.8563125313
32.8507470429
32.8451136105
32.8394115562
32.833640817
32.8277985433
32.8218869418
32.8159078016
32.8098585878
32.8037475828
32.7975804204
32.791368736
32.7853155689
32.7790314543
32.772686749
32.7667509673
32.7607961744
32.7549305296
32.749293837
32.7439405136
32.7389348977
32.7342655555
32.7300418003
32.7263304691
32.7230225411
32.7202163884
32.7175802981
32.7147148302
32.7105564271
32.7025312625
32.6852540935
32.6461542567
32.5605070777
32.3821964598
32.0346215536
31.406757273
30.3635002772
28.7766152403
26.5645396322
23.7136578958
20.2840916511
16.390969217
12.0154090511
6.8955282517
1.70479962053
62.4792699997
58.5457794961
55.67866563
53.3948598284
51.493109669
49.8669383205
48.451300899
47.204158981
46.0960604059
45.1051094455
44.2143761519
43.4103759065
42.6821272394
42.0205329748
41.4179555224
40.8679121653
40.3648502659
39.9039762333
39.4811239749
39.0926494274
38.7353490957
38.4063901994
38.1032589114
37.8237122608
37.5657437258
37.3275499028
37.1075065358
36.9041451478
36.7161354406
36.5422689449
36.3814452667
36.2326606042
36.0949972003
35.9676145034
35.8497413867
35.740669273
35.6397456096
35.5463687905
35.4599816563
35.3800701628
35.3061620579
35.2377582465
35.1743342108
35.1156669568
35.0614187121
35.0112458272
34.9648361802
34.9219030062
34.8821815637
34.8454267408
34.8114099913
34.779919638
34.7507563748
34.7237370858
34.698682296
34.6754407539
34.6538677573
34.6338274793
34.6151945142
34.5978468618
34.5816814037
34.5665998704
34.5525100233
34.5393279677
34.5269740376
34.515376278
34.5044681847
34.4941871412
34.4844779685
34.4752872756
34.4665679066
34.4582759971
34.450370712
34.4428158624
34.4355768953
34.428623522
34.4219267083
34.4154613918
34.409203187
34.4031312165
34.3972249188
34.39146709
34.3858408948
34.3803308225
34.3749249817
34.3696063954
34.3643691629
34.3591932707
34.3540780367
34.3490103429
34.3439857869
34.3389933985
34.334029353
34.3290773199
34.3241405532
34.3192173211
34.3143015498
34.3093865757
34.304469066
34.2995460152
34.2946102361
34.2896583026
34.2846850919
34.2796878286
34.2746638349
34.2696083816
34.264518729
34.2593914286
34.254223021
34.2490110108
34.2437517636
34.2384423067
34.2330797549
34.2276605898
34.2221838132
34.2166451464
34.2110431915
34.2053756045
34.1996407908
34.1938398277
34.1879715683
34.182038585
34.1760455836
34.1699949642
34.1638949472
34.1577601893
34.1516002201
34.1454938332
34.1393858236
34.1334918428
34.1273770117
34.1215803459
34.1158974531
34.1105092169
34.105516633
34.1009858768
34.0968452778
34.0933549806
34.0904780553
34.0882538345
34.0866406239
34.0853817046
34.0839531661
34.0810415816
34.0734834806
34.0549245783
34.0106459342
33.9126646014
33.7099657205
33.3199717564
32.6262870303
31.4917916993
29.7919292612
27.4543573378
24.4755857452
20.9183462198
16.894457978
12.3996251681
7.18662058659
1.83695849762
64.2834885148
60.5587603836
57.6548355172
55.2998083662
53.3299600749
51.6459471318
50.1825916605
48.8959877215
47.7548571875
46.7358397188
45.8208893949
44.9956865619
44.2486277073
43.5701518839
42.9522741008
42.3882499631