/*--------------------------------*- C++ -*----------------------------------*\
| =========                 |                                                 |
| \\      /  F ield         | OpenFOAM: The Open Source CFD Toolbox           |
|  \\    /   O peration     | Version:  2106                                  |
|   \\  /    A nd           | Website:  www.openfoam.com                      |
|    \\/     M anipulation  |                                                 |
\*---------------------------------------------------------------------------*/
FoamFile
{
    version     2.0;
    format      ascii;
    arch        "LSB;label=32;scalar=64";
    class       surfaceScalarField;
    location    "0.37";
    object      phi;
}
// * * * * * * * * * * * * * * * * * * * * * * * * * * * * * * * * * * * * * //

dimensions      [0 3 -1 0 0 0 0];

oriented        oriented;

internalField   nonuniform List<scalar> 
22100
(
3.38461205771e-05
1.61538794103e-05
2.24572108444e-05
1.138891037e-05
1.62585544124e-05
6.19865690325e-06
1.27977776681e-05
3.46077705896e-06
1.08046438218e-05
1.99313396564e-06
9.60459067807e-06
1.20005308274e-06
8.85132271759e-06
7.53267758809e-07
8.36435369303e-06
4.86968769267e-07
8.04433565185e-06
3.20017829912e-07
7.83284073845e-06
2.11494778836e-07
7.69339745264e-06
1.39443214185e-07
7.60224037868e-06
9.11570235568e-08
7.54347727819e-06
5.87630025796e-08
7.50633987309e-06
3.71371922323e-08
7.48349971664e-06
2.28397985169e-08
7.46997813172e-06
1.35210702047e-08
7.46241273042e-06
7.5648060508e-09
7.45854396543e-06
3.86814510841e-09
7.45682428057e-06
1.71911814441e-09
7.45641714811e-06
4.06684527449e-10
7.45676656908e-06
-3.49717350431e-10
7.45745243355e-06
-6.86040027011e-10
7.4582104873e-06
-7.58183254225e-10
7.45893549814e-06
-7.25148929644e-10
7.45957952226e-06
-6.44179795169e-10
7.46012320022e-06
-5.43843028601e-10
7.46056511607e-06
-4.42069706197e-10
7.46091373332e-06
-3.48755730602e-10
7.46118197964e-06
-2.68339309086e-10
7.46138395247e-06
-2.01994732739e-10
7.46153304111e-06
-1.49015889605e-10
7.46164094007e-06
-1.07740983841e-10
7.46171730808e-06
-7.61919173207e-11
7.46177025453e-06
-5.2750923766e-11
7.46180373576e-06
-3.32616001351e-11
7.46182269371e-06
-1.87557210807e-11
7.46183186391e-06
-9.03618500072e-12
7.46183472145e-06
-2.77000009907e-12
7.46183322805e-06
1.52772989385e-12
7.4618285632e-06
4.68046164866e-12
7.46182172607e-06
6.88805837752e-12
7.46181336066e-06
8.47695049377e-12
7.46180381264e-06
9.7102493236e-12
7.46179325375e-06
1.08057483427e-11
7.46178164478e-06
1.19083698056e-11
7.46176884535e-06
1.31494725971e-11
7.46175459421e-06
1.4615085143e-11
7.46173853396e-06
1.6386478249e-11
7.46172023992e-06
1.85614930848e-11
7.46169915647e-06
2.12898028765e-11
7.46167471494e-06
2.46305691542e-11
7.461646216e-06
2.86302952264e-11
7.46161289821e-06
3.34211356664e-11
7.46157395458e-06
3.90571959236e-11
7.46152851737e-06
4.55478813825e-11
7.46147583999e-06
5.28508106286e-11
7.46141526275e-06
6.07371521689e-11
7.46134651892e-06
6.88196948436e-11
7.46127060928e-06
7.61814081738e-11
7.46118960397e-06
8.10870149348e-11
7.46111019934e-06
7.96432605866e-11
7.46104418635e-06
6.6101100682e-11
7.46099942552e-06
4.48946330128e-11
7.46099481998e-06
4.36890352567e-12
7.46106707654e-06
-7.20644566853e-11
7.46127387045e-06
-2.07040970578e-10
7.46171000566e-06
-4.36411387327e-10
7.46252557435e-06
-8.15845148617e-10
7.4639558436e-06
-1.43044089891e-09
7.46635623069e-06
-2.40043873671e-09
7.47017597361e-06
-3.81968001815e-09
7.47662642529e-06
-6.45030211576e-09
7.48739822872e-06
-1.07716133004e-08
7.50557329011e-06
-1.81748792175e-08
7.53875744459e-06
-3.31839877475e-08
7.60796787829e-06
-6.92103320736e-08
7.77461812482e-06
-1.66650291755e-07
8.22949690058e-06
-4.54879047273e-07
9.69702376333e-06
-1.46752735572e-06
-5.45102073886e-06
1.51480438771e-05
5.02175952836e-05
1.59362846824e-05
4.42441129065e-05
1.73623935988e-05
3.77795033461e-05
1.26632669444e-05
3.2646146164e-05
8.59413440875e-06
2.89380940812e-05
5.70118591947e-06
2.63596235283e-05
3.77852331679e-06
2.4587518881e-05
2.52537202518e-06
2.33734765979e-05
1.70101071519e-06
2.25435274002e-05
1.14996679934e-06
2.19782186383e-05
7.76803401072e-07
2.15955160574e-05
5.22145670927e-07
2.13387393834e-05
3.47933488952e-07
2.11684976087e-05
2.29004378863e-07
2.10573395572e-05
1.48294592855e-07
2.09861510286e-05
9.40274491283e-08
2.09416779358e-05
5.79931608526e-08
2.09147954039e-05
3.44463400689e-08
2.08992956663e-05
1.93669963344e-08
2.08910714519e-05
9.94263247408e-09
2.08872708299e-05
4.20680340785e-09
2.08862016056e-05
7.19155557852e-10
2.08864471735e-05
-9.31864403984e-10
2.08873184612e-05
-1.6296950276e-09
2.08884577907e-05
-1.86469862318e-09
2.08896309361e-05
-1.81753354117e-09
2.08907137544e-05
-1.62683287285e-09
2.08916512172e-05
-1.37964193396e-09
2.0892428679e-05
-1.12623898688e-09
2.08930539325e-05
-8.93501302151e-10
2.08935461933e-05
-6.94047286758e-10
2.08939302282e-05
-5.32727327885e-10
2.08942320535e-05
-4.09171127745e-10
2.08944433324e-05
-2.87030411516e-10
2.08945906706e-05
-1.99655819871e-10
2.08946913242e-05
-1.33546511705e-10
2.08947569148e-05
-8.40764785205e-11
2.0894797601e-05
-4.95283505018e-11
2.08948216004e-05
-2.66041382793e-11
2.08948337454e-05
-1.04646848693e-11
2.08948369992e-05
1.57115845546e-12
2.08948338435e-05
1.02757153002e-11
2.08948260214e-05
1.67306289383e-11
2.08948146328e-05
2.16682435358e-11
2.08948003654e-05
2.57081637277e-11
2.08947835713e-05
2.93681860166e-11
2.0894764368e-05
3.30229070482e-11
2.08947426624e-05
3.69089878549e-11
2.08947182971e-05
4.12392946867e-11
2.08946911114e-05
4.61972919114e-11
2.08946608107e-05
5.19678128586e-11
2.08946271777e-05
5.85830892433e-11
2.08945901165e-05
6.60225362711e-11
2.08945496487e-05
7.41902338207e-11
2.08945061523e-05
8.2835702829e-11
2.08944604618e-05
9.14585129563e-11
2.08944144541e-05
9.91619731476e-11
2.08943716088e-05
1.04095848659e-10
2.0894337552e-05
1.03125642369e-10
2.08943222219e-05
9.20583140309e-11
2.08943404665e-05
6.30160705444e-11
2.08944197307e-05
5.62933335638e-13
2.08946083108e-05
-1.22526789469e-10
2.089497504e-05
-3.21678337517e-10
2.08956381819e-05
-6.59271109296e-10
2.08967054071e-05
-1.13963355576e-09
2.08983544289e-05
-1.85639944697e-09
2.09009430698e-05
-3.02541673208e-09
2.09050193249e-05
-4.89224305922e-09
2.09114522713e-05
-7.86344980831e-09
2.09216654453e-05
-1.26136020986e-08
2.09381487804e-05
-2.03028831697e-08
2.0965046849e-05
-3.33480788479e-08
2.1009298465e-05
-5.50229107093e-08
2.1084074185e-05
-9.29503643772e-08
2.12152957819e-05
-1.64405598186e-07
2.14558624251e-05
-3.09777252418e-07
2.19136117221e-05
-6.24400106885e-07
2.28004181983e-05
-1.34168632033e-06
2.44440275933e-05
-3.11113770777e-06
-7.03701595114e-06
2.60300215334e-05
5.35171057841e-05
1.24191793558e-05
5.29349695915e-05
1.79445305719e-05
4.96538419141e-05
1.59443950768e-05
4.58401834926e-05
1.24077930093e-05
4.24400944648e-05
9.10127486402e-06
3.97291742929e-05
6.48944323133e-06
3.76873075288e-05
4.56723847995e-06
3.61976644289e-05
3.19065353975e-06
3.51326135849e-05
2.21501743485e-06
3.43823683811e-05
1.52704845741e-06
3.3860627268e-05
1.04388665966e-06
3.35023468305e-05
7.06213719873e-07
3.32596015813e-05
4.71749243154e-07
3.30975907494e-05
3.10304829666e-07
3.29913339833e-05
2.00283419188e-07
3.29230913309e-05
1.2623491708e-07
3.28804025957e-05
7.71341646382e-08
3.28546167625e-05
4.51520309496e-08
3.28397891294e-05
2.47696400051e-08
3.28318622296e-05
1.21332497297e-08
3.28279924945e-05
4.58856835724e-09
3.28269936465e-05
6.67309819125e-11
3.28271742393e-05
-1.81051372327e-09
3.28280224546e-05
-2.71314175423e-09
3.28291380157e-05
-2.9333266844e-09
3.28302850481e-05
-2.77410092834e-09
3.28313408329e-05
-2.43562942479e-09
3.28322511077e-05
-2.03662498654e-09
3.2833001045e-05
-1.64341714384e-09
3.28335967464e-05
-1.28958230954e-09
3.28340531242e-05
-9.88866794474e-10
3.28343882211e-05
-7.43989638045e-10
3.28346547396e-05
-5.53256423114e-10
3.28348711663e-05
-4.15791262853e-10
3.28350185027e-05
-2.8061687363e-10
3.28351177672e-05
-1.83136178781e-10
3.28351835966e-05
-1.15208990356e-10
3.28352254368e-05
-6.83477817876e-11
3.28352502022e-05
-3.51577671621e-11
3.28352619142e-05
-1.00089794261e-11
3.28352641738e-05
8.21082158561e-12
3.28352595256e-05
2.16712909962e-11
3.28352497742e-05
3.17944724872e-11
3.2835236136e-05
3.97960469398e-11
3.28352193578e-05
4.66779849527e-11
3.28351998403e-05
5.30816504615e-11
3.283517784e-05
5.94318339428e-11
3.28351535347e-05
6.60074717042e-11
3.28351270663e-05
7.3083605166e-11
3.28350984223e-05
8.09721237227e-11
3.283506789e-05
8.93691266013e-11
3.28350361248e-05
9.80074686762e-11
3.28350041757e-05
1.0634880603e-10
3.28349739243e-05
1.13380532667e-10
3.28349483824e-05
1.17322528025e-10
3.28349321642e-05
1.1563059415e-10
3.28349325762e-05
1.04171662091e-10
3.28349608695e-05
7.50890474301e-11
3.28350346213e-05
1.862798035e-11
3.28351834721e-05
-8.56095712222e-11
3.28354590026e-05
-2.74771924099e-10
3.28359504242e-05
-6.14008118015e-10
3.28366699597e-05
-1.04135051257e-09
3.28377147954e-05
-1.70434684092e-09
3.28393442332e-05
-2.76949330946e-09
3.28419329801e-05
-4.44541450546e-09
3.28459850893e-05
-7.07776074987e-09
3.28523150481e-05
-1.12223944165e-08
3.28622357488e-05
-1.77842115594e-08
3.28779111446e-05
-2.82888969162e-08
3.29030006988e-05
-4.53922484469e-08
3.29428535644e-05
-7.32007254013e-08
3.30072962619e-05
-1.1946529058e-07
3.31133048771e-05
-1.98958744021e-07
3.32898816671e-05
-3.40982359768e-07
3.35852121283e-05
-6.05107894013e-07
3.4070345259e-05
-1.10953368341e-06
3.48113707412e-05
-2.08271248973e-06
3.5672041838e-05
-3.97180962184e-06
-7.10500077516e-06
3.57400255017e-05
5.35105669091e-05
8.90861286692e-06
5.55742234672e-05
1.58808747526e-05
5.52424842404e-05
1.62761347415e-05
5.35977879245e-05
1.40524895011e-05
5.15418496438e-05
1.11572130709e-05
4.95802816745e-05
8.45101096332e-06
4.79243523735e-05
6.22316749313e-06
4.66181402308e-05
4.49686542972e-06
4.56304672217e-05
3.2026902613e-06
4.49051181145e-05
2.25239742431e-06
4.43840907773e-05
1.5649138575e-06
4.40166944094e-05
1.07360987055e-06
4.37619675403e-05
7.26475706078e-07
4.3588268383e-05
4.84003385273e-07
4.347186833e-05
3.16682715647e-07
4.33953574969e-05
2.0274491337e-07
4.33461864639e-05
1.26304354489e-07
4.33154481918e-05
7.58895470926e-08
4.32969113283e-05
4.3305913033e-08
4.32862849233e-05
2.27592376797e-08
4.32806818657e-05
1.01913276703e-08
4.32778740446e-05
2.8743174569e-09
4.32770461089e-05
-9.82795711286e-10
4.32772638705e-05
-2.93112469358e-09
4.3277951272e-05
-3.6209601761e-09
4.32788142026e-05
-3.63724896053e-09
4.32796869232e-05
-3.30851672846e-09
4.32804843619e-05
-2.83412733744e-09
4.32811701813e-05
-2.32918237851e-09
4.32817361602e-05
-1.85540319341e-09
4.32821890976e-05
-1.44157363217e-09
4.32825416997e-05
-1.09626404417e-09
4.32828036674e-05
-8.14872136308e-10
4.32829793205e-05
-5.91094671228e-10
4.32831125128e-05
-4.13510017171e-10
4.32831980691e-05
-2.68450636151e-10
4.32832521565e-05
-1.6913561366e-10
4.32832920314e-05
-1.08141681535e-10
4.32833165271e-05
-5.96248590076e-11
4.32833286832e-05
-2.20836494752e-11
4.32833319805e-05
5.1075154898e-12
4.32833283931e-05
2.55420221768e-11
4.32833196219e-05
4.09539741048e-11
4.32833068334e-05
5.30679464944e-11
4.32832906662e-05
6.34016587558e-11
4.32832714981e-05
7.27982930078e-11
4.32832496491e-05
8.18035409761e-11
4.32832253899e-05
9.07433104307e-11
4.32831990154e-05
9.98535901576e-11
4.32831711709e-05
1.09203500593e-10
4.3283142496e-05
1.18370716144e-10
4.3283113979e-05
1.26748011375e-10
4.3283087081e-05
1.3337109021e-10
4.32830639966e-05
1.36635197065e-10
4.32830477369e-05
1.3386620271e-10
4.32830427343e-05
1.20886247722e-10
4.32830571328e-05
9.00904492784e-11
4.3283102914e-05
2.95580590226e-11
4.3283199371e-05
-7.76178622385e-11
4.32833626291e-05
-2.48628779274e-10
4.3283607992e-05
-5.20049755835e-10
4.32840543945e-05
-1.06028006428e-09
4.32848303692e-05
-1.81752370351e-09
4.32860886568e-05
-2.9628363374e-09
4.32880372032e-05
-4.71840961442e-09
4.32910264744e-05
-7.43498678945e-09
4.32956161837e-05
-1.16676721039e-08
4.33026848895e-05
-1.82913544543e-08
4.33136147223e-05
-2.87140932456e-08
4.33305631158e-05
-4.52371781374e-08
4.3356838222e-05
-7.16671552595e-08
4.33980083551e-05
-1.14370485073e-07
4.34629207406e-05
-1.84377305405e-07
4.35652918733e-05
-3.01329635176e-07
4.37250625901e-05
-5.00752990985e-07
4.39668056524e-05
-8.4685118398e-07
4.43071494351e-05
-1.44987791156e-06
4.47073406438e-05
-2.48290436912e-06
4.49264174584e-05
-4.19088707603e-06
-6.57554918531e-06
4.439696501e-05
5.27351384397e-05
6.17347486054e-06
5.57309356338e-05
1.2885078297e-05
5.73114759198e-05
1.46955948894e-05
5.76109936248e-05
1.37529719739e-05
5.71335244395e-05
1.16346821993e-05
5.63194697664e-05
9.26506542751e-06
5.54489893925e-05
7.09364758631e-06
5.46629786498e-05
5.28287590474e-06
5.40136829761e-05
3.85198574499e-06
5.35061515828e-05
2.75992867361e-06
5.31242556147e-05
1.94680966361e-06
5.28449859449e-05
1.35287925929e-06
5.26454394471e-05
9.26021758724e-07
5.25057147943e-05
6.23727398027e-07
5.24097195013e-05
4.12677235999e-07
5.23450129179e-05
2.67450667093e-07
5.23022745444e-05
1.69041915112e-07
5.22746869176e-05
1.0347644111e-07
5.2257362047e-05
6.06301970784e-08
5.22468531592e-05
3.32676912324e-08
5.22407533247e-05
1.62908423103e-08
5.22374443128e-05
6.18306390173e-09
5.22359454518e-05
5.15811150297e-10
5.22354372369e-05
-2.42317547435e-09
5.22355018649e-05
-3.68586460453e-09
5.22358469794e-05
-3.98261562934e-09
5.22363009035e-05
-3.76260870282e-09
5.22367670475e-05
-3.30030463222e-09
5.22371943076e-05
-2.75637755637e-09
5.22375599538e-05
-2.22090818055e-09
5.2237857275e-05
-1.73867267898e-09
5.22380890594e-05
-1.32772749409e-09
5.2238265556e-05
-9.91011458496e-10
5.22383986493e-05
-7.23892180199e-10
5.22384991498e-05
-5.13798544537e-10
5.22385838349e-05
-3.53010348833e-10
5.22386494309e-05
-2.34682991473e-10
5.2238691751e-05
-1.50420770601e-10
5.22387245835e-05
-9.23919997515e-11
5.22387400905e-05
-3.75283893917e-11
5.22387455065e-05
-1.80076619982e-13
5.2238743465e-05
2.78569257456e-11
5.22387359122e-05
4.89102983207e-11
5.22387241813e-05
6.52772886316e-11
5.22387090796e-05
7.90237999356e-11
5.22386911521e-05
9.1305469027e-11
5.22386708308e-05
1.02670759459e-10
5.22386487756e-05
1.1329362116e-10
5.22386261125e-05
1.22899467065e-10
5.22386006608e-05
1.34919073443e-10
5.22385742505e-05
1.44992788635e-10
5.22385480675e-05
1.5317068734e-10
5.22385237011e-05
1.57922007832e-10
5.22385037728e-05
1.56640065531e-10
5.22384940652e-05
1.43753173849e-10
5.22385035204e-05
1.11660442872e-10
5.22385354323e-05
5.83950103858e-11
5.22386133412e-05
-4.78438644786e-11
5.22387344915e-05
-1.98531520089e-10
5.22389312514e-05
-4.45113272282e-10
5.22392700414e-05
-8.5884006917e-10
5.22397902473e-05
-1.58017965498e-09
5.22405658439e-05
-2.59318260849e-09
5.22417299742e-05
-4.12701799161e-09
5.22434859114e-05
-6.4746155546e-09
5.22461351619e-05
-1.0084497063e-08
5.22501297854e-05
-1.56625217487e-08
5.22561610396e-05
-2.43227153285e-08
5.22652878001e-05
-3.78408792261e-08
5.22791273879e-05
-5.9076730349e-08
5.23001373647e-05
-9.26769178407e-08
5.23320326769e-05
-1.46265554377e-07
5.23801553849e-05
-2.32499808846e-07
5.24514291169e-05
-3.72603123777e-07
5.25527131933e-05
-6.02037037972e-07
5.26845467647e-05
-9.78685086616e-07
5.28246983301e-05
-1.59002998632e-06
5.28916821476e-05
-2.54988872618e-06
5.26730578731e-05
-3.97226348752e-06
-5.76666387272e-06
5.18641717476e-05
5.19834868975e-05
4.18998839992e-06
5.50586651483e-05
9.80990080266e-06
5.76386148205e-05
1.21156456631e-05
5.93259049489e-05
1.2065682036e-05
6.02280169311e-05
1.07325701824e-05
6.05929278964e-05
8.90015428053e-06
6.06482845086e-05
7.03829072175e-06
6.05531897317e-05
5.3779704281e-06
6.04029548772e-05
4.00222038755e-06
6.02479141186e-05
2.91496925101e-06
6.01107883271e-05
2.0839352625e-06
5.99990284369e-05
1.46463882268e-06
5.99125127595e-05
1.01253696215e-06
5.98479202097e-05
6.88319304772e-07
5.98010158634e-05
4.59580808855e-07
5.97677303776e-05
3.00735326209e-07
5.9744588214e-05
1.92183293463e-07
5.97288089554e-05
1.19255019296e-07
5.97182602341e-05
7.11783711682e-08
5.97113536055e-05
4.0173892117e-08
5.97069339267e-05
2.0710185453e-08
5.97041997597e-05
8.91694481483e-09
5.97025904701e-05
2.12482076796e-09
5.97016856732e-05
-1.51866517908e-09
5.97012271221e-05
-3.22758806779e-09
5.97010373763e-05
-3.7930948447e-09
5.97010009228e-05
-3.72630418367e-09
5.97010451315e-05
-3.34455894224e-09
5.97011262917e-05
-2.83747968241e-09
5.97012187289e-05
-2.31319482172e-09
5.97013085538e-05
-1.82828993845e-09
5.97013891119e-05
-1.40805692565e-09
5.97014589776e-05
-1.06058443285e-09
5.97015187171e-05
-7.83317861799e-10
5.97015690951e-05
-5.63900531948e-10
5.97016089755e-05
-3.92716085609e-10
5.97016367923e-05
-2.62418616378e-10
5.970165214e-05
-1.65702923165e-10
5.9701650575e-05
-9.07318459557e-11
5.97016426383e-05
-2.95046275985e-11
5.97016362641e-05
6.29428980419e-12
5.97016273842e-05
3.69128774354e-11
5.97016174055e-05
5.92308892733e-11
5.97016064272e-05
7.67041376356e-11
5.97015933012e-05
9.2685530985e-11
5.97015778258e-05
1.07300565265e-10
5.97015600521e-05
1.2097282523e-10
5.97015400247e-05
1.33900419692e-10
5.97015174345e-05
1.46009322478e-10
5.97014956742e-05
1.57028701931e-10
5.97014746754e-05
1.66254912647e-10
5.97014557398e-05
1.72369391159e-10
5.97014405756e-05
1.73398035195e-10
5.97014305937e-05
1.66889118528e-10
5.97014245956e-05
1.50060391654e-10
5.97014162629e-05
1.20318667342e-10
5.97014219925e-05
5.28131652643e-11
5.97014344454e-05
-5.9981887306e-11
5.97015207856e-05
-2.84486261231e-10
5.97017115553e-05
-6.35434243043e-10
5.97020125132e-05
-1.15994990601e-09
5.9702401287e-05
-1.96873912555e-09
5.97029818414e-05
-3.17377899549e-09
5.97038367091e-05
-4.98206598385e-09
5.97050799991e-05
-7.71808667672e-09
5.97068767792e-05
-1.18816311952e-08
5.97094653536e-05
-1.82512861205e-08
5.97131897262e-05
-2.80471585317e-08
5.97185395675e-05
-4.31907797583e-08
5.97261955939e-05
-6.67326362024e-08
5.97370589624e-05
-1.03540039232e-07
5.97521916229e-05
-1.61397923455e-07
5.97724303318e-05
-2.52738147418e-07
5.97971821181e-05
-3.97354631455e-07
5.98212888726e-05
-6.26143721586e-07
5.98278751435e-05
-9.85271438423e-07
5.97749035455e-05
-1.53705884525e-06
5.95744661134e-05
-2.34945192471e-06
5.9068773359e-05
-3.46657125266e-06
-4.79557217916e-06
5.80976809421e-05
5.14373057904e-05
2.75268304198e-06
5.42658217389e-05
6.9813856168e-06
5.7249644831e-05
9.13182302843e-06
5.9790029354e-05
9.52529772374e-06
6.17201297806e-05
8.80246974676e-06
6.30883044927e-05
7.53197940046e-06
6.40167177234e-05
6.1098772416e-06
6.4629237184e-05
4.7654507246e-06
6.50258038365e-05
3.6056535246e-06
6.52790781215e-05
2.6616947511e-06
6.54389728496e-05
1.92404027406e-06
6.55386892724e-05
1.36492204477e-06
6.55999272688e-05
9.51298455898e-07
6.56367414159e-05
6.5150451425e-07
6.56581917507e-05
4.38129719098e-07
6.56700991743e-05
2.88827098897e-07
6.56761876561e-05
1.86094041606e-07
6.56788233155e-05
1.16618693162e-07
6.56794932547e-05
7.05078982866e-08
6.56791166829e-05
4.05500335659e-08
6.5678249024e-05
2.15774878194e-08
6.56772179005e-05
9.94774867508e-09
6.56762084586e-05
3.13395093299e-09
6.56752989776e-05
-6.09487097544e-10
6.56745301178e-05
-2.45898678454e-09
6.56739016401e-05
-3.16481398334e-09
6.56734026749e-05
-3.22748918028e-09
6.5673015769e-05
-2.95774823198e-09
6.56727219673e-05
-2.5436594898e-09
6.56725030891e-05
-2.09418439027e-09
6.56723430426e-05
-1.66798609005e-09
6.56722280871e-05
-1.29284467055e-09
6.56721460604e-05
-9.78330962025e-10
6.56720863376e-05
-7.23352737041e-10
6.56720431281e-05
-5.20446080005e-10
6.56720121863e-05
-3.61557032819e-10
6.56719873474e-05
-2.37483885084e-10
6.56719659604e-05
-1.44320417774e-10
6.56719510933e-05
-7.59202625537e-11
6.56719494945e-05
-2.78581901149e-11
6.56719482179e-05
7.74846671624e-12
6.5671941193e-05
4.41768925687e-11
6.56719316541e-05
6.91382895444e-11
6.56719197403e-05
8.91258706866e-11
6.56719063755e-05
1.06601265835e-10
6.56718915105e-05
1.22680569555e-10
6.567187496e-05
1.37995153836e-10
6.56718566674e-05
1.52668134143e-10
6.56718370928e-05
1.660359039e-10
6.56718182942e-05
1.76199487864e-10
6.56717992232e-05
1.85598154748e-10
6.56717803311e-05
1.91382756151e-10
6.56717628866e-05
1.90982035557e-10
6.56717488466e-05
1.81068638448e-10
6.56717419768e-05
1.57015472194e-10
6.5671749881e-05
1.12798138404e-10
6.56717562811e-05
4.67722748735e-11
6.56717913013e-05
-9.47960843853e-11
6.56718594648e-05
-3.52697102233e-10
6.56719591762e-05
-7.34677580054e-10
6.56721107592e-05
-1.3115491487e-09
6.56723217772e-05
-2.17966811568e-09
6.56726087244e-05
-3.46063536847e-09
6.56729881611e-05
-5.36160927656e-09
6.56734712499e-05
-8.20132662538e-09
6.56740558337e-05
-1.24663108676e-08
6.56747120267e-05
-1.89075211691e-08
6.56753545144e-05
-2.86897012093e-08
6.56757827858e-05
-4.36190318152e-08
6.56755698228e-05
-6.65195650915e-08
6.56738470994e-05
-1.01817127621e-07
6.56688819589e-05
-1.56432467157e-07
6.56571419603e-05
-2.40997856728e-07
6.56315016359e-05
-3.71714127726e-07
6.5577815664e-05
-5.72457812572e-07
6.546886233e-05
-8.76318238691e-07
6.52554955759e-05
-1.32369245823e-06
6.48577087005e-05
-1.95166575148e-06
6.41631024838e-05
-2.77196549802e-06
-3.7140575513e-06
6.30815872584e-05
5.10850427739e-05
1.66764070899e-06
5.36118457176e-05
4.45458345156e-06
5.66873180759e-05
6.05635114739e-06
5.96894482774e-05
6.52316775919e-06
6.22997288511e-05
6.19218919435e-06
6.44136902177e-05
5.41801790082e-06
6.60471860686e-05
4.47638115657e-06
6.72686173091e-05
3.54401922018e-06
6.81598960668e-05
2.71437451865e-06
6.87977624175e-05
2.02382816098e-06
6.92467465142e-05
1.47505586343e-06
6.95579650028e-05
1.05370315196e-06
6.97704312309e-05
7.38831697231e-07
6.99131737455e-05
5.08761331993e-07
7.00073842578e-05
3.43918452637e-07
7.00682932394e-05
2.27917330561e-07
7.01066947602e-05
1.47691757886e-07
7.01301366724e-05
9.31760960546e-08
7.01438255509e-05
5.68184579504e-08
7.01513015319e-05
3.30736057586e-08
7.01549339794e-05
1.79446729908e-08
7.0156281773e-05
8.59961430307e-09
7.01563536845e-05
3.06169599987e-09
7.0155761637e-05
-1.7767440207e-11
7.01549008073e-05
-1.59841562349e-09
7.01539772756e-05
-2.24145881054e-09
7.01531087688e-05
-2.35909214749e-09
7.01523489496e-05
-2.19798040144e-09
7.01517150548e-05
-1.90971185747e-09
7.01512041925e-05
-1.58321009774e-09
7.01508034718e-05
-1.26703986109e-09
7.01504959093e-05
-9.84994630925e-10
7.01502638164e-05
-7.45980387552e-10
7.01500909791e-05
-5.50341541331e-10
7.0149964428e-05
-3.93731284588e-10
7.01498735064e-05
-2.7047764904e-10
7.01498110823e-05
-1.74946805781e-10
7.01497696866e-05
-1.02900405463e-10
7.01497413074e-05
-4.75578097662e-11
7.01497115733e-05
1.88642977704e-12
7.01496884593e-05
3.0988022027e-11
7.0149675784e-05
5.70848868622e-11
7.0149665775e-05
7.94645568764e-11
7.01496564552e-05
9.88728227625e-11
7.01496470927e-05
1.16541748333e-10
7.01496372699e-05
1.33180803841e-10
7.01496267649e-05
1.49117576595e-10
7.01496155729e-05
1.64342025284e-10
7.01496035521e-05
1.78441356922e-10
7.01495892868e-05
1.90807117568e-10
7.0149574711e-05
2.00470081202e-10
7.01495605708e-05
2.05676261194e-10
7.01495477542e-05
2.03984444632e-10
7.01495369238e-05
1.92157800434e-10
7.01495274205e-05
1.66640952196e-10
7.01495163898e-05
1.23876614792e-10
7.01495106428e-05
5.27882643494e-11
7.01494997362e-05
-8.35359613402e-11
7.01495113561e-05
-3.64259741113e-10
7.01495351384e-05
-7.58141124196e-10
7.01495589888e-05
-1.3352536151e-09
7.01495615897e-05
-2.18232895469e-09
7.01495162989e-05
-3.41536567868e-09
7.01493698286e-05
-5.21520000733e-09
7.01490232971e-05
-7.85495824407e-09
7.01483017347e-05
-1.17449407096e-08
7.01469037017e-05
-1.75096806677e-08
7.01443179913e-05
-2.6104081092e-08
7.01396709052e-05
-3.89718762229e-08
7.01314819411e-05
-5.83304110274e-08
7.01172626481e-05
-8.75975032556e-08
7.00928603087e-05
-1.32029782747e-07
7.00511885468e-05
-1.99325929398e-07
6.99802794491e-05
-3.00804904889e-07
6.98601771624e-05
-4.52355545982e-07
6.96584543341e-05
-6.74595638175e-07
6.93252264599e-05
-9.90464847045e-07
6.87909904127e-05
-1.417430396e-06
6.79732298122e-05
-1.95420553192e-06
-2.55478803425e-06
6.68139597547e-05
5.08804136042e-05
7.87227548026e-07
5.31704673353e-05
2.16453049993e-06
5.62177513364e-05
3.00906763911e-06
5.94382715431e-05
3.30264780988e-06
6.24449713346e-05
3.1854894356e-06
6.50382545612e-05
2.82473455098e-06
6.71548678344e-05
2.35976766228e-06
6.8813566004e-05
1.88532080402e-06
7.00731716669e-05
1.45476857958e-06
7.10056682964e-05
1.09133126324e-06
7.16812642038e-05
7.99459632674e-07
7.21614230804e-05
5.73543840518e-07
7.24966034085e-05
4.03650799266e-07
7.27264792482e-05
2.78884802268e-07
7.28812773642e-05
1.8911958015e-07
7.29834663276e-05
1.2572759915e-07
7.30494093715e-05
8.17479812317e-08
7.309081084e-05
5.17739635125e-08
7.31159042755e-05
3.17244591298e-08
7.31303884038e-05
1.85890136109e-08
7.31381428215e-05
1.01898740237e-08
7.31417630101e-05
4.97909801747e-09
7.31429504852e-05
1.87391055706e-09
7.31428039096e-05
1.2850016859e-10
7.31419804785e-05
-7.75283161919e-10
7.31408974134e-05
-1.15863818935e-09
7.31397824622e-05
-1.24427522666e-09
7.31387550324e-05
-1.17058807853e-09
7.31378675759e-05
-1.0222324493e-09
7.31371339764e-05
-8.4954216591e-10
7.31365468694e-05
-6.79792808468e-10
7.31360888825e-05
-5.26755031151e-10
7.31357391096e-05
-3.9591019697e-10
7.31354768452e-05
-2.87853294195e-10
7.31352837562e-05
-2.0047746698e-10
7.31351442231e-05
-1.30797187364e-10
7.31350449783e-05
-7.55919269449e-11
7.31349735006e-05
-3.13804662452e-11
7.31349203868e-05
5.55863371751e-12
7.31348907639e-05
3.1504181891e-11
7.31348678351e-05
5.39273628555e-11
7.3134851318e-05
7.37362132889e-11
7.3134839367e-05
9.17029303684e-11
7.31348301256e-05
1.08491465213e-10
7.31348223349e-05
1.24803242335e-10
7.31348151107e-05
1.41001381984e-10
7.31348077718e-05
1.57081548172e-10
7.31347998179e-05
1.72818431288e-10
7.31347909939e-05
1.87721372173e-10
7.31347812383e-05
2.00898319656e-10
7.31347706692e-05
2.1132312633e-10
7.31347592934e-05
2.17196866182e-10
7.31347472484e-05
2.16081097081e-10
7.31347350226e-05
2.04662921568e-10
7.31347231332e-05
1.78826096927e-10
7.31347124263e-05
1.3469862696e-10
7.31346970772e-05
6.83496284148e-11
7.31346743717e-05
-6.05143601561e-11
7.31346333492e-05
-3.2295998345e-10
7.3134567987e-05
-6.92467959758e-10
7.31344545039e-05
-1.22153698539e-09
7.31342495793e-05
-1.9773658467e-09
7.31338853689e-05
-3.05104887127e-09
7.31332469531e-05
-4.57670106788e-09
7.31321413951e-05
-6.74939955893e-09
7.31302470702e-05
-9.85064559152e-09
7.31270366143e-05
-1.42993389084e-08
7.31216552385e-05
-2.07228175292e-08
7.31126906694e-05
-3.00073415329e-08
7.30978387824e-05
-4.34783971583e-08
7.30733927379e-05
-6.31512233846e-08
7.303345648e-05
-9.20932389261e-08
7.29685184639e-05
-1.34387690762e-07
7.28635643161e-05
-1.95850636419e-07
7.26954327369e-05
-2.84224015965e-07
7.24296313042e-05
-4.08794444367e-07
7.20178108269e-05
-5.7864457638e-07
7.13987915342e-05
-7.98411715804e-07
7.05070473145e-05
-1.06246205095e-06
-1.34572566663e-06
6.92979844294e-05
5.07871730129e-05
5.49863568548e-11
5.29516510067e-05
5.3274792009e-11
5.59606900642e-05
2.9069333706e-11
5.926332373e-05
1.44160960356e-11
6.24488102588e-05
2.96395768471e-12
6.52735505743e-05
-5.88634405533e-12
6.76333297475e-05
-1.17527253657e-11
6.95186649076e-05
-1.46393593971e-11
7.09734482062e-05
-1.50142122426e-11
7.20647926327e-05
-1.34824940262e-11
7.28642625945e-05
-1.06991976252e-11
7.34378132951e-05
-7.3346443782e-12
7.3841467545e-05
-4.04448621321e-12
7.41203530947e-05
-1.46201155951e-12
7.4309472036e-05
-1.51089275799e-13
7.44351993324e-05
-4.89744271698e-13
7.4516949316e-05
-2.73914912236e-12
7.456872928e-05
-6.6512731673e-12
7.46004647627e-05
-1.15779244109e-11
7.46190698446e-05
-1.65269407201e-11
7.46292797039e-05
-2.03714197311e-11
7.46342805026e-05
-2.2027919159e-11
7.46361751843e-05
-2.1053841154e-11
7.46363221423e-05
-1.87173062449e-11
7.46355627699e-05
-1.61727224544e-11
7.46344168493e-05
-1.29565641174e-11
7.46331816981e-05
-9.25563984708e-12
7.46320162744e-05
-5.19106961053e-12
7.46309943802e-05
-2.90735241507e-13
7.46301410573e-05
3.87088981648e-12
7.46294527992e-05
8.5645371441e-12
7.46289126286e-05
1.35792324331e-11
7.46284981498e-05
1.88265416838e-11
7.46281862052e-05
2.43478009427e-11
7.46279555661e-05
3.03580410345e-11
7.4627787874e-05
3.70279846407e-11
7.46276679609e-05
4.44126095307e-11
7.46275841414e-05
5.24693639856e-11
7.46275284262e-05
6.13011003626e-11
7.46274895086e-05
7.05033024504e-11
7.46274635119e-05
8.00396401359e-11
7.46274466438e-05
9.08409110144e-11
7.46274359415e-05
1.02790825885e-10
7.46274291213e-05
1.15761530805e-10
7.46274246597e-05
1.2980957868e-10
7.46274214388e-05
1.4478586995e-10
7.46274186764e-05
1.60418160524e-10
7.46274158142e-05
1.76294424464e-10
7.46274123826e-05
1.91706628244e-10
7.46274079899e-05
2.05743363015e-10
7.46274025225e-05
2.17241177275e-10
7.46273957616e-05
2.24294472883e-10
7.4627387224e-05
2.24727235238e-10
7.46273764698e-05
2.15540190492e-10
7.46273622726e-05
1.9327987565e-10
7.46273429471e-05
1.54228837794e-10
7.4627317671e-05
9.38520091276e-11
7.46272725448e-05
-1.54089828616e-11
7.46271850274e-05
-2.35270062245e-10
7.4627049857e-05
-5.57054586231e-10
7.46268276446e-05
-9.99027094666e-10
7.46264575482e-05
-1.6071176747e-09
7.46258433147e-05
-2.43686799194e-09
7.46248283738e-05
-3.56178362741e-09
7.46231577302e-05
-5.07874178033e-09
7.46204148975e-05
-7.10778461088e-09
7.46159333121e-05
-9.81765729965e-09
7.46086556259e-05
-1.34449849691e-08
7.45968459771e-05
-1.81975007861e-08
7.45777045248e-05
-2.43367124816e-08
7.45468142102e-05
-3.22607107304e-08
7.44974489931e-05
-4.27277552376e-08
7.4418876012e-05
-5.58144649582e-08
7.4294703673e-05
-7.16782693053e-08
7.41005631066e-05
-9.00836184039e-08
7.38016520869e-05
-1.0988362993e-07
7.33513300466e-05
-1.28322713784e-07
7.26931520338e-05
-1.40234186957e-07
7.17691231913e-05
-1.38433895724e-07
-1.14434228127e-07
7.05378312349e-05
5.07871719751e-05
-7.87116539113e-07
5.29516501437e-05