/*--------------------------------*- C++ -*----------------------------------*\
| =========                 |                                                 |
| \\      /  F ield         | OpenFOAM: The Open Source CFD Toolbox           |
|  \\    /   O peration     | Version:  2106                                  |
|   \\  /    A nd           | Website:  www.openfoam.com                      |
|    \\/     M anipulation  |                                                 |
\*---------------------------------------------------------------------------*/
FoamFile
{
    version     2.0;
    format      ascii;
    arch        "LSB;label=32;scalar=64";
    class       surfaceScalarField;
    location    "0.039";
    object      phi;
}
// * * * * * * * * * * * * * * * * * * * * * * * * * * * * * * * * * * * * * //

dimensions      [0 3 -1 0 0 0 0];

oriented        oriented;

internalField   nonuniform List<scalar> 
799
(
1.90863e-32
4.81672e-32
6.26033e-32
5.29977e-32
2.89879e-32
-3.66047e-32
-9.49446e-32
-1.39786e-31
-1.4881e-31
-1.10028e-31
-5.32238e-32
1.0043e-32
4.94912e-32
6.01906e-32
3.95398e-32
1.22411e-33
-4.87757e-32
-1.00263e-31
-1.39391e-31
-1.6619e-31
-1.5687e-31
-1.19607e-31
-5.72814e-32
1.4619e-32
5.63184e-32
6.65033e-32
2.5897e-32
-4.37006e-32
-1.09e-31
-1.60636e-31
-1.62561e-31
-1.34367e-31
-8.71717e-32
-3.12945e-32
-5.61021e-33
6.23132e-33
-1.0237e-32
-4.74383e-32
-7.66543e-32
-1.12714e-31
-1.21075e-31
-1.08018e-31
-8.40014e-32
-3.67642e-32
-1.10206e-32
-2.3698e-34
-1.5682e-32
-6.42002e-32
-1.03735e-31
-1.39628e-31
-1.41181e-31
-1.06982e-31
-6.34623e-32
-8.83647e-33
1.58857e-32
1.00219e-32
-2.28027e-32
-8.16293e-32
-1.26783e-31
-1.517e-31
-1.38315e-31
-8.49606e-32
-2.26692e-32
3.24359e-32
4.54098e-32
4.81332e-33
-6.88445e-32
-1.52239e-31
-1.97552e-31
-1.79933e-31
-1.08454e-31
-6.6106e-33
6.99214e-32
8.6542e-32
3.95523e-32
-5.41331e-32
-1.40551e-31
-1.85091e-31
-1.73483e-31
-1.14132e-31
-4.77917e-32
1.31317e-33
1.67765e-32
1.8665e-33
-2.21569e-32
-4.80053e-32
-6.74903e-32
-8.55399e-32
-1.05756e-31
-1.17938e-31
-1.15892e-31
-8.46958e-32
-3.20649e-32
2.14034e-32
5.41186e-32
3.52761e-32
-2.32712e-32
-1.05009e-31
-1.74333e-31
-1.87664e-31
-1.52353e-31
-6.65484e-32
2.4307e-32
7.75706e-32
8.66315e-32
2.87086e-32
-5.05314e-32
-1.24297e-31
-1.68203e-31
-1.51179e-31
-1.0732e-31
-4.45415e-32
2.11852e-33
1.071e-32
-7.2354e-34
-3.134e-32
-4.81814e-32
-4.56843e-32
-3.29478e-32
-1.90584e-32
-2.89826e-32
-5.94808e-32
-1.01017e-31
-1.3184e-31
-1.30428e-31
-9.57593e-32
-3.63933e-32
2.30615e-32
6.08702e-32
6.62257e-32
3.62738e-32
-1.61086e-32
-7.70778e-32
-1.32414e-31
-1.64292e-31
-1.67045e-31
-1.3335e-31
-6.92304e-32
4.49167e-33
6.92501e-32
9.45175e-32
7.19326e-32
8.70364e-33
-7.55149e-32
-1.40384e-31
-1.66909e-31
-1.43446e-31
-8.32363e-32
-2.05446e-32
2.27215e-32
2.34614e-32
-1.11584e-32
-5.82128e-32
-9.53576e-32
-9.59384e-32
-6.30998e-32
-1.23575e-32
2.93072e-32
3.20622e-32
-8.03775e-33
-7.92106e-32
-1.46112e-31
-1.73114e-31
-1.42274e-31
-6.21479e-32
2.71424e-32
8.51615e-32
7.71711e-32
1.05896e-32
-7.94521e-32
-1.50306e-31
-1.5729e-31
-1.10991e-31
-3.36179e-32
2.89702e-32
3.52836e-32
-7.8429e-34
-6.97638e-32
-1.1948e-31
-1.21761e-31
-8.56429e-32
-1.48084e-32
3.45072e-32
4.77971e-32
1.85642e-32
-4.89743e-32
-1.05114e-31
-1.41753e-31
-1.34264e-31
-8.74101e-32
-3.22924e-32
2.3398e-32
4.61531e-32
3.73224e-32
5.45429e-33
-4.34365e-32
-8.14136e-32
-1.06049e-31
-1.10273e-31
-9.31415e-32
-6.72089e-32
-3.23421e-32
7.16201e-34
2.24755e-32
2.89032e-32
9.53166e-33
-3.03644e-32
-7.69439e-32
-1.13755e-31
-1.17085e-31
-8.32814e-32
-2.53935e-32
3.16018e-32
5.24244e-32
2.37165e-32
-4.43175e-32
-1.19821e-31
-1.57296e-31
-1.31518e-31
-4.91443e-32
5.35709e-32
1.20128e-31
1.10079e-31
2.34113e-32
-1.05819e-31
-2.10685e-31
-2.35767e-31
-1.68897e-31
-3.28251e-32
1.00994e-31
1.69247e-31
1.44e-31
3.03089e-32
-1.06446e-31
-2.06687e-31
-2.28466e-31
-1.59286e-31
-4.73538e-32
6.14627e-32
1.1861e-31
9.98346e-32
2.97278e-32
-6.26749e-32
-1.32275e-31
-1.5038e-31
-1.19779e-31
-5.75131e-32
2.09896e-33
3.00219e-32
1.68263e-32
-2.32586e-32
-6.60955e-32
-8.11793e-32
-5.7805e-32
-1.48086e-32
2.57973e-32
2.78989e-32
-1.59882e-32
-8.13028e-32
-1.40322e-31
-1.49489e-31
-1.01089e-31
-2.09911e-32
5.82044e-32
8.964e-32
6.09497e-32
-5.43168e-33
-8.19242e-32
-1.26497e-31
-1.24833e-31
-9.46023e-32
-4.84251e-32
-1.7059e-32
-7.37947e-33
-5.4101e-33
-1.39096e-32
-1.471e-32
-1.48161e-32
-2.39628e-32
-3.19915e-32
-4.67666e-32
-5.19008e-32
-4.56927e-32
-3.95472e-32
-3.44553e-32
-4.37574e-32
-5.65564e-32
-5.64911e-32
-3.17914e-32
1.92202e-32
7.28284e-32
9.78372e-32
6.9821e-32
-3.65851e-33
-9.0781e-32
-1.39906e-31
-1.16105e-31
-2.58601e-32
9.72803e-32
1.87112e-31
2.05337e-31
1.49432e-31
5.1627e-32
-2.06315e-32
-3.28935e-32
2.66166e-32
1.27241e-31
2.13318e-31
2.58762e-31
2.49749e-31
2.17217e-31
2.00413e-31
2.17313e-31
2.76852e-31
3.47151e-31
4.03033e-31
4.32378e-31
4.34758e-31
4.44112e-31
4.78144e-31
5.48189e-31
6.48219e-31
7.43409e-31
8.19899e-31
8.63322e-31
8.85458e-31
9.21569e-31
9.86302e-31
1.10215e-30
1.25325e-30
1.40775e-30
1.54601e-30
1.63591e-30
1.69547e-30
1.74973e-30
1.82937e-30
1.9769e-30
2.18038e-30
2.427e-30
2.67338e-30
2.86704e-30
2.99346e-30
3.05561e-30
3.05697e-30
3.2164e-30
3.48346e-30
4.57591e-30
6.73068e-30
1.00772e-29
1.66842e-29
1.90976e-29
2.16152e-29
4.27431e-30
-3.87448e-29
-9.03844e-29
-1.96239e-28
-1.87136e-28
-1.26596e-28
1.61176e-28
8.05165e-28
1.17029e-27
1.81255e-27
1.05072e-27
-7.67368e-28
-3.04287e-27
-7.54947e-27
-7.22006e-27
-5.93793e-27
1.74124e-27
1.68691e-26
2.26605e-26
3.30411e-26
1.66404e-26
-1.36191e-26
-4.10156e-26
-9.0504e-26
-7.1331e-26
-4.22036e-26
3.15612e-26
1.54616e-25
1.62726e-25
1.91988e-25
5.43017e-26
-1.4561e-25
-2.41572e-25
-4.15721e-25
-2.36534e-25
-3.16534e-26
2.19144e-25
5.89185e-25
4.55146e-25
3.83024e-25
-3.70945e-26
-5.44012e-25
-5.8006e-25
-7.54263e-25
-2.54589e-25
2.23617e-25
5.06837e-25
9.15282e-25
5.06848e-25
2.23633e-25
-2.54575e-25
-7.54258e-25
-5.80065e-25
-5.44025e-25
-3.71085e-26
3.83015e-25
4.55144e-25
5.89189e-25
2.19152e-25
-3.16475e-26
-2.36532e-25
-4.15723e-25
-2.41577e-25
-1.45614e-25
5.42982e-26
1.91987e-25
1.62726e-25
1.54616e-25
3.15617e-26
-4.22037e-26
-7.13315e-26
-9.05045e-26
-4.10163e-26
-1.36197e-26
1.66397e-26
3.30404e-26
2.26598e-26
1.68684e-26
1.74073e-27
-5.93835e-27
-7.2204e-27
-7.54975e-27
-3.04317e-27
-7.67683e-28
1.05035e-27
1.81215e-27
1.16989e-27
8.04771e-28
1.60855e-28
-1.26837e-28
-1.87277e-28
-1.96314e-28
-9.04601e-29
-3.88666e-29
4.0448e-30
2.1301e-29
1.87485e-29
1.63736e-29
9.89155e-30
6.67848e-30
4.64048e-30
3.59208e-30
3.28068e-30
3.03277e-30
2.91667e-30
2.77423e-30
2.62769e-30
2.46811e-30
2.31481e-30
2.17676e-30
2.06782e-30
1.98014e-30
1.89011e-30
1.77656e-30
1.62501e-30
1.44438e-30
1.27007e-30
1.12894e-30
1.04757e-30
1.01902e-30
1.01377e-30
1.00592e-30
9.59492e-31
8.7655e-31
7.64687e-31
6.44279e-31
5.46832e-31
4.78282e-31
4.52282e-31
4.57444e-31
4.73935e-31
4.84669e-31
4.62608e-31
4.03047e-31
3.15944e-31
2.23853e-31
1.61054e-31
1.50051e-31
1.84612e-31
2.46158e-31
2.91523e-31
2.85736e-31
2.29854e-31
1.30627e-31
3.93145e-32
-7.82484e-33
-2.52026e-34
6.67518e-32
1.41326e-31
1.9273e-31
1.93643e-31
1.31084e-31
4.46214e-32
-4.01154e-32
-8.14777e-32
-5.77358e-32
1.29925e-32
1.06648e-31
1.73957e-31
1.78117e-31
1.13844e-31
1.31806e-33
-1.09164e-31
-1.62509e-31
-1.33982e-31
-3.16541e-32
9.74919e-32
1.88359e-31
2.01744e-31
1.28303e-31
6.59894e-33
-1.05661e-31
-1.60525e-31
-1.37075e-31
-5.80367e-32
3.91475e-32
1.06406e-31
1.23964e-31
9.25996e-32
3.06441e-32
-2.57082e-32
-6.49614e-32
-6.7637e-32
-4.39441e-32
-8.70581e-33
2.97302e-32
4.22516e-32
3.9365e-32
1.45001e-32
-1.56568e-32
-2.53267e-32
-2.41749e-32
5.50696e-33
3.18413e-32
3.87368e-32
2.76258e-32
-1.72453e-32
-5.23892e-32
-6.87356e-32
-5.43692e-32
-2.39688e-33
4.32065e-32
7.52839e-32
7.1689e-32
3.35924e-32
-5.40765e-33
-4.06808e-32
-5.11684e-32
-4.49193e-32
-4.20229e-32
-3.80868e-32
-3.98472e-32
-2.65024e-32
1.53081e-32
6.89005e-32
1.19723e-31
1.23332e-31
6.11498e-32
-4.56972e-32
-1.65066e-31
-2.23063e-31
-1.86358e-31
-6.36155e-32
1.07155e-31
2.29491e-31
2.53033e-31
1.57928e-31
-2.50388e-32
-1.94605e-31
-2.87877e-31
-2.50331e-31
-9.67223e-32
8.69414e-32
2.33187e-31
2.591e-31
1.61384e-31
-3.44561e-33
-1.71646e-31
-2.4752e-31
-2.13727e-31
-9.26353e-32
6.28323e-32
1.63617e-31
1.86316e-31
1.23613e-31
1.27472e-32
-8.16188e-32
-1.39631e-31
-1.35889e-31
-9.14757e-32
-3.5896e-32
2.16268e-32
5.41081e-32
7.16401e-32
7.0805e-32
5.01727e-32
2.24882e-32
-1.87229e-32
-5.45281e-32
-8.03752e-32
-8.94831e-32
-7.57432e-32
-4.94437e-32
-1.00645e-32
2.73572e-32
5.97975e-32
7.51602e-32
6.72466e-32
3.96531e-32
-1.06906e-32
-5.6681e-32
-9.3683e-32
-1.03392e-31
-7.95319e-32
-4.39202e-32
7.39753e-33
4.28038e-32
6.03644e-32
6.25656e-32
3.68342e-32
9.23092e-33
-2.84421e-32
-6.18974e-32
-7.64489e-32
-7.97305e-32
-5.39693e-32
-1.70392e-32
2.20549e-32
5.35378e-32
5.66697e-32
4.07789e-32
5.4731e-33
-3.33713e-32
-6.0033e-32
-7.12459e-32
-5.94464e-32
-3.35022e-32
-1.11884e-33
2.65899e-32
3.98397e-32
3.39889e-32
1.36891e-32
-1.11734e-32
-3.02597e-32
-3.05109e-32
-2.19774e-32
-8.22554e-33
-3.84829e-33
-1.68714e-32
-2.79606e-32
-3.48654e-32
-1.47484e-32
2.4628e-32
5.79645e-32
7.20839e-32
3.74714e-32
-2.3941e-32
-8.62049e-32
-1.16343e-31
-8.41872e-32
-1.33416e-32
7.14279e-32
1.19829e-31
1.056e-31
4.13413e-32
-4.81618e-32
-1.06808e-31
-1.12219e-31
-6.18855e-32
1.83121e-32
7.79317e-32
9.57654e-32
5.83288e-32
-7.80303e-33
-6.27056e-32
-8.33362e-32
-5.1305e-32
7.90701e-33
6.33089e-32
8.7894e-32
6.05938e-32
2.49073e-33
-6.1787e-32
-1.013e-31
-9.03382e-32
-4.10007e-32
3.02988e-32
9.27847e-32
1.15119e-31
9.7285e-32
4.11442e-32
-3.06193e-32
-8.68715e-32
-1.18039e-31
-1.07061e-31
-6.12152e-32
1.30367e-33
7.04409e-32
1.1557e-31
1.27627e-31
1.00228e-31
3.30583e-32
-4.52127e-32
-1.15745e-31
-1.46897e-31
-1.21587e-31
-5.0351e-32
4.81738e-32
1.28909e-31
1.58814e-31
1.24465e-31
3.5729e-32
-6.4302e-32
-1.3297e-31
-1.39045e-31
-7.89841e-32
1.50564e-32
9.93824e-32
1.35095e-31
1.04441e-31
2.84436e-32
-5.6359e-32
-1.09194e-31
-1.00506e-31
-4.34493e-32
3.88097e-32
1.03942e-31
1.15914e-31
8.15676e-32
7.44342e-33
-6.1164e-32
-8.9798e-32
-7.72599e-32
-1.50614e-32
4.98468e-32
9.26583e-32
1.01146e-31
5.86792e-32
7.47802e-33
-4.08538e-32
-6.3251e-32
-4.36705e-32
-1.05497e-32
3.45644e-32
6.53552e-32
7.09916e-32
6.29328e-32
3.86132e-32
1.67056e-32
3.74052e-33
-3.36737e-33
-1.18527e-33
1.41927e-33
-2.10649e-34
1.15669e-33
1.48206e-33
1.15195e-32
3.4596e-32
5.87852e-32
8.82362e-32
9.71117e-32
8.3473e-32
4.86982e-32
-9.0056e-33
-5.228e-32
-7.76959e-32
-6.24244e-32
-8.49741e-33
5.61014e-32
1.1987e-31
1.43906e-31
1.29209e-31
7.79046e-32
1.4777e-32
-3.37085e-32
-5.36891e-32
-3.18546e-32
-5.86054e-34
4.87757e-32
6.97653e-32
7.10081e-32
6.46059e-32
2.04085e-32
1.16353e-32
-2.02125e-32
-2.57964e-32
-5.25256e-33
)
;

boundaryField
{
    left
    {
        type            calculated;
        value           uniform 0;
    }
    right
    {
        type            calculated;
        value           uniform 0;
    }
    empty
    {
        type            empty;
        value           nonuniform List<scalar> 0();
    }
}


// ************************************************************************* //
