/*--------------------------------*- C++ -*----------------------------------*\
| =========                 |                                                 |
| \\      /  F ield         | OpenFOAM: The Open Source CFD Toolbox           |
|  \\    /   O peration     | Version:  2106                                  |
|   \\  /    A nd           | Website:  www.openfoam.com                      |
|    \\/     M anipulation  |                                                 |
\*---------------------------------------------------------------------------*/
FoamFile
{
    version     2.0;
    format      ascii;
    arch        "LSB;label=32;scalar=64";
    class       volScalarField;
    location    "0.165";
    object      p;
}
// * * * * * * * * * * * * * * * * * * * * * * * * * * * * * * * * * * * * * //

dimensions      [0 2 -2 0 0 0 0];

internalField   nonuniform List<scalar> 
11200
(
151.146230489
148.217628735
147.103777903
146.576446735
146.209117202
145.914339104
145.652695689
145.404157703
145.159639858
144.914572483
144.666258418
144.412942962
144.1533941
143.886676239
143.612022514
143.32875952
143.03626147
142.733922419
142.421143597
142.09733699
141.761878769
141.414119937
141.053402149
140.679057522
140.29040043
139.886729492
139.46732842
139.031466704
138.578400376
138.107372641
137.617614452
137.108345005
136.578771874
136.028091171
135.455488247
134.860138837
134.241208969
133.597855175
132.929224887
132.234456851
131.512681431
130.7630208
129.984589129
129.176492671
128.33782973
127.467690437
126.565156317
125.62929955
124.659181872
123.653853005
122.612348481
121.533686757
120.416865489
119.260856762
118.064600999
116.826999151
115.546902785
114.223101565
112.854307453
111.439134768
109.976075089
108.463465676
106.899449057
105.281924249
103.608481009
101.876314034
100.082112881
98.2219176315
96.2909244127
94.2832188192
92.1914121364
90.0061455207
87.7152205692
85.3024525277
82.7457590912
80.0134879665
77.0580533201
73.806916783
70.1065293633
65.3437107539
149.353188552
147.995014449
147.204043007
146.704028763
146.313040711
145.989158431
145.704637598
145.440035673
145.184548129
144.932026546
144.678643599
144.421885688
144.160015755
143.891757323
143.616109954
143.33223884
143.039406615
142.736930505
142.424152126
142.100409603
141.765052833
141.417406291
141.056826282
140.68264462
140.294165247
139.890681056
139.471472921
139.035808506
138.582942559
138.112117313
137.622562749
137.113496518
136.584124251
136.0336457
135.461248179
134.866107462
134.247389314
133.604250227
132.935837651
132.241290411
131.519739013
130.770305843
129.992105385
129.184244323
128.345821527
127.475927866
126.573645811
125.638048755
124.668199972
123.663151106
122.621940065
121.543588254
120.427096997
119.271442957
118.075572237
116.838392842
115.558765113
114.235489616
112.867291826
111.452802943
109.990536004
108.478855878
106.915938811
105.299721818
103.627837125
101.897542987
100.105624066
98.2482432202
96.3207613439
94.3174940048
92.2313724979
90.0534403462
87.7721503216
85.3723666275
82.8336943725
80.1276260121
77.2133628425
74.0330628565
70.4839168524
66.3709166046
148.357998276
147.703797874
147.151442199
146.713824561
146.342200987
146.020099557
145.731000045
145.460766534
145.200303984
144.943823513
144.687440127
144.428472112
144.165007417
143.895619061
143.619185967
143.334779528
143.041590143
142.738879272
142.425948668
142.102121493
141.766735717
141.419151774
141.058625614
140.684503557
140.296093443
139.892685597
139.473558589
139.037979005
138.585201288
138.114467894
137.625009658
137.116046465
136.586787456
136.03642521
135.464142032
134.869115882
134.250513742
133.6074926
132.939200756
132.244777888
131.523355356
130.774056475
129.995996828
129.188284402
128.350019631
127.480295288
126.578196172
125.642798532
124.673169142
123.668363949
122.627426125
121.549383521
120.433245379
119.277998063
118.08259953
116.845972263
115.566994323
114.244488087
112.877205992
111.463812461
110.002860697
108.492763912
106.931758342
105.317873576
103.648872452
101.922162076
100.134700515
98.2828892264
96.362414265
94.3680372234
92.2933085189
90.130165178
87.8685119384
85.4954318044
82.9942018595
80.3429579689
77.5137177283
74.4748485714
71.1903492804
67.6371463939
147.808237084
147.444855764
147.044957787
146.675967392
146.338350706
146.030248188
145.74488468
145.474180481
145.211808197
144.953140841
144.69476038
144.43413527
144.169365674
143.898984318
143.621815127
143.3368756
143.043309452
142.740340537
142.427241774
142.103313272
141.767864129
141.420204197
141.059692259
140.685605095
140.297231936
139.893864982
139.474782558
139.039250024
138.58652071
138.115836075
137.626425802
137.117507994
136.588289974
136.037970021
135.465737854
134.870768104
134.252228405
133.609276814
132.941060552
132.246719765
131.525386606
130.776185407
129.998233186
129.190639789
128.352507971
127.482933394
126.581004433
125.645801734
124.676397433
123.671853933
122.631222215
121.553539699
120.437827359
119.283085906
118.088290897
116.852386566
115.574277989
114.252820909
112.886808758
111.474956329
110.015881726
108.508088387
106.949914714
105.33950222
103.674748489
101.953254288
100.172244294
98.3284666823
96.4180686682
94.4364405386
92.3780253301
90.2360933183
88.0024121794
85.6669386547
83.2175813453
80.640237682
77.9201543509
75.0476123919
72.0261974365
68.893067473
147.474189169
147.242393718
146.940981373
146.630004327
146.325164748
146.033141164
145.754165293
145.485038855
145.222078228
144.961993271
144.702023581
144.439931749
144.173925258
143.902555037
143.6246244
143.339116402
143.045138447
142.741881371
142.428589904
142.104541478
141.769031247
141.421362903
141.060840078
140.686752149
140.298401879
139.895072851
139.476038157
139.04056075
138.587892616
138.117274648
137.6279366
137.119097231
136.589964383
136.039734718
135.4675943
134.872719445
134.254275779
133.611420951
132.943305772
132.249070802
131.527850598
130.778771858
130.000954055
129.193509805
128.355545124
127.486159536
126.584446036
125.64949083
124.68037271
123.676162536
122.63592175
121.558700409
120.443534879
119.289444664
118.095428227
116.860457467
115.583470143
114.263362096
112.898976564
111.489092875
110.032409876
108.527515142
106.972871632
105.366784624
103.707360318
101.992456762
100.219626461
98.3860476393
96.488441011
94.5229725513
92.4851455601
90.3696951685
88.170512439
85.8806776626
83.4927683713
80.9997726814
78.397490067
75.6903583658
72.8997367485
70.0763242617
147.27079674
147.094894739
146.853700103
146.586374455
146.309187557
146.03254921
145.760859321
145.494357338
145.231591702
144.970582347
144.709294385
144.445860784
144.178656096
143.906289502
143.627568124
143.341454291
143.047025998
142.743443891
142.42992528
142.10572441
141.770117917
141.422393937
141.061843047
140.687755464
140.299420535
139.896117418
139.477116559
139.04167887
138.589054839
138.118484114
137.629195461
137.120406811
136.591325451
136.041148176
135.469061695
134.874243298
134.255861468
133.613075958
132.945038045
132.250892053
131.529773829
130.780810645
130.003124013
129.195829186
128.358035523
127.488847073
126.587362479
125.652674892
124.683871759
123.68003389
122.64023473
121.563539214
120.449001787
119.295663943
118.10255107
116.868668637
115.59299796
114.274488126
112.912047258
111.504530091
110.050718362
108.54931891
106.998948451
105.398091016
103.74507925
102.038063178
100.274972009
98.4534723042
96.5709244913
94.6243431291
92.6103723277
90.5253004094
88.3651611275
86.1260131643
83.8045714946
81.3994846186
78.9138210821
76.3597387665
73.7641949849
71.1743051025
147.147680051
146.99207252
146.785770937
146.549209167
146.293734413
146.030455411
145.765842681
145.502334539
145.24020175
144.978616494
144.716244772
144.451610104
144.183282742
143.909954162
143.630452216
143.343729359
143.048840698
142.744920443
142.43116062
142.10679336
141.771076872
141.42328474
141.062698105
140.688599364
140.300269565
139.8969829
139.478006969
139.0426005
138.590012469
138.119481661
137.630236448
137.121494736
136.592464066
136.042341953
135.470316303
134.87556532
134.257257938
133.614554716
132.946607961
132.252561432
131.531550453
130.782706134
130.005154421
129.198014803
128.360401529
127.491423962
126.590187113
125.655791885
124.687335097
123.683909135
122.644601531
121.568494603
120.454663987
119.302176997
118.110090421
116.87744734
115.603272683
114.286569727
112.92631638
111.521449243
110.07086875
108.573415377
107.027859906
105.432889608
103.787092486
102.088939255
100.336765715
98.5287582844
96.662947681
94.7372199466
92.7493614233
90.6971662746
88.578656031
86.3924992127
84.1387663924
81.8202184903
79.4444101368
77.0269501044
74.5947303772
72.1871329559
147.073600503
146.923590528
146.736835262
146.520730447
146.28102512
146.028204725
145.769568541
145.508831328
145.247465652
144.98554514
144.72232896
144.456693713
144.187398911
143.913223336
143.6330235
143.345749587
143.050440135
142.746207853
142.432223235
142.107699151
141.771877659
141.424019418
141.063395453
140.689280142
140.30094963
139.897673164
139.478715573
139.043333545
138.590774703
138.120277026
137.631068492
137.122366942
136.593380107
136.043305758
135.471331967
134.876637411
134.258391874
133.615756449
132.947884336
132.25392197
131.533010931
130.78428474
130.006870052
129.199889783
128.362462822
127.493704373
126.592726544
125.658638815
124.690548387
123.687560554
122.648778813
121.573304192
120.460235054
119.308666432
118.117689004
116.886387738
115.613840095
114.299112931
112.941257078
111.539306906
110.092270169
108.599127058
107.058823151
105.470261516
103.832297603
102.14373598
100.403331353
98.6097980432
96.7618351412
94.8581783529
92.8976964638
90.8795596578
88.8035240996
86.6704044333
84.4828177479
82.246303617
79.9709079322
77.6732507431
75.3780329151
73.117290734
147.031324288
146.881876796
146.705461698
146.501724285
146.272192662
146.026485507
145.772126854
145.513489877
145.252784561
144.99069191
144.726896051
144.460539147
144.190529693
143.915719062
143.634990536
143.347295951
143.051663301
142.747190088
142.433031015
142.108384559
141.772480589
141.424569874
141.063915715
140.68978744
140.301453829
139.898184033
139.479239808
139.043876107
138.591339579
138.12086765
137.631688033
137.123018579
136.594067232
136.044032148
135.472101957
134.877456153
134.25926561
133.616693156
132.948894363
132.255018042
131.534204459
130.785590531
130.008307981
129.201484187
128.364243104
127.495706131
126.594992947
125.661222277
124.6935126
123.690982764
122.65275254
121.577943081
120.465677288
119.315080033
118.125278215
116.895400579
115.624577192
114.311938667
112.956617242
111.557743864
110.114447532
108.625854773
107.091089657
105.509275259
103.879538321
102.201018462
100.472885364
98.6943678309
96.8648035526
94.9837202249
93.05096436
91.0669033721
89.0327354363
86.9509548631
84.8260128755
82.665213158
80.4798181584
78.2862579402
76.106600756
73.9670558506
147.012048015
146.862170362
146.690207934
146.492273329
146.267713112
146.025595329
145.773461602
145.51595418
145.255628629
144.993469096
144.729380338
144.462646638
144.192258421
143.917108228
143.636095414
143.348173812
143.052366398
142.747762834
142.433509479
142.108797121
141.772849066
141.424910743
141.064241204
140.690106479
140.301773956
139.898510111
139.479575753
139.044225117
138.591704427
138.121250994
137.63209253
137.123447094
136.594523003
136.04451895
135.472624299
134.878019506
134.259876627
133.617359845
132.94962595
132.255824816
131.535101345
130.786594877
130.009440391
129.202769543
128.365711617
127.497394505
126.596945761
125.663493659
124.696168271
123.69410256
122.656433446
121.582302875
120.470858956
119.321257164
118.132661596
116.904246324
115.63519683
114.324711192
112.97200187
111.576301735
110.136857677
108.652943227
107.123862033
105.548956216
103.927619793
102.25931855
100.543620147
98.7802377372
96.9690973174
95.1104360019
93.2049481744
91.254002728
89.2599464502
87.2265350588
85.1594809367
83.067138546
80.9612451931
78.8575752529
76.7758444351
74.7380090118
147.012050779
146.862186599
146.690235093
146.492309677
146.267757867
146.025647652
145.773520575
145.516018989
145.255698592
144.993543655
144.729459044
144.462729138
144.192344453
143.917197602
143.636188013
143.348269579
143.05246533
142.74786499
142.433614977
142.108906136
141.772961834
141.425027574
141.064362493
140.690232732
140.301905849
139.898648365
139.479721273
139.044379023
138.591868093
138.121425963
137.632280829
137.123651192
136.594745879
136.04476421
135.472896311
134.878323564
134.260219126
133.617748533
132.950070363
132.256336956
131.535695232
130.787287537
130.010252586
129.203726512
128.366844001
127.498739521
126.598548602
125.665409201
124.698463137
123.696857622
122.65974687
121.586293831
120.475672102
119.327068059
118.139683254
116.912737159
115.645470258
114.337147558
112.987062429
111.594543145
110.158961048
108.679732374
107.156335711
105.588325315
103.97535067
102.317183196
100.61375531
98.86521783
97.072018101
95.2350103787
93.3556546244
91.4361824959
89.4797435619
87.4909700414
85.4763813691
83.4448876183
81.4082882098
79.3816202763
77.3828116481
75.4309847199
147.03133263
146.881925879
146.705543775
146.501834072
146.272327784
146.026643248
145.772304424
145.513684849
145.252994906
144.990915956
144.727132458
144.460786869
144.190787945
143.915987288
143.635268384
143.347583251
143.051960061
142.747496492
142.433347414
142.108711479
141.77281874
141.424920169
141.064279311
140.690165895
140.301849013
139.898598125
139.479675483
139.044336631
138.591828946
138.121390726
137.632250804
137.12362832
136.59473276
136.044764166
135.472913504
134.878363146
134.260287423
133.617853259
132.950220893
132.256544683
131.535974001
130.787654202
130.01072764
129.204334851
128.367615871
127.499711662
126.599765627
125.666925273
124.700344003
123.699183067
122.662613713
121.589819546
120.479999188
119.332369318
118.146168176
116.920659694
115.655138254
114.348934119
113.001418951
111.61201697
110.180213302
108.705564361
107.187711956
105.626407344
104.021536369
102.37315855
100.681573044
98.9473365151
97.1713457817
95.3549785185
93.5001825808
91.6097133173
89.6875143007
87.7388402416
85.7706894634
83.7922241571
81.8151300879
79.8538300003
77.9250653839
76.046307248
147.073614592
146.923673562
146.736973893
146.520915503
146.281252441
146.028469618
145.769866269
145.509157813
145.247817501
144.985919575
144.722723757
144.457107146
144.187829688
143.913670546
143.633486571
143.346228258
143.050934441
142.746718113
142.432750044
142.10824339
141.77244053
141.424602443
141.064000448
140.689909676
140.301606604
139.898361239
139.479439174
139.044098043
138.591586663
138.121144476
137.63200123
137.123376863
136.59448162
136.044516326
135.472672811
134.878134435
134.260076673
133.617667803
132.950069687
132.25643865
131.53592645
130.787681311
130.010849078
129.204574544
128.368002919
127.500281426
126.600561047
125.667998477
124.701758266
123.701015179
122.664956827
121.59278663
120.483727188
119.337024201
118.15195102
116.92781403
115.663958905
114.359778013
113.014718736
111.628292037
110.20009048
108.729800759
107.217224556
105.662303452
104.065147019
102.426064505
100.745600536
99.0246436566
97.2645067431
95.4670000585
93.6345760413
91.7704993038
89.8790767653
87.9659134977
86.0382324883
84.1052116429
82.1783012732
80.2714625852
78.4008499977
76.5834083052
147.14770023
146.992191623
146.785969171
146.549472875
146.294057336
146.03083067
145.766263468
145.502795072
145.240697264
144.979143119
144.716799426
144.452190403
144.183886906
143.910580941
143.631100837
143.344399477
143.049532371
142.745634114
142.431897095
142.107553822
141.771862937
141.424098537
141.063542275
140.689477269
140.301185163
139.897941191
139.47901403
139.043663697
138.591140798
138.120686137
137.631530525
137.122894795
136.593989996
136.044017755
135.472170744
134.877633251
134.259581823
133.617186026
132.949609285
132.256009807
131.535541604
130.787355594
130.01060089
129.204426271
128.367981786
127.500420523
126.600900571
125.668587233
124.70265549
123.702292757
122.666701955
121.595105004
120.486746874
119.340900317
118.156871394
116.934005963
115.671697233
114.369394792
113.026615328
111.642955008
110.218103665
108.751864785
107.244176856
105.69513799
104.105044643
102.474438363
100.804150427
99.0953614962
97.3496827948
95.5692580168
93.7568857418
91.9161663302
90.0516801901
88.1692021796
86.2759632997
84.3809501497
82.4952477354
80.6324355098
78.8085415811
77.0410027119
147.27082364
147.095053577
146.853963102
146.586722572
146.30961195
146.033040507
145.761408497
145.494956868
145.232235464
144.971265411
144.710012857
144.446611667
144.179437162
143.907099195
143.628405488
143.342318901
143.047917899
142.744363545
142.430873517
142.106702393
141.771127071
141.423436245
141.062922979
140.688878808
140.300591785
139.897342208
139.478402184
139.043034289
138.59049104
138.120014665
137.630837071
137.122179994
136.593255295
136.043265389
135.471403766
134.876855572
134.258798288
133.61640259
132.948833263
132.255250211
131.534809527
130.786664666
130.009967799
129.203871365
128.367529824
127.500101593
126.600751215
125.668651796
124.702987774
123.702958021
122.667779291
121.596690224
120.488955975
119.343873667
118.160778805
116.939052819
115.678131842
114.377516888
113.036785906
111.655608268
110.233762258
108.771155292
107.267849085
105.724089673
104.140342614
102.517335984
100.856113239
99.158096817
97.4251609761
95.6597185092
93.8648237918
92.0442944602
90.2028530458
88.3462892811
86.4816638208
84.6175697045
82.7645217304
80.9356037763
79.1468568625
77.4169745145
147.474223432
147.242597108
146.941315584
146.630443832
146.325697441
146.033754753
145.754848388
145.485782185
145.222874373
144.96283633
144.702908941
144.440855895
144.174885625
143.903549896
143.625652783
143.340178025
143.046233607
142.743010784
142.429754504
142.10574244
141.770270225
141.422641106
141.062159545
140.688126169
140.299834269
139.896569214
139.477606562
139.042211363
138.589637936
138.119129829
137.629919956
137.121230873
136.592275188
136.042256051
135.470367729
134.875796245
134.257720073
133.615310979
132.947734957
132.254153243
131.533723486
130.785601185
130.008941094
129.20289884
128.36663278
127.499306065
126.600088951
125.668161424
124.702716221
123.702962304
122.66812856
121.597468324
120.490264481
119.345835583
118.163543011
116.942799143
115.683076398
114.383920106
113.044961492
111.665933402
110.246689221
108.787225365
107.287707994
105.748504626
104.170221693
102.553748456
100.900307837
99.2115164154
97.4894528038
95.7367345441
93.9566026905
92.1530144087
90.3307427129
88.4954827494
86.653983742
84.8142363685
82.9858570205
81.1809950444
79.4151653309
77.7082248868
147.80827869
147.445107335
147.045365689
146.676498652
146.338989265
146.03097835
145.745692581
145.475055153
145.212741012
144.954125031
144.695790721
144.435207845
144.170477714
143.900134112
143.623002005
143.338099959
143.044572793
142.741645392
142.428591219
142.104711296
141.769319942
141.421733536
141.061267938
140.687230336
140.298920419
139.895627852
139.476631292
139.041198081
138.588584084
138.118033904
137.628781261
137.120049368
136.591051335
136.040990734
135.469062274
134.874452599
134.256341089
133.613900512
132.946298025
132.252696463
131.53225547
130.784132208
130.007483518
129.201467656
128.365246147
127.497985961
126.598862004
125.667059965
124.701779556
123.702238101
122.667674202
121.597353183
120.490572405
119.34666788
118.165021983
116.945072596
115.686324311
114.388359373
113.050852738
111.673589435
110.256484698
108.799607706
107.303209595
105.767756261
104.193966678
102.58285731
100.935792776
99.25454299
97.5413454307
95.7989719732
94.0307978744
92.2408687072
90.4339595753
88.6156198847
86.792210943
84.9709446924
83.1601142507
81.3700865671
79.6140621475
77.910663643
148.358052004
147.704111743
147.151933775
146.714452882
146.342946311
146.020942907
145.731925344
145.461761353
145.201358642
144.94493042
144.688593371
144.429667141
144.166240794
143.896888304
143.620489476
143.33611665
143.042961545
142.740287792
142.427399565
142.103621471
141.768285361
141.420720953
141.060249205
140.686189786
140.297847137
139.894514166
139.475472075
139.039990057
138.587325462
138.116723882
137.627419764
137.118636934
136.589589076
136.039480316
135.46750586
134.872852508
134.254698846
133.612218761
132.944580392
132.250947197
131.530479429
130.782336165
130.005676251
129.1996601
128.363451816
127.496221464
126.597147657
125.665420499
124.700244903
123.700844406
122.666465972
121.596384373
120.489908416
119.346387852
118.165221514
116.945866609
115.687850019
114.390782328
113.054372093
111.678444067
110.262960424
108.808045659
107.314015723
105.781411802
104.211039126
102.604011208
100.961799455
99.2862874735
97.579828455
95.8453078325
94.0861988987
92.306610662
90.5113152288
88.7057401283
86.8959001695
85.0881785622
83.2892257034
81.5065803217
79.7473308852
78.0200930101
149.353289744
147.995473857
147.204727176
146.704884751
146.314045331
145.990290923
145.705881041
145.44137712
145.18597751
144.933535917
144.680226652
144.42353732
144.161731677
143.89353368
143.617942957
143.334124401
143.041339828
142.738904818
142.426162227
142.10246349
141.76714896
141.419569249
141.059072283
140.684974572
140.296584327
139.893197836
139.474097948
139.038552848
138.585821552
138.115151187
137.625776809
137.116922576
136.587802456
136.037620877
135.465573419
134.870847754
134.252625135
133.610078714
132.942376651
132.248683235
131.528159844
130.77996619
130.0032621
129.197209377
128.36097384
127.493727644
126.594651946
125.662939966
124.697800422
123.698461333
122.664174731
121.594221723
120.487918782
119.344624945
118.16375033
116.944766191
115.687216347
114.390729908
113.055038242
111.679993358
110.265589625
108.811989189
107.319551551
105.788867776
104.220799682
102.6165243
100.977583023
99.3059332283
97.6040025902
95.8747644781
94.1217667825
92.3491772817
90.5618007148
88.7650546466
86.9648357937
85.1670093523
83.3771024502
81.5998700194
79.8301181285
78.0381693726
151.14639834
148.218300592
147.104772697
146.577702155
146.210602944
145.916030565
145.654574368
145.406210162
145.161856328
144.916946013
144.668784343
144.415618583
144.156218583
143.889650685
143.615150101
143.332045577
143.039713389
142.737548991
142.424949903
142.101308669
141.766020152
141.418444263
141.057912011
140.683758079
140.295300226
139.891839165
139.472661005
139.037040698
138.584235969
138.113492418
137.624045117
137.115118372
136.585926231
136.035673158
135.463554725
134.868758336
134.250464176
133.607846278
132.940073482
132.246310434
131.52571887
130.777459125
130.000691753
129.194579363
128.358288711
127.490993073
126.591874956
125.66012916
124.694966276
123.695616654
122.661335071
121.591405984
120.485149873
119.341930552
118.161163756
116.942327232
115.68497258
114.388739031
113.053369589
111.678729939
110.264830634
108.811852954
107.320178947
105.79042613
104.223487056
102.620573917
100.983268259
99.3135781379
97.6139986699
95.8875360377
94.1377957012
92.3690147228
90.5860826062
88.7945193282
87.0003751571
85.2101582802
83.4303057384
81.6656491641
79.8958617183
77.9962484325
57.9466065906
54.3949838603
52.0041534935
50.0479453141
48.3777288229
46.9231729022
45.6400873398
44.4985267262
43.4765783919
42.5572876111
41.7270949612
40.9749089549
40.2915096085
39.6691395731
39.1012056967
38.5820524429
38.1067862965
37.6711379294
37.2713545692
36.9041154503
36.5664664017
36.2557681713
35.9696552566
35.7060017708
35.4628932834
35.2386020822
35.0315661323
34.8403710093
34.6637330888
34.5004855901
34.349565933
34.2100048981
34.0809161028
33.9614870559
33.8509717023
33.7486839863
33.6539917355
33.5663126375
33.4851214832
33.4099964605
33.3406063058
33.2764414221
33.2170481788
33.1620666064
33.111168123
33.0640442399
33.0204076073
32.9799927147
32.9425525017
32.9078576559
32.8756952911
32.8458675478
32.8181903443
32.7924937226
32.768616851
32.7464148521
32.7257531723
32.7065063833
32.6885582005
32.6718009111
32.65613528
32.6414695611
32.6277181147
32.6148014193
32.6026465979
32.5911866212
32.5803594368
32.5701084626
32.5603822012
32.5511333178
32.542318037
32.5338959308
32.5258236875
32.518070272
32.5106054733
32.5033996702
32.4964261579
32.4896628486
32.4830891964
32.4766847012
32.4704309533
32.4643091421
32.458302837
32.4523981935
32.4465841275
32.4408492732
32.4351808118
32.4295686133
32.4240038998
32.418474376
32.4129664867
32.4074615795
32.4019791416
32.3965018394
32.391009615
32.3855228063
32.3800336276
32.3745460539
32.3690598438
32.3635077753
32.3580635796
32.3525849154
32.3470508353
32.3414512779
32.3357800828
32.330031648
32.3241965091
32.3182688998
32.312240971
32.3061011772
32.2998425804
32.2934563815
32.2869291831
32.2802503997
32.2734099048
32.2663966822
32.2591961546
32.2517925033
32.2441705438
32.2363137925
32.2282048893
32.2198289757
32.2111618528
32.2021841606
32.1928745352
32.1832069519
32.1731547483
32.162667535
32.1516718901
32.1401280606
32.128094837
32.1162549847
32.1036464124
32.0905623163
32.0767840822
32.06230393
32.0469853463
32.030949945
32.0138032987
31.9955204641
31.9755273297
31.9529906658
31.9264321876
31.8931506119
31.8484067269
31.7847807001
31.6897257071
31.5432653816
31.3088450053
30.9219785757
30.2829510691
29.2651888273
27.7440266903
25.6330962755
22.9067086128
19.6154286452
15.867149437
11.6144418473
6.58028440326
1.56137740803
61.1283964006
57.075545341
54.3642811357
52.2132794036
50.4132662502
48.865681077
47.5120971568
46.3150383834
45.2480938716
44.2914283755
43.4295585831
42.6500629142
41.9427772501
41.2992599868
40.7124119537
40.1761979587
39.6854340124
39.2356261317
38.822844212
38.443626262
38.0949034556
37.7739429398
37.4783011147
37.2057868711
36.9544301508
36.7224557163
36.5082601514
36.3103931497
36.1275390142
35.9585030882
35.80219792
35.6576333419
35.5239048287
35.400185375
35.2857174366
35.1798062237
35.0818134885
34.9911508146
34.9072693174
34.8296385255
34.7577161993
34.6911197725
34.6295078722
34.5724824847
34.5196891663
34.4708102072
34.4255504358
34.3836372222
34.3448152066
34.3088478075
34.2755149713
34.2446122973
34.2159495504
34.189354355
34.1646581038
34.1417080734
34.1203636151
34.1004940132
34.0819780721
34.0647037183
34.0485674058
34.0334736556
34.0193332087
34.006063519
33.993588702
33.9818388046
33.9707491446
33.9602612842
33.9503212624
33.940879429
33.9318902709
33.9233149478
33.9151071137
33.9072319359
33.899658157
33.8923548351
33.8852944186
33.8784540486
33.8718117994
33.865346812
33.8590401361
33.8528707315
33.846822129
33.8408796589
33.8350334766
33.8292688214
33.8235741329
33.8179395386
33.8123528139
33.8068028242
33.8012696188
33.7957370636
33.7902509986
33.7847711828
33.7792824164
33.7738472553
33.7684173361
33.7629621192
33.7574358598
33.751841757
33.7462151946
33.7405553737
33.7348589764
33.7291180028
33.7233191977
33.7174640648
33.7115362612
33.7055338943
33.6994449091
33.6932638134
33.6869738805
33.6805779524
33.6740524352
33.6673938484
33.6605891537
33.6536274486
33.6465006634
33.6391841258
33.6316749536
33.6239503376
33.6160031323
33.6078143149
33.5993665163
33.5906464206
33.5816356392
33.5723203286
33.5626738973
33.5526721235
33.5422859206
33.5315197143
33.5204773289
33.5094787709
33.4978624807
33.4856964793
33.4732340158
33.4604109151
33.4472415546
33.4333576121
33.4188660556
33.4037009981
33.3874068377
33.3692086686
33.347604338
33.3197024236
33.2802865356
33.2207554043
33.1265765995
32.9738541229
32.7200877585
32.2933065757
31.5870168493
30.4720590673
28.8280257078
26.57934953
23.7123536147
20.2817099976
16.3933209744
12.0151318729
6.88324473345
1.69961164768
63.336269365
59.4027010893
56.5363424156
54.2538753967
52.3539301529
50.7298672094
49.3164339775
48.0713738112
46.9650330722
45.9753573398
45.0853159911
44.2813887
43.5526182105
42.8899818844
42.2859488421
41.734158394
41.2291781879
40.7663214789
40.3415070571
39.9511526507
39.592092502
39.2615144828
38.9569095123
38.6760314116
38.4168634532
38.1775905178
37.956574327
37.7523340491
37.5635266726
37.3889328383
37.2274423315
37.0780432207
36.9398101218
36.8118950964
36.6935194405
36.5839660883
36.4825736304
36.3887310383
36.3018760399
36.2214982988
36.1471142794
36.0782160899
36.0144025242
35.9553315777
35.9006581641
35.8500538727
35.8032099043
35.7598422702
35.7196839002
35.6824899987
35.6480327184
35.6160998877
35.5864932261
35.559023007
35.5335237398
35.5098380022
35.4878210518
35.4673374487
35.4482615087
35.4304768223
35.413875373
35.398358011
35.383832219
35.3702126496
35.3574205577
35.3453833468
35.3340337162
35.3233109286
35.3131586738
35.3035249583
35.2943613851
35.2856184396
35.2772621747
35.2692548433
35.2615619354
35.2541513289
35.2469952535
35.240069058
35.2333492152
35.2268152617
35.2204489754
35.2142220072
35.2081222439
35.2021352799
35.196250478
35.1904528406
35.1847307277
35.1790759342
35.1734754998
35.1679190998
35.1623855459
35.1569065023
35.1514269754
35.1459554956
35.1404996728
35.134996291
35.1294930443
35.124017079
35.1184519677
35.1128648601
35.1072615343
35.1016240655
35.0959453937
35.0902217783
35.0844394152
35.0785991805
35.0726879892
35.0667038567
35.0606333864
35.0544776097
35.0482180281
35.0418568313
35.0353768235
35.0287710972
35.0220313435
35.0151461154
35.0081082092
35.0008989785
34.9935133378
34.9859348754
34.9781578365
34.9701657002
34.9619478003
34.9534912582
34.9447880463
34.9358268961
34.926595474
34.9170834772
34.9072865292
34.8972386505
34.8870157197
34.8767306324
34.8660788138
34.8551305478
34.8440593082
34.8328688253
34.8215739885
34.8100325743
34.7982556897
34.7862372692
34.7736444334
34.7597599802
34.7430575685
34.7204431127
34.6861832448
34.6305172665
34.5367553702
34.3771392636
34.103369587
33.6364638627
32.8640005074
31.6551417336
29.8940975503
27.5152965954
24.5153054779
20.9510974852
16.9253535252
12.420818671
7.18761085226
1.83630045678
65.1407811786
61.4162261732
58.5131454433
56.1595302207
54.1915297905
52.5096303551
51.0484462231
49.7638587107
48.624396006
47.6065492162
46.6921819783
45.866947897
45.1192746949
44.4396805627
43.8202896748