/*--------------------------------*- C++ -*----------------------------------*\
| =========                 |                                                 |
| \\      /  F ield         | OpenFOAM: The Open Source CFD Toolbox           |
|  \\    /   O peration     | Version:  2106                                  |
|   \\  /    A nd           | Website:  www.openfoam.com                      |
|    \\/     M anipulation  |                                                 |
\*---------------------------------------------------------------------------*/
FoamFile
{
    version     2.0;
    format      ascii;
    arch        "LSB;label=32;scalar=64";
    class       surfaceScalarField;
    location    "0.138";
    object      phi;
}
// * * * * * * * * * * * * * * * * * * * * * * * * * * * * * * * * * * * * * //

dimensions      [0 3 -1 0 0 0 0];

oriented        oriented;

internalField   nonuniform List<scalar> 
799
(
1.61914e-32
4.23774e-32
5.3923e-32
4.14323e-32
1.4541e-32
-5.39275e-32
-1.15134e-31
-1.62831e-31
-1.74695e-31
-1.38736e-31
-8.47404e-32
-2.42604e-32
1.24236e-32
2.03811e-32
-2.98632e-33
-4.39925e-32
-9.66576e-32
-1.50781e-31
-1.92513e-31
-2.21888e-31
-2.15111e-31
-1.80354e-31
-1.20505e-31
-5.10386e-32
-1.17361e-32
-3.91731e-33
-4.68505e-32
-1.18734e-31
-1.86283e-31
-2.40114e-31
-2.44199e-31
-2.18118e-31
-1.72994e-31
-1.19147e-31
-9.54475e-32
-8.55459e-32
-1.03908e-31
-1.42959e-31
-1.73976e-31
-2.11795e-31
-2.21872e-31
-2.10484e-31
-1.88093e-31
-1.42432e-31
-1.18218e-31
-1.0892e-31
-1.25803e-31
-1.75716e-31
-2.16598e-31
-2.53795e-31
-2.5661e-31
-2.23625e-31
-1.81279e-31
-1.2778e-31
-1.04143e-31
-1.1105e-31
-1.44874e-31
-2.04662e-31
-2.50738e-31
-2.76532e-31
-2.63991e-31
-2.11439e-31
-1.49907e-31
-9.55259e-32
-8.32408e-32
-1.2449e-31
-1.98767e-31
-2.82745e-31
-3.28604e-31
-3.11498e-31
-2.40502e-31
-1.39112e-31
-6.30039e-32
-4.67775e-32
-9.41268e-32
-1.88146e-31
-2.74869e-31
-3.19683e-31
-3.08333e-31
-2.49212e-31
-1.83076e-31
-1.34152e-31
-1.18845e-31
-1.33889e-31
-1.58024e-31
-1.83964e-31
-2.03521e-31
-2.21622e-31
-2.41873e-31
-2.54066e-31
-2.52016e-31
-2.20799e-31
-1.68139e-31
-1.14618e-31
-8.1834e-32
-1.00592e-31
-1.59045e-31
-2.40674e-31
-3.09878e-31
-3.2307e-31
-2.87617e-31
-2.01661e-31
-1.10641e-31
-5.72046e-32
-4.79647e-32
-1.0569e-31
-1.84728e-31
-2.58282e-31
-3.01966e-31
-2.84719e-31
-2.4063e-31
-1.77612e-31
-1.3071e-31
-1.21866e-31
-1.3304e-31
-1.63391e-31
-1.79962e-31
-1.77191e-31
-1.64175e-31
-1.50001e-31
-1.59638e-31
-1.89843e-31
-2.31084e-31
-2.61607e-31
-2.59888e-31
-2.24911e-31
-1.65229e-31
-1.05455e-31
-6.73246e-32
-6.16446e-32
-9.12683e-32
-1.43321e-31
-2.03954e-31
-2.58945e-31
-2.90477e-31
-2.92876e-31
-2.58817e-31
-1.94329e-31
-1.20233e-31
-5.50952e-32
-2.94426e-32
-5.16348e-32
-1.14464e-31
-1.98274e-31
-2.62724e-31
-2.88824e-31
-2.6493e-31
-2.04272e-31
-1.4112e-31
-9.73798e-32
-9.61605e-32
-1.30286e-31
-1.7683e-31
-2.13453e-31
-2.13492e-31
-1.80093e-31
-1.28771e-31
-8.65119e-32
-8.31415e-32
-1.22603e-31
-1.93109e-31
-2.5932e-31
-2.85605e-31
-2.54018e-31
-1.73116e-31
-8.30208e-32
-2.41659e-32
-3.12828e-32
-9.69525e-32
-1.86043e-31
-2.55904e-31
-2.61851e-31
-2.14469e-31
-1.35964e-31
-7.21953e-32
-6.4642e-32
-9.9416e-32
-1.67043e-31
-2.15334e-31
-2.16127e-31
-1.78452e-31
-1.05984e-31
-5.49567e-32
-3.98748e-32
-6.72255e-32
-1.3279e-31
-1.86859e-31
-2.21325e-31
-2.11554e-31
-1.62305e-31
-1.04671e-31
-4.63471e-32
-2.08211e-32
-2.67471e-32
-5.55691e-32
-1.01265e-31
-1.35888e-31
-1.57002e-31
-1.57532e-31
-1.36524e-31
-1.06524e-31
-6.73917e-32
-2.98555e-32
-3.39972e-33
7.96101e-33
-6.23811e-33
-4.07088e-32
-8.15992e-32
-1.12443e-31
-1.09513e-31
-6.91499e-32
-4.38403e-33
5.98182e-32
8.81925e-32
6.74092e-32
7.67363e-33
-5.91358e-32
-8.75049e-32
-5.21904e-32
4.01707e-32
1.53342e-31
2.30845e-31
2.32258e-31
1.57581e-31
4.09012e-32
-5.08325e-32
-6.21835e-32
1.90423e-32
1.7013e-31
3.1965e-31
4.04311e-31
3.96211e-31
3.00437e-31
1.82399e-31
1.01709e-31
1.00341e-31
1.90839e-31
3.25023e-31
4.57061e-31
5.38437e-31
5.44936e-31
5.01193e-31
4.36282e-31
3.95342e-31
4.07109e-31
4.68849e-31
5.63559e-31
6.56966e-31
7.20084e-31
7.43534e-31
7.41599e-31
7.38468e-31
7.64704e-31
8.31069e-31
9.18781e-31
1.00589e-30
1.05635e-30
1.06272e-30
1.04963e-30
1.04486e-30
1.09206e-30
1.199e-30
1.33987e-30
1.48216e-30
1.57907e-30
1.61831e-30
1.62241e-30
1.619e-30
1.6502e-30
1.73043e-30
1.84207e-30
1.97259e-30
2.09133e-30
2.19148e-30
2.28712e-30
2.37558e-30
2.47511e-30
2.5788e-30
2.67701e-30
2.77997e-30
2.87994e-30
2.99338e-30
3.1221e-30
3.25479e-30
3.39055e-30
3.51613e-30
3.64254e-30
3.78622e-30
3.95904e-30
4.16279e-30
4.37384e-30
4.56109e-30
4.70021e-30
4.79886e-30
4.88894e-30
5.0222e-30
5.23364e-30
5.51688e-30
5.83846e-30
6.13224e-30
6.36002e-30
6.51935e-30
6.64254e-30
6.7971e-30
7.01756e-30
7.31575e-30
7.66107e-30
7.99791e-30
8.30026e-30
8.55431e-30
8.79105e-30
9.04977e-30
9.34845e-30
9.69606e-30
1.00607e-29
1.04173e-29
1.07536e-29
1.10693e-29
1.13982e-29
1.17581e-29
1.21602e-29
1.25984e-29
1.30379e-29
1.34648e-29
1.38645e-29
1.42489e-29
1.46531e-29
1.50915e-29
1.55867e-29
1.61226e-29
1.66671e-29
1.72006e-29
1.76907e-29
1.81553e-29
1.86192e-29
1.91129e-29
1.96787e-29
2.03045e-29
2.09772e-29
2.16532e-29
2.22797e-29
2.28419e-29
2.33426e-29
2.37849e-29
2.43874e-29
2.50994e-29
2.66382e-29
2.92404e-29
3.30352e-29
4.0091e-29
4.29533e-29
4.59195e-29
2.90265e-29
-1.35458e-29
-6.47399e-29
-1.7015e-28
-1.60606e-28
-9.96277e-29
1.8858e-28
8.33001e-28
1.19856e-27
1.84124e-27
1.07983e-27
-7.37846e-28
-3.01294e-27
-7.51914e-27
-7.18934e-27
-5.90681e-27
1.77275e-27
1.69009e-26
2.26928e-26
3.30737e-26
1.66734e-26
-1.35858e-26
-4.09819e-26
-9.04701e-26
-7.12968e-26
-4.21691e-26
3.15961e-26
1.54651e-25
1.62761e-25
1.92024e-25
5.43376e-26
-1.45574e-25
-2.41536e-25
-4.15684e-25
-2.36497e-25
-3.16165e-26
2.19181e-25
5.89222e-25
4.55183e-25
3.83061e-25
-3.70569e-26
-5.43975e-25
-5.80022e-25
-7.54225e-25
-2.54551e-25
2.23655e-25
5.06875e-25
9.1532e-25
5.06886e-25
2.23671e-25
-2.54537e-25
-7.5422e-25
-5.80028e-25
-5.43987e-25
-3.7071e-26
3.83052e-25
4.55182e-25
5.89227e-25
2.19188e-25
-3.16108e-26
-2.36495e-25
-4.15686e-25
-2.41541e-25
-1.45578e-25
5.43339e-26
1.92022e-25
1.62761e-25
1.54651e-25
3.15963e-26
-4.21694e-26
-7.12975e-26
-9.04709e-26
-4.0983e-26
-1.35867e-26
1.66724e-26
3.30727e-26
2.26918e-26
1.68999e-26
1.77192e-27
-5.90755e-27
-7.18999e-27
-7.51974e-27
-3.01357e-27
-7.38488e-28
1.07913e-27
1.84051e-27
1.19782e-27
8.32275e-28
1.87927e-28
-1.00201e-28
-1.61079e-28
-1.70556e-28
-6.51447e-29
-1.3995e-29
2.84717e-29
4.52823e-29
4.2284e-29
3.94633e-29
3.25358e-29
2.8878e-29
2.63964e-29
2.49057e-29
2.41538e-29
2.34675e-29
2.29152e-29
2.23393e-29
2.17621e-29
2.11751e-29
2.05978e-29
2.00394e-29
1.9514e-29
1.9014e-29
1.85159e-29
1.79989e-29
1.74486e-29
1.68741e-29
1.6311e-29
1.57863e-29
1.53266e-29
1.49253e-29
1.45529e-29
1.41835e-29
1.37814e-29
1.33487e-29
1.2893e-29
1.24348e-29
1.20056e-29
1.16115e-29
1.12661e-29
1.0958e-29
1.06675e-29
1.03775e-29
1.00609e-29
9.71302e-30
9.34384e-30
8.97588e-30
8.64341e-30
8.36887e-30
8.14601e-30
7.95621e-30
7.75625e-30
7.51111e-30
7.22178e-30
6.89497e-30
6.58186e-30
6.31864e-30
6.11578e-30
5.97792e-30
5.85313e-30
5.71057e-30
5.52285e-30
5.2769e-30
5.0122e-30
4.75428e-30
4.54471e-30
4.40513e-30
4.31731e-30
4.25712e-30
4.17518e-30
4.03458e-30
3.82996e-30
3.5814e-30
3.3391e-30
3.15806e-30
3.06292e-30
3.0455e-30
3.05875e-30
3.03744e-30
2.94232e-30
2.76394e-30
2.54075e-30
2.33039e-30
2.18071e-30
2.11256e-30
2.1031e-30
2.11482e-30
2.09955e-30
2.03745e-30
1.92922e-30
1.79309e-30
1.6652e-30
1.55695e-30
1.48775e-30
1.44731e-30
1.42075e-30
1.39964e-30
1.3548e-30
1.29667e-30
1.21862e-30
1.13726e-30
1.07831e-30
1.03204e-30
1.0161e-30
9.98547e-31
9.63242e-31
9.11554e-31
8.27678e-31
7.55052e-31
7.02693e-31
6.82467e-31
7.01216e-31
7.1492e-31
7.16371e-31
6.83382e-31
6.17081e-31
5.51022e-31
4.89794e-31
4.54415e-31
4.36799e-31
4.16816e-31
3.98822e-31
3.76053e-31
3.69272e-31
3.91807e-31
4.2694e-31
4.6009e-31
4.46783e-31
3.68414e-31
2.46077e-31
1.11891e-31
3.97193e-32
6.28756e-32
1.72662e-31
3.31048e-31
4.41553e-31
4.53793e-31
3.479e-31
1.54629e-31
-2.47775e-32
-1.27436e-31
-9.88593e-32
4.61937e-32
2.21694e-31
3.60152e-31
3.78644e-31
2.73852e-31
1.02279e-31
-7.2348e-32
-1.54339e-31
-1.26371e-31
-1.08285e-32
1.39358e-31
2.35117e-31
2.53034e-31
1.85784e-31
7.05974e-32
-2.78839e-32
-8.98033e-32
-8.97722e-32
-4.88803e-32
3.35157e-33
5.77019e-32
8.71724e-32
1.01843e-31
9.83037e-32
7.51063e-32
4.49938e-32
1.48582e-33
-3.64978e-32
-6.43975e-32
-7.54479e-32
-6.35403e-32
-3.8973e-32
-1.2338e-33
3.46472e-32
6.56419e-32
7.96395e-32
7.04439e-32
4.16497e-32
-9.82577e-33
-5.68729e-32
-9.48656e-32
-1.055e-31
-8.25088e-32
-4.77036e-32
2.86106e-33
3.75677e-32
5.44767e-32
5.60777e-32
2.98008e-32
1.70174e-33
-3.64317e-32
-7.03065e-32
-8.5239e-32
-8.88636e-32
-6.34084e-32
-2.6752e-32
1.21033e-32
4.33756e-32
4.63344e-32
3.02946e-32
-5.13983e-33
-4.40857e-32
-7.08302e-32
-8.21003e-32
-7.03346e-32
-4.44002e-32
-1.20052e-32
1.57415e-32
2.90424e-32
2.3259e-32
3.04538e-33
-2.17088e-32
-4.06732e-32
-4.07906e-32
-3.21091e-32
-1.8197e-32
-1.36476e-32
-2.6483e-32
-3.73691e-32
-4.40572e-32
-2.3716e-32
1.58874e-32
4.94633e-32
6.3834e-32
2.94803e-32
-3.16591e-32
-9.36453e-32
-1.23499e-31
-9.10506e-32
-1.99108e-32
6.51656e-32
1.13877e-31
9.99649e-32
3.60284e-32
-5.31512e-32
-1.1147e-31
-1.16549e-31
-6.58758e-32
1.46626e-32
7.46313e-32
9.28148e-32
5.5727e-32
-1.00494e-32
-6.45924e-32
-8.48601e-32
-5.24605e-32
7.1246e-33
6.29072e-32
8.78777e-32
6.097e-32
3.2611e-33
-6.06218e-32
-9.97398e-32
-8.83799e-32
-3.8643e-32
3.30583e-32
9.59429e-32
1.18677e-31
1.01241e-31
4.55016e-32
-2.58571e-32
-8.17016e-32
-1.12465e-31
-1.01083e-31
-5.48356e-32
8.08895e-33
7.76308e-32
1.23159e-31
1.35617e-31
1.08613e-31
4.18363e-32
-3.60405e-32
-1.0618e-31
-1.36938e-31
-1.11238e-31
-3.9611e-32
5.92976e-32
1.40415e-31
1.70704e-31
1.36726e-31
4.83646e-32
-5.1305e-32
-1.19615e-31
-1.25331e-31
-6.49176e-32
2.94667e-32
1.14128e-31
1.50168e-31
1.19835e-31
4.41467e-32
-4.03558e-32
-9.2899e-32
-8.39277e-32
-2.66012e-32
5.59182e-32
1.21297e-31
1.33509e-31
9.9387e-32
2.54727e-32
-4.29351e-32
-7.1379e-32
-5.86686e-32
3.69237e-33
6.87474e-32
1.11686e-31
1.2028e-31
7.79095e-32
2.67855e-32
-2.14934e-32
-4.38518e-32
-2.42441e-32
8.88486e-33
5.39877e-32
8.47394e-32
9.03208e-32
8.21876e-32
5.77762e-32
3.5756e-32
2.26568e-32
1.53969e-32
1.7399e-32
1.97999e-32
1.79458e-32
1.90703e-32
1.91299e-32
2.88793e-32
5.16443e-32
7.55017e-32
1.04596e-31
1.13097e-31
9.90607e-32
6.38687e-32
5.73021e-33
-3.79965e-32
-6.38871e-32
-4.91066e-32
4.31002e-33
6.83807e-32
1.31605e-31
1.55084e-31
1.39813e-31
8.79217e-32
2.41915e-32
-2.49082e-32
-4.55174e-32
-2.43254e-32
6.29012e-33
5.49853e-32
7.53024e-32
7.58681e-32
6.87828e-32
2.38993e-32
1.44339e-32
-1.8115e-32
-2.43978e-32
-4.55201e-33
)
;

boundaryField
{
    left
    {
        type            calculated;
        value           uniform 0;
    }
    right
    {
        type            calculated;
        value           uniform 0;
    }
    empty
    {
        type            empty;
        value           nonuniform List<scalar> 0();
    }
}


// ************************************************************************* //
