/*--------------------------------*- C++ -*----------------------------------*\
| =========                 |                                                 |
| \\      /  F ield         | OpenFOAM: The Open Source CFD Toolbox           |
|  \\    /   O peration     | Version:  2106                                  |
|   \\  /    A nd           | Website:  www.openfoam.com                      |
|    \\/     M anipulation  |                                                 |
\*---------------------------------------------------------------------------*/
FoamFile
{
    version     2.0;
    format      ascii;
    arch        "LSB;label=32;scalar=64";
    class       surfaceScalarField;
    location    "0.18";
    object      phi;
}
// * * * * * * * * * * * * * * * * * * * * * * * * * * * * * * * * * * * * * //

dimensions      [0 3 -1 0 0 0 0];

oriented        oriented;

internalField   nonuniform List<scalar> 
22100
(
3.38461204487e-05
1.61538795463e-05
2.24572101361e-05
1.13889102486e-05
1.62585534437e-05
6.19865664167e-06
1.27977766477e-05
3.46077674369e-06
1.08046429503e-05
1.99313365631e-06
9.60459007743e-06
1.20005283449e-06
8.85132243279e-06
7.53267606594e-07
8.36435368697e-06
4.86968703463e-07
8.0443358172e-06
3.20017812018e-07
7.83284097577e-06
2.11494767402e-07
7.69339770879e-06
1.39443176144e-07
7.60224067097e-06
9.11569359904e-08
7.54347770189e-06
5.87628651626e-08
7.5063405722e-06
3.71370327178e-08
7.4835008236e-06
2.28396612666e-08
7.46997973714e-06
1.35210111119e-08
7.46241482173e-06
7.56484450028e-09
7.45854646632e-06
3.86827494839e-09
7.45682710038e-06
1.7192713137e-09
7.45642008626e-06
4.06902568982e-10
7.45676951306e-06
-3.49545361078e-10
7.45745530072e-06
-6.85911168465e-10
7.45821326883e-06
-7.58087439211e-10
7.4589382179e-06
-7.25062597449e-10
7.45958219363e-06
-6.44090749422e-10
7.4601258158e-06
-5.43743078661e-10
7.46056764199e-06
-4.41954522639e-10
7.46091613157e-06
-3.48623228946e-10
7.46118419786e-06
-2.68201171394e-10
7.4613859333e-06
-2.01867842834e-10
7.46153471406e-06
-1.48907751317e-10
7.46164225217e-06
-1.07664902188e-10
7.46171826806e-06
-7.61433917134e-11
7.46177090016e-06
-5.27592410763e-11
7.4618041305e-06
-3.336293198e-11
7.46182293734e-06
-1.89388010949e-11
7.46183206886e-06
-9.25648021225e-12
7.46183496741e-06
-3.01768067362e-12
7.461833566e-06
1.28553665021e-12
7.46182897541e-06
4.48212217557e-12
7.46182211324e-06
6.76560395055e-12
7.46181356988e-06
8.4602301625e-12
7.46180369983e-06
9.79855119977e-12
7.4617926711e-06
1.09585496004e-11
7.46178049676e-06
1.20976178763e-11
7.46176707439e-06
1.33407777799e-11
7.46175219469e-06
1.47923855982e-11
7.46173554594e-06
1.65538878663e-11
7.46171670469e-06
1.87426780346e-11
7.46169514134e-06
2.14639724644e-11
7.46167023045e-06
2.48149113547e-11
7.46164123105e-06
2.89066398153e-11
7.46160730345e-06
3.38378278019e-11
7.46156753972e-06
3.96716434374e-11
7.46152101459e-06
4.64226646959e-11
7.46146686966e-06
5.40297614296e-11
7.46140439773e-06
6.23586911345e-11
7.46133336403e-06
7.09310037851e-11
7.46125444978e-06
7.88305929704e-11
7.46117000753e-06
8.4344529842e-11
7.46108595661e-06
8.39057543261e-11
7.461014767e-06
7.10707908226e-11
7.46096464291e-06
5.00109802828e-11
7.46095409843e-06
1.03888877246e-11
7.46101900565e-06
-6.5028585152e-11
7.46121768067e-06
-1.98802063403e-10
7.46164484314e-06
-4.27276328546e-10
7.46245103099e-06
-8.06339150557e-10
7.46387246465e-06
-1.42160247719e-09
7.46626618609e-06
-2.39388478472e-09
7.47008359484e-06
-3.81756758435e-09
7.47654220499e-06
-6.45873223699e-09
7.4873390494e-06
-1.0796965544e-08
7.50556749232e-06
-1.82285820197e-08
7.5388563074e-06
-3.3288979175e-08
7.60828267429e-06
-6.9426580044e-08
7.77544382335e-06
-1.67161370248e-07
8.23173665359e-06
-4.56293003381e-07
9.70415865679e-06
-1.47242217643e-06
-5.47311650693e-06
1.51772747297e-05
5.02175948806e-05
1.59362845972e-05
4.42441116769e-05
1.7362393345e-05
3.77795016168e-05
1.26632666202e-05
3.26461441995e-05
8.5941340824e-06
2.8938092151e-05
5.70118563834e-06
2.63596218066e-05
3.7785231061e-06
2.45875174305e-05
2.52537189358e-06
2.3373475384e-05
1.70101064312e-06
2.25435263159e-05
1.14996674605e-06
2.19782175817e-05
7.76803338736e-07
2.15955149764e-05
5.22145591336e-07
2.13387383184e-05
3.47933395521e-07
2.11684966983e-05
2.29004296664e-07
2.1057338992e-05
1.48294566613e-07
2.09861509831e-05
9.4027512155e-08
2.0941678504e-05
5.79933300238e-08
2.0914796574e-05
3.44465943886e-08
2.08992973368e-05
1.93673103616e-08
2.0891073428e-05
9.94295131999e-09
2.08872729828e-05
4.20710554074e-09
2.08862037691e-05
7.19425106746e-10
2.08864493321e-05
-9.31711103889e-10
2.08873206024e-05
-1.62958936442e-09
2.08884599489e-05
-1.86464146632e-09
2.08896331479e-05
-1.81752317064e-09
2.08907160412e-05
-1.62687266794e-09
2.08916535753e-05
-1.37973195829e-09
2.08924310844e-05
-1.12637907951e-09
2.08930563376e-05
-8.93700855965e-10
2.08935485441e-05
-6.94320748357e-10
2.08939324593e-05
-5.33056607963e-10
2.08942341833e-05
-4.09612519792e-10
2.08944453633e-05
-2.87543792363e-10
2.08945926627e-05
-2.00276037591e-10
2.0894693303e-05
-1.34214094001e-10
2.08947589812e-05
-8.48237534713e-11
2.08947998067e-05
-5.02807973984e-11
2.08948239717e-05
-2.73710957456e-11
2.08948362995e-05
-1.12186849102e-11
2.08948396969e-05
9.17516611368e-13
2.08948365638e-05
9.73977842056e-12
2.08948285484e-05
1.63268035734e-11
2.0894816774e-05
2.14309398395e-11
2.08948019459e-05
2.56514655525e-11
2.08947844229e-05
2.9490465144e-11
2.08947643363e-05
3.32996627584e-11
2.08947416669e-05
3.73310041164e-11
2.08947162844e-05
4.17932883646e-11
2.08946879569e-05
4.69144351876e-11
2.08946564189e-05
5.28441386576e-11
2.08946214325e-05
5.96470234338e-11
2.08945828122e-05
6.73712719982e-11
2.08945405141e-05
7.59731940453e-11
2.08944947736e-05
8.52409342505e-11
2.08944463455e-05
9.46706327146e-11
2.08943969122e-05
1.03283951277e-10
2.08943495964e-05
1.09510723277e-10
2.08943100568e-05
1.102898928e-10
2.08942876641e-05
1.01023719108e-10
2.08942974423e-05
7.44002833037e-11
2.08943653609e-05
1.57570694058e-11
2.08945408383e-05
-1.04669743553e-10
2.08948919814e-05
-3.01344294043e-10
2.08955364784e-05
-6.3432054767e-10
2.08965876939e-05
-1.11651327013e-09
2.08982171765e-05
-1.82857503482e-09
2.09007841796e-05
-2.99458940282e-09
2.09048386396e-05
-4.86109837339e-09
2.09112531776e-05
-7.83644543735e-09
2.09214576317e-05
-1.25986362585e-08
2.09379534103e-05
-2.03136308592e-08
2.09649025435e-05
-3.34081690958e-08
2.10092771867e-05
-5.51718837163e-08
2.10843097818e-05
-9.32613880683e-08
2.12160426829e-05
-1.65022114394e-07
2.14576271088e-05
-3.11011264861e-07
2.19174684684e-05
-6.27003064069e-07
2.28087631281e-05
-1.34758802664e-06
2.446191473e-05
-3.12557391749e-06
-7.0747735688e-06
2.60635718878e-05
5.35171052933e-05
1.24191792456e-05
5.29349682369e-05
1.79445303132e-05
4.96538400105e-05
1.59443947768e-05
4.5840181301e-05
1.24077927199e-05
4.24400922582e-05
9.10127461843e-06
3.97291722551e-05
6.48944304294e-06
3.76873057252e-05
4.56723834174e-06
3.6197662831e-05
3.19065343723e-06
3.51326121087e-05
2.21501734699e-06
3.43823669469e-05
1.52704835945e-06
3.38606258366e-05
1.04388654557e-06
3.35023454601e-05
7.06213612108e-07
3.32596004275e-05
4.71749177762e-07
3.30975900017e-05
3.10304855301e-07
3.29913338128e-05
2.00283575166e-07
3.29230918144e-05
1.26235198373e-07
3.28804037248e-05
7.71345391083e-08
3.2854618422e-05
4.51524411089e-08
3.28397911468e-05
2.47700405193e-08
3.28318644524e-05
1.21336075091e-08
3.28279948361e-05
4.58885315318e-09
3.28269960226e-05
6.6921134141e-11
3.28271766757e-05
-1.81042435236e-09
3.28280249906e-05
-2.71314479931e-09
3.2829140692e-05
-2.93342204588e-09
3.28302879013e-05
-2.77428816373e-09
3.28313438775e-05
-2.43591982485e-09
3.2832254324e-05
-2.03703716862e-09
3.28330043998e-05
-1.64398260656e-09
3.28336001896e-05
-1.29031405837e-09
3.28340566535e-05
-9.89720836869e-10
3.28343917733e-05
-7.44927955502e-10
3.28346582794e-05
-5.54248023805e-10
3.2834874657e-05
-4.16852738919e-10
3.28350221953e-05
-2.81947130568e-10
3.28351216515e-05
-1.84467247861e-10
3.28351877282e-05
-1.16537118643e-10
3.28352298343e-05
-6.96536392493e-11
3.28352548728e-05
-3.64262510951e-11
3.28352667661e-05
-1.11272548548e-11
3.28352690586e-05
7.31257856155e-12
3.28352642285e-05
2.10313732689e-11
3.28352540774e-05
3.14597163334e-11
3.28352398206e-05
3.9786673528e-11
3.28352221979e-05
4.69894519384e-11
3.28352016636e-05
5.37047771671e-11
3.28351785066e-05
6.03498755802e-11
3.28351529037e-05
6.72531950703e-11
3.28351248732e-05
7.47964441113e-11
3.28350944669e-05
8.30982465504e-11
3.283506197e-05
9.19940261887e-11
3.28350279193e-05
1.0127569712e-10
3.28349932501e-05
1.10486759107e-10
3.28349596001e-05
1.18723974253e-10
3.28349298017e-05
1.24310535518e-10
3.28349084763e-05
1.24461233123e-10
3.28349024499e-05
1.15395506182e-10
3.28349226481e-05
8.99475624107e-11
3.28349861719e-05
3.73282852981e-11
3.28351221392e-05
-6.16949912905e-11
3.28353814926e-05
-2.43741300907e-10
3.28358516653e-05
-5.75034310983e-10
3.28365557012e-05
-1.0056248796e-09
3.28375801055e-05
-1.65894281774e-09
3.28391794199e-05
-2.71605824691e-09
3.28417357939e-05
-4.38518577554e-09
3.28457539044e-05
-7.01294715372e-09
3.28520504276e-05
-1.11578786333e-08
3.28619431099e-05
-1.77293509705e-08
3.28776052064e-05
-2.82609219778e-08
3.2902712895e-05
-4.54214978338e-08
3.29426442513e-05
-7.33397285616e-08
3.30072792247e-05
-1.19807091239e-07
3.31136904418e-05
-1.99672892635e-07
3.32910577901e-05
-3.42389759356e-07
3.3587893517e-05
-6.07847267479e-07
3.40758313152e-05
-1.11494109286e-06
3.48219062336e-05
-2.09366309966e-06
3.56908463975e-05
-3.9945147098e-06
-7.15256440986e-06
3.57686354018e-05
5.35105664019e-05
8.90861279207e-06
5.55742221019e-05
1.58808745313e-05
5.52424823266e-05
1.62761344868e-05
5.35977857201e-05
1.40524892586e-05
5.15418474148e-05
1.11572128629e-05
4.95802796007e-05
8.45101079281e-06
4.79243505263e-05
6.22316734137e-06
4.66181385889e-05
4.49686527935e-06
4.56304657081e-05
3.20269010603e-06
4.4905116668e-05
2.25239725626e-06
4.43840893798e-05
1.56491367892e-06
4.40166931297e-05
1.07360970393e-06
4.37619665439e-05
7.2647561355e-07
4.35882678563e-05
4.84003406987e-07
4.34718684207e-05
3.16682877142e-07
4.33953582719e-05
2.02745208796e-07
4.33461879057e-05
1.26304746956e-07
4.33154501968e-05
7.58899743138e-08
4.32969137325e-05
4.33063123275e-08
4.32862875753e-05
2.27595670006e-08
4.32806846689e-05
1.01915638502e-08
4.32778769594e-05
2.87443730933e-09
4.32770491388e-05
-9.82796941161e-10
4.32772670487e-05
-2.93125154131e-09
4.32779546378e-05
-3.62121628453e-09
4.32788177814e-05
-3.63764312099e-09
4.32796907157e-05
-3.30906636975e-09
4.32804883275e-05
-2.83486033818e-09
4.32811742675e-05
-2.33012650823e-09
4.32817403156e-05
-1.8565595148e-09
4.32821933058e-05
-1.44290844476e-09
4.32825459343e-05
-1.09775625184e-09
4.32828079804e-05
-8.16492856308e-10
4.32829838119e-05
-5.92882868584e-10
4.3283117083e-05
-4.15414863711e-10
4.3283203134e-05
-2.7070758103e-10
4.32832572486e-05
-1.70829983291e-10
4.32832973334e-05
-1.09903862754e-10
4.32833220409e-05
-6.12842304281e-11
4.32833342962e-05
-2.35186381465e-11
4.32833375272e-05
3.95712904335e-12
4.32833336741e-05
2.47701679511e-11
4.32833244096e-05
4.06156149464e-11
4.32833108917e-05
5.31942247604e-11
4.32832937531e-05
6.4013141109e-11
4.32832734034e-05
7.39304636234e-11
4.32832501497e-05
8.34759311682e-11
4.32832242536e-05
9.30169792367e-11
4.32831960965e-05
1.02822405926e-10
4.32831662114e-05
1.12857326948e-10
4.32831351806e-05
1.22898773308e-10
4.32831039237e-05
1.32397690785e-10
4.32830738618e-05
1.40398917506e-10
4.32830470792e-05
1.45347960015e-10
4.32830265043e-05
1.44733738169e-10
4.328301632e-05
1.3448603748e-10
4.32830237686e-05
1.0777129716e-10
4.32830605894e-05
5.29765555212e-11
4.32831454589e-05
-4.77280660717e-11
4.32832985957e-05
-2.15025619054e-10
4.32835199997e-05
-4.65284478831e-10
4.32839457992e-05
-1.00102841804e-09
4.32846913685e-05
-1.75135352535e-09
4.3285918631e-05
-2.88644878068e-09
4.32878331543e-05
-4.63080848952e-09
4.32907838137e-05
-7.33608808931e-09
4.3295331016e-05
-1.1560413276e-08
4.33023556555e-05
-1.81827786206e-08
4.33132445424e-05
-2.86184995191e-08
4.33301646093e-05
-4.51812346045e-08
4.33564416677e-05
-7.16987778995e-08
4.33976746291e-05
-1.14572875173e-07
4.34627653646e-05
-1.8489804467e-07
4.35655262562e-05
-3.02434076721e-07
4.37260618944e-05
-5.02925723417e-07
4.3969210981e-05
-8.50996764179e-07
4.43119881712e-05
-1.4577185753e-06
4.47160578735e-05
-2.49773278966e-06
4.49404138765e-05
-4.218870558e-06
-6.62766690049e-06
4.44155152099e-05
5.27351379324e-05
6.17347481171e-06
5.57309342757e-05
1.28850781121e-05
5.73114740215e-05
1.46955946803e-05
5.76109914409e-05
1.37529717744e-05
5.71335222265e-05
1.16346820195e-05
5.63194676944e-05
9.26506526036e-06
5.54489875403e-05
7.09364741827e-06
5.46629770096e-05
5.28287571663e-06
5.40136814751e-05
3.85198552217e-06
5.35061501701e-05
2.75992842311e-06
5.31242542879e-05
1.94680941216e-06
5.28449847997e-05
1.35287904306e-06
5.26454386377e-05
9.26021635788e-07
5.25057145006e-05
6.23727408689e-07
5.24097198558e-05
4.12677390092e-07
5.23450139727e-05
2.6745094724e-07
5.23022762711e-05
1.69042288948e-07
5.22746892154e-05
1.03476852011e-07
5.22573647629e-05
6.06305768325e-08
5.224685615e-05
3.32679887428e-08
5.22407564913e-05
1.62910307781e-08
5.22374476099e-05
6.18312644126e-09
5.22359488804e-05
5.15738286255e-10
5.22354408209e-05
-2.42339186507e-09
5.2235505627e-05
-3.68623042741e-09
5.22358509264e-05
-3.98315550545e-09
5.22363050151e-05
-3.76336719844e-09
5.22367712664e-05
-3.30132093475e-09
5.22371985854e-05
-2.75765257487e-09
5.22375642571e-05
-2.2224296647e-09
5.22378615836e-05
-1.74043140067e-09
5.22380933364e-05
-1.32971410515e-09
5.22382697849e-05
-9.93147193371e-10
5.22384028202e-05
-7.26117680519e-10
5.22385032893e-05
-5.16080133888e-10
5.22385876596e-05
-3.55267051152e-10
5.22386534628e-05
-2.36814095786e-10
5.22386956972e-05
-1.52305727891e-10
5.22387287251e-05
-9.44619761523e-11
5.22387442437e-05
-3.91707821957e-11
5.22387495143e-05
-1.43690041157e-12
5.22387471078e-05
2.70574679188e-11
5.22387389598e-05
4.86463754001e-11
5.22387263873e-05
6.56450845954e-11
5.22387102386e-05
8.00288443134e-11
5.22386910982e-05
9.2931596808e-11
5.22386695142e-05
1.04915143064e-10
5.2238646449e-05
1.1594012508e-10
5.22386213596e-05
1.27783892909e-10
5.22385937563e-05
1.40352896742e-10
5.22385649616e-05
1.51590884902e-10
5.22385359822e-05
1.6126121332e-10
5.22385082931e-05
1.67964392535e-10
5.22384841931e-05
1.69320387659e-10
5.22384678117e-05
1.60969997387e-10
5.22384695649e-05
1.3258676889e-10
5.22384951173e-05
8.20672609533e-11
5.22385599761e-05
-1.20517774178e-11
5.22386725746e-05
-1.6048554378e-10
5.22388502136e-05
-3.9285814771e-10
5.22391743286e-05
-7.8956145317e-10
5.22396717899e-05
-1.49871749364e-09
5.22404200356e-05
-2.49985599787e-09
5.22415509638e-05
-4.01762254194e-09
5.22432673869e-05
-6.34747797584e-09
5.22458707566e-05
-9.93970567766e-09
5.22498133341e-05
-1.55032066953e-08
5.22557871817e-05
-2.41568414878e-08
5.22648538412e-05
-3.76853883042e-08
5.22786368883e-05
-5.89645148042e-08
5.22996064214e-05
-9.26685404837e-08
5.23314983936e-05
-1.46465063262e-07
5.23796924704e-05
-2.33092343517e-07
5.24511758429e-05
-3.73917658606e-07
5.25529069053e-05
-6.04657082662e-07
5.26855598075e-05
-9.83649979038e-07
5.28270337386e-05
-1.5991929299e-06
5.28958131156e-05
-2.56651235303e-06
5.26788395644e-05
-4.00189675423e-06
-5.81815425323e-06
5.18693261365e-05
5.19834864004e-05
4.18998836032e-06
5.50586638009e-05
9.80990063118e-06
5.7638612937e-05
1.21156454769e-05
5.93259027807e-05
1.20656818602e-05
6.02280147265e-05
1.07325700138e-05
6.05929258221e-05
8.90015409937e-06
6.06482826431e-05
7.03829051398e-06
6.05531880739e-05
5.37797018577e-06
6.04029533716e-05
4.00222010138e-06
6.02479127291e-05
2.91496892865e-06
6.01107870594e-05
2.08393493396e-06
5.9999027403e-05
1.4646385541e-06
5.99125121043e-05
1.01253679355e-06
5.98479200966e-05
6.88319278413e-07
5.98010164118e-05
4.59580930119e-07
5.97677316345e-05
3.00735572634e-07
5.9744590138e-05
1.92183618881e-07
5.97288114377e-05
1.19255373364e-07
5.97182631293e-05
7.11787027983e-08
5.97113567798e-05
4.01741543736e-08
5.97069372789e-05
2.07103466812e-08
5.97042032343e-05
8.91698382936e-09
5.97025940553e-05
2.12472455644e-09
5.97016893742e-05
-1.51891046548e-09
5.97012309294e-05
-3.22799066386e-09
5.97010412593e-05
-3.79369565232e-09
5.97010048362e-05
-3.72715409641e-09
5.97010490095e-05
-3.34569552489e-09
5.97011300533e-05
-2.83889704887e-09
5.97012222972e-05
-2.31487280584e-09
5.97013118604e-05
-1.83018659015e-09
5.97013921144e-05
-1.4101623437e-09
5.97014616119e-05
-1.06284711248e-09
5.97015209633e-05
-7.85669540787e-10
5.97015709765e-05
-5.66284607676e-10
5.97016106092e-05
-3.9507785372e-10
5.9701638304e-05
-2.64678885441e-10
5.97016537302e-05
-1.67893324008e-10
5.97016520815e-05
-9.29594540629e-11
5.97016436876e-05
-3.09068826761e-11
5.97016368381e-05
5.29148435492e-12
5.97016273126e-05
3.64675333741e-11
5.97016164685e-05
5.93728979267e-11
5.97016044483e-05
7.75477006244e-11
5.9701590081e-05
9.4275919052e-11
5.97015731428e-05
1.09737910583e-10
5.97015535764e-05
1.24335405111e-10
5.97015310521e-05
1.38318936144e-10
5.97015069822e-05
1.5171787926e-10
5.97014830242e-05
1.64187583862e-10
5.97014593983e-05
1.75093572419e-10
5.97014373557e-05
1.83176244536e-10
5.9701418638e-05
1.86558147292e-10
5.97014051759e-05
1.82639349681e-10
5.97013977167e-05
1.68252252838e-10
5.97013894744e-05
1.40656505343e-10
5.97013863363e-05
8.50458360868e-11
5.97013957627e-05
-2.16769033748e-11
5.97014534527e-05
-2.18394728385e-10
5.9701625711e-05
-5.65317938614e-10
5.970191053e-05
-1.07455620492e-09
5.9702278396e-05
-1.86676488803e-09
5.97028314351e-05
-3.05310282835e-09
5.97036527787e-05
-4.83920523124e-09
5.97048552876e-05
-7.55024731701e-09
5.97066028536e-05
-1.1687530234e-08
5.97091326026e-05
-1.8033192393e-08
5.97127870706e-05
-2.78115238391e-08
5.97180548619e-05
-4.2953385673e-08
5.97256169989e-05
-6.6526855493e-08
5.97363781963e-05
-1.03429956267e-07
5.97514033797e-05
-1.61490504306e-07
5.97715371714e-05
-2.53226359792e-07
5.97961994137e-05
-3.9858013757e-07
5.98202428308e-05
-6.28700708979e-07
5.98267766343e-05
-9.90184119097e-07
5.9773654754e-05
-1.54607136581e-06
5.95726064751e-05
-2.36546444148e-06
5.906491045e-05
-3.49420057611e-06
-4.84165430823e-06
5.80884100262e-05
5.14373053061e-05
2.75268300568e-06
5.42658204062e-05
6.98138545086e-06
5.72496429636e-05
9.1318228504e-06
5.97900271972e-05
9.52529755047e-06
6.17201275728e-05
8.80246957006e-06
6.30883024035e-05
7.53197920236e-06
6.40167158361e-05
6.10987699797e-06
6.46292354982e-05
4.76545042262e-06
6.50258023097e-05
3.6056531682e-06
6.52790767345e-05
2.66169436952e-06
6.54389716332e-05
1.92403989236e-06
6.55386883243e-05
1.36492172222e-06
6.55999267376e-05
9.51298241904e-07
6.56367414452e-05
6.51504435629e-07
6.56581924453e-05
4.38129788649e-07
6.56701005687e-05
2.88827294726e-07
6.56761897062e-05
1.86094317053e-07
6.56788259097e-05
1.16618996665e-07
6.56794962455e-05
7.05081904504e-08
6.56791199392e-05
4.05502844483e-08
6.56782524412e-05
2.15776679402e-08
6.5677221413e-05
9.94783096584e-09
6.56762120339e-05
3.13391268237e-09
6.56753026034e-05
-6.0967994393e-10
6.56745337354e-05
-2.45932692418e-09
6.56739051824e-05
-3.16535068706e-09
6.56734060694e-05
-3.22825310471e-09
6.56730189395e-05
-2.95876808614e-09
6.56727248036e-05
-2.54495565473e-09
6.56725054926e-05
-2.09575551757e-09
6.56723448926e-05
-1.66977905619e-09
6.56722293295e-05
-1.29478811294e-09
6.5672146692e-05
-9.80394093529e-10
6.56720863554e-05
-7.25524517684e-10
6.56720425338e-05
-5.22659112588e-10
6.56720110119e-05
-3.63746509461e-10
6.5671985732e-05
-2.3957741638e-10
6.56719638582e-05
-1.46184066696e-10
6.56719482055e-05
-7.74579766144e-11
6.56719460205e-05
-2.88619661616e-11
6.56719441787e-05
7.00522895028e-12
6.56719365037e-05
4.40205344524e-11
6.56719260396e-05
6.97101781286e-11
6.56719129699e-05
9.04842576956e-11
6.56718982542e-05
1.0886129398e-10
6.56718818969e-05
1.25961672118e-10
6.56718637226e-05
1.42370366678e-10
6.56718436551e-05
1.58248417045e-10
6.56718225301e-05
1.72715692085e-10
6.56718019155e-05
1.84677790149e-10
6.56717806441e-05
1.96242748856e-10
6.56717593101e-05
2.04397305275e-10
6.56717389655e-05
2.06784370855e-10
6.56717212962e-05
2.00184428612e-10
6.56717093988e-05
1.8000759923e-10
6.56717099167e-05
1.39974508806e-10
6.56717188653e-05
7.59331190551e-11
6.56717328069e-05
-3.57224016679e-11
6.56717972862e-05
-2.83075249401e-10
6.56718823064e-05
-6.50505618127e-10
6.56720168223e-05
-1.20929449125e-09
6.5672206925e-05
-2.05709815936e-09
6.5672467644e-05
-3.31403158333e-09
6.56728145422e-05
-5.18631176091e-09
6.56732569914e-05
-7.9929323873e-09
6.56737906335e-05
-1.22214146809e-08
6.56743833765e-05
-1.86261668263e-08
6.56749453725e-05
-2.83737331124e-08
6.56752701285e-05
-4.3278333447e-08
6.56749237403e-05
-6.61806443053e-08
6.56730314216e-05
-1.01537859245e-07
6.56678404691e-05
-1.5629981793e-07
6.56557916681e-05
-2.41177795437e-07
6.56297166953e-05
-3.72505423574e-07
6.55753913776e-05
-5.74375587888e-07
6.54654405799e-05
-8.80233531727e-07
6.52504148584e-05
-1.33104590609e-06
6.4849714992e-05
-1.96476497685e-06
6.41498427918e-05
-2.79432838804e-06
-3.75065375809e-06
6.30588419874e-05
5.1085042301e-05
1.66764065319e-06
5.36118444001e-05
4.45458326869e-06
5.66873162239e-05
6.05635095711e-06
5.96894461308e-05
6.52316756821e-06
6.22997266396e-05
6.19218898528e-06
6.44136881047e-05
5.41801766266e-06
6.60471841445e-05
4.47638087186e-06
6.72686155849e-05
3.54401887953e-06
6.81598945176e-05
2.7143741165e-06
6.8797761024e-05
2.02382773087e-06
6.92467453319e-05
1.47505544825e-06
6.95579641255e-05
1.05370278728e-06
6.97704307953e-05
7.38831432568e-07
6.99131738902e-05
5.0876120112e-07
7.00073850685e-05
3.43918465213e-07
7.00682947356e-05
2.27917473805e-07
7.01066968934e-05
1.47691997904e-07
7.01301393355e-05
9.31763861879e-08
7.01438285972e-05
5.6818756623e-08
7.01513048238e-05
3.30738851113e-08
7.01549374046e-05
1.79449136051e-08
7.01562852542e-05
8.59980302336e-09
7.01563571616e-05
3.0618177036e-09
7.01557651028e-05
-1.78211655883e-11
7.01549041379e-05
-1.59857003398e-09
7.01539803886e-05
-2.24180954153e-09
7.01531115592e-05
-2.35963315909e-09
7.01523513105e-05
-2.1987271093e-09
7.01517168542e-05
-1.91069232797e-09
7.0151205333e-05
-1.58441623851e-09
7.01508038166e-05
-1.26844122911e-09
7.01504953535e-05
-9.86513208629e-10
7.01502623192e-05
-7.47553143211e-10
7.01500885493e-05
-5.51949830944e-10
7.01499610499e-05
-3.95352913076e-10
7.01498691647e-05
-2.72048317482e-10
7.01498057738e-05
-1.76360686623e-10
7.01497634935e-05
-1.04059357346e-10
7.01497343833e-05
-4.8485687623e-11
7.01497039859e-05
1.40814319814e-12
7.01496798497e-05
3.10172531989e-11
7.01496660989e-05
5.76423758902e-11
7.01496549713e-05
8.07009537025e-11
7.01496444377e-05
1.00876226969e-10
7.01496337339e-05
1.19421974642e-10
7.01496224599e-05
1.37091221709e-10
7.01496104665e-05
1.54225001517e-10
7.01495977749e-05
1.70810829526e-10
7.01495838423e-05
1.86522902801e-10
7.01495676024e-05
2.0078867127e-10
7.01495509723e-05
2.12750582617e-10
7.01495345941e-05
2.20645444221e-10
7.01495191908e-05
2.22037381239e-10
7.01495054575e-05
2.13766741216e-10
7.01494933694e-05
1.91906976285e-10
7.01494811869e-05
1.51982414652e-10
7.01494643486e-05
9.25753026919e-11
7.01494584868e-05
-2.99857616751e-11
7.01494532575e-05
-2.78012926609e-10
7.01494640883e-05
-6.61485191324e-10
7.01494740572e-05
-1.2194604801e-09
7.01494594547e-05
-2.04274044913e-09
7.01493919732e-05
-3.24678611039e-09
7.01492169855e-05
-5.01154894481e-09
7.01488333631e-05
-7.60952703983e-09
7.01480629404e-05
-1.14512141773e-08
7.01466017016e-05
-1.71651518289e-08
7.01439304861e-05
-2.57027481327e-08
7.01391644569e-05
-3.85125219599e-08
7.01308092865e-05
-5.78256624701e-08
7.01163644152e-05
-8.70932041489e-08
7.00916319775e-05
-1.31567597565e-07
7.00494664706e-05
-1.99012615617e-07
6.99778079742e-05
-3.0084716314e-07
6.98565456092e-05
-4.5311347813e-07
6.96529887717e-05
-6.76676958329e-07
6.93168066471e-05
-9.94863987819e-07
6.87777527378e-05
-1.42571131623e-06
6.79521221086e-05
-1.96869793913e-06
-2.57870462487e-06
6.67801727725e-05
5.08804131395e-05
7.87227460391e-07
5.31704660353e-05
2.164530286e-06
5.62177495004e-05
3.00906741677e-06
5.94382694031e-05
3.30264758918e-06
6.24449691204e-05
3.18548919443e-06
6.50382524282e-05
2.82473427305e-06
6.71548658764e-05
2.35976733188e-06
6.88135642352e-05
1.88532041467e-06
7.00731700892e-05
1.45476814322e-06
7.10056668987e-05
1.09133079073e-06
7.168126304e-05
7.99459172171e-07
7.2161422256e-05
5.73543437521e-07
7.2496603054e-05
4.03650496928e-07
7.27264794896e-05
2.78884626475e-07
7.28812782749e-05
1.89119537089e-07
7.29834679135e-05
1.25727682718e-07
7.30494115747e-05
8.17481767183e-08
7.30908135535e-05
5.17742424218e-08
7.31159073577e-05
3.17247841176e-08
7.31303917171e-05
1.85893546666e-08
7.31381462498e-05
1.01902067908e-08
7.31417664624e-05
4.9794118097e-09
7.3142953898e-05
1.87419671961e-09
7.31428071629e-05
1.28716704244e-10
7.31419835321e-05
-7.75150359961e-10
7.31409001532e-05
-1.15864248102e-09
7.31397847463e-05
-1.24443070272e-09
7.31387567177e-05
-1.17089454119e-09
7.31378685238e-05
-1.02268915588e-09
7.31371340773e-05
-8.50155738046e-10
7.3136545993e-05
-6.80542591749e-10
7.31360868921e-05
-5.27593271834e-10
7.31357359116e-05
-3.96758795876e-10
7.31354724327e-05
-2.88664398599e-10
7.31352781253e-05
-2.01239381633e-10
7.31351373753e-05
-1.31485093445e-10
7.31350369731e-05
-7.61284674292e-11
7.3134964455e-05
-3.16910716166e-11
7.31349101909e-05
5.64377080701e-12
7.31348795241e-05
3.1952226891e-11
7.3134855572e-05
5.48448942603e-11
7.31348379116e-05
7.51697518842e-11
7.31348247259e-05
9.37454571895e-11
7.31348142111e-05
1.1124341817e-10
7.31348050914e-05
1.28387794042e-10
7.31347964686e-05
1.4555562676e-10
7.31347877101e-05
1.62829525382e-10
7.31347783599e-05
1.80011924955e-10
7.31347681454e-05
1.96592934889e-10
7.31347569985e-05
2.11816069791e-10
7.31347449373e-05
2.24713678556e-10
7.3134731977e-05
2.33503471135e-10
7.31347181645e-05
2.35743911368e-10
7.31347035705e-05
2.28215860371e-10
7.31346884289e-05
2.06854069692e-10
7.31346732167e-05
1.66995251851e-10
7.31346593973e-05
1.06227612312e-10
7.31346314217e-05
-2.1493962897e-12
7.31345851027e-05
-2.3186487451e-10
7.31345111959e-05
-5.87752382028e-10
7.31343870413e-05
-1.09545279331e-09
7.31341690964e-05
-1.82497589719e-09
7.31337879362e-05
-2.86584891132e-09
7.31331270508e-05
-4.35090092771e-09
7.31319906085e-05
-6.47333773738e-09
7.31300527934e-05
-9.51363692591e-09
7.31267856019e-05
-1.38981738538e-08
7.31213222557e-05
-2.02396208978e-08
7.31122348122e-05
-2.94252852186e-08
7.30972016524e-05
-4.27927127998e-08
7.30724999319e-05
-6.23916885252e-08
7.30321678276e-05
-9.12357255608e-08
7.29666110427e-05
-1.33456040248e-07
7.28606876113e-05
-1.94924057339e-07
7.26910275212e-05
-2.83453666204e-07
7.24228002602e-05
-4.08449945847e-07
7.20071176603e-05
-5.79181656573e-07
7.13819643812e-05
-8.00558196982e-07
7.04805732964e-05
-1.06730707089e-06
-1.35477360963e-06
6.92566420577e-05
5.07871725514e-05
5.48541671207e-11
5.29516497223e-05
5.3028033736e-11
5.59606882491e-05
2.8813003831e-11
5.92633215998e-05
1.41561036049e-11
6.24488080413e-05
2.68326552971e-12
6.52735484213e-05
-6.18692637731e-12
6.76333277575e-05
-1.20955418132e-11
6.95186631067e-05
-1.50391653337e-11
7.09734465967e-05
-1.54638657761e-11
7.2064791229e-05
-1.3966665156e-11
7.28642614518e-05
-1.11826383738e-11
7.34378125209e-05
-7.76541905354e-12
7.38414672621e-05
-4.37762784369e-12
7.41203534198e-05
-1.66628814846e-12
7.43094730351e-05
-2.18819784695e-13
7.44352010051e-05
-4.38317230899e-13
7.45169515946e-05
-2.57287284494e-12
7.45687320505e-05
-6.37939644996e-12
7.46004678863e-05
-1.12201819837e-11
7.46190731843e-05
-1.61140061513e-11
7.46292831481e-05
-1.99313828342e-11
7.4634283956e-05
-2.15772191386e-11
7.46361785514e-05
-2.05891409891e-11
7.4636325318e-05
-1.82485428822e-11
7.46355656717e-05
-1.57143840205e-11
7.46344193782e-05
-1.25643835865e-11
7.46331837047e-05
-8.96750902417e-12
7.46320176006e-05
-4.9858492246e-12
7.4630994868e-05
-1.39545088812e-13
7.46301405994e-05
3.93981028524e-12
7.4629451268e-05
8.61165586464e-12
7.4628909894e-05
1.35966248063e-11
7.46284940865e-05
1.88525678545e-11
7.46281807749e-05
2.44461995774e-11
7.46279487674e-05
3.05695662328e-11
7.4627779734e-05
3.73596167474e-11
7.46276585207e-05
4.49158711267e-11
7.46275734462e-05
5.32377668153e-11
7.46275165842e-05
6.23765793321e-11
7.46274764976e-05
7.1908682725e-11
7.46274493584e-05
8.18424081426e-11
7.46274313048e-05
9.30766426551e-11
7.46274193694e-05
1.05537921636e-10
7.46274113195e-05
1.19158405306e-10
7.46274056052e-05
1.3396535337e-10
7.46274011501e-05
1.49875704615e-10
7.46273971885e-05
1.66656538793e-10
7.46273931598e-05
1.83899910526e-10
7.46273886228e-05
2.00995084058e-10
7.46273832146e-05
2.17106667313e-10
7.46273767192e-05
2.31082761418e-10
7.46273689075e-05
2.41203025254e-10
7.46273593746e-05
2.45150758319e-10
7.46273474524e-05
2.39964246149e-10
7.46273320827e-05
2.2204679945e-10
7.46273114636e-05
1.87367413315e-10
7.46272848615e-05
1.32618853443e-10
7.46272414272e-05
4.11877833943e-11
7.46271473663e-05
-1.37917592885e-10
7.46270092409e-05
-4.49830719342e-10
7.46267816792e-05
-8.68103272578e-10
7.46264045774e-05
-1.44806518349e-09
7.46257806691e-05
-2.24211889618e-09
7.4624751793e-05
-3.32223183516e-09
7.46230594187e-05
-4.78120737193e-09
7.46202824502e-05
-6.73691293122e-09
7.46157581421e-05
-9.37408731539e-09
7.46084120269e-05
-1.28937049282e-08
7.45964876065e-05
-1.75010645021e-08
7.45771652852e-05
-2.3470607433e-08
7.4546036339e-05
-3.12628951261e-08
7.44962684177e-05
-4.14680750277e-08
7.44170408111e-05
-5.42286807356e-08
7.42918187718e-05
-6.97023052569e-08
7.40959985146e-05
-8.76336801322e-08
7.37944032566e-05
-1.06854859868e-07
7.33398088709e-05
-1.24587621729e-07
7.26748922265e-05
-1.35641724142e-07
7.17403970213e-05
-1.32811990882e-07
-1.07551968927e-07
7.04931751472e-05
5.07871715202e-05
-7.87116724767e-07