/*--------------------------------*- C++ -*----------------------------------*\
| =========                 |                                                 |
| \\      /  F ield         | OpenFOAM: The Open Source CFD Toolbox           |
|  \\    /   O peration     | Version:  2106                                  |
|   \\  /    A nd           | Website:  www.openfoam.com                      |
|    \\/     M anipulation  |                                                 |
\*---------------------------------------------------------------------------*/
FoamFile
{
    version     2.0;
    format      ascii;
    arch        "LSB;label=32;scalar=64";
    class       volVectorField;
    location    "0.195";
    object      U;
}
// * * * * * * * * * * * * * * * * * * * * * * * * * * * * * * * * * * * * * //

dimensions      [0 1 -1 0 0 0 0];

internalField   nonuniform List<vector> 
11200
(
(0.662462403647 0.150569443655 0)
(0.55894867209 0.103243389475 0)
(0.383850735021 0.0513512253052 0)
(0.283747592773 0.0248708562513 0)
(0.232075267973 0.012417046071 0)
(0.201908585459 0.00662281752267 0)
(0.183197932789 0.00380291497942 0)
(0.17127648955 0.00231587052814 0)
(0.163510308217 0.00146450695608 0)
(0.158388772222 0.000944892788081 0)
(0.155006633934 0.000615177253043 0)
(0.152786678964 0.000402234157688 0)
(0.151346528483 0.000264232562112 0)
(0.150428290724 0.000175250489633 0)
(0.149856685343 0.00011836101839 0)
(0.149512482496 8.2160345068e-05 0)
(0.149314919986 5.88662815611e-05 0)
(0.149209555514 4.3316037298e-05 0)
(0.149159692608 3.29347717485e-05 0)
(0.149142448169 2.8186685242e-05 0)
(0.149144598236 2.76847509381e-05 0)
(0.149156866894 2.9890278122e-05 0)
(0.149172480641 3.30505717853e-05 0)
(0.149188019728 3.59660990528e-05 0)
(0.14920221985 3.86015239707e-05 0)
(0.149214481189 4.10405021342e-05 0)
(0.149224636124 4.33176849686e-05 0)
(0.149232791507 4.54642290603e-05 0)
(0.149239183933 4.75194145819e-05 0)
(0.149244095273 4.95303082886e-05 0)
(0.149247810385 5.15589582062e-05 0)
(0.14925059659 5.36963258099e-05 0)
(0.149252650881 5.60250585202e-05 0)
(0.149254143345 5.84066130477e-05 0)
(0.149255206586 6.07678135509e-05 0)
(0.149255927115 6.30890663896e-05 0)
(0.149256401727 6.53806272862e-05 0)
(0.149256714082 6.76553614761e-05 0)
(0.14925691796 6.99248684726e-05 0)
(0.149257042644 7.21952956789e-05 0)
(0.149257109167 7.4467739066e-05 0)
(0.149257134899 7.67431966502e-05 0)
(0.149257132075 7.90213855325e-05 0)
(0.14925710948 8.13011843527e-05 0)
(0.149257073293 8.35808556608e-05 0)
(0.149257028001 8.58580483003e-05 0)
(0.149256977414 8.81299821873e-05 0)
(0.149256925344 9.03936232977e-05 0)
(0.149256875897 9.26459035523e-05 0)
(0.149256833972 9.48837072321e-05 0)
(0.149256806378 9.71039058492e-05 0)
(0.149256802676 9.93035663855e-05 0)
(0.149256835931 0.000101479771647 0)
(0.149256924141 0.000103629328696 0)
(0.149257092519 0.000105748205014 0)
(0.149257376922 0.000107830923963 0)
(0.149257827548 0.000109870711595 0)
(0.149258517504 0.000111857950842 0)
(0.149259555102 0.000113779697492 0)
(0.149261097619 0.00011561200545 0)
(0.149263385594 0.000117300690643 0)
(0.149266826721 0.000118757282811 0)
(0.149271899199 0.000120018349931 0)
(0.149279245483 0.000121271855458 0)
(0.149289894222 0.000122973487419 0)
(0.149305365517 0.00012533708448 0)
(0.149328043367 0.000128120167821 0)
(0.14936162872 0.000131089983657 0)
(0.149411723762 0.000134027557617 0)
(0.149486574408 0.00013681796782 0)
(0.149598143479 0.00014074187008 0)
(0.14976931617 0.000151637580736 0)
(0.150037938318 0.000172419401248 0)
(0.150467277693 0.000202747272125 0)
(0.15119333701 0.000232764889123 0)
(0.152494240945 0.000191924979974 0)
(0.155027078571 -0.000217469967339 0)
(0.162388863014 -0.00211580891449 0)
(0.187756297678 -0.0108183191401 0)
(0.204574786885 -0.0498261616529 0)
(0.965408254233 0.289214708301 0)
(0.961962857995 0.252656041439 0)
(0.823574388003 0.159021442963 0)
(0.698139362639 0.0959957323894 0)
(0.610225455137 0.0582481151194 0)
(0.548971480423 0.0362148539543 0)
(0.506588874664 0.0231612857267 0)
(0.477567251476 0.0151375158098 0)
(0.457745470751 0.010017755611 0)
(0.444228436118 0.00665814165529 0)
(0.435053270346 0.00441555679426 0)
(0.428873086223 0.00290686639804 0)
(0.424754166029 0.00189105896693 0)
(0.422046611924 0.00121004587566 0)
(0.420297770448 0.000757163954293 0)
(0.419193156855 0.000459256432505 0)
(0.41851554708 0.000265855395466 0)
(0.418116395437 0.000142400254577 0)
(0.417895787372 6.61101079639e-05 0)
(0.417786731786 2.30929723116e-05 0)
(0.417745312204 1.40819731111e-06 0)
(0.417742030354 -1.0162320399e-05 0)
(0.41775662441 -1.37137936233e-05 0)
(0.417778579857 -1.32673282795e-05 0)
(0.417802871572 -1.08352365066e-05 0)
(0.417826240355 -7.49236912972e-06 0)
(0.417846992887 -3.87626485049e-06 0)
(0.417864530444 -3.56975726218e-07 0)
(0.417878856844 2.86408406331e-06 0)
(0.417890287414 5.68306102548e-06 0)
(0.41789929379 8.03563745226e-06 0)
(0.417906369251 9.83751288183e-06 0)
(0.417911715665 1.1006462045e-05 0)
(0.41791556685 1.18590512043e-05 0)
(0.417918300636 1.26809105756e-05 0)
(0.417920192022 1.34377586828e-05 0)
(0.417921483177 1.4111704213e-05 0)
(0.417922365428 1.47268759895e-05 0)
(0.417922965146 1.53122683927e-05 0)
(0.417923353929 1.58815258335e-05 0)
(0.417923584436 1.64350289219e-05 0)
(0.417923700004 1.69779029721e-05 0)
(0.417923731209 1.75138374363e-05 0)
(0.417923700355 1.80462047619e-05 0)
(0.417923623398 1.85781792558e-05 0)
(0.417923512167 1.91121799918e-05 0)
(0.417923376854 1.96502731313e-05 0)
(0.417923227735 2.01945216048e-05 0)
(0.41792307594 2.07471989514e-05 0)
(0.417922934594 2.13096707337e-05 0)
(0.41792282145 2.18820699982e-05 0)
(0.417922760976 2.24646431834e-05 0)
(0.417922786399 2.30575046334e-05 0)
(0.417922943305 2.36603082364e-05 0)
(0.417923295342 2.42720437583e-05 0)
(0.417923933643 2.48912389004e-05 0)
(0.417924987185 2.55166611621e-05 0)
(0.417926644375 2.61375715171e-05 0)
(0.417929180182 2.67345590568e-05 0)
(0.417932982349 2.72779463263e-05 0)
(0.417938636922 2.7724377477e-05 0)
(0.417947237035 2.80080628901e-05 0)
(0.417960285874 2.82869569692e-05 0)
(0.417979910636 2.7869783346e-05 0)
(0.418008899596 2.53350330834e-05 0)
(0.418050860005 1.95515864424e-05 0)
(0.418111950619 9.71635737461e-06 0)
(0.418202305551 -5.6993526305e-06 0)
(0.418337561448 -2.92249113314e-05 0)
(0.418542674455 -6.45539800553e-05 0)
(0.418859651872 -0.000115898391174 0)
(0.419358280597 -0.000188258015158 0)
(0.420152353571 -0.000308416021322 0)
(0.421446126845 -0.000534102048864 0)
(0.423632393931 -0.00100250160462 0)
(0.427432195935 -0.00209635568763 0)
(0.43427265935 -0.00487044364524 0)
(0.44833990575 -0.0122908960335 0)
(0.474810870176 -0.0343470136951 0)
(0.47852163404 -0.0991093553043 0)
(1.02222096523 0.23841618775 0)
(1.08213752834 0.295926652942 0)
(1.03447722322 0.239503066437 0)
(0.954615404256 0.174290164208 0)
(0.879992048922 0.121345467918 0)
(0.818614427149 0.083099383453 0)
(0.771410840533 0.0567316663733 0)
(0.736634379315 0.0387409677977 0)
(0.711624420252 0.0264327863504 0)
(0.693916607782 0.0179731041531 0)
(0.681541397549 0.0121424475268 0)
(0.673000104535 0.00812490790788 0)
(0.667180638615 0.00536632089125 0)
(0.663271667361 0.00348444476672 0)
(0.660688494339 0.00221256172097 0)
(0.659014167657 0.0013633822519 0)
(0.657954483837 0.000805244465815 0)
(0.657304187501 0.000445917514327 0)
(0.656921765147 0.000221069585098 0)
(0.656710195478 8.55821155004e-05 0)
(0.656603326847 8.35876252788e-06 0)
(0.656561773341 -3.37184495079e-05 0)
(0.656557868107 -5.6852603628e-05 0)
(0.656571339119 -6.68716962458e-05 0)
(0.656592864314 -6.84792507366e-05 0)
(0.656616680214 -6.55580851554e-05 0)
(0.656639479587 -6.05475211816e-05 0)
(0.656659655606 -5.48582065634e-05 0)
(0.656676623002 -4.92745801221e-05 0)
(0.65669035955 -4.42036050078e-05 0)
(0.656701111651 -3.98401799489e-05 0)
(0.656709263404 -3.63026800371e-05 0)
(0.656715510513 -3.36971113881e-05 0)
(0.656720543128 -3.18589411341e-05 0)
(0.656724404935 -3.08127933531e-05 0)
(0.656727111132 -3.0306084757e-05 0)
(0.656728973176 -3.02502912819e-05 0)
(0.656730270526 -3.05609905477e-05 0)
(0.656731170719 -3.10883102955e-05 0)
(0.656731763542 -3.17496961782e-05 0)
(0.656732123143 -3.25156902195e-05 0)
(0.656732314699 -3.33511864379e-05 0)
(0.656732383193 -3.42316569679e-05 0)
(0.656732362401 -3.5137821064e-05 0)
(0.656732276678 -3.60542176121e-05 0)
(0.656732144215 -3.69700969246e-05 0)
(0.656731980852 -3.7877964225e-05 0)
(0.656731802304 -3.87723248543e-05 0)
(0.656731624449 -3.96479232084e-05 0)
(0.65673146484 -4.04999188446e-05 0)
(0.656731348045 -4.13241637277e-05 0)
(0.656731309007 -4.21164867397e-05 0)
(0.6567313955 -4.28748736917e-05 0)
(0.6567316739 -4.36015060781e-05 0)
(0.656732238338 -4.43076953424e-05 0)
(0.656733224483 -4.50225616379e-05 0)
(0.656734818275 -4.57977350649e-05 0)
(0.656737288121 -4.67269599848e-05 0)
(0.656741037849 -4.79408891227e-05 0)
(0.65674666632 -4.96485532052e-05 0)
(0.656755076815 -5.23339104453e-05 0)
(0.656767910096 -5.70803657648e-05 0)
(0.656786558306 -6.46324492413e-05 0)
(0.656812447364 -7.59014874381e-05 0)
(0.656849323115 -9.25492988511e-05 0)
(0.656903900046 -0.000117007551916 0)
(0.656985612734 -0.0001524796539 0)
(0.657108274422 -0.000204263695351 0)
(0.657293742607 -0.000280910660154 0)
(0.657577500239 -0.000396352828314 0)
(0.658017846036 -0.000575039392034 0)
(0.658704273437 -0.00086440719432 0)
(0.659784370834 -0.00135484464735 0)
(0.661516654994 -0.00222006814678 0)
(0.664345082947 -0.00382385618236 0)
(0.668968734666 -0.0069677799177 0)
(0.676419529174 -0.0133971153729 0)
(0.688715782824 -0.0269390879913 0)
(0.70543370925 -0.056533882207 0)
(0.700828508903 -0.113580164153 0)
(1.02251475431 0.170807152867 0)
(1.10138975553 0.276496478547 0)
(1.11752425721 0.266664798838 0)
(1.0921465994 0.219901698216 0)
(1.05187814744 0.168168846511 0)
(1.01020821298 0.123567395261 0)
(0.973494676217 0.0888375199529 0)
(0.943864538154 0.0630063699126 0)
(0.921142778512 0.0442232025368 0)
(0.904284048597 0.0307423913589 0)
(0.892074841896 0.0211562929681 0)
(0.883404481234 0.0143954676638 0)
(0.877352638895 0.009667947677 0)
(0.873197673704 0.0063938370296 0)
(0.870392894544 0.00415116502647 0)
(0.868534003098 0.00263449143352 0)
(0.867327603186 0.00162401816057 0)
(0.86656419664 0.000962676964574 0)
(0.866096435516 0.000539123530126 0)
(0.865822189352 0.000275154827541 0)
(0.865671341695 0.000117069801235 0)
(0.865595087408 2.87939880054e-05 0)
(0.865564025692 -1.93230329174e-05 0)
(0.865561214207 -4.12593944483e-05 0)
(0.865572555363 -4.76637190256e-05 0)
(0.865589559614 -4.55234950787e-05 0)
(0.865607867987 -3.91545141792e-05 0)
(0.865625206538 -3.11442382923e-05 0)
(0.865640491389 -2.2963748629e-05 0)
(0.865653355422 -1.53806301094e-05 0)
(0.865663830144 -8.72352629929e-06 0)
(0.865672118904 -3.04514643358e-06 0)
(0.865678473985 1.73303223088e-06 0)
(0.865683103124 5.46412785799e-06 0)
(0.865686424044 8.03147777171e-06 0)
(0.865688824185 9.78871185281e-06 0)
(0.86569045759 1.11418879747e-05 0)
(0.865691620213 1.2286560987e-05 0)
(0.865692488521 1.32552135408e-05 0)
(0.865693080771 1.41420047533e-05 0)
(0.865693444852 1.49379602747e-05 0)
(0.865693645099 1.56657854002e-05 0)
(0.865693720157 1.63411012438e-05 0)
(0.865693701258 1.69802723012e-05 0)
(0.865693610255 1.75980822418e-05 0)
(0.86569346285 1.82048666379e-05 0)
(0.865693273751 1.88086355286e-05 0)
(0.865693059714 1.94172597316e-05 0)
(0.865692840011 2.00414766378e-05 0)
(0.865692637034 2.06829062292e-05 0)
(0.865692481113 2.1329524195e-05 0)
(0.865692412767 2.19702564267e-05 0)
(0.865692484881 2.25894717188e-05 0)
(0.86569276724 2.31618446583e-05 0)
(0.865693351513 2.36488313135e-05 0)
(0.865694367984 2.40044387917e-05 0)
(0.865695996102 2.41986047441e-05 0)
(0.865698511576 2.41264792352e-05 0)
(0.865702320995 2.3623144613e-05 0)
(0.865707862482 2.23007685421e-05 0)
(0.865715505298 1.95568883372e-05 0)
(0.865726893895 1.47861604496e-05 0)
(0.865744660924 6.13052057519e-06 0)
(0.865771738359 -8.09555712798e-06 0)
(0.865812029352 -2.98857571619e-05 0)
(0.865871432279 -6.31596824513e-05 0)
(0.865959279481 -0.000114814479249 0)
(0.866090094469 -0.000195651171112 0)
(0.866286465449 -0.000322994412461 0)
(0.866583296843 -0.000525431069207 0)
(0.867034362906 -0.000852100709114 0)
(0.867725033051 -0.00139026485253 0)
(0.868792196515 -0.00228929123726 0)
(0.870450075707 -0.00382488446988 0)
(0.873019251188 -0.00652344566733 0)
(0.876901483834 -0.0113987079664 0)
(0.882423782625 -0.0203286701805 0)
(0.889775504256 -0.0366023354215 0)
(0.896517299207 -0.0657877953391 0)
(0.886768914511 -0.110623274383 0)
(1.01287875045 0.118961023799 0)
(1.08820670501 0.231806937029 0)
(1.13741366515 0.253106764476 0)
(1.15409085806 0.228992753127 0)
(1.14994209611 0.188368358178 0)
(1.13538463826 0.146579843065 0)
(1.11758892802 0.110150964543 0)
(1.10059497867 0.0808162208065 0)
(1.08612454483 0.0582265750476 0)
(1.07459089542 0.0413189837027 0)
(1.06579143519 0.0289160190931 0)
(1.05928795519 0.0199600991105 0)
(1.05459972785 0.0135815595868 0)
(1.05129072749 0.0090974430613 0)
(1.04899980734 0.00598615431889 0)
(1.04744336165 0.00385696727854 0)
(1.0464064855 0.00242159928987 0)
(1.04573056724 0.00147015193948 0)
(1.0453010086 0.000851704146801 0)
(1.04503650795 0.000459018892088 0)
(1.04488014184 0.000216759699229 0)
(1.04479252211 7.30207383947e-05 0)
(1.04474865385 -5.50114030957e-06 0)
(1.04473175185 -4.40054066802e-05 0)
(1.044729499 -5.93827734992e-05 0)
(1.04473498142 -6.17168497364e-05 0)
(1.04474392836 -5.72438545281e-05 0)
(1.04475381187 -4.98026767505e-05 0)
(1.04476325228 -4.16443388804e-05 0)
(1.04477157939 -3.39897323019e-05 0)
(1.04477854272 -2.74251054905e-05 0)
(1.04478412952 -2.21539235407e-05 0)
(1.04478848577 -1.81311246053e-05 0)
(1.04479182242 -1.51429112806e-05 0)
(1.04479439392 -1.28121406013e-05 0)
(1.04479649325 -1.10163319905e-05 0)
(1.04479823235 -9.52839291439e-06 0)
(1.04479955688 -8.23902645852e-06 0)
(1.04480053683 -7.21933566912e-06 0)
(1.04480122308 -6.54924246244e-06 0)
(1.04480163677 -6.16837241672e-06 0)
(1.0448018648 -5.95810452964e-06 0)
(1.04480195245 -5.86798145297e-06 0)
(1.04480193804 -5.84793116318e-06 0)
(1.04480184622 -5.8574863499e-06 0)
(1.04480169461 -5.87706591273e-06 0)
(1.04480150166 -5.89744278092e-06 0)
(1.04480129011 -5.91625564715e-06 0)
(1.04480107603 -5.94125830011e-06 0)
(1.044800865 -5.97335076162e-06 0)
(1.04480067971 -5.99883346445e-06 0)
(1.04480056323 -6.01730191302e-06 0)
(1.04480056761 -6.03511132752e-06 0)
(1.04480076303 -6.06594192905e-06 0)
(1.04480125862 -6.14121719209e-06 0)
(1.04480224338 -6.34891166611e-06 0)
(1.04480392086 -6.93540447078e-06 0)
(1.04480654825 -8.21076428578e-06 0)
(1.04481044109 -1.06443678392e-05 0)
(1.04481605333 -1.44339763191e-05 0)
(1.04482442258 -1.94067581422e-05 0)
(1.04483669966 -2.55569959861e-05 0)
(1.04485409221 -3.52286570036e-05 0)
(1.04487892001 -5.13944921177e-05 0)
(1.04491465409 -7.83054218713e-05 0)
(1.04496643271 -0.000122233873059 0)
(1.04504185694 -0.000192985038661 0)
(1.04515227673 -0.000306185480222 0)
(1.0453148518 -0.000487089156178 0)
(1.04555549135 -0.000776879973625 0)
(1.0459129914 -0.00124315539982 0)
(1.0464454127 -0.00199801209156 0)
(1.04723722969 -0.00323283487476 0)
(1.0484020387 -0.00527992806769 0)
(1.05006823524 -0.00871890429895 0)
(1.05229411941 -0.0145486278214 0)
(1.05483777437 -0.0243856534587 0)
(1.05691121071 -0.0405572200084 0)
(1.05580641874 -0.065932268142 0)
(1.04220884502 -0.100058682152 0)
(1.0044748339 0.0814039978655 0)
(1.06917236979 0.181288539153 0)
(1.13080567989 0.216950418661 0)
(1.17374999364 0.210789155067 0)
(1.19865263849 0.18369007598 0)
(1.21019986364 0.149751682047 0)
(1.21350253818 0.116779142473 0)
(1.21251721834 0.0882206759737 0)
(1.20973095816 0.0650481488404 0)
(1.20651116887 0.0470209067568 0)
(1.20351910345 0.0334068064824 0)
(1.2010114202 0.0233557307253 0)
(1.19903441759 0.0160720123938 0)
(1.19753874382 0.0108795127527 0)
(1.19644127679 0.00723418766142 0)
(1.19565554539 0.00471351871031 0)
(1.1951048468 0.0029976299762 0)
(1.1947264309 0.00184916239342 0)
(1.19447144686 0.00109496256097 0)
(1.19430313339 0.000610614030575 0)
(1.19419449084 0.000307989672478 0)
(1.19412620289 0.00012577192964 0)
(1.19408514986 2.22267834474e-05 0)
(1.19406188788 -3.24483158059e-05 0)
(1.19404958456 -5.72672689031e-05 0)
(1.19404408312 -6.45934781517e-05 0)
(1.19404258279 -6.23722808576e-05 0)
(1.19404326512 -5.55185466738e-05 0)
(1.19404501445 -4.69425858207e-05 0)
(1.19404717249 -3.82577830538e-05 0)
(1.19404936675 -3.0265147288e-05 0)
(1.19405140505 -2.3269647838e-05 0)
(1.19405321817 -1.72948308811e-05 0)
(1.19405480037 -1.22671203603e-05 0)
(1.19405616784 -8.0799801579e-06 0)
(1.19405733975 -4.67906538871e-06 0)
(1.1940582888 -2.06757867061e-06 0)
(1.1940589618 -1.77206034917e-07 0)
(1.19405931771 1.14182780033e-06 0)
(1.19405943147 1.99917226602e-06 0)
(1.19405948449 2.67961013349e-06 0)
(1.19405951332 3.28575879747e-06 0)
(1.19405949211 3.8173608845e-06 0)
(1.19405943762 4.28326711681e-06 0)
(1.19405934444 4.69500969481e-06 0)
(1.19405920253 5.06941609951e-06 0)
(1.19405901313 5.41812272739e-06 0)
(1.19405878056 5.74241736867e-06 0)
(1.19405852315 6.02980957664e-06 0)
(1.19405828326 6.27858583738e-06 0)
(1.19405809677 6.50979046854e-06 0)
(1.19405799411 6.71448415632e-06 0)
(1.19405802546 6.86661181657e-06 0)
(1.19405825319 6.92639058287e-06 0)
(1.19405872824 6.83671476202e-06 0)
(1.19405943544 6.51515293987e-06 0)
(1.19406041128 5.80649802585e-06 0)
(1.1940618014 4.38418513297e-06 0)
(1.19406417413 1.71904370879e-06 0)
(1.19406860081 -2.40190301511e-06 0)
(1.19407578975 -8.74295466791e-06 0)
(1.19408560736 -1.87393335528e-05 0)
(1.19409872421 -3.43748725244e-05 0)
(1.1941171213 -5.85572943921e-05 0)
(1.19414292805 -9.58768673507e-05 0)
(1.19417894598 -0.000153662630794 0)
(1.19422914855 -0.000243596795382 0)
(1.19429914941 -0.00038421123515 0)
(1.19439680657 -0.000605070726346 0)
(1.19453287841 -0.000953705430878 0)
(1.19472143787 -0.00150697071511 0)
(1.19497929242 -0.00238966172075 0)
(1.19532130006 -0.00380599317984 0)
(1.19574484786 -0.0060906295765 0)
(1.19618978501 -0.00978541635904 0)
(1.19643643928 -0.0157393939524 0)
(1.19589740637 -0.0251724556122 0)
(1.1934156117 -0.0395551649129 0)
(1.18664814601 -0.060153447701 0)
(1.17005595856 -0.0856878972307 0)
(0.998962324811 0.0544316256097 0)
(1.05310956472 0.133401607959 0)
(1.11628267481 0.170777558284 0)
(1.17301270871 0.175143871699 0)
(1.21791244836 0.159583605575 0)
(1.2504985616 0.134951018949 0)
(1.2728848909 0.108411655368 0)
(1.28776719767 0.0838849701461 0)
(1.29745265343 0.0630565705764 0)
(1.30366072124 0.0462999196356 0)
(1.30759231202 0.0333205132388 0)
(1.31005366787 0.0235495227318 0)
(1.31157359011 0.0163599068572 0)
(1.3124948913 0.0111713146716 0)
(1.3130385829 0.00749150667433 0)
(1.31334667318 0.00492448628651 0)
(1.31351008578 0.00316295594534 0)
(1.31358671441 0.00197475283134 0)
(1.31361308948 0.00118819804397 0)
(1.31361193878 0.000678630601302 0)
(1.31359710013 0.000357009939111 0)
(1.31357677813 0.000160755788206 0)
(1.31355578317 4.64711627276e-05 0)
(1.3135364873 -1.58672325128e-05 0)
(1.31351982925 -4.60559549503e-05 0)
(1.31350614087 -5.70663451369e-05 0)
(1.31349523711 -5.73216262408e-05 0)
(1.31348678084 -5.20838869084e-05 0)
(1.31348038382 -4.45224405464e-05 0)
(1.3134756608 -3.64616324205e-05 0)
(1.31347226061 -2.88744432147e-05 0)
(1.31346988007 -2.22142931105e-05 0)
(1.31346825958 -1.66325522559e-05 0)
(1.31346717086 -1.21365625806e-05 0)
(1.31346644839 -8.66042487185e-06 0)
(1.31346599471 -6.10250083947e-06 0)
(1.31346570868 -4.32567049472e-06 0)
(1.31346550068 -3.12288510395e-06 0)
(1.3134653676 -2.26474001538e-06 0)
(1.31346539591 -1.54653292098e-06 0)
(1.31346554861 -9.6841611595e-07 0)
(1.31346564667 -5.51891833032e-07 0)
(1.31346563846 -1.86806952309e-07 0)
(1.31346555581 1.56014659203e-07 0)
(1.31346542029 4.74452114968e-07 0)
(1.31346524422 7.77577441304e-07 0)
(1.31346503043 1.07813060371e-06 0)
(1.31346478066 1.38884980651e-06 0)
(1.31346450844 1.72373261909e-06 0)
(1.31346424672 2.07414857112e-06 0)
(1.31346401293 2.39362814706e-06 0)
(1.31346381462 2.64776498025e-06 0)
(1.31346368236 2.7938794838e-06 0)
(1.31346366619 2.76867335849e-06 0)
(1.31346384765 2.483541642e-06 0)
(1.31346434693 1.83664204977e-06 0)
(1.31346518844 7.63755685349e-07 0)
(1.31346634508 -9.19992344586e-07 0)
(1.31346825867 -3.33616980435e-06 0)
(1.31347123411 -7.20361281864e-06 0)
(1.31347539184 -1.38486353678e-05 0)
(1.31348097059 -2.48872401649e-05 0)
(1.31348822415 -4.18963936307e-05 0)
(1.31349762529 -6.80299126247e-05 0)
(1.31350947733 -0.000108319539135 0)
(1.31352383179 -0.000170523753691 0)
(1.31354028064 -0.000266762793528 0)
(1.31355747165 -0.000416026582807 0)
(1.31357213648 -0.000648227934127 0)
(1.31357726659 -0.0010107821732 0)
(1.31355874428 -0.00157904357361 0)
(1.31348896736 -0.00247248037508 0)
(1.3133133701 -0.0038792866914 0)
(1.31292393847 -0.00609344850555 0)
(1.31210993087 -0.00956215712902 0)
(1.31046457688 -0.0149314658679 0)
(1.30723174144 -0.0230370120026 0)
(1.30119634733 -0.0347306491522 0)
(1.29047983125 -0.0504662136791 0)
(1.27158923709 -0.0690374201893 0)
(0.995736073341 0.0346338600348 0)
(1.04179514086 0.0905689214135 0)
(1.10222838191 0.121549565066 0)
(1.16491410915 0.129605833898 0)
(1.22202565389 0.12200926792 0)
(1.26951890867 0.106019937537 0)
(1.30680222397 0.0870975549062 0)
(1.33499533774 0.0686366798362 0)
(1.35574475717 0.0523698377159 0)
(1.37069614889 0.0389256166237 0)
(1.38128273542 0.0282980721112 0)
(1.38866265603 0.0201712760214 0)
(1.39373031108 0.0141175094765 0)
(1.39715658387 0.00970533538222 0)
(1.39943432412 0.00655059497731 0)
(1.40091964468 0.00433445472303 0)
(1.4018661897 0.00280414532706 0)
(1.40245220901 0.00176574385764 0)
(1.40280130551 0.00107419620255 0)
(1.40299800135 0.000623236417305 0)
(1.40309922175 0.000336410902459 0)
(1.40314267445 0.000159625074817 0)
(1.40315293462 5.51663138986e-05 0)
(1.40314544541 -2.99601345898e-06 0)
(1.403129686 -3.21202970324e-05 0)
(1.40311128443 -4.38879550108e-05 0)
(1.4030932475 -4.57585707273e-05 0)
(1.40307709976 -4.24171935539e-05 0)
(1.40306344273 -3.67272629255e-05 0)
(1.40305235003 -3.03654716976e-05 0)
(1.40304361978 -2.42463427977e-05 0)
(1.40303692649 -1.88169463085e-05 0)
(1.40303190884 -1.42456576876e-05 0)
(1.40302821685 -1.0534542103e-05 0)
(1.40302555253 -7.58291742372e-06 0)
(1.40302368356 -5.2659187417e-06 0)
(1.40302243333 -3.46070114665e-06 0)
(1.40302165127 -2.02370815787e-06 0)
(1.40302117201 -8.50001402248e-07 0)
(1.40302080048 8.45680054574e-08 0)
(1.40302046909 7.97265488084e-07 0)
(1.40302026041 1.29045639597e-06 0)
(1.40302016143 1.6666883007e-06 0)
(1.40302007931 1.99203978422e-06 0)
(1.40301997942 2.30440409544e-06 0)
(1.40301985484 2.62208250518e-06 0)
(1.40301970401 2.95474300856e-06 0)
(1.40301952855 3.30769490461e-06 0)
(1.40301932762 3.68289314778e-06 0)
(1.40301909384 4.06677772942e-06 0)
(1.40301884078 4.41974543642e-06 0)
(1.40301860141 4.71267525645e-06 0)
(1.40301840259 4.90836308698e-06 0)
(1.40301827032 4.95031331515e-06 0)
(1.40301822588 4.75239686109e-06 0)
(1.4030182741 4.17504187716e-06 0)
(1.40301838265 3.0090851717e-06 0)
(1.40301864109 1.12453724636e-06 0)
(1.40301918477 -1.76390187743e-06 0)
(1.40302010461 -6.55665492551e-06 0)
(1.40302139659 -1.40217551596e-05 0)
(1.40302270787 -2.54712255034e-05 0)
(1.40302352009 -4.27414331732e-05 0)
(1.40302306711 -6.88029937839e-05 0)
(1.40301983645 -0.000108240018739 0)
(1.403011043 -0.000168085619108 0)
(1.40299184914 -0.000259256151013 0)
(1.40295400965 -0.000398614349905 0)
(1.40288344264 -0.000612285758765 0)
(1.40275622699 -0.000941045201091 0)
(1.4025322102 -0.00144856830718 0)
(1.40214467281 -0.00223348124185 0)
(1.4014812896 -0.00344566196837 0)
(1.40035270501 -0.00531018820972 0)
(1.39844399942 -0.00815203389052 0)
(1.39523923352 -0.0124095286106 0)
(1.38992059729 -0.018599194083 0)
(1.38133204213 -0.0271670490115 0)
(1.36796429321 -0.0382061534748 0)
(1.34740345649 -0.0508375081935 0)
(0.994011530542 0.0192358061453 0)
(1.03484763288 0.0523338402425 0)
(1.09199262126 0.0723631272237 0)
(1.15662419165 0.0791292315841 0)
(1.22032115288 0.0761045456721 0)
(1.27701944008 0.0673339705413 0)
(1.32424417447 0.0561509024179 0)
(1.3618157197 0.0447990098368 0)
(1.39068529002 0.0345303764504 0)
(1.41226073048 0.025881431403 0)
(1.42801820026 0.018946523067 0)
(1.43929881745 0.0135849813172 0)
(1.44722804883 0.00955653367996 0)
(1.4527041029 0.00660011500608 0)
(1.45641892658 0.00447419006858 0)
(1.45889141136 0.00297351357286 0)
(1.46050227559 0.00193276913033 0)
(1.46152567218 0.00122369463277 0)
(1.46215568785 0.000749551816855 0)
(1.46252751259 0.000439019450033 0)
(1.46273378969 0.000240523256401 0)
(1.46283693242 0.00011741441158 0)
(1.46287823486 4.40521606103e-05 0)
(1.46288447399 2.6936886494e-06 0)
(1.46287234963 -1.8441358485e-05 0)
(1.46285199816 -2.7435308869e-05 0)
(1.46282944682 -2.94354826658e-05 0)
(1.46280790837 -2.76859388489e-05 0)
(1.46278891058 -2.41845485462e-05 0)
(1.46277299782 -2.0112427289e-05 0)
(1.46276016113 -1.61180973552e-05 0)
(1.46275010605 -1.25243366841e-05 0)
(1.4627424219 -9.4577040923e-06 0)
(1.46273667642 -6.92900377457e-06 0)
(1.4627324709 -4.8844363134e-06 0)
(1.46272946301 -3.25460374869e-06 0)
(1.46272736438 -1.9763410622e-06 0)
(1.46272591806 -1.00838942029e-06 0)
(1.46272491268 -3.05503074366e-07 0)
(1.46272428364 2.19757506865e-07 0)
(1.46272391723 7.05719622706e-07 0)
(1.46272366434 1.18750336386e-06 0)
(1.46272349284 1.61879069968e-06 0)
(1.46272336311 2.00674228298e-06 0)
(1.46272324562 2.37293456474e-06 0)
(1.46272312125 2.73108291911e-06 0)
(1.46272297643 3.0869321057e-06 0)
(1.4627228025 3.43880501429e-06 0)
(1.46272259465 3.77793688575e-06 0)
(1.46272235016 4.09440482819e-06 0)
(1.46272207212 4.38110726207e-06 0)
(1.46272176772 4.60683659561e-06 0)
(1.46272144297 4.72200175436e-06 0)
(1.46272110559 4.65819133703e-06 0)
(1.46272076678 4.32501748903e-06 0)
(1.46272044351 3.60956071043e-06 0)
(1.46272015771 2.38807749463e-06 0)
(1.4627197989 5.94413854763e-07 0)
(1.46271915353 -2.11793332444e-06 0)
(1.46271810195 -6.48131487438e-06 0)
(1.46271639612 -1.33012141523e-05 0)
(1.46271335356 -2.36865805029e-05 0)
(1.46270783612 -3.9168255391e-05 0)
(1.46269801482 -6.21128007967e-05 0)
(1.46268079968 -9.61054108704e-05 0)
(1.46265098193 -0.000146525445165 0)
(1.46260003557 -0.000221612718877 0)
(1.46251414314 -0.000333743430621 0)
(1.46237062572 -0.000501541334735 0)
(1.46213231362 -0.000753558761547 0)
(1.46173915784 -0.00113399450045 0)
(1.46109603918 -0.00171005312462 0)
(1.46005064352 -0.00257818894387 0)
(1.45836058717 -0.00387887314739 0)
(1.45564966991 -0.0058058127484 0)
(1.45134873113 -0.00860427506388 0)
(1.44463135456 -0.012537757263 0)
(1.43441902257 -0.0177915680295 0)
(1.41943761247 -0.024320411537 0)
(1.39781886472 -0.0315856979303 0)
(0.99326966652 0.00617014995468 0)
(1.03158099694 0.0171020456311 0)
(1.08672181241 0.0239906482882 0)
(1.15174553631 0.0265606654643 0)
(1.2182353522 0.0258180584213 0)
(1.27925772841 0.0230488856412 0)
(1.33140134442 0.0193656308887 0)
(1.37377597005 0.0155468573489 0)
(1.40691051485 0.0120449296114 0)
(1.43203311339 0.00906639918197 0)
(1.45060212617 0.00666059428983 0)
(1.46402983297 0.0047900911528 0)
(1.47355013362 0.00337842822051 0)
(1.48017560534 0.00233873835173 0)
(1.48470225833 0.00158891456257 0)
(1.48773617476 0.00105828994 0)
(1.4897273129 0.000689464185782 0)
(1.49100274372 0.000437640218818 0)
(1.49179582482 0.000268887973451 0)
(1.49227019665 0.00015811377314 0)
(1.49253868992 8.71277696145e-05 0)
(1.49267776778 4.29784347911e-05 0)
(1.49273830262 1.65888646492e-05 0)
(1.49275347786 1.66864443963e-06 0)
(1.49274424208 -6.06399253218e-06 0)
(1.49272345481 -9.40915368143e-06 0)
(1.49269881123 -1.0215318458e-05 0)
(1.49267453925 -9.6521056588e-06 0)
(1.4926527363 -8.43815060111e-06 0)
(1.49263424389 -6.99147892508e-06 0)
(1.49261918451 -5.55240946069e-06 0)
(1.49260729579 -4.24083521925e-06 0)
(1.49259814818 -3.1041100218e-06 0)
(1.49259126613 -2.14835832793e-06 0)
(1.49258619563 -1.35736575932e-06 0)
(1.49258253646 -7.09294759865e-07 0)
(1.49257995293 -1.82656043378e-07 0)
(1.49257817531 2.44594944183e-07 0)
(1.49257699742 6.18925992293e-07 0)
(1.49257624188 9.91415515647e-07 0)
(1.49257575549 1.30071111136e-06 0)
(1.49257544612 1.59072642853e-06 0)
(1.49257525633 1.87883244474e-06 0)
(1.49257513347 2.17549024104e-06 0)
(1.4925750384 2.488222614e-06 0)
(1.49257494481 2.8201742522e-06 0)
(1.49257483419 3.17112802817e-06 0)
(1.49257469311 3.53751876905e-06 0)
(1.49257451134 3.91140199061e-06 0)
(1.49257428019 4.27962411402e-06 0)
(1.49257399394 4.62322107388e-06 0)
(1.49257364852 4.91105217914e-06 0)
(1.49257323727 5.09972832907e-06 0)
(1.4925727488 5.12997761312e-06 0)
(1.49257216279 4.92069995996e-06 0)
(1.49257144913 4.36031883567e-06 0)
(1.49257059899 3.29900778914e-06 0)
(1.49256949296 1.57043196244e-06 0)
(1.49256767974 -9.95384747312e-07 0)
(1.49256483527 -4.83133009314e-06 0)
(1.49256059252 -1.06558384413e-05 0)
(1.4925539325 -1.92211185985e-05 0)
(1.49254322218 -3.15742219376e-05 0)
(1.49252589804 -4.92493701565e-05 0)
(1.49249782398 -7.44066056573e-05 0)
(1.49245219678 -0.000110013137725 0)
(1.49237817376 -0.000160558015831 0)
(1.4922586665 -0.000232274724021 0)
(1.49206598733 -0.000333661879808 0)
(1.49175496635 -0.000477550322262 0)
(1.49125365903 -0.000685099931971 0)
(1.49045277816 -0.000987731908868 0)
(1.48918105898 -0.00141866199943 0)
(1.48717117318 -0.00202598504291 0)
(1.48402214639 -0.00287140099841 0)
(1.47914987984 -0.00402293211763 0)
(1.47174079819 -0.0055357702781 0)
(1.46077110334 -0.00741282224215 0)
(1.44507808126 -0.0095619599431 0)
(1.42302916521 -0.011736748714 0)
(0.993270464319 -0.0061684025701 0)
(1.03158097954 -0.0171003767233 0)
(1.08672174613 -0.023989762396 0)
(1.15174557403 -0.0265602476335 0)
(1.21823543018 -0.0258179938797 0)
(1.27925783056 -0.0230491109048 0)