/*--------------------------------*- C++ -*----------------------------------*\
| =========                 |                                                 |
| \\      /  F ield         | OpenFOAM: The Open Source CFD Toolbox           |
|  \\    /   O peration     | Version:  2106                                  |
|   \\  /    A nd           | Website:  www.openfoam.com                      |
|    \\/     M anipulation  |                                                 |
\*---------------------------------------------------------------------------*/
FoamFile
{
    version     2.0;
    format      ascii;
    arch        "LSB;label=32;scalar=64";
    class       volScalarField;
    location    "0.004";
    object      p;
}
// * * * * * * * * * * * * * * * * * * * * * * * * * * * * * * * * * * * * * //

dimensions      [0 2 -2 0 0 0 0];

internalField   nonuniform List<scalar> 
160000
(
4.55966
0.0128287
8.44685
-2.6761
9.75336
-2.59622
8.61527
-0.759041
6.55216
1.25199
4.87584
2.57873
3.97321
3.20628
3.6309
3.43932
3.54831
3.52061
3.55247
3.56079
3.57845
3.59358
3.60913
3.62491
3.64084
3.65683
3.67275
3.68865
3.70438
3.71982
3.73504
3.74991
3.7643
3.77829
3.79177
3.80466
3.81692
3.82856
3.83946
3.84956
3.85893
3.86747
3.87512
3.88186
3.88771
3.8927
3.89665
3.89961
3.90165
3.90272
3.90276
3.90178
3.89984
3.89695
3.89304
3.88822
3.88246
3.87585
3.86839
3.86007
3.8509
3.84092
3.83026
3.81888
3.80679
3.79408
3.7808
3.76706
3.75285
3.73826
3.72335
3.70813
3.69274
3.67718
3.66157
3.64594
3.63027
3.61471
3.59928
3.58411
3.56925
3.55469
3.54055
3.52682
3.51357
3.50089
3.4888
3.47741
3.46671
3.45675
3.44754
3.43909
3.43151
3.4248
3.41899
3.41412
3.41019
3.40725
3.40526
3.40425
3.40419
3.4051
3.40702
3.40988
3.41374
3.4185
3.4242
3.43083
3.43829
3.44666
3.45582
3.46577
3.47648
3.48788
3.49998
3.51267
3.52594
3.53971
3.5539
3.56852
3.58344
3.59865
3.61408
3.62963
3.6453
3.66097
3.67662
3.6922
3.70762
3.72286
3.7378
3.75243
3.76668
3.78046
3.79376
3.80648
3.81861
3.83008
3.84084
3.85088
3.86012
3.86857
3.87616
3.88289
3.88873
3.89362
3.89761
3.9006
3.90263
3.90368
3.9037
3.90276
3.90079
3.89787
3.894
3.88916
3.88344
3.8768
3.86931
3.86098
3.85182
3.8419
3.8312
3.81981
3.80777
3.79508
3.78187
3.76812
3.75394
3.73938
3.72449
3.70933
3.69397
3.67846
3.66284
3.64718
3.63154
3.61599
3.60058
3.5854
3.5705
3.55594
3.54178
3.52807
3.51487
3.50221
3.49014
3.47871
3.46798
3.45798
3.44876
3.44036
3.43281
3.42616
3.42041
3.41559
3.4117
3.40877
3.40681
3.40581
3.4058
3.40677
3.40874
3.41168
3.41559
3.42046
3.42625
3.43294
3.44049
3.4489
3.45812
3.46811
3.47885
3.49029
3.50238
3.51508
3.52832
3.54205
3.55622
3.57077
3.58566
3.60082
3.61622
3.63178
3.64744
3.66313
3.67878
3.69432
3.7097
3.72486
3.73976
3.75431
3.76849
3.78222
3.79543
3.80811
3.82015
3.83155
3.84225
3.85219
3.86139
3.86974
3.87724
3.88388
3.88958
3.89439
3.89823
3.90113
3.90308
3.90402
3.90401
3.90298
3.90097
3.89798
3.89401
3.88913
3.8833
3.87658
3.86896
3.86049
3.85121
3.84113
3.83034
3.81886
3.80674
3.79403
3.78073
3.76695
3.7527
3.73807
3.72312
3.70789
3.69247
3.67688
3.6612
3.64551
3.62982
3.61426
3.59883
3.58362
3.56869
3.55405
3.53984
3.52605
3.51281
3.50013
3.48803
3.47661
3.46586
3.45589
3.44671
3.43835
3.43088
3.42425
3.41853
3.41375
3.4099
3.40704
3.40513
3.4042
3.40425
3.40529
3.40733
3.41031
3.41428
3.41915
3.42494
3.43163
3.43917
3.44759
3.4568
3.46679
3.47751
3.4889
3.50097
3.51361
3.52683
3.54057
3.55473
3.56931
3.58419
3.59935
3.61476
3.63031
3.646
3.6617
3.67735
3.69289
3.70825
3.72342
3.7383
3.75286
3.76706
3.78081
3.79413
3.80685
3.81897
3.83044
3.84115
3.85114
3.86027
3.86858
3.87605
3.88263
3.88835
3.89314
3.89702
3.89995
3.90193
3.90292
3.90287
3.90186
3.89983
3.89679
3.89279
3.88786
3.88203
3.87524
3.86761
3.85914
3.84979
3.83969
3.82882
3.81725
3.80504
3.79217
3.77875
3.7648
3.75035
3.73554
3.72042
3.70499
3.68934
3.67356
3.65763
3.64167
3.62581
3.61
3.59442
3.57935
3.56198
3.55384
3.52216
3.5499
3.44082
3.6324
3.20799
3.97507
2.58066
4.87782
1.25421
6.55471
-0.75632
8.61832
-2.59239
9.75777
-2.67001
8.45535
0.0254188
4.56355
0.0183265
-4.5067
3.89677
-7.20267
5.21054
-7.12178
4.08118
-5.28402
2.02371
-3.27263
0.350057
-1.94552
-0.551376
-1.31786
-0.893362
-1.08475
-0.975681
-1.00336
-0.97166
-0.963331
-0.945512
-0.930475
-0.91478
-0.898978
-0.883075
-0.867096
-0.851184
-0.835304
-0.819618
-0.804168
-0.78894
-0.77412
-0.759702
-0.745717
-0.732252
-0.719329
-0.707082
-0.695458
-0.68455
-0.674455
-0.665089
-0.656557
-0.648893
-0.642132
-0.636294
-0.631338
-0.627363
-0.624371
-0.622344
-0.621307
-0.621241
-0.622222
-0.624184
-0.627075
-0.630939
-0.63575
-0.641521
-0.648145
-0.655617
-0.663961
-0.673105
-0.68307
-0.693744
-0.705144
-0.717218
-0.729916
-0.743222
-0.756983
-0.771201
-0.785779
-0.800682
-0.815889
-0.831272
-0.846812
-0.862428
-0.878062
-0.893719
-0.90926
-0.924684
-0.939874
-0.954754
-0.969313
-0.983451
-0.997189
-1.01043
-1.02311
-1.0352
-1.0466
-1.05732
-1.0673
-1.0765
-1.08493
-1.09251
-1.09923
-1.10504
-1.1099
-1.11384
-1.11678
-1.11878
-1.11979
-1.11983
-1.11891
-1.11699
-1.11413
-1.11028
-1.10552
-1.09982
-1.0932
-1.08572
-1.07736
-1.0682
-1.05825
-1.04752
-1.03612
-1.02401
-1.01133
-0.998078
-0.984304
-0.970112
-0.955492
-0.940575
-0.925369
-0.909946
-0.894396
-0.87872
-0.863045
-0.847381
-0.831795
-0.816385
-0.801146
-0.786212
-0.771588
-0.757342
-0.743566
-0.730259
-0.717535
-0.70542
-0.693943
-0.683194
-0.673149
-0.663907
-0.655455
-0.647846
-0.641122
-0.635276
-0.630382
-0.626411
-0.623426
-0.62141
-0.620368
-0.620341
-0.621271
-0.62322
-0.626132
-0.629999
-0.634829
-0.640554
-0.647194
-0.654704
-0.663049
-0.672226
-0.682163
-0.692856
-0.704253
-0.716298
-0.728969
-0.742177
-0.755907
-0.770072
-0.784624
-0.799512
-0.814661
-0.830031
-0.845551
-0.861171
-0.876831
-0.89247
-0.908024
-0.923428
-0.938614
-0.953516
-0.968075
-0.982234
-0.995945
-1.00916
-1.02182
-1.0339
-1.04532
-1.05606
-1.06606
-1.07527
-1.08367
-1.09121
-1.09787
-1.10362
-1.10844
-1.11232
-1.11525
-1.11722
-1.11821
-1.11822
-1.11724
-1.11528
-1.11234
-1.10843
-1.10357
-1.09779
-1.0911
-1.08355
-1.07514
-1.06592
-1.05592
-1.04518
-1.03374
-1.02165
-1.00895
-0.99571
-0.981978
-0.967804
-0.953249
-0.938361
-0.923193
-0.907801
-0.892244
-0.876588
-0.8609
-0.84525
-0.829703
-0.814315
-0.79915
-0.784251
-0.769698
-0.755521
-0.741791
-0.728587
-0.715908
-0.703868
-0.692474
-0.681765
-0.671832
-0.662637
-0.654291
-0.646786
-0.640142
-0.634439
-0.629624
-0.625779
-0.622881
-0.620933
-0.619997
-0.620011
-0.62105
-0.623062
-0.626045
-0.630012
-0.634889
-0.640721
-0.647442
-0.655055
-0.663532
-0.672808
-0.682892
-0.69367
-0.705166
-0.717283
-0.729993
-0.74329
-0.75706
-0.77131
-0.785944
-0.800887
-0.81613
-0.831542
-0.847137
-0.862814
-0.878505
-0.894197
-0.909756
-0.925191
-0.940405
-0.95533
-0.969967
-0.984164
-0.997947
-1.0112
-1.02388
-1.03598
-1.0474
-1.05814
-1.06812
-1.07729
-1.08566
-1.09314
-1.09977
-1.10549
-1.11027
-1.11413
-1.11698
-1.1189
-1.11982
-1.11977
-1.11874
-1.1167
-1.11373
-1.10976
-1.10488
-1.0991
-1.0924
-1.08485
-1.07643
-1.06722
-1.05723
-1.04651
-1.03511
-1.02304
-1.01039
-0.997183
-0.983449
-0.969292
-0.954709
-0.939825
-0.924655
-0.909237
-0.893686
-0.877998
-0.862311
-0.84666
-0.831111
-0.81575
-0.800567
-0.7857
-0.771131
-0.756931
-0.743184
-0.729889
-0.717171
-0.705057
-0.693595
-0.682881
-0.672895
-0.663757
-0.655442
-0.647968
-0.641371
-0.635648
-0.630863
-0.626967
-0.624035
-0.622073
-0.6211
-0.621138
-0.62216
-0.6242
-0.62722
-0.631202
-0.636157
-0.641989
-0.648766
-0.656404
-0.664877
-0.674218
-0.684329
-0.695182
-0.706751
-0.718988
-0.731844
-0.745263
-0.75923
-0.773638
-0.788431
-0.803587
-0.81899
-0.834634
-0.850439
-0.86634
-0.882302
-0.89817
-0.913998
-0.929727
-0.944441
-0.961988
-0.970237
-1.00185
-0.974209
-1.08323
-0.891768
-1.31617
-0.54953
-1.94368
0.352071
-3.27043
2.02615
-5.2814
4.08416
-7.11815
5.21468
-7.19702
3.90346
-4.49896
0.0208825
8.44572
3.89481
12.3194
1.19281
13.6188
1.26988
12.4766
3.10471
10.4117
5.11349
8.73468
6.43879
7.83215
7.06555
7.48968
7.2983
7.40725
7.37963
7.41129
7.41958
7.43739
7.45224
7.46803
7.48389
7.4998
7.51579
7.5317
7.54754
7.56326
7.57869
7.5939
7.60873
7.62315
7.63712
7.65059
7.66351
7.67576
7.68736
7.69827
7.70839
7.71776
7.72629
7.73395
7.74071
7.74655
7.7515
7.75548
7.75848
7.76051
7.76153
7.76159
7.76063
7.75869
7.75578
7.7519
7.74711
7.74137
7.73474
7.72724
7.71889
7.70975
7.69977
7.68909
7.67768
7.6656
7.65293
7.63965
7.62592
7.61169
7.5971
7.5822
7.567
7.55162
7.53604
7.52041
7.50476
7.4891
7.47357
7.45816
7.44298
7.42809
7.41352
7.39938
7.38565
7.37242
7.35976
7.34766
7.33626
7.32552
7.31554
7.30633
7.2979
7.29035
7.28364
7.27784
7.27297
7.26902
7.26607
7.26406
7.26305
7.263
7.26392
7.26585
7.26872
7.27258
7.27735
7.28305
7.28968
7.29716
7.30552
7.31467
7.32462
7.33534
7.34674
7.35884
7.37152
7.38477
7.39854
7.41273
7.42735
7.44227
7.45747
7.4729
7.48845
7.50413
7.5198
7.53546
7.55105
7.56646
7.5817
7.59664
7.61127
7.62552
7.63929
7.6526
7.66532
7.67743
7.68892
7.69967
7.70973
7.71897
7.72742
7.73502
7.74174
7.74758
7.75247
7.75645
7.75943
7.76145
7.76249
7.76252
7.76158
7.75963
7.75671
7.75284
7.74801
7.74229
7.73565
7.72815
7.71982
7.71064
7.70072
7.69002
7.67863
7.66658
7.6539
7.64069
7.62695
7.61278
7.59823
7.58334
7.56818
7.5528
7.53728
7.52166
7.506
7.49037
7.47482
7.45942
7.44423
7.42933
7.41478
7.40062
7.3869
7.37369
7.36102
7.34895
7.33753
7.3268
7.31681
7.3076
7.2992
7.29166
7.28499
7.27924
7.27441
7.27052
7.26759
7.26562
7.26463
7.26462
7.2656
7.26757
7.27052
7.27443
7.27929
7.28507
7.29176
7.29932
7.30772
7.31695
7.32695
7.33769
7.34912
7.36121
7.3739
7.38713
7.40086
7.41505
7.4296
7.4445
7.45967
7.47506
7.49062
7.50627
7.52195
7.5376
7.55314
7.56853
7.58369
7.59859
7.61315
7.62731
7.64104
7.65425
7.66693
7.67897
7.69037
7.70108
7.71102
7.72021
7.72856
7.73607
7.74271
7.74842
7.75323
7.75708
7.75997
7.76192
7.76286
7.76284
7.7618
7.75979
7.75681
7.75285
7.74797
7.74213
7.73541
7.72779
7.71931
7.71005
7.69997
7.6892
7.6777
7.66558
7.65286
7.63956
7.62578
7.61153
7.5969
7.58196
7.56672
7.5513
7.53571
7.52003
7.50434
7.48865
7.47309
7.45765
7.44243
7.42751
7.41287
7.39868
7.3849
7.37165
7.35896
7.34687
7.33545
7.32472
7.31475
7.30558
7.29721
7.28972
7.28309
7.27737
7.27259
7.26874
7.26587
7.26395
7.26303
7.26308
7.26412
7.26615
7.26913
7.27309
7.27796
7.28375
7.29045
7.29799
7.30642
7.31562
7.3256
7.33633
7.34773
7.3598
7.37246
7.38568
7.39941
7.41357
7.42815
7.44303
7.4582
7.47363
7.48917
7.50485
7.52052
7.53616
7.55172
7.56708
7.58227
7.59715
7.61173
7.62594
7.63969
7.65298
7.66569
7.67779
7.68925
7.69995
7.70993
7.71908
7.72742
7.7349
7.7415
7.74723
7.75202
7.7559
7.75882
7.76077
7.76174
7.76169
7.76066
7.75863
7.75561
7.75164
7.7467
7.74086
7.73408
7.72644
7.71796
7.70862
7.69851
7.68766
7.67608
7.66385
7.65099
7.63757
7.62361
7.60921
7.59442
7.57927
7.56386
7.54821
7.53241
7.51652
7.50057
7.4847
7.46887
7.45312
7.43848
7.42087
7.41266
7.38102
7.40871
7.29979
7.49128
7.06723
7.83389
6.44063
8.73669
5.11563
10.414
3.10726
12.4795
1.27325
13.6225
1.19734
12.3239
3.89892
8.44701
-2.68516
-7.2107
1.18778
-9.90257
2.49838
-9.82093
1.37183
-7.9835
-0.682085
-5.97286
-2.35338
-4.64646
-3.25351
-4.01913
-3.59506
-3.7862
-3.67723
-3.70475
-3.6731
-3.6647
-3.64706
-3.63227
-3.61633
-3.6005
-3.58457
-3.56859
-3.55267
-3.53683
-3.52115
-3.5057
-3.49051
-3.47569
-3.46125
-3.44727
-3.43382
-3.42091
-3.40866
-3.39705
-3.38614
-3.37601
-3.36664
-3.35813
-3.35047
-3.3437
-3.33785
-3.33291
-3.32893
-3.32592
-3.32389
-3.32288
-3.32283
-3.32379
-3.32573
-3.32862
-3.3325
-3.33729
-3.34303
-3.34966
-3.35717
-3.36553
-3.37467
-3.38463
-3.39531
-3.40673
-3.41881
-3.4315
-3.44477
-3.45852
-3.47274
-3.48733
-3.50223
-3.51742
-3.5328
-3.54834
-3.56399
-3.57964
-3.59531
-3.61083
-3.62624
-3.64142
-3.65631
-3.67089
-3.68504
-3.69877
-3.712
-3.72466
-3.73675
-3.74816
-3.7589
-3.7689
-3.77811
-3.78654
-3.7941
-3.8008
-3.8066
-3.81146
-3.81541
-3.81836
-3.82038
-3.82139
-3.82144
-3.82051
-3.81858
-3.81571
-3.81186
-3.80708
-3.80137
-3.79475
-3.78726
-3.7789
-3.76974
-3.75978
-3.74906
-3.73766
-3.72557
-3.71289
-3.69964
-3.68588
-3.67169
-3.65707
-3.64216
-3.62695
-3.61153
-3.59597
-3.5803
-3.56462
-3.54895
-3.53336
-3.51795
-3.50271
-3.48778
-3.47316
-3.45891
-3.44515
-3.43184
-3.41913
-3.40701
-3.39553
-3.38478
-3.37473
-3.36548
-3.35703
-3.34942
-3.3427
-3.33685
-3.33197
-3.328
-3.32502
-3.323
-3.32196
-3.32193
-3.32286
-3.32481
-3.32772
-3.33158
-3.3364
-3.34212
-3.34876
-3.35628
-3.36463
-3.3738
-3.38374
-3.39445
-3.40584
-3.41789
-3.43056
-3.44377
-3.45749
-3.47164
-3.48619
-3.50108
-3.51624
-3.53162
-3.54715
-3.56277
-3.57843
-3.59406
-3.60961
-3.62501
-3.64019
-3.65509
-3.66965
-3.6838
-3.69753
-3.71075
-3.72342
-3.7355
-3.74692
-3.75765
-3.76764
-3.77685
-3.78524
-3.79279
-3.79945
-3.8052
-3.81003
-3.81391
-3.81684
-3.81881
-3.8198
-3.81981
-3.81882
-3.81685
-3.81391
-3.81
-3.80515
-3.79937
-3.79269
-3.78514
-3.77673
-3.76751
-3.7575
-3.74676
-3.73532
-3.72323
-3.71055
-3.69731
-3.68358
-3.66939
-3.65483
-3.63993
-3.62476
-3.60937
-3.59382
-3.57817
-3.56249
-3.54684
-3.53129
-3.5159
-3.50074
-3.48584
-3.47128
-3.45712
-3.44339
-3.43018
-3.41751
-3.40546
-3.39407
-3.38335
-3.37342
-3.36422
-3.35588
-3.34837
-3.34173
-3.33602
-3.3312
-3.32735
-3.32445
-3.32252
-3.32158
-3.32161
-3.32265
-3.32466
-3.32763
-3.3316
-3.33647
-3.34231
-3.34903
-3.35665
-3.36513
-3.37439
-3.38447
-3.39524
-3.40673
-3.41886
-3.43157
-3.44488
-3.45865
-3.47289
-3.48752
-3.50246
-3.5177
-3.53312
-3.54871
-3.56439
-3.58008
-3.59577
-3.61134
-3.62677
-3.64199
-3.65692
-3.67155
-3.68574
-3.69951
-3.71276
-3.72544
-3.73754
-3.74895
-3.75969
-3.76966
-3.77884
-3.78721
-3.7947
-3.80134
-3.80706
-3.81184
-3.8157
-3.81856
-3.82048
-3.82141
-3.82135
-3.82032
-3.81829
-3.81532
-3.81136
-3.80649
-3.80069
-3.79399
-3.78644
-3.77801
-3.76881
-3.75882
-3.74809
-3.73669
-3.72462
-3.71196
-3.69875
-3.68501
-3.67086
-3.65629
-3.6414
-3.62621
-3.61079
-3.59525
-3.57957
-3.5639
-3.54825
-3.5327
-3.51732
-3.50213
-3.48725
-3.47267
-3.45847
-3.44472
-3.43144
-3.41874
-3.40664
-3.3952
-3.38449
-3.37451
-3.36536
-3.35701
-3.34953
-3.34292
-3.33719
-3.33239
-3.3285
-3.32559
-3.32365
-3.32268
-3.32273
-3.32376
-3.32579
-3.3288
-3.33277
-3.33771
-3.34355
-3.35032
-3.35797
-3.36646
-3.3758
-3.3859
-3.39676
-3.40834
-3.42057
-3.43344
-3.44685
-3.46081
-3.47521
-3.49
-3.50515
-3.52055
-3.5362
-3.55199
-3.56788
-3.58382
-3.5997
-3.61551
-3.6313
-3.64593
-3.6635
-3.67178
-3.70339
-3.67581
-3.78472
-3.59351
-4.01753
-3.25179
-4.64469
-2.35144
-5.97084
-0.679836
-7.98116
1.37446
-9.81803
2.50142
-9.8992
1.19061
-7.20825
-2.6846
9.73574
5.19424
13.6061
2.49089
14.9
2.56441
13.757
4.39532
11.6933
6.40099
10.0177
7.72436
9.11596
8.35028
8.77383
8.58266
8.69144
8.66393
8.69552
8.70391
8.72149
8.73628
8.75223
8.76805
8.78397
8.79994
8.81587
8.83171
8.84738
8.86282
8.87802
8.89284
8.90728
8.92125
8.93471
8.9476
8.95986
8.97147
8.98237
8.99251
9.00188
9.01039
9.01804
9.02482
9.03066
9.03562
9.03959
9.0426
9.04463
9.04564
9.04569
9.04473
9.04281
9.03992
9.03604
9.03125
9.02551
9.01888
9.01137
9.00301
8.99386
8.98388
8.9732
8.96178
8.9497
8.93702
8.92376
8.91002
8.89581
8.88123
8.86633
8.85113
8.83575
8.82018
8.80454
8.78888
8.77321
8.75768
8.74228
8.7271
8.71222
8.69764
8.68349
8.66976
8.65653
8.64387
8.63178
8.62036
8.60963
8.59963
8.59041
8.58199
8.57443
8.56773
8.56193
8.55707
8.55312
8.55016
8.54815
8.54713
8.54709
8.54801
8.54994
8.55281
8.55667
8.56144
8.56716
8.57378
8.58127
8.58963
8.59879
8.60875
8.61946
8.63087
8.64295
8.65562
8.66887
8.68263
8.69683
8.71144
8.72636
8.74156
8.75699
8.77254
8.78822
8.8039
8.81957
8.83515
8.85056
8.8658
8.88074
8.89537
8.90962
8.92339
8.93669
8.9494
8.96152
8.97301
8.98377
8.99382
9.00306
9.01152
9.01913
9.02584
9.03169
9.03657
9.04053
9.04351
9.04553
9.04658
9.04661
9.04566
9.04371
9.0408
9.03694
9.03211
9.02639
9.01975
9.01225
9.00391
8.99473
8.9848
8.9741
8.9627
8.95065
8.93797
8.92476
8.91104
8.89688
8.88233
8.86744
8.85227
8.8369
8.82137
8.80574
8.79009
8.77445
8.75891
8.74351
8.72833
8.71343
8.69887
8.68471
8.671
8.65777
8.6451
8.63303
8.62161
8.61088
8.6009
8.59169
8.58329
8.57575
8.56908
8.56332
8.55849
8.5546
8.55166
8.5497
8.5487
8.5487
8.54969
8.55166
8.55461
8.55852
8.56338
8.56916
8.57584
8.5834
8.59181
8.60103
8.61104
8.62178
8.63321
8.64529
8.65797
8.67121
8.68495
8.69913
8.71369
8.72859
8.74377
8.75916
8.77471
8.79036
8.80603
8.82168
8.83723
8.85262
8.86778
8.88267
8.89723
8.9114
8.92513
8.93833
8.951
8.96305
8.97446
8.98517
8.99511
9.0043
9.01264
9.02015
9.02679
9.03251
9.03733
9.04118
9.04408
9.04601
9.04695
9.04692
9.04588
9.04388
9.0409
9.03694
9.03206
9.02622
9.01949
9.01188
9.0034
8.99414
8.98406
8.9733
8.9618
8.94967
8.93695
8.92365
8.90987
8.89562
8.88099
8.86605
8.85081
8.83539
8.8198
8.80412
8.78843
8.77274
8.75717
8.74173
8.72652
8.71159
8.69696
8.68277
8.669
8.65575
8.64307
8.63097
8.61956
8.60883
8.59886
8.58969
8.58131
8.57382
8.56718
8.56146
8.55669
8.55283
8.54997
8.54804
8.54712
8.54718
8.54821
8.55024
8.55321
8.55716
8.56203
8.56783
8.57453
8.58208
8.5905
8.59971
8.6097
8.62042
8.63183
8.6439
8.65656
8.66978
8.68352
8.69768
8.71226
8.72714
8.74233
8.75774
8.77329
8.78895
8.80462
8.82027
8.83582
8.8512
8.86639
8.88128
8.89587
8.91007
8.92382
8.93709
8.94979
8.96188
8.97333
8.98403
8.99401
9.00317
9.01153
9.01902
9.02564
9.03137
9.03616
9.04004
9.04294
9.04488
9.04584
9.04578
9.04475
9.04272
9.03971
9.03575
9.03081
9.02497
9.0182
9.01055
9.00206
8.99272
8.98262
8.97175
8.96017
8.94795
8.93508
8.92166
8.90771
8.89331
8.87852
8.86337
8.84797
8.83233
8.81654
8.80066
8.78473
8.76886
8.75306
8.73727
8.72261
8.70507
8.69679
8.66522
8.69284
8.58408
8.77533
8.35183
9.1176
7.72608
10.0195
6.40289
11.6954
4.39746
13.7593
2.56686
14.9024
2.49338
13.608
5.19578
9.736
-2.6241
-7.14801
1.24731
-9.83801
2.55482
-9.75651
1.42727
-7.92055
-0.62586
-5.91175
-2.29597
-4.58675
-3.19534
-3.96014
-3.53659
-3.7275
-3.61869
-3.64616
-3.61456
-3.60617
-3.58858
-3.57382
-3.55785
-3.54204
-3.52613
-3.51014
-3.49422
-3.47839
-3.46272
-3.44728
-3.4321
-3.41728
-3.40284
-3.38887
-3.37543
-3.36253
-3.35027
-3.33866
-3.32775
-3.31762
-3.30825
-3.29974
-3.29209
-3.28531
-3.27946
-3.27451
-3.27053
-3.26753
-3.2655
-3.26449
-3.26444
-3.2654
-3.26732
-3.27021
-3.27408
-3.27887
-3.28462
-3.29125
-3.29876
-3.30713
-3.31628
-3.32625
-3.33693
-3.34835
-3.36043
-3.37311
-3.38638
-3.40012
-3.41433
-3.42891
-3.4438
-3.459
-3.47438
-3.48994
-3.50558
-3.52125
-3.53691
-3.55245
-3.56786
-3.58303
-3.59792
-3.6125
-3.62665
-3.64038
-3.65361
-3.66627
-3.67836
-3.68978
-3.70052
-3.71052
-3.71974
-3.72817
-3.73573
-3.74243
-3.74823
-3.75309
-3.75703
-3.75999
-3.762
-3.76302
-3.76306
-3.76213
-3.76021
-3.75734
-3.75349
-3.74872
-3.743
-3.73637
-3.72888
-3.72051
-3.71135
-3.70139
-3.69067
-3.67927
-3.66718
-3.65451
-3.64127
-3.62751
-3.61332
-3.59871
-3.58379
-3.56858
-3.55316
-3.5376
-3.52192
-3.50624
-3.49058
-3.47499
-3.45958
-3.44434
-3.4294
-3.41478
-3.40054
-3.38678
-3.37348
-3.36077
-3.34865
-3.33716
-3.32641
-3.31636
-3.30711
-3.29865
-3.29104
-3.28433
-3.27849
-3.2736
-3.26964
-3.26666
-3.26464
-3.2636
-3.26357
-3.26451
-3.26645
-3.26935
-3.27321
-3.27803
-3.28375
-3.29039
-3.29791
-3.30625
-3.31543
-3.32537
-3.33608
-3.34747
-3.35953
-3.3722
-3.3854
-3.39912
-3.41327
-3.42782
-3.44272
-3.45788
-3.47326
-3.48879
-3.50441
-3.52007
-3.5357
-3.55125
-3.56665
-3.58182
-3.59672
-3.61128
-3.62544
-3.63916
-3.65239
-3.66506
-3.67714
-3.68856
-3.69929
-3.70928
-3.71848
-3.72687
-3.73442
-3.74108
-3.74684
-3.75167
-3.75556
-3.75849
-3.76046
-3.76144
-3.76145
-3.76046
-3.75848
-3.75554
-3.75163
-3.74678
-3.74101
-3.73433
-3.72678
-3.71837
-3.70914
-3.69913
-3.68839
-3.67696
-3.66488
-3.65219
-3.63895
-3.62521
-3.61102
-3.59646
-3.58156
-3.56639
-3.551
-3.53545
-3.5198
-3.50413
-3.48848
-3.47293
-3.45754
-3.44238
-3.42749
-3.41293
-3.39876
-3.38504
-3.37182
-3.35916
-3.3471
-3.33571
-3.325
-3.31505
-3.30587
-3.29752
-3.29001
-3.28337
-3.27764
-3.27283
-3.26898
-3.26608
-3.26415
-3.26322
-3.26325
-3.26429
-3.2663
-3.26927
-3.27323
-3.2781
-3.28395
-3.29067
-3.29829
-3.30677
-3.31602
-3.3261
-3.33686
-3.34836
-3.36049
-3.37321
-3.38651
-3.40028
-3.41453
-3.42916
-3.44409
-3.45933
-3.47475
-3.49034
-3.50602
-3.52171
-3.53741
-3.55298
-3.56841
-3.58363
-3.59856
-3.61318
-3.62737
-3.64114
-3.65439
-3.66707
-3.67916
-3.69057
-3.70131
-3.71128
-3.72046
-3.72884
-3.73633
-3.74297
-3.74869
-3.75347
-3.75732
-3.76019
-3.76211
-3.76303
-3.76298
-3.76195
-3.75992
-3.75695
-3.753
-3.74813
-3.74233
-3.73563
-3.72807
-3.71965
-3.71044
-3.70045
-3.68972
-3.67832
-3.66624
-3.65358
-3.64036
-3.62663
-3.61247
-3.5979
-3.583
-3.56782
-3.55241
-3.53686
-3.5212
-3.50552
-3.48988
-3.47431
-3.45893
-3.44374
-3.42884
-3.41426
-3.40006
-3.38632
-3.37305
-3.36036
-3.34827
-3.33683
-3.32613
-3.31613
-3.30698
-3.29862
-3.29113
-3.28451
-3.27877
-3.27398
-3.27009
-3.26719
-3.26526
-3.2643
-3.26436
-3.26538
-3.26741
-3.27042
-3.27438
-3.27932
-3.28516
-3.29194
-3.29958
-3.30807
-3.31741
-3.32751
-3.33838
-3.34996
-3.36219
-3.37506
-3.38846
-3.40242
-3.41682
-3.4316
-3.44675
-3.46215
-3.47779
-3.49357
-3.50944
-3.52537
-3.54124
-3.55702
-3.57285
-3.58749
-3.60505
-3.61334
-3.64491
-3.61736
-3.72614
-3.53514
-3.95866
-3.19377
-4.58515
-2.29425
-5.90999
-0.623947
-7.91866
1.42932
-9.75449
2.55685
-9.83613
1.24878
-7.14693
-2.62375
8.57557
4.04324
12.4425
1.34334
13.736
1.41595
12.5954
3.24439
10.5345
5.24793
8.86091
6.56999
7.96015
7.19528
7.61838
7.42742
7.53608
7.50858
7.54014
7.54851
7.56608
7.58081
7.59678
7.61259
7.6285
7.64448
7.66039
7.67622
7.69188
7.70732
7.7225
7.73733
7.75175
7.76572
7.77916
7.79207
7.80432
7.81593
7.82684
7.83697
7.84633
7.85484
7.86249
7.86927
7.87513
7.88008
7.88406
7.88706
7.88908
7.8901
7.89014
7.88919
7.88728
7.8844
7.88053
7.87574
7.86999
7.86336
7.85584
7.84748
7.83832
7.82834
7.81766
7.80623
7.79416
7.78147
7.76821
7.75448
7.74028
7.7257
7.7108
7.6956
7.68022
7.66466
7.64901
7.63334
7.61767
7.60214
7.58674
7.57156
7.55667
7.5421
7.52794
7.51421
7.50099
7.48832
7.47623
7.46481
7.45407
7.44406
7.43484
7.42642
7.41886
7.41216
7.40636
7.4015
7.39755
7.3946
7.39259
7.39157
7.39152
7.39245
7.39437
7.39724
7.4011
7.40587
7.41159
7.41822
7.42572
7.43408
7.44324
7.4532
7.46391
7.47532
7.4874
7.50007
7.51331
7.52707
7.54126
7.55587
7.57078
7.58599
7.60142
7.61697
7.63265
7.64833
7.66399
7.67958
7.695
7.71024
7.72518
7.7398
7.75404
7.76781
7.78111
7.79383
7.80594
7.81743
7.82819
7.83825
7.84749
7.85595
7.86356
7.87027
7.87611
7.88099
7.88495
7.88793
7.88995
7.89099
7.89102
7.89008
7.88814
7.88523
7.88136
7.87654
7.87082
7.86418
7.85668
7.84833
7.83915
7.82921
7.8185
7.8071
7.79505
7.78238
7.76919
7.75546
7.74131
7.72675
7.71186
7.6967
7.68132
7.66579
7.65017
7.63451
7.61888
7.60333
7.58793
7.57276
7.55786
7.5433
7.52913
7.51541
7.50219
7.48951
7.47744
7.46602
7.4553
7.44531
7.43611
7.42771
7.42017
7.4135
7.40774
7.40291
7.39901
7.39607
7.39411
7.39312
7.39312
7.39411
7.39609
7.39904
7.40295
7.4078
7.41357
7.42025
7.42781
7.43622
7.44545
7.45545
7.46619
7.47762
7.4897
7.50238
7.51563
7.52937
7.54355
7.55812
7.57302
7.58819
7.60358
7.61913
7.63478
7.65046
7.6661
7.68165
7.69704
7.7122
7.72709
7.74165
7.75581
7.76954
7.78275
7.79542
7.80747
7.81887
7.82958
7.83952
7.84871
7.85706
7.86457
7.87121
7.87694
7.88175
7.88561
7.8885
7.89043
7.89137
7.89134
7.8903
7.88829
7.88532
7.88136
7.87648
7.87063
7.86391
7.85629
7.84782
7.83856
7.82849
7.81773
7.80623
7.7941
7.78138
7.76807
7.75429
7.74004
7.72541
7.71048
7.69524
7.67982
7.66423
7.64855
7.63285
7.61716
7.60159
7.58615
7.57094
7.55601
7.54139
7.52719
7.51343
7.50018
7.4875
7.47541
7.464
7.45327
7.4433
7.43412
7.42574
7.41825
7.41161
7.40589
7.40112
7.39726
7.3944
7.39247
7.39155
7.39161
7.39264
7.39466
7.39763
7.40158
7.40645
7.41225
7.41895
7.42651
7.43493
7.44414
7.45413
7.46486
7.47627
7.48835
7.501
7.51423
7.52796
7.54213
7.55671
7.5716
7.58678
7.60218
7.61773
7.6334
7.64907
7.66472
7.68028
7.69566
7.71086
7.72576
7.74034
7.75455
7.76829
7.78155
7.79424
7.80633
7.81776
7.82847
7.83847
7.84762
7.85599
7.86349
7.87011
7.87585
7.88064
7.88452
7.88741
7.88934
7.89028
7.89023
7.8892
7.88717
7.88417
7.8802
7.87527
7.86943
7.86265
7.85501
7.84652
7.83718
7.82707
7.8162
7.80462
7.7924
7.77953
7.76612
7.75217
7.73777
7.72299
7.70784
7.69244
7.67681
7.66103
7.64517
7.62926
7.61339
7.59761
7.58178
7.56714
7.54961
7.54132
7.50979
7.53736
7.42872
7.61976
7.19669
7.96164
6.5715
8.86251
5.24952
10.5362
3.24608
12.5971
1.4176
13.7376
1.34474
12.4436
4.04399
8.57579
-0.812332
-5.33554
3.057
-8.02548
4.36095
-7.94527
3.23104
-6.11166
1.17739
-4.10518
-0.492481
-2.78172
-1.39159
-2.15589
-1.73277
-1.92359
-1.8149
-1.84237
-1.81081
-1.80245
-1.78488
-1.77016
-1.75421
-1.73839
-1.72249
-1.7065
-1.69061
-1.67479
-1.65913
-1.64369
-1.62851
-1.6137
-1.59928
-1.58531
-1.57188
-1.55897
-1.54671
-1.5351
-1.5242
-1.51407
-1.50471
-1.4962
-1.48855
-1.48176
-1.4759
-1.47096
-1.46698
-1.46398
-1.46196
-1.46095
-1.4609
-1.46185
-1.46376
-1.46664
-1.47051
-1.4753
-1.48105
-1.48769
-1.4952
-1.50357
-1.51272
-1.5227
-1.53339
-1.54481
-1.55689
-1.56957
-1.58283
-1.59656
-1.61076
-1.62534
-1.64023
-1.65543
-1.67081
-1.68638
-1.70203
-1.7177
-1.73337
-1.74891
-1.76431
-1.77949
-1.79438
-1.80895
-1.8231
-1.83684
-1.85006
-1.86273
-1.87482
-1.88624
-1.89699
-1.907
-1.91622
-1.92464
-1.93221
-1.93891
-1.9447
-1.94956
-1.9535
-1.95646
-1.95847
-1.95949
-1.95953
-1.95861
-1.95668
-1.95382
-1.94996
-1.94519
-1.93947
-1.93284
-1.92534
-1.91698
-1.90781
-1.89785
-1.88714
-1.87573
-1.86366
-1.85099
-1.83774
-1.82399
-1.8098
-1.79519
-1.78027
-1.76507
-1.74964
-1.73409
-1.71841
-1.70273
-1.68706
-1.67147
-1.65606
-1.64082
-1.62588
-1.61126
-1.59702
-1.58326
-1.56996
-1.55725
-1.54514
-1.53365
-1.5229
-1.51283
-1.50358
-1.49513
-1.48752
-1.48082
-1.47497
-1.47009
-1.46613
-1.46315
-1.46113
-1.4601
-1.46006
-1.461
-1.46294
-1.46584
-1.4697
-1.47452
-1.48024
-1.48688
-1.49438
-1.50273
-1.51191
-1.52186
-1.53257
-1.54397
-1.55602
-1.56869
-1.58188
-1.5956
-1.60975
-1.62431
-1.6392
-1.65437
-1.66975
-1.68528
-1.70091
-1.71656
-1.7322
-1.74774
-1.76314
-1.77831
-1.7932
-1.80776
-1.82193
-1.83566
-1.84888
-1.86155
-1.87363
-1.88505
-1.89578
-1.90576
-1.91497
-1.92336
-1.9309
-1.93757
-1.94332
-1.94816
-1.95205
-1.95499
-1.95696
-1.95794
-1.95794
-1.95694
-1.95497
-1.95202
-1.94812
-1.94327
-1.9375
-1.93082
-1.92326
-1.91485
-1.90563
-1.89563
-1.88489
-1.87345
-1.86137
-1.84868
-1.83544
-1.82169
-1.80751
-1.79294
-1.77805
-1.76288
-1.74749
-1.73194
-1.71629
-1.70062
-1.68497
-1.66942
-1.65404
-1.63887
-1.62399
-1.60943
-1.59526
-1.58153
-1.56832
-1.55565
-1.5436
-1.5322
-1.5215
-1.51155
-1.50237
-1.49402
-1.4865
-1.47986
-1.47413
-1.46932
-1.46546
-1.46257
-1.46065
-1.45971
-1.45974
-1.46078
-1.46279
-1.46576
-1.46972
-1.47459
-1.48044
-1.48716
-1.49478
-1.50326
-1.51251
-1.52258
-1.53334
-1.54484
-1.55697
-1.56969
-1.583
-1.59677
-1.61102
-1.62565
-1.64058
-1.65582
-1.67124
-1.68683
-1.70251
-1.7182
-1.7339
-1.74947
-1.76491
-1.78012
-1.79505
-1.80967
-1.82386
-1.83762
-1.85087
-1.86355
-1.87564
-1.88705
-1.89778
-1.90775
-1.91693
-1.92531
-1.93281
-1.93945
-1.94517
-1.94995
-1.9538
-1.95666
-1.95859
-1.95951
-1.95945
-1.95843
-1.95641
-1.95344
-1.94949
-1.94462
-1.93882
-1.93212
-1.92455
-1.91613
-1.90692
-1.89692
-1.88619
-1.87479
-1.86271
-1.85005
-1.83683
-1.82309
-1.80893
-1.79435
-1.77946
-1.76428
-1.74888
-1.73333
-1.71766
-1.70199
-1.68634
-1.67077
-1.65538
-1.64018
-1.62528
-1.6107
-1.5965
-1.58276
-1.5695
-1.55681
-1.54473
-1.53329
-1.5226
-1.51259
-1.50343
-1.49507
-1.48757
-1.48094
-1.4752
-1.47041
-1.46653
-1.46364
-1.46171
-1.46076
-1.46082
-1.46185
-1.46387
-1.46688
-1.47084
-1.47577
-1.48162
-1.48839
-1.49604
-1.50453
-1.51387
-1.52397
-1.53484
-1.54642
-1.55864
-1.57151
-1.58492
-1.59886
-1.61326
-1.62804
-1.64318
-1.65858
-1.6742
-1.68998
-1.70584
-1.72175
-1.73761
-1.75338
-1.76923
-1.78386
-1.80139
-1.80968
-1.84122
-1.81367
-1.92234
-1.73146
-2.15456
-1.39021
-2.78031
-0.491005
-4.10369
1.17892
-6.11016
3.23259
-7.94388
4.36233
-8.02436
3.05791
-5.33498
-0.812165
6.48373
1.95716
10.3489
-0.739081
11.6439
-0.665569
10.5062
1.16239
8.44794
3.16511
6.77591
4.48658
5.87591
5.11153
5.53437
5.34351
5.4521
5.4246
5.45613
5.46447
5.48202
5.49673
5.51267
5.52847
5.54436
5.56034
5.57623
5.59205
5.60771
5.62314
5.63832
5.65313
5.66754
5.68151
5.69495
5.70786
5.72011
5.73172
5.74261
5.75274
5.7621
5.77061
5.77827
5.78505
5.79091
5.79585
5.79983
5.80283
5.80485
5.80587
5.80592
5.80498
5.80307
5.80019
5.79632
5.79153
5.78578
5.77914
5.77163
5.76326
5.7541
5.74412
5.73343
5.722
5.70992
5.69724
5.68399
5.67026
5.65606
5.64148
5.62659
5.6114
5.59601
5.58044
5.56479
5.54912
5.53345
5.51791
5.50251
5.48733
5.47245
5.45788
5.44372
5.42999
5.41676
5.40408
5.39199
5.38057
5.36982
5.35981
5.35059
5.34216
5.3346
5.3279
5.3221
5.31725
5.3133
5.31035
5.30834
5.30732
5.30727
5.3082
5.31011
5.31298
5.31684
5.32161
5.32734
5.33397
5.34147
5.34984
5.35901
5.36896
5.37967
5.39107
5.40315
5.41582
5.42906
5.44281
5.457
5.47161
5.48652
5.50173
5.51716
5.53271
5.54839
5.56406
5.57973
5.59533
5.61074
5.62598
5.64091
5.65554
5.66978
5.68355
5.69684
5.70955
5.72167
5.73316
5.74392
5.75398
5.76323
5.77168
5.77929
5.78599
5.79184
5.79672
5.80068
5.80365
5.80567
5.80671
5.80674
5.80581
5.80387
5.80096
5.79709
5.79227
5.78656
5.77992
5.77242
5.76407
5.75488
5.74493
5.73422
5.72282
5.71077
5.69811
5.68491
5.6712
5.65705
5.64249
5.6276
5.61243
5.59705
5.58152
5.5659
5.55024
5.5346
5.51906
5.50367
5.48849
5.47359
5.45903
5.44486
5.43114
5.41791
5.40524
5.39317
5.38175
5.37102
5.36104
5.35183
5.34344
5.3359
5.32923
5.32347
5.31863
5.31473
5.31179
5.30983
5.30885
5.30885
5.30985
5.31182
5.31477
5.31867
5.32352
5.32929
5.33597
5.34354
5.35195
5.36117
5.37117
5.38191
5.39334
5.40542
5.41811
5.43136
5.4451
5.45928
5.47385
5.48874
5.50391
5.5193
5.53485
5.5505
5.56618
5.58183
5.59738
5.61276
5.62792
5.64281
5.65737
5.67153
5.68526
5.69848
5.71115
5.7232
5.7346
5.7453
5.75524
5.76442
5.77278
5.7803
5.78694
5.79267
5.79749
5.80134
5.80423
5.80615
5.80709
5.80706
5.80602
5.80402
5.80104