/*--------------------------------*- C++ -*----------------------------------*\
| =========                 |                                                 |
| \\      /  F ield         | OpenFOAM: The Open Source CFD Toolbox           |
|  \\    /   O peration     | Version:  2106                                  |
|   \\  /    A nd           | Website:  www.openfoam.com                      |
|    \\/     M anipulation  |                                                 |
\*---------------------------------------------------------------------------*/
FoamFile
{
    version     2.0;
    format      ascii;
    arch        "LSB;label=32;scalar=64";
    class       volScalarField;
    location    "0.004";
    object      pB;
}
// * * * * * * * * * * * * * * * * * * * * * * * * * * * * * * * * * * * * * //

dimensions      [1 1 -3 0 0 -1 0];

internalField   nonuniform List<scalar> 
160000
(
-9783.89
-9469.92
-9156.4
-8843.67
-8532.01
-8221.75
-7913.17
-7606.59
-7302.32
-7000.65
-6701.88
-6406.31
-6114.23
-5825.92
-5541.68
-5261.78
-4986.49
-4716.1
-4450.86
-4191.04
-3936.9
-3688.68
-3446.63
-3210.99
-2981.99
-2759.86
-2544.81
-2337.07
-2136.83
-1944.29
-1759.64
-1583.07
-1414.74
-1254.83
-1103.5
-960.879
-827.124
-702.364
-586.722
-480.311
-383.236
-295.594
-217.471
-148.943
-90.0792
-40.9368
-1.56468
27.9985
47.7234
57.5907
57.5906
47.7231
27.998
-1.56536
-40.9378
-90.0803
-148.945
-217.472
-295.596
-383.239
-480.314
-586.725
-702.368
-827.129
-960.884
-1103.5
-1254.84
-1414.75
-1583.08
-1759.65
-1944.3
-2136.84
-2337.08
-2544.82
-2759.87
-2982
-3211
-3446.64
-3688.69
-3936.91
-4191.05
-4450.87
-4716.11
-4986.51
-5261.79
-5541.69
-5825.94
-6114.24
-6406.32
-6701.89
-7000.66
-7302.33
-7606.6
-7913.17
-8221.75
-8532.03
-8843.69
-9156.44
-9469.96
-9783.95
-10098.1
-10412.1
-10725.6
-11038.3
-11350
-11660.3
-11968.9
-12275.4
-12579.7
-12881.4
-13180.1
-13475.7
-13767.8
-14056.1
-14340.3
-14620.2
-14895.5
-15165.9
-15431.2
-15691
-15945.1
-16193.4
-16435.4
-16671
-16900
-17122.2
-17337.2
-17545
-17745.2
-17937.8
-18122.4
-18299
-18467.3
-18627.2
-18778.6
-18921.2
-19054.9
-19179.7
-19295.3
-19401.7
-19498.8
-19586.5
-19664.6
-19733.1
-19792
-19841.1
-19880.5
-19910.1
-19929.8
-19939.7
-19939.7
-19929.8
-19910.1
-19880.5
-19841.1
-19792
-19733.1
-19664.6
-19586.5
-19498.9
-19401.8
-19295.4
-19179.7
-19055
-18921.2
-18778.6
-18627.3
-18467.4
-18299
-18122.5
-17937.8
-17745.3
-17545
-17337.3
-17122.2
-16900.1
-16671.1
-16435.5
-16193.4
-15945.2
-15691.1
-15431.2
-15166
-14895.6
-14620.3
-14340.4
-14056.2
-13767.9
-13475.8
-13180.2
-12881.5
-12579.8
-12275.5
-11969
-11660.4
-11350.1
-11038.5
-10725.7
-10412.2
-10098.2
-9784.07
-9470.08
-9156.56
-8843.82
-8532.16
-8221.88
-7913.31
-7606.73
-7302.46
-7000.8
-6702.03
-6406.46
-6114.38
-5826.08
-5541.84
-5261.94
-4986.65
-4716.26
-4451.02
-4191.2
-3937.06
-3688.84
-3446.79
-3211.15
-2982.15
-2760.02
-2544.98
-2337.23
-2136.99
-1944.45
-1759.81
-1583.23
-1414.91
-1255
-1103.66
-961.044
-827.29
-702.529
-586.887
-480.475
-383.4
-295.758
-217.635
-149.107
-90.2429
-41.1005
-1.72815
27.8352
47.5604
57.428
57.4283
47.5611
27.8363
-1.72672
-41.0987
-90.2406
-149.104
-217.632
-295.755
-383.397
-480.471
-586.882
-702.525
-827.284
-961.039
-1103.65
-1254.99
-1414.9
-1583.23
-1759.8
-1944.45
-2136.98
-2337.22
-2544.97
-2760.01
-2982.14
-3211.14
-3446.78
-3688.83
-3937.05
-4191.19
-4451.01
-4716.25
-4986.64
-5261.92
-5541.82
-5826.06
-6114.37
-6406.44
-6702.01
-7000.78
-7302.44
-7606.71
-7913.29
-8221.86
-8532.13
-8843.79
-9156.54
-9470.06
-9784.04
-10098.2
-10412.2
-10725.7
-11038.4
-11350.1
-11660.4
-11968.9
-12275.5
-12579.8
-12881.4
-13180.2
-13475.8
-13767.9
-14056.2
-14340.4
-14620.3
-14895.6
-15166
-15431.2
-15691
-15945.2
-16193.4
-16435.4
-16671.1
-16900.1
-17122.2
-17337.2
-17545
-17745.2
-17937.8
-18122.4
-18299
-18467.3
-18627.2
-18778.5
-18921.2
-19054.9
-19179.7
-19295.3
-19401.7
-19498.8
-19586.4
-19664.6
-19733.1
-19791.9
-19841.1
-19880.4
-19910
-19929.7
-19939.6
-19939.6
-19929.7
-19910
-19880.4
-19841.1
-19791.9
-19733.1
-19664.5
-19586.4
-19498.8
-19401.7
-19295.3
-19179.6
-19054.9
-18921.1
-18778.5
-18627.1
-18467.2
-18298.9
-18122.3
-17937.7
-17745.1
-17544.9
-17337.2
-17122.1
-16900
-16671
-16435.3
-16193.3
-15945.1
-15690.9
-15431.1
-15165.9
-14895.5
-14620.2
-14340.3
-14056
-13767.7
-13475.7
-13180.1
-12881.3
-12579.6
-12275.4
-11968.8
-11660.2
-11349.9
-11038.3
-10725.5
-10412
-10098
-9774.04
-9460.05
-9146.54
-8833.8
-8522.14
-8211.88
-7903.3
-7596.73
-7292.45
-6990.78
-6692.01
-6396.44
-6104.36
-5816.06
-5531.81
-5251.91
-4976.63
-4706.23
-4441
-4181.18
-3927.03
-3678.81
-3436.76
-3201.12
-2972.12
-2749.99
-2534.95
-2327.2
-2126.96
-1934.42
-1749.78
-1573.2
-1404.88
-1244.97
-1093.63
-951.013
-817.259
-692.499
-576.856
-470.445
-373.371
-285.728
-207.605
-139.077
-80.2135
-31.0711
8.30105
37.8642
57.5891
67.4564
67.4563
57.5888
37.8637
8.30037
-31.072
-80.2146
-139.079
-207.607
-285.73
-373.373
-470.448
-576.86
-692.503
-817.263
-951.018
-1093.64
-1244.97
-1404.88
-1573.21
-1749.78
-1934.43
-2126.97
-2327.21
-2534.96
-2750
-2972.13
-3201.13
-3436.77
-3678.82
-3927.04
-4181.19
-4441.01
-4706.25
-4976.64
-5251.93
-5531.83
-5816.07
-6104.38
-6396.46
-6692.03
-6990.79
-7292.46
-7596.73
-7903.31
-8211.89
-8522.16
-8833.82
-9146.57
-9460.09
-9774.08
-10088.2
-10402.2
-10715.7
-11028.5
-11340.1
-11650.4
-11959
-12265.6
-12569.8
-12871.5
-13170.3
-13465.8
-13757.9
-14046.2
-14330.5
-14610.4
-14885.7
-15156.1
-15421.3
-15681.1
-15935.3
-16183.5
-16425.5
-16661.2
-16890.2
-17112.3
-17327.4
-17535.1
-17735.3
-17927.9
-18112.5
-18289.1
-18457.4
-18617.3
-18768.7
-18911.3
-19045.1
-19169.8
-19285.5
-19391.9
-19489
-19576.6
-19654.7
-19723.3
-19782.1
-19831.3
-19870.6
-19900.2
-19919.9
-19929.8
-19929.8
-19919.9
-19900.2
-19870.6
-19831.3
-19782.1
-19723.3
-19654.7
-19576.6
-19489
-19391.9
-19285.5
-19169.9
-19045.1
-18911.3
-18768.7
-18617.4
-18457.5
-18289.2
-18112.6
-17927.9
-17735.4
-17535.2
-17327.4
-17112.4
-16890.2
-16661.3
-16425.6
-16183.6
-15935.3
-15681.2
-15421.4
-15156.1
-14885.8
-14610.5
-14330.6
-14046.3
-13758
-13465.9
-13170.4
-12871.6
-12569.9
-12265.7
-11959.1
-11650.5
-11340.3
-11028.6
-10715.8
-10402.3
-10088.3
-9774.2
-9460.22
-9146.7
-8833.95
-8522.29
-8212.02
-7903.44
-7596.87
-7292.6
-6990.93
-6692.17
-6396.6
-6104.52
-5816.21
-5531.97
-5252.07
-4976.79
-4706.39
-4441.16
-4181.34
-3927.19
-3678.97
-3436.93
-3201.29
-2972.29
-2750.16
-2535.11
-2327.37
-2127.13
-1934.59
-1749.94
-1573.37
-1405.04
-1245.13
-1093.79
-951.178
-817.424
-692.663
-577.021
-470.609
-373.534
-285.892
-207.769
-139.241
-80.3769
-31.2344
8.13789
37.7012
57.4265
67.2941
67.2943
57.4271
37.7023
8.13928
-31.2327
-80.3746
-139.238
-207.766
-285.889
-373.531
-470.605
-577.016
-692.659
-817.418
-951.173
-1093.79
-1245.13
-1405.04
-1573.36
-1749.93
-1934.58
-2127.12
-2327.36
-2535.1
-2750.15
-2972.28
-3201.27
-3436.91
-3678.96
-3927.18
-4181.32
-4441.14
-4706.38
-4976.77
-5252.05
-5531.95
-5816.2
-6104.5
-6396.58
-6692.15
-6990.91
-7292.58
-7596.85
-7903.42
-8211.99
-8522.27
-8833.93
-9146.67
-9460.19
-9774.18
-10088.3
-10402.3
-10715.8
-11028.6
-11340.2
-11650.5
-11959.1
-12265.6
-12569.9
-12871.6
-13170.3
-13465.9
-13758
-14046.3
-14330.5
-14610.4
-14885.7
-15156.1
-15421.3
-15681.2
-15935.3
-16183.5
-16425.6
-16661.2
-16890.2
-17112.3
-17327.4
-17535.1
-17735.4
-17927.9
-18112.5
-18289.1
-18457.4
-18617.3
-18768.7
-18911.3
-19045
-19169.8
-19285.4
-19391.9
-19488.9
-19576.6
-19654.7
-19723.2
-19782.1
-19831.2
-19870.6
-19900.1
-19919.9
-19929.7
-19929.7
-19919.9
-19900.1
-19870.6
-19831.2
-19782.1
-19723.2
-19654.7
-19576.5
-19488.9
-19391.8
-19285.4
-19169.8
-19045
-18911.2
-18768.6
-18617.3
-18457.4
-18289
-18112.5
-17927.8
-17735.3
-17535
-17327.3
-17112.2
-16890.1
-16661.1
-16425.5
-16183.4
-15935.2
-15681.1
-15421.2
-15156
-14885.6
-14610.3
-14330.4
-14046.2
-13757.9
-13465.8
-13170.2
-12871.4
-12569.8
-12265.5
-11958.9
-11650.3
-11340.1
-11028.4
-10715.7
-10402.1
-10088.2
-9754.31
-9440.33
-9126.81
-8814.08
-8502.42
-8192.15
-7883.58
-7577
-7272.73
-6971.06
-6672.29
-6376.72
-6084.64
-5796.33
-5512.09
-5232.19
-4956.9
-4686.51
-4421.27
-4161.45
-3907.31
-3659.09
-3417.04
-3181.4
-2952.4
-2730.27
-2515.22
-2307.48
-2107.24
-1914.7
-1730.05
-1553.48
-1385.15
-1225.24
-1073.91
-931.29
-797.536
-672.775
-557.133
-450.722
-353.647
-266.005
-187.882
-119.354
-60.4901
-11.3478
28.0244
57.5875
77.3125
87.1798
87.1797
77.3122
57.587
28.0237
-11.3487
-60.4913
-119.355
-187.883
-266.007
-353.65
-450.725
-557.136
-672.779
-797.54
-931.294
-1073.91
-1225.25
-1385.16
-1553.49
-1730.06
-1914.71
-2107.25
-2307.49
-2515.23
-2730.28
-2952.41
-3181.41
-3417.05
-3659.1
-3907.32
-4161.46
-4421.28
-4686.52
-4956.92
-5232.2
-5512.1
-5796.35
-6084.65
-6376.73
-6672.3
-6971.07
-7272.74
-7577.01
-7883.59
-8192.16
-8502.44
-8814.1
-9126.85
-9440.37
-9754.36
-10068.5
-10382.5
-10696
-11008.8
-11320.4
-11630.7
-11939.3
-12245.8
-12550.1
-12851.8
-13150.6
-13446.1
-13738.2
-14026.5
-14310.8
-14590.7
-14865.9
-15136.3
-15401.6
-15661.4
-15915.5
-16163.8
-16405.8
-16641.5
-16870.5
-17092.6
-17307.6
-17515.4
-17715.6
-17908.2
-18092.8
-18269.4
-18437.7
-18597.6
-18749
-18891.6
-19025.3
-19150.1
-19265.7
-19372.2
-19469.2
-19556.9
-19635
-19703.5
-19762.4
-19811.5
-19850.9
-19880.5
-19900.2
-19910.1
-19910.1
-19900.2
-19880.5
-19850.9
-19811.6
-19762.4
-19703.5
-19635
-19556.9
-19469.3
-19372.2
-19265.8
-19150.1
-19025.4
-18891.6
-18749
-18597.7
-18437.8
-18269.4
-18092.9
-17908.2
-17715.7
-17515.4
-17307.7
-17092.7
-16870.5
-16641.5
-16405.9
-16163.8
-15915.6
-15661.5
-15401.7
-15136.4
-14866
-14590.7
-14310.8
-14026.6
-13738.3
-13446.2
-13150.7
-12851.9
-12550.2
-12246
-11939.4
-11630.8
-11320.5
-11008.9
-10696.1
-10382.6
-10068.6
-9754.48
-9440.49
-9126.97
-8814.23
-8502.57
-8192.29
-7883.72
-7577.14
-7272.87
-6971.21
-6672.44
-6376.87
-6084.79
-5796.49
-5512.25
-5232.35
-4957.06
-4686.67
-4421.43
-4161.61
-3907.47
-3659.25
-3417.2
-3181.56
-2952.56
-2730.43
-2515.39
-2307.64
-2107.4
-1914.86
-1730.22
-1553.64
-1385.32
-1225.41
-1074.07
-931.454
-797.7
-672.94
-557.297
-450.885
-353.811
-266.168
-188.045
-119.517
-60.6531
-11.5107
27.8616
57.425
77.1502
87.0178
87.018
77.1508
57.426
27.863
-11.509
-60.6509
-119.515
-188.042
-266.165
-353.807
-450.882
-557.293
-672.935
-797.695
-931.449
-1074.07
-1225.4
-1385.31
-1553.64
-1730.21
-1914.86
-2107.39
-2307.63
-2515.38
-2730.42
-2952.55
-3181.55
-3417.19
-3659.24
-3907.46
-4161.6
-4421.42
-4686.66
-4957.05
-5232.33
-5512.23
-5796.47
-6084.78
-6376.86
-6672.42
-6971.19
-7272.85
-7577.12
-7883.7
-8192.27
-8502.54
-8814.2
-9126.95
-9440.47
-9754.45
-10068.6
-10382.6
-10696.1
-11008.8
-11320.5
-11630.8
-11939.3
-12245.9
-12550.2
-12851.9
-13150.6
-13446.2
-13738.3
-14026.6
-14310.8
-14590.7
-14866
-15136.4
-15401.6
-15661.4
-15915.6
-16163.8
-16405.8
-16641.5
-16870.5
-17092.6
-17307.6
-17515.4
-17715.6
-17908.2
-18092.8
-18269.4
-18437.7
-18597.6
-18749
-18891.6
-19025.3
-19150.1
-19265.7
-19372.1
-19469.2
-19556.8
-19635
-19703.5
-19762.3
-19811.5
-19850.9
-19880.4
-19900.1
-19910
-19910
-19900.1
-19880.4
-19850.8
-19811.5
-19762.3
-19703.5
-19634.9
-19556.8
-19469.2
-19372.1
-19265.7
-19150
-19025.3
-18891.5
-18748.9
-18597.6
-18437.6
-18269.3
-18092.7
-17908.1
-17715.6
-17515.3
-17307.6
-17092.5
-16870.4
-16641.4
-16405.8
-16163.7
-15915.5
-15661.3
-15401.5
-15136.3
-14865.9
-14590.6
-14310.7
-14026.5
-13738.1
-13446.1
-13150.5
-12851.7
-12550.1
-12245.8
-11939.2
-11630.6
-11320.3
-11008.7
-10695.9
-10382.4
-10068.4
-9724.75
-9410.77
-9097.25
-8784.51
-8472.85
-8162.59
-7854.01
-7547.44
-7243.17
-6941.5
-6642.73
-6347.16
-6055.08
-5766.77
-5482.53
-5202.63
-4927.34
-4656.95
-4391.71
-4131.89
-3877.75
-3629.53
-3387.48
-3151.84
-2922.84
-2700.71
-2485.66
-2277.92
-2077.68
-1885.14
-1700.49
-1523.92
-1355.59
-1195.68
-1044.35
-901.728
-767.974
-643.214
-527.571
-421.16
-324.086
-236.444
-158.32
-89.7926
-30.9287
18.2137
57.5859
87.149
106.874
116.741
116.741
106.874
87.1486
57.5852
18.2129
-30.9297
-89.794
-158.322
-236.445
-324.088
-421.163
-527.575
-643.218
-767.978
-901.733
-1044.35
-1195.69
-1355.6
-1523.92
-1700.5
-1885.15
-2077.69
-2277.93
-2485.67
-2700.72
-2922.85
-3151.85
-3387.49
-3629.54
-3877.76
-4131.9
-4391.72
-4656.96
-4927.36
-5202.64
-5482.54
-5766.79
-6055.09
-6347.17
-6642.74
-6941.51
-7243.18
-7547.45
-7854.02
-8162.6
-8472.87
-8784.54
-9097.29
-9410.81
-9724.79
-10038.9
-10352.9
-10666.4
-10979.2
-11290.9
-11601.1
-11909.7
-12216.3
-12520.6
-12822.2
-13121
-13416.6
-13708.6
-13996.9
-14281.2
-14561.1
-14836.4
-15106.8
-15372
-15631.8
-15886
-16134.2
-16376.3
-16611.9
-16840.9
-17063
-17278.1
-17485.8
-17686.1
-17878.6
-18063.2
-18239.8
-18408.2
-18568.1
-18719.4
-18862
-18995.8
-19120.5
-19236.2
-19342.6
-19439.7
-19527.3
-19605.4
-19674
-19732.8
-19782
-19821.4
-19850.9
-19870.6
-19880.5
-19880.5
-19870.6
-19850.9
-19821.4
-19782
-19732.9
-19674
-19605.5
-19527.3
-19439.7
-19342.6
-19236.2
-19120.6
-18995.8
-18862.1
-18719.4
-18568.1
-18408.2
-18239.9
-18063.3
-17878.7
-17686.1
-17485.9
-17278.1
-17063.1
-16841
-16612
-16376.3
-16134.3
-15886.1
-15631.9
-15372.1
-15106.9
-14836.5
-14561.2
-14281.3
-13997
-13708.7
-13416.7
-13121.1
-12822.3
-12520.7
-12216.4
-11909.8
-11601.2
-11291
-10979.3
-10666.6
-10353
-10039.1
-9724.92
-9410.93
-9097.41
-8784.67
-8473
-8162.73
-7854.16
-7547.58
-7243.31
-6941.64
-6642.88
-6347.31
-6055.23
-5766.93
-5482.69
-5202.78
-4927.5
-4657.11
-4391.87
-4132.05
-3877.91
-3629.69
-3387.64
-3152
-2923
-2700.87
-2485.83
-2278.08
-2077.84
-1885.3
-1700.66
-1524.08
-1355.76
-1195.85
-1044.51
-901.892
-768.138
-643.378
-527.735
-421.323
-324.249
-236.606
-158.483
-89.9552
-31.0911
18.0513
57.4236
86.987
106.712
116.58
116.58
106.713
86.988
57.425
18.053
-31.0889
-89.9527
-158.48
-236.603
-324.245
-421.32
-527.731
-643.373
-768.133
-901.887
-1044.5
-1195.84
-1355.75
-1524.08
-1700.65
-1885.29
-2077.83
-2278.07
-2485.82
-2700.86
-2922.99
-3151.99
-3387.63
-3629.68
-3877.89
-4132.04
-4391.86
-4657.09
-4927.49
-5202.77
-5482.67
-5766.91
-6055.21
-6347.29
-6642.86
-6941.63
-7243.29
-7547.56
-7854.13
-8162.71
-8472.98
-8784.64
-9097.39
-9410.91
-9724.89
-10039
-10353
-10666.5
-10979.3
-11290.9
-11601.2
-11909.8
-12216.4
-12520.6
-12822.3
-13121.1
-13416.6
-13708.7
-13997
-14281.2
-14561.1
-14836.4
-15106.8
-15372.1
-15631.9
-15886
-16134.2
-16376.3
-16611.9
-16840.9
-17063
-17278.1
-17485.8
-17686.1
-17878.6
-18063.3
-18239.8
-18408.1
-18568.1
-18719.4
-18862
-18995.8
-19120.5
-19236.2
-19342.6
-19439.6
-19527.3
-19605.4
-19673.9
-19732.8
-19781.9
-19821.3
-19850.9
-19870.6
-19880.4
-19880.4
-19870.6
-19850.9
-19821.3
-19781.9
-19732.8
-19673.9
-19605.4
-19527.2
-19439.6
-19342.5
-19236.1
-19120.5
-18995.7
-18862
-18719.3
-18568
-18408.1
-18239.8
-18063.2
-17878.5
-17686
-17485.8
-17278
-17063
-16840.8
-16611.8
-16376.2
-16134.1
-15885.9
-15631.8
-15372
-15106.7
-14836.3
-14561
-14281.1
-13996.9
-13708.6
-13416.5
-13120.9
-12822.2
-12520.5
-12216.2
-11909.6
-11601.1
-11290.8
-10979.1
-10666.4
-10352.9
-10038.9
-9685.38
-9371.4
-9057.88
-8745.14
-8433.48
-8123.21
-7814.64
-7508.07
-7203.8
-6902.13
-6603.36
-6307.79
-6015.71
-5727.4
-5443.16
-5163.26
-4887.97
-4617.58
-4352.34
-4092.52
-3838.38
-3590.16
-3348.11
-3112.47
-2883.47
-2661.34
-2446.29
-2238.55
-2038.31
-1845.77
-1661.12
-1484.55
-1316.22
-1156.31
-1004.97
-862.358
-728.604
-603.844
-488.201
-381.79
-284.715
-197.073
-118.95
-50.4222
8.44183
57.5842
96.9564
126.52
146.244
156.112
156.112
146.244
126.519
96.9558
57.5834
8.44083
-50.4234
-118.951
-197.075
-284.718
-381.792
-488.204
-603.847
-728.608
-862.362
-1004.98
-1156.32
-1316.23
-1484.55
-1661.13
-1845.78
-2038.31
-2238.56
-2446.3
-2661.35
-2883.48
-3112.48
-3348.12
-3590.17
-3838.39
-4092.53
-4352.35
-4617.59
-4887.99
-5163.27
-5443.17
-5727.41
-6015.72
-6307.8
-6603.37
-6902.14
-7203.8
-7508.08
-7814.65
-8123.23
-8433.5
-8745.17
-9057.91
-9371.44
-9685.42
-9999.56
-10313.6
-10627.1
-10939.8
-11251.5
-11561.8
-11870.3
-12176.9
-12481.2
-12782.9
-13081.6
-13377.2
-13669.3
-13957.6
-14241.8
-14521.7
-14797
-15067.4
-15332.6
-15592.5
-15846.6
-16094.8
-16336.9
-16572.5
-16801.5
-17023.7
-17238.7
-17446.4
-17646.7
-17839.2
-18023.9
-18200.5
-18368.8
-18528.7
-18680
-18822.6
-18956.4
-19081.2
-19196.8
-19303.2
-19400.3
-19487.9
-19566.1
-19634.6
-19693.5
-19742.6
-19782
-19811.5
-19831.3
-19841.1
-19841.1
-19831.3
-19811.6
-19782
-19742.6
-19693.5
-19634.6
-19566.1
-19488
-19400.3
-19303.3
-19196.8
-19081.2
-18956.4
-18822.7
-18680.1
-18528.7
-18368.8
-18200.5
-18023.9
-17839.3
-17646.7
-17446.5
-17238.8
-17023.7
-16801.6
-16572.6
-16337
-16094.9
-15846.7
-15592.5
-15332.7
-15067.5
-14797.1
-14521.8
-14241.9
-13957.7
-13669.4
-13377.3
-13081.7
-12783
-12481.3
-12177
-11870.4
-11561.9
-11251.6
-10939.9
-10627.2
-10313.7
-9999.69
-9685.55
-9371.56
-9058.04
-8745.3
-8433.63
-8123.36
-7814.78
-7508.21
-7203.94
-6902.27
-6603.51
-6307.94
-6015.86
-5727.56
-5443.31
-5163.41
-4888.13
-4617.74
-4352.5
-4092.68
-3838.54
-3590.32
-3348.27
-3112.63
-2883.63
-2661.5
-2446.46
-2238.71
-2038.47
-1845.93
-1661.28
-1484.71
-1316.39
-1156.48
-1005.14
-862.521
-728.767
-604.006
-488.364
-381.952
-284.878
-197.235
-119.112
-50.5841
8.28
57.4225
96.7948
126.358
146.083
155.951
155.951
146.084
126.359
96.7961
57.4241
8.28214
-50.5816
-119.109
-197.232
-284.874
-381.949
-488.36
-604.002
-728.762
-862.516
-1005.13
-1156.47
-1316.38
-1484.7
-1661.28
-1845.92
-2038.46
-2238.7
-2446.45
-2661.49
-2883.62
-3112.62
-3348.26
-3590.3
-3838.52
-4092.67
-4352.49
-4617.72
-4888.12
-5163.4
-5443.3
-5727.54
-6015.84
-6307.92
-6603.49
-6902.25
-7203.92
-7508.19
-7814.76
-8123.34
-8433.61
-8745.27
-9058.02
-9371.54
-9685.52
-9999.66
-10313.6
-10627.2
-10939.9
-11251.6
-11561.8
-11870.4
-12177
-12481.3
-12782.9
-13081.7
-13377.3
-13669.3
-13957.6
-14241.9
-14521.8
-14797.1
-15067.4
-15332.7
-15592.5
-15846.6
-16094.9
-16336.9
-16572.5
-16801.5
-17023.7
-17238.7
-17446.5
-17646.7
-17839.2
-18023.9
-18200.5
-18368.8
-18528.7
-18680
-18822.6
-18956.4
-19081.1
-19196.8
-19303.2
-19400.3
-19487.9
-19566
-19634.6
-19693.4
-19742.6
-19781.9
-19811.5
-19831.2
-19841.1
-19841.1
-19831.2
-19811.5
-19781.9
-19742.5
-19693.4
-19634.5
-19566
-19487.9
-19400.2
-19303.2
-19196.7
-19081.1
-18956.3
-18822.6
-18680
-18528.6
-18368.7
-18200.4
-18023.8
-17839.2
-17646.6
-17446.4
-17238.6
-17023.6
-16801.5
-16572.5
-16336.8
-16094.8
-15846.5
-15592.4
-15332.6
-15067.3
-14797
-14521.7
-14241.8
-13957.5
-13669.2
-13377.1
-13081.6
-12782.8
-12481.1
-12176.8
-11870.3
-11561.7
-11251.4
-10939.8
-10627
-10313.5
-9999.51
-9636.23
-9322.25
-9008.74
-8696
-8384.34
-8074.07
-7765.5
-7458.93
-7154.66
-6852.99
-6554.22
-6258.65
-5966.57
-5678.26
-5394.02
-5114.12
-4838.83
-4568.44
-4303.2
-4043.38
-3789.24
-3541.02
-3298.97
-3063.33
-2834.33
-2612.2
-2397.15
-2189.41
-1989.17
-1796.63
-1611.98
-1435.41
-1267.08
-1107.17
-955.834
-813.218
-679.463
-554.703
-439.06
-332.649
-235.575
-147.933
-69.8091
-1.28156
57.5824
106.725
146.097
175.66
195.385
205.252
205.252
195.385
175.66
146.096
106.724
57.5815
-1.2827
-69.8105
-147.934
-235.577
-332.652
-439.063
-554.706
-679.467
-813.221
-955.839
-1107.18
-1267.09
-1435.41
-1611.99
-1796.63
-1989.17
-2189.41
-2397.16
-2612.2
-2834.34
-3063.33
-3298.98
-3541.03
-3789.25
-4043.39
-4303.21
-4568.45
-4838.84
-5114.13
-5394.03
-5678.27
-5966.58
-6258.66
-6554.23
-6853
-7154.66
-7458.94
-7765.51
-8074.09
-8384.36
-8696.03
-9008.77
-9322.3
-9636.28
-9950.42
-10264.4
-10577.9
-10890.7
-11202.3
-11512.6
-11821.2
-12127.8
-12432
-12733.7
-13032.5
-13328
-13620.1
-13908.4
-14192.7
-14472.6
-14747.9
-15018.3
-15283.5
-15543.3
-15797.5
-16045.7
-16287.7
-16523.4
-16752.4
-16974.5
-17189.6
-17397.3
-17597.5
-17790.1
-17974.7
-18151.3
-18319.6
-18479.5
-18630.9
-18773.5
-18907.3
-19032
-19147.7
-19254.1
-19351.2
-19438.8
-19516.9
-19585.5
-19644.3
-19693.5
-19732.8
-19762.4
-19782.1
-19792
-19792
-19782.1
-19762.4
-19732.8
-19693.5
-19644.3
-19585.5
-19516.9
-19438.8
-19351.2
-19254.1
-19147.7
-19032.1
-18907.3
-18773.5
-18630.9
-18479.6
-18319.7
-18151.4
-17974.8
-17790.1
-17597.6
-17397.4
-17189.6
-16974.6
-16752.5
-16523.5
-16287.8
-16045.8
-15797.5
-15543.4
-15283.6
-15018.3
-14748
-14472.7
-14192.8
-13908.5
-13620.2
-13328.1
-13032.6
-12733.8
-12432.1
-12127.9
-11821.3
-11512.7
-11202.5
-10890.8
-10578
-10264.5
-9950.54
-9636.4
-9322.42
-9008.9
-8696.15
-8384.49
-8074.22
-7765.64
-7459.07
-7154.8
-6853.13
-6554.37
-6258.8
-5966.72
-5678.42
-5394.17
-5114.27
-4838.99
-4568.6
-4303.36
-4043.54
-3789.4
-3541.18
-3299.13
-3063.49
-2834.49
-2612.36
-2397.31
-2189.57
-1989.33
-1796.79
-1612.14
-1435.57
-1267.25
-1107.33
-955.997
-813.38
-679.625
-554.865
-439.222
-332.811
-235.736
-148.094
-69.9703
-1.44272
57.4214
106.564
145.936
175.499
195.225
205.092
205.092
195.225
175.5
145.937
106.565
57.4234
-1.4403
-69.9677
-148.091
-235.733
-332.807
-439.218
-554.861
-679.62
-813.375
-955.991
-1107.33
-1267.24
-1435.56
-1612.14
-1796.78
-1989.32
-2189.56
-2397.3
-2612.35
-2834.48
-3063.48
-3299.12
-3541.16
-3789.38
-4043.53
-4303.35
-4568.58
-4838.97
-5114.26
-5394.16
-5678.4
-5966.7
-6258.78
-6554.35
-6853.11
-7154.78
-7459.05
-7765.62
-8074.2
-8384.47
-8696.13
-9008.88
-9322.4
-9636.38
-9950.52
-10264.5
-10578
-10890.8
-11202.4
-11512.7
-11821.3
-12127.8
-12432.1
-12733.8
-13032.5
-13328.1
-13620.2
-13908.5
-14192.7
-14472.6
-14747.9
-15018.3
-15283.5
-15543.4
-15797.5
-16045.7
-16287.8
-16523.4
-16752.4
-16974.5
-17189.6
-17397.3
-17597.6
-17790.1
-17974.7
-18151.3
-18319.6
-18479.5
-18630.9
-18773.5
-18907.2
-19032
-19147.6
-19254.1
-19351.1
-19438.8
-19516.9
-19585.4
-19644.3
-19693.4
-19732.8
-19762.3
-19782.1
-19791.9
-19791.9
-19782.1
-19762.3
-19732.8
-19693.4
-19644.3
-19585.4
-19516.9
-19438.7
-19351.1
-19254
-19147.6
-19032
-18907.2
-18773.4
-18630.8
-18479.5
-18319.6
-18151.2
-17974.7
-17790
-17597.5
-17397.2
-17189.5
-16974.4
-16752.3
-16523.3
-16287.7
-16045.6
-15797.4
-15543.3
-15283.4
-15018.2
-14747.8
-14472.5
-14192.6
-13908.4
-13620.1
-13328
-13032.4
-12733.7
-12432
-12127.7
-11821.1
-11512.5
-11202.3
-10890.6
-10577.9
-10264.4
-9950.37
-9577.37
-9263.39
-8949.88
-8637.14
-8325.48
-8015.21
-7706.64
-7400.07
-7095.8
-6794.13
-6495.36
-6199.79
-5907.7
-5619.4
-5335.16
-5055.25
-4779.97
-4509.58
-4244.34
-3984.52
-3730.37
-3482.15
-3240.1
-3004.46
-2775.47
-2553.33
-2338.29
-2130.55
-1930.3
-1737.77
-1553.12
-1376.55
-1208.22
-1048.31
-896.972
-754.355
-620.601
-495.841
-380.198
-273.787
-176.713
-89.0704
-10.9469
57.5806
116.445
165.587
204.959
234.522
254.247
264.115
264.115
254.247
234.522
204.959
165.586
116.444
57.5796
-10.9481
-89.0719
-176.714
-273.789
-380.201
-495.844
-620.604
-754.359
-896.976
-1048.31
-1208.23
-1376.55
-1553.12
-1737.77
-1930.31
-2130.55
-2338.3
-2553.34
-2775.47
-3004.47
-3240.11
-3482.16
-3730.38
-3984.53
-4244.35
-4509.59
-4779.98
-5055.27
-5335.17
-5619.41
-5907.72
-6199.8
-6495.37
-6794.13
-7095.8
-7400.07
-7706.65
-8015.23
-8325.5
-8637.16
-8949.91
-9263.43
-9577.42
-9891.56
-10205.5
-10519.1
-10831.8
-11143.5
-11453.8
-11762.3
-12068.9
-12373.2
-12674.8
-12973.6
-13269.2
-13561.3
-13849.6
-14133.8
-14413.7
-14689
-14959.4
-15224.6
-15484.5
-15738.6
-15986.8
-16228.9
-16464.5
-16693.5
-16915.7
-17130.7
-17338.4
-17538.7
-17731.2
-17915.9
-18092.4
-18260.8
-18420.7
-18572
-18714.6
-18848.4
-18973.2
-19088.8
-19195.2
-19292.3
-19379.9
-19458.1
-19526.6
-19585.5
-19634.6
-19674
-19703.5
-19723.3
-19733.1
-19733.1
-19723.3
-19703.5
-19674
-19634.6
-19585.5
-19526.6
-19458.1
-19380
-19292.3
-19195.2
-19088.8
-18973.2
-18848.4
-18714.7
-18572.1
-18420.7
-18260.8
-18092.5
-17915.9
-17731.3
-17538.7
-17338.5
-17130.8
-16915.7
-16693.6
-16464.6
-16229
-15986.9
-15738.7
-15484.5
-15224.7
-14959.5
-14689.1
-14413.8
-14133.9
-13849.7
-13561.4
-13269.3
-12973.7
-12675
-12373.3
-12069
-11762.4
-11453.9
-11143.6
-10831.9
-10519.2
-10205.7
-9891.68
-9577.54
-9263.56
-8950.04
-8637.29
-8325.63
-8015.36
-7706.78
-7400.21
-7095.94
-6794.27
-6495.5
-6199.94
-5907.86
-5619.55
-5335.31
-5055.41
-4780.13
-4509.73
-4244.5
-3984.68
-3730.53
-3482.31
-3240.26
-3004.62
-2775.63
-2553.49
-2338.45
-2130.71
-1930.47
-1737.93
-1553.28
-1376.71
-1208.38
-1048.47
-897.133
-754.517
-620.762
-496.002
-380.359
-273.948
-176.873
-89.2308
-11.1073
57.4203
116.284
165.427
204.799
234.362
254.088
263.955
263.955
254.088
234.363
204.8
165.428
116.286
57.4227
-11.1047
-89.2279
-176.87
-273.944
-380.355
-495.998
-620.758
-754.512
-897.128
-1048.47
-1208.38
-1376.7
-1553.27
-1737.92
-1930.46
-2130.7
-2338.44
-2553.48
-2775.62
-3004.61
-3240.25
-3482.3
-3730.52
-3984.66
-4244.48
-4509.72
-4780.11
-5055.39
-5335.29
-5619.54
-5907.84
-6199.92
-6495.49
-6794.25
-7095.92
-7400.19
-7706.76
-8015.33
-8325.61
-8637.27
-8950.01
-9263.53
-9577.52
-9891.66
-10205.6
-10519.2
-10831.9
-11143.6
-11453.8
-11762.4
-12069
-12373.3
-12674.9
-12973.7
-13269.3
-13561.3
-13849.6
-14133.9
-14413.8
-14689.1
-14959.4
-15224.7
-15484.5
-15738.6
-15986.9
-16228.9
-16464.5
-16693.5
-16915.7
-17130.7
-17338.5
-17538.7
-17731.2
-17915.9
-18092.4
-18260.8
-18420.7
-18572
-18714.6
-18848.4
-18973.1
-19088.8
-19195.2
-19292.3
-19379.9
-19458
-19526.6
-19585.4
-19634.6
-19673.9
-19703.5
-19723.2
-19733.1
-19733.1
-19723.2
-19703.5
-19673.9
-19634.5
-19585.4
-19526.5
-19458
-19379.9
-19292.2
-19195.2
-19088.7
-18973.1
-18848.3
-18714.6
-18572
-18420.6
-18260.7
-18092.4
-17915.8
-17731.2
-17538.6
-17338.4
-17130.6
-16915.6
-16693.5
-16464.5
-16228.8
-15986.8
-15738.5
-15484.4
-15224.6
-14959.3
-14688.9
-14413.7
-14133.8
-13849.5
-13561.2
-13269.1
-12973.6
-12674.8
-12373.1
-12068.8
-11762.3
-11453.7
-11143.4
-10831.8
-10519
-10205.5
-9891.51
-9508.85
-9194.87
-8881.35
-8568.61
-8256.95
-7946.68
-7638.11
-7331.54
-7027.27
-6725.6
-6426.83
-6131.26
-5839.18
-5550.87
-5266.63
-4986.73
-4711.45
-4441.05
-4175.81
-3915.99
-3661.85
-3413.63
-3171.58
-2935.94
-2706.94
-2484.81
-2269.76
-2062.02
-1861.78
-1669.24
-1484.59
-1308.02
-1139.69
-979.785
-828.446
-685.83
-552.075
-427.315
-311.673
-205.262
-108.187
-20.5447
57.5788
126.106
184.97
234.113
273.485
303.048
322.773
332.64
332.64
322.773
303.048
273.485
234.112
184.97
126.105
57.5777
-20.5461
-108.189
-205.264
-311.675
-427.318
-552.078
-685.833
-828.45
-979.789
-1139.7
-1308.03
-1484.6
-1669.25
-1861.79
-2062.03
-2269.77
-2484.82
-2706.95
-2935.95
-3171.59
-3413.64
-3661.86
-3916
-4175.82
-4441.06
-4711.46
-4986.74
-5266.64
-5550.89
-5839.19
-6131.27
-6426.84
-6725.61
-7027.27
-7331.55
-7638.12
-7946.7
-8256.97
-8568.64
-8881.39
-9194.91
-9508.89
-9823.03
-10137
-10450.5
-10763.3
-11075
-11385.2
-11693.8
-12000.4
-12304.7
-12606.3
-12905.1
-13200.7
-13492.7
-13781
-14065.3
-14345.2
-14620.5
-14890.9
-15156.1
-15415.9
-15670.1
-15918.3
-16160.4
-16396
-16625
-16847.1
-17062.2
-17269.9
-17470.2
-17662.7
-17847.3
-18023.9
-18192.2
-18352.2
-18503.5
-18646.1
-18779.9
-18904.6
-19020.3
-19126.7
-19223.8
-19311.4
-19389.5
-19458.1
-19516.9
-19566.1
-19605.5
-19635
-19654.7
-19664.6
-19664.6
-19654.7
-19635
-19605.5
-19566.1
-19516.9
-19458.1
-19389.6
-19311.4
-19223.8
-19126.7
-19020.3
-18904.7
-18779.9
-18646.2
-18503.5
-18352.2
-18192.3
-18024
-17847.4
-17662.8
-17470.2
-17270
-17062.2
-16847.2
-16625.1
-16396.1
-16160.4
-15918.4
-15670.2
-15416
-15156.2
-14891
-14620.6
-14345.3
-14065.4
-13781.1
-13492.8
-13200.8
-12905.2
-12606.4
-12304.8
-12000.5
-11693.9
-11385.3
-11075.1
-10763.4
-10450.7
-10137.1
-9823.15
-9509.01
-9195.03
-8881.51
-8568.76
-8257.1
-7946.83
-7638.25
-7331.68
-7027.41
-6725.74
-6426.98
-6131.41
-5839.33
-5551.03
-5266.78
-4986.88
-4711.6
-4441.21
-4175.97
-3916.15
-3662.01
-3413.79
-3171.74
-2936.1
-2707.1
-2484.97
-2269.92
-2062.18
-1861.94
-1669.4
-1484.75
-1308.18
-1139.86
-979.945
-828.607
-685.99
-552.236
-427.475
-311.833
-205.421
-108.346
-20.7042
57.4194
125.947
184.811
233.953
273.326
302.889
322.614
332.482
332.482
322.615
302.89
273.327
233.955
184.813
125.949
57.4218
-20.7014
-108.343
-205.418
-311.829
-427.471
-552.231
-685.985
-828.601
-979.939
-1139.85
-1308.17
-1484.75
-1669.39
-1861.93
-2062.17
-2269.92
-2484.96
-2707.09
-2936.09
-3171.73
-3413.77
-3661.99
-3916.14
-4175.96
-4441.19
-4711.59
-4986.87
-5266.77
-5551.01
-5839.31
-6131.39
-6426.96
-6725.72
-7027.39
-7331.66
-7638.23
-7946.81
-8257.08
-8568.74
-8881.49
-9195.01
-9508.99
-9823.13
-10137.1
-10450.6
-10763.4
-11075
-11385.3
-11693.9
-12000.5
-12304.7
-12606.4
-12905.2
-13200.7
-13492.8
-13781.1
-14065.3
-14345.2
-14620.5
-14890.9
-15156.2
-15416
-15670.1
-15918.3
-16160.4
-16396
-16625
-16847.1
-17062.2
-17269.9
-17470.2
-17662.7
-17847.4
-18023.9
-18192.2
-18352.2
-18503.5
-18646.1
-18779.9
-18904.6
-19020.3
-19126.7
-19223.7
-19311.4
-19389.5
-19458
-19516.9
-19566
-19605.4
-19635
-19654.7
-19664.5
-19664.5
-19654.7
-19635
-19605.4
-19566
-19516.9
-19458
-19389.5
-19311.3
-19223.7
-19126.6
-19020.2
-18904.6
-18779.8
-18646.1
-18503.4
-18352.1
-18192.2
-18023.9
-17847.3
-17662.6
-17470.1
-17269.9
-17062.1
-16847.1
-16624.9
-16395.9
-16160.3
-15918.2
-15670
-15415.9
-15156.1
-14890.8
-14620.4
-14345.1
-14065.2
-13781
-13492.7
-13200.6
-12905
-12606.3
-12304.6
-12000.3
-11693.7
-11385.2
-11074.9
-10763.2
-10450.5
-10137
-9822.98
-9430.73
-9116.75
-8803.23
-8490.49
-8178.83
-7868.56
-7559.99
-7253.42
-6949.15
-6647.48
-6348.71
-6053.14
-5761.06
-5472.75
-5188.51
-4908.61
-4633.32
-4362.93
-4097.69
-3837.87
-3583.73
-3335.51
-3093.46
-2857.82
-2628.82
-2406.69
-2191.64
-1983.9
-1783.66
-1591.12
-1406.47
-1229.9
-1061.57
-901.663
-750.325
-607.708
-473.954
-349.194
-233.551
-127.14
-30.0654
57.5769
135.7
204.228
263.092
312.234
351.607
381.17
400.895
410.762
410.762
400.895
381.17
351.606
312.234
263.091
204.227
135.699
57.5757
-30.0668
-127.142
-233.553
-349.196
-473.957
-607.711
-750.328
-901.667
-1061.58
-1229.9
-1406.48
-1591.12
-1783.66
-1983.9
-2191.65
-2406.69
-2628.83
-2857.82
-3093.47
-3335.51
-3583.74
-3837.88
-4097.7
-4362.94
-4633.33
-4908.62
-5188.52
-5472.76
-5761.07
-6053.15
-6348.72
-6647.48
-6949.15
-7253.42
-7560
-7868.58
-8178.85
-8490.52
-8803.26
-9116.78
-9430.77
-9744.91
-10058.9
-10372.4
-10685.2
-10996.8
-11307.1
-11615.7
-11922.3