/*--------------------------------*- C++ -*----------------------------------*\
| =========                 |                                                 |
| \\      /  F ield         | OpenFOAM: The Open Source CFD Toolbox           |
|  \\    /   O peration     | Version:  2106                                  |
|   \\  /    A nd           | Website:  www.openfoam.com                      |
|    \\/     M anipulation  |                                                 |
\*---------------------------------------------------------------------------*/
FoamFile
{
    version     2.0;
    format      ascii;
    arch        "LSB;label=32;scalar=64";
    class       surfaceScalarField;
    location    "0.004";
    object      phi;
}
// * * * * * * * * * * * * * * * * * * * * * * * * * * * * * * * * * * * * * //

dimensions      [0 3 -1 0 0 0 0];

oriented        oriented;

internalField   nonuniform List<scalar> 
319200
(
3.0076e-06
-2.35439e-06
0.000454933
-0.000461916
-1.28998e-06
0.000455467
0.000113523
-0.0001144
-2.85484e-06
0.000116951
2.75751e-05
-2.98956e-05
-3.3044e-06
3.13502e-05
5.16958e-06
-8.11554e-06
-3.0471e-06
8.42603e-06
-7.1053e-07
-2.06918e-06
-2.62132e-06
1.98227e-06
-1.86974e-06
-4.58413e-07
-2.12002e-06
2.1263e-07
-1.8043e-06
-2.42767e-07
-1.60532e-06
-6.62707e-08
-1.31598e-06
-3.20122e-07
-1.13559e-06
-9.61853e-08
-1.04918e-06
-1.96055e-08
-9.39606e-07
-2.21047e-07
-1.11686e-06
3.62684e-07
-1.07789e-06
1.43518e-07
-1.08477e-06
-6.61259e-08
-1.18815e-06
1.84798e-07
-1.18838e-06
1.15117e-07
-1.02088e-06
-8.93187e-08
-7.07501e-07
-3.8504e-07
-6.34465e-07
8.26894e-09
-4.05703e-07
5.98009e-08
-1.12866e-07
-5.48423e-07
-4.38946e-08
-4.7442e-09
-1.30971e-07
4.50624e-07
-9.14229e-08
-1.79309e-07
-1.22794e-07
-1.90535e-08
-1.7261e-07
2.04898e-07
-2.04491e-07
6.4991e-08
-1.60226e-07
6.80073e-08
7.67793e-08
-2.61095e-07
3.43117e-07
-4.36317e-07
3.51856e-07
6.95132e-08
3.64108e-07
1.43432e-07
5.94395e-07
-2.46474e-07
7.90882e-07
-3.40218e-07
8.01885e-07
-1.67614e-07
5.82866e-07
2.80616e-07
3.83882e-07
4.63053e-07
4.79789e-07
-9.35531e-08
6.69721e-07
-4.53649e-07
7.97272e-07
-2.01985e-07
9.42829e-07
-6.38852e-08
1.02767e-06
-1.40516e-07
1.01196e-06
1.11441e-07
1.10595e-06
1.33201e-07
1.3944e-06
-4.40845e-07
1.52813e-06
-5.32803e-07
1.30344e-06
1.6655e-07
9.91663e-07
6.43842e-07
7.70877e-07
4.41637e-07
5.7993e-07
2.50297e-07
4.98858e-07
1.08767e-07
6.13903e-07
-2.28509e-07
8.79402e-07
-4.57575e-07
1.04112e-06
-2.05887e-07
1.12481e-06
7.3236e-08
1.05567e-06
2.16897e-07
8.5919e-07
3.93533e-07
6.67604e-07
4.95487e-07
5.70284e-07
2.26987e-07
6.71072e-07
-3.0805e-07
7.33267e-07
-2.81426e-07
6.66769e-07
3.78504e-09
6.77032e-07
-9.67905e-08
7.98798e-07
-4.08766e-07
9.2737e-07
-3.98139e-07
9.0958e-07
4.53398e-08
8.6922e-07
2.4011e-07
1.02203e-06
-3.55862e-10
1.16965e-06
-1.21406e-07
1.27293e-06
-2.05514e-08
1.20861e-06
1.99414e-07
1.11341e-06
1.66083e-07
9.96194e-07
7.07437e-08
7.95255e-07
2.51718e-07
6.80173e-07
2.86873e-07
6.86178e-07
9.84698e-08
8.633e-07
-2.8254e-07
1.08595e-06
-4.06964e-07
1.16426e-06
-1.31991e-07
1.28653e-06
-6.87553e-10
1.42985e-06
-5.20967e-08
1.62708e-06
-2.55493e-07
1.69627e-06
-2.47591e-07
1.54539e-06
1.04813e-07
1.33223e-06
2.91633e-07
1.12121e-06
2.61817e-07
1.01621e-06
6.35141e-08
9.80548e-07
2.21935e-10
8.86901e-07
1.7815e-07
8.55322e-07
1.55639e-07
8.80854e-07
7.8604e-09
1.0324e-06
-2.26148e-07
1.13316e-06
-2.11299e-07
1.05877e-06
4.74189e-08
9.45442e-07
2.2362e-07
8.05711e-07
2.82163e-07
8.62264e-07
-2.47712e-08
9.64547e-07
-1.70318e-07
1.02182e-06
-1.35235e-07
9.94028e-07
4.97944e-08
8.0052e-07
2.4174e-07
6.84378e-07
1.50621e-07
6.15391e-07
1.14503e-08
5.96405e-07
-1.10698e-07
6.15215e-07
-9.67074e-08
6.17068e-07
7.18238e-08
7.03476e-07
8.44752e-08
8.72734e-07
-3.40647e-08
1.11382e-06
-2.69217e-07
1.47671e-06
-4.76643e-07
1.66614e-06
-3.21199e-07
1.79766e-06
-1.52879e-07
1.74615e-06
9.44921e-08
1.69127e-06
1.40564e-07
1.78227e-06
-4.86832e-08
1.90499e-06
-1.81132e-07
2.19208e-06
-4.09596e-07
2.43128e-06
-3.48752e-07
2.61631e-06
-1.84689e-07
2.79093e-06
-6.6798e-08
2.85638e-06
7.37048e-08
3.03454e-06
-9.04279e-08
3.21578e-06
-1.84696e-07
3.39717e-06
-2.83161e-07
3.5371e-06
-2.7284e-07
3.48771e-06
-2.52128e-08
3.35573e-06
1.7608e-07
3.06372e-06
4.19623e-07
2.66791e-06
5.13054e-07
2.31345e-06
4.01051e-07
1.89767e-06
3.99584e-07
1.64711e-06
1.81095e-07
1.37297e-06
1.65475e-07
1.18158e-06
1.06781e-07
1.0333e-06
1.3842e-07
8.71052e-07
2.54841e-07
7.69e-07
2.49156e-07
5.37994e-07
3.5983e-07
3.58795e-07
2.5138e-07
1.15726e-07
2.50476e-07
-1.06003e-07
1.5758e-07
-3.00339e-07
6.65126e-08
-4.73981e-07
3.01962e-08
-5.29133e-07
-3.6991e-08
-5.49291e-07
2.74996e-08
-5.32543e-07
7.64478e-08
-4.71255e-07
7.25906e-08
-4.50868e-07
1.41256e-07
-3.67336e-07
7.64239e-08
-3.12288e-07
6.05523e-08
-2.48831e-07
-2.97972e-08
-1.75672e-07
-1.17622e-07
-1.07186e-07
-1.73807e-07
-5.72479e-08
-1.95762e-07
-5.68215e-08
-1.66456e-07
-1.28714e-07
-1.0926e-07
-2.19029e-07
-5.87985e-08
-3.36391e-07
3.33795e-08
-4.05407e-07
5.58405e-08
-4.89273e-07
9.70099e-08
-5.75058e-07
1.06668e-07
-6.46543e-07
1.01284e-07
-7.34335e-07
1.56852e-07
-8.26516e-07
1.91882e-07
-9.41162e-07
2.18496e-07
-1.06672e-06
2.05252e-07
-1.1748e-06
1.6449e-07
-1.24182e-06
1.17515e-07
-1.25973e-06
6.69259e-08
-1.23077e-06
4.61606e-09
-1.15475e-06
-7.07928e-08
-1.02073e-06
-1.45682e-07
-8.29294e-07
-2.03832e-07
-5.91642e-07
-2.38951e-07
-3.35106e-07
-2.56397e-07
-9.40395e-08
-2.5016e-07
1.12085e-07
-2.27516e-07
2.49798e-07
-1.62675e-07
2.8375e-07
-5.50353e-08
2.02308e-07
6.35157e-08
5.23581e-09
1.78413e-07
-2.59467e-07
2.50526e-07
-5.61149e-07
2.93922e-07
-8.64326e-07
3.01821e-07
-1.12835e-06
2.66834e-07
-1.326e-06
2.03558e-07
-1.42858e-06
1.10232e-07
-1.41456e-06
-3.791e-09
-1.27311e-06
-1.31432e-07
-1.00943e-06
-2.55683e-07
-6.50131e-07
-3.5725e-07
-2.41046e-07
-4.13305e-07
1.61395e-07
-4.15032e-07
5.05908e-07
-3.61814e-07
7.5399e-07
-2.69398e-07
8.87009e-07
-1.54324e-07
9.01328e-07
-3.28316e-08
8.01401e-07
8.60617e-08
5.92285e-07
1.95326e-07
2.92685e-07
2.85518e-07
-6.63992e-08
3.49245e-07
-4.496e-07
3.85437e-07
-7.89681e-07
3.48919e-07
-1.04552e-06
2.63238e-07
-1.18417e-06
1.40503e-07
-1.20608e-06
2.07392e-08
-1.13132e-06
-7.64646e-08
-9.91081e-07
-1.44654e-07
-8.13416e-07
-1.92353e-07
-6.20652e-07
-2.16752e-07
-4.28732e-07
-2.13462e-07
-2.70965e-07
-1.653e-07
-1.81961e-07
-8.90402e-08
-1.84548e-07
-7.26435e-09
-2.70136e-07
6.17611e-08
-4.03098e-07
1.13248e-07
-5.43389e-07
1.42438e-07
-6.65036e-07
1.35127e-07
-7.54323e-07
9.48992e-08
-8.05939e-07
4.28602e-08
-8.10958e-07
1.69222e-09
-7.79843e-07
3.1867e-10
-7.03899e-07
-1.56828e-08
-6.37408e-07
-1.223e-08
-5.88303e-07
-2.69408e-08
-5.49956e-07
-2.74882e-08
-6.04381e-07
7.96875e-08
-6.57068e-07
1.04171e-07
-7.66844e-07
1.50842e-07
-8.60329e-07
1.0967e-07
-8.73663e-07
1.17012e-08
-8.84927e-07
-3.49007e-09
-7.98409e-07
-1.06583e-07
-7.15296e-07
-1.30158e-07
-6.09609e-07
-1.61311e-07
-4.61655e-07
-1.91032e-07
-3.60619e-07
-1.14691e-07
-2.79468e-07
-7.64238e-08
-3.00002e-07
3.39014e-08
-4.26873e-07
1.6382e-07
-6.19942e-07
2.61088e-07
-9.45867e-07
3.97101e-07
-1.24018e-06
3.31267e-07
-1.55326e-06
3.02936e-07
-1.77974e-06
1.96643e-07
-1.8694e-06
5.91375e-08
-1.89991e-06
6.37155e-09
-1.77223e-06
-1.52895e-07
-1.65553e-06
-1.16952e-07
-1.5704e-06
-4.84487e-08
-1.58659e-06
6.13707e-08
-1.7326e-06
1.63879e-07
-1.89151e-06
1.50963e-07
-2.1377e-06
2.27899e-07
-2.30367e-06
1.52202e-07
-2.50903e-06
1.75461e-07
-2.67911e-06
1.36899e-07
-2.75739e-06
8.72269e-08
-2.78418e-06
8.45134e-08
-2.64137e-06
-7.392e-08
-2.43932e-06
-1.80442e-07
-2.19349e-06
-2.777e-07
-1.91417e-06
-3.46201e-07
-1.73789e-06
-2.39482e-07
-1.53957e-06
-2.42045e-07
-1.43055e-06
-1.02499e-07
-1.34151e-06
-3.86951e-08
-1.21787e-06
-8.039e-08
-1.11548e-06
-9.94362e-08
-9.25417e-07
-2.21618e-07
-7.9031e-07
-1.66328e-07
-6.91782e-07
-1.09027e-07
-5.60592e-07
-1.22444e-07
-3.92566e-07
-1.35845e-07
-6.74159e-08
-2.68986e-07
3.48019e-07
-3.95145e-07
7.59122e-07
-4.63711e-07
1.14374e-06
-4.41635e-07
1.33968e-06
-2.05829e-07
1.48241e-06
-8.3783e-08
1.48733e-06
4.47878e-08
1.4293e-06
7.12529e-08
1.39116e-06
2.15467e-08
1.25495e-06
1.29983e-07
1.18221e-06
6.02512e-08
1.07779e-06
1.08329e-07
1.00073e-06
6.68698e-08
1.01354e-06
-3.88672e-08
9.77774e-07
-1.10964e-08
1.01118e-06
-4.59875e-08
9.66005e-07
6.97381e-08
9.37164e-07
5.16994e-08
9.30089e-07
4.69475e-09
9.00893e-07
-6.31801e-09
8.72646e-07
-2.43449e-08
6.75655e-07
1.40386e-07
4.96979e-07
1.9048e-07
2.8469e-07
2.40186e-07
1.60035e-07
1.32079e-07
1.00346e-07
4.19422e-08
9.9025e-08
4.53229e-08
1.73758e-07
1.43319e-08
3.64739e-07
-1.68442e-07
6.75515e-07
-3.7446e-07
1.0511e-06
-4.16444e-07
1.26937e-06
-1.69896e-07
1.44216e-06
-7.59253e-08
1.44935e-06
7.67612e-09
1.36279e-06
1.59273e-08
1.17764e-06
1.00506e-07
8.17895e-07
3.54703e-07
5.21885e-07
3.70718e-07
2.71575e-07
2.75602e-07
1.18976e-07
1.58927e-07
-1.8103e-08
1.83957e-07
-7.42588e-08
1.44165e-07
-7.32061e-08
2.93093e-08
-3.32401e-08
-5.46971e-08
-4.87754e-08
6.39428e-08
-7.99819e-08
1.85946e-07
-4.62582e-09
9.74514e-08
1.16772e-07
-1.18281e-07
2.67853e-07
-2.26868e-07
3.31604e-07
-9.01262e-08
3.65394e-07
-4.16276e-08
3.51928e-07
-1.11134e-07
2.91083e-07
-1.0536e-07
1.2504e-07
9.9153e-08
-5.62626e-08
1.8659e-07
-2.11323e-07
1.33344e-07
-3.28776e-07
1.77033e-07
-3.76974e-07
1.63515e-07
-4.16249e-07
1.05235e-07
-5.61512e-07
1.06708e-07
-8.4225e-07
2.6085e-07
-1.21528e-06
2.90748e-07
-1.47496e-06
1.47763e-07
-1.73364e-06
3.44631e-07
-1.91236e-06
4.32912e-07
-1.97237e-06
1.16462e-07
-1.7705e-06
-3.18397e-07
-1.50278e-06
-2.57703e-07
-1.30327e-06
-7.86406e-08
-1.03007e-06
-2.56223e-07
-7.95241e-07
-1.92576e-07
-7.02517e-07
5.17969e-08
-6.73106e-07
-2.34808e-08
-7.26639e-07
-7.0304e-08
-9.03715e-07
2.02581e-07
-1.1943e-06
4.22748e-07
-1.37494e-06
2.12291e-07
-1.35801e-06
4.55073e-08
-1.30454e-06
-5.28647e-08
-1.25862e-06
-4.24993e-08
-1.28872e-06
1.45302e-07
-1.21273e-06
-5.57072e-08
-9.5453e-07
-3.10368e-07
-8.16427e-07
-7.39434e-08
-7.9267e-07
-1.17256e-07
-7.97221e-07
-2.29908e-08
-8.59715e-07
1.69323e-07
-7.87367e-07
-1.95448e-07
-7.21694e-07
-1.33295e-07
-7.15664e-07
1.33549e-07
-5.33962e-07
-2.87244e-07
-3.56676e-07
-2.98348e-07
-3.37682e-07
1.06225e-07
-3.10385e-07
-1.36442e-07
-3.27658e-07
-3.93322e-08
-5.00062e-07
1.6531e-07
-6.45596e-07
1.72333e-07
-6.50111e-07
4.46368e-08
-7.40531e-07
2.00679e-09
-7.23394e-07
1.20643e-07
-5.14685e-07
-9.72358e-08
-2.4601e-07
-3.06072e-07
-2.28896e-08
-5.10551e-08
1.13733e-07
-9.87387e-08
3.6212e-07
-1.91039e-07
-1.21918e-07
6.6112e-07
3.27256e-07
-4.35542e-07
-2.01474e-06
2.36685e-06
-8.07529e-08
-1.69888e-06
-8.72289e-06
8.60082e-06
-8.67099e-07
-7.62854e-06
-3.24058e-05
3.14974e-05
-2.92092e-06
-2.94065e-05
-0.000120212
0.000117031
-6.73035e-06
-0.000113891
-0.000462618
0.000455205
-6.51851e-06
-0.000459247
-2.25836e-06
-0.000461504
0.000455752
-0.000462373
-0.00046104
-0.000147796
0.000140887
-0.000115987
-0.000146204
-4.98673e-05
5.08338e-05
-3.09022e-05
-4.88803e-05
-1.69866e-05
1.74398e-05
-8.69394e-06
-1.6392e-05
-5.71904e-06
5.44254e-06
-2.64541e-06
-5.1543e-06
-1.96375e-06
1.3167e-06
-9.72594e-07
-1.43536e-06
-8.7018e-07
1.03588e-07
-6.51768e-07
-4.77669e-07
-6.18249e-07
-9.98952e-08
-6.41144e-07
-2.87196e-07
-6.2199e-07
-1.08055e-07
-6.28348e-07
-1.2907e-08
-6.41683e-07
-2.17417e-07
-5.33365e-07
2.38669e-07
-4.70033e-07
7.19601e-08
-5.03686e-07
-2.21046e-08
-4.41049e-07
1.44783e-07
-4.10124e-07
1.05691e-07
-4.70882e-07
-1.40483e-08
-5.26121e-07
-3.19579e-07
-5.69512e-07
5.93207e-08
-5.76249e-07
6.98083e-08
-7.61864e-07
-3.64009e-07
-7.44285e-07
-2.44301e-08
-5.77042e-07
2.83054e-07
-6.49156e-07
-1.06715e-07
-6.02606e-07
-6.64167e-08
-3.88994e-07
-1.09545e-08
-2.55622e-07
-7.01199e-08
-1.62637e-07
-2.4523e-08
-1.80229e-07
-2.41373e-07
-1.36681e-07
-4.78147e-07
-4.50354e-08
-2.20931e-08
-2.53243e-08
1.22771e-07
-1.33243e-07
-1.38904e-07
-2.26712e-07
-2.4558e-07
-3.01287e-07
-9.08473e-08
-2.35444e-07
2.16532e-07
-1.65554e-07
3.93461e-07
-2.55548e-07
-4.35495e-09
-4.1581e-07
-2.94086e-07
-4.20076e-07
-1.97586e-07
-3.62012e-07
-1.21114e-07
-4.03881e-07
-9.76197e-08
-4.26767e-07
1.35106e-07
-4.30663e-07
1.37358e-07
-5.35874e-07
-3.35863e-07
-5.89338e-07
-4.79749e-07
-5.23338e-07
1.00229e-07
-3.25364e-07
4.45639e-07
-1.75828e-07
2.91911e-07
-7.31962e-08
1.47658e-07
-5.09447e-08
8.68875e-08
-1.09015e-07
-1.69681e-07
-1.48037e-07
-4.17539e-07
-1.1229e-07
-2.40442e-07
-1.02356e-07
6.4621e-08
-1.09733e-07
2.25538e-07
-7.54176e-08
3.60131e-07
9.97004e-09
4.10493e-07
2.43254e-08
2.1257e-07
-1.00841e-07
-1.83249e-07
-1.9469e-07
-1.88141e-07
-1.81383e-07
-1.01611e-08
-1.56956e-07
-1.21697e-07
-1.92006e-07
-3.73759e-07
-2.04841e-07
-3.84792e-07
-1.43904e-07
-1.46337e-08
-6.1903e-08
1.5931e-07
-2.22449e-08
-3.87424e-08
5.81656e-08
-2.00577e-07
1.22628e-07
-8.39533e-08
1.70354e-07
1.5237e-07
1.4087e-07
1.95726e-07
1.22963e-07
8.83061e-08
1.94667e-07
1.79352e-07
2.98025e-07
1.82758e-07
2.87633e-07
1.0814e-07
1.50244e-07
-1.45772e-07
3.04227e-09
-2.60185e-07
-4.43695e-08
-8.4643e-08
-5.38227e-08
9.21933e-09
-5.15978e-08
-5.32935e-08
-4.86065e-08
-2.56964e-07
-4.57879e-08
-2.48559e-07
2.65344e-08
3.45464e-08
6.61718e-08
2.54187e-07
1.13096e-07
2.17178e-07
1.38145e-07
4.07839e-08
2.19762e-07
-7.91536e-08
3.24027e-07
7.58973e-08
4.04928e-07
7.64064e-08
3.55632e-07
5.84683e-08
2.37596e-07
-1.07087e-07
1.35348e-07
-1.08226e-07
1.06974e-07
7.64692e-08
1.39e-07
1.92119e-07
1.75314e-07
2.46175e-07
1.77961e-07
-2.73088e-08
1.78132e-07
-1.70557e-07
2.16273e-07
-1.73529e-07
2.99371e-07
-3.34472e-08
3.39561e-07
2.0148e-07
3.38456e-07
1.51744e-07
2.72712e-07
7.72552e-08
2.15438e-07
-5.33726e-08
2.03532e-07
-8.47992e-08
2.24477e-07
5.08183e-08
2.49388e-07
5.94713e-08
2.30801e-07
-1.55368e-08
1.69232e-07
-2.07613e-07
9.25937e-08
-3.99848e-07
7.45427e-08
-3.02884e-07
1.11134e-07
-1.89143e-07
1.93377e-07
1.25789e-08
2.53413e-07
8.08013e-08
2.53885e-07
-4.8976e-08
2.07618e-07
-1.34791e-07
1.25519e-07
-3.27509e-07
5.48659e-08
-2.78161e-07
1.83994e-08
-1.48298e-07
-4.01497e-08
-8.30325e-09
-5.75437e-08
9.10885e-08
-1.53535e-07
5.60677e-09
-2.47192e-07
-9.09452e-08
-3.40804e-07
-1.89412e-07
-3.97888e-07
-2.15588e-07
-3.74335e-07
-4.85772e-08
-3.01594e-07
1.03536e-07
-1.72498e-07
2.90719e-07
-4.30979e-08
3.83833e-07
5.80626e-09
3.52315e-07
6.56146e-08
3.39936e-07
4.86856e-08
1.9818e-07
4.99157e-08
1.64397e-07
3.44658e-08
1.22381e-07
1.95942e-08
1.53439e-07
2.44997e-08
2.50085e-07
1.59724e-08
2.57839e-07
4.6753e-08
3.29212e-07
5.34861e-08
2.44822e-07
8.72008e-08
2.16947e-07
1.10275e-07
1.34702e-07
1.36244e-07
4.07503e-08
1.41697e-07
2.49585e-08
1.36419e-07
-3.14937e-08
1.22118e-07
4.2023e-08
1.13604e-07
8.51901e-08
8.60079e-08
1.00417e-07
7.845e-08
1.49046e-07
6.21259e-08
9.29841e-08
6.03765e-08
6.25439e-08
6.2347e-08
-3.15193e-08
5.20754e-08
-1.07094e-07
3.85075e-08
-1.59978e-07
1.289e-08
-1.6988e-07
-1.24601e-08
-1.40839e-07
-3.43992e-08
-8.70498e-08
-5.47586e-08
-3.81642e-08
-5.88969e-08
3.77978e-08
-6.34665e-08
6.06984e-08
-5.32345e-08
8.70742e-08
-3.30193e-08
8.67571e-08
-9.34465e-09
7.79209e-08
4.46202e-08
1.03203e-07
1.07511e-07
1.29308e-07
1.71052e-07
1.55269e-07
2.14135e-07
1.62477e-07
2.27449e-07
1.51474e-07
2.16537e-07
1.28717e-07
1.94959e-07
8.8786e-08
1.73498e-07
2.63526e-08
1.54519e-07
-5.15432e-08
1.37838e-07
-1.28735e-07
1.24049e-07
-1.89781e-07
1.1324e-07
-2.27884e-07
9.99711e-08
-2.42872e-07
7.50521e-08
-2.24988e-07
3.34639e-08
-1.85676e-07
-1.44313e-08
-1.14527e-07
-4.26662e-08
-2.65469e-08
-3.84527e-08
5.95558e-08
7.3221e-09
1.32893e-07
8.71048e-08
1.71e-07
1.82102e-07
1.99181e-07
2.72729e-07
2.11447e-07
3.49103e-07
1.9071e-07
3.99557e-07
1.53347e-07
4.17151e-07
9.28727e-08
4.00616e-07
1.29718e-08
3.55832e-07
-8.64228e-08
3.03756e-07
-2.03384e-07
2.6001e-07
-3.13277e-07
2.30621e-07
-3.83686e-07
2.04757e-07
-3.88932e-07
1.74269e-07
-3.31083e-07
1.36802e-07
-2.31684e-07
1.01368e-07
-1.1864e-07
7.87703e-08
-9.98622e-09
7.77356e-08
8.73427e-08
1.02557e-07
1.7075e-07
1.54316e-07
2.34005e-07
2.31931e-07
2.7188e-07
3.34737e-07
2.82887e-07
4.36877e-07
2.47038e-07
5.08214e-07
1.9216e-07
5.34752e-07
1.14223e-07
5.19812e-07
3.59379e-08
4.85177e-07
-4.15699e-08
4.48466e-07
-1.07679e-07
4.16125e-07
-1.5974e-07
3.86554e-07
-1.86899e-07
3.67239e-07
-1.93857e-07
3.60565e-07
-1.58328e-07
3.64926e-07
-9.31002e-08
3.69606e-07
-1.16409e-08
3.65143e-07
6.65286e-08
3.57244e-07
1.21456e-07
3.60968e-07
1.39027e-07
3.82508e-07
1.13906e-07
4.14797e-07
6.29351e-08
4.42206e-07
1.57806e-08
4.68867e-07
-2.46346e-08
4.8676e-07
-1.72371e-08
5.03897e-07
-3.24844e-08
4.94182e-07
-2.18291e-09
4.57988e-07
9.5788e-09
4.42254e-07
-1.14417e-08
4.11735e-07
1.10506e-07
4.45236e-07
7.09597e-08
4.55684e-07
1.40672e-07
4.56563e-07
1.09064e-07
4.68604e-07
-6.97e-11
4.40123e-07
2.52632e-08
4.54199e-07
-1.20387e-07
4.31598e-07
-1.07285e-07
4.05309e-07
-1.34755e-07
3.92133e-07
-1.77595e-07
3.50539e-07
-7.28445e-08
3.36523e-07
-6.2162e-08
3.04338e-07
6.63234e-08
2.86089e-07
1.82298e-07
3.25459e-07
2.21943e-07
3.68642e-07
3.5414e-07
4.49916e-07
2.50214e-07
4.9637e-07
2.56704e-07
5.2538e-07
1.67854e-07
5.48446e-07
3.6291e-08
5.2002e-07
3.50138e-08
4.83607e-07
-1.16273e-07
4.2031e-07
-5.34506e-08
3.88723e-07
-1.66628e-08
3.70045e-07
8.02449e-08
3.43419e-07
1.907e-07
3.29676e-07
1.64899e-07
3.38981e-07
2.18785e-07
3.91509e-07
9.98612e-08
4.66769e-07
1.00381e-07
5.35287e-07
6.8556e-08
5.93841e-07
2.88375e-08
6.1433e-07
6.4176e-08
6.01904e-07
-6.13568e-08
5.28952e-07
-1.07368e-07
4.33028e-07
-1.81667e-07
3.42606e-07
-2.55682e-07
2.84694e-07
-1.81487e-07
2.40936e-07
-1.98215e-07
2.10818e-07
-7.23127e-08
1.90991e-07
-1.87953e-08
1.6575e-07
-5.50623e-08
1.48644e-07
-8.22202e-08
1.31406e-07
-2.04239e-07
1.56364e-07
-1.9112e-07
1.80937e-07
-1.33421e-07
1.93881e-07
-1.35206e-07
1.49517e-07
-9.13142e-08
1.01205e-07
-2.20542e-07
7.74416e-09
-3.01601e-07
-9.47083e-08
-3.61232e-07
-1.95303e-07
-3.41065e-07
-2.40281e-07
-1.60923e-07
-2.40936e-07
-8.32432e-08
-2.27409e-07
3.11036e-08
-2.09974e-07
5.36218e-08
-1.86769e-07
-1.89501e-09
-1.21846e-07
6.47816e-08
-9.63286e-08
3.4419e-08
-9.00074e-08
1.01678e-07
-1.17359e-07
9.39143e-08
-1.59143e-07
2.6741e-09
-1.76256e-07
5.88083e-09
-1.71e-07
-5.12203e-08
-1.48694e-07
4.766e-08
-1.47213e-07
5.06915e-08
-1.77456e-07
3.56961e-08
-2.17912e-07
3.52352e-08
-2.31259e-07
-9.52054e-09
-2.42131e-07
1.5313e-07
-2.03866e-07
1.54458e-07
-1.50094e-07
1.88959e-07
-8.23524e-08
6.70908e-08
-3.50873e-08
-2.4811e-09
1.99628e-08
-6.93208e-09
2.73215e-08
9.57507e-09
-4.47386e-08
-9.4125e-08
-1.88321e-07
-2.29116e-07
-2.73387e-07
-3.30227e-07
-2.78895e-07
-1.63899e-07
-2.84575e-07
-7.03876e-08
-3.43079e-07
6.55109e-08
-4.32872e-07
1.04691e-07
-4.56717e-07
1.23154e-07
-4.30506e-07
3.27333e-07
-3.37074e-07
2.76371e-07
-2.74337e-07
2.12372e-07
-2.17244e-07
1.01863e-07
-1.50765e-07
1.18038e-07
-1.30958e-07
1.25387e-07
-1.26518e-07
2.62469e-08
-1.14839e-07
-6.48097e-08
-3.99807e-08
-9.34195e-09
1.40062e-08
1.33338e-07
1.15657e-08
1.00878e-07
-7.41201e-08
-3.21445e-08
-1.76149e-07
-1.24995e-07
-2.4177e-07
-2.52529e-08
-2.77953e-07
-6.65994e-09
-3.62927e-07
-2.7558e-08
-3.98398e-07
-7.1072e-08
-3.62328e-07
6.2545e-08
-3.3011e-07
1.54815e-07
-3.25787e-07
1.30565e-07
-3.62543e-07
2.16252e-07
-3.44764e-07
1.48621e-07
-3.41712e-07
1.04792e-07
-2.88388e-07
5.50386e-08
-1.91728e-07
1.64518e-07
-1.59768e-07
2.57874e-07
-1.23596e-07
1.09937e-07
3.59754e-08
1.83382e-07
1.36045e-07
3.31771e-07
3.59419e-08
2.1639e-07
-1.3141e-07
-1.50452e-07
-1.77438e-07
-2.107e-07
-1.94218e-07
-6.09152e-08
-2.86155e-07
-1.63659e-07
-3.14525e-07
-1.64014e-07
-2.98903e-07
3.59821e-08
-3.56672e-07
3.38912e-08
-4.60243e-07
3.29597e-08
-3.9622e-07
1.38734e-07
-3.44169e-07
3.7168e-07
-4.05962e-07
2.75825e-07
-4.77492e-07
1.18972e-07
-5.04472e-07
-2.45562e-08
-4.37979e-07
-1.08717e-07
-3.70352e-07
7.72666e-08
-3.5263e-07
-7.35212e-08
-2.90197e-07
-3.71871e-07
-1.67497e-07
-1.95081e-07
-1.4623e-07
-1.37408e-07
-6.18081e-08
-1.07268e-07
-2.84222e-10
1.07781e-07
-7.22094e-08
-1.22074e-07
-3.21231e-08
-1.69411e-07
-4.91134e-08
1.56579e-07
-2.04384e-07
-1.25241e-07
-2.26856e-07
-2.69518e-07
-1.77423e-07
6.23607e-08
-2.74211e-07
-3.45667e-08
-2.03215e-07
-1.04538e-07
-1.18611e-07
8.78864e-08
5.65935e-11
6.00257e-08
2.01587e-08
2.76477e-08
6.73681e-08
-4.70175e-08
1.48672e-07
3.98531e-08
1.39779e-07
-8.84934e-08
6.97694e-08
-2.32001e-07
9.22702e-08
-7.71149e-08
1.21941e-08
-1.75477e-08
2.21482e-07
-4.00993e-07
3.45501e-07
5.36212e-07
1.20609e-06
-1.2926e-06
1.83558e-06
1.73057e-06
4.87633e-06
-4.72855e-06
7.71371e-06
5.75666e-06
1.59216e-05
-1.5833e-05
2.95487e-05
1.78693e-05
4.8296e-05
-4.81493e-05
0.000113752
5.15747e-05
0.000144767
-0.00014492
0.000458155
0.000141828
0.000456672
-0.000457769
0.000457844
0.000454075
1.01699e-06
0.000140426
-0.000147366
0.000140957
0.00014033
7.69627e-05
-8.21903e-05
4.82095e-05
7.95961e-05
3.29052e-05
-3.35808e-05
1.69561e-05
3.33843e-05
1.21525e-05
-1.15866e-05
5.74787e-06
1.1855e-05
3.92975e-06
-3.34994e-06
1.66035e-06
3.57745e-06
1.00435e-06
-7.71989e-07
2.63686e-07
8.50911e-07
-3.67096e-08
-1.83295e-07
-2.45425e-07
1.00613e-07
-4.43821e-07
-8.66638e-08
-4.73385e-07
-7.03744e-08
-4.97636e-07
1.62118e-08
-5.90431e-07
-1.27275e-07
-4.54826e-07
9.65178e-08
-3.62506e-07
-2.53136e-08
-4.22149e-07
3.67593e-08
-3.19371e-07
4.27162e-08
-2.08679e-07
-3.74966e-09
-2.36715e-07
1.68686e-08
-4.19366e-07
-1.32485e-07
-3.84245e-07
2.74229e-08
-2.91518e-07
-2.28064e-08
-4.99734e-07
-1.57067e-07
-5.63693e-07
3.96553e-08
-2.83808e-07
4.46603e-09
-3.2785e-07
-6.28606e-08
-3.65448e-07
-3.1485e-08
-2.9372e-07
-8.56485e-08
-2.79309e-07
-8.52195e-08
-2.04798e-07
-9.73892e-08
-2.90144e-07
-1.54347e-07
-5.32019e-07
-2.3662e-07
-4.80274e-07
-7.5928e-08
-3.56161e-07
-3.08422e-09
-3.73255e-07
-1.21612e-07
-5.14544e-07
-1.02494e-07
-6.17593e-07
1.39362e-08
-4.54188e-07
5.33618e-08
-1.53555e-07
9.14356e-08
-1.11451e-07
-4.83166e-08
-3.22104e-07
-8.43617e-08
-4.29259e-07
-8.99932e-08
-4.21277e-07
-1.28042e-07
-4.8004e-07
-3.82938e-08
-3.43598e-07
-1.81823e-09
-1.96899e-07
-1.06524e-08
-3.84985e-07
-1.49284e-07
-7.1706e-07
-1.48764e-07
-7.21326e-07
1.04047e-07
-3.938e-07
1.18042e-07
-1.89237e-07
8.71875e-08
-7.73607e-08
3.53059e-08
-2.7394e-08
3.63056e-08
-1.56814e-07
-4.06629e-08
-4.00044e-07
-1.74253e-07
-5.73371e-07
-6.65751e-08
-5.42623e-07
3.47361e-08
-4.66064e-07
1.49843e-07
-2.88497e-07
1.83037e-07
-5.8448e-09
1.27641e-07
1.41396e-07
6.44628e-08
-7.61509e-09
-3.5511e-08
-1.67266e-07
-2.98394e-08
-1.57385e-07
-2.12032e-08
-1.40075e-07
-1.39795e-07
-3.33422e-07
-1.80721e-07
-5.31358e-07
-1.86686e-07
-5.25428e-07
-2.00542e-08
-3.7084e-07
5.33312e-09
-3.2547e-07
-8.36214e-08
-4.24496e-07
-1.01309e-07
-4.51078e-07
-5.74252e-08
-3.65999e-07
6.69209e-08
-2.93258e-07
1.22283e-07
-2.62214e-07
5.62519e-08
-1.82256e-07
9.81765e-08
-3.07101e-08
2.99471e-08
5.16959e-08
2.45672e-08
-7.37114e-08
-2.13375e-08
-2.57821e-07
-7.6795e-08
-3.33489e-07
-9.37964e-09
-2.44639e-07
-7.9651e-08
-2.04359e-07
-9.31534e-08
-3.15991e-07
-1.44482e-07
-4.5742e-07
-1.05928e-07
-4.66252e-07
4.48202e-08
-3.0877e-07
9.82832e-08
-1.85458e-07
9.54955e-08
-1.88492e-07
4.54291e-08
-2.19023e-07
-4.7096e-08
-1.90348e-07
4.85879e-08
-9.86656e-08
-1.41554e-08
-8.9287e-08
4.99109e-08
-1.98422e-07
2.56713e-09
-3.26173e-07
1.97734e-08
-3.48401e-07
9.8727e-08
-2.0992e-07
5.34924e-08
-5.31133e-08
8.90703e-08
-3.09208e-08
-4.99435e-08
-1.37515e-07
-6.45328e-08
-2.64891e-07
-4.68222e-08
-2.72422e-07
-2.66484e-08
-1.82365e-07
1.10677e-07
-7.08123e-08
3.94684e-08
-4.61747e-08
5.19341e-08
-1.03062e-07
2.86922e-09
-1.53584e-07
-3.48929e-08
-1.20204e-07
1.68359e-08
-1.86965e-08
-4.26369e-08
4.85962e-08
-8.34263e-08
-5.54926e-09
-1.54047e-07
-1.68082e-07
-2.37863e-07
-3.08945e-07
-1.62527e-07
-3.38527e-07
-1.6003e-07
-2.62649e-07
-6.37443e-08
-1.27807e-07
-5.44799e-08
-7.03209e-08
-1.06911e-07
-9.94334e-08
-1.06146e-07
-2.46069e-07
-1.81366e-07
-3.85641e-07
-1.39108e-07
-4.3932e-07
-9.51543e-08
-3.95546e-07
-5.26214e-08
-3.02027e-07
-2.97354e-09
-2.54228e-07
-4.27337e-08
-2.86066e-07
-5.96447e-08
-4.05851e-07
-7.01598e-08
-5.48787e-07
-7.31785e-08
-6.28779e-07
3.08941e-08
-6.08023e-07
8.226e-08
-4.84103e-07
1.6628e-07
-3.21293e-07
2.20506e-07
-1.86289e-07
2.168e-07
-8.56694e-08
2.38813e-07
-7.9957e-08
1.91968e-07
-1.14609e-07
1.98552e-07
-1.81619e-07
1.88897e-07
-2.11776e-07
1.83108e-07
-1.9701e-07
2.34842e-07
-1.28306e-07
1.88665e-07
-3.08196e-08
2.31266e-07
4.62466e-08
1.67304e-07
1.05623e-07
1.57131e-07
1.22198e-07
1.17694e-07
8.86548e-08
7.38685e-08
3.86304e-08
7.4565e-08
-3.63862e-08
4.31113e-08
-6.69541e-08
7.21846e-08
-6.09822e-08
7.88164e-08
-3.40367e-08
7.30723e-08
4.14973e-08
7.3116e-08
9.87418e-08
3.53481e-08
1.53269e-07
7.63351e-09
1.53123e-07
-3.17476e-08
1.13405e-07
-6.77443e-08
3.78274e-08
-8.47628e-08
-4.46261e-08
-8.77865e-08
-1.07836e-07
-7.79876e-08
-1.6224e-07
-3.30001e-08
-1.79602e-07
-2.11521e-08
-1.90684e-07
4.85363e-08
-1.69899e-07
3.95763e-08
-1.55424e-07
7.22706e-08
-1.36648e-07
6.76628e-08
-1.22778e-07
6.37393e-08
-9.5916e-08
7.60319e-08
-5.09267e-08
8.40086e-08
3.91263e-09
1.00117e-07
6.73135e-08
9.87555e-08
1.22847e-07
9.56133e-08
1.71073e-07
8.01541e-08
2.05943e-07
5.35734e-08
2.19389e-07
1.25589e-08
2.06771e-07
-3.92786e-08
1.70536e-07
-9.28581e-08
1.16509e-07
-1.36115e-07
4.92021e-08
-1.60942e-07
-2.79374e-08
-1.66102e-07
-1.04087e-07
-1.49209e-07
-1.74466e-07
-1.15669e-07
-2.18302e-07
-7.10637e-08
-2.27674e-07
-1.75481e-08
-2.02395e-07
3.39038e-08
-1.4996e-07
8.00853e-08
-8.19282e-08
1.02595e-07
-3.23844e-09
1.20117e-07
9.0197e-08
1.17634e-07
1.75433e-07
1.05091e-07
2.44512e-07
8.388e-08
2.89711e-07
4.72816e-08
3.04669e-07
-2.3823e-09
2.86084e-07
-6.82367e-08
2.26282e-07
-1.43981e-07
1.24583e-07
-2.11976e-07
-6.0049e-09
-2.53494e-07
-1.36771e-07
-2.58558e-07
-2.42981e-07
-2.25258e-07
-3.10829e-07
-1.64218e-07
-3.40274e-07
-8.9573e-08
-3.38912e-07
-1.17272e-08
-3.07315e-07
5.53657e-08
-2.44694e-07
1.0775e-07
-1.55878e-07
1.44812e-07
-5.02727e-08
1.65902e-07
5.54983e-08
1.76746e-07
1.43689e-07
1.5848e-07
2.04241e-07
1.31241e-07
2.33684e-07
8.44139e-08
2.31629e-07
3.76266e-08
2.01961e-07
-1.22637e-08
1.50324e-07
-5.63977e-08
8.43455e-08
-9.41101e-08
1.5696e-08
-1.18591e-07
-5.44256e-08
-1.24069e-07
-1.08879e-07
-1.042e-07
-1.38735e-07
-6.35646e-08
-1.36453e-07
-1.42403e-08
-1.02092e-07
3.18523e-08
-4.55691e-08
6.46212e-08
1.63466e-08
7.68021e-08
5.83839e-08
7.1562e-08
7.91888e-08
4.18306e-08
7.65688e-08
1.81066e-08
6.23286e-08
-1.06821e-08
4.79785e-08
-3.17416e-09
2.78922e-08
-1.26867e-08
1.51621e-08
1.02535e-08
2.32555e-09
2.21128e-08
-1.41921e-08
4.76278e-09
2.28679e-08
7.31228e-08
5.91022e-08
3.43925e-08
1.28932e-07
7.05024e-08
1.77493e-07
6.01568e-08
1.98982e-07
-2.19087e-08
1.85187e-07
3.87077e-08
1.46901e-07
-8.2453e-08
8.56272e-08
-4.63679e-08
3.12016e-08
-8.06893e-08
-5.32699e-08
-9.34918e-08
-1.09389e-07
-1.71007e-08
-1.60914e-07
-1.10206e-08
-1.67416e-07
7.24353e-08
-1.20414e-07
1.349e-07
-3.65811e-08
1.37709e-07
9.12605e-08
2.25894e-07
1.98091e-07
1.42976e-07
2.85348e-07
1.69037e-07
3.27124e-07
1.25665e-07
3.21174e-07
4.18215e-08
2.7155e-07
8.42111e-08
1.80812e-07
-2.59696e-08
9.12312e-08
3.56863e-08
4.453e-08
2.9585e-08
5.68826e-08
6.74312e-08
1.23791e-07
1.23323e-07
2.01914e-07
8.6304e-08
2.76112e-07
1.44111e-07
3.12643e-07
6.28528e-08
3.35109e-07
7.74381e-08
3.56768e-07
4.64204e-08
3.87428e-07
-2.29987e-09
4.23508e-07
2.76163e-08
4.29477e-07
-6.78073e-08
4.01147e-07
-7.95219e-08
3.38651e-07
-1.19655e-07
2.51643e-07
-1.69158e-07
1.86715e-07
-1.17047e-07
1.38352e-07
-1.50348e-07
1.57424e-07
-9.18915e-08
2.07793e-07
-6.9679e-08
2.65524e-07
-1.13312e-07
2.74147e-07
-9.13555e-08
2.41588e-07
-1.72183e-07
2.03424e-07
-1.53449e-07
1.92949e-07
-1.23432e-07
2.3416e-07
-1.76905e-07
2.54159e-07
-1.11812e-07
2.50949e-07
-2.17854e-07
1.46544e-07
-1.97755e-07
1.51931e-08
-2.30485e-07
-1.16993e-07
-2.09533e-07
-1.52588e-07
-1.26035e-07
-1.38966e-07
-9.76211e-08
-7.04741e-08
-3.81959e-08
8.21387e-09
-2.5919e-08
2.39488e-08
-1.85221e-08
6.20575e-08
2.57483e-08
6.82615e-08
2.72718e-08
1.17594e-07
5.14048e-08
1.5548e-07
5.51181e-08
1.53182e-07
4.12807e-09
1.19396e-07
3.89353e-08
7.79306e-08
-1.03244e-08
8.20698e-08
4.31697e-08
1.07466e-07
2.52076e-08
1.25733e-07
1.76498e-08
1.0549e-07
5.60464e-08
7.41789e-08
2.2734e-08
1.05994e-07
1.22641e-07
1.87993e-07
7.41402e-08
2.82744e-07
9.61869e-08
3.0587e-07
4.61406e-08
3.27065e-07
-2.14244e-08
3.1057e-07
1.17403e-08
3.63365e-07
-4.12684e-08
3.25002e-07
-5.41824e-08
2.19768e-07
-1.22803e-07
4.54281e-08
-1.55405e-07
-3.77891e-08
-8.08351e-08
-6.53493e-08
-4.35829e-08
-2.38243e-08
2.27319e-08
-6.15058e-09
8.54289e-08
1.62746e-09
1.13653e-07
1.20822e-07
2.06479e-07
2.33719e-07
1.62059e-07
2.97415e-07
1.47651e-07
2.83271e-07
1.15456e-07
3.20795e-07
8.04407e-08
3.19664e-07
1.26854e-07
3.19226e-07
2.73131e-08
2.41791e-07
1.33964e-08
2.32082e-07
1.1216e-09
3.43299e-07
2.26976e-08
3.77937e-07
6.64818e-08
3.4758e-07
-2.00846e-09
2.33449e-07
-1.1602e-08
2.19764e-07
-1.28159e-08
2.41035e-07
-2.95592e-08
1.80816e-07
3.08976e-08
1.08058e-07
1.37531e-10
1.07614e-07
6.20348e-08
1.5783e-07
1.04531e-07
2.07247e-07
8.20487e-08
2.29646e-07
1.95525e-07
2.77232e-07
1.03007e-07
2.57674e-07
1.25988e-07
2.40582e-07
7.28725e-08
2.86724e-07
1.1794e-07
3.76866e-07
1.66255e-07
3.96387e-07
8.83926e-08
4.2192e-07
1.5592e-07
5.94047e-07
1.5831e-07
6.99476e-07
1.10379e-07
5.59597e-07
-1.06179e-08
4.3513e-07
-8.61338e-08
3.94359e-07
-2.02227e-08
3.12847e-07
-8.25076e-08
1.9985e-07
-5.15838e-08
2.4116e-07
-5.97523e-09
2.90022e-07
-1.56118e-08
2.2221e-07
1.0023e-07
2.74029e-07
8.66558e-08
4.63209e-07
1.82748e-07
5.78434e-07
1.61388e-07
6.17877e-07
8.05063e-08
5.59683e-07
3.42169e-08
4.88782e-07
-3.79921e-08
5.74231e-07
-8.87048e-09
5.92085e-07
-9.18872e-08
4.21219e-07
-2.00932e-07
3.322e-07
-1.05848e-07
3.25167e-07
-1.30939e-07
3.25895e-07
-1.09654e-07
4.51019e-07
-1.93398e-08
4.05997e-07
-7.8291e-08
2.93141e-07
-5.66742e-08
4.56634e-07
-6.52117e-09
3.85849e-07
-5.41839e-08
2.026e-07
-8.61061e-08
2.83675e-07
-1.85201e-08