/*--------------------------------*- C++ -*----------------------------------*\
| =========                 |                                                 |
| \\      /  F ield         | OpenFOAM: The Open Source CFD Toolbox           |
|  \\    /   O peration     | Version:  2106                                  |
|   \\  /    A nd           | Website:  www.openfoam.com                      |
|    \\/     M anipulation  |                                                 |
\*---------------------------------------------------------------------------*/
FoamFile
{
    version     2.0;
    format      ascii;
    arch        "LSB;label=32;scalar=64";
    class       surfaceScalarField;
    location    "0.004";
    object      phiB;
}
// * * * * * * * * * * * * * * * * * * * * * * * * * * * * * * * * * * * * * //

dimensions      [1 2 -2 0 0 -1 0];

oriented        oriented;

internalField   nonuniform List<scalar> 
319200
(
1.76385e-06
2.03016e-06
8.55578e-07
-4.50783e-07
2.83655e-06
3.90732e-07
1.93543e-06
-3.62525e-07
1.11962e-06
-1.21014e-06
7.22106e-08
-1.18657e-06
-6.42568e-07
-6.82256e-07
-8.84142e-07
-1.84948e-07
-8.05901e-07
1.1284e-07
-6.02957e-07
2.24531e-07
-3.9256e-07
2.27426e-07
-2.28956e-07
1.86178e-07
-1.17419e-07
1.39301e-07
-4.76933e-08
1.01159e-07
-1.1918e-08
7.49633e-08
1.13471e-08
6.0051e-08
1.79904e-08
5.07954e-08
2.47863e-08
4.82355e-08
3.04341e-08
4.74725e-08
3.05825e-08
4.82247e-08
3.99232e-08
5.17934e-08
4.76429e-08
5.32755e-08
5.54372e-08
5.63098e-08
7.29683e-08
6.01658e-08
8.70978e-08
6.09632e-08
1.01106e-07
6.31719e-08
1.23724e-07
6.55305e-08
1.4151e-07
6.42483e-08
1.55453e-07
6.38068e-08
1.7673e-07
6.41819e-08
1.93889e-07
6.08404e-08
2.02637e-07
5.73359e-08
2.15298e-07
5.63317e-08
2.28096e-07
5.28681e-08
2.31039e-07
4.75354e-08
2.32675e-07
4.56491e-08
2.39362e-07
4.46312e-08
2.41343e-07
4.05221e-08
2.3649e-07
3.75951e-08
2.35808e-07
3.86969e-08
2.40057e-07
3.8856e-08
2.39081e-07
3.61127e-08
2.34044e-07
3.54813e-08
2.34869e-07
3.81239e-08
2.40249e-07
3.8754e-08
2.40671e-07
3.60706e-08
2.36649e-07
3.50416e-08
2.37078e-07
3.72185e-08
2.42359e-07
3.79422e-08
2.44182e-07
3.50189e-08
2.40528e-07
3.2695e-08
2.38815e-07
3.42576e-08
2.43278e-07
3.65855e-08
2.48919e-07
3.56215e-08
2.50431e-07
3.30398e-08
2.50393e-07
3.33114e-08
2.55094e-07
3.65669e-08
2.64928e-07
3.85721e-08
2.74073e-07
3.69622e-08
2.78799e-07
3.42903e-08
2.81608e-07
3.40926e-08
2.87319e-07
3.59928e-08
2.96025e-07
3.64045e-08
3.02553e-07
3.33276e-08
3.03812e-07
2.87487e-08
3.01614e-07
2.61396e-08
2.99398e-07
2.63186e-08
2.99189e-07
2.67865e-08
2.99288e-07
2.50667e-08
2.96689e-07
2.13858e-08
2.91327e-07
1.83162e-08
2.85468e-07
1.8176e-08
2.82015e-07
2.06186e-08
2.82476e-07
2.31562e-08
2.84903e-07
2.37472e-08
2.86908e-07
2.24314e-08
2.88515e-07
2.09862e-08
2.90525e-07
2.12028e-08
2.93933e-07
2.32359e-08
2.9932e-07
2.5616e-08
3.05654e-07
2.64973e-08
3.11986e-07
2.49569e-08
3.17382e-07
2.17852e-08
3.20012e-07
1.87105e-08
3.20235e-07
1.67895e-08
3.20203e-07
1.60683e-08
3.20095e-07
1.59379e-08
3.19426e-07
1.53912e-08
3.18109e-07
1.38115e-08
3.14744e-07
1.13901e-08
3.0909e-07
8.68535e-09
3.03577e-07
6.50088e-09
2.99339e-07
5.71197e-09
2.95967e-07
6.47619e-09
2.94454e-07
8.1584e-09
2.95063e-07
1.00908e-08
2.96171e-07
1.1736e-08
2.97956e-07
1.2532e-08
3.01526e-07
1.23052e-08
3.05498e-07
1.13729e-08
3.08488e-07
9.96936e-09
3.11037e-07
8.24248e-09
3.12766e-07
6.55633e-09
3.12629e-07
5.09697e-09
3.11423e-07
3.71274e-09
3.10069e-07
2.35032e-09
3.07918e-07
1.07851e-09
3.04582e-07
-1.01452e-10
3.005e-07
-1.12554e-09
2.95965e-07
-1.88654e-09
2.91741e-07
-2.42783e-09
2.88867e-07
-2.79573e-09
2.86823e-07
-2.90628e-09
2.84555e-07
-2.80784e-09
2.82949e-07
-2.72489e-09
2.83114e-07
-2.71359e-09
2.83934e-07
-2.69225e-09
2.84188e-07
-2.82021e-09
2.84467e-07
-3.35296e-09
2.84994e-07
-4.24525e-09
2.84533e-07
-5.35249e-09
2.82721e-07
-6.68095e-09
2.80632e-07
-8.13129e-09
2.78617e-07
-9.43337e-09
2.76017e-07
-1.04859e-08
2.72764e-07
-1.14259e-08
2.69377e-07
-1.2313e-08
2.65857e-07
-1.30086e-08
2.62175e-07
-1.34076e-08
2.59073e-07
-1.35861e-08
2.57053e-07
-1.36944e-08
2.55551e-07
-1.38681e-08
2.53967e-07
-1.42491e-08
2.52374e-07
-1.48998e-08
2.50714e-07
-1.57121e-08
2.48508e-07
-1.65701e-08
2.45723e-07
-1.74873e-08
2.42882e-07
-1.84625e-08
2.40131e-07
-1.93778e-08
2.37078e-07
-2.01403e-08
2.3358e-07
-2.0794e-08
2.30028e-07
-2.1415e-08
2.26781e-07
-2.19799e-08
2.23884e-07
-2.2404e-08
2.21373e-07
-2.26661e-08
2.19344e-07
-2.28659e-08
2.17635e-07
-2.31773e-08
2.15825e-07
-2.37585e-08
2.13571e-07
-2.46479e-08
2.10756e-07
-2.57169e-08
2.0741e-07
-2.67554e-08
2.03723e-07
-2.76233e-08
1.99977e-07
-2.83173e-08
1.96337e-07
-2.89211e-08
1.92734e-07
-2.9516e-08
1.89055e-07
-3.01193e-08
1.85318e-07
-3.06822e-08
1.81609e-07
-3.11451e-08
1.78007e-07
-3.15004e-08
1.74675e-07
-3.18028e-08
1.71824e-07
-3.21083e-08
1.69413e-07
-3.24338e-08
1.6709e-07
-3.28075e-08
1.64538e-07
-3.33049e-08
1.61697e-07
-3.39738e-08
1.58555e-07
-3.4761e-08
1.54977e-07
-3.55623e-08
1.50977e-07
-3.62887e-08
1.46987e-07
-3.68709e-08
1.43501e-07
-3.72784e-08
1.40437e-07
-3.75553e-08
1.37156e-07
-3.78224e-08
1.33313e-07
-3.82233e-08
1.29349e-07
-3.88102e-08
1.25813e-07
-3.94492e-08
1.22559e-07
-3.99167e-08
1.19063e-07
-4.01365e-08
1.15292e-07
-4.02385e-08
1.11737e-07
-4.03684e-08
1.08662e-07
-4.05649e-08
1.05725e-07
-4.08361e-08
1.02454e-07
-4.12127e-08
9.88604e-08
-4.16871e-08
9.53261e-08
-4.21794e-08
9.19477e-08
-4.25744e-08
8.83113e-08
-4.2791e-08
8.41653e-08
-4.28572e-08
8.00545e-08
-4.28963e-08
7.68166e-08
-4.29889e-08
7.4468e-08
-4.31037e-08
7.20343e-08
-4.32174e-08
6.86157e-08
-4.34111e-08
6.431e-08
-4.37608e-08
5.99131e-08
-4.4189e-08
5.59474e-08
-4.45006e-08
5.22692e-08
-4.45473e-08
4.85858e-08
-4.43377e-08
4.50519e-08
-4.40089e-08
4.209e-08
-4.37043e-08
3.9668e-08
-4.34868e-08
3.70965e-08
-4.3377e-08
3.37453e-08
-4.34231e-08
2.97665e-08
-4.36519e-08
2.58492e-08
-4.39654e-08
2.2348e-08
-4.41679e-08
1.8928e-08
-4.41199e-08
1.51159e-08
-4.38367e-08
1.10168e-08
-4.34442e-08
7.3169e-09
-4.30704e-08
4.53136e-09
-4.27667e-08
2.34829e-09
-4.25118e-08
-1.35556e-10
-4.22897e-08
-3.52007e-09
-4.21341e-08
-7.59175e-09
-4.20581e-08
-1.17158e-08
-4.19797e-08
-1.54739e-08
-4.17768e-08
-1.88109e-08
-4.1397e-08
-2.18359e-08
-4.08806e-08
-2.47042e-08
-4.03133e-08
-2.75687e-08
-3.9798e-08
-3.04924e-08
-3.9423e-08
-3.34584e-08
-3.91983e-08
-3.64876e-08
-3.90317e-08
-3.96662e-08
-3.87966e-08
-4.30654e-08
-3.84255e-08
-4.66309e-08
-3.79363e-08
-5.01031e-08
-3.73964e-08
-5.31825e-08
-3.68744e-08
-5.59338e-08
-3.64028e-08
-5.8863e-08
-3.59729e-08
-6.23639e-08
-3.55622e-08
-6.62208e-08
-3.51432e-08
-6.98538e-08
-3.46558e-08
-7.29054e-08
-3.40158e-08
-7.54437e-08
-3.31996e-08
-7.77137e-08
-3.23043e-08
-7.9869e-08
-3.14795e-08
-8.19854e-08
-3.08199e-08
-8.41781e-08
-3.03357e-08
-8.65768e-08
-2.99787e-08
-8.92506e-08
-2.96692e-08
-9.22055e-08
-2.93169e-08
-9.54093e-08
-2.88706e-08
-9.87527e-08
-2.83532e-08
-1.02071e-07
-2.78193e-08
-1.05305e-07
-2.72898e-08
-1.08541e-07
-2.67345e-08
-1.11833e-07
-2.60964e-08
-1.15054e-07
-2.53185e-08
-1.17943e-07
-2.43698e-08
-1.20279e-07
-2.32869e-08
-1.22028e-07
-2.21852e-08
-1.23395e-07
-2.12088e-08
-1.2477e-07
-2.04651e-08
-1.26507e-07
-1.99831e-08
-1.28689e-07
-1.96995e-08
-1.31186e-07
-1.94752e-08
-1.33907e-07
-1.91605e-08
-1.36811e-07
-1.86808e-08
-1.39751e-07
-1.80552e-08
-1.42575e-07
-1.73337e-08
-1.45302e-07
-1.65492e-08
-1.47955e-07
-1.57286e-08
-1.50301e-07
-1.48907e-08
-1.52035e-07
-1.4017e-08
-1.53227e-07
-1.30896e-08
-1.54252e-07
-1.21798e-08
-1.5532e-07
-1.14232e-08
-1.5657e-07
-1.08983e-08
-1.5839e-07
-1.0581e-08
-1.60997e-07
-1.04025e-08
-1.63969e-07
-1.02698e-08
-1.66824e-07
-1.00376e-08
-1.69638e-07
-9.59303e-09
-1.72518e-07
-8.95176e-09
-1.75189e-07
-8.1707e-09
-1.77505e-07
-7.23204e-09
-1.79482e-07
-6.11263e-09
-1.80674e-07
-4.88991e-09
-1.80495e-07
-3.66117e-09
-1.79339e-07
-2.48457e-09
-1.78217e-07
-1.49565e-09
-1.77355e-07
-8.69371e-10
-1.76652e-07
-6.03937e-10
-1.76864e-07
-5.44587e-10
-1.7855e-07
-6.23847e-10
-1.80934e-07
-8.46442e-10
-1.83377e-07
-1.0915e-09
-1.86418e-07
-1.21643e-09
-1.90264e-07
-1.22475e-09
-1.94176e-07
-1.12228e-09
-1.97709e-07
-8.26826e-10
-2.00799e-07
-3.16729e-10
-2.03131e-07
3.59317e-10
-2.04658e-07
1.22637e-09
-2.0559e-07
2.33016e-09
-2.05396e-07
3.67163e-09
-2.03578e-07
5.32069e-09
-2.00842e-07
7.27558e-09
-1.97651e-07
9.21448e-09
-1.93751e-07
1.06897e-08
-1.90085e-07
1.13667e-08
-1.87902e-07
1.09395e-08
-1.86885e-07
9.29662e-09
-1.87027e-07
6.87988e-09
-1.89411e-07
4.45462e-09
-1.93706e-07
2.71206e-09
-1.98569e-07
2.24668e-09
-2.03597e-07
3.26732e-09
-2.08035e-07
5.20664e-09
-2.10586e-07
7.09245e-09
-2.11673e-07
8.19225e-09
-2.12507e-07
8.26693e-09
-2.13173e-07
7.80958e-09
-2.13782e-07
7.95831e-09
-2.1411e-07
9.57303e-09
-2.12322e-07
1.2522e-08
-2.07595e-07
1.57741e-08
-2.01271e-07
1.78189e-08
-1.94636e-07
1.7637e-08
-1.89073e-07
1.57188e-08
-1.85851e-07
1.37203e-08
-1.84255e-07
1.308e-08
-1.82834e-07
1.39096e-08
-1.8103e-07
1.48104e-08
-1.79308e-07
1.40599e-08
-1.79679e-07
1.13821e-08
-1.83683e-07
8.34199e-09
-1.89781e-07
6.99468e-09
-1.95188e-07
8.04536e-09
-1.98284e-07
1.01089e-08
-1.99297e-07
1.11846e-08
-2.00365e-07
1.09033e-08
-2.02557e-07
1.08538e-08
-2.03858e-07
1.27337e-08
-2.01907e-07
1.62915e-08
-1.96336e-07
1.93617e-08
-1.89522e-07
2.03999e-08
-1.84422e-07
2.02945e-08
-1.8031e-07
2.09496e-08
-1.74412e-07
2.2693e-08
-1.66687e-07
2.38152e-08
-1.59813e-07
2.29254e-08
-1.5598e-07
2.09892e-08
-1.5415e-07
1.99788e-08
-1.51642e-07
2.00812e-08
-1.48497e-07
1.97446e-08
-1.47092e-07
1.83543e-08
-1.47941e-07
1.72974e-08
-1.48606e-07
1.77111e-08
-1.47579e-07
1.87064e-08
-1.465e-07
1.90513e-08
-1.46729e-07
1.91959e-08
-1.47082e-07
2.00811e-08
-1.46371e-07
2.12793e-08
-1.45734e-07
2.18986e-08
-1.46269e-07
2.21378e-08
-1.4715e-07
2.26204e-08
-1.48005e-07
2.32241e-08
-1.49155e-07
2.37385e-08
-1.50176e-07
2.44678e-08
-1.50598e-07
2.54865e-08
-1.50574e-07
2.68135e-08
-1.48961e-07
2.88368e-08
-1.44334e-07
3.13579e-08
-1.38273e-07
3.38438e-08
-1.30687e-07
3.68332e-08
-1.1896e-07
4.0543e-08
-1.04682e-07
4.36906e-08
-9.04467e-08
4.64065e-08
-7.33435e-08
4.97167e-08
-5.38295e-08
5.22134e-08
-3.69469e-08
5.33628e-08
-1.9539e-08
5.48829e-08
-1.01535e-09
5.56593e-08
1.25491e-08
5.47324e-08
2.4386e-08
5.42738e-08
3.63006e-08
5.30795e-08
4.12234e-08
5.04185e-08
4.40617e-08
4.82568e-08
4.47541e-08
4.49458e-08
3.64931e-08
3.98444e-08
2.55784e-08
3.41461e-08
3.04737e-09
2.44741e-08
-3.5573e-08
1.05734e-08
-9.4926e-08
-9.81593e-09
-1.95157e-07
-3.97478e-08
-3.48085e-07
-7.85267e-08
-5.79053e-07
-1.24968e-07
-8.94994e-07
-1.67367e-07
-1.26973e-06
-1.83895e-07
-1.58976e-06
-1.39021e-07
-1.60243e-06
1.20089e-09
-9.48364e-07
2.25134e-07
5.25846e-07
3.97134e-07
1.96843e-06
2.12456e-07
1.06918e-06
-5.64541e-07
-3.89454e-07
-1.4155e-06
4.42367e-07
-8.23883e-07
-2.04381e-06
-7.30257e-07
2.69634e-07
1.69196e-06
7.48092e-07
2.08381e-06
2.15898e-07
1.08791e-06
-3.35129e-07
1.14311e-06
-6.51445e-07
5.76761e-07
-6.11262e-07
-1.44436e-07
-3.64277e-07
-5.85716e-07
-1.01265e-07
-6.94139e-07
7.78119e-08
-5.99937e-07
1.61013e-07
-4.33735e-07
1.77478e-07
-2.75644e-07
1.6044e-07
-1.55437e-07
1.33812e-07
-7.39004e-08
1.0921e-07
-2.68812e-08
9.06084e-08
2.29794e-09
7.91542e-08
1.57115e-08
7.18677e-08
2.35613e-08
6.9206e-08
3.05307e-08
6.86272e-08
3.3848e-08
6.91219e-08
4.13616e-08
7.15995e-08
5.08408e-08
7.34065e-08
5.93646e-08
7.53794e-08
7.38358e-08
7.83343e-08
8.93587e-08
7.94826e-08
1.03359e-07
8.04362e-08
1.22281e-07
8.18931e-08
1.41228e-07
8.12314e-08
1.56182e-07
7.98666e-08
1.73322e-07
7.92264e-08
1.9043e-07
7.68507e-08
2.01844e-07
7.31492e-08
2.11957e-07
7.07482e-08
2.23014e-07
6.80786e-08
2.29423e-07
6.3736e-08
2.31624e-07
6.04178e-08
2.35218e-07
5.87837e-08
2.38571e-07
5.62144e-08
2.37586e-07
5.31573e-08
2.357e-07
5.21843e-08
2.37013e-07
5.22632e-08
2.38349e-07
5.09508e-08
2.36668e-07
4.94039e-08
2.3539e-07
4.97094e-08
2.37456e-07
5.04009e-08
2.39643e-07
4.92568e-08
2.38877e-07
4.74632e-08
2.3774e-07
4.71679e-08
2.39272e-07
4.75448e-08
2.41659e-07
4.6476e-08
2.41851e-07
4.43616e-08
2.40927e-07
4.34434e-08
2.42281e-07
4.41301e-08
2.46362e-07
4.44845e-08
2.50527e-07
4.34292e-08
2.53452e-07
4.23811e-08
2.57051e-07
4.28613e-08
2.63331e-07
4.41027e-08
2.71308e-07
4.4203e-08
2.78505e-07
4.2749e-08
2.83757e-07
4.11238e-08
2.88138e-07
4.04321e-08
2.93118e-07
4.01539e-08
2.98179e-07
3.88841e-08
3.01338e-07
3.60815e-08
3.01498e-07
3.28539e-08
2.9965e-07
3.06035e-08
2.97533e-07
2.94889e-08
2.95884e-07
2.84785e-08
2.93952e-07
2.6754e-08
2.90972e-07
2.46413e-08
2.87367e-07
2.31364e-08
2.84335e-07
2.29117e-08
2.83113e-07
2.37571e-08
2.8407e-07
2.47674e-08
2.8643e-07
2.50871e-08
2.89223e-07
2.46116e-08
2.92107e-07
2.39693e-08
2.95442e-07
2.3781e-08
2.9971e-07
2.4049e-08
3.0467e-07
2.42459e-08
3.09573e-07
2.37584e-08
3.13971e-07
2.23199e-08
3.17377e-07
2.01627e-08
3.19127e-07
1.77347e-08
3.19258e-07
1.5473e-08
3.18257e-07
1.36687e-08
3.16371e-07
1.22071e-08
3.13941e-07
1.07944e-08
3.11161e-07
9.36322e-09
3.07825e-07
7.94054e-09
3.04162e-07
6.60073e-09
3.00751e-07
5.592e-09
2.97897e-07
5.11482e-09
2.95964e-07
5.15643e-09
2.95384e-07
5.58951e-09
2.96125e-07
6.19611e-09
2.97816e-07
6.66724e-09
3.0021e-07
6.76006e-09
3.03106e-07
6.40124e-09
3.06021e-07
5.5717e-09
3.08499e-07
4.28764e-09
3.10359e-07
2.72213e-09
3.11313e-07
1.05626e-09
3.1107e-07
-7.08696e-10
3.09693e-07
-2.55015e-09
3.07337e-07
-4.30472e-09
3.04159e-07
-5.84938e-09
3.00508e-07
-7.12959e-09
2.96656e-07
-8.10911e-09
2.92758e-07
-8.81318e-09
2.89248e-07
-9.27985e-09
2.8657e-07
-9.51168e-09
2.84663e-07
-9.56943e-09
2.83284e-07
-9.61762e-09
2.82583e-07
-9.77262e-09
2.82771e-07
-1.00074e-08
2.83398e-07
-1.034e-08
2.83776e-07
-1.09441e-08
2.83726e-07
-1.19174e-08
2.83215e-07
-1.31427e-08
2.82016e-07
-1.44659e-08
2.80085e-07
-1.57925e-08
2.77604e-07
-1.70441e-08
2.74677e-07
-1.82085e-08
2.71438e-07
-1.93134e-08
2.68171e-07
-2.02883e-08
2.65097e-07
-2.10126e-08
2.62274e-07
-2.14791e-08
2.59721e-07
-2.18136e-08
2.57515e-07
-2.21532e-08
2.55695e-07
-2.25538e-08
2.54043e-07
-2.30333e-08
2.52213e-07
-2.36423e-08
2.50088e-07
-2.4426e-08
2.47704e-07
-2.53521e-08
2.45059e-07
-2.63335e-08
2.42203e-07
-2.72829e-08
2.39251e-07
-2.81355e-08
2.36196e-07
-2.88909e-08
2.32948e-07
-2.96083e-08
2.29579e-07
-3.03114e-08
2.26368e-07
-3.09356e-08
2.23571e-07
-3.13999e-08
2.21217e-07
-3.17157e-08
2.19129e-07
-3.20127e-08
2.17097e-07
-3.24571e-08
2.14937e-07
-3.31349e-08
2.12486e-07
-3.40027e-08
2.09648e-07
-3.4934e-08
2.06422e-07
-3.58147e-08
2.0288e-07
-3.66127e-08
1.99166e-07
-3.736e-08
1.95457e-07
-3.80778e-08
1.91852e-07
-3.87446e-08
1.88325e-07
-3.93282e-08
1.84812e-07
-3.98232e-08
1.81312e-07
-4.02538e-08
1.77909e-07
-4.06486e-08
1.74705e-07
-4.102e-08
1.71774e-07
-4.13769e-08
1.69125e-07
-4.17376e-08
1.66621e-07
-4.21299e-08
1.63952e-07
-4.2609e-08
1.60906e-07
-4.32384e-08
1.57571e-07
-4.40024e-08
1.54108e-07
-4.47734e-08
1.50548e-07
-4.54204e-08
1.46904e-07
-4.59132e-08
1.43287e-07
-4.62997e-08
1.398e-07
-4.66531e-08
1.36444e-07
-4.7044e-08
1.33083e-07
-4.74979e-08
1.29505e-07
-4.7984e-08
1.25678e-07
-4.84556e-08
1.21872e-07
-4.88598e-08
1.1831e-07
-4.91405e-08
1.14914e-07
-4.93112e-08
1.1159e-07
-4.9478e-08
1.08425e-07
-4.9721e-08
1.05393e-07
-5.00209e-08
1.02219e-07
-5.03445e-08
9.86984e-08
-5.07063e-08
9.49057e-08
-5.11026e-08
9.10602e-08
-5.14679e-08
8.73833e-08
-5.17297e-08
8.39694e-08
-5.18619e-08
8.06846e-08
-5.19002e-08
7.73532e-08
-5.19334e-08
7.40177e-08
-5.20435e-08
7.07835e-08
-5.22411e-08
6.75065e-08
-5.24894e-08
6.39223e-08
-5.27644e-08
6.00019e-08
-5.3037e-08
5.59765e-08
-5.32304e-08
5.21041e-08
-5.32603e-08
4.85138e-08
-5.3113e-08
4.51866e-08
-5.28592e-08
4.20542e-08
-5.26094e-08
3.91204e-08
-5.24566e-08
3.63647e-08
-5.24246e-08
3.35259e-08
-5.24735e-08
3.022e-08
-5.25648e-08
2.63566e-08
-5.26828e-08
2.22563e-08
-5.27806e-08
1.83219e-08
-5.27669e-08
1.47347e-08
-5.25846e-08
1.14384e-08
-5.22662e-08
8.26752e-09
-5.18993e-08
5.10101e-09
-5.15699e-08
1.95262e-09
-5.13282e-08
-1.14453e-09
-5.11661e-08
-4.30421e-09
-5.10313e-08
-7.67866e-09
-5.08806e-08
-1.12197e-08
-5.06955e-08
-1.47215e-08
-5.04417e-08
-1.80634e-08
-5.00708e-08
-2.12461e-08
-4.95913e-08
-2.42595e-08
-4.90887e-08
-2.7119e-08
-4.86474e-08
-2.99884e-08
-4.82894e-08
-3.30749e-08
-4.79988e-08
-3.64012e-08
-4.77477e-08
-3.98045e-08
-4.74773e-08
-4.31458e-08
-4.71158e-08
-4.64053e-08
-4.66463e-08
-4.95962e-08
-4.61275e-08
-5.27163e-08
-4.56312e-08
-5.57982e-08
-4.51837e-08
-5.8907e-08
-4.47665e-08
-6.20811e-08
-4.43394e-08
-6.5323e-08
-4.38569e-08
-6.85839e-08
-4.32843e-08
-7.17012e-08
-4.26131e-08
-7.44821e-08
-4.18652e-08
-7.69054e-08
-4.10881e-08
-7.91397e-08
-4.03481e-08
-8.13671e-08
-3.97118e-08
-8.36855e-08
-3.92034e-08
-8.61715e-08
-3.87879e-08
-8.88998e-08
-3.84001e-08
-9.18571e-08
-3.79862e-08
-9.49477e-08
-3.75223e-08
-9.8096e-08
-3.70102e-08
-1.01286e-07
-3.64688e-08
-1.04518e-07
-3.59116e-08
-1.07767e-07
-3.53203e-08
-1.10971e-07
-3.46477e-08
-1.14022e-07
-3.38509e-08
-1.16752e-07
-3.29245e-08
-1.19032e-07
-3.19144e-08
-1.20881e-07
-3.09102e-08
-1.2247e-07
-3.0016e-08
-1.24049e-07
-2.93037e-08
-1.25863e-07
-2.87763e-08
-1.28049e-07
-2.83724e-08
-1.30564e-07
-2.80008e-08
-1.33266e-07
-2.75746e-08
-1.36049e-07
-2.70409e-08
-1.38866e-07
-2.63976e-08
-1.4163e-07
-2.5678e-08
-1.44209e-07
-2.49068e-08
-1.46542e-07
-2.40859e-08
-1.48653e-07
-2.32172e-08
-1.50511e-07
-2.23139e-08
-1.52045e-07
-2.13993e-08
-1.53344e-07
-2.05179e-08
-1.54649e-07
-1.97461e-08
-1.5617e-07
-1.91506e-08
-1.58049e-07
-1.87268e-08
-1.60413e-07
-1.84007e-08
-1.63255e-07
-1.80766e-08
-1.66332e-07
-1.76741e-08
-1.69341e-07
-1.71437e-08
-1.72105e-07
-1.64699e-08
-1.74551e-07
-1.56488e-08
-1.76557e-07
-1.46565e-08
-1.7799e-07
-1.34926e-08
-1.78802e-07
-1.22359e-08
-1.78969e-07
-1.09961e-08
-1.78574e-07
-9.85304e-09
-1.77958e-07
-8.89622e-09
-1.77483e-07
-8.24471e-09
-1.77285e-07
-7.92825e-09
-1.77526e-07
-7.83274e-09
-1.78571e-07
-7.84834e-09
-1.80589e-07
-7.94206e-09
-1.83374e-07
-8.04274e-09
-1.86737e-07
-8.0092e-09
-1.90578e-07
-7.74967e-09
-1.94554e-07
-7.2466e-09
-1.98129e-07
-6.47336e-09
-2.00956e-07
-5.42526e-09
-2.02867e-07
-4.17481e-09
-2.03703e-07
-2.81669e-09
-2.03497e-07
-1.44657e-09
-2.0243e-07
-1.59949e-10
-2.006e-07
1.02309e-09
-1.98256e-07
2.1384e-09
-1.95773e-07
3.13178e-09
-1.93282e-07
3.89468e-09
-1.90956e-07
4.40942e-09
-1.89317e-07
4.64965e-09
-1.88704e-07
4.4937e-09
-1.89073e-07
3.90854e-09
-1.90537e-07
3.03153e-09
-1.93276e-07
2.06728e-09
-1.97027e-07
1.3234e-09
-2.01314e-07
1.18637e-09
-2.05704e-07
1.82609e-09
-2.09529e-07
3.10345e-09
-2.12118e-07
4.74323e-09
-2.1334e-07
6.38227e-09
-2.13305e-07
7.7169e-09
-2.12227e-07
8.78721e-09
-2.10546e-07
9.89868e-09
-2.08259e-07
1.13137e-08
-2.04939e-07
1.30861e-08
-2.00591e-07
1.49094e-08
-1.95663e-07
1.61639e-08
-1.90797e-07
1.64189e-08
-1.86833e-07
1.58094e-08
-1.84282e-07
1.49093e-08
-1.82996e-07
1.43487e-08
-1.82512e-07
1.4296e-08
-1.82475e-07
1.42713e-08
-1.83108e-07
1.36946e-08
-1.85127e-07
1.25416e-08
-1.88672e-07
1.14736e-08
-1.92919e-07
1.13686e-08
-1.96693e-07
1.24895e-08
-1.99008e-07
1.41891e-08
-1.99875e-07
1.56536e-08
-2.00169e-07
1.67633e-08
-2.0014e-07
1.81675e-08
-1.98897e-07
2.04528e-08
-1.95447e-07
2.32173e-08
-1.90026e-07
2.5427e-08
-1.8414e-07
2.65976e-08
-1.78822e-07
2.72531e-08
-1.7367e-07
2.81429e-08
-1.6796e-07
2.91508e-08
-1.62027e-07
2.94452e-08
-1.57238e-07
2.87595e-08
-1.54324e-07
2.78845e-08
-1.52309e-07
2.75862e-08
-1.50124e-07
2.76388e-08
-1.48274e-07
2.7427e-08
-1.47657e-07
2.71118e-08
-1.47757e-07
2.74079e-08
-1.47376e-07
2.84002e-08
-1.46509e-07
2.94559e-08
-1.46013e-07
3.03062e-08
-1.45987e-07
3.13211e-08
-1.45835e-07
3.26075e-08
-1.45596e-07
3.37673e-08
-1.45916e-07
3.4629e-08
-1.46752e-07
3.5453e-08
-1.47672e-07
3.63607e-08
-1.48679e-07
3.72968e-08
-1.49519e-07
3.84131e-08
-1.49521e-07
3.97937e-08
-1.48617e-07
4.14123e-08
-1.46554e-07
4.3514e-08
-1.42095e-07
4.61681e-08
-1.35284e-07
4.89776e-08
-1.26925e-07
5.19917e-08
-1.15917e-07
5.55486e-08
-1.01913e-07
5.9046e-08
-8.70053e-08
6.20717e-08
-7.08951e-08
6.52252e-08
-5.2555e-08
6.81029e-08
-3.50582e-08
6.99548e-08
-1.87447e-08
7.15741e-08
-1.85763e-09
7.28517e-08
1.22905e-08
7.28948e-08
2.34011e-08
7.27114e-08
3.36273e-08
7.21539e-08
3.91624e-08
7.05999e-08
4.09168e-08
6.89034e-08
3.97429e-08
6.66396e-08
3.09102e-08
6.30103e-08
1.56523e-08
5.8521e-08
-1.09626e-08
5.13906e-08
-5.58957e-08
4.07055e-08
-1.24914e-07
2.49444e-08
-2.339e-07
1.66614e-09
-3.94453e-07
-2.89849e-08
-6.21358e-07
-6.52899e-08
-9.11379e-07
-9.74561e-08
-1.22486e-06
-1.0514e-07
-1.44956e-06
-5.33027e-08
-1.37842e-06
9.95988e-08
-7.76122e-07
3.68397e-07
3.41192e-07
6.68818e-07
1.19151e-06
7.3802e-07
2.18479e-07
2.9847e-07
2.00217e-07
3.48783e-07
-7.89689e-07
8.08757e-07
4.80122e-07
-2.48643e-07
-5.96478e-07
1.15991e-06
2.012e-07
1.53274e-06
7.5417e-08
7.71519e-07
-2.03339e-07
1.18326e-06
-3.48051e-07
8.23556e-07
-3.16024e-07
1.18297e-07
-1.81151e-07
-4.06628e-07
-3.25749e-08
-6.10824e-07
7.71973e-08
-5.83419e-07
1.35521e-07
-4.50657e-07
1.53636e-07
-3.02241e-07
1.48244e-07
-1.80041e-07
1.33487e-07
-9.25234e-08
1.17995e-07
-3.8395e-08
1.05183e-07
-4.9159e-09
9.68481e-08
1.31265e-08
9.1543e-08
2.29619e-08
8.92459e-08
3.09255e-08
8.89486e-08
3.63494e-08
8.93464e-08
4.32031e-08
9.1087e-08
5.28131e-08
9.28971e-08
6.22947e-08
9.43398e-08
7.49354e-08
9.64042e-08
9.04602e-08
9.75507e-08
1.05054e-07
9.79105e-08
1.2156e-07
9.84794e-08
1.39736e-07
9.7906e-08
1.55549e-07
9.61743e-08
1.70938e-07
9.45629e-08
1.8676e-07
9.23266e-08
1.99416e-07
8.88494e-08
2.09138e-07
8.5563e-08
2.18598e-07
8.26694e-08
2.26164e-07
7.90045e-08
2.29947e-07
7.52966e-08
2.32555e-07
7.27741e-08
2.35506e-07
7.05692e-08
2.36629e-07
6.79254e-08
2.35788e-07
6.59452e-08
2.35692e-07
6.51506e-08
2.36766e-07
6.43089e-08
2.36909e-07
6.28447e-08
2.36066e-07
6.18188e-08
2.3634e-07
6.15734e-08
2.37839e-07
6.09159e-08
2.38545e-07
5.9339e-08
2.3809e-07
5.78741e-08
2.38197e-07
5.71356e-08
2.3957e-07
5.63369e-08
2.40989e-07
5.48388e-08
2.41643e-07
5.32851e-08
2.42605e-07
5.25693e-08
2.45286e-07
5.24793e-08
2.49488e-07
5.20975e-08
2.53926e-07
5.11972e-08
2.58278e-07
5.05047e-08
2.63466e-07
5.04522e-08
2.69924e-07
5.04554e-08
2.76805e-07
4.96736e-08
2.82938e-07
4.81234e-08
2.87743e-07
4.64466e-08
2.91745e-07
4.49733e-08
2.95382e-07
4.34317e-08
2.98114e-07
4.1366e-08
2.9925e-07
3.86651e-08
2.98541e-07
3.58394e-08
2.96572e-07
3.3515e-08
2.94221e-07
3.18174e-08
2.91808e-07
3.03818e-08
2.89465e-07
2.88503e-08
2.87194e-07
2.73864e-08
2.85123e-07
2.6398e-08
2.83961e-07
2.60206e-08
2.84225e-07
2.61052e-08
2.85862e-07
2.63091e-08
2.8859e-07
2.62631e-08
2.91984e-07
2.58323e-08
2.95756e-07
2.51342e-08
2.99847e-07
2.43666e-08
3.04086e-07
2.362e-08
3.08176e-07
2.27317e-08
3.11932e-07
2.14149e-08
3.1509e-07
1.96046e-08
3.17074e-07
1.7452e-08
3.17627e-07
1.51009e-08
3.16989e-07
1.27382e-08
3.15247e-07
1.05632e-08
3.12609e-07
8.655e-09
3.09555e-07
7.05142e-09
3.06286e-07
5.72231e-09
3.03077e-07
4.57883e-09
3.00324e-07
3.66108e-09
2.98082e-07
3.03269e-09
2.96544e-07
2.62785e-09
2.96069e-07
2.39355e-09
2.96641e-07
2.30412e-09
2.98035e-07
2.21694e-09
3.00052e-07
1.93005e-09
3.02464e-07
1.33627e-09
3.04929e-07
4.30061e-10
3.07014e-07
-7.83226e-10
3.08503e-07
-2.2937e-09
3.09289e-07
-4.03538e-09
3.09128e-07
-5.91767e-09
3.0791e-07
-7.83419e-09
3.05737e-07
-9.66319e-09
3.02771e-07
-1.13466e-08
2.99337e-07
-1.28427e-08
2.95766e-07
-1.40505e-08
2.92249e-07
-1.49278e-08
2.89069e-07
-1.5548e-08
2.86492e-07
-1.59957e-08
2.8457e-07
-1.633e-08
2.83272e-07
-1.66184e-08
2.82606e-07
-1.69287e-08
2.82556e-07
-1.73176e-08
2.82828e-07
-1.78591e-08
2.82894e-07
-1.8655e-08
2.8254e-07
-1.9743e-08
2.81852e-07
-2.1006e-08
2.80694e-07
-2.23e-08
2.78882e-07
-2.36124e-08
2.76511e-07
-2.49538e-08
2.73728e-07
-2.62434e-08
2.70671e-07
-2.73881e-08
2.67598e-07
-2.83385e-08
2.64674e-07
-2.90888e-08
2.61902e-07
-2.96969e-08
2.59344e-07
-3.02422e-08
2.57096e-07
-3.07529e-08
2.55166e-07
-3.12396e-08
2.53399e-07
-3.17701e-08
2.51492e-07
-3.2446e-08
2.49249e-07
-3.33098e-08
2.46745e-07
-3.42897e-08
2.44117e-07
-3.52613e-08
2.41397e-07
-3.61623e-08
2.3856e-07
-3.70083e-08
2.35532e-07
-3.78312e-08
2.32294e-07
-3.86349e-08
2.29023e-07
-3.93762e-08
2.25988e-07
-3.99844e-08
2.23317e-07
-4.0438e-08
2.20934e-07
-4.08178e-08
2.18671e-07
-4.12565e-08
2.16392e-07
-4.18432e-08
2.1404e-07
-4.25753e-08
2.1155e-07
-4.33865e-08
2.08794e-07
-4.42119e-08
2.05675e-07
-4.50264e-08
2.02209e-07
-4.58325e-08
1.98538e-07
-4.66243e-08
1.94855e-07
-4.7366e-08
1.91284e-07
-4.80145e-08
1.87809e-07
-4.85661e-08
1.84343e-07
-4.90582e-08
1.80851e-07
-4.95254e-08
1.77427e-07
-4.99762e-08
1.74248e-07
-5.03969e-08
1.71392e-07
-5.07721e-08
1.68743e-07
-5.11241e-08
1.66103e-07
-5.15246e-08
1.63298e-07
-5.20406e-08
1.60207e-07
-5.26814e-08
1.56862e-07
-5.34002e-08
1.53423e-07
-5.41037e-08
1.49974e-07
-5.46897e-08
1.46476e-07
-5.51409e-08
1.42938e-07
-5.55417e-08
1.39427e-07
-5.5967e-08
1.35929e-07
-5.64185e-08
1.32415e-07
-5.68756e-08
1.28904e-07
-5.73223e-08
1.25359e-07
-5.77256e-08
1.21724e-07
-5.80609e-08
1.18099e-07
-5.83425e-08
1.14639e-07
-5.85919e-08
1.11344e-07
-5.88235e-08
1.08134e-07
-5.907e-08
1.04972e-07
-5.93596e-08
1.01761e-07
-5.96777e-08
9.83281e-08
-6.00024e-08
9.46462e-08
-6.03392e-08
9.08851e-08
-6.06727e-08
8.72274e-08
-6.09391e-08
8.37612e-08
-6.10944e-08
8.04845e-08
-6.11678e-08
7.7292e-08
-6.12309e-08
7.40379e-08
-6.13482e-08
7.06622e-08
-6.15478e-08
6.71721e-08
-6.18035e-08
6.35463e-08
-6.20562e-08
5.97857e-08
-6.22614e-08
5.59913e-08
-6.23897e-08
5.22889e-08
-6.24026e-08
4.87457e-08
-6.22851e-08
4.54027e-08
-6.20925e-08
4.22787e-08
-6.19156e-08
3.93018e-08
-6.1811e-08
3.63262e-08
-6.17873e-08
3.32184e-08
-6.18262e-08
2.98746e-08
-6.1892e-08
2.62405e-08
-6.19493e-08
2.2407e-08
-6.19767e-08
1.86056e-08
-6.1944e-08
1.50238e-08
-6.18024e-08
1.16846e-08
-6.15405e-08
8.52164e-09
-6.12232e-08
5.44671e-09
-6.09336e-08
2.33239e-09
-6.07019e-08
-9.22427e-10
-6.05201e-08
-4.28008e-09
-6.03761e-08
-7.63536e-09
-6.02347e-08
-1.09795e-08
-6.00316e-08
-1.43522e-08
-5.97283e-08
-1.76813e-08
-5.93444e-08
-2.08441e-08
-5.89214e-08
-2.38497e-08
-5.84908e-08
-2.68125e-08
-5.80867e-08
-2.9803e-08
-5.77408e-08
-3.28559e-08
-5.74467e-08
-3.60337e-08
-5.71604e-08
-3.93439e-08
-5.68414e-08
-4.26738e-08
-5.647e-08
-4.59173e-08
-5.60384e-08
-4.90812e-08
-5.55609e-08
-5.22164e-08
-5.50836e-08
-5.53472e-08
-5.46464e-08
-5.85033e-08
-5.4234e-08
-6.17119e-08
-5.37914e-08
-6.49294e-08
-5.32799e-08
-6.80478e-08
-5.26935e-08
-7.09758e-08
-5.20356e-08
-7.3687e-08
-5.1321e-08
-7.62061e-08
-5.05942e-08
-7.85822e-08
-4.9915e-08
-8.08972e-08
-4.93192e-08
-8.3266e-08
-4.88021e-08
-8.57902e-08
-4.83382e-08
-8.85156e-08
-4.7898e-08
-9.14315e-08
-4.74513e-08
-9.44975e-08
-4.6976e-08
-9.7653e-08
-4.64674e-08
-1.00831e-07
-4.59312e-08
-1.03994e-07
-4.53637e-08
-1.0713e-07
-4.47415e-08
-1.10199e-07
-4.40327e-08
-1.13111e-07
-4.32165e-08
-1.15751e-07
-4.23016e-08
-1.18039e-07
-4.13353e-08
-1.20003e-07
-4.03936e-08
-1.21784e-07
-3.95506e-08
-1.23576e-07
-3.88481e-08
-1.25542e-07
-3.82803e-08
-1.27745e-07
-3.77994e-08
-1.30159e-07
-3.73355e-08
-1.32728e-07
-3.68243e-08
-1.35403e-07
-3.62308e-08
-1.38138e-07
-3.55538e-08
-1.40853e-07
-3.48102e-08
-1.43428e-07
-3.40129e-08
-1.45754e-07
-3.31669e-08
-1.47796e-07
-3.22786e-08
-1.49582e-07
-3.13578e-08
-1.5116e-07
-3.04254e-08
-1.52619e-07
-2.9529e-08
-1.54087e-07
-2.87376e-08
-1.55715e-07
-2.80935e-08
-1.57679e-07
-2.75686e-08
-1.60091e-07
-2.70956e-08
-1.62871e-07
-2.66217e-08
-1.6576e-07
-2.61088e-08
-1.68537e-07
-2.55023e-08
-1.71132e-07
-2.47459e-08
-1.73502e-07
-2.38264e-08
-1.75459e-07
-2.27599e-08
-1.76786e-07
-2.15611e-08
-1.77489e-07
-2.027e-08
-1.77714e-07
-1.89815e-08
-1.77562e-07
-1.7807e-08
-1.77212e-07
-1.6823e-08
-1.76974e-07
-1.6076e-08
-1.77088e-07
-1.55846e-08
-1.77652e-07
-1.53067e-08
-1.78794e-07
-1.5158e-08
-1.80663e-07
-1.50585e-08
-1.8325e-07
-1.49331e-08
-1.86393e-07
-1.46955e-08
-1.89883e-07
-1.42739e-08
-1.9345e-07
-1.36236e-08
-1.9676e-07
-1.2699e-08
-1.99536e-07
-1.14883e-08
-2.01548e-07
-1.0064e-08
-2.02528e-07
-8.52701e-09
-2.02399e-07
-6.9497e-09
-2.01372e-07
-5.40816e-09
-1.99641e-07
-3.99791e-09
-1.97379e-07
-2.78946e-09
-1.94916e-07
-1.82921e-09
-1.92606e-07
-1.14724e-09
-1.90737e-07
-7.07784e-10
-1.89604e-07
-4.44656e-10
-1.89391e-07
-3.44128e-10
-1.90071e-07
-3.95174e-10
-1.91609e-07
-5.28299e-10
-1.94055e-07
-6.76502e-10
-1.97245e-07
-7.68791e-10
-2.00786e-07
-6.4133e-10
-2.04397e-07
-1.18567e-10
-2.07774e-07
8.68493e-10
-2.10409e-07
2.31202e-09
-2.11932e-07
4.11014e-09
-2.122e-07
6.03992e-09
-2.11211e-07
7.89118e-09
-2.09238e-07
9.56678e-09
-2.06561e-07
1.10609e-08
-2.03255e-07
1.24612e-08
-1.99477e-07
1.38592e-08
-1.95444e-07
1.51564e-08
-1.91338e-07
1.61003e-08
-1.87535e-07
1.65004e-08
-1.84593e-07
1.63658e-08
-1.82896e-07
1.59575e-08
-1.82463e-07
1.56249e-08
-1.83021e-07
1.55058e-08
-1.84283e-07
1.54936e-08
-1.86194e-07
1.54297e-08
-1.88788e-07
1.53236e-08
-1.91915e-07
1.54905e-08
-1.95144e-07
1.63246e-08
-1.97683e-07
1.78963e-08
-1.98871e-07
1.989e-08
-1.98802e-07
2.19017e-08
-1.97884e-07
2.38387e-08
-1.96117e-07
2.59494e-08
-1.9317e-07
2.83591e-08
-1.88805e-07
3.07647e-08
-1.83458e-07
3.26885e-08
-1.77939e-07
3.3964e-08
-1.72703e-07
3.48624e-08
-1.677e-07
3.56925e-08
-1.62724e-07
3.6331e-08
-1.58117e-07
3.64812e-08
-1.54614e-07
3.62344e-08
-1.52258e-07
3.60679e-08
-1.50369e-07
3.62641e-08
-1.48649e-07
3.66484e-08
-1.47425e-07
3.70518e-08
-1.46811e-07
3.76906e-08
-1.46356e-07
3.88036e-08
-1.457e-07
4.02271e-08
-1.45055e-07
4.16478e-08
-1.44772e-07
4.3049e-08
-1.44755e-07
4.45482e-08
-1.44797e-07
4.60511e-08
-1.45137e-07
4.73988e-08
-1.45913e-07
4.86414e-08
-1.46809e-07
4.99038e-08
-1.47632e-07
5.12114e-08
-1.48221e-07
5.2671e-08
-1.48005e-07
5.44002e-08
-1.46607e-07
5.6377e-08
-1.4396e-07
5.86882e-08
-1.39366e-07
6.14853e-08
-1.32346e-07
6.46024e-08
-1.23423e-07
6.78557e-08
-1.12523e-07
7.14342e-08
-9.8995e-08
7.51623e-08
-8.38668e-08
7.85552e-08
-6.80563e-08
8.17956e-08
-5.08353e-08
8.49187e-08
-3.35345e-08
8.73225e-08
-1.75849e-08
8.91922e-08