/*--------------------------------*- C++ -*----------------------------------*\
| =========                 |                                                 |
| \\      /  F ield         | OpenFOAM: The Open Source CFD Toolbox           |
|  \\    /   O peration     | Version:  2106                                  |
|   \\  /    A nd           | Website:  www.openfoam.com                      |
|    \\/     M anipulation  |                                                 |
\*---------------------------------------------------------------------------*/
FoamFile
{
    version     2.0;
    format      ascii;
    arch        "LSB;label=32;scalar=64";
    class       surfaceScalarField;
    location    "0.081";
    object      phi;
}
// * * * * * * * * * * * * * * * * * * * * * * * * * * * * * * * * * * * * * //

dimensions      [0 3 -1 0 0 0 0];

oriented        oriented;

internalField   nonuniform List<scalar> 
799
(
1.75538e-32
4.51025e-32
5.80156e-32
4.68919e-32
2.1366e-32
-4.57378e-32
-1.05585e-31
-1.51923e-31
-1.62434e-31
-1.2513e-31
-6.97907e-32
-7.97474e-33
3.00373e-32
3.93151e-32
1.72596e-32
-2.24423e-32
-7.38128e-32
-1.26649e-31
-1.67108e-31
-1.95217e-31
-1.87185e-31
-1.51186e-31
-9.01079e-32
-1.94293e-32
2.10754e-32
3.00874e-32
-1.16677e-32
-8.23877e-32
-1.4878e-31
-2.01478e-31
-2.0444e-31
-1.77258e-31
-1.31044e-31
-7.61265e-32
-5.13712e-32
-4.04315e-32
-5.77724e-32
-9.58182e-32
-1.25848e-31
-1.62695e-31
-1.71819e-31
-1.59491e-31
-1.36179e-31
-8.96189e-32
-6.45242e-32
-5.43631e-32
-7.0401e-32
-1.19485e-31
-1.59559e-31
-1.95966e-31
-1.9801e-31
-1.64275e-31
-1.21195e-31
-6.69833e-32
-4.26509e-32
-4.88805e-32
-8.20476e-32
-1.41193e-31
-1.86647e-31
-2.1184e-31
-1.98709e-31
-1.45591e-31
-8.35122e-32
-2.86008e-32
-1.58017e-32
-5.65554e-32
-1.30354e-31
-2.13872e-31
-2.59293e-31
-2.41761e-31
-1.7036e-31
-6.85774e-32
7.90797e-33
2.44939e-32
-2.25153e-32
-1.16205e-31
-2.02614e-31
-2.47136e-31
-2.35504e-31
-1.76114e-31
-1.09721e-31
-6.05545e-32
-4.50211e-32
-5.98513e-32
-8.37879e-32
-1.09542e-31
-1.28923e-31
-1.46863e-31
-1.66966e-31
-1.79026e-31
-1.76851e-31
-1.45521e-31
-9.27594e-32
-3.9149e-32
-6.28636e-33
-2.49769e-32
-8.33713e-32
-1.64952e-31
-2.34113e-31
-2.4728e-31
-2.11806e-31
-1.25837e-31
-3.48142e-32
1.86191e-32
2.78492e-32
-2.98974e-32
-1.08959e-31
-1.82554e-31
-2.26285e-31
-2.0909e-31
-1.6506e-31
-1.02112e-31
-5.52847e-32
-4.65232e-32
-5.77845e-32
-8.82302e-32
-1.04903e-31
-1.02238e-31
-8.93363e-32
-7.52829e-32
-8.50446e-32
-1.15381e-31
-1.56759e-31
-1.87426e-31
-1.85854e-31
-1.51032e-31
-9.15148e-32
-3.19072e-32
6.04985e-33
1.15511e-32
-1.82578e-32
-7.04996e-32
-1.3133e-31
-1.86526e-31
-2.18268e-31
-2.20886e-31
-1.87056e-31
-1.22804e-31
-4.89517e-32
1.59358e-32
4.133e-32
1.88701e-32
-4.4236e-32
-1.28334e-31
-1.93082e-31
-2.19488e-31
-1.95912e-31
-1.35582e-31
-7.2771e-32
-2.9387e-32
-2.85327e-32
-6.30396e-32
-1.09981e-31
-1.47021e-31
-1.47489e-31
-1.14536e-31
-6.36809e-32
-2.19029e-32
-1.90366e-32
-5.90267e-32
-1.30089e-31
-1.96878e-31
-2.23767e-31
-1.92814e-31
-1.12577e-31
-2.31713e-32
3.49601e-32
2.70811e-32
-3.93883e-32
-1.29317e-31
-2.00055e-31
-2.06925e-31
-1.60509e-31
-8.30156e-32
-2.03065e-32
-1.38697e-32
-4.98158e-32
-1.18675e-31
-1.68266e-31
-1.70418e-31
-1.3417e-31
-6.32034e-32
-1.37538e-32
-3.28198e-34
-2.94216e-32
-9.68156e-32
-1.52812e-31
-1.89306e-31
-1.81666e-31
-1.34659e-31
-7.93784e-32
-2.35249e-32
-5.98844e-34
-9.25725e-33
-4.09478e-32
-8.9655e-32
-1.27443e-31
-1.5188e-31
-1.55899e-31
-1.38555e-31
-1.12402e-31
-7.7308e-32
-4.40087e-32
-2.20015e-32
-1.53074e-32
-3.44007e-32
-7.40039e-32
-1.20277e-31
-1.56763e-31
-1.5975e-31
-1.25583e-31
-6.73084e-32
-9.90349e-33
1.1354e-32
-1.68869e-32
-8.44234e-32
-1.59397e-31
-1.96309e-31
-1.6993e-31
-8.69091e-32
1.6493e-32
8.3781e-32
7.45215e-32
-1.13036e-32
-1.39628e-31
-2.43525e-31
-2.67572e-31
-1.99599e-31
-6.23445e-32
7.27445e-32
1.42361e-31
1.18576e-31
6.45478e-33
-1.28617e-31
-2.27052e-31
-2.46898e-31
-1.75639e-31
-6.14785e-32
4.97236e-32
1.09427e-31
9.33895e-32
2.62145e-32
-6.30505e-32
-1.29292e-31
-1.4381e-31
-1.09369e-31
-4.29964e-32
2.10039e-32
5.36161e-32
4.54234e-32
1.06754e-32
-2.64635e-32
-3.54721e-32
-5.62131e-33
4.42828e-32
9.22513e-32
1.02192e-31
6.66417e-32
1.01909e-32
-3.93981e-32
-3.85434e-32
2.05066e-32
1.11915e-31
2.03112e-31
2.47286e-31
2.32105e-31
1.80045e-31
1.18728e-31
9.02238e-32
1.08914e-31
1.57153e-31
2.22368e-31
2.73858e-31
3.04799e-31
3.29226e-31
3.44429e-31
3.68637e-31
3.94901e-31
4.13547e-31
4.34792e-31
4.50842e-31
4.7815e-31
5.18478e-31
5.60496e-31
6.0328e-31
6.33563e-31
6.62317e-31
7.05977e-31
7.76386e-31
8.75308e-31
9.79096e-31
1.05664e-30
1.08359e-30
1.06759e-30
1.04054e-30
1.05417e-30
1.14349e-30
1.30209e-30
1.49651e-30
1.66064e-30
1.75625e-30
1.78091e-30
1.76693e-30
1.78182e-30
1.86013e-30
2.0137e-30
2.21195e-30
2.39931e-30
2.54974e-30
2.64949e-30
2.72958e-30
2.8293e-30
2.9667e-30
3.15077e-30
3.34968e-30
3.53829e-30
3.70454e-30
3.84803e-30
4.00274e-30
4.1864e-30
4.41035e-30
4.6686e-30
4.92632e-30
5.16966e-30
5.38424e-30
5.58184e-30
5.79768e-30
6.0464e-30
6.35046e-30
6.69394e-30
7.04493e-30
7.38375e-30
7.67819e-30
7.94621e-30
8.21273e-30
8.50838e-30
8.87553e-30
9.30213e-30
9.77527e-30
1.02514e-29
1.06779e-29
1.10401e-29
1.13408e-29
1.15834e-29
1.19864e-29
1.24994e-29
1.38397e-29
1.62443e-29
1.98421e-29
2.67019e-29
2.93693e-29
3.21418e-29
1.50565e-29
-2.77067e-29
-7.909e-29
-1.84688e-28
-1.7533e-28
-1.14535e-28
1.73492e-28
8.17733e-28
1.18311e-27
1.82562e-27
1.06404e-27
-7.53805e-28
-3.02907e-27
-7.53543e-27
-7.20578e-27
-5.92341e-27
1.75599e-27
1.6884e-26
2.26757e-26
3.30565e-26
1.66561e-26
-1.36033e-26
-4.09995e-26
-9.04878e-26
-7.13146e-26
-4.2187e-26
3.1578e-26
1.54633e-25
1.62743e-25
1.92006e-25
5.43191e-26
-1.45592e-25
-2.41555e-25
-4.15703e-25
-2.36516e-25
-3.16354e-26
2.19162e-25
5.89203e-25
4.55164e-25
3.83042e-25
-3.70761e-26
-5.43994e-25
-5.80041e-25
-7.54244e-25
-2.5457e-25
2.23636e-25
5.06856e-25
9.15301e-25
5.06867e-25
2.23652e-25
-2.54556e-25
-7.54239e-25
-5.80047e-25
-5.44006e-25
-3.70901e-26
3.83033e-25
4.55163e-25
5.89208e-25
2.1917e-25
-3.16296e-26
-2.36514e-25
-4.15705e-25
-2.4156e-25
-1.45597e-25
5.43155e-26
1.92004e-25
1.62743e-25
1.54633e-25
3.15783e-26
-4.21873e-26
-7.13153e-26
-9.04885e-26
-4.10005e-26
-1.36041e-26
1.66552e-26
3.30556e-26
2.26748e-26
1.68832e-26
1.75527e-27
-5.92404e-27
-7.20632e-27
-7.53591e-27
-3.02958e-27
-7.54329e-28
1.06346e-27
1.82501e-27
1.1825e-27
8.17131e-28
1.72963e-28
-1.14982e-28
-1.75676e-28
-1.84967e-28
-7.93672e-29
-2.80278e-29
1.463e-29
3.16332e-29
2.88287e-29
2.62028e-29
1.94712e-29
1.60101e-29
1.37259e-29
1.24333e-29
1.18799e-29
1.13923e-29
1.10391e-29
1.06622e-29
1.02842e-29
9.8961e-30
9.51749e-30
9.15743e-30
8.8299e-30
8.52719e-30
8.22577e-30
7.90458e-30
7.54923e-30
7.16872e-30
6.79851e-30
6.46553e-30
6.19641e-30
5.98425e-30
5.79957e-30
5.61651e-30
5.3991e-30
5.14942e-30
4.87507e-30
4.59644e-30
4.34502e-30
4.12672e-30
3.95518e-30
3.819e-30
3.69831e-30
3.57598e-30
3.42495e-30
3.24044e-30
3.03238e-30
2.82326e-30
2.64732e-30
2.52699e-30
2.45597e-30
2.41562e-30
2.3627e-30
2.26218e-30
2.11503e-30
1.92793e-30
1.75207e-30
1.62362e-30
1.55304e-30
1.54498e-30
1.54749e-30
1.52975e-30
1.46435e-30
1.33824e-30
1.1909e-30
1.04787e-30
9.50736e-31
9.2113e-31
9.40872e-31
9.85823e-31
1.00662e-30
9.66393e-31
8.59774e-31
7.06875e-31
5.57917e-31
4.67926e-31
4.61567e-31
5.30702e-31
6.28277e-31
6.89125e-31
6.73994e-31
5.73475e-31
4.26062e-31
2.89401e-31
2.11402e-31
2.12921e-31
2.7118e-31
3.48676e-31
3.97297e-31
3.97219e-31
3.4917e-31
2.7144e-31
2.00182e-31
1.46842e-31
1.30859e-31
1.41992e-31
1.65379e-31
1.92637e-31
1.94624e-31
1.81806e-31
1.47585e-31
1.08616e-31
9.06511e-32
8.39969e-32
1.06332e-31
1.25754e-31
1.26146e-31
1.08924e-31
5.83068e-32
1.77652e-32
-3.64516e-33
5.96662e-33
5.34777e-32
9.48949e-32
1.23043e-31
1.15768e-31
7.42179e-32
3.1981e-32
-6.32247e-33
-1.96493e-32
-1.60559e-32
-1.56519e-32
-1.40488e-32
-1.79924e-32
-6.68932e-33
3.32092e-32
8.50142e-32
1.34165e-31
1.36212e-31
7.25684e-32
-3.56448e-32
-1.56295e-31
-2.15492e-31
-1.79906e-31
-5.82146e-32
1.11576e-31
2.32994e-31
2.55681e-31
1.59781e-31
-2.39325e-32
-1.94199e-31
-2.88118e-31
-2.51183e-31
-9.81442e-32
8.49858e-32
2.30732e-31
2.56182e-31
1.58031e-31
-7.20832e-33
-1.75789e-31
-2.52021e-31
-2.18557e-31
-9.77801e-32
5.73969e-32
1.57908e-31
1.80354e-31
1.17417e-31
6.3345e-33
-8.82437e-32
-1.46452e-31
-1.42892e-31
-9.86467e-32
-4.32266e-32
1.41471e-32
4.64886e-32
6.3886e-32
6.29298e-32
4.21897e-32
1.44001e-32
-2.69021e-32
-6.27951e-32
-8.87184e-32
-9.78963e-32
-8.42203e-32
-5.79825e-32
-1.86537e-32
1.87267e-32
5.11349e-32
6.6472e-32
5.85332e-32
3.09232e-32
-1.94368e-32
-6.5435e-32
-1.02435e-31
-1.12133e-31
-8.8264e-32
-5.26426e-32
-1.31129e-33
3.4113e-32
5.16947e-32
5.39321e-32
2.82374e-32
6.84608e-34
-3.69402e-32
-7.0342e-32
-8.48342e-32
-8.80541e-32
-6.22226e-32
-2.52214e-32
1.3951e-32
4.55106e-32
4.87275e-32
3.29235e-32
-2.30058e-33
-4.10509e-32
-6.76186e-32
-7.87344e-32
-6.6836e-32
-4.07861e-32
-8.29777e-33
1.95241e-32
3.28868e-32
2.71483e-32
6.96344e-33
-1.77712e-32
-3.67296e-32
-3.68454e-32
-2.81765e-32
-1.42862e-32
-9.76808e-33
-2.26462e-32
-3.35879e-32
-4.03377e-32
-2.00688e-32
1.94551e-32
5.2945e-32
6.7224e-32
3.27739e-32
-2.84693e-32
-9.05654e-32
-1.20536e-31
-8.82114e-32
-1.71995e-32
6.77416e-32
1.16317e-31
1.02262e-31
3.81786e-32
-5.11485e-32
-1.0962e-31
-1.14855e-31
-6.43426e-32
1.60334e-32
7.58373e-32
9.38515e-32
5.65937e-32
-9.35731e-33
-6.40748e-32
-8.45177e-32
-5.22965e-32
7.10413e-33
6.26996e-32
8.74805e-32
6.03824e-32
2.48114e-33
-6.1592e-32
-1.00897e-31
-8.97258e-32
-4.01777e-32
3.13355e-32
9.40335e-32
1.16583e-31
9.89642e-32
4.30393e-32
-2.8509e-32
-8.45528e-32
-1.1551e-31
-1.04322e-31
-5.82631e-32
4.47064e-33
7.38218e-32
1.19164e-31
1.31435e-31
1.0425e-31
3.72983e-32
-4.075e-32
-1.11057e-31
-1.41983e-31
-1.1645e-31
-4.49855e-32
5.37696e-32
1.3474e-31
1.64881e-31
1.3076e-31
4.22552e-32
-5.75492e-32
-1.25989e-31
-1.31836e-31
-7.15508e-32
2.2711e-32
1.07255e-31
1.43184e-31
1.12742e-31
3.6956e-32
-4.76382e-32
-1.00269e-31
-9.13794e-32
-3.41288e-32
4.83175e-32
1.13634e-31
1.25787e-31
9.16186e-32
1.76606e-32
-5.07856e-32
-7.92641e-32
-6.658e-32
-4.24006e-33
6.07982e-32
1.03732e-31
1.12328e-31
6.99643e-32
1.88561e-32
-2.93946e-32
-5.17278e-32
-3.20968e-32
1.06603e-33
4.62125e-32
7.70237e-32
8.2666e-32
7.46042e-32
5.02687e-32
2.83317e-32
1.53202e-32
8.15511e-33
1.0261e-32
1.27702e-32
1.1032e-32
1.22759e-32
1.24636e-32
2.23504e-32
4.52631e-32
6.92755e-32
9.85294e-32
1.07192e-31
9.33235e-32
5.8306e-32
3.47194e-34
-4.31935e-32
-6.88919e-32
-5.39118e-32
-2.90394e-34
6.39868e-32
1.27422e-31
1.51112e-31
1.36058e-31
8.43888e-32
2.08798e-32
-2.79945e-32
-4.83739e-32
-2.69472e-32
3.90678e-33
5.28427e-32
7.34005e-32
7.4207e-32
6.73594e-32
2.27124e-32
1.3483e-32
-1.8826e-32
-2.4872e-32
-4.79035e-33
)
;

boundaryField
{
    left
    {
        type            calculated;
        value           uniform 0;
    }
    right
    {
        type            calculated;
        value           uniform 0;
    }
    empty
    {
        type            empty;
        value           nonuniform List<scalar> 0();
    }
}


// ************************************************************************* //
