/*--------------------------------*- C++ -*----------------------------------*\
| =========                 |                                                 |
| \\      /  F ield         | OpenFOAM: The Open Source CFD Toolbox           |
|  \\    /   O peration     | Version:  2106                                  |
|   \\  /    A nd           | Website:  www.openfoam.com                      |
|    \\/     M anipulation  |                                                 |
\*---------------------------------------------------------------------------*/
FoamFile
{
    version     2.0;
    format      ascii;
    arch        "LSB;label=32;scalar=64";
    class       volScalarField;
    location    "0.09";
    object      p;
}
// * * * * * * * * * * * * * * * * * * * * * * * * * * * * * * * * * * * * * //

dimensions      [1 -1 -2 0 0 0 0];

internalField   nonuniform List<scalar> 
800
(
1
1
1
1
1
1
1
1
1
1
1
1
1
1
1
1
1
1
1
1
1
1
1
1
1
1
1
1
1
1
1
1
1
1
1
1
1
1
1
1
1
1
1
1
1
1
1
1
1
1
1
1
1
1
1
1
1
1
1
1
1
1
1
1
1
1
1
1
1
1
1
1
1
1
1
1
1
1
1
1
1
1
1
1
1
1
1
1
1
1
1
1
1
1
1
1
1
1
1
1
1
1
1
1
1
1
1
1
1
1
1
1
1
1
1
1
1
1
1
1
1
1
1
1
1
1
1
1
1
1
1
1
1
1
1
1
1
1
1
1
1
1
1
1
1
1
1
1
1
1
1
1
1
1
1
1
1
1
1
1
1
1
1
1
1
1
1
1
1
1
1
1
1
1
1
1
1
1
1
1
1
1
1
1
1
1
1
1
1
1
1
1
1
1
1
1
1
1
1
1
1
1
1
1
1
1
1
1
1
1
1
1
1
1
1
1
1
1
1
1
1
1
1
1
1
1
1
1
1
1
1
1
1
1
1
1
1
1
1
1
1
1
1
1
1
1
1
1
1
1
1
1
1
1
1
1
1
1
1
1
1
1
1
1
1
1
1
1
1
1
1
1
1
1
1
1
1
1
1
1
1
1
1
1
1
1
1
1
1
1
1
1
1
0.999995
0.999604
0.995174
0.98185
0.964256
0.948135
0.934465
0.922506
0.911536
0.901118
0.891021
0.881131
0.871395
0.861788
0.852295
0.842909
0.833624
0.824435
0.815341
0.806338
0.797425
0.7886
0.779861
0.771208
0.762638
0.754152
0.745748
0.737425
0.729183
0.72102
0.712935
0.704929
0.697
0.689147
0.68137
0.673668
0.666041
0.658487
0.651006
0.643598
0.636262
0.628996
0.621801
0.614676
0.607621
0.600633
0.593714
0.586863
0.580078
0.573359
0.566706
0.560119
0.553595
0.547136
0.54074
0.534407
0.528137
0.521928
0.51578
0.509693
0.503667
0.4977
0.491792
0.485943
0.480152
0.474419
0.468744
0.463125
0.457562
0.452056
0.446605
0.441209
0.435868
0.430581
0.425348
0.420169
0.415042
0.409969
0.404948
0.399979
0.395061
0.390195
0.385381
0.380617
0.375903
0.37124
0.366627
0.362063
0.357548
0.353082
0.348665
0.344296
0.339974
0.3357
0.331473
0.327293
0.323159
0.319076
0.315058
0.31115
0.307474
0.304299
0.302047
0.300992
0.300797
0.30116
0.301546
0.301555
0.301269
0.301114
0.30109
0.301106
0.301152
0.301182
0.301208
0.301256
0.301307
0.301337
0.301358
0.301393
0.301453
0.301512
0.301553
0.301578
0.301595
0.3016
0.301601
0.301606
0.301637
0.301684
0.301715
0.301736
0.301754
0.301765
0.30177
0.301775
0.301792
0.301817
0.301826
0.301824
0.301814
0.301795
0.30176
0.301715
0.301687
0.301677
0.301672
0.301662
0.30165
0.301646
0.301645
0.301632
0.301615
0.301609
0.301622
0.301629
0.301626
0.301631
0.301647
0.301653
0.301649
0.301646
0.301664
0.301689
0.301692
0.301691
0.301703
0.301714
0.301713
0.301704
0.301716
0.301752
0.301764
0.301757
0.301761
0.301763
0.30175
0.301718
0.301695
0.301702
0.301704
0.301683
0.301675
0.30168
0.30168
0.301663
0.301651
0.301694
0.301778
0.30192
0.302183
0.302527
0.301588
0.301301
0.302926
0.302482
0.30165
0.301229
0.301095
0.300994
0.300958
0.301069
0.301617
0.302463
0.302657
0.302556
0.302318
0.301792
0.301132
0.300909
0.300913
0.300986
0.30131
0.301987
0.302466
0.302567
0.302571
0.302309
0.301621
0.301019
0.300915
0.300905
0.301031
0.301468
0.302158
0.302497
0.302486
0.302385
0.302062
0.301432
0.300961
0.300879
0.300937
0.301115
0.301597
0.302209
0.302381
0.302374
0.302279
0.301904
0.30127
0.300972
0.300938
0.300972
0.301213
0.301789
0.302269
0.302335
0.302325
0.3022
0.301801
0.301218
0.300998
0.301011
0.301096
0.30138
0.301934
0.302274
0.302306
0.302275
0.302149
0.30191
0.301554
0.29992
0.283142
0.195856
0.108934
0.100044
0.1
0.1
0.1
0.1
0.1
0.1
0.1
0.1
0.1
0.1
0.1
0.1
0.1
0.1
0.1
0.1
0.1
0.1
0.1
0.1
0.1
0.1
0.1
0.1
0.1
0.1
0.1
0.1
0.1
0.1
0.1
0.1
0.1
0.1
0.1
0.1
0.1
0.1
0.1
0.1
0.1
0.1
0.1
0.1
0.1
0.1
0.1
0.1
0.1
0.1
0.1
0.1
0.1
0.1
0.1
0.1
0.1
0.1
0.1
0.1
0.1
0.1
0.1
0.1
0.1
0.1
0.1
0.1
0.1
0.1
0.1
0.1
0.1
0.1
0.1
0.1
0.1
0.1
0.1
0.1
0.1
0.1
0.1
0.1
0.1
0.1
0.1
0.1
0.1
0.1
0.1
0.1
0.1
0.1
0.1
0.1
0.1
0.1
0.1
0.1
0.1
0.1
0.1
0.1
0.1
0.1
0.1
0.1
0.1
0.1
0.1
0.1
0.1
0.1
0.1
0.1
0.1
0.1
0.1
0.1
0.1
0.1
0.1
0.1
0.1
0.1
0.1
0.1
0.1
0.1
0.1
0.1
0.1
0.1
0.1
0.1
0.1
0.1
0.1
0.1
0.1
0.1
0.1
0.1
0.1
0.1
0.1
0.1
0.1
0.1
0.1
0.1
0.1
0.1
0.1
0.1
0.1
0.1
0.1
0.1
0.1
0.1
0.1
0.1
0.1
0.1
0.1
0.1
0.1
0.1
0.1
0.1
0.1
0.1
0.1
0.1
0.1
0.1
0.1
0.1
0.1
0.1
0.1
0.1
0.1
0.1
0.1
0.1
0.1
0.1
0.1
0.1
0.1
0.1
0.1
0.1
0.1
0.1
0.1
0.1
0.1
0.1
0.1
0.1
0.1
0.1
0.1
0.1
0.1
0.1
0.1
0.1
0.1
0.1
0.1
0.1
0.1
0.1
0.1
0.1
0.1
0.1
0.1
0.1
0.1
0.1
0.1
0.1
0.1
0.1
0.1
0.1
0.1
0.1
0.1
0.1
0.1
0.1
0.1
)
;

boundaryField
{
    left
    {
        type            zeroGradient;
    }
    right
    {
        type            zeroGradient;
    }
    empty
    {
        type            empty;
    }
}


// ************************************************************************* //
