/*--------------------------------*- C++ -*----------------------------------*\
| =========                 |                                                 |
| \\      /  F ield         | OpenFOAM: The Open Source CFD Toolbox           |
|  \\    /   O peration     | Version:  2106                                  |
|   \\  /    A nd           | Website:  www.openfoam.com                      |
|    \\/     M anipulation  |                                                 |
\*---------------------------------------------------------------------------*/
FoamFile
{
    version     2.0;
    format      ascii;
    arch        "LSB;label=32;scalar=64";
    class       volScalarField;
    location    "0.09";
    object      rho;
}
// * * * * * * * * * * * * * * * * * * * * * * * * * * * * * * * * * * * * * //

dimensions      [1 -3 0 0 0 0 0];

internalField   nonuniform List<scalar> 
800
(
1.00435
1.00435
1.00435
1.00435
1.00435
1.00435
1.00435
1.00435
1.00435
1.00435
1.00435
1.00435
1.00435
1.00435
1.00435
1.00435
1.00435
1.00435
1.00435
1.00435
1.00435
1.00435
1.00435
1.00435
1.00435
1.00435
1.00435
1.00435
1.00435
1.00435
1.00435
1.00435
1.00435
1.00435
1.00435
1.00435
1.00435
1.00435
1.00435
1.00435
1.00435
1.00435
1.00435
1.00435
1.00435
1.00435
1.00435
1.00435
1.00435
1.00435
1.00435
1.00435
1.00435
1.00435
1.00435
1.00435
1.00435
1.00435
1.00435
1.00435
1.00435
1.00435
1.00435
1.00435
1.00435
1.00435
1.00435
1.00435
1.00435
1.00435
1.00435
1.00435
1.00435
1.00435
1.00435
1.00435
1.00435
1.00435
1.00435
1.00435
1.00435
1.00435
1.00435
1.00435
1.00435
1.00435
1.00435
1.00435
1.00435
1.00435
1.00435
1.00435
1.00435
1.00435
1.00435
1.00435
1.00435
1.00435
1.00435
1.00435
1.00435
1.00435
1.00435
1.00435
1.00435
1.00435
1.00435
1.00435
1.00435
1.00435
1.00435
1.00435
1.00435
1.00435
1.00435
1.00435
1.00435
1.00435
1.00435
1.00435
1.00435
1.00435
1.00435
1.00435
1.00435
1.00435
1.00435
1.00435
1.00435
1.00435
1.00435
1.00435
1.00435
1.00435
1.00435
1.00435
1.00435
1.00435
1.00435
1.00435
1.00435
1.00435
1.00435
1.00435
1.00435
1.00435
1.00435
1.00435
1.00435
1.00435
1.00435
1.00435
1.00435
1.00435
1.00435
1.00435
1.00435
1.00435
1.00435
1.00435
1.00435
1.00435
1.00435
1.00435
1.00435
1.00435
1.00435
1.00435
1.00435
1.00435
1.00435
1.00435
1.00435
1.00435
1.00435
1.00435
1.00435
1.00435
1.00435
1.00435
1.00435
1.00435
1.00435
1.00435
1.00435
1.00435
1.00435
1.00435
1.00435
1.00435
1.00435
1.00435
1.00435
1.00435
1.00435
1.00435
1.00435
1.00435
1.00435
1.00435
1.00435
1.00435
1.00435
1.00435
1.00435
1.00435
1.00435
1.00435
1.00435
1.00435
1.00435
1.00435
1.00435
1.00435
1.00435
1.00435
1.00435
1.00435
1.00435
1.00435
1.00435
1.00435
1.00435
1.00435
1.00435
1.00435
1.00435
1.00435
1.00435
1.00435
1.00435
1.00435
1.00435
1.00435
1.00435
1.00435
1.00435
1.00435
1.00435
1.00435
1.00435
1.00435
1.00435
1.00435
1.00435
1.00435
1.00435
1.00435
1.00435
1.00435
1.00435
1.00435
1.00435
1.00435
1.00435
1.00435
1.00435
1.00435
1.00435
1.00435
1.00435
1.00435
1.00435
1.00435
1.00435
1.00435
1.00435
1.00435
1.00435
1.00435
1.00435
1.00435
1.00435
1.00435
1.00435
1.00435
1.00435
1.00435
1.00435
1.00435
1.00435
1.00435
1.00435
1.00435
1.00435
1.00435
1.00435
1.00435
1.00435
1.00435
1.00435
1.00435
1.00435
1.00435
1.00407
1.00088
0.991293
0.978579
0.966871
0.956899
0.94814
0.940077
0.932394
0.924922
0.917581
0.910331
0.903154
0.89604
0.888983
0.88198
0.875028
0.868126
0.861271
0.854463
0.8477
0.840983
0.834309
0.82768
0.821093
0.81455
0.808049
0.80159
0.795172
0.788796
0.782461
0.776167
0.769913
0.7637
0.757526
0.751392
0.745298
0.739242
0.733226
0.727248
0.721309
0.715408
0.709546
0.703721
0.697933
0.692183
0.68647
0.680794
0.675154
0.669551
0.663985
0.658454
0.652959
0.6475
0.642076
0.636688
0.631334
0.626016
0.620732
0.615482
0.610267
0.605086
0.599938
0.594825
0.589745
0.584699
0.579685
0.574706
0.569759
0.564844
0.559963
0.555114
0.550298
0.545514
0.540763
0.536044
0.531357
0.526702
0.522079
0.517488
0.512929
0.508401
0.503906
0.499442
0.49501
0.49061
0.486241
0.481905
0.477599
0.473325
0.469082
0.464871
0.46069
0.456541
0.452422
0.448335
0.444283
0.440281
0.436374
0.432687
0.429492
0.427221
0.426154
0.425958
0.426326
0.426713
0.426729
0.426442
0.426283
0.42626
0.426277
0.426325
0.426356
0.426384
0.426434
0.426487
0.426519
0.426541
0.426577
0.426639
0.426699
0.42674
0.426768
0.426787
0.426794
0.426796
0.426802
0.426835
0.426884
0.426919
0.426943
0.426963
0.426976
0.426981
0.426986
0.427005
0.427031
0.427045
0.427048
0.42704
0.427022
0.426988
0.426941
0.426912
0.426903
0.4269
0.426895
0.426888
0.42689
0.426893
0.426885
0.42687
0.42687
0.426884
0.426895
0.426896
0.426904
0.426925
0.426936
0.426935
0.426937
0.426958
0.426987
0.426994
0.426998
0.427015
0.427032
0.427036
0.427035
0.427049
0.427089
0.427107
0.427105
0.427115
0.42713
0.427144
0.427162
0.427201
0.427227
0.427221
0.427149
0.426971
0.426521
0.425451
0.423137
0.418557
0.410156
0.395861
0.373907
0.344529
0.311793
0.282566
0.265188
0.260523
0.259508
0.25892
0.258797
0.258931
0.259224
0.259685
0.260271
0.261046
0.261882
0.262187
0.262249
0.262186
0.261903
0.261508
0.261367
0.261353
0.261343
0.261441
0.261742
0.261922
0.261892
0.261821
0.261599
0.261141
0.260794
0.260774
0.260826
0.260983
0.261348
0.261857
0.262126
0.262163
0.262136
0.261932
0.261503
0.261156
0.261051
0.261008
0.261039
0.261285
0.261638
0.261733
0.261728
0.261681
0.261487
0.261146
0.261013
0.261034
0.261095
0.261289
0.261674
0.261975
0.262007
0.26198
0.261858
0.26155
0.261137
0.260964
0.260944
0.260972
0.261146
0.261501
0.261729
0.261764
0.261776
0.261737
0.261624
0.261437
0.260464
0.250054
0.19226
0.130267
0.123473
0.123438
0.123438
0.123438
0.123438
0.123438
0.123438
0.123438
0.123438
0.123438
0.123438
0.123438
0.123438
0.123438
0.123438
0.123438
0.123438
0.123438
0.123438
0.123438
0.123438
0.123438
0.123438
0.123438
0.123438
0.123438
0.123438
0.123438
0.123438
0.123438
0.123438
0.123438
0.123438
0.123438
0.123438
0.123438
0.123438
0.123438
0.123438
0.123438
0.123438
0.123438
0.123438
0.123438
0.123438
0.123438
0.123438
0.123438
0.123438
0.123438
0.123438
0.123438
0.123438
0.123438
0.123438
0.123438
0.123438
0.123438
0.123438
0.123438
0.123438
0.123438
0.123438
0.123438
0.123438
0.123438
0.123438
0.123438
0.123438
0.123438
0.123438
0.123438
0.123438
0.123438
0.123438
0.123438
0.123438
0.123438
0.123438
0.123438
0.123438
0.123438
0.123438
0.123438
0.123438
0.123438
0.123438
0.123438
0.123438
0.123438
0.123438
0.123438
0.123438
0.123438
0.123438
0.123438
0.123438
0.123438
0.123438
0.123438
0.123438
0.123438
0.123438
0.123438
0.123438
0.123438
0.123438
0.123438
0.123438
0.123438
0.123438
0.123438
0.123438
0.123438
0.123438
0.123438
0.123438
0.123438
0.123438
0.123438
0.123438
0.123438
0.123438
0.123438
0.123438
0.123438
0.123438
0.123438
0.123438
0.123438
0.123438
0.123438
0.123438
0.123438
0.123438
0.123438
0.123438
0.123438
0.123438
0.123438
0.123438
0.123438
0.123438
0.123438
0.123438
0.123438
0.123438
0.123438
0.123438
0.123438
0.123438
0.123438
0.123438
0.123438
0.123438
0.123438
0.123438
0.123438
0.123438
0.123438
0.123438
0.123438
0.123438
0.123438
0.123438
0.123438
0.123438
0.123438
0.123438
0.123438
0.123438
0.123438
0.123438
0.123438
0.123438
0.123438
0.123438
0.123438
0.123438
0.123438
0.123438
0.123438
0.123438
0.123438
0.123438
0.123438
0.123438
0.123438
0.123438
0.123438
0.123438
0.123438
0.123438
0.123438
0.123438
0.123438
0.123438
0.123438
0.123438
0.123438
0.123438
0.123438
0.123438
0.123438
0.123438
0.123438
0.123438
0.123438
0.123438
0.123438
0.123438
0.123438
0.123438
0.123438
0.123438
0.123438
0.123438
0.123438
0.123438
0.123438
0.123438
0.123438
0.123438
0.123438
0.123438
0.123438
0.123438
0.123438
0.123438
0.123438
0.123438
0.123438
0.123438
0.123438
0.123438
0.123438
0.123438
0.123438
0.123438
0.123438
)
;

boundaryField
{
    left
    {
        type            calculated;
        value           uniform 0.123438;
    }
    right
    {
        type            calculated;
        value           uniform 1.00435;
    }
    empty
    {
        type            empty;
    }
}


// ************************************************************************* //
