/*--------------------------------*- C++ -*----------------------------------*\
| =========                 |                                                 |
| \\      /  F ield         | OpenFOAM: The Open Source CFD Toolbox           |
|  \\    /   O peration     | Version:  2106                                  |
|   \\  /    A nd           | Website:  www.openfoam.com                      |
|    \\/     M anipulation  |                                                 |
\*---------------------------------------------------------------------------*/
FoamFile
{
    version     2.0;
    format      ascii;
    arch        "LSB;label=32;scalar=64";
    class       volScalarField;
    location    "0.09";
    object      T;
}
// * * * * * * * * * * * * * * * * * * * * * * * * * * * * * * * * * * * * * //

dimensions      [0 0 0 1 0 0 0];

internalField   nonuniform List<scalar> 
800
(
0.003468
0.003468
0.003468
0.003468
0.003468
0.003468
0.003468
0.003468
0.003468
0.003468
0.003468
0.003468
0.003468
0.003468
0.003468
0.003468
0.003468
0.003468
0.003468
0.003468
0.003468
0.003468
0.003468
0.003468
0.003468
0.003468
0.003468
0.003468
0.003468
0.003468
0.003468
0.003468
0.003468
0.003468
0.003468
0.003468
0.003468
0.003468
0.003468
0.003468
0.003468
0.003468
0.003468
0.003468
0.003468
0.003468
0.003468
0.003468
0.003468
0.003468
0.003468
0.003468
0.003468
0.003468
0.003468
0.003468
0.003468
0.003468
0.003468
0.003468
0.003468
0.003468
0.003468
0.003468
0.003468
0.003468
0.003468
0.003468
0.003468
0.003468
0.003468
0.003468
0.003468
0.003468
0.003468
0.003468
0.003468
0.003468
0.003468
0.003468
0.003468
0.003468
0.003468
0.003468
0.003468
0.003468
0.003468
0.003468
0.003468
0.003468
0.003468
0.003468
0.003468
0.003468
0.003468
0.003468
0.003468
0.003468
0.003468
0.003468
0.003468
0.003468
0.003468
0.003468
0.003468
0.003468
0.003468
0.003468
0.003468
0.003468
0.003468
0.003468
0.003468
0.003468
0.003468
0.003468
0.003468
0.003468
0.003468
0.003468
0.003468
0.003468
0.003468
0.003468
0.003468
0.003468
0.003468
0.003468
0.003468
0.003468
0.003468
0.003468
0.003468
0.003468
0.003468
0.003468
0.003468
0.003468
0.003468
0.003468
0.003468
0.003468
0.003468
0.003468
0.003468
0.003468
0.003468
0.003468
0.003468
0.003468
0.003468
0.003468
0.003468
0.003468
0.003468
0.003468
0.003468
0.003468
0.003468
0.003468
0.003468
0.003468
0.003468
0.003468
0.003468
0.003468
0.003468
0.003468
0.003468
0.003468
0.003468
0.003468
0.003468
0.003468
0.003468
0.003468
0.003468
0.003468
0.003468
0.003468
0.003468
0.003468
0.003468
0.003468
0.003468
0.003468
0.003468
0.003468
0.003468
0.003468
0.003468
0.003468
0.003468
0.003468
0.003468
0.003468
0.003468
0.003468
0.003468
0.003468
0.003468
0.003468
0.003468
0.003468
0.003468
0.003468
0.003468
0.003468
0.003468
0.003468
0.003468
0.003468
0.003468
0.003468
0.003468
0.003468
0.003468
0.003468
0.003468
0.003468
0.003468
0.003468
0.003468
0.003468
0.003468
0.003468
0.003468
0.003468
0.003468
0.003468
0.003468
0.003468
0.003468
0.003468
0.003468
0.003468
0.003468
0.003468
0.003468
0.003468
0.003468
0.003468
0.003468
0.003468
0.003468
0.003468
0.003468
0.003468
0.003468
0.003468
0.003468
0.003468
0.003468
0.003468
0.003468
0.003468
0.003468
0.003468
0.003468
0.003468
0.003468
0.003468
0.003468
0.003468
0.003468
0.003468
0.003468
0.003468
0.003468
0.003468
0.003468
0.003468
0.003468
0.003468
0.003468
0.003468
0.003468
0.003468
0.003468
0.003468
0.003468
0.003468
0.003468
0.003468
0.003468
0.003468
0.003468
0.003468
0.003468
0.003468
0.003468
0.003468
0.003468
0.00346799
0.00346761
0.00346322
0.0034499
0.00343211
0.00341559
0.00340143
0.00338891
0.00337734
0.00336625
0.00335542
0.00334472
0.00333411
0.00332355
0.00331304
0.00330256
0.00329212
0.0032817
0.0032713
0.00326093
0.00325058
0.00324025
0.00322994
0.00321965
0.00320937
0.00319912
0.00318888
0.00317866
0.00316846
0.00315827
0.00314811
0.00313795
0.00312782
0.0031177
0.0031076
0.00309751
0.00308744
0.00307738
0.00306734
0.00305732
0.00304731
0.00303732
0.00302734
0.00301738
0.00300743
0.0029975
0.00298759
0.00297769
0.0029678
0.00295793
0.00294807
0.00293823
0.0029284
0.00291859
0.00290879
0.00289901
0.00288924
0.00287949
0.00286975
0.00286002
0.00285031
0.00284061
0.00283093
0.00282126
0.0028116
0.00280196
0.00279233
0.00278272
0.00277312
0.00276354
0.00275397
0.00274441
0.00273487
0.00272534
0.00271583
0.00270633
0.00269685
0.00268738
0.00267792
0.00266848
0.00265906
0.00264965
0.00264026
0.00263089
0.00262153
0.00261219
0.00260286
0.00259356
0.00258427
0.00257499
0.00256574
0.0025565
0.00254729
0.00253809
0.00252891
0.00251974
0.0025106
0.00250149
0.00249244
0.00248356
0.00247513
0.0024678
0.00246256
0.0024601
0.00245963
0.00246047
0.0024614
0.00246138
0.0024607
0.00246035
0.00246028
0.00246032
0.00246042
0.00246048
0.00246054
0.00246064
0.00246075
0.00246081
0.00246085
0.00246093
0.00246107
0.0024612
0.00246129
0.00246134
0.00246137
0.00246137
0.00246137
0.00246137
0.00246144
0.00246153
0.00246159
0.00246162
0.00246165
0.00246167
0.00246168
0.00246169
0.00246172
0.00246177
0.00246176
0.00246174
0.0024617
0.00246164
0.00246156
0.00246146
0.0024614
0.00246137
0.00246134
0.0024613
0.00246124
0.0024612
0.00246117
0.00246111
0.00246105
0.00246101
0.00246103
0.00246102
0.002461
0.00246099
0.002461
0.00246098
0.00246096
0.00246092
0.00246095
0.00246099
0.00246097
0.00246093
0.00246094
0.00246093
0.0024609
0.00246083
0.00246084
0.00246092
0.0024609
0.00246086
0.00246083
0.00246077
0.00246058
0.00246021
0.0024598
0.00245971
0.00245976
0.00246
0.00246096
0.0024636
0.0024698
0.00248316
0.00251023
0.00256201
0.00265527
0.00281249
0.00305498
0.00337957
0.00371756
0.00395741
0.00405
0.00405987
0.0040579
0.00405416
0.00405026
0.00404433
0.00403667
0.00402906
0.0040244
0.00402282
0.00402072
0.00401842
0.00401623
0.00401357
0.00401084
0.00401004
0.0040103
0.00401144
0.00401425
0.00401864
0.00402224
0.00402406
0.00402519
0.00402512
0.004023
0.00402031
0.00401925
0.0040183
0.00401756
0.00401778
0.00401915
0.00401953
0.00401882
0.0040179
0.00401673
0.00401492
0.00401396
0.00401448
0.00401593
0.00401782
0.00402047
0.00402319
0.00402402
0.004024
0.00402346
0.00402146
0.00401826
0.00401632
0.00401554
0.00401505
0.00401529
0.00401704
0.00401881
0.0040192
0.00401948
0.00401968
0.00401911
0.00401769
0.00401743
0.00401791
0.0040186
0.00401971
0.00402163
0.00402267
0.00402253
0.00402194
0.00402086
0.00401943
0.00401755
0.00401071
0.00394397
0.00354823
0.00291267
0.00282216
0.00282173
0.00282173
0.00282173
0.00282173
0.00282173
0.00282173
0.00282173
0.00282173
0.00282173
0.00282173
0.00282173
0.00282173
0.00282173
0.00282173
0.00282173
0.00282173
0.00282173
0.00282173
0.00282173
0.00282173
0.00282173
0.00282173
0.00282173
0.00282173
0.00282173
0.00282173
0.00282173
0.00282173
0.00282173
0.00282173
0.00282173
0.00282173
0.00282173
0.00282173
0.00282173
0.00282173
0.00282173
0.00282173
0.00282173
0.00282173
0.00282173
0.00282173
0.00282173
0.00282173
0.00282173
0.00282173
0.00282173
0.00282173
0.00282173
0.00282173
0.00282173
0.00282173
0.00282173
0.00282173
0.00282173
0.00282173
0.00282173
0.00282173
0.00282173
0.00282173
0.00282173
0.00282173
0.00282173
0.00282173
0.00282173
0.00282173
0.00282173
0.00282173
0.00282173
0.00282173
0.00282173
0.00282173
0.00282173
0.00282173
0.00282173
0.00282173
0.00282173
0.00282173
0.00282173
0.00282173
0.00282173
0.00282173
0.00282173
0.00282173
0.00282173
0.00282173
0.00282173
0.00282173
0.00282173
0.00282173
0.00282173
0.00282173
0.00282173
0.00282173
0.00282173
0.00282173
0.00282173
0.00282173
0.00282173
0.00282173
0.00282173
0.00282173
0.00282173
0.00282173
0.00282173
0.00282173
0.00282173
0.00282173
0.00282173
0.00282173
0.00282173
0.00282173
0.00282173
0.00282173
0.00282173
0.00282173
0.00282173
0.00282173
0.00282173
0.00282173
0.00282173
0.00282173
0.00282173
0.00282173
0.00282173
0.00282173
0.00282173
0.00282173
0.00282173
0.00282173
0.00282173
0.00282173
0.00282173
0.00282173
0.00282173
0.00282173
0.00282173
0.00282173
0.00282173
0.00282173
0.00282173
0.00282173
0.00282173
0.00282173
0.00282173
0.00282173
0.00282173
0.00282173
0.00282173
0.00282173
0.00282173
0.00282173
0.00282173
0.00282173
0.00282173
0.00282173
0.00282173
0.00282173
0.00282173
0.00282173
0.00282173
0.00282173
0.00282173
0.00282173
0.00282173
0.00282173
0.00282173
0.00282173
0.00282173
0.00282173
0.00282173
0.00282173
0.00282173
0.00282173
0.00282173
0.00282173
0.00282173
0.00282173
0.00282173
0.00282173
0.00282173
0.00282173
0.00282173
0.00282173
0.00282173
0.00282173
0.00282173
0.00282173
0.00282173
0.00282173
0.00282173
0.00282173
0.00282173
0.00282173
0.00282173
0.00282173
0.00282173
0.00282173
0.00282173
0.00282173
0.00282173
0.00282173
0.00282173
0.00282173
0.00282173
0.00282173
0.00282173
0.00282173
0.00282173
0.00282173
0.00282173
0.00282173
0.00282173
0.00282173
0.00282173
0.00282173
0.00282173
0.00282173
0.00282173
0.00282173
0.00282173
0.00282173
0.00282173
0.00282173
0.00282173
0.00282173
0.00282173
0.00282173
0.00282173
0.00282173
0.00282173
0.00282173
0.00282173
0.00282173
0.00282173
0.00282173
0.00282173
0.00282173
0.00282173
)
;

boundaryField
{
    left
    {
        type            zeroGradient;
    }
    right
    {
        type            zeroGradient;
    }
    empty
    {
        type            empty;
    }
}


// ************************************************************************* //
