/*--------------------------------*- C++ -*----------------------------------*\
| =========                 |                                                 |
| \\      /  F ield         | OpenFOAM: The Open Source CFD Toolbox           |
|  \\    /   O peration     | Version:  2106                                  |
|   \\  /    A nd           | Website:  www.openfoam.com                      |
|    \\/     M anipulation  |                                                 |
\*---------------------------------------------------------------------------*/
FoamFile
{
    version     2.0;
    format      ascii;
    arch        "LSB;label=32;scalar=64";
    class       volVectorField;
    location    "0.09";
    object      U;
}
// * * * * * * * * * * * * * * * * * * * * * * * * * * * * * * * * * * * * * //

dimensions      [0 1 -1 0 0 0 0];

internalField   nonuniform List<vector> 
800
(
(1.85993e-11 0 0)
(9.98191e-11 0 0)
(1.9737e-10 0 0)
(2.52486e-10 0 0)
(2.45373e-10 0 0)
(2.22389e-10 0 0)
(1.81977e-10 0 0)
(1.29054e-10 0 0)
(7.97582e-11 0 0)
(1.6585e-11 0 0)
(-1.87932e-11 0 0)
(-4.22609e-11 0 0)
(-7.20531e-11 0 0)
(-9.77887e-11 0 0)
(-1.06108e-10 0 0)
(-1.59683e-10 0 0)
(-1.76981e-10 0 0)
(-2.12806e-10 0 0)
(-2.43212e-10 0 0)
(-2.15405e-10 0 0)
(-1.34553e-10 0 0)
(-7.08272e-11 0 0)
(-9.58122e-11 0 0)
(-7.96534e-11 0 0)
(-9.44423e-11 0 0)
(-1.68675e-10 0 0)
(-1.77379e-10 0 0)
(-1.79968e-10 0 0)
(-1.66969e-10 0 0)
(-1.24308e-10 0 0)
(-8.81509e-11 0 0)
(-4.42328e-11 0 0)
(4.86322e-11 0 0)
(1.48849e-10 0 0)
(1.77619e-10 0 0)
(9.28569e-11 0 0)
(-2.96714e-11 0 0)
(-1.04085e-10 0 0)
(-1.29892e-10 0 0)
(-1.06472e-10 0 0)
(-4.50113e-11 0 0)
(3.63394e-12 0 0)
(-1.26686e-10 0 0)
(-1.80731e-10 0 0)
(-9.0758e-11 0 0)
(-1.76538e-11 0 0)
(-2.36761e-12 0 0)
(-2.33454e-11 0 0)
(-1.69701e-11 0 0)
(-9.41812e-12 0 0)
(7.01721e-11 0 0)
(1.53485e-10 0 0)
(1.51696e-10 0 0)
(1.26872e-10 0 0)
(9.21423e-11 0 0)
(3.63768e-11 0 0)
(2.85784e-12 0 0)
(-3.04999e-11 0 0)
(-1.31813e-10 0 0)
(-1.83039e-10 0 0)
(-1.63885e-10 0 0)
(-1.65057e-10 0 0)
(-9.21633e-11 0 0)
(6.62649e-12 0 0)
(4.95969e-11 0 0)
(2.25337e-11 0 0)
(-4.32825e-11 0 0)
(-3.83677e-11 0 0)
(2.29605e-11 0 0)
(7.976e-11 0 0)
(1.02511e-10 0 0)
(1.54478e-10 0 0)
(1.99605e-10 0 0)
(1.82927e-10 0 0)
(9.19132e-11 0 0)
(-5.05623e-12 0 0)
(-3.10898e-11 0 0)
(-3.79762e-11 0 0)
(-4.98524e-11 0 0)
(3.80493e-11 0 0)
(7.29517e-11 0 0)
(5.75494e-11 0 0)
(-1.86886e-11 0 0)
(-8.65e-11 0 0)
(-1.02273e-10 0 0)
(-1.83506e-10 0 0)
(-2.55849e-10 0 0)
(-2.5371e-10 0 0)
(-2.44356e-10 0 0)
(-2.14582e-10 0 0)
(-1.43172e-10 0 0)
(-8.39601e-11 0 0)
(-8.41211e-11 0 0)
(-8.41337e-11 0 0)
(-7.33952e-11 0 0)
(-6.77822e-12 0 0)
(7.1222e-11 0 0)
(7.67734e-11 0 0)
(5.65718e-11 0 0)
(-3.99651e-11 0 0)
(-8.38659e-11 0 0)
(-1.10361e-10 0 0)
(-1.5575e-10 0 0)
(-1.19233e-10 0 0)
(-1.13373e-10 0 0)
(-1.04045e-10 0 0)
(-9.60056e-11 0 0)
(-1.19942e-10 0 0)
(-9.12082e-11 0 0)
(-8.25293e-11 0 0)
(-1.15301e-10 0 0)
(-1.68488e-10 0 0)
(-2.15787e-10 0 0)
(-1.72421e-10 0 0)
(-1.27235e-10 0 0)
(-1.50778e-10 0 0)
(-1.28723e-10 0 0)
(-9.5747e-11 0 0)
(-9.96579e-11 0 0)
(-1.10116e-10 0 0)
(-1.21946e-10 0 0)
(-1.39746e-10 0 0)
(-1.51145e-10 0 0)
(-9.90531e-11 0 0)
(-4.61107e-11 0 0)
(-8.31906e-12 0 0)
(6.12601e-11 0 0)
(1.02093e-10 0 0)
(1.26104e-10 0 0)
(9.29035e-11 0 0)
(6.23718e-11 0 0)
(4.30037e-11 0 0)
(7.02441e-11 0 0)
(1.15465e-10 0 0)
(1.09747e-10 0 0)
(6.59367e-11 0 0)
(-1.65969e-11 0 0)
(-1.73941e-10 0 0)
(-2.50011e-10 0 0)
(-1.88271e-10 0 0)
(-1.65362e-10 0 0)
(-1.62155e-10 0 0)
(-1.24883e-10 0 0)
(-4.71028e-11 0 0)
(-4.84707e-11 0 0)
(-8.50089e-11 0 0)
(-7.00053e-11 0 0)
(-6.30469e-11 0 0)
(-8.86193e-11 0 0)
(-6.95684e-11 0 0)
(-4.26567e-11 0 0)
(-1.14369e-10 0 0)
(-1.44052e-10 0 0)
(-1.52377e-10 0 0)
(-9.06696e-11 0 0)
(-1.34864e-11 0 0)
(4.77255e-11 0 0)
(7.54881e-11 0 0)
(8.50423e-11 0 0)
(6.08584e-11 0 0)
(3.04073e-11 0 0)
(-2.82597e-12 0 0)
(-6.20442e-11 0 0)
(-1.08117e-10 0 0)
(-1.12339e-10 0 0)
(-1.3168e-10 0 0)
(-1.40651e-10 0 0)
(-1.60511e-10 0 0)
(-2.18552e-10 0 0)
(-2.68238e-10 0 0)
(-3.32267e-10 0 0)
(-2.74062e-10 0 0)
(-2.23182e-10 0 0)
(-1.73143e-10 0 0)
(-4.3686e-11 0 0)
(7.17898e-11 0 0)
(1.27946e-10 0 0)
(1.54586e-10 0 0)
(1.94605e-10 0 0)
(1.57777e-10 0 0)
(6.70495e-11 0 0)
(3.02002e-11 0 0)
(1.48669e-11 0 0)
(-8.44057e-12 0 0)
(2.29242e-11 0 0)
(9.72813e-11 0 0)
(1.35024e-10 0 0)
(1.1959e-10 0 0)
(3.63327e-11 0 0)
(-1.5351e-11 0 0)
(-5.49702e-11 0 0)
(-5.6895e-11 0 0)
(-2.70322e-11 0 0)
(3.57915e-11 0 0)
(4.97701e-11 0 0)
(8.52819e-11 0 0)
(9.48047e-11 0 0)
(1.42301e-10 0 0)
(2.63982e-10 0 0)
(3.23842e-10 0 0)
(2.64605e-10 0 0)
(2.67072e-10 0 0)
(2.4889e-10 0 0)
(1.884e-10 0 0)
(6.88516e-11 0 0)
(-4.04451e-12 0 0)
(-1.77079e-11 0 0)
(-3.96512e-11 0 0)
(-5.18775e-11 0 0)
(-4.03483e-11 0 0)
(-4.99565e-11 0 0)
(-1.62245e-11 0 0)
(-1.5154e-11 0 0)
(-1.17109e-11 0 0)
(3.23217e-11 0 0)
(6.87921e-11 0 0)
(6.52144e-11 0 0)
(8.49819e-11 0 0)
(1.11812e-10 0 0)
(1.86944e-10 0 0)
(2.08642e-10 0 0)
(1.73675e-10 0 0)
(1.32008e-10 0 0)
(1.38893e-10 0 0)
(1.6603e-10 0 0)
(7.26236e-11 0 0)
(3.11285e-11 0 0)
(9.73109e-11 0 0)
(1.8267e-10 0 0)
(1.91069e-10 0 0)
(1.71434e-10 0 0)
(1.68305e-10 0 0)
(1.53553e-10 0 0)
(1.89639e-10 0 0)
(1.88501e-10 0 0)
(1.35731e-10 0 0)
(1.0461e-10 0 0)
(9.92462e-11 0 0)
(4.0806e-11 0 0)
(-3.11038e-11 0 0)
(-5.49237e-11 0 0)
(-4.88915e-11 0 0)
(-5.23808e-11 0 0)
(-1.68205e-11 0 0)
(4.33183e-11 0 0)
(5.95966e-12 0 0)
(-2.17505e-11 0 0)
(-2.53189e-11 0 0)
(-2.78631e-11 0 0)
(-7.04533e-12 0 0)
(3.72525e-11 0 0)
(1.45193e-10 0 0)
(2.17603e-10 0 0)
(2.84327e-10 0 0)
(3.30581e-10 0 0)
(3.59969e-10 0 0)
(3.60915e-10 0 0)
(4.06456e-10 0 0)
(4.35199e-10 0 0)
(4.18752e-10 0 0)
(3.86134e-10 0 0)
(3.33275e-10 0 0)
(2.09194e-10 0 0)
(9.96874e-11 0 0)
(2.83165e-11 0 0)
(3.74607e-11 0 0)
(6.01169e-11 0 0)
(5.21779e-11 0 0)
(-1.38345e-12 0 0)
(-3.61557e-11 0 0)
(-3.64762e-11 0 0)
(3.85139e-11 0 0)
(1.90876e-10 0 0)
(2.27661e-10 0 0)
(2.36016e-10 0 0)
(2.59735e-10 0 0)
(2.50764e-10 0 0)
(2.44848e-10 0 0)
(1.90213e-10 0 0)
(1.32543e-10 0 0)
(9.20851e-11 0 0)
(-2.03424e-11 0 0)
(-1.44841e-10 0 0)
(-2.58067e-10 0 0)
(-3.78584e-10 0 0)
(-4.16903e-10 0 0)
(-4.59412e-10 0 0)
(-6.21691e-10 0 0)
(-7.35029e-10 0 0)
(-7.69255e-10 0 0)
(-7.35365e-10 0 0)
(-7.61652e-10 0 0)
(4.80787e-09 0 0)
(4.54789e-06 0 0)
(0.000333856 0 0)
(0.00407678 0 0)
(0.015417 0 0)
(0.0305986 0 0)
(0.0447276 0 0)
(0.0568732 0 0)
(0.0676232 0 0)
(0.077588 0 0)
(0.0871472 0 0)
(0.0965029 0 0)
(0.105754 0 0)
(0.114949 0 0)
(0.124109 0 0)
(0.133245 0 0)
(0.142366 0 0)
(0.151475 0 0)
(0.160574 0 0)
(0.169666 0 0)
(0.178753 0 0)
(0.187835 0 0)
(0.196914 0 0)
(0.20599 0 0)
(0.215064 0 0)
(0.224136 0 0)
(0.233206 0 0)
(0.242275 0 0)
(0.251344 0 0)
(0.260411 0 0)
(0.269479 0 0)
(0.278546 0 0)
(0.287612 0 0)
(0.296679 0 0)
(0.305746 0 0)
(0.314813 0 0)
(0.32388 0 0)
(0.332948 0 0)
(0.342016 0 0)
(0.351085 0 0)
(0.360154 0 0)
(0.369224 0 0)
(0.378295 0 0)
(0.387367 0 0)
(0.39644 0 0)
(0.405514 0 0)
(0.414589 0 0)
(0.423665 0 0)
(0.432743 0 0)
(0.441821 0 0)
(0.450902 0 0)
(0.459984 0 0)
(0.469067 0 0)
(0.478152 0 0)
(0.487239 0 0)
(0.496328 0 0)
(0.505419 0 0)
(0.514511 0 0)
(0.523606 0 0)
(0.532703 0 0)
(0.541802 0 0)
(0.550903 0 0)
(0.560006 0 0)
(0.569111 0 0)
(0.578219 0 0)
(0.587329 0 0)
(0.596442 0 0)
(0.605557 0 0)
(0.614674 0 0)
(0.623793 0 0)
(0.632915 0 0)
(0.642039 0 0)
(0.651166 0 0)
(0.660294 0 0)
(0.669425 0 0)
(0.678557 0 0)
(0.687692 0 0)
(0.696828 0 0)
(0.705966 0 0)
(0.715106 0 0)
(0.724247 0 0)
(0.733389 0 0)
(0.742532 0 0)
(0.751675 0 0)
(0.760819 0 0)
(0.769963 0 0)
(0.779107 0 0)
(0.788251 0 0)
(0.797393 0 0)
(0.806535 0 0)
(0.815676 0 0)
(0.824816 0 0)
(0.833954 0 0)
(0.84309 0 0)
(0.852225 0 0)
(0.861358 0 0)
(0.87049 0 0)
(0.879617 0 0)
(0.888731 0 0)
(0.897799 0 0)
(0.906714 0 0)
(0.91519 0 0)
(0.922581 0 0)
(0.927865 0 0)
(0.930354 0 0)
(0.930816 0 0)
(0.929957 0 0)
(0.929057 0 0)
(0.929026 0 0)
(0.929695 0 0)
(0.930067 0 0)
(0.930121 0 0)
(0.930082 0 0)
(0.929973 0 0)
(0.929906 0 0)
(0.929845 0 0)
(0.929735 0 0)
(0.929616 0 0)
(0.929544 0 0)
(0.92949 0 0)
(0.929403 0 0)
(0.929256 0 0)
(0.929116 0 0)
(0.929028 0 0)
(0.928971 0 0)
(0.928936 0 0)
(0.92892 0 0)
(0.928916 0 0)
(0.928902 0 0)
(0.928829 0 0)
(0.928719 0 0)
(0.928644 0 0)
(0.928596 0 0)
(0.928554 0 0)
(0.928526 0 0)
(0.928515 0 0)
(0.928504 0 0)
(0.928464 0 0)
(0.928407 0 0)
(0.928381 0 0)
(0.928384 0 0)
(0.92841 0 0)
(0.928457 0 0)
(0.928538 0 0)
(0.928643 0 0)
(0.928708 0 0)
(0.928731 0 0)
(0.928743 0 0)
(0.928763 0 0)
(0.928791 0 0)
(0.928799 0 0)
(0.928804 0 0)
(0.928837 0 0)
(0.928884 0 0)
(0.928893 0 0)
(0.928862 0 0)
(0.928839 0 0)
(0.928839 0 0)
(0.928826 0 0)
(0.928787 0 0)
(0.928776 0 0)
(0.928793 0 0)
(0.928808 0 0)
(0.928764 0 0)
(0.928703 0 0)
(0.928691 0 0)
(0.928687 0 0)
(0.928655 0 0)
(0.928626 0 0)
(0.928631 0 0)
(0.92865 0 0)
(0.92863 0 0)
(0.928551 0 0)
(0.92852 0 0)
(0.928536 0 0)
(0.928528 0 0)
(0.928521 0 0)
(0.92855 0 0)
(0.928625 0 0)
(0.928688 0 0)
(0.928661 0 0)
(0.928653 0 0)
(0.928698 0 0)
(0.928713 0 0)
(0.928705 0 0)
(0.928715 0 0)
(0.928772 0 0)
(0.928842 0 0)
(0.928855 0 0)
(0.928958 0 0)
(0.929276 0 0)
(0.929902 0 0)
(0.930875 0 0)
(0.928533 0 0)
(0.927777 0 0)
(0.9328 0 0)
(0.931222 0 0)
(0.928713 0 0)
(0.927483 0 0)
(0.927048 0 0)
(0.926733 0 0)
(0.926596 0 0)
(0.926894 0 0)
(0.928546 0 0)
(0.931044 0 0)
(0.931654 0 0)
(0.931293 0 0)
(0.930569 0 0)
(0.928975 0 0)
(0.926971 0 0)
(0.926292 0 0)
(0.926269 0 0)
(0.926477 0 0)
(0.927424 0 0)
(0.929436 0 0)
(0.930823 0 0)
(0.931143 0 0)
(0.931126 0 0)
(0.930328 0 0)
(0.928269 0 0)
(0.926489 0 0)
(0.926192 0 0)
(0.926185 0 0)
(0.926614 0 0)
(0.927971 0 0)
(0.930072 0 0)
(0.931126 0 0)
(0.931122 0 0)
(0.930842 0 0)
(0.929893 0 0)
(0.928011 0 0)
(0.926627 0 0)
(0.926361 0 0)
(0.926559 0 0)
(0.927107 0 0)
(0.928566 0 0)
(0.930414 0 0)
(0.930937 0 0)
(0.930923 0 0)
(0.930646 0 0)
(0.929522 0 0)
(0.927615 0 0)
(0.926726 0 0)
(0.926602 0 0)
(0.92671 0 0)
(0.927431 0 0)
(0.929153 0 0)
(0.930582 0 0)
(0.930766 0 0)
(0.930727 0 0)
(0.930329 0 0)
(0.929114 0 0)
(0.927349 0 0)
(0.926662 0 0)
(0.926688 0 0)
(0.926926 0 0)
(0.927767 0 0)
(0.929421 0 0)
(0.930422 0 0)
(0.930516 0 0)
(0.930401 0 0)
(0.930006 0 0)
(0.929269 0 0)
(0.928176 0 0)
(0.923267 0 0)
(0.873327 0 0)
(0.554102 0 0)
(0.0660999 0 0)
(0.000332169 0 0)
(3.27468e-08 0 0)
(-7.95503e-11 0 0)
(-8.24368e-11 0 0)
(-6.55056e-11 0 0)
(-6.0326e-11 0 0)
(-6.98174e-11 0 0)
(-6.43032e-11 0 0)
(-7.04088e-11 0 0)
(-5.79325e-11 0 0)
(4.75597e-12 0 0)
(2.11324e-11 0 0)
(4.27796e-11 0 0)
(1.06063e-10 0 0)
(8.18437e-11 0 0)
(2.32531e-11 0 0)
(-2.61602e-11 0 0)
(-7.80587e-11 0 0)
(-1.08283e-10 0 0)
(-1.1878e-10 0 0)
(-9.7326e-11 0 0)
(-4.46047e-11 0 0)
(-1.52864e-11 0 0)
(-6.06817e-11 0 0)
(-1.47882e-10 0 0)
(-2.32012e-10 0 0)
(-3.35417e-10 0 0)
(-4.37935e-10 0 0)
(-4.24115e-10 0 0)
(-3.93612e-10 0 0)
(-3.70924e-10 0 0)
(-3.52251e-10 0 0)
(-3.5997e-10 0 0)
(-3.65085e-10 0 0)
(-3.02509e-10 0 0)
(-1.97152e-10 0 0)
(-1.26376e-10 0 0)
(-4.97583e-11 0 0)
(3.95521e-12 0 0)
(-1.84559e-11 0 0)
(-9.54728e-11 0 0)
(-3.24584e-11 0 0)
(7.99584e-14 0 0)
(5.49342e-11 0 0)
(7.38689e-11 0 0)
(1.15517e-11 0 0)
(-1.01663e-11 0 0)
(-3.16668e-11 0 0)
(-6.81645e-11 0 0)
(-5.41282e-11 0 0)
(-7.02839e-11 0 0)
(-8.18282e-11 0 0)
(1.92836e-11 0 0)
(1.20049e-10 0 0)
(6.45565e-11 0 0)
(2.83982e-11 0 0)
(4.17359e-12 0 0)
(-5.44593e-12 0 0)
(3.92243e-11 0 0)
(3.38648e-11 0 0)
(4.81077e-11 0 0)
(5.04873e-11 0 0)
(-1.69539e-11 0 0)
(-6.95814e-11 0 0)
(-8.47159e-11 0 0)
(-1.44163e-10 0 0)
(-1.67906e-10 0 0)
(-1.93446e-10 0 0)
(-1.01122e-10 0 0)
(1.90123e-11 0 0)
(1.23222e-10 0 0)
(2.17412e-10 0 0)
(2.39192e-10 0 0)
(2.04478e-10 0 0)
(1.11246e-10 0 0)
(5.14007e-11 0 0)
(6.19202e-11 0 0)
(7.5885e-11 0 0)
(5.38257e-11 0 0)
(3.06142e-11 0 0)
(2.75262e-12 0 0)
(-5.15487e-11 0 0)
(-8.97947e-11 0 0)
(-1.40008e-10 0 0)
(-1.09746e-10 0 0)
(-6.09554e-11 0 0)
(-8.214e-11 0 0)
(-1.54648e-10 0 0)
(-2.00896e-10 0 0)
(-1.75271e-10 0 0)
(-1.42615e-10 0 0)
(-1.68214e-10 0 0)
(-1.90014e-10 0 0)
(-1.80231e-10 0 0)
(-1.71051e-10 0 0)
(-1.36145e-10 0 0)
(-4.71351e-11 0 0)
(2.39992e-11 0 0)
(4.7075e-11 0 0)
(6.40525e-11 0 0)
(3.45507e-12 0 0)
(-4.9049e-11 0 0)
(-1.08248e-10 0 0)
(-9.28738e-11 0 0)
(-3.10571e-12 0 0)
(5.76475e-11 0 0)
(8.35215e-11 0 0)
(6.8172e-11 0 0)
(5.21629e-11 0 0)
(7.91971e-11 0 0)
(4.95607e-11 0 0)
(2.24901e-11 0 0)
(3.50424e-12 0 0)
(-3.7622e-11 0 0)
(-9.47771e-11 0 0)
(-1.46594e-10 0 0)
(-1.87991e-10 0 0)
(-1.12147e-10 0 0)
(-7.00772e-11 0 0)
(-1.15646e-10 0 0)
(-1.55364e-10 0 0)
(-1.81866e-10 0 0)
(-1.30192e-10 0 0)
(1.40085e-12 0 0)
(9.0301e-11 0 0)
(1.23539e-10 0 0)
(2.35601e-11 0 0)
(-5.43708e-11 0 0)
(8.50922e-12 0 0)
(1.08026e-10 0 0)
(1.52039e-10 0 0)
(1.53384e-10 0 0)
(1.56746e-10 0 0)
(6.42466e-11 0 0)
(-3.56041e-11 0 0)
(-8.70549e-11 0 0)
(-6.93349e-11 0 0)
(-5.72771e-11 0 0)
(-9.3098e-11 0 0)
(1.88115e-11 0 0)
(7.85591e-11 0 0)
(8.38109e-11 0 0)
(1.7953e-10 0 0)
(2.77969e-10 0 0)
(2.75483e-10 0 0)
(2.2171e-10 0 0)
(2.19127e-10 0 0)
(1.48673e-10 0 0)
(4.5305e-11 0 0)
(2.64728e-12 0 0)
(-1.01651e-11 0 0)
(-1.94708e-11 0 0)
(-2.32156e-11 0 0)
(-5.30484e-11 0 0)
(-7.46888e-11 0 0)
(-1.48464e-10 0 0)
(-2.43783e-10 0 0)
(-2.54715e-10 0 0)
(-1.71337e-10 0 0)
(-5.72398e-11 0 0)
(2.34223e-11 0 0)
(3.87348e-11 0 0)
(-1.45963e-11 0 0)
(1.88871e-11 0 0)
(3.41612e-11 0 0)
(-4.89141e-11 0 0)
(-5.66848e-11 0 0)
(-1.71555e-11 0 0)
(6.17624e-11 0 0)
(7.64703e-11 0 0)
(1.3265e-10 0 0)
(1.80758e-10 0 0)
(2.23291e-10 0 0)
(2.56231e-10 0 0)
(2.80301e-10 0 0)
(2.58726e-10 0 0)
(2.64592e-10 0 0)
(2.29301e-10 0 0)
(1.51007e-10 0 0)
(1.19724e-10 0 0)
(4.14127e-11 0 0)
(-1.09736e-11 0 0)
(4.93053e-11 0 0)
(1.14272e-10 0 0)
(1.03744e-10 0 0)
(2.26644e-11 0 0)
(-4.56108e-11 0 0)
(-4.34088e-11 0 0)
(-4.00345e-11 0 0)
(6.91185e-11 0 0)
(1.4501e-10 0 0)
(1.48679e-10 0 0)
(2.20354e-10 0 0)
(2.40822e-10 0 0)
(2.12982e-10 0 0)
(2.06669e-10 0 0)
(1.69561e-10 0 0)
(1.49853e-10 0 0)
(9.02224e-11 0 0)
(5.22913e-11 0 0)
(-2.70932e-11 0 0)
(4.5321e-12 0 0)
(-8.7018e-11 0 0)
(-1.2125e-10 0 0)
(-2.39255e-11 0 0)
(2.27596e-11 0 0)
(5.47981e-11 0 0)
(1.03582e-10 0 0)
(7.01016e-11 0 0)
(7.34454e-11 0 0)
(6.37206e-11 0 0)
(-6.50118e-13 0 0)
(-6.67116e-11 0 0)
(-1.61635e-10 0 0)
(-1.53408e-10 0 0)
(-1.37316e-10 0 0)
(-1.68945e-10 0 0)
(-1.26668e-10 0 0)
(-3.8326e-11 0 0)
(-2.58492e-11 0 0)
(-2.39716e-11 0 0)
(-7.15508e-11 0 0)
(-1.13096e-10 0 0)
(-8.74034e-11 0 0)
(3.24325e-11 0 0)
(7.22576e-11 0 0)
(-1.77465e-11 0 0)
(-8.87214e-11 0 0)
(-9.14245e-11 0 0)
(-8.42982e-11 0 0)
(-1.77374e-11 0 0)
(6.82518e-11 0 0)
(1.37136e-10 0 0)
(1.87804e-10 0 0)
(2.0343e-10 0 0)
(2.35659e-10 0 0)
(2.71548e-10 0 0)
(2.87873e-10 0 0)
(1.79094e-10 0 0)
(6.58736e-11 0 0)
)
;

boundaryField
{
    left
    {
        type            noSlip;
    }
    right
    {
        type            noSlip;
    }
    empty
    {
        type            empty;
    }
}


// ************************************************************************* //
