/*--------------------------------*- C++ -*----------------------------------*\
| =========                 |                                                 |
| \\      /  F ield         | OpenFOAM: The Open Source CFD Toolbox           |
|  \\    /   O peration     | Version:  2106                                  |
|   \\  /    A nd           | Website:  www.openfoam.com                      |
|    \\/     M anipulation  |                                                 |
\*---------------------------------------------------------------------------*/
FoamFile
{
    version     2.0;
    format      ascii;
    arch        "LSB;label=32;scalar=64";
    class       volVectorField;
    location    "0.245";
    object      U;
}
// * * * * * * * * * * * * * * * * * * * * * * * * * * * * * * * * * * * * * //

dimensions      [0 1 -1 0 0 0 0];

internalField   nonuniform List<vector> 
11200
(
(0.662462405526 0.150569442374 0)
(0.558948680309 0.103243388315 0)
(0.383850751191 0.0513512242607 0)
(0.283747616221 0.0248708553165 0)
(0.232075298503 0.0124170452692 0)
(0.201908622809 0.00662281685829 0)
(0.183197976676 0.0038029144314 0)
(0.171276539561 0.00231587008751 0)
(0.163510363944 0.00146450659158 0)
(0.158388833251 0.000944892454557 0)
(0.155006699864 0.000615176927762 0)
(0.152786749494 0.000402233844103 0)
(0.151346603427 0.000264232273166 0)
(0.150428369968 0.000175250238357 0)
(0.149856768827 0.000118360811174 0)
(0.149512570192 8.21601890609e-05 0)
(0.14931501188 5.88662039957e-05 0)
(0.149209651645 4.33161166039e-05 0)
(0.149159793325 3.29350570061e-05 0)
(0.149142553158 2.81864825536e-05 0)
(0.149144706816 2.76844801651e-05 0)
(0.149156978818 2.98901316646e-05 0)
(0.149172595532 3.30505556178e-05 0)
(0.14918813718 3.59662103292e-05 0)
(0.149202339378 3.86017857083e-05 0)
(0.149214602215 4.10409360804e-05 0)
(0.149224757976 4.33182930241e-05 0)
(0.149232913459 4.54649863172e-05 0)
(0.14923930529 4.75202774034e-05 0)
(0.149244215453 4.95312308976e-05 0)
(0.149247929019 5.15599030789e-05 0)
(0.149250713397 5.36973226627e-05 0)
(0.149252765648 5.60259990608e-05 0)
(0.149254255979 5.84074211631e-05 0)
(0.149255316948 6.07684689855e-05 0)
(0.149256035098 6.30895545586e-05 0)
(0.149256507406 6.53809721579e-05 0)
(0.149256817567 6.76556510942e-05 0)
(0.149257019232 6.99252035529e-05 0)
(0.14925714154 7.21957508167e-05 0)
(0.149257205351 7.44683807603e-05 0)
(0.149257227844 7.6744065399e-05 0)
(0.149257221149 7.90225042086e-05 0)
(0.149257194047 8.13025550917e-05 0)
(0.149257152808 8.35824633722e-05 0)
(0.149257102101 8.58598758342e-05 0)
(0.149257045977 8.81320144518e-05 0)
(0.149256988476 9.03958261711e-05 0)
(0.149256933934 9.264818202e-05 0)
(0.149256887353 9.48860196636e-05 0)
(0.149256855575 9.71062508184e-05 0)
(0.149256848281 9.93060167372e-05 0)
(0.149256878623 0.000101482396386 0)
(0.14925696462 0.000103632053017 0)
(0.149257131587 0.000105750716701 0)
(0.149257415677 0.00010783271759 0)
(0.14925786727 0.000109871297605 0)
(0.149258560378 0.000111856549801 0)
(0.149259604379 0.000113775817081 0)
(0.149261157325 0.000115604784522 0)
(0.149263462943 0.000117288399904 0)
(0.1492669294 0.000118740342066 0)
(0.149272029912 0.000119999336822 0)
(0.149279409012 0.000121255769251 0)
(0.149290097476 0.000122968828311 0)
(0.14930561559 0.000125336547853 0)
(0.149328347618 0.000128117976802 0)
(0.149361989669 0.000131083678203 0)
(0.14941213617 0.000134016579423 0)
(0.149487021436 0.000136801802326 0)
(0.149598591184 0.000140713962936 0)
(0.149769684667 0.000151575441207 0)
(0.150038094666 0.000172322982952 0)
(0.150467023152 0.000202607637623 0)
(0.151192337163 0.000232569694783 0)
(0.152491851361 0.000191750801167 0)
(0.155022062913 -0.000217024412526 0)
(0.162378282502 -0.00211203588209 0)
(0.187719527574 -0.0107982407361 0)
(0.204427655814 -0.0497118815895 0)
(0.965408256151 0.289214706219 0)
(0.961962866013 0.252656039618 0)
(0.823574403404 0.159021441371 0)
(0.698139384666 0.0959957310649 0)
(0.610225483618 0.0582481140946 0)
(0.548971515073 0.036214853238 0)
(0.506588915197 0.0231612852594 0)
(0.477567297473 0.0151375155273 0)
(0.457745521765 0.0100177554388 0)
(0.44422849175 0.00665814151929 0)
(0.435053330276 0.00441555665551 0)
(0.428873150282 0.00290686625008 0)
(0.424754234198 0.00189105880818 0)
(0.422046684278 0.00121004568817 0)
(0.420297847098 0.000757163699814 0)
(0.41919323792 0.000459256066328 0)
(0.41851563267 0.000265854904566 0)
(0.418116485612 0.000142399693316 0)
(0.417895881862 6.6109531382e-05 0)
(0.417786830647 2.30919470462e-05 0)
(0.417745415592 1.4069908959e-06 0)
(0.417742137709 -1.01636883399e-05 0)
(0.41775673517 -1.37151196243e-05 0)
(0.417778693578 -1.32684912177e-05 0)
(0.417802987714 -1.08361227783e-05 0)
(0.417826358251 -7.4928703495e-06 0)
(0.417847111789 -3.87631325485e-06 0)
(0.417864649573 -3.56565429769e-07 0)
(0.417878975459 2.8648993391e-06 0)
(0.417890404868 5.68418593649e-06 0)
(0.417899409659 8.03694022591e-06 0)
(0.417906483031 9.83865720143e-06 0)
(0.417911826888 1.10074190452e-05 0)
(0.417915675334 1.18598719429e-05 0)
(0.417918406088 1.26818606721e-05 0)
(0.41792029415 1.34386674851e-05 0)
(0.417921581967 1.41125112035e-05 0)
(0.417922460899 1.47276794802e-05 0)
(0.417923057111 1.53131649074e-05 0)
(0.41792344213 1.58825428237e-05 0)
(0.417923668587 1.64362279981e-05 0)
(0.417923779796 1.69793274267e-05 0)
(0.41792380644 1.7515500614e-05 0)
(0.41792377102 1.80480739716e-05 0)
(0.417923689736 1.85801437421e-05 0)
(0.417923574679 1.91140568585e-05 0)
(0.417923436229 1.96517971648e-05 0)
(0.41792328473 2.01953035587e-05 0)
(0.417923131534 2.07466842891e-05 0)
(0.417922989899 2.13076345613e-05 0)
(0.417922877663 2.18783264327e-05 0)
(0.417922819561 2.24590355654e-05 0)
(0.417922849004 2.30498334697e-05 0)
(0.417923011758 2.365028489e-05 0)
(0.417923372051 2.42593864382e-05 0)
(0.417924022277 2.48759257223e-05 0)
(0.417925092282 2.54991481922e-05 0)
(0.417926772899 2.61166522855e-05 0)
(0.417929341363 2.67102286689e-05 0)
(0.417933186395 2.72498958466e-05 0)
(0.417938901728 2.76896529696e-05 0)
(0.417947583661 2.79711969062e-05 0)
(0.417960727431 2.82546305178e-05 0)
(0.41798046443 2.78198986966e-05 0)
(0.4180095705 2.52514454731e-05 0)
(0.418051651371 1.94501804406e-05 0)
(0.418112877571 9.61212768013e-06 0)
(0.418203369089 -5.79238625976e-06 0)
(0.418338734572 -2.92882149989e-05 0)
(0.418543881992 -6.45602842454e-05 0)
(0.418860734948 -0.000115809642739 0)
(0.419358951762 -0.000188020308145 0)
(0.420152100827 -0.000307898189314 0)
(0.421444020638 -0.000533077977053 0)
(0.423626729226 -0.00100051304518 0)
(0.427419686088 -0.00209225599357 0)
(0.434246672465 -0.00486092615628 0)
(0.448286310389 -0.012266177119 0)
(0.474695323631 -0.0342764281027 0)
(0.478278421193 -0.0988798752834 0)
(1.02222096718 0.238416186413 0)
(1.0821375364 0.295926651875 0)
(1.03447723857 0.239503065631 0)
(0.954615426134 0.174290163799 0)
(0.879992077188 0.121345467919 0)
(0.818614461543 0.0830993838235 0)
(0.771410880765 0.0567316670094 0)
(0.736634424991 0.0387409685626 0)
(0.711624470975 0.0264327871329 0)
(0.693916663196 0.0179731048847 0)
(0.681541457368 0.0121424481744 0)
(0.673000168606 0.00812490845693 0)
(0.667180706911 0.00536632131516 0)
(0.663271739923 0.00348444500171 0)
(0.660688571229 0.00221256166984 0)
(0.659014248943 0.00136338180761 0)
(0.657954569567 0.000805243543276 0)
(0.657304277663 0.000445916062405 0)
(0.656921859587 0.000221067618855 0)
(0.656710294063 8.55799955739e-05 0)
(0.656603429379 8.35636014752e-06 0)
(0.656561879483 -3.37213053617e-05 0)
(0.656557977483 -5.68557416429e-05 0)
(0.656571451187 -6.68747415801e-05 0)
(0.656592978518 -6.84819834867e-05 0)
(0.65661679591 -6.55603266551e-05 0)
(0.656639596039 -6.05491190755e-05 0)
(0.656659772037 -5.48590495303e-05 0)
(0.656676738664 -4.92745985191e-05 0)
(0.656690473763 -4.42027546471e-05 0)
(0.656701223729 -3.98384411805e-05 0)
(0.656709372928 -3.63002455409e-05 0)
(0.656715617317 -3.3693925425e-05 0)
(0.656720647078 -3.18551810997e-05 0)
(0.656724505335 -3.08089624903e-05 0)
(0.656727207219 -3.03021761801e-05 0)
(0.656729064925 -3.02470330395e-05 0)
(0.656730357908 -3.0558125964e-05 0)
(0.656731253435 -3.10857351727e-05 0)
(0.656731841346 -3.17474940348e-05 0)
(0.656732195915 -3.25138214199e-05 0)
(0.656732382393 -3.33496028663e-05 0)
(0.656732445964 -3.42303489234e-05 0)
(0.656732420651 -3.51367977295e-05 0)
(0.656732331063 -3.60535944375e-05 0)
(0.656732195649 -3.69700410264e-05 0)
(0.656732030385 -3.78786539242e-05 0)
(0.656731851013 -3.87739855139e-05 0)
(0.656731673947 -3.96511584713e-05 0)
(0.656731516952 -4.05049691622e-05 0)
(0.656731404489 -4.13315181443e-05 0)
(0.656731371863 -4.21266463738e-05 0)
(0.65673146733 -4.28884755973e-05 0)
(0.656731757986 -4.36196660431e-05 0)
(0.656732339285 -4.43326759387e-05 0)
(0.656733348878 -4.50583816145e-05 0)
(0.656734972635 -4.58485985986e-05 0)
(0.656737482667 -4.67993007726e-05 0)
(0.656741287066 -4.80372087542e-05 0)
(0.656746984482 -4.97750526604e-05 0)
(0.656755491814 -5.25099162212e-05 0)
(0.656768454737 -5.7291378643e-05 0)
(0.656787226408 -6.48855813646e-05 0)
(0.656813239358 -7.61800383812e-05 0)
(0.656850288949 -9.28530049458e-05 0)
(0.656905083729 -0.000117317296199 0)
(0.656987024626 -0.000152773075466 0)
(0.657109905332 -0.000204508998043 0)
(0.657295548508 -0.000281053818784 0)
(0.657579369407 -0.000396300148114 0)
(0.658019544866 -0.000574629128524 0)
(0.658705362602 -0.00086336042165 0)
(0.659784040798 -0.0013526762836 0)
(0.661513426316 -0.00221589565721 0)
(0.664336267301 -0.00381597485537 0)
(0.668949405251 -0.00695263063872 0)
(0.676380701464 -0.0133666779092 0)
(0.688641437844 -0.0268744245207 0)
(0.705296205942 -0.0563892588155 0)
(0.700594946218 -0.113244726375 0)
(1.02251475628 0.170807151858 0)
(1.10138976367 0.276496477793 0)
(1.11752427271 0.266664798432 0)
(1.09214662154 0.21990169834 0)
(1.0518781761 0.168168847174 0)
(1.01020824791 0.123567396357 0)
(0.973494717157 0.0888375213348 0)
(0.943864584727 0.063006371422 0)
(0.921142830357 0.0442232040468 0)
(0.904284105382 0.0307423927912 0)
(0.892074903326 0.021156294279 0)
(0.883404547111 0.0143954688132 0)
(0.877352709109 0.00966794859939 0)
(0.873197748196 0.0063938376203 0)
(0.870392973273 0.00415116515711 0)
(0.868534086038 0.00263449098363 0)
(0.867327690298 0.0016240170436 0)
(0.866564287839 0.000962675148003 0)
(0.866096530643 0.000539121053859 0)
(0.865822288199 0.000275151868539 0)
(0.865671443934 0.000117066453243 0)
(0.865595192642 2.8790416478e-05 0)
(0.865564133677 -1.93266448908e-05 0)
(0.865561324487 -4.12628293199e-05 0)
(0.865572667255 -4.76666984687e-05 0)
(0.865589672461 -4.55257971237e-05 0)
(0.865607981103 -3.91559796584e-05 0)
(0.865625319231 -3.11447581414e-05 0)
(0.865640603021 -2.29632572945e-05 0)
(0.865653465441 -1.53791124622e-05 0)
(0.865663938018 -8.72103219168e-06 0)
(0.865672224173 -3.0417045445e-06 0)
(0.865678576132 1.73710072472e-06 0)
(0.865683201407 5.46830453179e-06 0)
(0.865686518132 8.03497831303e-06 0)
(0.865688913406 9.79172546463e-06 0)
(0.865690542008 1.11453193536e-05 0)
(0.865691700386 1.22901294426e-05 0)
(0.865692563952 1.32590496728e-05 0)
(0.865693151224 1.41456452635e-05 0)
(0.865693510369 1.49411908578e-05 0)
(0.865693705758 1.56683891082e-05 0)
(0.865693776284 1.63427536935e-05 0)
(0.865693753441 1.69807604915e-05 0)
(0.865693659386 1.75970268607e-05 0)
(0.865693510205 1.82018162734e-05 0)
(0.86569332081 1.88028901839e-05 0)
(0.865693107709 1.94072918488e-05 0)
(0.865692890775 2.0024359823e-05 0)
(0.865692692614 2.06591764971e-05 0)
(0.865692543482 2.12986369048e-05 0)
(0.865692484474 2.19308981131e-05 0)
(0.865692568685 2.25397191014e-05 0)
(0.865692865794 2.30990772616e-05 0)
(0.865693467662 2.35703253107e-05 0)
(0.865694507485 2.3911151271e-05 0)
(0.865696165916 2.41000309668e-05 0)
(0.865698726063 2.40133388794e-05 0)
(0.865702597059 2.34952728845e-05 0)
(0.865708205792 2.21462215627e-05 0)
(0.865715962963 1.9381065559e-05 0)
(0.86572750809 1.45547333547e-05 0)
(0.865745456739 5.81682750894e-06 0)
(0.86577275046 -8.46851052932e-06 0)
(0.865813274642 -3.02950500575e-05 0)
(0.865872937091 -6.35981166901e-05 0)
(0.865961067609 -0.000115258113779 0)
(0.866092174582 -0.000196047747401 0)
(0.866288811199 -0.000323244913538 0)
(0.866585813245 -0.000525357420952 0)
(0.867036826465 -0.000851390811714 0)
(0.86772699923 -0.00138838186845 0)
(0.868792833937 -0.00228529415511 0)
(0.870447869381 -0.00381707486379 0)
(0.873011506542 -0.00650867355244 0)
(0.87688352191 -0.0113709098371 0)
(0.882387814976 -0.0202757580951 0)
(0.889709513186 -0.0364998243238 0)
(0.896405359216 -0.0655866634508 0)
(0.886601972088 -0.110230064934 0)
(1.01287875244 0.118961023024 0)
(1.08820671325 0.231806936523 0)
(1.13741368088 0.253106764392 0)
(1.15409088063 0.22899275364 0)
(1.1499421254 0.188368359298 0)
(1.13538467407 0.146579844662 0)
(1.11758897009 0.110150966443 0)
(1.10059502667 0.0808162228408 0)
(1.08612459842 0.0582265770874 0)
(1.07459095427 0.0413189856608 0)
(1.06579149899 0.0289160209102 0)
(1.05928802367 0.0199601007235 0)
(1.05459980082 0.0135815609023 0)
(1.05129080478 0.00909744395391 0)
(1.0489998888 0.00598615465375 0)
(1.04744344718 0.00385696693944 0)
(1.04640657497 0.00242159820239 0)
(1.04573066052 0.00147015009243 0)
(1.04530110549 0.000851701598993 0)
(1.04503660821 0.000459015773019 0)
(1.04488024513 0.000216756154642 0)
(1.0447926281 7.30170237482e-05 0)
(1.0447487621 -5.50474080635e-06 0)
(1.04473186185 -4.40087987393e-05 0)
(1.04472961022 -5.93856786139e-05 0)
(1.04473509324 -6.17190231282e-05 0)
(1.04474404013 -5.72451090291e-05 0)
(1.04475392298 -4.98028749606e-05 0)
(1.04476336216 -4.16434113631e-05 0)
(1.04477168753 -3.39877064247e-05 0)
(1.04477864862 -2.74221140198e-05 0)
(1.04478423273 -2.21501209164e-05 0)
(1.04478858588 -1.812673626e-05 0)
(1.04479191902 -1.51379950203e-05 0)
(1.04479448696 -1.28064816352e-05 0)
(1.04479658334 -1.10100134488e-05 0)
(1.04479831916 -9.52073168127e-06 0)
(1.04479963983 -8.23093555464e-06 0)
(1.04480061555 -7.21199527596e-06 0)
(1.04480129721 -6.54326243496e-06 0)
(1.0448017066 -6.16356560279e-06 0)
(1.04480193046 -5.95451455849e-06 0)
(1.04480201439 -5.86577469854e-06 0)
(1.04480199691 -5.84719235888e-06 0)
(1.04480190282 -5.85866488847e-06 0)
(1.04480174995 -5.88060116536e-06 0)
(1.04480155631 -5.90363567389e-06 0)
(1.04480134372 -5.92462694901e-06 0)
(1.04480113241 -5.94946131817e-06 0)
(1.04480092837 -5.98401902102e-06 0)
(1.04480075106 -6.01318449381e-06 0)
(1.04480064445 -6.03583948644e-06 0)
(1.04480066135 -6.05839177923e-06 0)
(1.04480087336 -6.09500986945e-06 0)
(1.04480139481 -6.17939335136e-06 0)
(1.04480242435 -6.41011349575e-06 0)
(1.0448041472 -7.05906079533e-06 0)
(1.04480682644 -8.40361560542e-06 0)
(1.04481078743 -1.09264587135e-05 0)
(1.04481649275 -1.47375050232e-05 0)
(1.04482497377 -1.9695023657e-05 0)
(1.04483737689 -2.58768589404e-05 0)
(1.04485494394 -3.56063580733e-05 0)
(1.04487999228 -5.18577747881e-05 0)
(1.04491599053 -7.8860366534e-05 0)
(1.04496808088 -0.00012286798661 0)
(1.04504386042 -0.000193660487346 0)
(1.04515467043 -0.000306829197489 0)
(1.04531765163 -0.000487563373631 0)
(1.04555866928 -0.000776933997174 0)
(1.04591642632 -0.00124234599012 0)
(1.04644882562 -0.00199558028611 0)
(1.04724007125 -0.00322744700861 0)
(1.04840328638 -0.00526921845357 0)
(1.05006609691 -0.00869863605411 0)
(1.05228565691 -0.0145111020668 0)
(1.05481862019 -0.0243167326319 0)
(1.05687594339 -0.0404310664424 0)
(1.05575127096 -0.0657030825405 0)
(1.04214209758 -0.0996505893635 0)
(1.00447483591 0.0814039973356 0)
(1.06917237811 0.181288538882 0)
(1.13080569583 0.216950418808 0)
(1.17375001657 0.21078915582 0)
(1.19865266836 0.183690077352 0)
(1.21019990025 0.14975168391 0)
(1.21350258132 0.116779144653 0)
(1.2125172677 0.088220678304 0)
(1.20973101344 0.065048151196 0)
(1.20651122975 0.0470209090434 0)
(1.20351916961 0.0334068086242 0)
(1.20101149132 0.0233557326428 0)
(1.19903449338 0.0160720139802 0)
(1.19753882403 0.0108795138796 0)
(1.19644136118 0.00723418819955 0)
(1.19565563377 0.00471351855343 0)
(1.19510493899 0.00299762906372 0)
(1.19472652673 0.00184916072103 0)
(1.19447154611 0.00109496018617 0)
(1.19430323577 0.000610611069491 0)
(1.19419459603 0.000307986275782 0)
(1.19412631053 0.00012576830818 0)
(1.19408525952 2.22231232402e-05 0)
(1.1940619991 -3.24517487726e-05 0)
(1.19404969684 -5.72701431664e-05 0)
(1.19404419589 -6.45955665443e-05 0)
(1.19404269551 -6.23733652333e-05 0)
(1.19404337731 -5.5518430804e-05 0)
(1.19404512568 -4.69411332895e-05 0)
(1.19404728242 -3.82549396014e-05 0)
(1.1940494751 -3.02609224547e-05 0)
(1.19405151161 -2.32640511526e-05 0)
(1.19405332283 -1.72878888947e-05 0)
(1.19405490303 -1.22588947678e-05 0)
(1.19405626838 -8.07059807824e-06 0)
(1.19405743807 -4.66904662948e-06 0)
(1.19405838441 -2.05819342498e-06 0)
(1.19405905396 -1.68993483129e-07 0)
(1.1940594063 1.14819388119e-06 0)
(1.19405951753 2.00465100292e-06 0)
(1.19405956864 2.68404514665e-06 0)
(1.19405959546 3.28835772739e-06 0)
(1.19405957259 3.81738242796e-06 0)
(1.19405951683 4.2796567758e-06 0)
(1.19405942298 4.68723713052e-06 0)
(1.19405928177 5.05696750349e-06 0)
(1.19405909528 5.40062148176e-06 0)
(1.19405886902 5.72032351908e-06 0)
(1.1940586175 6.005307735e-06 0)
(1.19405838283 6.24750728593e-06 0)
(1.19405820562 6.46910730881e-06 0)
(1.19405811586 6.66199301782e-06 0)
(1.19405816317 6.79982390138e-06 0)
(1.19405840826 6.84236568903e-06 0)
(1.19405889437 6.73235907693e-06 0)
(1.19405959061 6.38564123435e-06 0)
(1.19406056878 5.63282266222e-06 0)
(1.19406199222 4.13379415222e-06 0)
(1.19406447728 1.41762172081e-06 0)
(1.19406907055 -2.76940423476e-06 0)
(1.19407638502 -9.19755459348e-06 0)
(1.19408632544 -1.927878855e-05 0)
(1.19409961129 -3.50068526043e-05 0)
(1.19411823117 -5.9293668163e-05 0)
(1.19414431302 -9.6722969621e-05 0)
(1.19418066808 -0.000154612232389 0)
(1.1942312762 -0.000244616662577 0)
(1.1943017583 -0.000385229963856 0)
(1.19439998216 -0.000605940042167 0)
(1.19453670736 -0.000954141283885 0)
(1.19472597726 -0.00150645735084 0)
(1.19498456094 -0.00238732999439 0)
(1.19532726187 -0.0038003096976 0)
(1.19575135089 -0.00607890413141 0)
(1.19619652434 -0.00976295659955 0)
(1.19644303445 -0.0156980209886 0)
(1.195903839 -0.0250979925298 0)
(1.19342356524 -0.0394234900019 0)
(1.18666459897 -0.0599251820557 0)
(1.17010190686 -0.0853033864414 0)
(0.998962326834 0.0544316253275 0)
(1.05310957309 0.133401607907 0)
(1.11628269088 0.170777558586 0)
(1.17301273187 0.175143872557 0)
(1.21791247858 0.15958360702 0)
(1.25049859872 0.134951020874 0)
(1.27288493474 0.108411657613 0)
(1.28776724797 0.083884972558 0)
(1.29745270993 0.0630565730344 0)
(1.30366078366 0.04629992204 0)
(1.30759238001 0.0333205155041 0)
(1.31005374109 0.0235495247692 0)
(1.3115736682 0.0163599085623 0)
(1.31249497393 0.011171315926 0)
(1.31303866977 0.00749150736301 0)
(1.31334676403 0.00492448631425 0)
(1.31351018039 0.00316295525907 0)
(1.31358681255 0.00197475142553 0)
(1.31361319092 0.00118819596567 0)
(1.31361204324 0.000678627950073 0)
(1.31359720726 0.000357006858216 0)
(1.31357688759 0.000160752465985 0)
(1.31355589455 4.64677789962e-05 0)
(1.31353660023 -1.58704853386e-05 0)
(1.31351994329 -4.60586621287e-05 0)
(1.31350625549 -5.70683052089e-05 0)
(1.31349535192 -5.73226009483e-05 0)
(1.31348689551 -5.20836622583e-05 0)
(1.31348049808 -4.45208660845e-05 0)
(1.31347577445 -3.64586628056e-05 0)
(1.31347237355 -2.88701316361e-05 0)
(1.31346999228 -2.22087542739e-05 0)
(1.31346837102 -1.66259956159e-05 0)
(1.31346728142 -1.21293454189e-05 0)
(1.31346655798 -8.65301941404e-06 0)
(1.31346610329 -6.09546726636e-06 0)
(1.31346581609 -4.31945384488e-06 0)
(1.31346560702 -3.11732945078e-06 0)
(1.31346547387 -2.25938378253e-06 0)
(1.3134655023 -1.54147581623e-06 0)
(1.31346565402 -9.64959557969e-07 0)
(1.31346575074 -5.50719011809e-07 0)
(1.31346574131 -1.88670657431e-07 0)
(1.3134656581 1.4976569719e-07 0)
(1.31346552304 4.62817350454e-07 0)
(1.31346534833 7.59370273874e-07 0)
(1.31346513701 1.05168111251e-06 0)
(1.31346489119 1.35129265967e-06 0)
(1.31346462268 1.67047807511e-06 0)
(1.31346436479 2.00574731011e-06 0)
(1.31346413747 2.30874814467e-06 0)
(1.31346394811 2.54311426881e-06 0)
(1.31346382712 2.66525095297e-06 0)
(1.31346382602 2.61136721737e-06 0)
(1.31346403042 2.29349699948e-06 0)
(1.31346455901 1.61672251474e-06 0)
(1.31346540885 5.35940625501e-07 0)
(1.31346661535 -1.15125305436e-06 0)
(1.31346861006 -3.61201781376e-06 0)
(1.3134716535 -7.57485518218e-06 0)
(1.31347591199 -1.4342123718e-05 0)
(1.31348161996 -2.55070057804e-05 0)
(1.31348904233 -4.26512938109e-05 0)
(1.31349866095 -6.89381612129e-05 0)
(1.31351078876 -0.000109395628309 0)
(1.31352549585 -0.000171770125265 0)
(1.31354238844 -0.000268152969137 0)
(1.31356013963 -0.000417506655035 0)
(1.31357552898 -0.000649668679069 0)
(1.31358160794 -0.00101191613915 0)
(1.3135642992 -0.00157936211607 0)
(1.31349610811 -0.00247116454183 0)
(1.31332268233 -0.00387486063364 0)
(1.31293629757 -0.00608332497275 0)
(1.31212671763 -0.00954189959988 0)
(1.3104881451 -0.0148935568426 0)
(1.3072663784 -0.0229689215868 0)
(1.30125014773 -0.0346120768618 0)
(1.29056842514 -0.0502658106454 0)
(1.2717428354 -0.0687103916165 0)
(0.995736075373 0.0346338600116 0)
(1.04179514924 0.0905689215725 0)
(1.10222839802 0.121549565488 0)
(1.16491413238 0.129605834781 0)
(1.22202568423 0.122009269317 0)
(1.26951894597 0.10601993938 0)
(1.30680226812 0.0870975570593 0)
(1.33499538851 0.068636682162 0)
(1.35574481436 0.0523698400995 0)
(1.37069621224 0.0389256189621 0)
(1.3812828046 0.028298074316 0)
(1.38866273067 0.0201712780091 0)
(1.39373039078 0.0141175111562 0)
(1.39715666823 0.00970533665534 0)
(1.39943441279 0.00655059574906 0)
(1.40091973736 0.00433445490811 0)
(1.4018662861 0.00280414487551 0)
(1.4024523089 0.0017657427583 0)
(1.40280140861 0.00107419448845 0)
(1.40299810739 0.000623234168073 0)
(1.40309933041 0.000336408240341 0)
(1.40314278537 0.000159622164613 0)
(1.40315304739 5.5163364575e-05 0)
(1.40314555982 -2.99868043818e-06 0)
(1.40312980168 -3.21227548973e-05 0)
(1.40311140089 -4.38898626868e-05 0)
(1.4030933645 -4.57596355357e-05 0)
(1.40307721711 -4.24172100732e-05 0)
(1.40306356028 -3.67260828579e-05 0)
(1.40305246772 -3.03630623917e-05 0)
(1.40304373768 -2.42427961412e-05 0)
(1.40303704474 -1.88123928132e-05 0)
(1.40303202756 -1.42403019784e-05 0)
(1.40302833612 -1.05286244569e-05 0)
(1.40302567245 -7.57667802253e-06 0)
(1.40302380432 -5.25960474924e-06 0)
(1.40302255522 -3.4545438148e-06 0)
(1.40302177446 -2.01777948145e-06 0)
(1.40302129633 -8.44759481202e-07 0)
(1.40302092558 8.79475862844e-08 0)
(1.4030205951 7.98112367773e-07 0)
(1.40302038757 1.28855284367e-06 0)
(1.40302028937 1.66164731644e-06 0)
(1.40302020795 1.98334564224e-06 0)
(1.40302010915 2.29099709123e-06 0)
(1.40301998612 2.60271536142e-06 0)
(1.4030198373 2.92792418163e-06 0)
(1.4030196645 3.27151027935e-06 0)
(1.40301946802 3.63474366085e-06 0)
(1.40301924047 4.00597704248e-06 0)
(1.4030189944 4.34454188273e-06 0)
(1.40301876324 4.6199981357e-06 0)
(1.40301857449 4.79452726523e-06 0)
(1.40301845373 4.81107490629e-06 0)
(1.40301842043 4.58216005584e-06 0)
(1.40301847789 3.965074839e-06 0)
(1.40301860915 2.75464750072e-06 0)
(1.40301886908 8.30842873169e-07 0)
(1.40301944632 -2.15916782518e-06 0)
(1.40302046516 -7.05466648825e-06 0)
(1.4030218521 -1.46377514826e-05 0)
(1.4030232699 -2.62230182736e-05 0)
(1.40302422283 -4.36528224916e-05 0)
(1.40302395807 -6.9903321066e-05 0)
(1.40302097795 -0.000109559576751 0)
(1.40301252591 -0.000169646405861 0)
(1.4029937809 -0.000261048009776 0)
(1.40295653814 -0.000400629462994 0)
(1.40288680719 -0.000614455409617 0)
(1.4027607903 -0.000943182972934 0)
(1.40253842003 -0.00145025715724 0)
(1.40215322244 -0.00223413175624 0)
(1.40149336291 -0.00344411435869 0)
(1.40037014151 -0.00530437392273 0)
(1.39846971724 -0.0081384274955 0)
(1.39527799344 -0.0123822409597 0)
(1.38998030515 -0.0185486286195 0)
(1.38142588527 -0.0270781187663 0)
(1.3681143305 -0.0380563519708 0)
(1.34764641253 -0.0505957785589 0)
(0.994011532578 0.0192358063868 0)
(1.03484764126 0.052333840613 0)
(1.09199263735 0.0723631277532 0)
(1.15662421483 0.0791292324486 0)
(1.22032118316 0.0761045469433 0)
(1.27701947735 0.067333972212 0)
(1.32424421864 0.0561509043679 0)
(1.3618157706 0.0447990119473 0)
(1.39068534749 0.0345303786177 0)
(1.41226079429 0.0258814335286 0)
(1.42801827009 0.0189465250666 0)
(1.43929889293 0.013584983121 0)
(1.44722812953 0.00955653521883 0)
(1.45270418838 0.00660011620733 0)
(1.45641901642 0.00447419086204 0)
(1.45889150521 0.00297351387857 0)
(1.46050237314 0.0019327689049 0)
(1.46152577315 0.00122369385736 0)
(1.46215579196 0.000749550507455 0)
(1.46252761957 0.000439017657563 0)
(1.46273389924 0.000240521063232 0)
(1.46283704424 0.000117411931733 0)
(1.46287834868 4.4049557236e-05 0)
(1.46288458929 2.69123292871e-06 0)
(1.4628724661 -1.84437390132e-05 0)
(1.46285211578 -2.74373132332e-05 0)
(1.46282956535 -2.94368704508e-05 0)
(1.4628080277 -2.76865635844e-05 0)
(1.46278903066 -2.41842735308e-05 0)
(1.46277311865 -2.01112255901e-05 0)
(1.46276028292 -1.61160960062e-05 0)
(1.46275022909 -1.25216452129e-05 0)
(1.46274254643 -9.45448666454e-06 0)
(1.46273680268 -6.92546187442e-06 0)
(1.46273259911 -4.88079222694e-06 0)
(1.46272959335 -3.25112772296e-06 0)
(1.46272749702 -1.97342893087e-06 0)
(1.46272605306 -1.00658797064e-06 0)
(1.46272505027 -3.05352325668e-07 0)
(1.46272442382 2.17975918237e-07 0)
(1.46272405964 7.0175564556e-07 0)
(1.46272380871 1.18050529062e-06 0)
(1.46272363883 1.60784907713e-06 0)
(1.46272351057 1.99112691025e-06 0)
(1.46272339462 2.35170243098e-06 0)
(1.46272327189 2.70309940045e-06 0)
(1.46272312882 3.05084286134e-06 0)
(1.46272295671 3.39304877564e-06 0)
(1.46272275095 3.72048463479e-06 0)
(1.46272250889 4.02174363049e-06 0)
(1.46272223366 4.28934936228e-06 0)
(1.46272193269 4.49185538847e-06 0)
(1.46272161239 4.57889200067e-06 0)
(1.4627212813 4.48106211543e-06 0)
(1.46272095258 4.10747494975e-06 0)
(1.46272064575 3.34605623146e-06 0)
(1.46272036463 2.07621121313e-06 0)
(1.46272000225 2.11399228268e-07 0)
(1.46271937661 -2.55351065222e-06 0)
(1.46271836771 -7.01438300133e-06 0)
(1.46271672168 -1.39695768528e-05 0)
(1.46271375849 -2.45162732522e-05 0)
(1.46270834802 -4.01908872468e-05 0)
(1.46269867322 -6.33665288986e-05 0)
(1.46268166342 -9.76370857072e-05 0)
(1.46265215362 -0.000148381137628 0)
(1.46260162222 -0.000223797554968 0)
(1.46251629639 -0.000336322979787 0)
(1.46237363618 -0.000504543745873 0)
(1.46213666317 -0.000756919639582 0)
(1.46174540167 -0.00113737755361 0)
(1.46110508167 -0.00171333805024 0)
(1.46006413764 -0.00258076448325 0)
(1.45838108682 -0.00387951883994 0)
(1.45568121463 -0.00580241922473 0)
(1.45139781419 -0.00859329343728 0)
(1.44470842247 -0.0125134127003 0)
(1.43454073025 -0.0177448705259 0)
(1.41963026503 -0.024238146555 0)
(1.39812349536 -0.0314498993132 0)
(0.993269668557 0.00617015046924 0)
(1.0315810053 0.0171020462264 0)
(1.08672182845 0.0239906489303 0)
(1.15174555938 0.0265606663088 0)
(1.21823538234 0.0258180595812 0)
(1.27925776553 0.02304888708 0)
(1.33140138844 0.0193656325598 0)
(1.37377602087 0.0155468591551 0)
(1.40691057234 0.0120449314613 0)
(1.43203317735 0.00906640098741 0)
(1.4506021963 0.00666059598102 0)
(1.46402990888 0.00479009267922 0)
(1.47355021485 0.00337842953773 0)
(1.48017569143 0.00233873940989 0)
(1.48470234881 0.00158891530305 0)
(1.48773626921 0.00105829033284 0)
(1.48972741099 0.000689464182312 0)
(1.49100284516 0.000437639788759 0)
(1.49179592932 0.000268887108481 0)
(1.49227030391 0.000158112484788 0)
(1.49253879967 8.71260870755e-05 0)
(1.49267787971 4.29764089788e-05 0)
(1.49273841645 1.6586568554e-05 0)
(1.49275359323 1.66614737962e-06 0)
(1.49274435877 -6.06637874162e-06 0)
(1.49272357271 -9.411305719e-06 0)
(1.4926989302 -1.02171073456e-05 0)
(1.49267465926 -9.65346092678e-06 0)
(1.49265285738 -8.43917107318e-06 0)
(1.49263436606 -6.99220395441e-06 0)
(1.49261930802 -5.552731358e-06 0)
(1.49260742104 -4.24082531221e-06 0)
(1.49259827549 -3.1039154366e-06 0)
(1.49259139577 -2.14816238067e-06 0)
(1.49258632784 -1.35738701482e-06 0)
(1.49258267146 -7.0980921372e-07 0)
(1.4925800909 -1.83996961813e-07 0)
(1.4925783164 2.42107831578e-07 0)
(1.49257714172 6.15021525043e-07 0)
(1.49257638925 9.85525505561e-07 0)
(1.49257590555 1.29236172316e-06 0)
(1.49257559848 1.57933104947e-06 0)
(1.49257541054 1.86369148066e-06 0)
(1.49257528918 2.15585159757e-06 0)
(1.49257519536 2.46311781791e-06 0)
(1.49257510275 2.78836232518e-06 0)
(1.49257499275 3.13106852584e-06 0)
(1.49257485194 3.48735565592e-06 0)
(1.49257467015 3.84892090252e-06 0)
(1.49257443882 4.20203113452e-06 0)
(1.49257415223 4.52720795055e-06 0)
(1.4925738064 4.7927558103e-06 0)
(1.4925733947 4.95453153097e-06 0)
(1.49257290549 4.95235717251e-06 0)
(1.49257231795 4.70386553286e-06 0)
(1.49257160304 4.09548402223e-06 0)
(1.49257074943 2.9777063738e-06 0)
(1.49256963069 1.21542802037e-06 0)
(1.49256781534 -1.39038330983e-06 0)
(1.49256498647 -5.37673855829e-06 0)
(1.49256076749 -1.13577885711e-05 0)
(1.49255414427 -2.00923111719e-05 0)
(1.49254349082 -3.26527075415e-05 0)
(1.49252625307 -5.05827020251e-05 0)
(1.49249831359 -7.60684502457e-05 0)
(1.49245293595 -0.000112099670956 0)
(1.49237924508 -0.000163086082492 0)
(1.49226018439 -0.000235437146401 0)
(1.49206827532 -0.000337602231022 0)
(1.4917586578 -0.000482256261115 0)
(1.49125922423 -0.000690030662737 0)
(1.49046108189 -0.000993628341108 0)
(1.48919408835 -0.00142569824401 0)
(1.48719184197 -0.00203400525013 0)
(1.48405502305 -0.00288001347829 0)
(1.47920229637 -0.00403135705879 0)
(1.47182443799 -0.00554258812161 0)
(1.46090429877 -0.00741566510973 0)
(1.44528918026 -0.00955720137759 0)
(1.42336136164 -0.0117194267762 0)
(0.993270466361 -0.00616840176245 0)
(1.03158098788 -0.0171003758836 0)
(1.08672176209 -0.023989761632 0)
(1.15174559698 -0.0265602468111 0)
(1.21823546012 -0.0258179928665 0)
(1.27925786743 -0.0230491097009 0)