/*--------------------------------*- C++ -*----------------------------------*\
| =========                 |                                                 |
| \\      /  F ield         | OpenFOAM: The Open Source CFD Toolbox           |
|  \\    /   O peration     | Version:  2106                                  |
|   \\  /    A nd           | Website:  www.openfoam.com                      |
|    \\/     M anipulation  |                                                 |
\*---------------------------------------------------------------------------*/
FoamFile
{
    version     2.0;
    format      ascii;
    arch        "LSB;label=32;scalar=64";
    class       volScalarField;
    location    "0.21";
    object      p;
}
// * * * * * * * * * * * * * * * * * * * * * * * * * * * * * * * * * * * * * //

dimensions      [0 2 -2 0 0 0 0];

internalField   nonuniform List<scalar> 
11200
(
149.650998445
146.722396955
145.608547129
145.081217501
144.71389007
144.419114611
144.157474301
143.90893981
143.664425762
143.419362393
143.171052484
142.917741316
142.658196897
142.39148369
142.116834886
141.833577106
141.541084543
141.238751183
140.925978156
140.602177279
140.26672468
139.918971298
139.55825878
139.183919307
138.795267367
138.391601737
137.9722063
137.536350689
137.08329102
136.612270521
136.122520124
135.613258991
135.08369466
134.533023279
133.960430288
133.365091566
132.746173269
132.102832031
131.434215378
130.739462158
130.017702835
129.268059678
128.489646926
127.681570862
126.842929774
125.972813758
125.070304301
124.134473565
123.164383299
122.159083256
121.117609036
120.038979195
118.922191526
117.766218256
116.569999903
115.332437429
114.052382305
112.728624011
111.359874264
109.944747117
108.481733932
106.969171833
105.405203319
103.787727605
102.114334606
100.38221911
98.5880706012
96.7279289421
94.7969899003
92.7893387246
90.6975863804
88.5123734925
86.2215019282
83.8087858615
81.2521408793
78.5199100246
75.5644990207
72.3133459245
68.6127863111
63.8497332459
147.857956418
146.499782596
145.708812156
145.208799455
144.817813506
144.493933866
144.209416141
143.944817717
143.689333971
143.436816391
143.183437592
142.926683959
142.664818468
142.396564701
142.120922277
141.837056412
141.544229714
141.241759326
140.928986735
140.605249978
140.269898816
139.922257708
139.56168293
139.187506379
138.799032128
138.395553236
137.976350748
137.540692464
137.0878332
136.617015193
136.127468376
135.618410359
135.089046812
134.538577548
133.966189966
133.371059954
132.752353399
132.109226884
131.440827956
130.746295542
130.02476025
129.275344559
128.497163016
127.68932233
126.850921354
125.981050928
125.078793497
124.143222446
123.17340106
122.168381009
121.127200262
120.048880326
118.932422673
117.776804106
116.580970821
115.343830832
114.06424438
112.741011831
111.372858404
109.958415043
108.496194612
106.984561864
105.421692973
103.80552499
102.133690262
100.403447561
98.6115814048
96.7542543329
94.82682689
92.8236143601
90.7375479491
88.5596713976
86.2784372033
83.878709648
81.3400937296
78.63408162
75.719875592
72.5396399497
68.9905782777
64.8777781016
146.86276617
146.208566075
145.656211384
145.218595258
144.846973754
144.524874931
144.235778508
143.965548484
143.705089727
143.448613262
143.192234032
142.933270315
142.66981009
142.400426436
142.123998331
141.839597186
141.546413367
141.24370824
140.930783435
140.606962004
140.271581813
139.924003238
139.563482274
139.189365295
138.800960285
138.397557746
137.978436407
137.542862977
137.090091957
136.61936581
136.129915346
135.62096043
135.09171017
134.541357206
133.96908386
133.374068396
132.755477838
132.112469277
131.444191107
130.749783079
130.028376654
129.279095234
128.501054463
127.693362351
126.855119332
125.985418166
125.08334364
124.147972002
123.17837003
122.173593677
121.132686174
120.054675488
118.938571003
117.783359206
116.587998124
115.351410243
114.072473518
112.750010151
111.382772339
109.969424236
108.508518803
106.998469093
105.437511282
103.823675753
102.154725307
100.428066686
98.6406579631
96.7889004066
94.8684798061
92.874157613
90.7994842653
88.6363969844
86.3748008633
84.0017798165
81.5006122752
78.8494368897
76.0202776944
72.9815147733
69.6971631949
66.1441815061
146.313005095
145.949624095
145.54972707
145.180738133
144.843123462
144.535023503
144.249663047
143.978962317
143.716593822
143.457930485
143.199554206
142.938933427
142.674168342
142.403791737
142.126627589
141.841693407
141.548132862
141.24516971
140.932076741
140.608153949
140.272710342
139.925055725
139.564548911
139.190466798
138.802098745
138.398737118
137.979660386
137.544134008
137.091411352
136.620733868
136.131331205
135.622421447
135.093211984
134.542901201
133.970679028
133.375720037
132.757192216
132.114253382
131.446050943
130.751725099
130.0304081
129.281224358
128.503290962
127.695717786
126.857607617
125.988056129
125.0861517
124.15097497
123.181598069
122.177083391
121.136481994
120.058831415
118.943152742
117.788446784
116.593689182
115.357824245
114.079757057
112.75834308
111.392375445
109.980568533
108.521540437
107.013794874
105.455669579
103.845305991
102.180602241
100.459159368
98.6782019394
96.8344778327
94.9241339926
92.9425605843
90.8842006841
88.7423248926
86.5087014791
84.1732881858
81.7239952872
79.1467231616
76.4267242562
73.554288485
70.5330104116
67.4000597134
145.97895736
145.747162223
145.445750783
145.134775129
144.829937492
144.537916406
144.258943545
143.989820557
143.726863724
143.466782809
143.206817337
142.944729881
142.678727955
142.407362544
142.12943701
141.84393441
141.549962094
141.24671079
140.933425099
140.609382338
140.273877578
139.926214487
139.565696755
139.191613851
138.8032687
138.399945037
137.98091608
137.545444854
137.092783377
136.62217254
136.132842093
135.624010821
135.094886636
134.544666288
133.972535958
133.377672038
132.759240051
132.116398017
131.448296633
130.754076525
130.032872417
129.283811046
128.506011956
127.698587808
126.860644682
125.991282128
125.089593151
124.154663968
123.185573408
122.181392198
121.141181909
120.063992692
118.948861003
117.794806425
116.600827472
115.365895944
114.088949329
112.768883855
111.40454221
109.994704136
108.538067758
107.033220035
105.478624758
103.872587084
102.213213279
100.498361383
98.7255837748
96.8920584446
94.9945058617
93.0290918705
90.9913198243
88.8759251652
86.6767993951
84.3870235774
81.9991763648
79.50624758
76.9040396347
74.1969938224
71.4064704206
68.5831646058
145.77556513
145.599663423
145.358469638
145.091145307
144.813960274
144.53732436
144.26563744
143.999138893
143.736377063
143.475371778
143.214088078
142.950658907
142.683458845
142.411097127
142.132380918
141.846272536
141.55184991
141.248273573
140.934760705
140.610565438
140.274964336
139.927245534
139.56669968
139.192617115
138.804287334
138.400989627
137.981994542
137.546563039
137.093945626
136.623381944
136.134100774
135.625320091
135.096247268
134.546079197
133.974002702
133.379195179
132.760825208
132.118052596
131.450028689
130.755897941
130.03479593
129.28585013
128.508182178
127.700907308
126.863135049
125.993969507
125.092509345
124.15784769
123.189071924
122.185263017
121.145494378
120.068830958
118.954327259
117.801024861
116.607949244
115.374105969
114.098476932
112.780010528
111.417614994
110.010142953
108.556377267
107.055024931
105.504702621
103.903894299
102.250932773
100.54396809
98.7809293103
96.9594827546
95.0769885576
93.1304610624
91.1165443064
89.031526747
86.8714422218
84.6323495965
82.310963928
79.9059334957
77.4203263029
74.8662984674
72.270802056
69.680939275
145.652448629
145.496841368
145.290540578
145.053980049
144.798507083
144.535230452
144.270620655
144.007115941
143.744986973
143.483405821
143.221038406
142.956408226
142.688085558
142.414761926
142.135265214
141.848547855
141.55366488
141.249750379
140.935996244
140.611634504
140.275923316
139.928136284
139.567554641
139.193460919
138.805136312
138.401855117
137.982885004
137.54748473
137.094903277
136.624379438
136.135141624
135.626407818
135.097385668
134.547272821
133.975257306
133.380517415
132.762222135
132.119532061
131.451599426
130.757567865
130.03657287
129.287745749
128.510212551
127.703092902
126.865501031
125.996546364
125.095333958
124.160964723
123.192535482
122.189138684
121.149861811
120.073787166
118.959990449
117.80753908
116.615489902
115.382885885
114.108751343
112.792091329
111.431882016
110.027060634
108.576526915
107.079121069
105.53361393
103.938692894
102.292946092
100.594844212
98.84272288
97.0347682768
95.1690108008
93.2433362178
91.2555305453
89.2033878724
87.0849293307
84.8988228277
82.6451377962
80.326632895
77.9508590183
75.5334188819
73.1011949602
70.6935520571
145.578369252
145.428359521
145.241604991
145.025501345
144.785797737
144.532979658
144.274346377
144.013612589
143.752250751
143.490334376
143.227122551
142.961491851
142.692201811
142.418031258
142.13783672
141.850568346
141.555264586
141.251038021
140.937059016
140.61254035
140.276724053
139.928870835
139.56825183
139.194141545
138.805816297
138.402545374
137.983593658
137.54821784
137.095665542
136.625174768
136.135973562
135.627279868
135.098301537
134.54823647
133.976272861
133.381589473
132.763356104
132.120733791
131.45287572
130.758928425
130.038033618
129.289324696
128.511928437
127.704967959
126.867562246
125.998826594
125.097873168
124.163811466
123.195748686
122.19279006
121.154039035
120.078596632
118.965561281
117.814028131
116.623087974
115.391825822
114.119318791
112.804635241
111.446824101
110.044919313
108.597928986
107.104833242
105.564577598
103.976065173
102.338151506
100.649641108
98.9092884772
97.1158076855
95.2678974602
93.3642931148
91.4038627645
89.3857765157
87.3097895185
85.1767150577
82.9891678988
80.7526835432
78.4773017906
76.1796334353
73.8843671991
71.6235209841
145.536093188
145.386645917
145.210231503
145.006495196
144.776965234
144.531260353
144.27690458
144.018271025
143.757569562
143.49548108
143.231689621
142.965337322
142.695332701
142.420527163
142.139803994
141.852114979
141.556488012
141.25202046
140.937866905
140.613225751
140.277326866
139.9294211
139.568771888
139.194648708
138.806320402
138.403056229
137.984117939
137.548760467
137.09623046
136.625765383
136.136593037
135.627931389
135.098988523
134.548962736
133.977042784
133.382408232
132.764229958
132.121670752
131.45388619
130.760024885
130.039227316
129.290630537
128.513366359
127.706562292
126.869342416
126.000828236
125.100139497
124.166394941
123.198713016
122.196212494
121.158013075
120.083235907
118.971003966
117.820442255
116.630677763
115.400839258
114.130056823
112.817460773
111.462183563
110.063355901
108.620106327
107.131561136
105.596844403
104.015079272
102.385392562
100.706923835
98.9788425423
97.2003773205
95.3708653777
93.4898340383
91.5571290211
89.5731173721
87.5389955787
85.4572561784
83.3323473047
81.1715671846
78.9861705813
76.7925762942
74.6128387558
72.4731483978
145.516817049
145.366939598
145.194977811
144.997044261
144.77248566
144.530370121
144.278239258
144.020735256
143.76041357
143.498258231
143.234173914
142.967444877
142.697061563
142.421916532
142.14090913
141.852993119
141.557191361
141.252593383
140.938345433
140.613638249
140.277695168
139.929761728
139.56909713
139.194967537
138.806640423
138.403382293
137.984453935
137.549109552
137.096595371
136.626148756
136.136997518
135.62835985
135.099444222
134.549449487
133.977565134
133.382971675
132.764841137
132.12233762
131.454617826
130.760831787
130.040124367
129.291635008
128.514498818
127.707847626
126.870810867
126.002516556
125.102092311
124.168666406
123.201368854
122.199332513
121.161694228
120.087595935
118.976185834
117.82661954
116.638061277
115.409685274
114.140677246
112.830234267
111.477569586
110.081914637
108.642517094
107.158650181
105.629617414
104.054760883
102.433474623
100.765224328
99.0495774464
97.2862471326
95.4751587764
93.616549624
91.7111128276
89.7602173707
87.7662064368
85.7328342666
83.6658101074
81.5734822194
79.4675793129
77.3638635172
75.2820358038
73.2440331341
145.516819931
145.366955939
145.195005042
144.997080646
144.772530423
144.530422428
144.278298204
144.020800035
143.760483511
143.498332787
143.234252652
142.967527465
142.697147751
142.422006131
142.141002001
141.85308917
141.557290538
141.252695692
140.938450956
140.613747153
140.277807718
139.929878288
139.569218158
139.195093591
138.806772214
138.403520538
137.984599513
137.54926355
137.096759132
136.626323801
136.137185858
135.628563955
135.099667095
134.549694763
133.977837206
133.383275838
132.765183768
132.122726452
131.455062425
130.761344065
130.040718341
129.2923277
128.515311001
127.708804559
126.87194323
126.003861597
125.103695246
124.170582121
123.203663961
122.202087879
121.165008004
120.091587268
118.980999346
117.83243075
116.645083193
115.418176244
114.150950424
112.842669345
111.492628243
110.100155926
108.66462055
107.185439326
105.66209101
104.094129744
102.481205342
100.823089672
99.1197150768
97.3712315796
95.5780857817
93.7411301382
91.8618090015
89.9423878473
87.9859975498
85.9972656521
83.9827089319
81.9512316804
79.914624849
77.8879136378
75.8890112211
73.9370221831
145.536101884
145.386695309
145.210313796
145.006605093
144.777100376
144.531418046
144.277082065
144.018465902
143.757779832
143.495705108
143.23192612
142.965585303
142.695591418
142.420796059
142.140082658
141.852403129
141.556785501
141.25232732
140.938183382
140.613552351
140.27766438
139.9297706
139.569134711
139.195026548
138.806715285
138.4034703
137.984553793
137.549221268
137.096720106
136.626288672
136.137155917
135.628541148
135.099654039
134.549694803
133.977854515
133.383315557
132.765252199
132.12283129
131.455213044
130.761551844
130.040997121
129.29269434
128.51578602
127.709412885
126.872715135
126.004833844
125.104912459
124.172098451
123.205545137
122.204413673
121.167875219
120.095113354
118.985326781
117.837732322
116.651568435
115.426099226
114.160619189
112.854457906
111.506986909
110.117630067
108.685874392
107.211273271
105.693469819
104.132215496
102.527395386
100.87906661
99.1875250546
97.4533402909
95.6774020245
93.8610878294
92.0063600707
90.1159390017
88.1937848941
86.2451529243
84.2770372021
82.2985941263
80.3215015432
78.3601711026
76.4313299515
74.5524304955
145.578383932
145.428443071
145.241743983
145.025686586
144.786025089
144.533244466
144.27464395
144.013938895
143.752602452
143.49070876
143.227517484
142.961905699
142.69263335
142.418479571
142.138301138
141.851048417
141.555760094
141.251549037
140.93758597
140.613084092
140.277285915
139.929452594
139.568855609
139.194770204
138.806472807
138.403233427
137.984317564
137.548982801
137.096477959
136.626042553
136.13690646
135.628289801
135.099403016
134.549447101
133.977613977
133.383086994
132.765041564
132.122645908
131.455061872
130.7614458
130.040949519
129.292721383
128.515907416
127.709652593
126.873102276
126.005403787
125.105708137
124.173171978
123.206959775
122.206246184
121.170218737
120.098080823
118.989055125
117.842387486
116.657351485
115.43325362
114.169439529
112.86530116
111.52028556
110.133904513
108.70574927
107.235507146
105.722978531
104.168103975
102.570997438
100.931968619
99.2515644846
97.53066028
95.7705754363
93.973120849
92.1407496972
90.2767247246
88.3853536174
86.4722394891
84.5446025026
82.6116164661
80.6847254561
78.7778814479
76.9072257605
75.0896845051
145.652469636
145.496961192
145.290739319
145.05424402
144.798830046
144.535605577
144.271041199
144.007576192
143.745482244
143.483932341
143.22159322
142.95698908
142.68869076
142.415390221
142.135915686
141.849219894
141.554358205
141.2504651
140.936732949
140.612394338
140.27670807
139.928948427
139.568397215
139.194337632
138.806051305
138.402813399
137.983892498
137.548548568
137.096032222
136.625584345
136.13643589
135.627807877
135.098911555
134.548948708
133.977112083
133.382585951
132.764546805
132.12216417
131.454601454
130.76101689
130.040564578
129.292395583
128.515659203
127.709504385
126.873081311
126.005543147
125.106047995
124.17376113
123.207857441
122.207524221
121.171964294
120.100399579
118.99207515
117.846263935
116.662272224
115.439446007
114.177178497
112.874919098
111.5321842
110.148569502
108.723764426
107.257573385
105.749934862
104.200947938
102.610904801
100.98034841
99.3101112621
97.6013747698
95.8557501221
94.0753800137
92.2630628355
90.4223985517
88.5579679325
86.6755451924
84.7823599188
82.8873964302
81.00173586
79.1389513431
77.3150605216
75.5474829888
145.775593089
145.599823185
145.358733293
145.091493768
144.814384719
144.53781547
144.266186274
143.999738021
143.737020469
143.476054667
143.21480672
142.951410469
142.684241206
142.411908715
142.133220593
141.84713954
141.552743869
141.249194551
140.935709269
140.611542715
140.275971965
139.928285903
139.567777735
139.193739056
138.805457888
138.40221444
137.983280722
137.547919258
137.095382579
136.624913001
136.135742582
135.627093246
135.098177047
134.548196544
133.976345288
133.381808412
132.763763354
132.12138075
131.453825373
130.760257164
130.039832341
129.291704515
128.515026034
127.7089495
126.872629489
126.005224461
125.10589896
124.173826064
123.208190128
122.208189873
121.173041975
120.101985082
118.99428449
117.849237519
116.666179861
115.444493049
114.183613178
112.883041101
111.542354553
110.161222817
108.73942384
107.276864685
105.773606762
104.229896332
102.646199585
101.023244572
99.3620744395
97.6641112835
95.9312297416
94.1658426339
92.3710046151
90.5505330528
88.7091508965
86.8526481998
84.9880855002
83.1240556631
81.2710728075
79.4422187244
77.6535285059
75.9236831614
145.978992904
145.747366735
145.446085801
145.135215066
144.830470257
144.538529765
144.259626207
143.990563367
143.727659402
143.467625623
143.207702875
142.945654822
142.679689849
142.408359632
142.130468105
141.844998837
141.551059663
141.247841767
140.934590135
140.610582575
140.275114911
139.927490577
139.567014164
139.192986339
138.80470035
138.401441467
137.982485151
137.547096404
137.094529566
136.624028278
136.134825608
135.626144295
135.097197131
134.547187402
133.975309426
133.380749225
132.762685246
132.120289225
131.452727149
130.759160271
130.038746411
129.290641205
128.513999575
127.707977306
126.871732855
126.004429406
125.105237224
124.173336261
123.207919188
122.208194717
121.173391742
120.102763629
118.995593414
117.851199866
116.668944528
115.448239905
114.188558411
112.889445158
111.550531103
110.171548825
108.752351456
107.292935333
105.79346654
104.254312568
102.676079777
101.059657652
99.4062693195
97.7175312707
95.9955222737
94.2428599623
92.4627857203
90.6592570056
88.8370472714
87.0018525493
85.1604230293
83.320751102
81.4924560522
79.687690476
77.9219701289
76.2151505326
146.313048171
145.949876972
145.550135923
145.181269922
144.843762129
144.535753416
144.25047045
143.979836378
143.717526082
143.458914377
143.20058474
142.940006901
142.675282108
142.404944038
142.127817503
141.842920892
141.549398884
141.246476319
140.933426721
140.609551263
140.274164465
139.926582877
139.566122472
139.192090468
138.8037865
138.400500129
137.981509921
137.546083176
137.09347579
136.622932459
136.133687048
135.62496295
135.095973451
134.54592224
133.974004066
133.379405576
132.761306156
132.118878541
131.451289917
130.757703131
130.037278109
129.289172009
128.512541879
127.706546116
126.870346313
126.00310948
125.104010521
124.172235078
123.206982831
122.207470713
121.172937511
120.102648566
118.99590141
117.852032257
116.670423622
115.450513433
114.19180625
112.893884205
111.556422022
110.179204475
108.762146561
107.305317313
105.808967759
104.273563783
102.699824385
101.088766174
99.4417539202
97.76055758
96.0474147585
94.3050975284
92.5369814072
90.7471125596
88.9402664574
87.1219935146
85.2986565796
83.4774704317
81.6667339353
79.876823253
78.1209486493
76.4177512053
146.862821491
146.2088814
145.65670404
145.21922421
144.84771925
144.525718057
144.236703297
143.966542658
143.70614379
143.449719854
143.1933875
142.934466336
142.671045351
142.401698397
142.125305109
141.840937656
141.547787634
141.24511865
140.932234954
140.608461306
140.273129773
139.925570221
139.565103712
139.191049929
138.802713249
138.399386482
137.980350746
137.544875206
137.092217247
136.621622554
136.132325715
135.623550739
135.094511478
134.544412163
133.972448035
133.37780588
132.759664244
132.117197094
131.449572567
130.75595424
130.035502344
129.287376269
128.510734979
127.704738988
126.868552463
126.001345507
125.102296716
124.170596146
123.205448487
122.206077449
121.171729728
120.10168024
118.995237956
117.851752834
116.67062386
115.451308319
114.19333301
112.89630836
111.559942699
110.184060502
108.768623687
107.313756572
105.819775011
104.287220187
102.716897416
101.10992035
99.4677605553
97.7923017953
96.085897342
94.3514328841
92.5923817329
90.812853472
89.0176204047
87.2121106206
85.4023401844
83.5946949364
81.7958316878
80.0133025099
78.254212232
76.5272253688
147.85805925
146.50024357
145.709497511
145.209656178
144.818818394
144.495066207
144.210659128
143.946158551
143.690762779
143.438325477
143.185020918
142.928336665
142.66653639
142.398343909
142.122758679
141.83894543
141.546165879
141.243735598
140.930997527
140.607303228
140.271993331
139.924418513
139.563926824
139.189834771
138.8014505
138.398070204
137.978976664
137.543438037
137.090713383
136.620049916
136.130682837
135.62183648
135.092724962
134.542552792
133.970515587
133.375801045
132.757590477
132.115056969
131.447368742
130.753690216
130.033182816
129.285006426
128.508321028
127.702288537
126.866074832
125.99885209
125.099801443
124.16811601
123.203004375
122.203694627
121.169438691
120.099517781
118.993248525
117.849990144
116.669152864
115.450207952
114.192699234
112.896255678
111.560608429
110.185609237
108.77125221
107.317699322
105.825310008
104.29467534
102.726657208
101.122432729
99.483543438
97.8119470336
96.110070732
94.3808884943
92.6279480379
90.8554173717
89.0681010682
87.2714163361
85.4712599076
83.6734976032
81.8836582845
80.1065024907
78.3368338516
76.5450783442
149.651167885
146.723070395
145.609543137
145.082473711
144.715376157
144.420806012
144.159352615
143.910991745
143.666641741
143.421735713
143.17357875
142.920418066
142.661023415
142.394460996
142.11996585
141.836866577
141.544539371
141.242379691
140.929785148
140.606148466
140.27086455
139.923293588
139.562766636
139.188618364
138.800166464
138.396711566
137.977539729
137.541925901
137.089127821
136.618391192
136.128951239
135.620032436
135.090848957
134.540605346
133.968497215
133.373711979
132.755429815
132.112824813
131.44506586
130.751317688
130.030742129
129.282499686
128.505751048
127.699658914
126.863390122
125.996117951
125.097024888
124.165305632
123.200170677
122.200850356
121.166599434
120.096702482
118.990480111
117.847296296
116.666566896
115.447769692
114.19045621
112.894265557
111.558940531
110.184346535
108.770493857
107.317563605
105.82593777
104.296233879
102.729344539
101.126482017
99.4892278702
97.8195899309
96.1200641887
94.393656644
92.6439724577
90.87524858
89.0923740782
87.3008679321
85.5067777569
83.7166050008
81.9367768815
80.172095834
78.4021490946
76.502377353
56.4546997115
52.902840662
50.5116279989
48.5546665502
46.8833431461
45.4274625217
44.1429865022
43.0001281394
41.9771195424
41.0571162912
40.2266228413
39.4745619532
38.7916835075
38.1701653424
37.6033285531
37.0854260996
36.6114798932
36.1771506041
35.778633648
35.4125760443
35.0760078842
34.7662854773
34.4810464215
34.2181730045
33.9757616092
33.7520972301
33.5456296728
33.3549538066
33.1787962267
33.0159996168
32.8655060767
32.7263500725
32.5976510677
32.4785999438
32.3684512112
32.26651857
32.17216707
32.0848027387
32.0038818656
31.9289897402
31.8599038531
31.7960562677
31.7370159792
31.6823778528
31.6318070003
31.5849985906
31.5416515223
31.5015892582
31.4644225701
31.430019257
31.3981718996
31.36866198
31.3413031448
31.3159256874
31.2923687116
31.2704881601
31.2501476703
31.2312216412
31.2135956667
31.1971602445
31.1818149843
31.1674691604
31.1540375059
31.1414409009
31.1296087747
31.118475412
31.1079767056
31.0980560401
31.0886630356
31.0797485865
31.0712666457
31.0631776094
31.0554445335
31.048033416
31.0409242978
31.0340804785
31.0274777046
31.0210956092
31.0149098808
31.0088963419
31.0030377496
30.9973241061
30.9917495094
30.9862870817
30.9809216383
30.9756413776
30.9704362659
30.9652976773
30.9602171828
30.9551865026
30.9501984544
30.9452470162
30.9403266835
30.9354319338
30.930557918
30.9257005598
30.9208557566
30.9160193866
30.9111878808
30.9063583099
30.9015279724
30.8966945512
30.891856757
30.8870141524
30.8821660205
30.8773109326
30.8724469569
30.8675725315
30.8626865615
30.857788089
30.8528781524
30.8479584389
30.8430305398
30.8380960068
30.8331566758
30.828214641
30.8232726888
30.8183347396
30.8134050607
30.8084904917
30.8035985296
30.7987378824
30.7939190349
30.789154354
30.7844607511
30.7798563814
30.7753636661
30.7710088789
30.7668229479
30.7628448819
30.7591215076
30.755708429
30.7526698506
30.750080971
30.7480332072
30.7466258045
30.7459794038
30.7462294156
30.7475479707
30.7500862105
30.7543399961
30.7603353313
30.7683806574
30.7784421514
30.7895457552
30.7978342126
30.7943937183
30.7572119105
30.6452054069
30.3871214137
29.8770756959
28.9807310041
27.5622270497
25.5248738926
22.8403949215
19.5654356378
15.8225020812
11.587484669
6.58640407815
1.56561547879
59.6361582175
55.5834053665
52.8717053093
50.719877173
48.9187103326
47.3697715769
46.0147886287
44.816442703
43.7484642447
42.7911229027
41.9289935567
41.1496634251
40.4429346213
39.8002974121
39.2145655413
38.6796120943
38.1901697766
37.7416758492
37.3301502473
36.9521010763
36.6044453385
36.2844467578
35.9896664511
35.7179207729
35.4672517453
35.2358967169
35.0222629515
34.8249088002
34.6425291893
34.473937309
34.3180487128
34.1738761179
34.0405199288
33.9171552666
33.8030241411
33.6974382889
33.5997659371
33.5094209543
33.4258738506
33.3486003091
33.276996546
33.2107654407
33.1494687911
33.0927471661
33.0402689518
32.9917102182
32.946768725
32.9052236906
32.8667115968
32.8310589977
32.7980397836
32.7674465137
32.7390953358
32.7128028755
32.6884137207
32.6657807066
32.6447538474
32.6252048841
32.6070113607
32.5900579754
32.574242593
32.5594723504
32.5456601123
32.5327184668
32.5205741598
32.5091586312
32.4984053204
32.4882557259
32.4786579436
32.4695603239
32.46091653
32.4526839885
32.4448217486
32.4372934182
32.4300568449
32.4230928892
32.4163770933
32.409885193
32.4035930403
32.3974798307
32.391524845
32.3857078619
32.3800141562
32.3744317956
32.3689498435
32.3635571803
32.3582438212
32.3530006459
32.3478187765
32.3426900853
32.3376071176
32.3325640614
32.3275549001
32.3225740259
32.3176164423
32.3126775874
32.3077529894
32.302838066
32.2979290303
32.293022483
32.2881156056
32.2832057434
32.2782917759
32.2733730136
32.2684481468
32.2635148204
32.2585713995
32.2536151553
32.2486445566
32.2436603841
32.238659361
32.2336466103
32.2286215738
32.2235839348
32.2185385448
32.2134808651
32.2084197018
32.2033506484
32.1982862113
32.1932244669
32.188176733
32.1831551908
32.1781553821
32.1732081039
32.168315439
32.1635018709
32.1587897382
32.1542049975
32.1497764059
32.1455441641
32.1415613223
32.1378709741
32.1345529523
32.1316797044
32.1293355678
32.1276341594
32.1266895912
32.1266428598
32.1276615595
32.1299433118
32.1337784161
32.1393221162
32.1467273198
32.1557256643
32.1648556498
32.1692810035
32.1583714235
32.1067960993
31.9688995668
31.6674909818
31.090848383
30.101624287
28.5667062553
26.3988191866
23.5815288687
20.1762269586
16.3034364038
11.954022707
6.86807266691
1.69658339385
61.8437266036
57.9103090154
55.0434876814
52.7601498302
50.8590244656
49.2336019432
47.8187856214
46.5724734841
45.4651485676
44.4748544427
43.5846124289
42.7809055482
42.052738457
41.3910176406
40.7881244903
40.2376074724
39.7339520404
39.2724049593
38.8488376914
38.4596401095
38.1016337056
37.7720042296
37.468248479
37.1881285578
36.9296401563
36.6909800545
36.4705198887
36.2667881019
36.0784515154
35.9042967221
35.7432179525
35.5942076321
35.4563449372
35.3287861521
35.2107546921
35.1015411277
35.0004887771
34.9069855132
34.8204782298
34.7404551945
34.6664071088
34.5977759664
34.5342475854
34.4754902868
34.4211402183
34.3708611535
34.3243428106
34.2813231581
34.2414873695
34.2046205763
34.1704871614
34.1388747732
34.1095881692
34.0824394835
34.0572663618
34.0339047103
34.0122062614
33.992042419
33.9732856993
33.9558194501
33.9395369806
33.9243380156
33.9101270291
33.8968231493
33.8843495734
33.8726332218
33.8616047653
33.8512039444
33.8413764966
33.8320688401
33.8232242625
33.8148058332
33.8067743261
33.7990940816
33.791731085
33.7846551246
33.7778389465
33.771257342
33.7648852808
33.7587003726
33.7526828903
33.7468148312
33.7410796772
33.7354615669
33.7299472644
33.7245247261
33.7191832713
33.7139130204
33.7087044969
33.7035495522
33.6984408287
33.6933722301
33.6883373976
33.6833305835
33.6783466161
33.6733803788
33.6684268353
33.6634811509
33.6585393696
33.6535977262
33.6486534312
33.6437040362
33.638748226
33.6337848061
33.6288119467
33.6238267606
33.6188273441
33.6138111443
33.6087762566
33.6037237403
33.5986500144
33.5935589093
33.5884501199
33.5833222765
33.5781801551
33.5730181335
33.5678443626
33.5626541987
33.5574590743
33.5522587583
33.5470598868
33.5418766525
33.536703973
33.5315700005
33.5264798399
33.5214551704
33.5165183461
33.5116964534
33.5070182803
33.5025220586
33.4982617523
33.494282076
33.4906599362
33.487468331
33.4847968467
33.4827529962
33.4814584033
33.4810487415
33.4817019216
33.4835361991
33.4868343315
33.4917242229
33.4982164396
33.5057810455
33.5124125546
33.512220512
33.4928775651
33.4257231275
33.2607500115
32.9152932763
32.2726228462
31.1933292826
29.5475373037
27.256734288
24.3145696279
20.7853676322
16.7863111518
12.3224151795
7.14883621045
1.82513803778
63.648014415
59.9234358936
57.0198425351
54.6653204851
52.6961264969
51.0128795845
49.5503487734
48.2645646325
47.1241864064
46.1057954423
45.1913004888
44.3663527308
43.6193377043
42.9407006245
42.3224775979
41.7579567072
41.2414248587