/*--------------------------------*- C++ -*----------------------------------*\
| =========                 |                                                 |
| \\      /  F ield         | OpenFOAM: The Open Source CFD Toolbox           |
|  \\    /   O peration     | Version:  2106                                  |
|   \\  /    A nd           | Website:  www.openfoam.com                      |
|    \\/     M anipulation  |                                                 |
\*---------------------------------------------------------------------------*/
FoamFile
{
    version     2.0;
    format      ascii;
    arch        "LSB;label=32;scalar=64";
    class       volVectorField;
    location    "0.21";
    object      U;
}
// * * * * * * * * * * * * * * * * * * * * * * * * * * * * * * * * * * * * * //

dimensions      [0 1 -1 0 0 0 0];

internalField   nonuniform List<vector> 
11200
(
(0.662462403349 0.150569443408 0)
(0.558948670778 0.103243389369 0)
(0.383850732622 0.0513512252222 0)
(0.283747589638 0.0248708560985 0)
(0.232075264451 0.0124170459067 0)
(0.201908582321 0.00662281738071 0)
(0.183197930698 0.00380291488401 0)
(0.171276489014 0.0023158705063 0)
(0.163510309548 0.00146450703085 0)
(0.158388775423 0.000944892976633 0)
(0.155006638624 0.000615177553286 0)
(0.152786684372 0.00040223455023 0)
(0.151346533547 0.000264232989598 0)
(0.150428294294 0.000175250866067 0)
(0.149856686487 0.000118361244613 0)
(0.149512480776 8.21603139015e-05 0)
(0.14931491563 5.88659146439e-05 0)
(0.149209549426 4.33153168173e-05 0)
(0.149159686104 3.2933770287e-05 0)
(0.149142442649 2.81856772958e-05 0)
(0.149144594785 2.76839640304e-05 0)
(0.149156865868 2.98899531286e-05 0)
(0.149172481558 3.30507368e-05 0)
(0.14918802138 3.59666413493e-05 0)
(0.149202220577 3.86022695379e-05 0)
(0.149214479284 4.10412670373e-05 0)
(0.149224630211 4.33183417411e-05 0)
(0.14923278077 4.54647296615e-05 0)
(0.149239168159 4.75197726957e-05 0)
(0.149244074741 4.95305735717e-05 0)
(0.149247785716 5.15591795658e-05 0)
(0.149250568466 5.36965680897e-05 0)
(0.149252619795 5.60253775458e-05 0)
(0.149254109482 5.84070340593e-05 0)
(0.149255169714 6.07683216408e-05 0)
(0.149255886661 6.30896206756e-05 0)
(0.149256356911 6.53812012163e-05 0)
(0.149256663886 6.76559691699e-05 0)
(0.149256861115 6.99255132232e-05 0)
(0.149256977822 7.21959420345e-05 0)
(0.149257035254 7.44683623529e-05 0)
(0.149257051217 7.67438094808e-05 0)
(0.149257038496 7.90220394425e-05 0)
(0.149257006309 8.13019308594e-05 0)
(0.149256961038 8.35817287416e-05 0)
(0.14925690717 8.58590631549e-05 0)
(0.149256848347 8.81311319154e-05 0)
(0.149256788079 9.03948609886e-05 0)
(0.149256730184 9.26471187107e-05 0)
(0.149256679429 9.4884801452e-05 0)
(0.149256642803 9.71048674763e-05 0)
(0.149256630286 9.93044663201e-05 0)
(0.149256655348 0.000101480675289 0)
(0.149256736237 0.000103630223349 0)
(0.149256898282 0.000105749031562 0)
(0.149257177387 0.000107831587772 0)
(0.149257623519 0.000109871113582 0)
(0.149258309614 0.000111857815963 0)
(0.149259344072 0.000113778874791 0)
(0.149260884182 0.000115610411459 0)
(0.149263170869 0.00011729785603 0)
(0.14926661265 0.000118752592824 0)
(0.149271686832 0.000120012728574 0)
(0.149279036492 0.000121267135871 0)
(0.149289691193 0.000122972498852 0)
(0.149305171196 0.0001253375264 0)
(0.149327860354 0.000128120075089 0)
(0.14936145747 0.000131088600724 0)
(0.149411561196 0.000134024817508 0)
(0.149486411961 0.000136813701687 0)
(0.149597964918 0.000140733046949 0)
(0.149769085215 0.000151613956472 0)
(0.15003759786 0.000172381716429 0)
(0.150466746854 0.000202691402774 0)
(0.151192483588 0.000232684099458 0)
(0.152492812055 0.000191846941707 0)
(0.155024589254 -0.000217305978591 0)
(0.162384155647 -0.0021142948948 0)
(0.187740903127 -0.0108100768931 0)
(0.204513600337 -0.0497786823809 0)
(0.965408253936 0.289214707568 0)
(0.961962856331 0.252656040912 0)
(0.823574384704 0.159021442647 0)
(0.698139358098 0.0959957321963 0)
(0.610225449722 0.0582481151359 0)
(0.548971474824 0.036214854211 0)
(0.506588869502 0.023161286199 0)
(0.477567247243 0.015137516457 0)
(0.457745467748 0.0100177563738 0)
(0.444228434338 0.00665814246075 0)
(0.435053269396 0.00441555755803 0)
(0.42887308532 0.00290686702068 0)
(0.424754164116 0.0018910593327 0)
(0.42204660793 0.00121004586838 0)
(0.42029776357 0.000757163475352 0)
(0.4191931468 0.000459255405661 0)
(0.418515534203 0.000265853810887 0)
(0.4181163807 0.000142398203128 0)
(0.417895772171 6.61078224579e-05 0)
(0.417786717577 2.30908637862e-05 0)
(0.417745300093 1.40650873427e-06 0)
(0.417742020562 -1.0163578149e-05 0)
(0.417756616225 -1.37145883036e-05 0)
(0.417778571944 -1.32678758e-05 0)
(0.417802862184 -1.08358313979e-05 0)
(0.417826227745 -7.49321422666e-06 0)
(0.417846975711 -3.87737383501e-06 0)
(0.417864507964 -3.58185209491e-07 0)
(0.41787882893 2.86303011383e-06 0)
(0.417890254392 5.68242626756e-06 0)
(0.417899256304 8.03564906273e-06 0)
(0.417906328001 9.83819452733e-06 0)
(0.417911671114 1.10077164927e-05 0)
(0.417915519107 1.18607522208e-05 0)
(0.417918249342 1.2682963694e-05 0)
(0.417920136476 1.34398458016e-05 0)
(0.417921422541 1.4113585978e-05 0)
(0.417922298646 1.47285181588e-05 0)
(0.417922890881 1.53136610011e-05 0)
(0.417923270887 1.5882645093e-05 0)
(0.417923491679 1.64359655623e-05 0)
(0.417923597144 1.69788390124e-05 0)
(0.417923618502 1.75149890761e-05 0)
(0.417923578571 1.80477664946e-05 0)
(0.417923493555 1.85802308559e-05 0)
(0.417923375263 1.9114694343e-05 0)
(0.417923233596 1.96530976146e-05 0)
(0.417923078334 2.01973489174e-05 0)
(0.417922920236 2.07496076029e-05 0)
(0.417922772373 2.13113758569e-05 0)
(0.417922652784 2.18829379354e-05 0)
(0.41792258639 2.24646028565e-05 0)
(0.417922606825 2.30564863746e-05 0)
(0.417922760038 2.36582621655e-05 0)
(0.41792311006 2.42690448218e-05 0)
(0.417923748452 2.48874155704e-05 0)
(0.417924804136 2.55122059281e-05 0)
(0.417926465832 2.61319512313e-05 0)
(0.41792900923 2.67274267389e-05 0)
(0.417932822067 2.726929369e-05 0)
(0.417938491124 2.7714158094e-05 0)
(0.417947112307 2.79968179828e-05 0)
(0.4179601877 2.82777093812e-05 0)
(0.417979844633 2.78551728433e-05 0)
(0.418008867208 2.53096788803e-05 0)
(0.418050862064 1.95209711503e-05 0)
(0.418111991126 9.68588846732e-06 0)
(0.41820238243 -5.72408741277e-06 0)
(0.418337660456 -2.92362299589e-05 0)
(0.418542760421 -6.45407104222e-05 0)
(0.418859654303 -0.000115845419274 0)
(0.419358076629 -0.000188144614378 0)
(0.420151729948 -0.000308188724284 0)
(0.421444702304 -0.000533670805187 0)
(0.423629475081 -0.00100168362172 0)
(0.42742644649 -0.00209468906734 0)
(0.434261374462 -0.00486658209324 0)
(0.448317306692 -0.0122808237365 0)
(0.474762833975 -0.0343180623561 0)
(0.478420926779 -0.0990145194556 0)
(1.02222096488 0.238416186419 0)
(1.08213752679 0.295926651826 0)
(1.03447722033 0.239503065826 0)
(0.954615400295 0.174290164172 0)
(0.879992044199 0.121345468489 0)
(0.818614422263 0.0830993845663 0)
(0.771410836027 0.0567316678668 0)
(0.736634375631 0.0387409694551 0)
(0.711624417659 0.0264327879479 0)
(0.69391660625 0.0179731054656 0)
(0.681541396658 0.0121424483643 0)
(0.673000103475 0.00812490811158 0)
(0.667180636337 0.00536632037351 0)
(0.663271662826 0.00348444351789 0)
(0.660688486798 0.00221255980857 0)
(0.659014156883 0.00136337980451 0)
(0.657954470221 0.000805241661641 0)
(0.657304171998 0.000445914573496 0)
(0.656921749063 0.000221066758422 0)
(0.656710180062 8.5579586299e-05 0)
(0.656603312896 8.35655806941e-06 0)
(0.656561761052 -3.372063125e-05 0)
(0.656557856877 -5.68550114135e-05 0)
(0.656571327522 -6.68744388233e-05 0)
(0.656592850635 -6.84824816964e-05 0)
(0.656616662814 -6.55617554936e-05 0)
(0.656639457216 -6.05513125549e-05 0)
(0.656659627564 -5.48616074895e-05 0)
(0.656676589133 -4.92770245968e-05 0)
(0.656690320125 -4.42046015232e-05 0)
(0.656701067105 -3.98393862151e-05 0)
(0.656709214159 -3.63000890663e-05 0)
(0.656715456917 -3.36929717766e-05 0)
(0.65672048533 -3.18538326851e-05 0)
(0.656724342451 -3.08074896676e-05 0)
(0.656727043145 -3.03010863432e-05 0)
(0.656728899049 -3.02464287276e-05 0)
(0.656730189391 -3.05582257729e-05 0)
(0.656731081332 -3.1086554686e-05 0)
(0.656731664791 -3.1748858635e-05 0)
(0.656732014356 -3.25154102863e-05 0)
(0.656732195749 -3.33510113064e-05 0)
(0.65673225458 -3.42311993729e-05 0)
(0.656732225076 -3.5136701594e-05 0)
(0.656732131756 -3.60522901365e-05 0)
(0.656731992729 -3.69674054579e-05 0)
(0.656731823473 -3.78747595537e-05 0)
(0.656731639228 -3.876904409e-05 0)
(0.656731455711 -3.96451487951e-05 0)
(0.656731290554 -4.0497966823e-05 0)
(0.656731168559 -4.13233540069e-05 0)
(0.656731125128 -4.21171310711e-05 0)
(0.656731208606 -4.28771935896e-05 0)
(0.656731486001 -4.36056854358e-05 0)
(0.656732052004 -4.43142181501e-05 0)
(0.656733042831 -4.50327138174e-05 0)
(0.656734643964 -4.5813110191e-05 0)
(0.656737124328 -4.67497081695e-05 0)
(0.656740889414 -4.79719093228e-05 0)
(0.656746538652 -4.96879794221e-05 0)
(0.656754976835 -5.23855557578e-05 0)
(0.656767848449 -5.71485917056e-05 0)
(0.656786534141 -6.47163481417e-05 0)
(0.656812459993 -7.59933969044e-05 0)
(0.656849388821 -9.26481663592e-05 0)
(0.656904032957 -0.000117106278595 0)
(0.656985814785 -0.000152569249052 0)
(0.657108538724 -0.000204330778354 0)
(0.657294046405 -0.000280932682224 0)
(0.657577791337 -0.000396291076226 0)
(0.658018021015 -0.000574827638095 0)
(0.658704144224 -0.00086393202225 0)
(0.65978359845 -0.00135390997314 0)
(0.661514628626 -0.00221831724709 0)
(0.664340700224 -0.00382059817925 0)
(0.668959976202 -0.00696156528185 0)
(0.676402704562 -0.013384658474 0)
(0.688684303734 -0.0269125911484 0)
(0.705376207389 -0.0564744455415 0)
(0.700731475504 -0.113441806044 0)
(1.02251475391 0.17080715081 0)
(1.10138975415 0.276496476803 0)
(1.11752425491 0.266664797798 0)
(1.09214659632 0.219901698079 0)
(1.05187814382 0.168168847329 0)
(1.01020820934 0.123567396908 0)
(0.973494672994 0.0888375221673 0)
(0.943864535729 0.063006372358 0)
(0.921142777119 0.0442232048596 0)
(0.904284048186 0.0307423932193 0)
(0.892074842034 0.0211562940763 0)
(0.883404481104 0.0143954678064 0)
(0.877352637446 0.00966794676169 0)
(0.873197669906 0.00639383509532 0)
(0.870392887655 0.00415116223815 0)
(0.868533992887 0.00263448804544 0)
(0.867327590021 0.00162401447055 0)
(0.866564181417 0.000962673272609 0)
(0.866096419421 0.000539120079565 0)
(0.865822173503 0.000275151747269 0)
(0.865671326733 0.000117067086208 0)
(0.865595073291 2.87914970735e-05 0)
(0.865564011814 -1.93256476904e-05 0)
(0.865561199279 -4.12624457247e-05 0)
(0.865572537707 -4.76672886081e-05 0)
(0.865589537756 -4.55274026016e-05 0)
(0.86560784085 -3.91583056945e-05 0)
(0.865625173525 -3.11472807906e-05 0)
(0.865640452352 -2.29653928297e-05 0)
(0.865653310539 -1.53803824953e-05 0)
(0.865663779703 -8.72120476052e-06 0)
(0.865672063147 -3.04090401077e-06 0)
(0.865678412923 1.73866026054e-06 0)
(0.865683036474 5.47021580041e-06 0)
(0.86568635154 8.0369348244e-06 0)
(0.865688745123 9.79306670377e-06 0)
(0.865690371675 1.11453941057e-05 0)
(0.86569152723 1.22888936794e-05 0)
(0.865692387317 1.32566449841e-05 0)
(0.865692970457 1.4142575845e-05 0)
(0.865693325029 1.49381339611e-05 0)
(0.865693515728 1.56660431316e-05 0)
(0.865693581813 1.63416809292e-05 0)
(0.86569355488 1.69814466017e-05 0)
(0.865693456836 1.75997241204e-05 0)
(0.865693303326 1.82066341093e-05 0)
(0.865693108737 1.88099844819e-05 0)
(0.86569288939 1.94173798801e-05 0)
(0.865692664607 2.00393399553e-05 0)
(0.865692456877 2.06782605531e-05 0)
(0.865692296673 2.13219084414e-05 0)
(0.865692225102 2.19590670785e-05 0)
(0.865692295635 2.2574090021e-05 0)
(0.86569257838 2.31415307288e-05 0)
(0.865693165017 2.362272847e-05 0)
(0.865694186553 2.39729893223e-05 0)
(0.865695822692 2.41661142447e-05 0)
(0.86569835109 2.4089270145e-05 0)
(0.865702180644 2.35794146458e-05 0)
(0.865707746187 2.22448505577e-05 0)
(0.865715417274 1.94878985607e-05 0)
(0.86572684881 1.47042985509e-05 0)
(0.865744676923 6.02357976026e-06 0)
(0.865771824879 -8.22106343696e-06 0)
(0.865812190162 -3.0021572111e-05 0)
(0.865871675214 -6.33018001757e-05 0)
(0.865959610968 -0.000114952004746 0)
(0.866090513455 -0.000195761772106 0)
(0.866286954794 -0.000323036666589 0)
(0.866583809398 -0.000525331203293 0)
(0.867034796888 -0.000851730537188 0)
(0.867725194627 -0.00138940495863 0)
(0.868791733172 -0.00228755846303 0)
(0.870448355899 -0.00382158774827 0)
(0.873015160923 -0.00651730206878 0)
(0.876893093182 -0.0113872407276 0)
(0.882407877545 -0.0203069213502 0)
(0.889747123511 -0.0365602212462 0)
(0.896469889454 -0.0657050674836 0)
(0.88669885285 -0.110461260249 0)
(1.01287875007 0.118961021183 0)
(1.08820670387 0.231806934817 0)
(1.13741366347 0.253106763133 0)
(1.15409085592 0.228992752951 0)
(1.14994209365 0.188368359245 0)
(1.13538463589 0.146579845207 0)
(1.11758892609 0.110150967416 0)
(1.1005949775 0.0808162239867 0)
(1.08612454462 0.0582265780705 0)
(1.07459089612 0.0413189861386 0)
(1.06579143637 0.028916020567 0)
(1.05928795607 0.0199600993633 0)
(1.0545997274 0.01358155852 0)
(1.0512907247 0.00909744076192 0)
(1.04899980147 0.00598615104333 0)
(1.04744335247 0.00385696339898 0)
(1.04640647332 0.00242159522139 0)
(1.04573055288 0.00147014806414 0)
(1.04530099312 0.000851700735278 0)
(1.04503649231 0.00045901603384 0)
(1.04488012654 0.00021675728068 0)
(1.04479250705 7.30185056099e-05 0)
(1.04474863824 -5.50351272874e-06 0)
(1.04473173443 -4.40083557132e-05 0)
(1.04472947845 -5.93863415188e-05 0)
(1.04473495652 -6.17207508032e-05 0)
(1.04474389825 -5.72475130188e-05 0)
(1.04475377609 -4.98053492475e-05 0)
(1.04476321067 -4.16453027763e-05 0)
(1.044771532 -3.39884808212e-05 0)
(1.04477848958 -2.74215071604e-05 0)
(1.04478407059 -2.21482568575e-05 0)
(1.04478842088 -1.81240693671e-05 0)
(1.04479175135 -1.51352517956e-05 0)
(1.04479431666 -1.28045436197e-05 0)
(1.04479641018 -1.10094133366e-05 0)
(1.04479814316 -9.52198657432e-06 0)
(1.04479946092 -8.23382326234e-06 0)
(1.04480043335 -7.21590478913e-06 0)
(1.04480111135 -6.54750767279e-06 0)
(1.04480151669 -6.16751771566e-06 0)
(1.04480173627 -5.95759531055e-06 0)
(1.04480181599 -5.86759992673e-06 0)
(1.04480179439 -5.84710850766e-06 0)
(1.04480169604 -5.85632251979e-06 0)
(1.04480153857 -5.87593177292e-06 0)
(1.04480134004 -5.89682537213e-06 0)
(1.04480112272 -5.9164288107e-06 0)
(1.04480090349 -5.94193789083e-06 0)
(1.04480068805 -5.97540503812e-06 0)
(1.04480049871 -6.00275349281e-06 0)
(1.04480037922 -6.02318182612e-06 0)
(1.04480038236 -6.04291591e-06 0)
(1.04480057906 -6.07583689879e-06 0)
(1.04480108029 -6.15418933973e-06 0)
(1.04480207902 -6.36938477357e-06 0)
(1.04480377062 -6.97787929118e-06 0)
(1.04480641163 -8.27809761782e-06 0)
(1.04481032253 -1.07456977606e-05 0)
(1.04481596104 -1.45455667782e-05 0)
(1.04482437071 -1.95195453514e-05 0)
(1.04483669276 -2.56727501901e-05 0)
(1.04485413702 -3.53598791417e-05 0)
(1.04487903399 -5.15524826928e-05 0)
(1.04491485329 -7.84916842032e-05 0)
(1.04496673348 -0.000122442059359 0)
(1.04504227326 -0.00019319851249 0)
(1.0451528177 -0.000306373019668 0)
(1.04531551685 -0.0004871927186 0)
(1.04555625953 -0.000776795295407 0)
(1.04591380116 -0.00124269977899 0)
(1.04644613542 -0.00199687332856 0)
(1.04723762407 -0.00323046661221 0)
(1.04840166864 -0.00527536367222 0)
(1.05006634777 -0.00871041277492 0)
(1.0522894873 -0.0145330589024 0)
(1.05482857601 -0.0243572065002 0)
(1.05689518388 -0.0405052642725 0)
(1.0557819994 -0.0658379157344 0)
(1.04217952932 -0.0998906183962 0)
(1.00447483358 0.0814039949007 0)
(1.06917236895 0.181288536596 0)
(1.13080567889 0.216950417083 0)
(1.17374999246 0.210789154846 0)
(1.19865263718 0.18369007721 0)
(1.21019986249 0.149751684545 0)
(1.21350253744 0.116779145847 0)
(1.21251721827 0.0882206797241 0)
(1.20973095894 0.0650481524286 0)
(1.20651117046 0.0470209096742 0)
(1.20351910549 0.0334068082825 0)
(1.20101142194 0.0233557311162 0)
(1.19903441807 0.0160720112799 0)
(1.19753874208 0.0108795102704 0)
(1.19644127212 0.00723418415128 0)
(1.19565553754 0.00471351464983 0)
(1.19510483606 0.00299762588562 0)
(1.19472641799 0.00184915872342 0)
(1.1944714327 0.00109495959151 0)
(1.19430311875 0.000610611799446 0)
(1.19419447605 0.00030798795657 0)
(1.19412618773 0.000125770320011 0)
(1.19408513355 2.22247862337e-05 0)
(1.19406186938 -3.24510070022e-05 0)
(1.19404956282 -5.72706210735e-05 0)
(1.19404405725 -6.45971592892e-05 0)
(1.19404255223 -6.23756290397e-05 0)
(1.19404322959 -5.55207217374e-05 0)
(1.19404497383 -4.69427743244e-05 0)
(1.19404712674 -3.82554112842e-05 0)
(1.19404931574 -3.0260047882e-05 0)
(1.19405134856 -2.32620950381e-05 0)
(1.19405315598 -1.72854646214e-05 0)
(1.19405473234 -1.2256776987e-05 0)
(1.19405609399 -8.06955019566e-06 0)
(1.19405726022 -4.66950005613e-06 0)
(1.19405820341 -2.06005551536e-06 0)
(1.19405887 -1.72104756515e-07 0)
(1.19405921917 1.14437584863e-06 0)
(1.19405932662 2.00069248464e-06 0)
(1.19405937343 2.68090389816e-06 0)
(1.19405939562 3.28711695442e-06 0)
(1.19405936839 3.81892635416e-06 0)
(1.19405930848 4.28421738494e-06 0)
(1.19405920995 4.69513130249e-06 0)
(1.19405906307 5.0683600211e-06 0)
(1.19405886912 5.41547415178e-06 0)
(1.19405863263 5.73803810885e-06 0)
(1.19405837098 6.02392054235e-06 0)
(1.19405812654 6.26974587885e-06 0)
(1.19405793669 6.49701267375e-06 0)
(1.19405783238 6.69720200759e-06 0)
(1.19405786407 6.84415028965e-06 0)
(1.19405809385 6.89787518785e-06 0)
(1.19405857014 6.8013591665e-06 0)
(1.19405927099 6.47209021999e-06 0)
(1.19406024483 5.75097782093e-06 0)
(1.1940616423 4.30658504454e-06 0)
(1.19406405159 1.61748868046e-06 0)
(1.19406853443 -2.52801071536e-06 0)
(1.19407576486 -8.89611584281e-06 0)
(1.19408562238 -1.89254948713e-05 0)
(1.19409879181 -3.45931581494e-05 0)
(1.19411726074 -5.88095347568e-05 0)
(1.19414315815 -9.61632700057e-05 0)
(1.19417928877 -0.000153978641054 0)
(1.19422962791 -0.000243926710906 0)
(1.19429979091 -0.00038452318663 0)
(1.19439763766 -0.000605301080595 0)
(1.19453392423 -0.000953735031664 0)
(1.19472270911 -0.00150658557877 0)
(1.19498078104 -0.00238850146588 0)
(1.1953229718 -0.00380342652147 0)
(1.19574661809 -0.00608555302193 0)
(1.19619150314 -0.00977590751058 0)
(1.19643791819 -0.015722100979 0)
(1.19589859876 -0.0251415594434 0)
(1.19341716198 -0.0395007492528 0)
(1.1866528871 -0.0600593015591 0)
(1.17007256125 -0.0855294658828 0)
(0.998962324559 0.0544316223834 0)
(1.05310956424 0.133401605082 0)
(1.11628267455 0.170777556433 0)
(1.17301270852 0.175143871313 0)
(1.21791244817 0.159583606777 0)
(1.25049856156 0.134951021564 0)
(1.27288489116 0.108411658983 0)
(1.28776719843 0.0838849742108 0)
(1.29745265487 0.0630565745014 0)
(1.30366072335 0.0462999228374 0)
(1.30759231449 0.0333205152228 0)
(1.31005367007 0.0235495231837 0)
(1.31157359116 0.0163599056978 0)
(1.31249489032 0.0111713120822 0)
(1.31303857925 0.00749150307081 0)
(1.31334666663 0.00492448223256 0)
(1.3135100766 0.00316295204167 0)
(1.31358670321 0.00197474957271 0)
(1.31361307699 0.00118819570139 0)
(1.31361192557 0.000678629147544 0)
(1.31359708631 0.000357009053113 0)
(1.31357676339 0.000160754963603 0)
(1.31355576681 4.64698553871e-05 0)
(1.31353646856 -1.58694016967e-05 0)
(1.31351980742 -4.60588528326e-05 0)
(1.31350611541 -5.70696432266e-05 0)
(1.31349520779 -5.73246244953e-05 0)
(1.31348674758 -5.20857016758e-05 0)
(1.31348034656 -4.45222220805e-05 0)
(1.31347561935 -3.6458816894e-05 0)
(1.31347221463 -2.88689297858e-05 0)
(1.31346982909 -2.22064752063e-05 0)
(1.31346820318 -1.66232247428e-05 0)
(1.3134671088 -1.21267731415e-05 0)
(1.31346638075 -8.65128316954e-06 0)
(1.31346592184 -6.09498975995e-06 0)
(1.3134656309 -4.3203870023e-06 0)
(1.3134654184 -3.11953524549e-06 0)
(1.3134652818 -2.26245511101e-06 0)
(1.31346530674 -1.54457379365e-06 0)
(1.31346545503 -9.6725978929e-07 0)
(1.31346554805 -5.51238495107e-07 0)
(1.31346553433 -1.86041055189e-07 0)
(1.31346544644 1.56097462841e-07 0)
(1.31346530641 4.73318378432e-07 0)
(1.31346512596 7.7452515565e-07 0)
(1.31346490783 1.07232985002e-06 0)
(1.31346465368 1.37917269341e-06 0)
(1.31346437633 1.70860202614e-06 0)
(1.31346410915 2.0533168543e-06 0)
(1.31346387089 2.36661837648e-06 0)
(1.31346366951 2.61352903644e-06 0)
(1.31346353594 2.75094738868e-06 0)
(1.31346352116 2.71524906132e-06 0)
(1.31346370857 2.41787481375e-06 0)
(1.31346421908 1.75930651729e-06 0)
(1.31346506524 6.82759139176e-07 0)
(1.31346622781 -1.01185145556e-06 0)
(1.31346815946 -3.43719721809e-06 0)
(1.31347115998 -7.33524372888e-06 0)
(1.31347535331 -1.40212491998e-05 0)
(1.31348097531 -2.51042972976e-05 0)
(1.31348828332 -4.21592046368e-05 0)
(1.31349775569 -6.83433850541e-05 0)
(1.31350970015 -0.000108687488663 0)
(1.31352417536 -0.000170944842779 0)
(1.31354077856 -0.000267223452556 0)
(1.31355816655 -0.000416501008379 0)
(1.31357308805 -0.000648659234243 0)
(1.31357855617 -0.00101105663878 0)
(1.31356046836 -0.00157894851589 0)
(1.31349126267 -0.00247167207098 0)
(1.31331645496 -0.00387715351049 0)
(1.31292814618 -0.00608892437512 0)
(1.31211579686 -0.00955341856745 0)
(1.3104730292 -0.0149154258083 0)
(1.30724449035 -0.0230085237798 0)
(1.3012166561 -0.0346813699903 0)
(1.29051406078 -0.0503832566382 0)
(1.2716497784 -0.0689023890049 0)
(0.995736073173 0.0346338565843 0)
(1.04179514079 0.0905689182321 0)
(1.10222838242 0.121549562898 0)
(1.16491410995 0.129605833229 0)
(1.22202565474 0.122009268916 0)
(1.26951890959 0.106019940042 0)
(1.30680222502 0.0870975585094 0)
(1.33499533904 0.0686366839664 0)
(1.35574475889 0.0523698417369 0)
(1.37069615107 0.0389256198942 0)
(1.38128273784 0.0282980741124 0)
(1.38866265817 0.0201712764289 0)
(1.3937303122 0.0141175082256 0)
(1.3971565832 0.0097053326998 0)
(1.39943432112 0.00655059134354 0)
(1.40091963919 0.00433445076978 0)
(1.40186618194 0.00280414171056 0)
(1.40245219947 0.0017657410959 0)
(1.40280129469 0.00107419453956 0)
(1.40299798956 0.000623235760145 0)
(1.40309920893 0.000336410853363 0)
(1.40314266018 0.000159625063145 0)
(1.40315291828 5.51657855461e-05 0)
(1.4031454266 -2.99734469478e-06 0)
(1.40312966439 -3.21226895973e-05 0)
(1.40311125979 -4.38909557266e-05 0)
(1.40309321997 -4.57614386947e-05 0)
(1.40307706946 -4.24190342235e-05 0)
(1.4030634096 -3.67272343509e-05 0)
(1.40305231373 -3.03630458151e-05 0)
(1.40304357971 -2.42414642833e-05 0)
(1.40303688196 -1.88100257779e-05 0)
(1.40303185929 -1.42374653693e-05 0)
(1.40302816209 -1.05260119774e-05 0)
(1.40302549285 -7.57494230233e-06 0)
(1.40302361971 -5.25917377632e-06 0)
(1.40302236633 -3.45547208852e-06 0)
(1.40302158191 -2.01973339207e-06 0)
(1.40302110044 -8.47089659741e-07 0)
(1.4030207261 8.63518805937e-08 0)
(1.40302039167 7.97912124004e-07 0)
(1.40302018037 1.29008986048e-06 0)
(1.40302007839 1.66547248434e-06 0)
(1.4030199927 1.99024910679e-06 0)
(1.40301988901 2.30143953289e-06 0)
(1.4030197603 2.61717840969e-06 0)
(1.40301960495 2.94710213463e-06 0)
(1.40301942452 3.29637036948e-06 0)
(1.40301921859 3.666868238e-06 0)
(1.40301898014 4.04601848592e-06 0)
(1.40301872281 4.39390455149e-06 0)
(1.4030184801 4.68085295817e-06 0)
(1.40301827943 4.86929780832e-06 0)
(1.40301814691 4.90221854368e-06 0)
(1.40301810336 4.69268496271e-06 0)
(1.40301815246 4.09900782983e-06 0)
(1.40301825963 2.91100532846e-06 0)
(1.4030185203 1.00768798075e-06 0)
(1.40301908333 -1.90820396043e-06 0)
(1.40302003202 -6.73362418447e-06 0)
(1.40302135255 -1.42387667871e-05 0)
(1.40302269767 -2.57355546969e-05 0)
(1.40302355513 -4.30603672777e-05 0)
(1.40302316411 -6.91855417053e-05 0)
(1.40302001841 -0.000108695989962 0)
(1.40301134442 -0.000168620955125 0)
(1.40299231109 -0.00025986321108 0)
(1.40295468832 -0.000399284826932 0)
(1.40288442878 -0.000612986057673 0)
(1.40275765894 -0.000941693011925 0)
(1.4025342617 -0.00144898742334 0)
(1.4021476138 -0.0022334168266 0)
(1.40148558263 -0.00344462746399 0)
(1.40035907713 -0.00530732503647 0)
(1.39845361416 -0.0081458853488 0)
(1.39525400245 -0.0123976675346 0)
(1.38994370843 -0.0185776710188 0)
(1.38136883644 -0.027129658661 0)
(1.36802374491 -0.0381436474464 0)
(1.34750056904 -0.0507371503069 0)
(0.994011530466 0.0192358025156 0)
(1.03484763324 0.0523338368059 0)
(1.09199262257 0.0723631247522 0)
(1.15662419342 0.07912923059 0)
(1.22032115472 0.0761045463589 0)
(1.27701944187 0.0673339727878 0)
(1.32424417614 0.056150905827 0)
(1.36181572131 0.044799013832 0)
(1.39068529173 0.034530380358 0)
(1.41226073238 0.0258814345583 0)
(1.42801820221 0.0189465249363 0)
(1.43929881907 0.0135849815768 0)
(1.44722804953 0.0095565322892 0)
(1.4527041021 0.00660011223724 0)
(1.45641892387 0.00447418645192 0)
(1.45889140664 0.00297350979118 0)
(1.46050226904 0.00193276586933 0)
(1.4615256641 0.00122369240641 0)
(1.4621556785 0.000749550835529 0)
(1.462527502 0.000439019565865 0)
(1.4627337776 0.000240524007361 0)
(1.46283691838 0.0001174151597 0)
(1.46287821846 4.40522943909e-05 0)
(1.46288445482 2.69286903821e-06 0)
(1.46287232773 -1.84434184243e-05 0)
(1.46285197398 -2.7438201992e-05 0)
(1.46282942071 -2.94385020646e-05 0)
(1.46280788061 -2.76882273975e-05 0)
(1.46278888107 -2.41853061387e-05 0)
(1.46277296601 -2.01111810414e-05 0)
(1.46276012616 -1.61148230855e-05 0)
(1.462750067 -1.25194129504e-05 0)
(1.4627423781 -9.45181117072e-06 0)
(1.46273662775 -6.92296292699e-06 0)
(1.46273241784 -4.87901351912e-06 0)
(1.46272940658 -3.25034902197e-06 0)
(1.46272730578 -1.97351236208e-06 0)
(1.46272585817 -1.00699173506e-06 0)
(1.46272485226 -3.052850218e-07 0)
(1.4627242227 2.19035563815e-07 0)
(1.46272385495 7.04776978823e-07 0)
(1.46272360025 1.18622792129e-06 0)
(1.46272342645 1.61655938862e-06 0)
(1.46272329384 2.00304594512e-06 0)
(1.46272317296 2.36706060576e-06 0)
(1.46272304468 2.72235130692e-06 0)
(1.46272289535 3.0747017505e-06 0)
(1.46272271623 3.42248809567e-06 0)
(1.46272250277 3.75707203241e-06 0)
(1.46272225254 4.0682201313e-06 0)
(1.46272196891 4.34858330377e-06 0)
(1.4627216595 4.56675787917e-06 0)
(1.46272133075 4.67262030578e-06 0)
(1.46272099091 4.59710168371e-06 0)
(1.46272065174 4.24943378732e-06 0)
(1.46272033067 3.516361627e-06 0)
(1.46272004638 2.27528208263e-06 0)
(1.46271968698 4.64941461682e-07 0)
(1.46271904484 -2.27139200371e-06 0)
(1.46271800399 -6.67117503897e-06 0)
(1.46271631696 -1.35384896771e-05 0)
(1.46271330004 -2.39801083755e-05 0)
(1.46270781717 -3.95283712349e-05 0)
(1.46269804401 -6.25519982269e-05 0)
(1.46268089892 -9.66402375138e-05 0)
(1.46265119123 -0.000147171111739 0)
(1.46260039705 -0.000222367454825 0)
(1.46251471589 -0.000334627315325 0)
(1.46237152236 -0.000502558839176 0)
(1.46213372143 -0.000754676839129 0)
(1.46174129871 -0.00113507347957 0)
(1.46109927323 -0.00171101891131 0)
(1.46005562501 -0.00257877480898 0)
(1.458368337 -0.00387856346888 0)
(1.45566181223 -0.00580372437953 0)
(1.45136788741 -0.00859893157156 0)
(1.44466175204 -0.0125267671685 0)
(1.43446741662 -0.017771218257 0)
(1.41951469917 -0.0242852586052 0)
(1.39794136588 -0.0315283665973 0)
(0.993269666541 0.00617014623347 0)
(1.03158099774 0.0171020420424 0)
(1.08672181452 0.0239906455966 0)
(1.15174553905 0.0265606641836 0)
(1.218235355 0.0258180587808 0)
(1.27925773099 0.0230488875499 0)
(1.3314013466 0.0193656339848 0)
(1.37377597182 0.0155468610548 0)
(1.40691051635 0.0120449332351 0)
(1.43203311474 0.00906640206093 0)
(1.45060212734 0.00666059589328 0)
(1.46402983372 0.00479009117095 0)
(1.47355013356 0.0033784266508 0)
(1.4801756041 0.00233873550489 0)
(1.48470225566 0.0015889110082 0)
(1.48773617059 0.0010582863989 0)
(1.48972730735 0.000689461339638 0)
(1.49100273691 0.000437638557474 0)
(1.4917958167 0.000268887670802 0)
(1.49227018696 0.000158114631571 0)
(1.4925386782 8.71292670719e-05 0)
(1.49267775351 4.29798655432e-05 0)
(1.49273828547 1.65895321718e-05 0)
(1.49275345778 1.66802246117e-06 0)
(1.49274421946 -6.06588908406e-06 0)
(1.49272343037 -9.41208558096e-06 0)
(1.49269878564 -1.02186660498e-05 0)
(1.49267451289 -9.6550902319e-06 0)
(1.49265270899 -8.44012061012e-06 0)
(1.49263421484 -6.99203929068e-06 0)
(1.49261915258 -5.55150434665e-06 0)
(1.49260725985 -4.23878443872e-06 0)
(1.49259810747 -3.10147839553e-06 0)
(1.49259122056 -2.14580194414e-06 0)
(1.49258614586 -1.35546072778e-06 0)
(1.49258248377 -7.08396304094e-07 0)
(1.49257989881 -1.828243698e-07 0)
(1.49257812096 2.43552132148e-07 0)
(1.49257694322 6.17395888449e-07 0)
(1.49257618763 9.89151795755e-07 0)
(1.49257570081 1.29775503031e-06 0)
(1.49257539041 1.58703810532e-06 0)
(1.49257519879 1.87395326518e-06 0)
(1.49257507325 2.16883679784e-06 0)
(1.49257497477 2.47914046494e-06 0)
(1.49257487706 2.80804224309e-06 0)
(1.49257476158 3.15533500737e-06 0)
(1.49257461495 3.51758106105e-06 0)
(1.49257442711 3.886996576e-06 0)
(1.49257418951 4.25019472017e-06 0)
(1.49257389668 4.58800766026e-06 0)
(1.49257354485 4.86898888517e-06 0)
(1.49257312761 5.04918481816e-06 0)
(1.49257263379 5.06883412659e-06 0)
(1.49257204277 4.84615303226e-06 0)
(1.49257132454 4.26944501534e-06 0)
(1.49257047193 3.19037577895e-06 0)
(1.49256936123 1.45274742484e-06 0)
(1.49256754641 -1.13339143412e-06 0)
(1.49256470601 -5.02585933461e-06 0)
(1.49256046876 -1.0905955847e-05 0)
(1.49255381879 -1.95301414665e-05 0)
(1.49254312558 -3.19549271706e-05 0)
(1.49252582847 -4.97177027713e-05 0)
(1.49249779962 -7.4990204213e-05 0)
(1.49245226352 -0.000110746722027 0)
(1.49237836554 -0.000161444598596 0)
(1.49225902917 -0.000233383562879 0)
(1.49206664711 -0.000335043788345 0)
(1.49175616938 -0.000479198860135 0)
(1.49125560354 -0.00068680917866 0)
(1.4904558175 -0.000989751941807 0)
(1.48918597929 -0.00142103965994 0)
(1.48717914525 -0.00202863737792 0)
(1.48403501592 -0.00287414298543 0)
(1.47917061568 -0.00402541331635 0)
(1.47177413712 -0.00553737263089 0)
(1.46082448818 -0.00741253305894 0)
(1.44516303824 -0.00955824691355 0)
(1.42316327564 -0.0117275304869 0)
(0.993270464442 -0.00616840624749 0)
(1.0315809808 -0.0171003803055 0)
(1.08672174905 -0.0239897651728 0)
(1.15174557773 -0.026560249105 0)
(1.21823543391 -0.0258179938012 0)
(1.2792578339 -0.0230491093288 0)
(1.3314014732 -0.0193660452019 0)