/*--------------------------------*- C++ -*----------------------------------*\
| =========                 |                                                 |
| \\      /  F ield         | OpenFOAM: The Open Source CFD Toolbox           |
|  \\    /   O peration     | Version:  2106                                  |
|   \\  /    A nd           | Website:  www.openfoam.com                      |
|    \\/     M anipulation  |                                                 |
\*---------------------------------------------------------------------------*/
FoamFile
{
    version     2.0;
    format      ascii;
    arch        "LSB;label=32;scalar=64";
    class       volScalarField;
    location    "0.07";
    object      p;
}
// * * * * * * * * * * * * * * * * * * * * * * * * * * * * * * * * * * * * * //

dimensions      [1 -1 -2 0 0 0 0];

internalField   nonuniform List<scalar> 
800
(
1
1
1
1
1
1
1
1
1
1
1
1
1
1
1
1
1
1
1
1
1
1
1
1
1
1
1
1
1
1
1
1
1
1
1
1
1
1
1
1
1
1
1
1
1
1
1
1
1
1
1
1
1
1
1
1
1
1
1
1
1
1
1
1
1
1
1
1
1
1
1
1
1
1
1
1
1
1
1
1
1
1
1
1
1
1
1
1
1
1
1
1
1
1
1
1
1
1
1
1
1
1
1
1
1
1
1
1
1
1
1
1
1
1
1
1
1
1
1
1
1
1
1
1
1
1
1
1
1
1
1
1
1
1
1
1
1
1
1
1
1
1
1
1
1
1
1
1
1
1
1
1
1
1
1
1
1
1
1
1
1
1
1
1
1
1
1
1
1
1
1
1
1
1
1
1
1
1
1
1
1
1
1
1
1
1
1
1
1
1
1
1
1
1
1
1
1
1
1
1
1
1
1
1
1
1
1
1
1
1
1
1
1
1
1
1
1
1
1
1
1
1
1
1
1
1
1
1
1
1
1
1
1
1
1
1
1
1
1
1
1
1
1
1
1
1
1
1
1
1
1
1
1
1
1
1
1
1
1
1
1
1
1
1
1
1
1
1
1
1
1
1
1
1
1
1
1
1
1
1
1
1
1
1
1
1
1
1
1
1
1
1
1
1
1
1
1
1
1
1
1
1
1
1
1
1
1
1
1
1
1
1
1
1
1
1
0.999994
0.99954
0.994453
0.979208
0.958935
0.940054
0.923714
0.909158
0.895636
0.882706
0.870141
0.857834
0.845733
0.833813
0.82206
0.810464
0.79902
0.787722
0.776567
0.765553
0.754675
0.743933
0.733324
0.722846
0.712497
0.702276
0.692181
0.68221
0.672362
0.662636
0.653029
0.643542
0.634171
0.624916
0.615775
0.606748
0.597833
0.589028
0.580332
0.571744
0.563264
0.554889
0.546618
0.53845
0.530385
0.522421
0.514556
0.50679
0.499122
0.49155
0.484074
0.476693
0.469405
0.46221
0.455107
0.448095
0.441173
0.434339
0.427595
0.420938
0.414368
0.407884
0.401485
0.395172
0.388943
0.382797
0.376735
0.370755
0.364858
0.359041
0.353306
0.34765
0.342074
0.336577
0.331158
0.325821
0.320574
0.315452
0.310557
0.306155
0.302768
0.300958
0.300538
0.301013
0.301648
0.301673
0.301294
0.301109
0.301076
0.301093
0.301151
0.301176
0.301191
0.301232
0.301293
0.301329
0.301346
0.301372
0.301432
0.301501
0.301542
0.301567
0.301588
0.301599
0.301597
0.301595
0.301618
0.301672
0.301707
0.301725
0.301744
0.301763
0.301768
0.301767
0.301776
0.301809
0.301826
0.301824
0.301812
0.301801
0.301775
0.301725
0.301686
0.301674
0.301675
0.301669
0.301649
0.301646
0.301649
0.301639
0.301609
0.301591
0.301613
0.301627
0.301616
0.301618
0.301639
0.301658
0.301651
0.30163
0.301649
0.301686
0.301686
0.301684
0.3017
0.301732
0.301787
0.3019
0.302142
0.302247
0.302519
0.302917
0.301334
0.300956
0.301038
0.301148
0.301473
0.302122
0.302813
0.302748
0.302365
0.301901
0.301321
0.300916
0.300813
0.300815
0.301092
0.301833
0.302442
0.302525
0.30252
0.302332
0.301769
0.301023
0.300753
0.300792
0.300921
0.301269
0.301916
0.302412
0.302502
0.302432
0.302219
0.301664
0.301018
0.300852
0.300864
0.30098
0.301412
0.302112
0.30245
0.3025
0.302466
0.302176
0.301497
0.300984
0.300928
0.300951
0.301126
0.301631
0.302264
0.302467
0.302451
0.302396
0.302149
0.299728
0.27393
0.171886
0.104017
0.10001
0.1
0.1
0.1
0.1
0.1
0.1
0.1
0.1
0.1
0.1
0.1
0.1
0.1
0.1
0.1
0.1
0.1
0.1
0.1
0.1
0.1
0.1
0.1
0.1
0.1
0.1
0.1
0.1
0.1
0.1
0.1
0.1
0.1
0.1
0.1
0.1
0.1
0.1
0.1
0.1
0.1
0.1
0.1
0.1
0.1
0.1
0.1
0.1
0.1
0.1
0.1
0.1
0.1
0.1
0.1
0.1
0.1
0.1
0.1
0.1
0.1
0.1
0.1
0.1
0.1
0.1
0.1
0.1
0.1
0.1
0.1
0.1
0.1
0.1
0.1
0.1
0.1
0.1
0.1
0.1
0.1
0.1
0.1
0.1
0.1
0.1
0.1
0.1
0.1
0.1
0.1
0.1
0.1
0.1
0.1
0.1
0.1
0.1
0.1
0.1
0.1
0.1
0.1
0.1
0.1
0.1
0.1
0.1
0.1
0.1
0.1
0.1
0.1
0.1
0.1
0.1
0.1
0.1
0.1
0.1
0.1
0.1
0.1
0.1
0.1
0.1
0.1
0.1
0.1
0.1
0.1
0.1
0.1
0.1
0.1
0.1
0.1
0.1
0.1
0.1
0.1
0.1
0.1
0.1
0.1
0.1
0.1
0.1
0.1
0.1
0.1
0.1
0.1
0.1
0.1
0.1
0.1
0.1
0.1
0.1
0.1
0.1
0.1
0.1
0.1
0.1
0.1
0.1
0.1
0.1
0.1
0.1
0.1
0.1
0.1
0.1
0.1
0.1
0.1
0.1
0.1
0.1
0.1
0.1
0.1
0.1
0.1
0.1
0.1
0.1
0.1
0.1
0.1
0.1
0.1
0.1
0.1
0.1
0.1
0.1
0.1
0.1
0.1
0.1
0.1
0.1
0.1
0.1
0.1
0.1
0.1
0.1
0.1
0.1
0.1
0.1
0.1
0.1
0.1
0.1
0.1
0.1
0.1
0.1
0.1
0.1
0.1
0.1
0.1
0.1
0.1
0.1
0.1
0.1
0.1
0.1
0.1
0.1
0.1
0.1
0.1
0.1
0.1
0.1
0.1
0.1
0.1
0.1
0.1
0.1
0.1
0.1
0.1
0.1
0.1
0.1
0.1
0.1
0.1
0.1
0.1
0.1
0.1
0.1
0.1
0.1
0.1
0.1
0.1
0.1
0.1
0.1
0.1
0.1
)
;

boundaryField
{
    left
    {
        type            zeroGradient;
    }
    right
    {
        type            zeroGradient;
    }
    empty
    {
        type            empty;
    }
}


// ************************************************************************* //
