/*--------------------------------*- C++ -*----------------------------------*\
| =========                 |                                                 |
| \\      /  F ield         | OpenFOAM: The Open Source CFD Toolbox           |
|  \\    /   O peration     | Version:  2106                                  |
|   \\  /    A nd           | Website:  www.openfoam.com                      |
|    \\/     M anipulation  |                                                 |
\*---------------------------------------------------------------------------*/
FoamFile
{
    version     2.0;
    format      ascii;
    arch        "LSB;label=32;scalar=64";
    class       volScalarField;
    location    "0.07";
    object      T;
}
// * * * * * * * * * * * * * * * * * * * * * * * * * * * * * * * * * * * * * //

dimensions      [0 0 0 1 0 0 0];

internalField   nonuniform List<scalar> 
800
(
0.003468
0.003468
0.003468
0.003468
0.003468
0.003468
0.003468
0.003468
0.003468
0.003468
0.003468
0.003468
0.003468
0.003468
0.003468
0.003468
0.003468
0.003468
0.003468
0.003468
0.003468
0.003468
0.003468
0.003468
0.003468
0.003468
0.003468
0.003468
0.003468
0.003468
0.003468
0.003468
0.003468
0.003468
0.003468
0.003468
0.003468
0.003468
0.003468
0.003468
0.003468
0.003468
0.003468
0.003468
0.003468
0.003468
0.003468
0.003468
0.003468
0.003468
0.003468
0.003468
0.003468
0.003468
0.003468
0.003468
0.003468
0.003468
0.003468
0.003468
0.003468
0.003468
0.003468
0.003468
0.003468
0.003468
0.003468
0.003468
0.003468
0.003468
0.003468
0.003468
0.003468
0.003468
0.003468
0.003468
0.003468
0.003468
0.003468
0.003468
0.003468
0.003468
0.003468
0.003468
0.003468
0.003468
0.003468
0.003468
0.003468
0.003468
0.003468
0.003468
0.003468
0.003468
0.003468
0.003468
0.003468
0.003468
0.003468
0.003468
0.003468
0.003468
0.003468
0.003468
0.003468
0.003468
0.003468
0.003468
0.003468
0.003468
0.003468
0.003468
0.003468
0.003468
0.003468
0.003468
0.003468
0.003468
0.003468
0.003468
0.003468
0.003468
0.003468
0.003468
0.003468
0.003468
0.003468
0.003468
0.003468
0.003468
0.003468
0.003468
0.003468
0.003468
0.003468
0.003468
0.003468
0.003468
0.003468
0.003468
0.003468
0.003468
0.003468
0.003468
0.003468
0.003468
0.003468
0.003468
0.003468
0.003468
0.003468
0.003468
0.003468
0.003468
0.003468
0.003468
0.003468
0.003468
0.003468
0.003468
0.003468
0.003468
0.003468
0.003468
0.003468
0.003468
0.003468
0.003468
0.003468
0.003468
0.003468
0.003468
0.003468
0.003468
0.003468
0.003468
0.003468
0.003468
0.003468
0.003468
0.003468
0.003468
0.003468
0.003468
0.003468
0.003468
0.003468
0.003468
0.003468
0.003468
0.003468
0.003468
0.003468
0.003468
0.003468
0.003468
0.003468
0.003468
0.003468
0.003468
0.003468
0.003468
0.003468
0.003468
0.003468
0.003468
0.003468
0.003468
0.003468
0.003468
0.003468
0.003468
0.003468
0.003468
0.003468
0.003468
0.003468
0.003468
0.003468
0.003468
0.003468
0.003468
0.003468
0.003468
0.003468
0.003468
0.003468
0.003468
0.003468
0.003468
0.003468
0.003468
0.003468
0.003468
0.003468
0.003468
0.003468
0.003468
0.003468
0.003468
0.003468
0.003468
0.003468
0.003468
0.003468
0.003468
0.003468
0.003468
0.003468
0.003468
0.003468
0.003468
0.003468
0.003468
0.003468
0.003468
0.003468
0.003468
0.003468
0.003468
0.003468
0.003468
0.003468
0.003468
0.003468
0.003468
0.003468
0.003468
0.003468
0.003468
0.003468
0.003468
0.003468
0.003468
0.003468
0.003468
0.003468
0.003468
0.003468
0.003468
0.003468
0.003468
0.003468
0.003468
0.003468
0.003468
0.003468
0.003468
0.003468
0.003468
0.003468
0.003468
0.003468
0.003468
0.003468
0.003468
0.003468
0.003468
0.003468
0.003468
0.003468
0.003468
0.003468
0.003468
0.003468
0.003468
0.003468
0.003468
0.003468
0.003468
0.003468
0.003468
0.003468
0.003468
0.003468
0.003468
0.00346799
0.00346754
0.0034625
0.00344725
0.00342668
0.00340723
0.00339018
0.00337481
0.00336037
0.00334642
0.00333272
0.00331916
0.0033057
0.0032923
0.00327896
0.00326566
0.0032524
0.00323918
0.00322599
0.00321284
0.00319971
0.00318662
0.00317355
0.00316051
0.0031475
0.00313452
0.00312156
0.00310863
0.00309573
0.00308285
0.00307
0.00305718
0.00304438
0.0030316
0.00301885
0.00300613
0.00299343
0.00298075
0.0029681
0.00295547
0.00294286
0.00293028
0.00291772
0.00290518
0.00289267
0.00288018
0.00286771
0.00285526
0.00284284
0.00283044
0.00281806
0.0028057
0.00279337
0.00278105
0.00276876
0.00275649
0.00274424
0.00273202
0.00271982
0.00270764
0.00269548
0.00268335
0.00267125
0.00265916
0.00264711
0.00263508
0.00262307
0.0026111
0.00259915
0.00258723
0.00257534
0.00256348
0.00255166
0.00253986
0.0025281
0.00251638
0.00250472
0.00249321
0.00248208
0.00247197
0.00246411
0.0024599
0.0024589
0.00246
0.0024615
0.00246151
0.00246062
0.00246023
0.0024601
0.00246013
0.00246025
0.0024603
0.00246033
0.00246042
0.00246056
0.00246064
0.00246066
0.0024607
0.00246081
0.00246095
0.00246105
0.00246111
0.00246118
0.00246119
0.00246118
0.00246114
0.00246117
0.00246126
0.00246131
0.00246133
0.00246136
0.00246139
0.00246138
0.00246135
0.00246136
0.00246143
0.00246142
0.0024614
0.00246135
0.0024613
0.00246122
0.00246108
0.00246097
0.00246092
0.0024609
0.00246086
0.00246077
0.00246069
0.00246066
0.00246062
0.00246055
0.0024605
0.00246056
0.00246055
0.00246046
0.00246027
0.0024599
0.00245938
0.00245912
0.00245911
0.00245948
0.00246082
0.00246438
0.00247297
0.00249186
0.00253027
0.0026033
0.00273275
0.00294356
0.00324604
0.00360129
0.00389585
0.00402699
0.00405383
0.00405549
0.0040548
0.00405278
0.00404993
0.00404551
0.00403731
0.00402867
0.00402199
0.00401665
0.00401328
0.0040116
0.00401063
0.00401081
0.00401319
0.00401598
0.00401709
0.00401832
0.00401931
0.00401914
0.00401803
0.00401816
0.00401928
0.00402032
0.00402147
0.00402319
0.00402408
0.00402343
0.00402174
0.00401951
0.00401637
0.00401327
0.00401229
0.00401229
0.00401293
0.00401543
0.00401933
0.00402182
0.00402289
0.00402345
0.00402301
0.00402064
0.00401852
0.00401806
0.00401778
0.00401781
0.00401898
0.00402073
0.00402093
0.00402031
0.00401949
0.00401806
0.00400881
0.00390645
0.00341115
0.00286315
0.00282182
0.00282173
0.00282173
0.00282173
0.00282173
0.00282173
0.00282173
0.00282173
0.00282173
0.00282173
0.00282173
0.00282173
0.00282173
0.00282173
0.00282173
0.00282173
0.00282173
0.00282173
0.00282173
0.00282173
0.00282173
0.00282173
0.00282173
0.00282173
0.00282173
0.00282173
0.00282173
0.00282173
0.00282173
0.00282173
0.00282173
0.00282173
0.00282173
0.00282173
0.00282173
0.00282173
0.00282173
0.00282173
0.00282173
0.00282173
0.00282173
0.00282173
0.00282173
0.00282173
0.00282173
0.00282173
0.00282173
0.00282173
0.00282173
0.00282173
0.00282173
0.00282173
0.00282173
0.00282173
0.00282173
0.00282173
0.00282173
0.00282173
0.00282173
0.00282173
0.00282173
0.00282173
0.00282173
0.00282173
0.00282173
0.00282173
0.00282173
0.00282173
0.00282173
0.00282173
0.00282173
0.00282173
0.00282173
0.00282173
0.00282173
0.00282173
0.00282173
0.00282173
0.00282173
0.00282173
0.00282173
0.00282173
0.00282173
0.00282173
0.00282173
0.00282173
0.00282173
0.00282173
0.00282173
0.00282173
0.00282173
0.00282173
0.00282173
0.00282173
0.00282173
0.00282173
0.00282173
0.00282173
0.00282173
0.00282173
0.00282173
0.00282173
0.00282173
0.00282173
0.00282173
0.00282173
0.00282173
0.00282173
0.00282173
0.00282173
0.00282173
0.00282173
0.00282173
0.00282173
0.00282173
0.00282173
0.00282173
0.00282173
0.00282173
0.00282173
0.00282173
0.00282173
0.00282173
0.00282173
0.00282173
0.00282173
0.00282173
0.00282173
0.00282173
0.00282173
0.00282173
0.00282173
0.00282173
0.00282173
0.00282173
0.00282173
0.00282173
0.00282173
0.00282173
0.00282173
0.00282173
0.00282173
0.00282173
0.00282173
0.00282173
0.00282173
0.00282173
0.00282173
0.00282173
0.00282173
0.00282173
0.00282173
0.00282173
0.00282173
0.00282173
0.00282173
0.00282173
0.00282173
0.00282173
0.00282173
0.00282173
0.00282173
0.00282173
0.00282173
0.00282173
0.00282173
0.00282173
0.00282173
0.00282173
0.00282173
0.00282173
0.00282173
0.00282173
0.00282173
0.00282173
0.00282173
0.00282173
0.00282173
0.00282173
0.00282173
0.00282173
0.00282173
0.00282173
0.00282173
0.00282173
0.00282173
0.00282173
0.00282173
0.00282173
0.00282173
0.00282173
0.00282173
0.00282173
0.00282173
0.00282173
0.00282173
0.00282173
0.00282173
0.00282173
0.00282173
0.00282173
0.00282173
0.00282173
0.00282173
0.00282173
0.00282173
0.00282173
0.00282173
0.00282173
0.00282173
0.00282173
0.00282173
0.00282173
0.00282173
0.00282173
0.00282173
0.00282173
0.00282173
0.00282173
0.00282173
0.00282173
0.00282173
0.00282173
0.00282173
0.00282173
0.00282173
0.00282173
0.00282173
0.00282173
0.00282173
0.00282173
0.00282173
0.00282173
0.00282173
0.00282173
0.00282173
0.00282173
0.00282173
0.00282173
0.00282173
0.00282173
0.00282173
0.00282173
0.00282173
0.00282173
0.00282173
0.00282173
0.00282173
0.00282173
0.00282173
0.00282173
0.00282173
0.00282173
0.00282173
0.00282173
0.00282173
0.00282173
0.00282173
0.00282173
0.00282173
0.00282173
0.00282173
0.00282173
0.00282173
0.00282173
0.00282173
0.00282173
0.00282173
0.00282173
0.00282173
0.00282173
0.00282173
0.00282173
0.00282173
0.00282173
)
;

boundaryField
{
    left
    {
        type            zeroGradient;
    }
    right
    {
        type            zeroGradient;
    }
    empty
    {
        type            empty;
    }
}


// ************************************************************************* //
