/*--------------------------------*- C++ -*----------------------------------*\
| =========                 |                                                 |
| \\      /  F ield         | OpenFOAM: The Open Source CFD Toolbox           |
|  \\    /   O peration     | Version:  2106                                  |
|   \\  /    A nd           | Website:  www.openfoam.com                      |
|    \\/     M anipulation  |                                                 |
\*---------------------------------------------------------------------------*/
FoamFile
{
    version     2.0;
    format      ascii;
    arch        "LSB;label=32;scalar=64";
    class       volVectorField;
    location    "0.07";
    object      U;
}
// * * * * * * * * * * * * * * * * * * * * * * * * * * * * * * * * * * * * * //

dimensions      [0 1 -1 0 0 0 0];

internalField   nonuniform List<vector> 
800
(
(-6.58775e-11 0 0)
(-9.15942e-11 0 0)
(-1.12958e-10 0 0)
(-9.27714e-11 0 0)
(-1.19219e-10 0 0)
(-1.57204e-10 0 0)
(-1.00289e-10 0 0)
(-1.76715e-11 0 0)
(5.37382e-11 0 0)
(1.09561e-10 0 0)
(7.80819e-11 0 0)
(2.31699e-11 0 0)
(2.12838e-11 0 0)
(2.11323e-11 0 0)
(7.40963e-13 0 0)
(-2.85932e-11 0 0)
(-5.03416e-11 0 0)
(-1.03042e-10 0 0)
(-1.661e-10 0 0)
(-1.59307e-10 0 0)
(-1.18168e-10 0 0)
(-5.73916e-11 0 0)
(-3.25552e-11 0 0)
(-9.16455e-11 0 0)
(-1.24582e-10 0 0)
(-1.01461e-10 0 0)
(-7.99573e-11 0 0)
(-1.11847e-10 0 0)
(-1.53642e-10 0 0)
(-1.16662e-10 0 0)
(-9.12585e-11 0 0)
(-1.05983e-10 0 0)
(-1.24815e-10 0 0)
(-1.76229e-10 0 0)
(-1.09605e-10 0 0)
(-6.29114e-11 0 0)
(-1.09789e-10 0 0)
(-1.08475e-10 0 0)
(-7.40272e-11 0 0)
(-5.53819e-11 0 0)
(-2.5485e-11 0 0)
(4.43486e-11 0 0)
(5.39702e-11 0 0)
(5.09556e-11 0 0)
(8.80656e-11 0 0)
(9.83594e-11 0 0)
(4.9489e-11 0 0)
(-7.00057e-12 0 0)
(-7.33264e-11 0 0)
(-9.55266e-11 0 0)
(-7.64229e-11 0 0)
(-8.69667e-11 0 0)
(-1.33838e-10 0 0)
(-1.33218e-10 0 0)
(-3.70936e-11 0 0)
(9.59442e-11 0 0)
(1.98721e-10 0 0)
(1.99666e-10 0 0)
(1.43614e-10 0 0)
(8.55967e-11 0 0)
(3.02358e-11 0 0)
(-3.80499e-11 0 0)
(-8.08324e-11 0 0)
(-9.39632e-11 0 0)
(-1.15882e-10 0 0)
(-1.20022e-10 0 0)
(-1.66433e-10 0 0)
(-1.84101e-10 0 0)
(-9.53e-11 0 0)
(2.30833e-11 0 0)
(4.47742e-11 0 0)
(7.19031e-11 0 0)
(6.08603e-11 0 0)
(1.3455e-12 0 0)
(-6.57637e-11 0 0)
(-7.19061e-11 0 0)
(-1.63756e-11 0 0)
(-5.54742e-13 0 0)
(1.86412e-11 0 0)
(2.07739e-11 0 0)
(1.43561e-11 0 0)
(8.16205e-12 0 0)
(-6.49943e-12 0 0)
(-2.09767e-11 0 0)
(-5.9557e-11 0 0)
(-1.18761e-10 0 0)
(-1.71937e-10 0 0)
(-2.1159e-10 0 0)
(-2.08875e-10 0 0)
(-1.25989e-10 0 0)
(-4.16755e-11 0 0)
(4.4209e-11 0 0)
(7.25318e-11 0 0)
(4.34378e-11 0 0)
(-1.87228e-11 0 0)
(-8.28061e-11 0 0)
(-7.46054e-11 0 0)
(-1.91881e-11 0 0)
(3.85368e-11 0 0)
(5.95314e-11 0 0)
(4.73043e-11 0 0)
(7.12314e-11 0 0)
(4.42323e-11 0 0)
(-3.3345e-11 0 0)
(-8.97744e-11 0 0)
(-1.44126e-11 0 0)
(1.50816e-11 0 0)
(-7.54671e-12 0 0)
(-2.1883e-12 0 0)
(2.13095e-11 0 0)
(2.77838e-11 0 0)
(6.52753e-11 0 0)
(-4.14312e-11 0 0)
(-1.64955e-10 0 0)
(-1.16549e-10 0 0)
(-5.48574e-11 0 0)
(-3.22081e-12 0 0)
(-2.9344e-11 0 0)
(-6.95998e-11 0 0)
(-5.08346e-11 0 0)
(-2.71853e-11 0 0)
(-3.72701e-13 0 0)
(8.26795e-12 0 0)
(2.89442e-11 0 0)
(5.21805e-11 0 0)
(1.38562e-11 0 0)
(-7.00325e-11 0 0)
(-7.67123e-11 0 0)
(-1.01112e-10 0 0)
(-9.94858e-11 0 0)
(-6.74357e-11 0 0)
(-7.5718e-11 0 0)
(-7.16644e-11 0 0)
(-8.50852e-11 0 0)
(-7.21829e-11 0 0)
(-4.47928e-11 0 0)
(-5.14199e-11 0 0)
(-6.83877e-11 0 0)
(-6.18439e-11 0 0)
(-7.94431e-11 0 0)
(-6.98875e-11 0 0)
(-2.43877e-11 0 0)
(-4.0142e-11 0 0)
(-1.13045e-11 0 0)
(-3.82905e-11 0 0)
(-6.04725e-11 0 0)
(-5.21253e-11 0 0)
(-3.50723e-11 0 0)
(-7.1767e-12 0 0)
(1.16846e-11 0 0)
(-5.6407e-11 0 0)
(-4.61078e-11 0 0)
(4.41387e-11 0 0)
(9.09702e-11 0 0)
(7.49661e-11 0 0)
(4.07278e-11 0 0)
(-3.14075e-11 0 0)
(-8.35046e-11 0 0)
(-9.1565e-11 0 0)
(-6.39985e-11 0 0)
(-8.86526e-11 0 0)
(-8.63629e-11 0 0)
(-6.07423e-11 0 0)
(-2.5891e-12 0 0)
(5.30655e-11 0 0)
(4.3457e-11 0 0)
(-2.21483e-11 0 0)
(-8.59926e-11 0 0)
(-6.54346e-11 0 0)
(-2.52909e-11 0 0)
(-6.64087e-11 0 0)
(-9.06686e-11 0 0)
(-1.49891e-11 0 0)
(8.99364e-11 0 0)
(1.93474e-10 0 0)
(1.56139e-10 0 0)
(8.1049e-11 0 0)
(4.21561e-11 0 0)
(-8.67202e-12 0 0)
(-7.26179e-11 0 0)
(-9.34203e-11 0 0)
(-8.12763e-11 0 0)
(-6.85189e-11 0 0)
(-4.52088e-11 0 0)
(-1.1844e-11 0 0)
(1.12846e-11 0 0)
(3.83009e-11 0 0)
(-1.36366e-12 0 0)
(-1.21296e-10 0 0)
(-2.21757e-10 0 0)
(-2.43378e-10 0 0)
(-2.70676e-10 0 0)
(-2.737e-10 0 0)
(-1.26254e-10 0 0)
(4.52897e-11 0 0)
(9.71232e-11 0 0)
(1.41349e-10 0 0)
(1.40636e-10 0 0)
(1.4246e-10 0 0)
(1.31005e-10 0 0)
(6.34643e-11 0 0)
(7.05935e-12 0 0)
(2.20577e-11 0 0)
(4.63703e-11 0 0)
(6.37482e-11 0 0)
(6.72642e-11 0 0)
(2.93599e-11 0 0)
(1.5491e-12 0 0)
(7.91381e-12 0 0)
(-7.68382e-12 0 0)
(-1.63777e-11 0 0)
(-2.5159e-11 0 0)
(-6.99763e-11 0 0)
(-7.71978e-11 0 0)
(-7.00649e-11 0 0)
(-4.91011e-11 0 0)
(-7.77902e-12 0 0)
(8.46364e-11 0 0)
(1.45352e-10 0 0)
(1.73215e-10 0 0)
(1.52448e-10 0 0)
(1.28275e-10 0 0)
(1.45263e-10 0 0)
(1.68125e-10 0 0)
(1.75396e-10 0 0)
(1.64338e-10 0 0)
(1.46131e-10 0 0)
(1.49163e-10 0 0)
(1.55198e-10 0 0)
(1.19659e-10 0 0)
(1.27815e-10 0 0)
(8.7072e-11 0 0)
(1.17598e-10 0 0)
(2.51418e-10 0 0)
(3.42932e-10 0 0)
(3.25445e-10 0 0)
(3.02933e-10 0 0)
(2.80247e-10 0 0)
(2.9203e-10 0 0)
(2.2646e-10 0 0)
(1.57546e-10 0 0)
(1.63918e-10 0 0)
(1.86517e-10 0 0)
(1.90951e-10 0 0)
(1.27593e-10 0 0)
(1.04036e-10 0 0)
(1.07374e-10 0 0)
(1.2663e-10 0 0)
(1.28767e-10 0 0)
(1.4522e-10 0 0)
(2.07618e-10 0 0)
(2.73314e-10 0 0)
(2.6016e-10 0 0)
(2.46079e-10 0 0)
(3.03338e-10 0 0)
(2.88297e-10 0 0)
(2.02519e-10 0 0)
(1.17509e-10 0 0)
(3.67632e-11 0 0)
(-5.10693e-11 0 0)
(-7.22501e-11 0 0)
(-1.18616e-10 0 0)
(-1.12697e-10 0 0)
(-7.91843e-11 0 0)
(-9.72107e-11 0 0)
(-1.47764e-10 0 0)
(-1.35277e-10 0 0)
(-3.091e-11 0 0)
(3.3494e-11 0 0)
(6.23214e-11 0 0)
(6.60344e-11 0 0)
(9.26919e-11 0 0)
(5.26376e-11 0 0)
(3.65392e-11 0 0)
(4.80876e-11 0 0)
(3.53138e-11 0 0)
(4.21224e-11 0 0)
(7.63181e-11 0 0)
(1.98749e-11 0 0)
(-5.21936e-12 0 0)
(6.57162e-12 0 0)
(-2.41021e-11 0 0)
(-2.4343e-11 0 0)
(1.38882e-11 0 0)
(9.20496e-11 0 0)
(1.3094e-10 0 0)
(7.78605e-11 0 0)
(-3.24623e-11 0 0)
(-1.42236e-10 0 0)
(-2.31459e-10 0 0)
(-2.87737e-10 0 0)
(-2.98963e-10 0 0)
(-3.35726e-10 0 0)
(-2.86188e-10 0 0)
(-1.95045e-10 0 0)
(-9.99654e-11 0 0)
(-5.06136e-11 0 0)
(2.58213e-11 0 0)
(1.16997e-10 0 0)
(1.74401e-10 0 0)
(1.14661e-10 0 0)
(3.77245e-11 0 0)
(4.43868e-12 0 0)
(-1.57197e-11 0 0)
(-5.0559e-11 0 0)
(-8.59555e-11 0 0)
(-1.00138e-10 0 0)
(-1.53269e-10 0 0)
(-2.63113e-10 0 0)
(-3.49958e-10 0 0)
(-3.94718e-10 0 0)
(-4.58759e-10 0 0)
(-5.0709e-10 0 0)
(-5.31614e-10 0 0)
(-4.94052e-10 0 0)
(6.39509e-09 0 0)
(5.40154e-06 0 0)
(0.000388239 0 0)
(0.00468689 0 0)
(0.0176803 0 0)
(0.0352335 0 0)
(0.0518812 0 0)
(0.0665242 0 0)
(0.0797569 0 0)
(0.0922109 0 0)
(0.104271 0 0)
(0.116136 0 0)
(0.127901 0 0)
(0.13961 0 0)
(0.151285 0 0)
(0.162938 0 0)
(0.174575 0 0)
(0.186202 0 0)
(0.19782 0 0)
(0.209431 0 0)
(0.221039 0 0)
(0.232642 0 0)
(0.244243 0 0)
(0.255842 0 0)
(0.26744 0 0)
(0.279037 0 0)
(0.290634 0 0)
(0.30223 0 0)
(0.313827 0 0)
(0.325424 0 0)
(0.337022 0 0)
(0.348621 0 0)
(0.360221 0 0)
(0.371823 0 0)
(0.383426 0 0)
(0.395032 0 0)
(0.406639 0 0)
(0.418249 0 0)
(0.429861 0 0)
(0.441476 0 0)
(0.453095 0 0)
(0.464716 0 0)
(0.47634 0 0)
(0.487969 0 0)
(0.499601 0 0)
(0.511236 0 0)
(0.522876 0 0)
(0.534521 0 0)
(0.546169 0 0)
(0.557823 0 0)
(0.569481 0 0)
(0.581143 0 0)
(0.592811 0 0)
(0.604483 0 0)
(0.61616 0 0)
(0.627842 0 0)
(0.639529 0 0)
(0.651221 0 0)
(0.662917 0 0)
(0.674617 0 0)
(0.686322 0 0)
(0.69803 0 0)
(0.709742 0 0)
(0.721456 0 0)
(0.733173 0 0)
(0.744892 0 0)
(0.756612 0 0)
(0.768332 0 0)
(0.780052 0 0)
(0.791772 0 0)
(0.803489 0 0)
(0.815204 0 0)
(0.826917 0 0)
(0.838626 0 0)
(0.850331 0 0)
(0.862029 0 0)
(0.873715 0 0)
(0.885362 0 0)
(0.896892 0 0)
(0.908062 0 0)
(0.918239 0 0)
(0.926158 0 0)
(0.930424 0 0)
(0.931417 0 0)
(0.930296 0 0)
(0.928806 0 0)
(0.928736 0 0)
(0.929624 0 0)
(0.930071 0 0)
(0.93014 0 0)
(0.930113 0 0)
(0.929979 0 0)
(0.929916 0 0)
(0.929878 0 0)
(0.929773 0 0)
(0.929619 0 0)
(0.929539 0 0)
(0.9295 0 0)
(0.929448 0 0)
(0.929308 0 0)
(0.929146 0 0)
(0.929049 0 0)
(0.928986 0 0)
(0.928935 0 0)
(0.928907 0 0)
(0.92891 0 0)
(0.928912 0 0)
(0.92886 0 0)
(0.928735 0 0)
(0.928653 0 0)
(0.928609 0 0)
(0.928563 0 0)
(0.928521 0 0)
(0.928507 0 0)
(0.928508 0 0)
(0.928489 0 0)
(0.928415 0 0)
(0.928368 0 0)
(0.928372 0 0)
(0.928399 0 0)
(0.928425 0 0)
(0.928486 0 0)
(0.928602 0 0)
(0.928696 0 0)
(0.928729 0 0)
(0.928728 0 0)
(0.928747 0 0)
(0.928797 0 0)
(0.928805 0 0)
(0.928787 0 0)
(0.928803 0 0)
(0.928865 0 0)
(0.9289 0 0)
(0.928848 0 0)
(0.928806 0 0)
(0.928831 0 0)
(0.928829 0 0)
(0.928788 0 0)
(0.928763 0 0)
(0.928772 0 0)
(0.928821 0 0)
(0.928772 0 0)
(0.928682 0 0)
(0.928679 0 0)
(0.928687 0 0)
(0.92867 0 0)
(0.928662 0 0)
(0.928732 0 0)
(0.929046 0 0)
(0.929553 0 0)
(0.92958 0 0)
(0.930464 0 0)
(0.931911 0 0)
(0.927282 0 0)
(0.926213 0 0)
(0.926408 0 0)
(0.926747 0 0)
(0.927742 0 0)
(0.929709 0 0)
(0.931795 0 0)
(0.931787 0 0)
(0.930696 0 0)
(0.929292 0 0)
(0.927601 0 0)
(0.926431 0 0)
(0.9261 0 0)
(0.926135 0 0)
(0.92699 0 0)
(0.929243 0 0)
(0.931072 0 0)
(0.931369 0 0)
(0.931382 0 0)
(0.930821 0 0)
(0.929139 0 0)
(0.926923 0 0)
(0.926084 0 0)
(0.92622 0 0)
(0.926603 0 0)
(0.927649 0 0)
(0.929591 0 0)
(0.931045 0 0)
(0.931338 0 0)
(0.931101 0 0)
(0.930439 0 0)
(0.92875 0 0)
(0.926786 0 0)
(0.926264 0 0)
(0.92628 0 0)
(0.926607 0 0)
(0.927886 0 0)
(0.929974 0 0)
(0.930961 0 0)
(0.931117 0 0)
(0.930979 0 0)
(0.93009 0 0)
(0.928026 0 0)
(0.926462 0 0)
(0.926259 0 0)
(0.926303 0 0)
(0.926806 0 0)
(0.928307 0 0)
(0.930191 0 0)
(0.930797 0 0)
(0.930774 0 0)
(0.930621 0 0)
(0.929918 0 0)
(0.922755 0 0)
(0.844935 0 0)
(0.442368 0 0)
(0.0301539 0 0)
(7.31513e-05 0 0)
(2.77615e-09 0 0)
(-2.09996e-10 0 0)
(-2.6007e-10 0 0)
(-1.76032e-10 0 0)
(-6.93249e-11 0 0)
(2.78289e-12 0 0)
(1.09855e-11 0 0)
(3.12188e-11 0 0)
(-2.39986e-11 0 0)
(-1.1468e-10 0 0)
(-9.3233e-11 0 0)
(-3.60127e-11 0 0)
(2.01151e-11 0 0)
(6.26548e-11 0 0)
(7.59955e-11 0 0)
(2.14603e-11 0 0)
(1.4819e-11 0 0)
(5.18669e-11 0 0)
(3.23172e-11 0 0)
(1.46353e-11 0 0)
(-1.71383e-11 0 0)
(-7.36582e-11 0 0)
(-1.08813e-10 0 0)
(-2.53052e-11 0 0)
(1.69884e-12 0 0)
(3.09148e-11 0 0)
(4.01048e-11 0 0)
(8.16687e-12 0 0)
(-4.15971e-11 0 0)
(-4.55503e-11 0 0)
(5.70826e-12 0 0)
(-1.09043e-11 0 0)
(-1.76341e-11 0 0)
(-3.14721e-11 0 0)
(-8.45801e-11 0 0)
(-1.26529e-10 0 0)
(-1.20334e-10 0 0)
(-6.52955e-11 0 0)
(-2.03098e-11 0 0)
(-2.31445e-11 0 0)
(-7.30964e-11 0 0)
(-6.78284e-11 0 0)
(-5.8822e-11 0 0)
(-9.57173e-11 0 0)
(-1.23634e-10 0 0)
(-1.61509e-10 0 0)
(-1.60397e-10 0 0)
(-1.72901e-10 0 0)
(-1.44406e-10 0 0)
(-1.89031e-10 0 0)
(-2.49864e-10 0 0)
(-2.70715e-10 0 0)
(-2.4794e-10 0 0)
(-2.2765e-10 0 0)
(-1.29552e-10 0 0)
(7.81691e-12 0 0)
(5.42692e-11 0 0)
(-2.30035e-12 0 0)
(-5.59459e-12 0 0)
(-3.8502e-11 0 0)
(-8.22774e-11 0 0)
(-4.64944e-11 0 0)
(4.2876e-12 0 0)
(4.70516e-11 0 0)
(9.70963e-11 0 0)
(1.43815e-10 0 0)
(1.29394e-10 0 0)
(1.13976e-10 0 0)
(1.02957e-10 0 0)
(5.30505e-11 0 0)
(-2.04625e-11 0 0)
(-1.23597e-10 0 0)
(-1.55092e-10 0 0)
(-1.25901e-10 0 0)
(-1.19044e-10 0 0)
(-1.95081e-10 0 0)
(-2.36825e-10 0 0)
(-1.52694e-10 0 0)
(-9.08454e-11 0 0)
(-9.2863e-11 0 0)
(-1.06655e-10 0 0)
(-5.02037e-11 0 0)
(-2.6973e-11 0 0)
(-8.54356e-11 0 0)
(-8.9485e-11 0 0)
(-1.13698e-10 0 0)
(-8.80395e-11 0 0)
(-2.8903e-11 0 0)
(-1.71721e-11 0 0)
(2.59954e-11 0 0)
(1.71144e-10 0 0)
(1.09676e-10 0 0)
(5.02758e-11 0 0)
(3.08382e-11 0 0)
(4.32656e-11 0 0)
(7.20031e-11 0 0)
(1.0215e-10 0 0)
(8.17331e-11 0 0)
(1.60239e-11 0 0)
(-1.71818e-11 0 0)
(-1.48547e-11 0 0)
(1.96781e-11 0 0)
(5.93175e-11 0 0)
(3.36173e-11 0 0)
(-3.29612e-11 0 0)
(-9.52879e-11 0 0)
(-6.98301e-11 0 0)
(1.24632e-11 0 0)
(7.04969e-11 0 0)
(9.61447e-11 0 0)
(7.27956e-11 0 0)
(2.46575e-11 0 0)
(3.48296e-11 0 0)
(6.68552e-11 0 0)
(6.39222e-11 0 0)
(4.85029e-11 0 0)
(8.02946e-11 0 0)
(1.11972e-10 0 0)
(1.89266e-10 0 0)
(1.89107e-10 0 0)
(1.32491e-10 0 0)
(1.04141e-10 0 0)
(1.41077e-11 0 0)
(5.51687e-12 0 0)
(6.96018e-12 0 0)
(-1.62435e-11 0 0)
(-1.07607e-11 0 0)
(-5.7834e-12 0 0)
(3.0111e-11 0 0)
(-7.72939e-12 0 0)
(-5.3003e-11 0 0)
(-1.13638e-10 0 0)
(-1.4154e-10 0 0)
(-1.49606e-10 0 0)
(-1.43955e-10 0 0)
(-7.38956e-11 0 0)
(7.6309e-11 0 0)
(1.30266e-10 0 0)
(9.80875e-11 0 0)
(2.04122e-11 0 0)
(-1.21952e-10 0 0)
(-1.58453e-10 0 0)
(-1.37635e-10 0 0)
(-1.7468e-10 0 0)
(-1.24712e-10 0 0)
(-1.31722e-10 0 0)
(-1.2727e-10 0 0)
(-1.29426e-10 0 0)
(-1.48704e-10 0 0)
(-1.7124e-10 0 0)
(-1.01954e-10 0 0)
(-6.89652e-11 0 0)
(-6.98515e-11 0 0)
(3.12669e-11 0 0)
(1.07728e-10 0 0)
(1.10408e-10 0 0)
(6.866e-11 0 0)
(2.17309e-11 0 0)
(-5.23602e-11 0 0)
(-7.07147e-11 0 0)
(-6.08923e-11 0 0)
(-5.21311e-11 0 0)
(2.96343e-11 0 0)
(-1.19562e-11 0 0)
(-5.74943e-11 0 0)
(-6.60671e-11 0 0)
(-6.30412e-11 0 0)
(-2.69157e-11 0 0)
(2.01019e-11 0 0)
(7.11573e-11 0 0)
(5.57791e-11 0 0)
(4.35046e-11 0 0)
(1.51607e-10 0 0)
(9.43989e-11 0 0)
(-3.68632e-11 0 0)
(-7.2954e-11 0 0)
(-5.35193e-11 0 0)
(-6.39745e-11 0 0)
(-4.3228e-11 0 0)
(2.04821e-12 0 0)
(3.26649e-11 0 0)
(7.1347e-11 0 0)
(1.04351e-10 0 0)
(9.38999e-11 0 0)
(1.18043e-10 0 0)
(1.05406e-10 0 0)
(1.12872e-10 0 0)
(1.29926e-10 0 0)
(1.25942e-10 0 0)
(5.81941e-11 0 0)
(-7.26693e-12 0 0)
(-1.32028e-11 0 0)
(-3.40235e-11 0 0)
(-7.98698e-11 0 0)
(-4.45482e-11 0 0)
(1.60387e-11 0 0)
(4.0859e-11 0 0)
(8.58228e-11 0 0)
(1.09666e-10 0 0)
(1.50956e-10 0 0)
(1.38069e-10 0 0)
(1.47331e-10 0 0)
(2.03062e-10 0 0)
(2.55296e-10 0 0)
(3.32478e-10 0 0)
(3.42993e-10 0 0)
(3.12635e-10 0 0)
(2.30459e-10 0 0)
(9.16539e-11 0 0)
(4.32162e-11 0 0)
(-2.00165e-11 0 0)
(-1.24336e-10 0 0)
(-1.14071e-10 0 0)
(-5.42496e-11 0 0)
(-7.312e-11 0 0)
(-1.3091e-10 0 0)
(-1.484e-10 0 0)
(-1.07071e-10 0 0)
(-7.04163e-11 0 0)
(-4.31548e-11 0 0)
(-2.13134e-11 0 0)
(2.87886e-11 0 0)
(5.16352e-11 0 0)
(1.01542e-10 0 0)
(1.6092e-10 0 0)
(1.66095e-10 0 0)
(1.6043e-10 0 0)
(1.3208e-10 0 0)
(1.11291e-10 0 0)
(9.19333e-11 0 0)
(6.12613e-11 0 0)
(1.05894e-11 0 0)
(-2.48938e-11 0 0)
(-5.78888e-12 0 0)
(6.12318e-11 0 0)
(1.08132e-10 0 0)
(9.75441e-11 0 0)
(9.96896e-11 0 0)
(8.06653e-11 0 0)
(3.24202e-11 0 0)
(-2.69976e-11 0 0)
(-6.76948e-11 0 0)
(-3.22827e-11 0 0)
(-1.97552e-11 0 0)
(-3.77802e-11 0 0)
(-1.86862e-11 0 0)
(-1.85847e-11 0 0)
(-7.2015e-11 0 0)
(-8.68817e-11 0 0)
(-3.39261e-11 0 0)
(6.84348e-11 0 0)
(1.35103e-10 0 0)
(1.44239e-10 0 0)
(4.36505e-11 0 0)
(-6.36023e-11 0 0)
(-1.33369e-10 0 0)
(-2.11547e-10 0 0)
(-2.38432e-10 0 0)
(-2.0953e-10 0 0)
(-1.70647e-10 0 0)
(-8.93348e-11 0 0)
(-2.36138e-11 0 0)
(2.05124e-11 0 0)
(6.45124e-11 0 0)
(8.94691e-11 0 0)
(1.08991e-10 0 0)
(1.1866e-10 0 0)
(1.12037e-10 0 0)
(9.32124e-11 0 0)
(5.58707e-11 0 0)
(9.96636e-11 0 0)
(1.10543e-10 0 0)
(3.397e-11 0 0)
(2.51353e-12 0 0)
)
;

boundaryField
{
    left
    {
        type            noSlip;
    }
    right
    {
        type            noSlip;
    }
    empty
    {
        type            empty;
    }
}


// ************************************************************************* //
