/*--------------------------------*- C++ -*----------------------------------*\
| =========                 |                                                 |
| \\      /  F ield         | OpenFOAM: The Open Source CFD Toolbox           |
|  \\    /   O peration     | Version:  2106                                  |
|   \\  /    A nd           | Website:  www.openfoam.com                      |
|    \\/     M anipulation  |                                                 |
\*---------------------------------------------------------------------------*/
FoamFile
{
    version     2.0;
    format      ascii;
    arch        "LSB;label=32;scalar=64";
    class       volScalarField;
    location    "0.06";
    object      p;
}
// * * * * * * * * * * * * * * * * * * * * * * * * * * * * * * * * * * * * * //

dimensions      [0 2 -2 0 0 0 0];

internalField   nonuniform List<scalar> 
11200
(
167.479748274
164.551146717
163.437302455
162.909986956
162.542686875
162.247956297
161.986381107
161.737931826
161.493519319
161.24856631
161.00036478
160.747146934
160.487666809
160.220975453
159.946294324
159.662940123
159.370279097
159.067711945
158.754696311
158.430610708
158.094793768
157.746625884
157.385469357
157.010665834
156.621548488
156.217416017
155.797552294
155.361229112
154.907704099
154.436221023
153.946010658
153.436291279
152.906269061
152.355139186
151.782087365
151.186289325
150.566911055
149.923109237
149.254031573
148.558817086
147.836596313
147.086491416
146.307616311
145.499076844
144.659970924
143.789388452
142.886410891
141.950110425
140.979548763
139.973775548
138.931826275
137.852719507
136.735453142
135.578999545
134.382299316
133.144253434
131.863713375
130.539468633
129.170230928
127.754614297
126.291110044
124.778055208
123.213592537
121.5956211
119.921731575
118.189119725
116.394475899
114.533840863
112.602411575
110.594275155
108.502048114
106.316387653
104.025087987
101.611999669
99.0550986548
96.3228483033
93.3678582917
90.1181023656
86.4223587285
81.6654442272
165.686706121
164.328531665
163.537563601
163.037557841
162.646587032
162.32273442
162.038258124
161.773715925
161.518300879
161.265859233
161.01255565
160.755866494
160.494043682
160.225799994
159.950125936
159.666180919
159.373226927
159.070581648
158.757558193
158.433445671
158.097714319
157.749701776
157.38873928
157.014152041
156.625244586
156.221319903
155.801665684
155.365552891
154.912238061
154.440963995
153.950960015
153.441442287
152.91162028
152.360693213
151.787847405
151.192258326
150.573091854
149.929504715
149.260644714
148.565651001
147.843654251
147.093776806
146.315132864
145.506828711
144.667962869
143.797626013
142.89490055
141.958859841
140.988567097
139.983073881
138.941418097
137.862621292
136.745685046
135.589586273
134.393271224
133.155647915
131.875576577
130.551857593
129.183216196
127.768283271
126.305571438
124.793445166
123.230081308
121.613417721
119.941087166
118.210346818
116.417982213
114.560156761
112.63223158
110.628522446
108.541959905
106.363583098
104.081859736
101.681657409
99.1425927836
96.4361806343
93.5216299704
90.3409924899
86.7912003635
82.6752201298
164.691511437
164.037310819
163.484955949
163.047341244
162.675725659
162.35364062
162.064568497
161.794374364
161.533961974
161.277538724
161.021213417
160.762296048
160.498864925
160.229483058
159.953020015
159.668539281
159.375225243
159.072334534
158.759167215
158.435106308
158.09941081
157.751439985
157.390529202
157.016000397
156.627164601
156.223319507
155.803748352
155.367721134
154.914494862
154.443313668
153.953409568
153.444003189
152.914297748
152.363483536
151.790749413
151.195272532
150.576219923
149.932749244
149.264009037
148.569139139
147.847270936
147.097527584
146.31902429
145.510868614
144.672160658
143.801993013
142.899450408
141.963609038
140.993535628
139.988286046
138.946903471
137.868415897
136.751832797
135.59614076
134.400297921
133.163226884
131.883805743
130.560856691
129.193131695
127.779294706
126.317898899
124.807357619
123.245907447
121.631574298
119.962123855
118.234965966
116.447058236
114.594801281
112.673879959
110.679054196
108.603872199
106.440268152
104.17814409
101.804568767
99.3027973559
96.6509186544
93.8208399985
90.7807058371
87.4942580059
83.9378043537
164.141744315
163.778363062
163.378464355
163.009473237
162.671858076
162.363762252
162.078413289
161.807733078
161.545394026
161.28676672
161.028428303
160.767840238
160.503094107
160.232713326
159.955512731
159.670501872
159.376818575
159.073682903
158.760364529
158.436179286
158.100449599
157.752475557
157.391582101
157.01708546
156.628290847
156.224491824
155.804969423
155.368991929
154.915814689
154.444680104
153.954817945
153.445446657
152.915776036
152.365007587
151.792328474
151.196913684
150.577928562
149.934530366
149.265867774
148.571081184
147.849302896
147.099657319
146.321261274
145.513224337
144.674649074
143.804631076
142.902258711
141.966612493
140.996764417
139.991776783
138.950700633
137.872573548
136.756416708
135.601231019
134.405992153
133.16964423
131.891091899
130.56919053
129.202733731
127.790436514
126.330916164
124.822673142
123.264052055
121.65319479
119.987996502
118.266057323
116.484601847
114.64037772
112.729530939
110.747450009
108.688575256
106.546170909
104.311995234
101.97598784
99.5260270954
96.9479567181
94.2269297423
91.3530900047
88.3299096372
85.1943225102
163.807690173
163.575894941
163.274481038
162.963501177
162.65865914
162.366635795
162.087665326
161.81855131
161.555610611
161.295551633
161.035610271
160.773543249
160.507550487
160.236174425
159.958209886
159.672632348
159.37854347
159.075130514
158.761636034
158.437340643
158.101535413
157.753533224
157.392642751
157.018169898
156.629413456
156.225662902
155.80619681
155.370281989
154.917173069
154.44611259
153.956331591
153.447049602
152.917474258
152.366801201
151.794212927
151.198886578
150.579989749
149.936682877
149.268116682
148.573433316
147.851766678
147.102242928
146.323981007
145.516093078
144.677684846
143.80785565
142.905698338
141.970298977
141.000736712
139.996082276
138.955396941
137.877730803
136.762120365
135.607585308
134.413124291
133.17770957
131.900280082
130.579732192
129.214906656
127.804579998
126.347450982
124.842111872
123.287020438
121.680484647
120.020611806
118.305260464
116.531982925
114.697956544
112.799900586
110.83397901
108.79569219
106.679770586
104.480097441
102.189739319
99.8012517477
97.3075899746
94.7045100825
91.9964142406
89.204682863
86.3800673847
163.604291681
163.428389621
163.187192627
162.919862731
162.642670917
162.366028817
162.094338453
161.827841069
161.565085857
161.304091834
161.042821139
160.779401718
160.512201421
160.239821731
159.961061879
159.674876933
159.380339025
159.076604816
158.762889456
158.438447936
158.102555927
157.754508752
157.393603816
157.019138109
156.630403963
156.226686111
155.807259732
155.371389278
154.918327821
154.447316644
153.957585043
153.448350953
152.918821403
152.368193321
151.795654842
151.200385424
150.581556492
149.938326729
149.269845898
148.575256329
147.853693381
147.104285386
146.326153949
145.518414442
144.68017643
143.810543967
142.908615724
141.973484845
141.004238281
139.99995684
138.959714065
137.882574915
136.767593984
135.61381299
134.420257447
133.185932388
131.90981707
130.590859098
129.227969748
127.820005253
126.365751294
124.86390792
123.313091283
121.711787693
120.058329939
118.350868212
116.587331775
114.765386914
112.88239347
110.935365295
108.920945452
106.835420728
104.674822804
102.435206848
100.113283932
97.7077016654
95.2215405052
92.6670084287
90.0711832008
87.4813865331
163.481169385
163.325561041
163.119255929
162.88268831
162.627206489
162.363920822
162.099303719
161.835795129
161.573666532
161.312089313
161.049726796
160.785097955
160.516766953
160.243418227
159.963872344
159.677074929
159.382075386
159.078003853
158.764050183
158.439446877
158.103453509
157.755348302
157.394416607
157.019946686
156.631224278
156.227529242
155.808133318
155.372298608
154.91927664
154.448307883
153.958621662
153.449436473
152.919960643
152.369392901
151.796921613
151.201725362
150.582971411
149.939818182
149.271420369
148.576923581
147.855465218
147.106175849
146.32817995
145.520596466
144.682539338
143.813117921
142.911437275
141.976598414
141.007698042
140.003828239
138.964076635
137.887525508
136.773250576
135.620319322
134.427788709
133.194702178
131.920085674
130.602942064
129.242244286
127.83693547
126.385908717
124.888007974
123.342005037
121.746587754
120.100344506
118.401746383
116.649129411
114.840680217
112.974429957
111.048265866
109.059975906
107.007357349
104.888437957
102.701895978
100.447819228
98.1290005896
95.7530546743
93.3357018593
90.9040118335
88.4976226065
163.407084975
163.257073193
163.070312947
162.854200346
162.61448558
162.361655804
162.103012209
161.84227112
161.580905687
161.318988609
161.055776354
160.790141111
160.520836633
160.246635136
159.966386369
159.679034169
159.383611724
159.079227859
158.765050989
158.440294084
158.10420063
157.756035334
157.395072901
157.020593443
156.631876544
156.228197581
155.808825145
155.373019209
154.920029947
154.449097093
153.959449772
153.450306607
152.920875951
152.370356117
151.797935306
151.202791892
150.584096636
149.941013845
149.272695782
148.578288582
147.856931997
147.107759495
146.329898939
145.522473313
144.684601409
143.815398433
142.913976501
141.979445039
141.010911162
140.007480172
138.968255184
137.892337227
136.778824837
135.626813226
134.435393081
133.203649006
131.930657636
130.61548534
129.257184478
127.854787567
126.407305762
124.913716968
123.372966699
121.783958829
120.145549575
118.456544184
116.715698003
114.921726399
113.073330387
111.169249235
109.208355714
107.189827562
105.113436034
102.980018427
100.792228174
98.5556641385
96.2804679176
93.9834098124
91.6893952863
89.4307155148
163.364804963
163.215354774
163.038933365
162.835186337
162.605643045
162.3599241
162.105555635
161.846912437
161.58620498
161.324113145
161.060318184
160.793957792
160.523934813
160.24909432
159.9683132
159.680537331
159.384789696
159.080164165
158.765813503
158.440936185
158.104763526
157.756549472
157.395561406
157.021072973
156.632358962
156.228691311
155.809336191
155.373551952
154.920587753
154.44968279
153.960065991
153.45095606
152.92156161
152.371081395
151.798704617
151.203611568
150.584973959
149.941953905
149.273707437
148.579383122
147.858122938
147.10906314
146.331335075
145.52406601
144.686379959
143.817398457
142.916241273
141.982027089
141.013874184
140.010901181
138.972227725
137.896974988
136.78426594
135.633225475
134.44298043
133.212659473
131.941392721
130.628310971
129.272544432
127.87322447
126.429483075
124.94044387
123.405231829
121.822970965
120.192788813
118.513825852
116.785252662
115.006299801
113.176307561
111.29480813
109.36165453
107.377227177
105.342746401
103.260738094
101.135703753
98.9750254535
96.7900844424
94.5974828224
92.4195040433
90.2826004895
163.345526267
163.19564541
163.023675907
162.825730615
162.601157413
162.359026457
162.106881616
161.849366823
161.589038073
161.326878254
161.062789098
160.796050334
160.525646752
160.250464703
159.96939733
159.681392724
159.385469045
159.080712498
158.766267635
158.441325289
158.105110476
157.756870537
157.395869676
157.021377844
156.632667218
156.229007913
155.809664838
155.37389552
154.92094866
154.450063326
153.96046851
153.451383209
152.922016528
152.37156789
151.799227321
151.204175763
150.585585368
149.942620854
149.274439391
148.580191382
147.85902127
147.110068345
146.332467641
145.52535091
144.68784758
143.819085697
142.918192866
141.984297261
141.016528762
140.014020149
138.97590824
137.901334961
136.789448408
135.639403986
134.450365676
133.221507409
131.952014525
130.641085406
129.287933083
127.891784942
126.451891817
124.967531405
123.438003442
121.862651213
120.240870278
118.572127254
116.855990496
115.092174578
113.280605543
111.421525024
109.515638393
107.56433379
105.569986534
103.536385031
101.469297922
99.3771681791
97.2718638448
95.16934182
93.0895374749
91.0546478007
163.345528181
163.195660829
163.023702323
162.825766349
162.601201741
162.359078583
162.106940676
161.849432021
161.589108702
161.326953692
161.062868807
160.796133873
160.525733779
160.250554964
159.969490644
159.681488967
159.385568164
159.080814526
158.766372717
158.441433667
158.105222518
157.756986675
157.395990369
157.021503617
156.632798695
156.229145849
155.809810137
155.374049262
154.92111214
154.450238071
153.960656535
153.451587025
152.922239194
152.371813063
151.799499333
151.204479859
150.58592823
149.943010286
149.274884799
148.580704219
147.859615484
147.110760937
146.333279354
145.526307028
144.688978861
143.820429474
142.919794413
141.986211512
141.018822424
140.016774226
138.979221025
137.905325653
136.794261545
135.645214901
134.457387164
133.229997755
131.962287106
130.653520171
129.302990777
127.910025606
126.473992338
124.994312829
123.470469775
121.9020106
120.288583589
118.629961676
116.926080319
115.17709345
113.3834657
111.546112848
109.666431333
107.746592746
105.789844291
103.800865124
101.786228903
99.7549322296
97.7189043259
95.6933649652
93.6964632011
91.7475483189
163.364810775
163.215401421
163.039013241
162.83529431
162.605776897
162.360081271
162.105733468
161.847108559
161.586417289
161.324339783
161.060557552
160.79420858
160.524196005
160.249365164
159.968593159
159.680826054
159.385087031
159.080470222
158.766128719
158.441261253
158.105099524
157.756897661
157.395923161
157.021449866
156.632752855
156.22910443
155.80977119
155.374011991
154.921076653
154.450205279
153.960628014
153.451565008
152.922226563
152.371813383
151.799516944
151.204520008
150.585997216
149.943115734
149.27503599
148.58091244
147.859894476
147.11112747
146.333753904
145.526914554
144.689749705
143.821400454
142.921010194
141.987726326
141.020702141
140.019098796
138.982087391
137.908851298
136.798588864
135.650516563
134.463872591
133.237920894
131.971955798
130.665307503
129.31734885
127.927503143
126.495252684
125.020152189
123.501846148
121.94009648
120.334794888
118.6860015
116.993992804
115.25932323
113.4828939
111.666034021
109.810771951
107.91994504
105.997441078
104.048537354
102.080286457
100.101930112
98.1252735404
96.1649139287
94.2378151125
92.3616962243
163.407094919
163.25715224
163.070447994
162.854382474
162.614710872
162.361919805
162.103310378
161.842599455
161.581260689
161.319367202
161.05617591
160.790559483
160.521272159
160.24708659
159.966852883
159.679515185
159.38410702
159.079737653
158.765576032
158.440835431
158.104759997
157.756614703
157.395674594
157.021220087
156.632531215
156.228883938
155.809547535
155.373782824
154.920841092
154.449963579
153.960381333
153.451315276
152.921976408
152.371566132
151.799276695
151.204291756
150.585787005
149.942930874
149.274885349
148.580806814
147.859847047
147.111154353
146.333874793
145.527153456
144.690135791
143.821969128
142.92180444
141.988798366
141.022115391
140.020930173
138.984430101
137.911818254
136.802316907
135.655171573
134.46965559
133.245075343
131.980776372
130.676150681
129.330645584
127.943774398
126.515129632
125.044398331
123.531379543
121.976007544
120.378385674
118.738826778
117.057902181
115.33650589
113.575938638
111.778007889
109.94516686
108.08069018
106.188895583
104.275413914
102.347505696
100.414407469
98.4876653617
96.5813938929
94.7119628319
92.8965846107
163.481183912
163.325674709
163.119449313
162.882948102
162.62752674
162.364294937
162.099725122
161.836258128
161.574166224
161.312621447
161.050287768
160.785684832
160.517377468
160.244050707
159.964525607
159.677748219
159.382768402
159.078716876
158.764784256
158.440203301
158.104234757
157.75615712
157.395256124
157.020820514
156.632136641
156.228485131
155.809138661
155.373360511
154.920403768
154.44951102
153.959914341
153.450835469
152.921486099
152.371068286
151.798774978
151.2037907
150.585292217
149.942449238
149.274425216
148.580378227
147.85946229
147.110828517
146.333626249
145.527004601
144.690113875
143.822107269
142.922142898
141.989386064
141.023011714
140.022207095
138.986174805
137.914136371
136.805336455
135.659047662
134.474576021
133.251267284
131.988514444
130.68576673
129.342540278
127.958430751
126.533128419
125.066436715
123.558294796
122.008805099
120.418266534
118.787215963
117.116479954
115.407239091
113.661108153
111.88023412
110.067417994
108.2262611
106.361346593
104.478458938
102.584845857
100.689524995
98.8036412032
96.9408885593
95.1174864553
93.3511424254
163.604311571
163.428541725
163.187449656
162.920206088
162.643092123
162.366518797
162.094888417
161.828443575
161.56573462
161.304781494
161.043547202
160.78016054
160.512990189
160.240638364
159.961904907
159.675745399
159.381232408
159.077523118
158.76383369
158.439419381
158.103559602
157.755547699
157.394681492
157.020258823
156.631572862
156.227909254
155.808544303
155.372743895
154.919762992
154.448845566
153.959224724
153.450123021
152.920752864
152.370316941
151.79800871
151.20301327
150.58450832
149.941664837
149.273647792
148.579617079
147.858728662
147.110136047
146.33299175
145.526448487
144.689660875
143.821787417
142.921992726
141.989449973
141.023343577
140.022872166
138.987252125
137.915721706
136.807545809
135.662021461
134.478484122
133.256315081
131.994950189
130.693890165
129.352712891
127.971087865
126.548793337
125.085736865
123.581979989
122.037768215
120.453567186
118.830106028
117.168429099
115.469957979
113.736565295
111.97066212
110.175302591
108.354303027
106.512381306
104.655322341
102.790181406
100.925549047
99.071950672
97.2425214877
95.4534383174
93.7236140686
163.80771626
163.57609048
163.274808332
162.963935232
162.659188255
162.367247968
162.088349373
161.819298013
161.556412368
161.296402099
161.036504195
160.774476413
160.508519661
160.237177296
159.959244952
159.673698791
159.379640873
159.07625886
158.762796805
158.438533649
158.102768703
157.754809203
157.393965344
157.019544057
156.630845147
156.227159081
155.807765618
155.371933102
154.918918215
154.44796613
153.958310815
153.449175542
152.919773455
152.369308075
151.796973848
151.201956757
150.583434867
149.940579116
149.272555404
148.578525296
147.857646786
147.109075689
146.331966957
145.52547679
144.688763851
143.82099137
142.921329628
141.988958615
141.023071
140.022875388
138.987600315
137.916498753
136.808853398
135.663982723
134.481247933
133.26006063
131.999893258
130.700291091
129.360885315
127.98140886
126.561715233
125.101801015
123.601832518
122.062177399
120.483441928
118.866514861
117.212618759
115.523369595
113.80084474
112.047659355
110.267051416
108.46297305
106.640187517
104.804375082
102.962261461
101.121802291
99.2925671568
97.4866703622
95.7196585523
94.011430323
164.141776802
163.778605878
163.378864579
163.00999851
162.672492773
162.364490952
162.079222282
161.808611404
161.546332863
161.287758859
161.029467885
160.768922614
160.504215799
160.233872036
159.956707416
159.671732839
159.378087537
159.074994016
158.761726768
158.437585098
158.101889211
157.753960778
157.393121175
157.018685676
156.629960106
156.226239222
155.806805824
155.37093046
154.917871368
154.44687455
153.957174455
153.44799463
152.91854824
152.368038934
151.795661767
151.200603872
150.582045238
149.939158194
149.271109441
148.5770612
147.856172801
147.107601904
146.330506011
145.524043488
144.687375984
143.819670648
142.920102549
141.987857483
141.022135218
140.022152332
138.987147284
137.916385106
136.809163005
135.664816834
134.482728736
133.262336708
132.003144705
130.704734689
129.366781637
127.989070574
126.571516702
125.11418922
123.617339375
122.081433222
120.507189864
118.895625693
117.24810503
115.566396971
113.852737565
112.109896283
110.341244809
108.550822971
106.743394948
104.924492003
103.100444325
101.278408804
99.4665818072
97.6751895482
95.9173077641
94.2112253807
164.691555372
164.037615277
163.485439291
163.047963191
162.676466931
162.354482488
162.06549498
161.795372995
161.535022856
161.278653844
161.022376231
160.763501225
160.500108201
160.230761178
159.954330765
159.669881801
159.376601309
159.073752489
158.760642613
158.436582561
158.100923768
157.753000896
157.392144741
157.017677844
156.628911178
156.225143034
155.80565864
155.369730328
154.916617572
154.445567708
153.955815877
153.446586263
152.917092598
152.366538268
151.794116756
151.199015688
150.580414095
149.937485843
149.269398872
148.575316814
147.854400346
147.105808564
146.328700501
145.522236857
144.685581979
143.817906091
142.918387896
141.986217449
141.020599305
140.020757128
138.985937344
137.915414499
136.80849719
135.664534888
134.482925884
133.263126806
132.004665239
130.707151479
129.370294065
127.993917759
126.577984791
125.122619819
123.628139015
122.095083696
120.524259019
118.916778281
117.27411261
115.598144732
113.891227396
112.156244444
110.396666912
108.616600496
106.820810688
105.014713483
103.204301214
101.395908912
99.5960757546
97.8121184415
96.05087105
94.3199913598
165.686797175
164.328981294
163.538239211
163.038407226
162.647587491
162.323865417
162.039502794
161.775061235
161.519736528
161.267376862
161.014148307
160.757528215
160.495769108
160.227583952
159.95196282
159.668063578
159.375144343
159.072516647
158.759503204
158.435499756
158.099850172
157.75190594
157.391010149
157.016492516
156.627668724
156.223840027
155.804293331
155.368301023
154.915118561
154.443996586
153.954171124
153.444866426
152.91529645
152.364666135
151.792172392
151.197001332
150.578332638
149.935339755
149.267190825
148.573049992
147.852078705
147.103437055
146.326285281
145.519785485
144.683103695
143.81541224
142.915892395
141.983737358
141.018155622
140.018375016
138.98364723
137.913253189
136.806509151
135.662773903
134.481457401
133.26203088
132.004037185
130.707105702
129.370967828
127.995475497
126.580623036
125.126572712
123.633684244
122.102548884
120.534028577
118.929300384
117.289905356
115.617799077
113.915414656
112.185722827
110.4322714
108.659229696
106.871405501
105.074222513
103.273582008
101.475347763
99.6850260182
97.9073009325
96.1370826805
94.3425554296
167.479906048
164.551808723
163.43828858
162.911235664
162.544168382
162.249646232
161.988260993
161.739988107
161.495741981
161.250948014
161.002900301
160.749832879
160.490501652
160.223959903
159.949432047
159.666239043
159.373752174
159.071368871
158.758517543
158.434572946
158.098916587
157.750926583
157.38996131
157.015360492
156.626446376
156.22252432
155.802883546
155.366798954
154.913536512
154.442338576
153.95243933
153.443062731
152.913422298
152.362721858
151.790156516
151.194913448
150.57617267
149.933107994
149.264888003
148.570677291
147.84963778
147.100930093
146.3237151
145.517155679
144.680418816
143.812677961
142.913115698
141.980926767
141.015321559
140.01553025
138.98080737
137.910437164
136.803739829
135.660078837
134.478869612
133.259589772
132.001790859
130.70511206
129.369296298
127.994209223
126.579861479
125.126434567
123.634310868
122.104108164
120.536719233
118.933356536
117.295602842
115.625470347
113.925446974
112.198544721
110.448372457
108.679172974
106.89584629
105.103933921
103.309549665
101.51934481
99.7399884578
97.9769594803
96.2116759022
94.3159136942
74.223994836
70.683871406
68.3040985862
66.3629586712
64.7077245423
63.2648132525
61.9883431167
60.8480836958
59.822886542
58.8970922534
58.0585119363
57.2972146516
56.6048162025
55.9740726877
55.3986438435
54.8729433628
54.3920331906
53.9515397266
53.5475843654
53.1767222842
52.8358884054
52.5223496
52.2336636962
51.9676440496
51.7223288734
51.4959545176
51.2869320873
51.0938268289
50.9153397242
50.7502913099
50.5976085935
50.4563147135
50.3255193935
50.204409362
50.0922400968
49.9883287739
49.8920480425
49.8028205875
49.720115247
49.6434440084
49.5723580311
49.506444483
49.4453285331
49.3886678151
49.33610177
49.2873193462
49.2420254072
49.1999636918
49.160875492
49.1245278244
49.0907065015
49.0592153001
49.0298787909
49.0025234817
48.9769834736
48.9531134348
48.9307777047
48.9098590702
48.8902353903
48.8717968222
48.8544442347
48.8380851572
48.8226369479
48.808047454
48.7942036903
48.7810393718
48.7684921618
48.7565027989
48.7450195426
48.7339924323
48.7233755953
48.713126219
48.7032033687
48.6935694294
48.6841920293
48.6750390104
48.6660800481
48.657284597
48.6486258106
48.6400782947
48.6316166637
48.6232152539
48.614847205
48.6064869081
48.5981064168
48.5896772315
48.581169688
48.5725671389
48.5636478585
48.5542947932
48.5453654552
48.536309788
48.5274229799
48.5186919973
48.5095543946
48.4999446418
48.4899532079
48.4795590281
48.4687310313
48.4574213184
48.4455909588
48.4331869696
48.4201531508
48.4064291148
48.391940143
48.3766003049
48.3603219429
48.3430092346
48.3245530929
48.3048292957
48.2836983835
48.2610055614
48.2365829767
48.210247948
48.1817980354
48.1510102859
48.1176390874
48.0814157354
48.0420394717
47.9991738696
47.9524454015
47.901432674
47.8456700929
47.7846386461
47.7177530102
47.6443572198
47.563709247
47.4749637778
47.3771450079
47.2691114514
47.1494835162
47.0165560241
46.8686983056
46.7028987165
46.5164230597
46.3049680416
46.0626732022
45.7814144822
45.449715977
45.0518999434
44.5650069455
43.9610042108
43.209748959
42.2885293483
41.1946983913
39.9497931155
38.5913623917
37.1552254401
35.6590923157
34.0922159206
32.4115289903
30.5468595523
28.4137374937
25.9268344352
23.0209655058
19.6878089741
15.9322035564
11.5470325266
6.30450344321
1.44433056688
77.4146666999
73.3660388793
70.6665169947
68.5308929153
66.7456916582
65.2093564773
63.8618676416
62.665565595
61.5948851291
60.6313356295
59.7608209635
58.9720722679
58.2557393573
57.6038666297
57.0095826902
56.4669000115
55.9705750552
55.51599908
55.0991108867
54.7163221248
54.3644536594
54.0406800216
53.742483356
53.4676141096
53.2140569994
52.9800029123
52.763822926
52.5640480787
52.3793483321
52.2085166395
52.0504554215
51.9041645022
51.7687323954
51.6433258963
51.5271801727
51.4195942995
51.3199222258
51.2275679075
51.141982426
51.0626589414
50.9891284417
50.9209537467
50.8577259012
50.7990674523
50.7446401481
50.6941255624
50.6472335121
50.6036790517
50.5632173362
50.5256099673
50.4906343672
50.4580854252
50.4277664152
50.3995042292
50.3731374394
50.34851199
50.3254848242
50.3039260344
50.2837156271
50.2647440618
50.2469060906
50.2301048251
50.2142514124
50.1992647392
50.1850559916
50.1715598974
50.1587113894
50.1464487562
50.1347185293
50.1234685276
50.1126525951
50.1022253464
50.0921441512
50.0823716235
50.0728724335
50.0636164638
50.0545695342
50.045704494
50.0369911433
50.0284043515
50.0199210029
50.011512568
50.0031568392
49.9948236654
49.9864943774
49.9781371722
49.9697358673
49.9612962676
49.9528736545
49.944459084
49.9360362578
49.9274162515
49.9181545541
49.9088824733
49.8995008759
49.8898734975
49.879980043
49.8697729244
49.8592074967
49.8482325544
49.8368049862
49.8248683309
49.8123716106
49.7992555136
49.7854499509
49.7708784268
49.7554612787
49.7391092375
49.7217214381
49.7031880665
49.6833825927
49.6621685377
49.6393938997
49.6148956111
49.5884926134
49.5599852374
49.5291537862
49.4957608566
49.4595381685
49.4201876556
49.3773810418
49.3307480228
49.2798786483
49.2243197877
49.1635679814
49.0970460315
49.0241143961
48.9440418334
48.8559887413
48.7589701691
48.6518058805
48.5330892127
48.40123258
48.253922032
48.0885392253
47.9012967103
47.6870342239
47.4384976457
47.1450311591
46.793152356
46.3608048064
45.8217905841
45.1468265015
44.3120308214
43.3091291861
42.1512920083
40.8638043675
39.4695057534
37.9744648178
36.3599016385
34.5804072234
32.570079789
30.2541718783
27.5592859576
24.4298126554
20.8612946976
16.8620019706
12.2411573234
6.77879740895
1.63748884446
79.6296193534
75.6979745645
72.8431030905
70.5756036095
68.6898025859
67.076194155
65.6680417988
64.4230006154
63.3123257599
62.3153329225
61.4163735533
60.6030551154
59.865200785
59.1942399797
58.5828404565
58.0246669648
57.5142120495
57.0466652374
56.6178096689
56.223935287
55.861766658
55.5284010774
55.2212575308
54.9380338316
54.6766700276
54.4353186915
54.2123172901
54.0061666235
53.8155092846
53.639112933
53.4758566022
53.3247178999
53.1847634907
53.0551395909
52.9350619257
52.8238109513
52.7207235604
52.6251878026
52.5366400964
52.4545600852
52.3784665784
52.3079137262
52.2424893462
52.1818105539
52.1255218653
52.0732924318
52.0248166826
51.9798086917
51.9380038858
51.8991548864
51.8630328323
51.8294274837
51.798141132
51.7689968788
51.7418219701
51.7164576914
51.6927565811
51.6705845429
51.6498171042
51.6303387038
51.6120403181
51.5948217218
51.5785901809
51.5632605794
51.5487491486
51.5349830395
51.5218935088
51.5094165844
51.4974959827
51.4860778965
51.4751139497
51.46455752
51.4543649772
51.4444977475
51.4349189404
51.4255984168
51.416500857
51.4075989272
51.3988630712
51.3902671031
51.3817871768
51.3733950814
51.3650712001
51.3567848329
51.3485163982
51.3402333266
51.3319159863
51.3235402723
51.3153344623
51.3073021626
51.2986657971
51.2901203291
51.2812505615
51.2722363435
51.2630727501
51.2536938591
51.244075281
51.2341781989
51.2239646809
51.2133897077
51.2024135011
51.1909867066
51.1790620502
51.166585491
51.153494558
51.1397214459
51.1251948205
51.1098354081
51.0935524679
51.0762472462
51.0578082235
51.0381171287
51.0170383217
50.9944283095
50.970128817
50.9439647653
50.915742502
50.8852534779
50.8522668915
50.8165227924
50.7777371896
50.7355933515
50.6897402473
50.639789538
50.5853127091
50.5258242277
50.4607853241
50.3895799773
50.311505765
50.2257414615
50.1313104287
50.0270515888
49.9115799527
49.7830305488
49.6390884786
49.4765107489
49.2908343649
49.0757642097
48.8224416987
48.5161008203
48.1391879139
47.6663843001
47.0690251467
46.3215202637
45.410636668
44.3398670736
43.1227533637
41.7697716611
40.2764206098
38.6170477272
36.7446535004
34.5975151574
32.1094761046
29.2171136253
25.872058457
22.0717896019
17.8279424221
12.9673314433
7.27591902374
1.83681474554
81.4385954986
77.717942768
74.8260029777
72.48653385
70.5316422234
68.8590873443
67.4021374832
66.1166800283
64.9721999192
63.9465642886
63.0229952934
62.1882351639
61.4314493018
60.7435689395
60.1168853156