/*--------------------------------*- C++ -*----------------------------------*\
| =========                 |                                                 |
| \\      /  F ield         | OpenFOAM: The Open Source CFD Toolbox           |
|  \\    /   O peration     | Version:  2106                                  |
|   \\  /    A nd           | Website:  www.openfoam.com                      |
|    \\/     M anipulation  |                                                 |
\*---------------------------------------------------------------------------*/
FoamFile
{
    version     2.0;
    format      ascii;
    arch        "LSB;label=32;scalar=64";
    class       volVectorField;
    location    "0.007";
    object      B;
}
// * * * * * * * * * * * * * * * * * * * * * * * * * * * * * * * * * * * * * //

dimensions      [1 0 -2 0 0 -1 0];

internalField   nonuniform List<vector> 
160000
(
(3.09247 3.09247 0)
(3.26657 3.09247 0)
(3.42529 3.09247 0)
(3.56774 3.09247 0)
(3.69311 3.09247 0)
(3.80073 3.09247 0)
(3.89006 3.09247 0)
(3.96066 3.09247 0)
(4.01225 3.09247 0)
(4.04467 3.09247 0)
(4.05789 3.09247 0)
(4.05204 3.09247 0)
(4.02734 3.09247 0)
(3.98418 3.09247 0)
(3.92305 3.09247 0)
(3.84457 3.09247 0)
(3.74947 3.09247 0)
(3.63861 3.09247 0)
(3.51293 3.09247 0)
(3.37348 3.09247 0)
(3.22138 3.09247 0)
(3.05784 3.09247 0)
(2.88414 3.09247 0)
(2.7016 3.09247 0)
(2.5116 3.09247 0)
(2.31554 3.09247 0)
(2.11486 3.09247 0)
(1.91099 3.09247 0)
(1.70538 3.09247 0)
(1.49946 3.09247 0)
(1.29464 3.09247 0)
(1.09228 3.09247 0)
(0.893721 3.09247 0)
(0.700231 3.09247 0)
(0.51302 3.09247 0)
(0.333226 3.09247 0)
(0.161904 3.09247 0)
(1.90388e-05 3.09247 0)
(-0.151558 3.09247 0)
(-0.292059 3.09247 0)
(-0.420822 3.09247 0)
(-0.537296 3.09247 0)
(-0.641043 3.09247 0)
(-0.731742 3.09247 0)
(-0.809186 3.09247 0)
(-0.873289 3.09247 0)
(-0.924076 3.09247 0)
(-0.961689 3.09247 0)
(-0.98638 3.09247 0)
(-0.998508 3.09247 0)
(-0.998532 3.09247 0)
(-0.987011 3.09247 0)
(-0.964592 3.09247 0)
(-0.932005 3.09247 0)
(-0.890056 3.09247 0)
(-0.839617 3.09247 0)
(-0.781618 3.09247 0)
(-0.717038 3.09247 0)
(-0.646893 3.09247 0)
(-0.572232 3.09247 0)
(-0.494118 3.09247 0)
(-0.413626 3.09247 0)
(-0.33183 3.09247 0)
(-0.24979 3.09247 0)
(-0.168546 3.09247 0)
(-0.0891093 3.09247 0)
(-0.0124488 3.09247 0)
(0.060514 3.09247 0)
(0.128914 3.09247 0)
(0.19195 3.09247 0)
(0.248893 3.09247 0)
(0.29909 3.09247 0)
(0.34197 3.09247 0)
(0.37705 3.09247 0)
(0.403938 3.09247 0)
(0.422333 3.09247 0)
(0.432032 3.09247 0)
(0.432927 3.09247 0)
(0.425007 3.09247 0)
(0.408354 3.09247 0)
(0.383146 3.09247 0)
(0.34965 3.09247 0)
(0.308223 3.09247 0)
(0.2593 3.09247 0)
(0.203399 3.09247 0)
(0.141105 3.09247 0)
(0.0730706 3.09247 0)
(6.32955e-06 3.09247 0)
(-0.0773276 3.09247 0)
(-0.158129 3.09247 0)
(-0.241561 3.09247 0)
(-0.326763 3.09247 0)
(-0.41286 3.09247 0)
(-0.498966 3.09247 0)
(-0.584204 3.09247 0)
(-0.667702 3.09247 0)
(-0.748615 3.09247 0)
(-0.826123 3.09247 0)
(-0.899447 3.09247 0)
(-0.967852 3.09247 0)
(-1.03066 3.09247 0)
(-1.08725 3.09247 0)
(-1.13707 3.09247 0)
(-1.17964 3.09247 0)
(-1.21456 3.09247 0)
(-1.24151 3.09247 0)
(-1.26026 3.09247 0)
(-1.27067 3.09247 0)
(-1.27269 3.09247 0)
(-1.26634 3.09247 0)
(-1.25177 3.09247 0)
(-1.22919 3.09247 0)
(-1.19891 3.09247 0)
(-1.16133 3.09247 0)
(-1.11692 3.09247 0)
(-1.06623 3.09247 0)
(-1.00989 3.09247 0)
(-0.948604 3.09247 0)
(-0.883112 3.09247 0)
(-0.814225 3.09247 0)
(-0.742794 3.09247 0)
(-0.669706 3.09247 0)
(-0.595877 3.09247 0)
(-0.522242 3.09247 0)
(-0.449744 3.09247 0)
(-0.379329 3.09247 0)
(-0.311929 3.09247 0)
(-0.248462 3.09247 0)
(-0.189814 3.09247 0)
(-0.136836 3.09247 0)
(-0.09033 3.09247 0)
(-0.051045 3.09247 0)
(-0.0196658 3.09247 0)
(0.00319346 3.09247 0)
(0.0169966 3.09247 0)
(0.0212913 3.09247 0)
(0.0157154 3.09247 0)
(9.73225e-07 3.09247 0)
(-0.0260212 3.09247 0)
(-0.0624187 3.09247 0)
(-0.109155 3.09247 0)
(-0.166089 3.09247 0)
(-0.232974 3.09247 0)
(-0.309458 3.09247 0)
(-0.395087 3.09247 0)
(-0.489306 3.09247 0)
(-0.591462 3.09247 0)
(-0.700811 3.09247 0)
(-0.816521 3.09247 0)
(-0.937679 3.09247 0)
(-1.0633 3.09247 0)
(-1.19233 3.09247 0)
(-1.32365 3.09247 0)
(-1.45611 3.09247 0)
(-1.58851 3.09247 0)
(-1.71962 3.09247 0)
(-1.84819 3.09247 0)
(-1.97296 3.09247 0)
(-2.09268 3.09247 0)
(-2.2061 3.09247 0)
(-2.31201 3.09247 0)
(-2.40923 3.09247 0)
(-2.4966 3.09247 0)
(-2.57306 3.09247 0)
(-2.63758 3.09247 0)
(-2.68923 3.09247 0)
(-2.72712 3.09247 0)
(-2.75051 3.09247 0)
(-2.75873 3.09247 0)
(-2.75119 3.09247 0)
(-2.72747 3.09247 0)
(-2.68722 3.09247 0)
(-2.63022 3.09247 0)
(-2.5564 3.09247 0)
(-2.46578 3.09247 0)
(-2.35853 3.09247 0)
(-2.23494 3.09247 0)
(-2.09544 3.09247 0)
(-1.94056 3.09247 0)
(-1.77096 3.09247 0)
(-1.58743 3.09247 0)
(-1.39086 3.09247 0)
(-1.18225 3.09247 0)
(-0.9627 3.09247 0)
(-0.733391 3.09247 0)
(-0.495598 3.09247 0)
(-0.250665 3.09247 0)
(-2.36245e-06 3.09247 0)
(0.25493 3.09247 0)
(0.512629 3.09247 0)
(0.77156 3.09247 0)
(1.03017 3.09247 0)
(1.2869 3.09247 0)
(1.54019 3.09247 0)
(1.78849 3.09247 0)
(2.03031 3.09247 0)
(2.26417 3.09247 0)
(2.48864 3.09247 0)
(2.70236 3.09247 0)
(2.90405 3.09247 0)
(3.0925 3.09247 0)
(3.26659 3.09247 0)
(3.42531 3.09247 0)
(3.56776 3.09247 0)
(3.69313 3.09247 0)
(3.80075 3.09247 0)
(3.89007 3.09247 0)
(3.96067 3.09247 0)
(4.01225 3.09247 0)
(4.04467 3.09247 0)
(4.0579 3.09247 0)
(4.05204 3.09247 0)
(4.02734 3.09247 0)
(3.98417 3.09247 0)
(3.92304 3.09247 0)
(3.84455 3.09247 0)
(3.74946 3.09247 0)
(3.63859 3.09247 0)
(3.51291 3.09247 0)
(3.37346 3.09247 0)
(3.22136 3.09247 0)
(3.05782 3.09247 0)
(2.88412 3.09247 0)
(2.70158 3.09247 0)
(2.51157 3.09247 0)
(2.31551 3.09247 0)
(2.11483 3.09247 0)
(1.91096 3.09247 0)
(1.70535 3.09247 0)
(1.49943 3.09247 0)
(1.29461 3.09247 0)
(1.09225 3.09247 0)
(0.893692 3.09247 0)
(0.700202 3.09247 0)
(0.512993 3.09247 0)
(0.3332 3.09247 0)
(0.161879 3.09247 0)
(-4.39354e-06 3.09247 0)
(-0.15158 3.09247 0)
(-0.292079 3.09247 0)
(-0.420841 3.09247 0)
(-0.537313 3.09247 0)
(-0.641058 3.09247 0)
(-0.731754 3.09247 0)
(-0.809197 3.09247 0)
(-0.873297 3.09247 0)
(-0.924083 3.09247 0)
(-0.961694 3.09247 0)
(-0.986383 3.09247 0)
(-0.998508 3.09247 0)
(-0.998531 3.09247 0)
(-0.987009 3.09247 0)
(-0.964588 3.09247 0)
(-0.932 3.09247 0)
(-0.890049 3.09247 0)
(-0.839609 3.09247 0)
(-0.781609 3.09247 0)
(-0.717027 3.09247 0)
(-0.646882 3.09247 0)
(-0.57222 3.09247 0)
(-0.494106 3.09247 0)
(-0.413614 3.09247 0)
(-0.331818 3.09247 0)
(-0.249777 3.09247 0)
(-0.168534 3.09247 0)
(-0.0890977 3.09247 0)
(-0.0124376 3.09247 0)
(0.0605246 3.09247 0)
(0.128924 3.09247 0)
(0.191959 3.09247 0)
(0.248901 3.09247 0)
(0.299097 3.09247 0)
(0.341976 3.09247 0)
(0.377055 3.09247 0)
(0.403941 3.09247 0)
(0.422335 3.09247 0)
(0.432033 3.09247 0)
(0.432927 3.09247 0)
(0.425005 3.09247 0)
(0.408351 3.09247 0)
(0.383141 3.09247 0)
(0.349645 3.09247 0)
(0.308216 3.09247 0)
(0.259293 3.09247 0)
(0.20339 3.09247 0)
(0.141095 3.09247 0)
(0.07306 3.09247 0)
(-4.923e-06 3.09247 0)
(-0.0773394 3.09247 0)
(-0.158141 3.09247 0)
(-0.241573 3.09247 0)
(-0.326776 3.09247 0)
(-0.412872 3.09247 0)
(-0.498979 3.09247 0)
(-0.584216 3.09247 0)
(-0.667715 3.09247 0)
(-0.748627 3.09247 0)
(-0.826134 3.09247 0)
(-0.899457 3.09247 0)
(-0.967862 3.09247 0)
(-1.03067 3.09247 0)
(-1.08725 3.09247 0)
(-1.13707 3.09247 0)
(-1.17964 3.09247 0)
(-1.21456 3.09247 0)
(-1.24151 3.09247 0)
(-1.26026 3.09247 0)
(-1.27067 3.09247 0)
(-1.27269 3.09247 0)
(-1.26634 3.09247 0)
(-1.25177 3.09247 0)
(-1.22919 3.09247 0)
(-1.19891 3.09247 0)
(-1.16132 3.09247 0)
(-1.11691 3.09247 0)
(-1.06622 3.09247 0)
(-1.00989 3.09247 0)
(-0.948594 3.09247 0)
(-0.883102 3.09247 0)
(-0.814214 3.09247 0)
(-0.742783 3.09247 0)
(-0.669695 3.09247 0)
(-0.595866 3.09247 0)
(-0.522231 3.09247 0)
(-0.449734 3.09247 0)
(-0.379318 3.09247 0)
(-0.311919 3.09247 0)
(-0.248453 3.09247 0)
(-0.189806 3.09247 0)
(-0.136828 3.09247 0)
(-0.0903236 3.09247 0)
(-0.0510397 3.09247 0)
(-0.0196618 3.09247 0)
(0.00319621 3.09247 0)
(0.0169979 3.09247 0)
(0.0212913 3.09247 0)
(0.0157138 3.09247 0)
(-2.14117e-06 3.09247 0)
(-0.0260259 3.09247 0)
(-0.0624249 3.09247 0)
(-0.109163 3.09247 0)
(-0.166099 3.09247 0)
(-0.232985 3.09247 0)
(-0.309471 3.09247 0)
(-0.395101 3.09247 0)
(-0.489321 3.09247 0)
(-0.591478 3.09247 0)
(-0.700827 3.09247 0)
(-0.816538 3.09247 0)
(-0.937697 3.09247 0)
(-1.06332 3.09247 0)
(-1.19235 3.09247 0)
(-1.32367 3.09247 0)
(-1.45613 3.09247 0)
(-1.58853 3.09247 0)
(-1.71964 3.09247 0)
(-1.84821 3.09247 0)
(-1.97298 3.09247 0)
(-2.0927 3.09247 0)
(-2.20612 3.09247 0)
(-2.31203 3.09247 0)
(-2.40924 3.09247 0)
(-2.49662 3.09247 0)
(-2.57307 3.09247 0)
(-2.63759 3.09247 0)
(-2.68923 3.09247 0)
(-2.72713 3.09247 0)
(-2.75052 3.09247 0)
(-2.75873 3.09247 0)
(-2.75119 3.09247 0)
(-2.72746 3.09247 0)
(-2.68721 3.09247 0)
(-2.63021 3.09247 0)
(-2.55638 3.09247 0)
(-2.46576 3.09247 0)
(-2.35851 3.09247 0)
(-2.23492 3.09247 0)
(-2.09542 3.09247 0)
(-1.94053 3.09247 0)
(-1.77093 3.09247 0)
(-1.5874 3.09247 0)
(-1.39083 3.09247 0)
(-1.18222 3.09247 0)
(-0.962666 3.09247 0)
(-0.733356 3.09247 0)
(-0.495562 3.09247 0)
(-0.250628 3.09247 0)
(3.54368e-05 3.09247 0)
(0.254969 3.09247 0)
(0.512668 3.09247 0)
(0.771599 3.09247 0)
(1.03021 3.09247 0)
(1.28694 3.09247 0)
(1.54022 3.09247 0)
(1.78853 3.09247 0)
(2.03035 3.09247 0)
(2.2642 3.09247 0)
(2.48867 3.09247 0)
(2.70239 3.09247 0)
(2.90408 3.09247 0)
(3.09247 3.26657 0)
(3.26657 3.26657 0)
(3.42529 3.26657 0)
(3.56774 3.26657 0)
(3.69311 3.26657 0)
(3.80073 3.26657 0)
(3.89006 3.26657 0)
(3.96066 3.26657 0)
(4.01225 3.26657 0)
(4.04467 3.26657 0)
(4.05789 3.26657 0)
(4.05204 3.26657 0)
(4.02734 3.26657 0)
(3.98418 3.26657 0)
(3.92305 3.26657 0)
(3.84457 3.26657 0)
(3.74947 3.26657 0)
(3.63861 3.26657 0)
(3.51293 3.26657 0)
(3.37348 3.26657 0)
(3.22138 3.26657 0)
(3.05784 3.26657 0)
(2.88414 3.26657 0)
(2.7016 3.26657 0)
(2.5116 3.26657 0)
(2.31554 3.26657 0)
(2.11486 3.26657 0)
(1.91099 3.26657 0)
(1.70538 3.26657 0)
(1.49946 3.26657 0)
(1.29464 3.26657 0)
(1.09228 3.26657 0)
(0.893721 3.26657 0)
(0.700231 3.26657 0)
(0.51302 3.26657 0)
(0.333226 3.26657 0)
(0.161904 3.26657 0)
(1.90388e-05 3.26657 0)
(-0.151558 3.26657 0)
(-0.292059 3.26657 0)
(-0.420822 3.26657 0)
(-0.537296 3.26657 0)
(-0.641043 3.26657 0)
(-0.731742 3.26657 0)
(-0.809186 3.26657 0)
(-0.873289 3.26657 0)
(-0.924076 3.26657 0)
(-0.961689 3.26657 0)
(-0.98638 3.26657 0)
(-0.998508 3.26657 0)
(-0.998532 3.26657 0)
(-0.987011 3.26657 0)
(-0.964592 3.26657 0)
(-0.932005 3.26657 0)
(-0.890056 3.26657 0)
(-0.839617 3.26657 0)
(-0.781618 3.26657 0)
(-0.717038 3.26657 0)
(-0.646893 3.26657 0)
(-0.572232 3.26657 0)
(-0.494118 3.26657 0)
(-0.413626 3.26657 0)
(-0.33183 3.26657 0)
(-0.24979 3.26657 0)
(-0.168546 3.26657 0)
(-0.0891093 3.26657 0)
(-0.0124488 3.26657 0)
(0.060514 3.26657 0)
(0.128914 3.26657 0)
(0.19195 3.26657 0)
(0.248893 3.26657 0)
(0.29909 3.26657 0)
(0.34197 3.26657 0)
(0.37705 3.26657 0)
(0.403938 3.26657 0)
(0.422333 3.26657 0)
(0.432032 3.26657 0)
(0.432927 3.26657 0)
(0.425007 3.26657 0)
(0.408354 3.26657 0)
(0.383146 3.26657 0)
(0.34965 3.26657 0)
(0.308223 3.26657 0)
(0.2593 3.26657 0)
(0.203399 3.26657 0)
(0.141105 3.26657 0)
(0.0730706 3.26657 0)
(6.32955e-06 3.26657 0)
(-0.0773276 3.26657 0)
(-0.158129 3.26657 0)
(-0.241561 3.26657 0)
(-0.326763 3.26657 0)
(-0.41286 3.26657 0)
(-0.498966 3.26657 0)
(-0.584204 3.26657 0)
(-0.667702 3.26657 0)
(-0.748615 3.26657 0)
(-0.826123 3.26657 0)
(-0.899447 3.26657 0)
(-0.967852 3.26657 0)
(-1.03066 3.26657 0)
(-1.08725 3.26657 0)
(-1.13707 3.26657 0)
(-1.17964 3.26657 0)
(-1.21456 3.26657 0)
(-1.24151 3.26657 0)
(-1.26026 3.26657 0)
(-1.27067 3.26657 0)
(-1.27269 3.26657 0)
(-1.26634 3.26657 0)
(-1.25177 3.26657 0)
(-1.22919 3.26657 0)
(-1.19891 3.26657 0)
(-1.16133 3.26657 0)
(-1.11692 3.26657 0)
(-1.06623 3.26657 0)
(-1.00989 3.26657 0)
(-0.948604 3.26657 0)
(-0.883112 3.26657 0)
(-0.814225 3.26657 0)
(-0.742794 3.26657 0)
(-0.669706 3.26657 0)
(-0.595877 3.26657 0)
(-0.522242 3.26657 0)
(-0.449744 3.26657 0)
(-0.379329 3.26657 0)
(-0.311929 3.26657 0)
(-0.248462 3.26657 0)
(-0.189814 3.26657 0)
(-0.136836 3.26657 0)
(-0.09033 3.26657 0)
(-0.051045 3.26657 0)
(-0.0196658 3.26657 0)
(0.00319346 3.26657 0)
(0.0169966 3.26657 0)
(0.0212913 3.26657 0)
(0.0157154 3.26657 0)
(9.73225e-07 3.26657 0)
(-0.0260212 3.26657 0)
(-0.0624187 3.26657 0)
(-0.109155 3.26657 0)
(-0.166089 3.26657 0)
(-0.232974 3.26657 0)
(-0.309458 3.26657 0)
(-0.395087 3.26657 0)
(-0.489306 3.26657 0)
(-0.591462 3.26657 0)
(-0.700811 3.26657 0)
(-0.816521 3.26657 0)
(-0.937679 3.26657 0)
(-1.0633 3.26657 0)
(-1.19233 3.26657 0)
(-1.32365 3.26657 0)
(-1.45611 3.26657 0)
(-1.58851 3.26657 0)
(-1.71962 3.26657 0)
(-1.84819 3.26657 0)
(-1.97296 3.26657 0)
(-2.09268 3.26657 0)
(-2.2061 3.26657 0)
(-2.31201 3.26657 0)
(-2.40923 3.26657 0)
(-2.4966 3.26657 0)
(-2.57306 3.26657 0)
(-2.63758 3.26657 0)
(-2.68923 3.26657 0)
(-2.72712 3.26657 0)
(-2.75051 3.26657 0)
(-2.75873 3.26657 0)
(-2.75119 3.26657 0)
(-2.72747 3.26657 0)
(-2.68722 3.26657 0)
(-2.63022 3.26657 0)
(-2.5564 3.26657 0)
(-2.46578 3.26657 0)
(-2.35853 3.26657 0)
(-2.23494 3.26657 0)
(-2.09544 3.26657 0)
(-1.94056 3.26657 0)
(-1.77096 3.26657 0)
(-1.58743 3.26657 0)
(-1.39086 3.26657 0)
(-1.18225 3.26657 0)
(-0.9627 3.26657 0)
(-0.733391 3.26657 0)
(-0.495598 3.26657 0)
(-0.250665 3.26657 0)
(-2.36245e-06 3.26657 0)
(0.25493 3.26657 0)
(0.512629 3.26657 0)
(0.77156 3.26657 0)
(1.03017 3.26657 0)
(1.2869 3.26657 0)
(1.54019 3.26657 0)
(1.78849 3.26657 0)
(2.03031 3.26657 0)
(2.26417 3.26657 0)
(2.48864 3.26657 0)
(2.70236 3.26657 0)
(2.90405 3.26657 0)
(3.0925 3.26657 0)
(3.26659 3.26657 0)
(3.42531 3.26657 0)
(3.56776 3.26657 0)
(3.69313 3.26657 0)
(3.80075 3.26657 0)
(3.89007 3.26657 0)
(3.96067 3.26657 0)
(4.01225 3.26657 0)
(4.04467 3.26657 0)
(4.0579 3.26657 0)
(4.05204 3.26657 0)
(4.02734 3.26657 0)
(3.98417 3.26657 0)
(3.92304 3.26657 0)
(3.84455 3.26657 0)
(3.74946 3.26657 0)
(3.63859 3.26657 0)
(3.51291 3.26657 0)
(3.37346 3.26657 0)
(3.22136 3.26657 0)
(3.05782 3.26657 0)
(2.88412 3.26657 0)
(2.70158 3.26657 0)
(2.51157 3.26657 0)
(2.31551 3.26657 0)
(2.11483 3.26657 0)
(1.91096 3.26657 0)
(1.70535 3.26657 0)
(1.49943 3.26657 0)
(1.29461 3.26657 0)
(1.09225 3.26657 0)
(0.893692 3.26657 0)
(0.700202 3.26657 0)
(0.512993 3.26657 0)
(0.3332 3.26657 0)
(0.161879 3.26657 0)
(-4.39354e-06 3.26657 0)
(-0.15158 3.26657 0)
(-0.292079 3.26657 0)
(-0.420841 3.26657 0)
(-0.537313 3.26657 0)
(-0.641058 3.26657 0)
(-0.731754 3.26657 0)
(-0.809197 3.26657 0)
(-0.873297 3.26657 0)
(-0.924083 3.26657 0)
(-0.961694 3.26657 0)
(-0.986383 3.26657 0)
(-0.998508 3.26657 0)
(-0.998531 3.26657 0)
(-0.987009 3.26657 0)
(-0.964588 3.26657 0)
(-0.932 3.26657 0)
(-0.890049 3.26657 0)
(-0.839609 3.26657 0)
(-0.781609 3.26657 0)
(-0.717027 3.26657 0)
(-0.646882 3.26657 0)
(-0.57222 3.26657 0)
(-0.494106 3.26657 0)
(-0.413614 3.26657 0)
(-0.331818 3.26657 0)
(-0.249777 3.26657 0)
(-0.168534 3.26657 0)
(-0.0890977 3.26657 0)
(-0.0124376 3.26657 0)
(0.0605246 3.26657 0)
(0.128924 3.26657 0)
(0.191959 3.26657 0)
(0.248901 3.26657 0)
(0.299097 3.26657 0)
(0.341976 3.26657 0)
(0.377055 3.26657 0)
(0.403941 3.26657 0)
(0.422335 3.26657 0)
(0.432033 3.26657 0)
(0.432927 3.26657 0)
(0.425005 3.26657 0)
(0.408351 3.26657 0)
(0.383141 3.26657 0)
(0.349645 3.26657 0)
(0.308216 3.26657 0)
(0.259293 3.26657 0)
(0.20339 3.26657 0)
(0.141095 3.26657 0)
(0.07306 3.26657 0)
(-4.923e-06 3.26657 0)
(-0.0773394 3.26657 0)
(-0.158141 3.26657 0)
(-0.241573 3.26657 0)
(-0.326776 3.26657 0)
(-0.412872 3.26657 0)
(-0.498979 3.26657 0)
(-0.584216 3.26657 0)
(-0.667715 3.26657 0)
(-0.748627 3.26657 0)
(-0.826134 3.26657 0)
(-0.899457 3.26657 0)
(-0.967862 3.26657 0)
(-1.03067 3.26657 0)
(-1.08725 3.26657 0)
(-1.13707 3.26657 0)
(-1.17964 3.26657 0)
(-1.21456 3.26657 0)
(-1.24151 3.26657 0)
(-1.26026 3.26657 0)
(-1.27067 3.26657 0)
(-1.27269 3.26657 0)
(-1.26634 3.26657 0)
(-1.25177 3.26657 0)
(-1.22919 3.26657 0)
(-1.19891 3.26657 0)
(-1.16132 3.26657 0)
(-1.11691 3.26657 0)
(-1.06622 3.26657 0)
(-1.00989 3.26657 0)
(-0.948594 3.26657 0)
(-0.883102 3.26657 0)
(-0.814214 3.26657 0)
(-0.742783 3.26657 0)
(-0.669695 3.26657 0)
(-0.595866 3.26657 0)
(-0.522231 3.26657 0)
(-0.449734 3.26657 0)
(-0.379318 3.26657 0)
(-0.311919 3.26657 0)
(-0.248453 3.26657 0)
(-0.189806 3.26657 0)
(-0.136828 3.26657 0)
(-0.0903236 3.26657 0)
(-0.0510397 3.26657 0)
(-0.0196618 3.26657 0)
(0.00319621 3.26657 0)
(0.0169979 3.26657 0)
(0.0212913 3.26657 0)
(0.0157138 3.26657 0)
(-2.14117e-06 3.26657 0)
(-0.0260259 3.26657 0)
(-0.0624249 3.26657 0)
(-0.109163 3.26657 0)
(-0.166099 3.26657 0)
(-0.232985 3.26657 0)
(-0.309471 3.26657 0)
(-0.395101 3.26657 0)
(-0.489321 3.26657 0)
(-0.591478 3.26657 0)
(-0.700827 3.26657 0)
(-0.816538 3.26657 0)
(-0.937697 3.26657 0)
(-1.06332 3.26657 0)
(-1.19235 3.26657 0)
(-1.32367 3.26657 0)
(-1.45613 3.26657 0)
(-1.58853 3.26657 0)
(-1.71964 3.26657 0)
(-1.84821 3.26657 0)
(-1.97298 3.26657 0)
(-2.0927 3.26657 0)
(-2.20612 3.26657 0)
(-2.31203 3.26657 0)
(-2.40924 3.26657 0)
(-2.49662 3.26657 0)
(-2.57307 3.26657 0)
(-2.63759 3.26657 0)
(-2.68923 3.26657 0)
(-2.72713 3.26657 0)
(-2.75052 3.26657 0)
(-2.75873 3.26657 0)
(-2.75119 3.26657 0)
(-2.72746 3.26657 0)
(-2.68721 3.26657 0)
(-2.63021 3.26657 0)
(-2.55638 3.26657 0)
(-2.46576 3.26657 0)
(-2.35851 3.26657 0)
(-2.23492 3.26657 0)
(-2.09542 3.26657 0)
(-1.94053 3.26657 0)
(-1.77093 3.26657 0)
(-1.5874 3.26657 0)
(-1.39083 3.26657 0)
(-1.18222 3.26657 0)
(-0.962666 3.26657 0)
(-0.733356 3.26657 0)
(-0.495562 3.26657 0)
(-0.250628 3.26657 0)
(3.54368e-05 3.26657 0)
(0.254969 3.26657 0)
(0.512668 3.26657 0)
(0.771599 3.26657 0)
(1.03021 3.26657 0)
(1.28694 3.26657 0)
(1.54022 3.26657 0)
(1.78853 3.26657 0)
(2.03035 3.26657 0)
(2.2642 3.26657 0)
(2.48867 3.26657 0)
(2.70239 3.26657 0)
(2.90408 3.26657 0)
(3.09247 3.42529 0)
(3.26657 3.42529 0)
(3.42529 3.42529 0)
(3.56774 3.42529 0)
(3.69311 3.42529 0)
(3.80073 3.42529 0)
(3.89006 3.42529 0)
(3.96066 3.42529 0)
(4.01225 3.42529 0)
(4.04467 3.42529 0)
(4.05789 3.42529 0)
(4.05204 3.42529 0)
(4.02734 3.42529 0)
(3.98418 3.42529 0)
(3.92305 3.42529 0)
(3.84457 3.42529 0)
(3.74947 3.42529 0)
(3.63861 3.42529 0)
(3.51293 3.42529 0)
(3.37348 3.42529 0)
(3.22138 3.42529 0)
(3.05784 3.42529 0)
(2.88414 3.42529 0)
(2.7016 3.42529 0)
(2.5116 3.42529 0)
(2.31554 3.42529 0)
(2.11486 3.42529 0)
(1.91099 3.42529 0)
(1.70538 3.42529 0)
(1.49946 3.42529 0)
(1.29464 3.42529 0)
(1.09228 3.42529 0)
(0.893721 3.42529 0)
(0.700231 3.42529 0)
(0.51302 3.42529 0)
(0.333226 3.42529 0)
(0.161904 3.42529 0)
(1.90388e-05 3.42529 0)
(-0.151558 3.42529 0)
(-0.292059 3.42529 0)
(-0.420822 3.42529 0)
(-0.537296 3.42529 0)
(-0.641043 3.42529 0)
(-0.731742 3.42529 0)
(-0.809186 3.42529 0)
(-0.873289 3.42529 0)
(-0.924076 3.42529 0)
(-0.961689 3.42529 0)
(-0.98638 3.42529 0)
(-0.998508 3.42529 0)
(-0.998532 3.42529 0)
(-0.987011 3.42529 0)
(-0.964592 3.42529 0)
(-0.932005 3.42529 0)
(-0.890056 3.42529 0)
(-0.839617 3.42529 0)
(-0.781618 3.42529 0)
(-0.717038 3.42529 0)
(-0.646893 3.42529 0)
(-0.572232 3.42529 0)
(-0.494118 3.42529 0)
(-0.413626 3.42529 0)
(-0.33183 3.42529 0)
(-0.24979 3.42529 0)
(-0.168546 3.42529 0)
(-0.0891093 3.42529 0)
(-0.0124488 3.42529 0)
(0.060514 3.42529 0)
(0.128914 3.42529 0)
(0.19195 3.42529 0)
(0.248893 3.42529 0)
(0.29909 3.42529 0)
(0.34197 3.42529 0)
(0.37705 3.42529 0)
(0.403938 3.42529 0)
(0.422333 3.42529 0)
(0.432032 3.42529 0)
(0.432927 3.42529 0)
(0.425007 3.42529 0)
(0.408354 3.42529 0)
(0.383146 3.42529 0)
(0.34965 3.42529 0)
(0.308223 3.42529 0)
(0.2593 3.42529 0)
(0.203399 3.42529 0)
(0.141105 3.42529 0)
(0.0730706 3.42529 0)
(6.32955e-06 3.42529 0)
(-0.0773276 3.42529 0)
(-0.158129 3.42529 0)
(-0.241561 3.42529 0)
(-0.326763 3.42529 0)
(-0.41286 3.42529 0)
(-0.498966 3.42529 0)
(-0.584204 3.42529 0)
(-0.667702 3.42529 0)
(-0.748615 3.42529 0)
(-0.826123 3.42529 0)
(-0.899447 3.42529 0)
(-0.967852 3.42529 0)
(-1.03066 3.42529 0)
(-1.08725 3.42529 0)
(-1.13707 3.42529 0)
(-1.17964 3.42529 0)
(-1.21456 3.42529 0)
(-1.24151 3.42529 0)
(-1.26026 3.42529 0)
(-1.27067 3.42529 0)
(-1.27269 3.42529 0)
(-1.26634 3.42529 0)
(-1.25177 3.42529 0)
(-1.22919 3.42529 0)
(-1.19891 3.42529 0)
(-1.16133 3.42529 0)
(-1.11692 3.42529 0)
(-1.06623 3.42529 0)
(-1.00989 3.42529 0)
(-0.948604 3.42529 0)
(-0.883112 3.42529 0)
(-0.814225 3.42529 0)
(-0.742794 3.42529 0)
(-0.669706 3.42529 0)
(-0.595877 3.42529 0)
(-0.522242 3.42529 0)
(-0.449744 3.42529 0)
(-0.379329 3.42529 0)
(-0.311929 3.42529 0)
(-0.248462 3.42529 0)
(-0.189814 3.42529 0)
(-0.136836 3.42529 0)
(-0.09033 3.42529 0)
(-0.051045 3.42529 0)
(-0.0196658 3.42529 0)
(0.00319346 3.42529 0)
(0.0169966 3.42529 0)
(0.0212913 3.42529 0)
(0.0157154 3.42529 0)
(9.73225e-07 3.42529 0)
(-0.0260212 3.42529 0)
(-0.0624187 3.42529 0)
(-0.109155 3.42529 0)
(-0.166089 3.42529 0)
(-0.232974 3.42529 0)
(-0.309458 3.42529 0)
(-0.395087 3.42529 0)
(-0.489306 3.42529 0)
(-0.591462 3.42529 0)
(-0.700811 3.42529 0)
(-0.816521 3.42529 0)
(-0.937679 3.42529 0)
(-1.0633 3.42529 0)
(-1.19233 3.42529 0)
(-1.32365 3.42529 0)
(-1.45611 3.42529 0)
(-1.58851 3.42529 0)
(-1.71962 3.42529 0)
(-1.84819 3.42529 0)
(-1.97296 3.42529 0)
(-2.09268 3.42529 0)
(-2.2061 3.42529 0)
(-2.31201 3.42529 0)
(-2.40923 3.42529 0)
(-2.4966 3.42529 0)
(-2.57306 3.42529 0)
(-2.63758 3.42529 0)
(-2.68923 3.42529 0)
(-2.72712 3.42529 0)
(-2.75051 3.42529 0)
(-2.75873 3.42529 0)
(-2.75119 3.42529 0)
(-2.72747 3.42529 0)
(-2.68722 3.42529 0)
(-2.63022 3.42529 0)
(-2.5564 3.42529 0)
(-2.46578 3.42529 0)
(-2.35853 3.42529 0)
(-2.23494 3.42529 0)
(-2.09544 3.42529 0)
(-1.94056 3.42529 0)
(-1.77096 3.42529 0)
(-1.58743 3.42529 0)
(-1.39086 3.42529 0)
(-1.18225 3.42529 0)
(-0.9627 3.42529 0)
(-0.733391 3.42529 0)
(-0.495598 3.42529 0)
(-0.250665 3.42529 0)
(-2.36245e-06 3.42529 0)
(0.25493 3.42529 0)
(0.512629 3.42529 0)
(0.77156 3.42529 0)
(1.03017 3.42529 0)
(1.2869 3.42529 0)
(1.54019 3.42529 0)
(1.78849 3.42529 0)
(2.03031 3.42529 0)
(2.26417 3.42529 0)
(2.48864 3.42529 0)
(2.70236 3.42529 0)
(2.90405 3.42529 0)
(3.0925 3.42529 0)
(3.26659 3.42529 0)
(3.42531 3.42529 0)
(3.56776 3.42529 0)
(3.69313 3.42529 0)
(3.80075 3.42529 0)
(3.89007 3.42529 0)
(3.96067 3.42529 0)
(4.01225 3.42529 0)
(4.04467 3.42529 0)
(4.0579 3.42529 0)
(4.05204 3.42529 0)
(4.02734 3.42529 0)
(3.98417 3.42529 0)
(3.92304 3.42529 0)
(3.84455 3.42529 0)
(3.74946 3.42529 0)
(3.63859 3.42529 0)
(3.51291 3.42529 0)
(3.37346 3.42529 0)
(3.22136 3.42529 0)
(3.05782 3.42529 0)
(2.88412 3.42529 0)
(2.70158 3.42529 0)
(2.51157 3.42529 0)
(2.31551 3.42529 0)
(2.11483 3.42529 0)
(1.91096 3.42529 0)
(1.70535 3.42529 0)
(1.49943 3.42529 0)
(1.29461 3.42529 0)
(1.09225 3.42529 0)
(0.893692 3.42529 0)
(0.700202 3.42529 0)
(0.512993 3.42529 0)
(0.3332 3.42529 0)
(0.161879 3.42529 0)
(-4.39354e-06 3.42529 0)
(-0.15158 3.42529 0)
(-0.292079 3.42529 0)
(-0.420841 3.42529 0)
(-0.537313 3.42529 0)
(-0.641058 3.42529 0)
(-0.731754 3.42529 0)
(-0.809197 3.42529 0)
(-0.873297 3.42529 0)
(-0.924083 3.42529 0)
(-0.961694 3.42529 0)
(-0.986383 3.42529 0)
(-0.998508 3.42529 0)
(-0.998531 3.42529 0)
(-0.987009 3.42529 0)
(-0.964588 3.42529 0)
(-0.932 3.42529 0)
(-0.890049 3.42529 0)
(-0.839609 3.42529 0)
(-0.781609 3.42529 0)
(-0.717027 3.42529 0)
(-0.646882 3.42529 0)
(-0.57222 3.42529 0)
(-0.494106 3.42529 0)
(-0.413614 3.42529 0)
(-0.331818 3.42529 0)
(-0.249777 3.42529 0)
(-0.168534 3.42529 0)
(-0.0890977 3.42529 0)
(-0.0124376 3.42529 0)
(0.0605246 3.42529 0)
(0.128924 3.42529 0)
(0.191959 3.42529 0)
(0.248901 3.42529 0)
(0.299097 3.42529 0)
(0.341976 3.42529 0)
(0.377055 3.42529 0)
(0.403941 3.42529 0)
(0.422335 3.42529 0)
(0.432033 3.42529 0)
(0.432927 3.42529 0)
(0.425005 3.42529 0)
(0.408351 3.42529 0)
(0.383141 3.42529 0)
(0.349645 3.42529 0)
(0.308216 3.42529 0)
(0.259293 3.42529 0)
(0.20339 3.42529 0)
(0.141095 3.42529 0)
(0.07306 3.42529 0)
(-4.923e-06 3.42529 0)
(-0.0773394 3.42529 0)
(-0.158141 3.42529 0)
(-0.241573 3.42529 0)
(-0.326776 3.42529 0)
(-0.412872 3.42529 0)
(-0.498979 3.42529 0)
(-0.584216 3.42529 0)
(-0.667715 3.42529 0)
(-0.748627 3.42529 0)
(-0.826134 3.42529 0)
(-0.899457 3.42529 0)
(-0.967862 3.42529 0)
(-1.03067 3.42529 0)
(-1.08725 3.42529 0)
(-1.13707 3.42529 0)
(-1.17964 3.42529 0)
(-1.21456 3.42529 0)
(-1.24151 3.42529 0)
(-1.26026 3.42529 0)
(-1.27067 3.42529 0)
(-1.27269 3.42529 0)
(-1.26634 3.42529 0)
(-1.25177 3.42529 0)
(-1.22919 3.42529 0)
(-1.19891 3.42529 0)
(-1.16132 3.42529 0)
(-1.11691 3.42529 0)
(-1.06622 3.42529 0)
(-1.00989 3.42529 0)
(-0.948594 3.42529 0)
(-0.883102 3.42529 0)
(-0.814214 3.42529 0)
(-0.742783 3.42529 0)
(-0.669695 3.42529 0)
(-0.595866 3.42529 0)
(-0.522231 3.42529 0)
(-0.449734 3.42529 0)
(-0.379318 3.42529 0)
(-0.311919 3.42529 0)
(-0.248453 3.42529 0)
(-0.189806 3.42529 0)
(-0.136828 3.42529 0)
(-0.0903236 3.42529 0)
(-0.0510397 3.42529 0)
(-0.0196618 3.42529 0)
(0.00319621 3.42529 0)
(0.0169979 3.42529 0)
(0.0212913 3.42529 0)
(0.0157138 3.42529 0)
(-2.14117e-06 3.42529 0)
(-0.0260259 3.42529 0)
(-0.0624249 3.42529 0)
(-0.109163 3.42529 0)
(-0.166099 3.42529 0)
(-0.232985 3.42529 0)
(-0.309471 3.42529 0)
(-0.395101 3.42529 0)
(-0.489321 3.42529 0)
(-0.591478 3.42529 0)
(-0.700827 3.42529 0)
(-0.816538 3.42529 0)
(-0.937697 3.42529 0)
(-1.06332 3.42529 0)
(-1.19235 3.42529 0)
(-1.32367 3.42529 0)
(-1.45613 3.42529 0)
(-1.58853 3.42529 0)
(-1.71964 3.42529 0)
(-1.84821 3.42529 0)
(-1.97298 3.42529 0)
(-2.0927 3.42529 0)
(-2.20612 3.42529 0)
(-2.31203 3.42529 0)
(-2.40924 3.42529 0)
(-2.49662 3.42529 0)
(-2.57307 3.42529 0)
(-2.63759 3.42529 0)
(-2.68923 3.42529 0)
(-2.72713 3.42529 0)
(-2.75052 3.42529 0)
(-2.75873 3.42529 0)
(-2.75119 3.42529 0)
(-2.72746 3.42529 0)
(-2.68721 3.42529 0)
(-2.63021 3.42529 0)
(-2.55638 3.42529 0)
(-2.46576 3.42529 0)
(-2.35851 3.42529 0)
(-2.23492 3.42529 0)
(-2.09542 3.42529 0)
(-1.94053 3.42529 0)
(-1.77093 3.42529 0)
(-1.5874 3.42529 0)
(-1.39083 3.42529 0)
(-1.18222 3.42529 0)
(-0.962666 3.42529 0)
(-0.733356 3.42529 0)
(-0.495562 3.42529 0)
(-0.250628 3.42529 0)
(3.54368e-05 3.42529 0)
(0.254969 3.42529 0)
(0.512668 3.42529 0)
(0.771599 3.42529 0)
(1.03021 3.42529 0)
(1.28694 3.42529 0)
(1.54022 3.42529 0)
(1.78853 3.42529 0)
(2.03035 3.42529 0)
(2.2642 3.42529 0)
(2.48867 3.42529 0)
(2.70239 3.42529 0)
(2.90408 3.42529 0)
(3.09247 3.56774 0)
(3.26657 3.56774 0)
(3.42529 3.56774 0)
(3.56774 3.56774 0)
(3.69311 3.56774 0)
(3.80073 3.56774 0)
(3.89006 3.56774 0)
(3.96066 3.56774 0)
(4.01225 3.56774 0)
(4.04467 3.56774 0)
(4.05789 3.56774 0)
(4.05204 3.56774 0)
(4.02734 3.56774 0)
(3.98418 3.56774 0)
(3.92305 3.56774 0)
(3.84457 3.56774 0)
(3.74947 3.56774 0)
(3.63861 3.56774 0)
(3.51293 3.56774 0)
(3.37348 3.56774 0)
(3.22138 3.56774 0)
(3.05784 3.56774 0)
(2.88414 3.56774 0)
(2.7016 3.56774 0)
(2.5116 3.56774 0)
(2.31554 3.56774 0)
(2.11486 3.56774 0)
(1.91099 3.56774 0)
(1.70538 3.56774 0)
(1.49946 3.56774 0)
(1.29464 3.56774 0)
(1.09228 3.56774 0)
(0.893721 3.56774 0)
(0.700231 3.56774 0)
(0.51302 3.56774 0)
(0.333226 3.56774 0)
(0.161904 3.56774 0)
(1.90388e-05 3.56774 0)
(-0.151558 3.56774 0)
(-0.292059 3.56774 0)
(-0.420822 3.56774 0)
(-0.537296 3.56774 0)
(-0.641043 3.56774 0)
(-0.731742 3.56774 0)
(-0.809186 3.56774 0)
(-0.873289 3.56774 0)
(-0.924076 3.56774 0)
(-0.961689 3.56774 0)
(-0.98638 3.56774 0)
(-0.998508 3.56774 0)
(-0.998532 3.56774 0)
(-0.987011 3.56774 0)
(-0.964592 3.56774 0)
(-0.932005 3.56774 0)
(-0.890056 3.56774 0)
(-0.839617 3.56774 0)
(-0.781618 3.56774 0)
(-0.717038 3.56774 0)
(-0.646893 3.56774 0)
(-0.572232 3.56774 0)
(-0.494118 3.56774 0)
(-0.413626 3.56774 0)
(-0.33183 3.56774 0)
(-0.24979 3.56774 0)
(-0.168546 3.56774 0)
(-0.0891093 3.56774 0)
(-0.0124488 3.56774 0)
(0.060514 3.56774 0)
(0.128914 3.56774 0)
(0.19195 3.56774 0)
(0.248893 3.56774 0)
(0.29909 3.56774 0)
(0.34197 3.56774 0)
(0.37705 3.56774 0)
(0.403938 3.56774 0)
(0.422333 3.56774 0)
(0.432032 3.56774 0)
(0.432927 3.56774 0)
(0.425007 3.56774 0)
(0.408354 3.56774 0)
(0.383146 3.56774 0)
(0.34965 3.56774 0)
(0.308223 3.56774 0)
(0.2593 3.56774 0)
(0.203399 3.56774 0)
(0.141105 3.56774 0)
(0.0730706 3.56774 0)
(6.32955e-06 3.56774 0)
(-0.0773276 3.56774 0)
(-0.158129 3.56774 0)
(-0.241561 3.56774 0)
(-0.326763 3.56774 0)
(-0.41286 3.56774 0)
(-0.498966 3.56774 0)
(-0.584204 3.56774 0)
(-0.667702 3.56774 0)
(-0.748615 3.56774 0)
(-0.826123 3.56774 0)
(-0.899447 3.56774 0)
(-0.967852 3.56774 0)
(-1.03066 3.56774 0)
(-1.08725 3.56774 0)
(-1.13707 3.56774 0)
(-1.17964 3.56774 0)
(-1.21456 3.56774 0)
(-1.24151 3.56774 0)
(-1.26026 3.56774 0)
(-1.27067 3.56774 0)
(-1.27269 3.56774 0)
(-1.26634 3.56774 0)
(-1.25177 3.56774 0)
(-1.22919 3.56774 0)
(-1.19891 3.56774 0)
(-1.16133 3.56774 0)
(-1.11692 3.56774 0)
(-1.06623 3.56774 0)
(-1.00989 3.56774 0)
(-0.948604 3.56774 0)
(-0.883112 3.56774 0)
(-0.814225 3.56774 0)
(-0.742794 3.56774 0)
(-0.669706 3.56774 0)
(-0.595877 3.56774 0)
(-0.522242 3.56774 0)
(-0.449744 3.56774 0)
(-0.379329 3.56774 0)
(-0.311929 3.56774 0)
(-0.248462 3.56774 0)
(-0.189814 3.56774 0)
(-0.136836 3.56774 0)
(-0.09033 3.56774 0)
(-0.051045 3.56774 0)
(-0.0196658 3.56774 0)
(0.00319346 3.56774 0)
(0.0169966 3.56774 0)
(0.0212913 3.56774 0)
(0.0157154 3.56774 0)
(9.73225e-07 3.56774 0)
(-0.0260212 3.56774 0)
(-0.0624187 3.56774 0)
(-0.109155 3.56774 0)
(-0.166089 3.56774 0)
(-0.232974 3.56774 0)
(-0.309458 3.56774 0)
(-0.395087 3.56774 0)
(-0.489306 3.56774 0)
(-0.591462 3.56774 0)
(-0.700811 3.56774 0)
(-0.816521 3.56774 0)
(-0.937679 3.56774 0)
(-1.0633 3.56774 0)
(-1.19233 3.56774 0)
(-1.32365 3.56774 0)
(-1.45611 3.56774 0)
(-1.58851 3.56774 0)
(-1.71962 3.56774 0)
(-1.84819 3.56774 0)
(-1.97296 3.56774 0)
(-2.09268 3.56774 0)
(-2.2061 3.56774 0)
(-2.31201 3.56774 0)
(-2.40923 3.56774 0)
(-2.4966 3.56774 0)
(-2.57306 3.56774 0)
(-2.63758 3.56774 0)
(-2.68923 3.56774 0)
(-2.72712 3.56774 0)
(-2.75051 3.56774 0)
(-2.75873 3.56774 0)
(-2.75119 3.56774 0)
(-2.72747 3.56774 0)
(-2.68722 3.56774 0)