/*--------------------------------*- C++ -*----------------------------------*\
| =========                 |                                                 |
| \\      /  F ield         | OpenFOAM: The Open Source CFD Toolbox           |
|  \\    /   O peration     | Version:  2106                                  |
|   \\  /    A nd           | Website:  www.openfoam.com                      |
|    \\/     M anipulation  |                                                 |
\*---------------------------------------------------------------------------*/
FoamFile
{
    version     2.0;
    format      ascii;
    arch        "LSB;label=32;scalar=64";
    class       volScalarField;
    location    "0.007";
    object      p;
}
// * * * * * * * * * * * * * * * * * * * * * * * * * * * * * * * * * * * * * //

dimensions      [0 2 -2 0 0 0 0];

internalField   nonuniform List<scalar> 
160000
(
1.93364
-0.0048568
3.72325
-1.47402
4.82491
-2.07736
5.00617
-1.83146
4.47603
-1.05872
3.62924
-0.157037
2.82004
0.597134
2.2332
1.10634
1.8922
1.39987
1.73448
1.55294
1.68392
1.6327
1.68483
1.6807
1.70654
1.71699
1.73515
1.74981
1.76539
1.7806
1.79551
1.81006
1.82421
1.83794
1.85117
1.86386
1.87592
1.88731
1.89801
1.90797
1.91718
1.92557
1.93312
1.93979
1.94554
1.95039
1.95429
1.95724
1.95922
1.96021
1.9602
1.95919
1.95719
1.9542
1.95025
1.94539
1.9396
1.93292
1.92535
1.91691
1.90766
1.89759
1.88678
1.87527
1.86311
1.85038
1.83708
1.82332
1.80911
1.79451
1.77959
1.76437
1.74894
1.73333
1.71763
1.7019
1.68618
1.67057
1.6551
1.63986
1.62491
1.61026
1.59605
1.58227
1.569
1.5563
1.54419
1.53275
1.52201
1.51202
1.50283
1.49445
1.48695
1.48034
1.47464
1.46988
1.46606
1.46322
1.46135
1.46047
1.46057
1.46164
1.46371
1.46672
1.47072
1.47564
1.48148
1.48823
1.49584
1.50431
1.51358
1.52364
1.53444
1.54592
1.55807
1.57081
1.58412
1.59793
1.61218
1.62684
1.64182
1.65708
1.67257
1.68819
1.70393
1.71968
1.7354
1.75104
1.76651
1.78179
1.79677
1.81142
1.82569
1.83949
1.85281
1.86556
1.87771
1.88921
1.9
1.91007
1.91933
1.9278
1.9354
1.94212
1.94795
1.95283
1.95679
1.95976
1.96177
1.9628
1.96282
1.96188
1.95994
1.95703
1.95316
1.94834
1.9426
1.93595
1.92842
1.92005
1.91085
1.90089
1.89017
1.87876
1.8667
1.85402
1.8408
1.82707
1.81289
1.79833
1.78342
1.76824
1.75285
1.73731
1.72167
1.706
1.69036
1.67481
1.65942
1.64424
1.62933
1.61476
1.60058
1.58685
1.57362
1.56095
1.54887
1.53745
1.52673
1.51674
1.50754
1.49914
1.4916
1.48494
1.47918
1.47434
1.47046
1.46753
1.46558
1.46461
1.46462
1.46562
1.4676
1.47056
1.47447
1.47934
1.48513
1.49182
1.49939
1.50781
1.51704
1.52705
1.5378
1.54925
1.56135
1.57405
1.58731
1.60106
1.61527
1.62986
1.64479
1.66
1.67541
1.69099
1.70665
1.72235
1.73801
1.75359
1.769
1.7842
1.79913
1.81371
1.82791
1.84167
1.8549
1.86761
1.87968
1.89112
1.90186
1.91185
1.92108
1.92947
1.93703
1.94371
1.94946
1.95431
1.9582
1.96113
1.96309
1.96405
1.96405
1.96304
1.96106
1.95811
1.95417
1.94931
1.9435
1.9368
1.92921
1.92077
1.91153
1.90148
1.89071
1.87923
1.8671
1.85438
1.84107
1.82729
1.81305
1.79841
1.78345
1.7682
1.75275
1.73713
1.72142
1.7057
1.68997
1.67438
1.65891
1.64367
1.62872
1.61407
1.59986
1.58606
1.57278
1.56007
1.54795
1.53651
1.52574
1.51573
1.5065
1.49807
1.49051
1.48381
1.47802
1.47316
1.46923
1.46627
1.46426
1.46323
1.46318
1.4641
1.466
1.46885
1.47268
1.47743
1.48311
1.48971
1.49717
1.50551
1.51466
1.52462
1.53533
1.54675
1.55886
1.57157
1.58486
1.59868
1.61293
1.62759
1.64257
1.65783
1.67329
1.68888
1.70457
1.72027
1.73593
1.7515
1.7669
1.78211
1.79704
1.81165
1.82588
1.83964
1.85294
1.86565
1.87777
1.88924
1.90001
1.91006
1.9193
1.92775
1.93534
1.94203
1.94782
1.95267
1.95657
1.9595
1.96148
1.96249
1.96249
1.96152
1.95955
1.95658
1.95265
1.94775
1.94195
1.93524
1.9277
1.91932
1.91012
1.90015
1.8894
1.87795
1.86589
1.85321
1.84
1.82629
1.81209
1.79748
1.78253
1.76733
1.75172
1.73715
1.71909
1.70844
1.68267
1.68671
1.63466
1.68583
1.5549
1.73643
1.40184
1.8942
1.1084
2.23537
0.599373
2.82235
-0.154661
3.63183
-1.05602
4.47895
-1.82817
5.00995
-2.07301
4.83019
-1.46683
3.73108
-0.00570222
1.93709
-0.0307653
-1.90961
1.80371
-3.41193
2.87621
-4.02446
3.05439
-3.77985
2.52537
-3.00707
1.67995
-2.10517
0.871531
-1.35072
0.285224
-0.841432
-0.0556091
-0.547783
-0.213151
-0.394643
-0.263716
-0.314881
-0.262749
-0.266776
-0.24102
-0.230425
-0.212285
-0.19776
-0.182175
-0.166993
-0.152074
-0.137517
-0.123331
-0.109592
-0.0963745
-0.0836833
-0.0716262
-0.0602157
-0.0495106
-0.0395451
-0.0303394
-0.0219529
-0.0144072
-0.00773326
-0.00197542
0.00287495
0.00677343
0.00972522
0.0117064
0.0126818
0.0126762
0.0116605
0.00966105
0.00669489
0.00275251
-0.00211326
-0.00791268
-0.0145958
-0.0221705
-0.0306169
-0.0398688
-0.0499332
-0.0607242
-0.0722364
-0.0843926
-0.0971379
-0.110427
-0.124191
-0.138407
-0.153008
-0.167939
-0.183163
-0.198585
-0.214184
-0.22988
-0.245608
-0.261327
-0.276932
-0.292398
-0.307638
-0.322592
-0.337227
-0.351445
-0.365232
-0.378508
-0.391212
-0.403314
-0.414743
-0.42549
-0.435475
-0.444667
-0.453047
-0.46055
-0.467173
-0.472877
-0.477634
-0.481452
-0.484282
-0.486155
-0.487034
-0.486933
-0.485858
-0.483794
-0.480781
-0.476794
-0.471877
-0.466032
-0.459282
-0.451676
-0.443202
-0.433932
-0.423875
-0.413072
-0.401593
-0.389437
-0.376696
-0.363392
-0.349574
-0.335328
-0.320667
-0.305691
-0.290426
-0.274939
-0.259319
-0.243579
-0.227828
-0.212101
-0.196469
-0.181002
-0.165722
-0.150747
-0.136091
-0.121825
-0.108027
-0.0947076
-0.0819612
-0.069815
-0.0583087
-0.0475232
-0.0374578
-0.0281899
-0.0197273
-0.0121177
-0.00539505
0.000431797
0.00531508
0.00926693
0.0122417
0.0142461
0.0152735
0.0153012
0.0143603
0.0124206
0.00951567
0.00565041
0.000825202
-0.00491439
-0.0115691
-0.0191017
-0.0274752
-0.0366774
-0.0466447
-0.0573607
-0.068778
-0.0808398
-0.0935143
-0.106728
-0.120458
-0.134626
-0.149192
-0.164099
-0.17927
-0.194662
-0.210206
-0.225845
-0.241516
-0.257157
-0.272705
-0.288099
-0.303278
-0.318182
-0.332752
-0.346931
-0.360664
-0.373895
-0.386571
-0.39865
-0.410073
-0.4208
-0.430783
-0.439989
-0.448381
-0.455922
-0.462587
-0.468346
-0.473178
-0.477064
-0.479987
-0.481937
-0.482907
-0.482893
-0.481894
-0.479914
-0.476961
-0.473047
-0.468186
-0.4624
-0.455707
-0.448138
-0.439719
-0.430485
-0.420474
-0.409722
-0.398275
-0.386176
-0.373473
-0.360216
-0.346459
-0.332254
-0.317658
-0.302729
-0.287526
-0.272108
-0.256535
-0.24087
-0.225173
-0.209507
-0.193935
-0.178515
-0.163317
-0.148389
-0.133802
-0.119605
-0.105851
-0.0926178
-0.0799139
-0.0678376
-0.0564024
-0.0456571
-0.0356727
-0.0264424
-0.018049
-0.0104972
-0.00381536
0.00194115
0.00679174
0.010678
0.0136057
0.0155682
0.0165296
0.0165267
0.0155179
0.0135358
0.0105828
0.00665018
0.00179128
-0.00401876
-0.0107201
-0.0183076
-0.0267525
-0.0359965
-0.0460453
-0.0568079
-0.0682912
-0.0804192
-0.0931428
-0.106445
-0.120223
-0.134469
-0.149105
-0.164061
-0.179317
-0.19476
-0.210381
-0.22609
-0.241816
-0.257536
-0.273133
-0.288599
-0.303844
-0.318794
-0.333434
-0.347649
-0.361436
-0.374722
-0.387433
-0.399555
-0.410999
-0.421764
-0.43178
-0.441008
-0.44944
-0.457002
-0.463702
-0.469493
-0.474353
-0.478287
-0.481247
-0.48326
-0.484287
-0.484341
-0.483423
-0.481519
-0.478671
-0.474846
-0.470092
-0.464408
-0.457808
-0.450339
-0.441995
-0.432835
-0.42288
-0.412164
-0.400748
-0.388639
-0.375929
-0.362643
-0.348836
-0.334593
-0.319928
-0.304951
-0.289698
-0.27423
-0.258642
-0.242948
-0.22725
-0.211582
-0.196013
-0.180603
-0.165395
-0.150467
-0.135858
-0.121634
-0.107873
-0.0945877
-0.0818718
-0.0697529
-0.0582765
-0.0475127
-0.0374609
-0.028213
-0.0197708
-0.0121878
-0.0054971
0.000296671
0.00513722
0.00905455
0.011993
0.0139729
0.014971
0.0149754
0.0139979
0.0120152
0.00905207
0.00512001
0.000222699
-0.00556999
-0.0122673
-0.0198198
-0.0282005
-0.0374138
-0.0473952
-0.0581346
-0.0695691
-0.0816431
-0.0943221
-0.107537
-0.121275
-0.135469
-0.150064
-0.165012
-0.180135
-0.195914
-0.210397
-0.228442
-0.239121
-0.264878
-0.260841
-0.312926
-0.261767
-0.39272
-0.211227
-0.545819
-0.053583
-0.839361
0.287351
-1.34855
0.873819
-2.10282
1.68243
-3.00448
2.52821
-3.77672
3.05786
-4.0205
2.88075
-3.40689
1.80882
-1.90494
-0.0213453
3.71028
1.79667
5.52071
0.312522
6.60965
-0.295441
6.78762
-0.050495
6.25607
0.721594
5.4087
1.62276
4.59911
2.37662
4.01224
2.88553
3.67114
3.17896
3.51351
3.33202
3.46293
3.41176
3.46386
3.45985
3.48559
3.49626
3.51433
3.5288
3.54452
3.55964
3.57456
3.58913
3.60331
3.61705
3.63027
3.64295
3.65502
3.66643
3.67715
3.68711
3.69632
3.70471
3.71226
3.71893
3.72469
3.72955
3.73344
3.73639
3.73836
3.73934
3.73933
3.73832
3.73633
3.73337
3.72943
3.72457
3.71876
3.71207
3.70449
3.69604
3.68679
3.67673
3.66594
3.65444
3.64228
3.62955
3.61625
3.6025
3.58828
3.57368
3.55875
3.54352
3.52809
3.51248
3.49678
3.48106
3.46533
3.44973
3.43427
3.41903
3.40408
3.38945
3.37524
3.36145
3.34818
3.33547
3.32337
3.31194
3.3012
3.29122
3.28203
3.27365
3.26615
3.25952
3.25381
3.24906
3.24523
3.2424
3.24052
3.23965
3.23975
3.24082
3.24289
3.2459
3.24989
3.2548
3.26065
3.2674
3.275
3.28348
3.29275
3.3028
3.3136
3.32508
3.33723
3.34998
3.36328
3.3771
3.39135
3.40601
3.42099
3.43625
3.45174
3.46736
3.4831
3.49885
3.51457
3.53021
3.54567
3.56095
3.57593
3.59059
3.60485
3.61865
3.63197
3.64472
3.65686
3.66837
3.67916
3.68922
3.69849
3.70695
3.71456
3.72128
3.72711
3.73199
3.73594
3.73892
3.74092
3.74195
3.74198
3.74103
3.73909
3.73618
3.73232
3.72749
3.72175
3.7151
3.70757
3.6992
3.69
3.68004
3.66932
3.65791
3.64585
3.63316
3.61995
3.60622
3.59205
3.57748
3.56257
3.5474
3.532
3.51646
3.50082
3.48515
3.46951
3.45396
3.43857
3.42339
3.40849
3.39392
3.37974
3.36601
3.35278
3.3401
3.32803
3.31661
3.30588
3.29589
3.28669
3.2783
3.27076
3.26409
3.25833
3.2535
3.24961
3.24669
3.24473
3.24376
3.24378
3.24478
3.24676
3.24971
3.25363
3.25849
3.26428
3.27097
3.27854
3.28696
3.29619
3.3062
3.31696
3.3284
3.3405
3.3532
3.36646
3.38021
3.39442
3.40901
3.42394
3.43915
3.45457
3.47014
3.4858
3.5015
3.51716
3.53273
3.54815
3.56335
3.57827
3.59286
3.60706
3.62081
3.63405
3.64675
3.65883
3.67027
3.68101
3.691
3.70023
3.70862
3.71617
3.72285
3.72861
3.73346
3.73735
3.74028
3.74224
3.7432
3.7432
3.74219
3.74021
3.73726
3.73332
3.72846
3.72265
3.71595
3.70837
3.69992
3.69068
3.68063
3.66987
3.65839
3.64626
3.63353
3.62023
3.60645
3.5922
3.57757
3.56261
3.54736
3.53191
3.51629
3.50058
3.48486
3.46914
3.45354
3.43808
3.42283
3.40788
3.39324
3.37902
3.36523
3.35196
3.33924
3.32712
3.31568
3.30491
3.2949
3.28567
3.27724
3.26968
3.26298
3.25718
3.25232
3.24839
3.24543
3.24341
3.24239
3.24233
3.24325
3.24515
3.248
3.25183
3.25658
3.26227
3.26888
3.27634
3.28469
3.29385
3.30381
3.31452
3.32594
3.33805
3.35076
3.36404
3.37784
3.39209
3.40674
3.42172
3.43696
3.45243
3.46801
3.48371
3.4994
3.51507
3.53065
3.54605
3.56127
3.5762
3.59081
3.60504
3.6188
3.63209
3.6448
3.65692
3.66839
3.67915
3.6892
3.69845
3.70689
3.71447
3.72117
3.72696
3.73181
3.73572
3.73866
3.74063
3.74163
3.74163
3.74065
3.73866
3.7357
3.73177
3.72689
3.7211
3.7144
3.70685
3.69846
3.68924
3.67925
3.66851
3.65708
3.64501
3.63232
3.61909
3.60535
3.59115
3.57656
3.56163
3.54648
3.53074
3.51621
3.49817
3.48749
3.46175
3.46577
3.4137
3.46485
3.33393
3.51542
3.18092
3.67316
2.88758
4.01434
2.37875
4.60135
1.62509
5.41112
0.724117
6.25879
-0.0475338
6.79082
-0.291881
6.6135
0.316679
5.52437
1.80105
3.71267
-1.48886
-3.42388
0.305998
-4.89981
1.38812
-5.50719
1.56849
-5.26144
1.04092
-4.48839
0.196738
-3.58638
-0.610851
-2.83195
-1.19659
-2.32264
-1.53712
-2.02903
-1.69451
-1.87586
-1.74496
-1.79606
-1.74398
-1.74797
-1.72222
-1.71154
-1.69351
-1.67902
-1.66321
-1.64817
-1.63322
-1.61864
-1.60446
-1.59073
-1.57751
-1.56484
-1.55277
-1.54135
-1.53063
-1.52066
-1.51144
-1.50306
-1.49551
-1.48883
-1.48307
-1.47822
-1.47432
-1.47138
-1.46941
-1.46844
-1.46844
-1.46945
-1.47144
-1.47439
-1.47833
-1.48319
-1.489
-1.4957
-1.50328
-1.51173
-1.52098
-1.53104
-1.54182
-1.55333
-1.56548
-1.57821
-1.5915
-1.60527
-1.61948
-1.63408
-1.64902
-1.66424
-1.67968
-1.69528
-1.71099
-1.7267
-1.74242
-1.75802
-1.77348
-1.78871
-1.80367
-1.8183
-1.83252
-1.8463
-1.85957
-1.87228
-1.88438
-1.89581
-1.90654
-1.91654
-1.92573
-1.9341
-1.9416
-1.94823
-1.95393
-1.9587
-1.96253
-1.96536
-1.96724
-1.96812
-1.96802
-1.96695
-1.96489
-1.96187
-1.95788
-1.95297
-1.94712
-1.94037
-1.93275
-1.92429
-1.91501
-1.90495
-1.89415
-1.88267
-1.87052
-1.85778
-1.84447
-1.83067
-1.81641
-1.80174
-1.78677
-1.7715
-1.75601
-1.7404
-1.72466
-1.70891
-1.69318
-1.67755
-1.66208
-1.64681
-1.63183
-1.61718
-1.60291
-1.58912
-1.5758
-1.56305
-1.55091
-1.5394
-1.52862
-1.51855
-1.50929
-1.50082
-1.49321
-1.48649
-1.48066
-1.47578
-1.47183
-1.46886
-1.46685
-1.46583
-1.4658
-1.46674
-1.46868
-1.47158
-1.47545
-1.48027
-1.48601
-1.49267
-1.5002
-1.50858
-1.51777
-1.52774
-1.53846
-1.54987
-1.56194
-1.57461
-1.58783
-1.60156
-1.61573
-1.6303
-1.6452
-1.66037
-1.67576
-1.6913
-1.70694
-1.72261
-1.73826
-1.7538
-1.7692
-1.78438
-1.79928
-1.81385
-1.82803
-1.84176
-1.85499
-1.86767
-1.87975
-1.89117
-1.90189
-1.91188
-1.92109
-1.92948
-1.93702
-1.94368
-1.94944
-1.95427
-1.95816
-1.96108
-1.96303
-1.96401
-1.96399
-1.96299
-1.96101
-1.95806
-1.95415
-1.94928
-1.9435
-1.9368
-1.92924
-1.92082
-1.91158
-1.90157
-1.89082
-1.87937
-1.86728
-1.85457
-1.84132
-1.82756
-1.81335
-1.79876
-1.78383
-1.76862
-1.75321
-1.73763
-1.72197
-1.70628
-1.69061
-1.67504
-1.65962
-1.64442
-1.6295
-1.61491
-1.60071
-1.58696
-1.57372
-1.56103
-1.54894
-1.53751
-1.52676
-1.51677
-1.50755
-1.49915
-1.4916
-1.48492
-1.47916
-1.47431
-1.47042
-1.4675
-1.46554
-1.46457
-1.46458
-1.46558
-1.46756
-1.47052
-1.47445
-1.47931
-1.48512
-1.49182
-1.49941
-1.50785
-1.51709
-1.52714
-1.5379
-1.54939
-1.56151
-1.57424
-1.58754
-1.60131
-1.61556
-1.63019
-1.64515
-1.6604
-1.67585
-1.69147
-1.70717
-1.7229
-1.73862
-1.75422
-1.76968
-1.78493
-1.79989
-1.81452
-1.82874
-1.84252
-1.85579
-1.86851
-1.88063
-1.89208
-1.90284
-1.91286
-1.92209
-1.93052
-1.93809
-1.94479
-1.95058
-1.95545
-1.95938
-1.96235
-1.96436
-1.96539
-1.96544
-1.96452
-1.96262
-1.95977
-1.95595
-1.95119
-1.94549
-1.93888
-1.93141
-1.92306
-1.9139
-1.90394
-1.89323
-1.88181
-1.8697
-1.85699
-1.84371
-1.82991
-1.81568
-1.80103
-1.78606
-1.77081
-1.75535
-1.73976
-1.72407
-1.70837
-1.69269
-1.67712
-1.6617
-1.64649
-1.63156
-1.61695
-1.60273
-1.58896
-1.57569
-1.56297
-1.55086
-1.53939
-1.52862
-1.51857
-1.50933
-1.50089
-1.4933
-1.48661
-1.48081
-1.47597
-1.47205
-1.46911
-1.46713
-1.46614
-1.46614
-1.46712
-1.46911
-1.47208
-1.476
-1.48088
-1.48667
-1.49336
-1.50092
-1.50932
-1.51854
-1.52853
-1.53927
-1.5507
-1.56277
-1.57547
-1.58871
-1.60246
-1.61665
-1.63124
-1.64619
-1.66126
-1.67712
-1.6916
-1.70966
-1.72033
-1.74609
-1.74208
-1.79416
-1.74306
-1.87397
-1.6926
-2.02709
-1.53514
-2.32064
-1.19453
-2.82986
-0.608668
-3.58417
0.199045
-4.48603
1.04345
-5.25878
1.5713
-5.50421
1.39114
-4.89682
0.308525
-3.422
-1.48797
4.80304
2.85666
6.59502
1.37986
7.67486
0.771372
7.85053
1.01521
7.31841
1.78639
6.47101
2.68686
5.66157
3.44015
5.07488
3.94876
4.73392
4.242
4.57635
4.39499
4.52583
4.47472
4.52678
4.5228
4.54852
4.55922
4.57724
4.59174
4.60758
4.62257
4.63757
4.65213
4.66631
4.68004
4.69326
4.70593
4.718
4.72943
4.74015
4.75013
4.75934
4.76773
4.77528
4.78196
4.78773
4.79258
4.79647
4.79941
4.80138
4.80235
4.80235
4.80135
4.79937
4.79641
4.79247
4.78761
4.78179
4.77509
4.76751
4.75907
4.74982
4.73976
4.72898
4.71747
4.70533
4.69259
4.67931
4.66555
4.65133
4.63673
4.62179
4.60657
4.59112
4.57551
4.55981
4.54409
4.52838
4.51278
4.49732
4.48209
4.46714
4.45251
4.43829
4.42451
4.41124
4.39854
4.38644
4.37501
4.36427
4.35428
4.34509
4.33672
4.32922
4.3226
4.31688
4.31212
4.30829
4.30545
4.30357
4.30268
4.30278
4.30385
4.30592
4.30893
4.31292
4.31784
4.32369
4.33044
4.33806
4.34652
4.3558
4.36585
4.37665
4.38814
4.40028
4.41303
4.42633
4.44014
4.45439
4.46906
4.48404
4.4993
4.51479
4.53041
4.54615
4.5619
4.57762
4.59326
4.60872
4.624
4.63897
4.65363
4.66789
4.68169
4.69501
4.70776
4.71991
4.73141
4.74219
4.75226
4.76152
4.76999
4.7776
4.78432
4.79015
4.79503
4.79898
4.80195
4.80396
4.80498
4.80501
4.80406
4.80213
4.79922
4.79535
4.79052
4.78478
4.77813
4.7706
4.76223
4.75303
4.74306
4.73235
4.72094
4.70888
4.6962
4.68298
4.66925
4.65508
4.64051
4.6256
4.61043
4.59504
4.57949
4.56385
4.54818
4.53254
4.51699
4.5016
4.48642
4.47152
4.45695
4.44277
4.42904
4.41581
4.40313
4.39106
4.37964
4.36891
4.35893
4.34972
4.34133
4.33379
4.32712
4.32136
4.31653
4.31264
4.30972
4.30777
4.30679
4.30681
4.30781
4.30979
4.31274
4.31666
4.32152
4.32731
4.334
4.34157
4.34999
4.35922
4.36923
4.37998
4.39143
4.40353
4.41623
4.42949
4.44324
4.45745
4.47204
4.48697
4.50218
4.5176
4.53317
4.54883
4.56453
4.58019
4.59576
4.61118
4.62638
4.6413
4.65589
4.67008
4.68383
4.69707
4.70977
4.72185
4.73329
4.74403
4.75403
4.76325
4.77165
4.7792
4.78588
4.79164
4.79649
4.80038
4.80331
4.80527
4.80623
4.80623
4.80522
4.80324
4.80029
4.79636
4.7915
4.78569
4.77899
4.7714
4.76295
4.75371
4.74366
4.7329
4.72142
4.70929
4.69657
4.68327
4.66949
4.65524
4.64061
4.62565
4.6104
4.59495
4.57933
4.56363
4.5479
4.53218
4.51658
4.50112
4.48587
4.47091
4.45628
4.44206
4.42828
4.41501
4.4023
4.39018
4.37873
4.36797
4.35795
4.34872
4.34029
4.33272
4.32602
4.32022
4.31536
4.31142
4.30846
4.30644
4.30541
4.30536
4.30628
4.30818
4.31104
4.31486
4.31962
4.32532
4.33193
4.3394
4.34775
4.35691
4.36687
4.37759
4.38901
4.40111
4.41382
4.4271
4.4409
4.45513
4.46977
4.48474
4.49998
4.51544
4.53103
4.54671
4.56242
4.57809
4.59367
4.60909
4.6243
4.63925
4.65385
4.66807
4.68184
4.69511
4.70782
4.71994
4.73141
4.74218
4.75222
4.76146
4.7699
4.77749
4.78418
4.78998
4.79483
4.79874
4.80169
4.80366
4.80465
4.80464
4.80366
4.80167
4.79871
4.79478
4.78991
4.78413
4.77743
4.76986
4.76147
4.75224
4.74225
4.73151
4.72007
4.708
4.69529
4.68205
4.6683
4.6541
4.63952
4.62454
4.6095
4.59363
4.57915
4.56109
4.55041
4.52467
4.52867
4.47661
4.52771
4.39686
4.57824
4.2439
4.73586
3.95071
5.07688
3.44217
5.66365
2.689
6.47321
1.78867
7.32073
1.01764
7.85303
0.77393
7.67734
1.38225
6.59689
2.8582
4.80334
-2.10886
-4.05353
-0.319944
-5.5254
0.761364
-6.1308
0.941739
-5.88469
0.414586
-5.11174
-0.429005
-4.20998
-1.23601
-3.45581
-1.82133
-2.94668
-2.16159
-2.65317
-2.31884
-2.50006
-2.36922
-2.42026
-2.36819
-2.37217
-2.34642
-2.33575
-2.31769
-2.30322
-2.28734
-2.27236
-2.25737
-2.2428
-2.22862
-2.21489
-2.20167
-2.18899
-2.17692
-2.1655
-2.15476
-2.14479
-2.13557
-2.12718
-2.11963
-2.11295
-2.10719
-2.10233
-2.09844
-2.0955
-2.09354
-2.09257
-2.09256
-2.09356
-2.09554
-2.0985
-2.10244
-2.10731
-2.11312
-2.11982
-2.12741
-2.13585
-2.14509
-2.15515
-2.16593
-2.17744
-2.18958
-2.20232
-2.2156
-2.22937
-2.24358
-2.25818
-2.27312
-2.28834
-2.30379
-2.3194
-2.3351
-2.35082
-2.36653
-2.38212
-2.39758
-2.41281
-2.42776
-2.44239
-2.45661
-2.47039
-2.48366
-2.49636
-2.50846
-2.51989
-2.53063
-2.54062
-2.54981
-2.55818
-2.56568
-2.5723
-2.57802
-2.58278
-2.58662
-2.58946
-2.59134
-2.59223
-2.59213
-2.59106
-2.589
-2.58597
-2.58199
-2.57707
-2.57122
-2.56447
-2.55685
-2.54839
-2.53911
-2.52905
-2.51825
-2.50677
-2.49462
-2.48188
-2.46858
-2.45477
-2.44051
-2.42584
-2.41086
-2.39559
-2.38011
-2.36449
-2.34875
-2.33301
-2.31728
-2.30164
-2.28618
-2.27091
-2.25594
-2.24128
-2.22702
-2.21322
-2.1999
-2.18716
-2.17501
-2.16351
-2.15273
-2.14266
-2.1334
-2.12494
-2.11733
-2.1106
-2.10477
-2.09989
-2.09594
-2.09297
-2.09096
-2.08994
-2.08991
-2.09086
-2.09279
-2.0957
-2.09957
-2.10439
-2.11013
-2.11679
-2.12432
-2.13269
-2.14189
-2.15186
-2.16258
-2.17399
-2.18605
-2.19872
-2.21194
-2.22567
-2.23985
-2.25441
-2.26931
-2.28449
-2.29988
-2.31542
-2.33106
-2.34673
-2.36237
-2.37792
-2.39331
-2.40849
-2.4234
-2.43797
-2.45215
-2.46587
-2.47911
-2.49178
-2.50386
-2.51528
-2.52601
-2.536
-2.5452
-2.55359
-2.56113
-2.5678
-2.57355
-2.57839
-2.58227
-2.5852
-2.58715
-2.58812
-2.58811
-2.58711
-2.58513
-2.58218
-2.57826
-2.5734
-2.56761
-2.56092
-2.55335
-2.54493
-2.5357
-2.52569
-2.51494
-2.50349
-2.49139
-2.47869
-2.46543
-2.45168
-2.43747
-2.42287
-2.40795
-2.39274
-2.37732
-2.36175
-2.34609
-2.33039
-2.31473
-2.29916
-2.28374
-2.26854
-2.25362
-2.23903
-2.22484
-2.21109
-2.19785
-2.18516
-2.17307
-2.16163
-2.15089
-2.14089
-2.13167
-2.12327
-2.11572
-2.10904
-2.10328
-2.09843
-2.09454
-2.09161
-2.08966
-2.08869
-2.08869
-2.0897
-2.09168
-2.09464
-2.09857
-2.10343
-2.10924
-2.11593
-2.12352
-2.13196
-2.14121
-2.15125
-2.16202
-2.1735
-2.18562
-2.19835
-2.21165
-2.22542
-2.23967
-2.2543
-2.26926
-2.28451
-2.29995
-2.31557
-2.33128
-2.34701
-2.36272
-2.37832
-2.39379
-2.40903
-2.424
-2.43862
-2.45284
-2.46662
-2.47989
-2.4926
-2.50472
-2.51617
-2.52693
-2.53695
-2.54619
-2.55462
-2.56219
-2.56889
-2.57469
-2.57956
-2.58349
-2.58646
-2.58847
-2.5895
-2.58956
-2.58864
-2.58674
-2.58388
-2.58006
-2.57529
-2.56959
-2.56299
-2.5555
-2.54716
-2.53799
-2.52803
-2.51731
-2.50589
-2.49379
-2.48108
-2.46781
-2.45402
-2.43978
-2.42514
-2.41018
-2.39494
-2.37949
-2.36389
-2.34821
-2.3325
-2.31682
-2.30125
-2.28583
-2.27061
-2.25567
-2.24106
-2.22685
-2.21308
-2.19981
-2.1871
-2.17498
-2.16352
-2.15275
-2.14271
-2.13347
-2.12502
-2.11744
-2.11075
-2.10494
-2.1001
-2.09617
-2.09323
-2.09126
-2.09027
-2.09028
-2.09126
-2.09325
-2.09622
-2.10013
-2.10501
-2.11079
-2.11749
-2.12505
-2.13346
-2.14269
-2.15268
-2.16342
-2.17486
-2.18694
-2.19965
-2.2129
-2.22665
-2.24085
-2.25543
-2.27042
-2.28544
-2.30134
-2.31581
-2.33388
-2.34456
-2.37032
-2.36633
-2.41841
-2.36736
-2.49821
-2.31699
-2.65131
-2.15969
-2.94478
-1.81938
-3.45386
-1.234
-4.20798
-0.426936
-5.10968
0.416717
-5.88256
0.943887
-6.12867
0.763363
-5.52357
-0.318562
-4.05253
-2.10862
4.96361
3.01402
6.75162
1.53867
7.82884
0.930027
8.00393
1.1732
7.47201
1.94359
6.62508
2.84334
5.81613
3.59611
5.22979
4.1044
4.88907
4.39747
4.7316
4.55039
4.68115
4.6301
4.68214
4.67816
4.7039
4.71457
4.73263
4.7471
4.76299
4.77796
4.79297
4.80754
4.82172
4.83544
4.84867
4.86134
4.87342
4.88484
4.89558
4.90556
4.91478
4.92317
4.93073
4.93741
4.94317
4.94803
4.95192
4.95485
4.95681
4.95779
4.95779
4.9568
4.95482
4.95186
4.94792
4.94306
4.93724
4.93054
4.92296
4.91451
4.90527
4.89521
4.88443
4.87292
4.86078
4.84804
4.83477
4.821
4.80679
4.79219
4.77725
4.76202
4.74657
4.73096
4.71526
4.69954
4.68383
4.66824
4.65279
4.63756
4.62261
4.60798
4.59376
4.57998
4.56672
4.55402
4.54191
4.53048
4.51975
4.50976
4.50058
4.4922
4.4847
4.47808
4.47236
4.4676
4.46375
4.46091
4.45903
4.45814
4.45824
4.45931
4.46137
4.46439
4.46838
4.4733
4.47915
4.4859
4.49352
4.50199
4.51126
4.52132
4.53212
4.5436
4.55575
4.56849
4.58179
4.59559
4.60986
4.62453
4.63952
4.65478
4.67026
4.68588
4.70162
4.71736
4.73309
4.74873
4.76419
4.77946
4.79443
4.80909
4.82335
4.83715
4.85047
4.86321
4.87536
4.88686
4.89765
4.90771
4.91698
4.92544
4.93305
4.93977
4.9456
4.95049
4.95443
4.9574
4.95941
4.96043
4.96046
4.95951
4.95757
4.95466
4.9508
4.94597
4.94023
4.93358
4.92604
4.91767
4.90847
4.8985
4.88779
4.87638
4.86432
4.85165
4.83842
4.82469
4.81052
4.79595
4.78105
4.76588
4.75049
4.73494
4.7193
4.70363
4.68799
4.67244
4.65705
4.64187
4.62697
4.6124
4.59822
4.58449
4.57126
4.55858
4.54651
4.53509
4.52436
4.51437
4.50517
4.49678
4.48924
4.48257
4.47681
4.47198
4.46809
4.46516
4.46321
4.46224
4.46225
4.46325
4.46523
4.46819
4.4721
4.47696
4.48275
4.48944
4.49701
4.50543
4.51467
4.52468
4.53543
4.54687
4.55897
4.57167
4.58493
4.59869
4.6129
4.62749
4.64242
4.65762
4.67304
4.68861
4.70428
4.71997
4.73563
4.7512
4.76662
4.78182
4.79674
4.81133
4.82552
4.83927
4.85251
4.8652
4.87729
4.88873
4.89947
4.90947
4.9187
4.9271
4.93465
4.94132
4.94709
4.95193
4.95582
4.95875
4.96071
4.96168
4.96167
4.96067
4.95869
4.95573
4.95181
4.94694
4.94113
4.93444
4.92685
4.91841
4.90916
4.89912
4.88835
4.87687
4.86475
4.85202
4.83872
4.82494
4.8107
4.79606
4.78111
4.76585
4.75041
4.73479
4.71909
4.70336
4.68764
4.67204
4.65658
4.64133
4.62637
4.61174
4.59752
4.58375
4.57048
4.55776
4.54565
4.5342
4.52343
4.51341
4.50418
4.49575
4.48818
4.48148
4.47568
4.47081
4.46687
4.4639
4.46189
4.46086
4.4608
4.46172
4.46363
4.46649
4.47031
4.47508
4.48078
4.48738
4.49487
4.50322
4.51239
4.52235
4.53306
4.54448
4.55658
4.56929
4.58257
4.59635
4.61058
4.62522
4.64018
4.65542
4.67086
4.68646
4.70214
4.71785
4.73352
4.7491
4.76453
4.77975
4.79469
4.80929
4.82351
4.83728
4.85055
4.86326
4.87537
4.88684
4.89761
4.90764
4.91689
4.92533
4.93292
4.93961
4.94541
4.95026
4.95418
4.95712
4.95909
4.96008
4.96007
4.95908
4.9571
4.95413
4.95022
4.94533
4.93955
4.93286
4.92529
4.91689
4.90765
4.89766
4.88692
4.87548
4.86339
4.85068
4.83743
4.82366
4.80947
4.79489
4.77988
4.76489
4.74897
4.73451
4.71643
4.70575
4.67999
4.68398
4.63193
4.68298
4.5522
4.73343
4.39929
4.89091
4.10625
5.23167
3.59798
5.81802
2.84524
6.62701
1.94551
7.47391
1.17511
8.00579
0.93184
7.83051
1.54015
6.7527
3.01475
4.96375
-1.88728
-3.8335
-0.0998611
-5.30468
0.980034
-5.90992
1.15966
-5.66405
0.632276
-4.89153
-0.211206
-3.99028
-1.01794
-3.23654
-1.603
-2.72771
-1.94308
-2.43438
-2.10024
-2.28133
-2.15056
-2.20157
-2.14951
-2.15349
-2.12773
-2.11706
-2.09899
-2.08453
-2.06863
-2.05365
-2.03865
-2.02408
-2.0099
-1.99617
-1.98295
-1.97027
-1.9582
-1.94677
-1.93603
-1.92605
-1.91682
-1.90843
-1.90087
-1.89418
-1.88842
-1.88357
-1.87968
-1.87675
-1.87479
-1.87381
-1.8738
-1.8748
-1.87678
-1.87974
-1.88368
-1.88855
-1.89436
-1.90106
-1.90864
-1.91709
-1.92633
-1.93639
-1.94717
-1.95867
-1.97081
-1.98355
-1.99683
-2.01059
-2.0248
-2.03941
-2.05435
-2.06958
-2.08503
-2.10064
-2.11634
-2.13206
-2.14776
-2.16335
-2.1788
-2.19403
-2.20898
-2.22361
-2.23783
-2.2516
-2.26487
-2.27757
-2.28967
-2.30111
-2.31184
-2.32182
-2.33101
-2.33938
-2.34688
-2.35351
-2.35923
-2.364
-2.36784
-2.37068
-2.37257
-2.37346
-2.37336
-2.37229
-2.37023
-2.3672
-2.36322
-2.35829
-2.35244
-2.3457
-2.33807
-2.32961
-2.32033
-2.31027
-2.29947
-2.28798
-2.27584
-2.2631
-2.2498
-2.23599
-2.22173
-2.20705
-2.19207
-2.17681
-2.16132
-2.1457
-2.12997
-2.11422
-2.0985
-2.08286
-2.06741
-2.05213
-2.03716
-2.02251
-2.00824
-1.99445
-1.98113
-1.96839
-1.95624
-1.94474
-1.93396
-1.92389
-1.91463
-1.90617
-1.89856
-1.89184
-1.886
-1.88112
-1.87718
-1.8742
-1.8722
-1.87118
-1.87114
-1.87209
-1.87403
-1.87694
-1.88081
-1.88563
-1.89137
-1.89803
-1.90556
-1.91393
-1.92314
-1.9331
-1.94382
-1.95523
-1.96729
-1.97996
-1.99318
-2.00691
-2.02108
-2.03565
-2.05055
-2.06572
-2.08111
-2.09666
-2.1123
-2.12797
-2.14361
-2.15916
-2.17455
-2.18973
-2.20464
-2.21921
-2.23339
-2.24712
-2.26034
-2.27302
-2.2851
-2.29652
-2.30725
-2.31723
-2.32644
-2.33482
-2.34237
-2.34903
-2.35479
-2.35963
-2.36351
-2.36644
-2.36839
-2.36936
-2.36935
-2.36835
-2.36637
-2.36342
-2.3595
-2.35464
-2.34886
-2.34216
-2.33459
-2.32618
-2.31694
-2.30693
-2.29618
-2.28474
-2.27264
-2.25993
-2.24667
-2.23292
-2.21871
-2.20411
-2.18919
-2.17398
-2.15856
-2.14299
-2.12733
-2.11164
-2.09597
-2.0804
-2.06499
-2.04979
-2.03487
-2.02028
-2.00608
-1.99233
-1.97909
-1.9664
-1.95431
-1.94288
-1.93213
-1.92213
-1.91291
-1.90451
-1.89696
-1.89028
-1.88452
-1.87967
-1.87578
-1.87285
-1.8709
-1.86992
-1.86993
-1.87093
-1.87292
-1.87587
-1.8798
-1.88466
-1.89047
-1.89717
-1.90476
-1.9132
-1.92244
-1.93249
-1.94325
-1.95473
-1.96685
-1.97958
-1.99288
-2.00665
-2.0209
-2.03553
-2.05048
-2.06574
-2.08118
-2.0968
-2.1125
-2.12823
-2.14394
-2.15955
-2.17501
-2.19026
-2.20523
-2.21984
-2.23406
-2.24783
-2.26111
-2.27382
-2.28594
-2.29739
-2.30815
-2.31817
-2.32741
-2.33584
-2.34341
-2.35011
-2.35591
-2.36079
-2.36472
-2.3677
-2.36971
-2.37074
-2.3708
-2.36988
-2.36798
-2.36511
-2.36129
-2.35652
-2.35082
-2.34421
-2.33672
-2.32837
-2.3192
-2.30924
-2.29852
-2.2871
-2.27501
-2.2623
-2.24903
-2.23524
-2.22101
-2.20638
-2.19143
-2.17619
-2.16075
-2.14515
-2.12947
-2.11376
-2.09809
-2.0825
-2.06708
-2.05186
-2.03692
-2.02231
-2.0081
-1.99433
-1.98106
-1.96835
-1.95624
-1.94477
-1.93401
-1.92397
-1.91473
-1.90628
-1.89869
-1.892
-1.8862
-1.88135
-1.87743
-1.87449
-1.87251
-1.87153
-1.87154
-1.87253
-1.87451
-1.87748
-1.88139
-1.88627
-1.89205
-1.89875
-1.90631
-1.91472
-1.92396
-1.93395
-1.9447
-1.95614
-1.96823
-1.98095
-1.9942
-2.00797
-2.02217
-2.03675
-2.05176
-2.06675
-2.08268
-2.09714
-2.11523
-2.12591
-2.15168
-2.14771
-2.19977
-2.14877
-2.27956
-2.09846
-2.4326
-1.94129
-2.72592
-1.60119
-3.23474
-1.01613
-3.98848
-0.209413
-4.88977
0.634022
-5.66235
1.16131
-5.9084
0.981417
-5.30352
-0.0990085
-3.83293
-1.88714
4.40515
2.45672
6.19165
0.982594
7.2681
0.374199
7.44329
0.617087
6.91196
1.38698
6.06573
2.28625
5.25737
3.03866
4.67145
3.54671
4.33095
3.83965
4.17361
3.99251
4.12321
4.0722
4.12423
4.12025
4.14601
4.15667
4.17475
4.1892
4.20511
4.22008
4.23509
4.24966
4.26384
4.27757
4.2908
4.30348
4.31555
4.32698
4.33772
4.34771
4.35693
4.36534
4.37289
4.37958
4.38534
4.39019
4.39407
4.39701
4.39898
4.39996
4.39996
4.39897
4.39699
4.39403
4.39009
4.38522
4.37941
4.37271
4.36513
4.35668
4.34744
4.33738
4.3266
4.3151
4.30296
4.29022
4.27695
4.26318
4.24897
4.23436
4.21942
4.20419
4.18874
4.17313
4.15743
4.14171
4.12601
4.11042
4.09498
4.07975
4.0648
4.05018
4.03595
4.02218
4.00892
3.99621
3.98411
3.97268
3.96195
3.95197
3.94278
3.93441
3.92691
3.92028
3.91455
3.90979
3.90594
3.9031
3.90121
3.90032
3.90041
3.90149
3.90355
3.90657
3.91056
3.91548
3.92133
3.92808
3.93571
3.94417
3.95345
3.96351
3.9743
3.98579
3.99793
4.01068
4.02398
4.03779
4.05205
4.06673
4.08171
4.09697
4.11246
4.12807
4.14381
4.15955
4.17528
4.19091
4.20637
4.22165
4.23662
4.25127
4.26554
4.27933
4.29265
4.30539
4.31754
4.32904
4.33982
4.34989
4.35915
4.36761
4.37522
4.38194
4.38778
4.39266
4.3966
4.39958
4.40158
4.4026
4.40263
4.40168
4.39974
4.39683
4.39296
4.38814
4.3824
4.37574
4.36821
4.35984
4.35063
4.34067
4.32995
4.31854
4.30648
4.29381
4.28059
4.26686
4.25269
4.23812
4.22322
4.20805
4.19266
4.17711
4.16147
4.1458
4.13016
4.11461
4.09922
4.08404
4.06913
4.05456
4.04038
4.02665
4.01343
4.00075
3.98868
3.97725
3.96652
3.95654
3.94734
3.93895
3.9314
3.92474
3.91898
3.91414
3.91026
3.90733
3.90538
3.90441
3.90442
3.90542
3.9074
3.91035
3.91426
3.91913
3.92491
3.93161
3.93918
3.94759
3.95683
3.96684
3.97759
3.98903
4.00113
4.01384