/*--------------------------------*- C++ -*----------------------------------*\
| =========                 |                                                 |
| \\      /  F ield         | OpenFOAM: The Open Source CFD Toolbox           |
|  \\    /   O peration     | Version:  2106                                  |
|   \\  /    A nd           | Website:  www.openfoam.com                      |
|    \\/     M anipulation  |                                                 |
\*---------------------------------------------------------------------------*/
FoamFile
{
    version     2.0;
    format      ascii;
    arch        "LSB;label=32;scalar=64";
    class       surfaceScalarField;
    location    "0.007";
    object      phi;
}
// * * * * * * * * * * * * * * * * * * * * * * * * * * * * * * * * * * * * * //

dimensions      [0 3 -1 0 0 0 0];

oriented        oriented;

internalField   nonuniform List<scalar> 
319200
(
-3.60835e-07
4.22552e-07
0.000462355
-0.000467719
-7.69666e-06
0.000467664
0.000115873
-0.000123556
-2.44093e-06
0.000118845
3.2564e-05
-3.44066e-05
-2.8335e-06
3.58144e-05
8.76576e-06
-1.12306e-05
-2.77561e-06
1.18171e-05
1.50798e-06
-3.97812e-06
-2.43539e-06
3.98131e-06
-6.96662e-07
-1.41827e-06
-1.90688e-06
1.25042e-06
-1.18409e-06
-6.7505e-07
-1.4594e-06
3.87682e-07
-1.00229e-06
-4.85161e-07
-1.01136e-06
1.34752e-07
-8.10552e-07
-8.13319e-08
-7.93269e-07
-1.49087e-07
-9.16073e-07
2.73087e-07
-9.95172e-07
2.13385e-07
-1.01768e-06
-9.08068e-09
-1.05394e-06
1.50481e-07
-1.12821e-06
2.06203e-07
-8.70587e-07
-1.54924e-07
-6.74181e-07
-2.71242e-07
-4.98723e-07
-7.18245e-08
-3.46841e-07
8.74309e-08
-3.37351e-08
-5.30345e-07
2.45066e-08
1.71616e-08
-7.49713e-08
4.44495e-07
-3.67317e-08
-1.52304e-07
-5.97879e-08
-1.71243e-08
-1.21368e-07
2.03911e-07
-1.45195e-07
7.02407e-08
-1.02893e-07
7.34988e-08
1.29608e-07
-2.49914e-07
3.88228e-07
-4.20192e-07
3.98619e-07
5.99461e-08
4.0141e-07
1.46636e-07
6.23117e-07
-2.39953e-07
8.29951e-07
-3.39472e-07
8.34324e-07
-1.6049e-07
6.17272e-07
2.83241e-07
4.16178e-07
4.63469e-07
5.09165e-07
-9.69287e-08
7.07999e-07
-4.50758e-07
8.32332e-07
-1.93128e-07
9.67952e-07
-6.53115e-08
1.05384e-06
-1.3841e-07
1.04801e-06
1.09421e-07
1.1396e-06
1.35436e-07
1.42244e-06
-4.36547e-07
1.57256e-06
-5.32381e-07
1.35348e-06
1.7207e-07
1.0375e-06
6.33136e-07
7.93192e-07
4.49888e-07
6.09657e-07
2.52086e-07
5.42235e-07
1.02518e-07
6.58263e-07
-2.24e-07
9.34495e-07
-4.55871e-07
1.08799e-06
-1.94889e-07
1.16557e-06
7.25749e-08
1.07288e-06
2.11126e-07
8.65607e-07
3.97966e-07
6.59552e-07
4.9428e-07
5.65049e-07
2.26445e-07
6.752e-07
-3.09649e-07
7.5556e-07
-2.83335e-07
7.05753e-07
5.61908e-10
7.1878e-07
-9.40629e-08
8.50949e-07
-4.06525e-07
9.93716e-07
-3.9321e-07
9.75647e-07
4.53384e-08
9.25152e-07
2.38e-07
1.05536e-06
2.11317e-09
1.20016e-06
-1.22242e-07
1.29481e-06
-1.65041e-08
1.23616e-06
1.91364e-07
1.12739e-06
1.696e-07
1.00625e-06
7.35507e-08
8.10031e-07
2.50557e-07
6.91615e-07
2.86478e-07
7.05422e-07
9.8074e-08
8.86797e-07
-2.73307e-07
1.11517e-06
-3.99086e-07
1.19459e-06
-1.28492e-07
1.31712e-06
-3.71344e-09
1.46221e-06
-5.69918e-08
1.65154e-06
-2.55459e-07
1.72365e-06
-2.50569e-07
1.57501e-06
1.00411e-07
1.36257e-06
2.8754e-07
1.13691e-06
2.58411e-07
1.01816e-06
6.95448e-08
9.80441e-07
-4.80755e-10
8.83308e-07
1.79204e-07
8.51592e-07
1.49642e-07
8.7189e-07
1.0061e-08
1.02515e-06
-2.26331e-07
1.12471e-06
-2.11253e-07
1.0516e-06
5.32575e-08
9.32687e-07
2.25638e-07
7.89779e-07
2.81443e-07
8.41095e-07
-1.78377e-08
9.44458e-07
-1.62389e-07
1.01504e-06
-1.34027e-07
9.85828e-07
5.18997e-08
7.9943e-07
2.39851e-07
6.81027e-07
1.52652e-07
6.16565e-07
1.39548e-08
6.06301e-07
-1.09141e-07
6.25301e-07
-9.23158e-08
6.26306e-07
7.08726e-08
7.04583e-07
8.85254e-08
8.64355e-07
-3.07567e-08
1.10588e-06
-2.71012e-07
1.465e-06
-4.70652e-07
1.66531e-06
-3.21147e-07
1.79399e-06
-1.48e-07
1.7407e-06
9.74566e-08
1.6842e-06
1.36994e-07
1.7755e-06
-5.12078e-08
1.9021e-06
-1.83774e-07
2.18628e-06
-4.06644e-07
2.42347e-06
-3.41601e-07
2.61588e-06
-1.84643e-07
2.78547e-06
-6.50726e-08
2.8484e-06
7.42526e-08
3.02369e-06
-9.07669e-08
3.20004e-06
-1.78556e-07
3.38123e-06
-2.8115e-07
3.53034e-06
-2.731e-07
3.48314e-06
-2.30203e-08
3.35627e-06
1.79479e-07
3.06124e-06
4.19587e-07
2.65877e-06
5.15418e-07
2.30199e-06
3.95974e-07
1.89234e-06
3.93582e-07
1.64644e-06
1.80886e-07
1.37483e-06
1.69397e-07
1.18587e-06
1.08203e-07
1.04234e-06
1.36786e-07
8.77004e-07
2.5611e-07
7.62224e-07
2.57414e-07
5.32041e-07
3.53766e-07
3.44032e-07
2.59047e-07
1.04426e-07
2.49423e-07
-1.0994e-07
1.54863e-07
-2.97572e-07
6.73963e-08
-4.53793e-07
2.30567e-08
-5.09358e-07
-3.10666e-08
-5.25769e-07
2.6859e-08
-5.13484e-07
7.73854e-08
-4.66362e-07
8.20141e-08
-4.49826e-07
1.38032e-07
-3.81519e-07
8.51824e-08
-3.31332e-07
6.1736e-08
-2.70426e-07
-2.75848e-08
-1.9605e-07
-1.17828e-07
-1.23182e-07
-1.74017e-07
-6.48665e-08
-1.95653e-07
-5.75419e-08
-1.67406e-07
-1.15987e-07
-1.13699e-07
-2.03592e-07
-5.70975e-08
-3.11e-07
2.83215e-08
-3.8363e-07
5.91618e-08
-4.68719e-07
1.00264e-07
-5.51048e-07
1.01782e-07
-6.32275e-07
1.10658e-07
-7.23494e-07
1.57997e-07
-8.19538e-07
1.94088e-07
-9.39282e-07
2.2209e-07
-1.06662e-06
2.0625e-07
-1.17662e-06
1.66414e-07
-1.24445e-06
1.18775e-07
-1.26284e-06
6.83667e-08
-1.23459e-06
6.35848e-09
-1.15858e-06
-6.89878e-08
-1.02475e-06
-1.44011e-07
-8.32505e-07
-2.02405e-07
-5.95269e-07
-2.36858e-07
-3.398e-07
-2.53921e-07
-9.91742e-08
-2.48225e-07
1.05784e-07
-2.24679e-07
2.43312e-07
-1.61083e-07
2.76894e-07
-5.29112e-08
1.96824e-07
6.3653e-08
1.41777e-10
1.79335e-07
-2.61158e-07
2.48815e-07
-5.61678e-07
2.93558e-07
-8.61278e-07
3.00051e-07
-1.12206e-06
2.65157e-07
-1.31921e-06
2.03633e-07
-1.42183e-06
1.11641e-07
-1.40918e-06
2.56565e-10
-1.26902e-06
-1.27341e-07
-1.00683e-06
-2.52951e-07
-6.48751e-07
-3.54945e-07
-2.41953e-07
-4.10444e-07
1.59195e-07
-4.12131e-07
5.02176e-07
-3.58114e-07
7.49288e-07
-2.66544e-07
8.81524e-07
-1.52292e-07
8.94882e-07
-3.00631e-08
7.94666e-07
8.77682e-08
5.8656e-07
1.95829e-07
2.88297e-07
2.85703e-07
-6.90299e-08
3.48772e-07
-4.50687e-07
3.85611e-07
-7.89113e-07
3.48788e-07
-1.04447e-06
2.64893e-07
-1.18168e-06
1.41415e-07
-1.20432e-06
2.21004e-08
-1.12979e-06
-7.52616e-08
-9.90354e-07
-1.42196e-07
-8.12812e-07
-1.90771e-07
-6.20268e-07
-2.14646e-07
-4.28733e-07
-2.12096e-07
-2.72245e-07
-1.62795e-07
-1.83884e-07
-8.77395e-08
-1.86339e-07
-6.22459e-09
-2.7072e-07
6.2244e-08
-4.02628e-07
1.13651e-07
-5.41687e-07
1.42391e-07
-6.62655e-07
1.35962e-07
-7.50387e-07
9.47272e-08
-8.02389e-07
4.42766e-08
-8.07148e-07
2.12014e-09
-7.76115e-07
6.29887e-10
-7.08799e-07
-7.81151e-09
-6.37862e-07
-1.70968e-08
-5.9363e-07
-2.14538e-08
-5.58994e-07
-2.41642e-08
-6.11305e-07
7.73807e-08
-6.69474e-07
1.07938e-07
-7.77867e-07
1.49514e-07
-8.70514e-07
1.08365e-07
-8.84678e-07
1.39611e-08
-8.92272e-07
-5.44168e-09
-8.05252e-07
-1.04521e-07
-7.20608e-07
-1.2766e-07
-6.07021e-07
-1.66117e-07
-4.62026e-07
-1.85994e-07
-3.55348e-07
-1.17502e-07
-2.78e-07
-7.27198e-08
-2.97887e-07
3.38528e-08
-4.28071e-07
1.65925e-07
-6.27685e-07
2.65454e-07
-9.51537e-07
3.92799e-07
-1.24752e-06
3.3355e-07
-1.56121e-06
3.03533e-07
-1.78671e-06
1.9835e-07
-1.86962e-06
5.71768e-08
-1.89849e-06
8.32584e-09
-1.76621e-06
-1.54446e-07
-1.65531e-06
-1.10134e-07
-1.56952e-06
-5.09293e-08
-1.58329e-06
6.00649e-08
-1.73712e-06
1.70968e-07
-1.89265e-06
1.48316e-07
-2.13797e-06
2.28474e-07
-2.29501e-06
1.47775e-07
-2.49702e-06
1.77509e-07
-2.66828e-06
1.40175e-07
-2.74623e-06
8.43724e-08
-2.77623e-06
8.62756e-08
-2.63437e-06
-7.46804e-08
-2.43513e-06
-1.77916e-07
-2.19432e-06
-2.72899e-07
-1.91386e-06
-3.44081e-07
-1.73456e-06
-2.39643e-07
-1.53551e-06
-2.40911e-07
-1.42588e-06
-1.04257e-07
-1.34317e-06
-3.67827e-08
-1.22008e-06
-7.82705e-08
-1.11508e-06
-1.01279e-07
-9.26492e-07
-2.17494e-07
-7.85853e-07
-1.69741e-07
-6.85374e-07
-1.08768e-07
-5.5609e-07
-1.20755e-07
-3.83995e-07
-1.39556e-07
-6.64828e-08
-2.65912e-07
3.517e-07
-3.95743e-07
7.64382e-07
-4.60263e-07
1.1404e-06
-4.34662e-07
1.33925e-06
-2.08547e-07
1.47848e-06
-8.08009e-08
1.48281e-06
4.31795e-08
1.42313e-06
7.15748e-08
1.38426e-06
2.65609e-08
1.25276e-06
1.27477e-07
1.17758e-06
6.57895e-08
1.07203e-06
1.07441e-07
9.95402e-07
7.11706e-08
1.00711e-06
-3.32535e-08
9.78128e-07
-9.66306e-09
1.01089e-06
-4.21834e-08
9.63176e-07
7.68932e-08
9.38266e-07
5.10496e-08
9.36871e-07
3.01258e-09
9.03594e-07
-4.53065e-10
8.74527e-07
-2.14741e-08
6.84183e-07
1.36077e-07
5.03458e-07
1.9031e-07
2.90421e-07
2.38327e-07
1.65674e-07
1.29542e-07
1.03264e-07
4.09735e-08
9.99257e-08
4.19665e-08
1.64954e-07
1.34377e-08
3.50947e-07
-1.71845e-07
6.53207e-07
-3.73181e-07
1.025e-06
-4.13431e-07
1.24671e-06
-1.75521e-07
1.40906e-06
-7.13201e-08
1.41695e-06
8.82238e-09
1.33395e-06
1.74592e-08
1.15202e-06
1.06965e-07
8.02638e-07
3.50365e-07
5.07563e-07
3.7233e-07
2.64472e-07
2.80696e-07
1.15246e-07
1.60984e-07
-1.53196e-08
1.83848e-07
-7.99543e-08
1.49404e-07
-7.87877e-08
2.78753e-08
-4.51414e-08
-5.07908e-08
-6.49989e-08
6.0246e-08
-1.04929e-07
1.84422e-07
-4.2535e-08
9.58462e-08
8.25237e-08
-1.19621e-07
2.26198e-07
-2.20799e-07
2.89362e-07
-8.85058e-08
3.23981e-07
-3.68683e-08
3.19115e-07
-1.06687e-07
2.67663e-07
-9.89015e-08
1.13572e-07
9.86046e-08
-6.72565e-08
1.86512e-07
-2.22536e-07
1.31214e-07
-3.47463e-07
1.74313e-07
-4.09554e-07
1.62621e-07
-4.61886e-07
1.02208e-07
-6.0825e-07
1.10005e-07
-8.9354e-07
2.56871e-07
-1.2601e-06
2.91473e-07
-1.5042e-06
1.51316e-07
-1.76422e-06
3.48645e-07
-1.9396e-06
4.32464e-07
-1.98792e-06
1.21188e-07
-1.79303e-06
-3.12537e-07
-1.53725e-06
-2.5623e-07
-1.33714e-06
-8.34639e-08
-1.06091e-06
-2.52876e-07
-8.36375e-07
-1.86082e-07
-7.47175e-07
5.15778e-08
-7.02074e-07
-2.25753e-08
-7.56109e-07
-6.16691e-08
-9.32414e-07
1.97534e-07
-1.22233e-06
4.22946e-07
-1.41214e-06
2.2105e-07
-1.40968e-06
4.69999e-08
-1.34859e-06
-5.09456e-08
-1.30574e-06
-3.47175e-08
-1.34015e-06
1.37081e-07
-1.25085e-06
-5.34171e-08
-1.00359e-06
-2.94675e-07
-8.72244e-07
-8.09367e-08
-8.27741e-07
-1.15159e-07
-8.50643e-07
-1.44944e-08
-9.03996e-07
1.76724e-07
-8.15018e-07
-1.81766e-07
-7.71296e-07
-1.15169e-07
-7.55208e-07
1.207e-07
-6.41473e-07
-2.04939e-07
-4.4e-07
-3.38855e-07
-4.3224e-07
1.46418e-07
-3.80688e-07
-1.44753e-07
-4.3019e-07
-1.16475e-08
-5.54152e-07
1.54398e-07
-6.90672e-07
1.5056e-07
-7.9362e-07
1.54443e-07
-8.33118e-07
-3.29609e-08
-8.95686e-07
2.02471e-07
-6.45316e-07
-1.42226e-07
-5.59393e-07
-1.21232e-07
-1.83869e-07
-1.91504e-07
-4.91875e-07
3.62724e-07
1.77757e-07
-5.94962e-07
-1.29499e-06
1.68489e-06
1.09208e-07
-1.3963e-06
-4.19643e-06
4.38454e-06
-3.83808e-07
-3.58483e-06
-1.23587e-05
1.19999e-05
-1.43006e-06
-1.0721e-05
-3.74073e-05
3.60308e-05
-3.36558e-06
-3.39031e-05
-0.00012257
0.000118979
1.44257e-07
-0.000123019
-0.000467402
0.000467061
-6.68637e-06
-0.000463422
-9.41582e-07
-0.000460996
0.000458841
-0.000465599
-0.00046314
-0.000142423
0.000144482
-0.000115482
-0.000150475
-5.42388e-05
5.75962e-05
-3.39251e-05
-5.47353e-05
-2.1403e-05
2.32883e-05
-1.1016e-05
-2.16222e-05
-8.75985e-06
9.54578e-06
-3.92574e-06
-8.79544e-06
-3.68988e-06
3.73844e-06
-1.5848e-06
-3.53283e-06
-1.6798e-06
1.34407e-06
-8.5153e-07
-1.49522e-06
-9.05192e-07
4.45003e-07
-6.81769e-07
-7.17994e-07
-6.7457e-07
1.25442e-07
-5.73755e-07
-1.77634e-07
-6.11398e-07
-9.62909e-08
-4.7142e-07
1.34087e-07
-4.30763e-07
1.63689e-07
-4.37516e-07
-1.10504e-08
-3.48635e-07
7.01775e-08
-3.37129e-07
2.13259e-07
-3.65033e-07
-1.0961e-07
-4.41439e-07
-1.85084e-07
-4.53022e-07
-5.54517e-08
-5.43059e-07
1.78772e-07
-6.94054e-07
-3.82092e-07
-6.72028e-07
-1.13215e-08
-5.21443e-07
2.86625e-07
-5.87472e-07
-9.20157e-08
-5.45624e-07
-6.28132e-08
-3.42468e-07
-1.76438e-09
-2.06666e-07
-6.6756e-08
-1.18377e-07
-1.44702e-08
-1.27459e-07
-2.39798e-07
-8.21454e-08
-4.653e-07
7.73891e-09
-3.13794e-08
1.9454e-08
1.32604e-07
-9.06732e-08
-1.31449e-07
-1.85097e-07
-2.45175e-07
-2.58577e-07
-8.62833e-08
-1.93299e-07
2.18187e-07
-1.20676e-07
3.89704e-07
-2.23956e-07
4.11176e-09
-3.82006e-07
-2.94982e-07
-3.77243e-07
-1.9921e-07
-3.22287e-07
-1.20422e-07
-3.66448e-07
-9.38638e-08
-3.86525e-07
1.29585e-07
-3.94691e-07
1.42909e-07
-5.02189e-07
-3.30497e-07
-5.55594e-07
-4.80811e-07
-4.82909e-07
9.76102e-08
-2.89234e-07
4.3808e-07
-1.41665e-07
3.01438e-07
-3.74575e-08
1.47411e-07
-2.16866e-08
8.65437e-08
-8.56403e-08
-1.60136e-07
-1.24182e-07
-4.17511e-07
-7.65928e-08
-2.42996e-07
-6.10406e-08
5.59943e-08
-7.57051e-08
2.24247e-07
-3.4081e-08
3.5444e-07
5.4981e-08
4.03214e-07
6.46442e-08
2.14971e-07
-7.32696e-08
-1.73084e-07
-1.70669e-07
-1.86694e-07
-1.64614e-07
-5.74987e-09
-1.44515e-07
-1.14183e-07
-1.81419e-07
-3.69711e-07
-1.95743e-07
-3.79284e-07
-1.31123e-07
-2.01371e-08
-5.08865e-08
1.56404e-07
-9.84403e-09
-4.07215e-08
7.03062e-08
-2.04437e-07
1.45944e-07
-9.41937e-08
1.94766e-07
1.40706e-07
1.65695e-07
1.97195e-07
1.43376e-07
9.48001e-08
2.20279e-07
1.72976e-07
3.20422e-07
1.85981e-07
3.08171e-07
1.10184e-07
1.75141e-07
-1.40352e-07
2.96571e-08
-2.53776e-07
-1.26517e-08
-8.6605e-08
-2.44027e-08
7.28358e-09
-2.87109e-08
-5.37826e-08
-3.46066e-08
-2.50983e-07
-3.44173e-08
-2.52443e-07
3.63322e-08
2.77922e-08
7.67852e-08
2.4513e-07
1.14866e-07
2.18402e-07
1.36917e-07
4.57023e-08
2.15873e-07
-8.09908e-08
3.2224e-07
7.15793e-08
3.97326e-07
7.36025e-08
3.42421e-07
6.42923e-08
2.22586e-07
-1.06917e-07
1.20525e-07
-1.09397e-07
9.65951e-08
7.71597e-08
1.30975e-07
1.91351e-07
1.67841e-07
2.44716e-07
1.69678e-07
-1.95535e-08
1.73002e-07
-1.65668e-07
2.13733e-07
-1.74812e-07
2.9542e-07
-2.99584e-08
3.3703e-07
1.97948e-07
3.29103e-07
1.60177e-07
2.62198e-07
8.03625e-08
2.06075e-07
-5.36242e-08
1.94752e-07
-8.17063e-08
2.18264e-07
4.6543e-08
2.45927e-07
5.99445e-08
2.30313e-07
-1.61445e-08
1.69466e-07
-2.11212e-07
9.22148e-08
-3.94457e-07
7.64619e-08
-3.06441e-07
1.1497e-07
-1.87542e-07
1.98831e-07
1.25692e-08
2.56584e-07
7.82244e-08
2.51624e-07
-4.72734e-08
2.02256e-07
-1.35447e-07
1.20405e-07
-3.25851e-07
5.12667e-08
-2.73548e-07
1.71533e-08
-1.51631e-07
-3.43295e-08
-1.46997e-08
-5.22185e-08
9.10281e-08
-1.48912e-07
4.81846e-09
-2.41048e-07
-8.75125e-08
-3.36592e-07
-1.86683e-07
-3.93147e-07
-2.17607e-07
-3.70239e-07
-4.69702e-08
-2.88816e-07
9.70312e-08
-1.6043e-07
2.90194e-07
-3.08744e-08
3.84869e-07
1.59141e-08
3.48199e-07
6.59289e-08
3.42588e-07
4.72284e-08
1.98611e-07
4.51035e-08
1.7055e-07
2.92995e-08
1.23042e-07
1.56085e-08
1.4952e-07
2.37849e-08
2.46992e-07
2.3122e-08
2.57141e-07
5.27224e-08
3.23235e-07
6.38718e-08
2.46978e-07
9.38625e-08
2.18514e-07
1.13493e-07
1.3432e-07
1.32123e-07
4.78504e-08
1.32917e-07
2.13375e-08
1.2488e-07
-2.39696e-08
1.13302e-07
3.74826e-08
1.07299e-07
8.24262e-08
8.84923e-08
9.98474e-08
8.41677e-08
1.41377e-07
7.71662e-08
9.11999e-08
7.99093e-08
5.80143e-08
8.37466e-08
-3.23985e-08
7.30984e-08
-1.08155e-07
5.63655e-08
-1.58247e-07
2.62506e-08
-1.66487e-07
-5.74223e-09
-1.36354e-07
-3.57659e-08
-8.46073e-08
-6.0938e-08
-3.28437e-08
-7.01995e-08
3.66713e-08
-7.47238e-08
6.2777e-08
-6.44048e-08
8.90447e-08
-4.49153e-08
8.13955e-08
-1.64549e-08
8.12973e-08
3.89665e-08
1.01668e-07
1.05627e-07
1.26506e-07
1.72249e-07
1.54539e-07
2.16737e-07
1.60824e-07
2.30396e-07
1.51808e-07
2.197e-07
1.28517e-07
1.98273e-07
8.88351e-08
1.76682e-07
2.69847e-08
1.5753e-07
-5.08001e-08
1.40279e-07
-1.27722e-07
1.26497e-07
-1.89582e-07
1.16388e-07
-2.27699e-07
1.04237e-07
-2.42712e-07
7.99795e-08
-2.24894e-07
4.00607e-08
-1.85672e-07
-8.18799e-09
-1.13733e-07
-3.61396e-08
-2.58463e-08
-3.32091e-08
5.98478e-08
1.13494e-08
1.33912e-07
8.90577e-08
1.70254e-07
1.81398e-07
2.00375e-07
2.7053e-07
2.1009e-07
3.4437e-07
1.90494e-07
3.92713e-07
1.54476e-07
4.09519e-07
9.40252e-08
3.93873e-07
1.50945e-08
3.52371e-07
-8.66446e-08
3.02493e-07
-2.03873e-07
2.59884e-07
-3.1313e-07
2.31482e-07
-3.82831e-07
2.07258e-07
-3.88688e-07
1.79864e-07
-3.31498e-07
1.44749e-07
-2.32204e-07
1.09618e-07
-1.17937e-07
8.7194e-08
-8.4162e-09
8.56174e-08
8.8566e-08
1.09214e-07
1.71451e-07
1.58723e-07
2.35414e-07
2.34435e-07
2.7228e-07
3.34621e-07
2.84643e-07
4.3445e-07
2.48169e-07
5.05037e-07
1.93504e-07
5.30816e-07
1.14815e-07
5.15488e-07
3.65876e-08
4.818e-07
-4.2435e-08
4.46084e-07
-1.07363e-07
4.15399e-07
-1.60988e-07
3.87143e-07
-1.87311e-07
3.68499e-07
-1.9439e-07
3.62765e-07
-1.58016e-07
3.67932e-07
-9.38779e-08
3.71844e-07
-1.11161e-08
3.65943e-07
6.71582e-08
3.5561e-07
1.22995e-07
3.5772e-07
1.39298e-07
3.77536e-07
1.15172e-07
4.08918e-07
6.23828e-08
4.35533e-07
1.67123e-08
4.60787e-07
-2.40713e-08
4.81641e-07
-2.11496e-08
4.96134e-07
-2.32246e-08
4.92041e-07
-1.39196e-08
4.55241e-07
1.44274e-08
4.39065e-07
-8.91984e-09
4.1297e-07
1.02528e-07
4.41449e-07
7.84939e-08
4.56293e-07
1.33683e-07
4.58176e-07
1.05475e-07
4.65127e-07
5.99297e-09
4.40464e-07
1.81916e-08
4.495e-07
-1.14595e-07
4.2655e-07
-1.0575e-07
4.01264e-07
-1.41872e-07
3.83974e-07
-1.69737e-07
3.46829e-07
-8.13804e-08
3.31374e-07
-5.82723e-08
3.01314e-07
6.29157e-08
2.86793e-07
1.79464e-07
3.25004e-07
2.26274e-07
3.71839e-07
3.45008e-07
4.48628e-07
2.55817e-07
4.94943e-07
2.56282e-07
5.22976e-07
1.69382e-07
5.4258e-07
3.66394e-08
5.15623e-07
3.43409e-08
4.77984e-07
-1.17756e-07
4.173e-07
-5.04104e-08
3.8746e-07
-2.2058e-08
3.70264e-07
7.62839e-08
3.45737e-07
1.9451e-07
3.30991e-07
1.62066e-07
3.38955e-07
2.19505e-07
3.8928e-07
9.64321e-08
4.65553e-07
1.00203e-07
5.31959e-07
7.27206e-08
5.85827e-07
2.94397e-08
6.0758e-07
6.34394e-08
5.95831e-07
-6.40339e-08
5.25693e-07
-1.08894e-07
4.31199e-07
-1.79527e-07
3.42676e-07
-2.56678e-07
2.84963e-07
-1.83044e-07
2.40174e-07
-1.97231e-07
2.08461e-07
-7.36518e-08
1.9018e-07
-1.96104e-08
1.65199e-07
-5.44045e-08
1.48745e-07
-8.5953e-08
1.32485e-07
-2.02385e-07
1.55321e-07
-1.93766e-07
1.81647e-07
-1.36334e-07
1.88006e-07
-1.28408e-07
1.45248e-07
-9.81341e-08
9.45943e-08
-2.16628e-07
3.83155e-09
-3.06377e-07
-9.40105e-08
-3.63832e-07
-1.94995e-07
-3.35097e-07
-2.41347e-07
-1.63602e-07
-2.4204e-07
-8.14818e-08
-2.28645e-07
2.84604e-08
-2.11392e-07
5.30754e-08
-1.86023e-07
4.398e-11
-1.2425e-07
6.46792e-08
-9.67292e-08
3.74089e-08
-9.29765e-08
1.03028e-07
-1.18655e-07
9.64104e-08
-1.57157e-07
5.04298e-09
-1.73309e-07
6.52101e-09
-1.67873e-07
-4.73575e-08
-1.42495e-07
5.197e-08
-1.42299e-07
5.14495e-08
-1.716e-07
3.29732e-08
-2.07229e-07
3.58109e-08
-2.22914e-07
-5.27643e-09
-2.36452e-07
1.49922e-07
-2.05054e-07
1.5893e-07
-1.55946e-07
1.88882e-07
-8.95044e-08
6.23728e-08
-4.47508e-08
-4.90437e-09
8.49319e-09
-1.27615e-08
1.20451e-08
8.10751e-09
-6.30868e-08
-9.86896e-08
-2.07451e-07
-2.30878e-07
-2.919e-07
-3.31007e-07
-3.00598e-07
-1.68695e-07
-3.06294e-07
-6.72483e-08
-3.63827e-07
6.50451e-08
-4.48341e-07
1.01023e-07
-4.7481e-07
1.32842e-07
-4.52207e-07
3.27487e-07
-3.65264e-07
2.85339e-07
-2.98278e-07
2.13767e-07
-2.39794e-07
1.02512e-07
-1.77064e-07
1.20909e-07
-1.5319e-07
1.24941e-07
-1.50838e-07
2.44435e-08
-1.36528e-07
-6.66828e-08
-6.41498e-08
-1.41075e-08
-9.40914e-09
1.27526e-07
-1.43827e-08
9.87638e-08
-9.96261e-08
-3.60478e-08
-1.95851e-07
-1.2565e-07
-2.6096e-07
-2.38247e-08
-2.96449e-07
-1.3026e-09
-3.77237e-07
-2.56337e-08
-4.13538e-07
-6.25232e-08
-3.82481e-07
6.7108e-08
-3.50654e-07
1.53566e-07
-3.54701e-07
1.33522e-07
-3.93065e-07
2.10585e-07
-3.78866e-07
1.46351e-07
-3.79684e-07
1.01317e-07
-3.20265e-07
4.9445e-08
-2.32477e-07
1.68539e-07
-1.97649e-07
2.56559e-07
-1.5937e-07
1.13153e-07
-4.40621e-09
1.93664e-07
9.51137e-08
3.32469e-07
4.98544e-09
2.10214e-07
-1.632e-07
-1.46038e-07
-2.13698e-07
-2.07656e-07
-2.32447e-07
-6.63418e-08
-3.18597e-07
-1.67586e-07
-3.44939e-07
-1.59774e-07
-3.3003e-07
3.69855e-08
-3.85448e-07
3.27667e-08
-4.85238e-07
3.71448e-08
-4.36273e-07
1.46821e-07
-3.8478e-07
3.6966e-07
-4.45896e-07
2.81122e-07
-5.22277e-07
1.23327e-07
-5.3993e-07
-3.29249e-08
-4.73272e-07
-1.01585e-07
-4.21277e-07
8.37011e-08
-4.03156e-07
-7.37366e-08
-3.34255e-07
-3.6554e-07
-2.27038e-07
-1.88977e-07
-2.00268e-07
-1.41382e-07
-1.24238e-07
-8.91654e-08
-5.98237e-08
1.13462e-07
-1.23534e-07
-1.17791e-07
-9.5558e-08
-1.43182e-07
-1.29858e-07
1.5611e-07
-2.514e-07
-8.01066e-08
-2.87753e-07
-2.98549e-07
-2.47587e-07
1.08617e-07
-3.27219e-07
-6.50701e-08
-2.80936e-07
-5.67893e-08
-1.87166e-07
6.50709e-08
-1.1126e-07
8.03004e-08
-3.12791e-08
7.71167e-08
3.42259e-08
-1.00626e-07
1.06221e-07
1.30055e-07
2.0534e-07
-2.40808e-07
1.10846e-07
-2.13944e-08
4.04963e-07
-4.86772e-07
2.5448e-07
5.14254e-07
1.05702e-06
-1.40023e-06
9.89679e-07
1.75703e-06
2.97262e-06
-3.38085e-06
3.19981e-06
4.15271e-06
7.98401e-06
-8.37236e-06
1.01381e-05
9.84676e-06
2.0461e-05
-2.1037e-05
3.27919e-05
2.36916e-05
5.28756e-05
-5.3981e-05
0.000113581
5.82714e-05
0.000140053
-0.000149496
0.000462202
0.000144906
0.000460476
-0.000461695
0.000462143
0.000464283
-6.31374e-06
0.000143376
-0.000142233
0.000144046
0.000143785
8.40583e-05
-9.04737e-05
5.35798e-05
8.80689e-05
4.15633e-05
-4.27136e-05
2.18389e-05
4.30272e-05
1.89954e-05
-1.87759e-05
9.17329e-06
1.93635e-05
8.24061e-06
-7.85402e-06
3.7767e-06
8.20063e-06
3.33711e-06
-3.09565e-06
1.43443e-06
3.24623e-06
1.12587e-06
-1.17747e-06
3.76322e-07
1.19349e-06
1.14865e-07
-4.62994e-07
-1.60486e-07
3.96367e-07
-2.23727e-07
-1.11749e-07
-3.96767e-07
8.27843e-08
-3.09937e-07
4.93554e-08
-2.31206e-07
8.25814e-08
-2.79241e-07
3.31851e-08
-2.27802e-07
1.72516e-08
-1.21057e-07
1.07028e-07
-1.55025e-07
-7.34721e-08
-3.32017e-07
-4.26371e-09
-3.07845e-07
-7.50813e-08
-2.30819e-07
1.04705e-07
-4.27088e-07
-1.85363e-07
-4.94932e-07
5.58291e-08
-2.41021e-07
3.22546e-08
-2.68933e-07
-6.46236e-08
-3.09562e-07
-2.35805e-08
-2.45095e-07
-6.7906e-08
-2.26341e-07
-8.58094e-08
-1.59724e-07
-7.94957e-08
-2.47635e-07
-1.49896e-07
-4.79502e-07
-2.32955e-07
-4.43226e-07
-6.89486e-08
-3.15548e-07
3.41024e-09
-3.31305e-07
-1.15785e-07
-4.78404e-07
-9.66063e-08
-5.76649e-07
1.36459e-08
-4.15985e-07
5.80051e-08
-1.20287e-07
9.30642e-08
-7.62671e-08
-4.13071e-08
-2.84755e-07
-8.71848e-08
-3.95289e-07
-8.82216e-08
-3.92999e-07
-1.21578e-07
-4.45794e-07
-4.01004e-08
-3.17737e-07
1.77685e-09
-1.70449e-07
-4.77352e-09
-3.51521e-07
-1.50003e-07
-6.77962e-07
-1.5475e-07
-6.84539e-07
1.04095e-07
-3.71234e-07
1.24849e-07
-1.60385e-07
9.06941e-08
-4.91521e-08
3.62916e-08
-9.77611e-10
3.85845e-08
-1.17873e-07
-4.28146e-08
-3.60107e-07
-1.74688e-07
-5.34741e-07
-6.78486e-08
-5.1518e-07
3.65752e-08
-4.43526e-07
1.52184e-07
-2.68085e-07
1.78106e-07
-4.41497e-09
1.38438e-07
1.47232e-07
6.23643e-08
7.48041e-09
-3.3823e-08
-1.42318e-07
-3.67671e-08
-1.26018e-07
-2.13881e-08
-1.04846e-07
-1.3443e-07
-2.82894e-07
-1.9082e-07
-4.81766e-07
-1.79933e-07
-4.79645e-07
-2.22944e-08
-3.34161e-07
1.03808e-08
-2.9611e-07
-7.96874e-08
-3.98988e-07
-1.02638e-07
-4.36592e-07
-5.76071e-08
-3.61976e-07
6.53196e-08
-2.81555e-07
1.1636e-07
-2.50081e-07
6.32875e-08
-1.67334e-07
9.05186e-08
-2.23405e-08
4.15116e-08
6.15005e-08
2.69863e-08
-5.44134e-08
-2.37974e-08
-2.38326e-07
-6.93386e-08
-3.10805e-07
-1.3812e-08
-2.32926e-07
-7.05539e-08
-1.89548e-07
-9.74076e-08
-2.97736e-07
-1.43304e-07
-4.41928e-07
-1.08967e-07
-4.55227e-07
4.02288e-08
-3.0883e-07
9.78054e-08
-1.84382e-07
9.30514e-08
-1.82276e-07
4.28058e-08
-2.18113e-07
-4.57589e-08
-1.91455e-07
4.45765e-08
-1.10381e-07
-7.53867e-09
-9.56632e-08
4.9785e-08
-2.04504e-07
2.39376e-09
-3.33075e-07
1.98557e-08
-3.53893e-07
9.88258e-08
-2.22633e-07
6.10526e-08
-6.7133e-08
9.0241e-08
-4.11899e-08
-4.44755e-08
-1.43763e-07
-6.2116e-08
-2.66641e-07
-5.10452e-08
-2.7794e-07
-1.78811e-08
-1.82774e-07
1.03434e-07
-7.16003e-08
4.95312e-08
-4.09582e-08
5.01298e-08
-9.37772e-08
-5.04009e-10
-1.46856e-07
-2.84385e-08
-1.13577e-07
1.3361e-08
-1.76411e-08
-3.59868e-08
4.45672e-08
-7.84216e-08
-9.74853e-09
-1.57017e-07
-1.739e-07
-2.30463e-07
-3.10416e-07
-1.70098e-07
-3.42904e-07
-1.55234e-07
-2.65523e-07
-6.49908e-08
-1.32912e-07
-5.45621e-08
-7.47914e-08
-1.05562e-07
-1.00873e-07
-1.09523e-07
-2.45379e-07
-1.81502e-07
-3.79088e-07
-1.39989e-07
-4.36117e-07
-9.47554e-08
-3.99187e-07
-5.17896e-08
-3.08426e-07
1.05465e-10
-2.6183e-07
-4.19348e-08
-2.92033e-07
-5.74655e-08
-4.07893e-07
-7.09748e-08
-5.50785e-07
-7.4858e-08
-6.28358e-07
3.0469e-08
-6.09801e-07
7.8352e-08
-4.90847e-07
1.71129e-07
-3.27107e-07
2.21034e-07
-1.9247e-07
2.13477e-07
-8.99622e-08
2.40005e-07
-7.94611e-08
1.88038e-07
-1.06876e-07
1.97898e-07
-1.7102e-07
1.87128e-07
-2.04297e-07
1.8275e-07
-1.92065e-07
2.34718e-07
-1.27048e-07
1.92086e-07
-3.62669e-08
2.32429e-07
4.35314e-08
1.67156e-07
1.02979e-07
1.59057e-07
1.23869e-07
1.1342e-07
9.70312e-08
7.46778e-08
4.95745e-08
6.87739e-08
-1.9508e-08
4.50785e-08
-5.20035e-08
6.99373e-08
-4.97201e-08
8.00908e-08
-2.65491e-08
7.66113e-08
3.89245e-08
7.58378e-08
9.20088e-08
3.80481e-08
1.39158e-07
1.07934e-08
1.38554e-07
-3.18636e-08
9.80219e-08
-6.76846e-08
2.71784e-08
-8.74546e-08
-4.93342e-08
-9.00183e-08
-1.0687e-07
-7.88516e-08
-1.5267e-07
-3.88253e-08
-1.67368e-07
-1.81577e-08
-1.73078e-07
4.23745e-08
-1.53056e-07
4.27597e-08
-1.39136e-07
7.51335e-08
-1.22554e-07
6.48195e-08
-1.1142e-07
7.01707e-08
-8.63201e-08
7.65623e-08
-4.66154e-08
8.67875e-08
5.77789e-09
1.02125e-07
6.67303e-08
9.98386e-08
1.21021e-07
9.74765e-08
1.68899e-07
8.05908e-08
2.02991e-07
5.4689e-08
2.16597e-07
1.33246e-08
2.04294e-07
-3.85534e-08
1.68458e-07
-9.19378e-08
1.14178e-07
-1.35346e-07
4.61659e-08
-1.59725e-07
-3.11787e-08
-1.65394e-07
-1.0837e-07
-1.47715e-07
-1.79217e-07
-1.14824e-07
-2.22928e-07
-7.00098e-08
-2.31865e-07
-1.68848e-08
-2.05607e-07
3.36244e-08
-1.519e-07
8.02523e-08
-8.24484e-08
1.0086e-07
-2.19661e-09
1.20196e-07
9.2716e-08
1.15258e-07
1.7825e-07
1.05052e-07
2.48703e-07
8.41214e-08
2.95018e-07
4.78145e-08
3.12101e-07
-1.88032e-09
2.93668e-07
-6.80967e-08
2.31633e-07
-1.41717e-07
1.27069e-07
-2.08441e-07
-5.68428e-09
-2.49947e-07
-1.38881e-07
-2.55355e-07
-2.46929e-07
-2.2331e-07
-3.16394e-07
-1.62598e-07
-3.47126e-07
-8.70635e-08
-3.45121e-07
-1.02836e-08
-3.12117e-07
5.56988e-08
-2.48413e-07
1.07881e-07
-1.58119e-07
1.45254e-07
-5.08697e-08
1.65164e-07
5.67261e-08
1.77176e-07
1.46757e-07
1.58257e-07
2.09228e-07
1.31137e-07
2.39785e-07
8.43432e-08
2.38187e-07
3.82522e-08
2.07923e-07
-1.21233e-08
1.55267e-07
-5.46787e-08
8.77695e-08
-9.34826e-08
1.70407e-08
-1.16593e-07
-5.3483e-08
-1.23895e-07
-1.08869e-07
-1.02675e-07
-1.39483e-07
-6.33197e-08
-1.3737e-07
-1.32973e-08
-1.02048e-07
3.17636e-08
-4.43929e-08
6.52651e-08
1.82031e-08
7.66328e-08
6.09769e-08
7.23336e-08
8.18872e-08
4.14195e-08
8.03239e-08
1.82317e-08
6.48466e-08
-8.6239e-09
4.9274e-08
-5.59976e-09
3.03605e-08
-4.3276e-09
1.30715e-08
3.35537e-09
1.09066e-09
2.63891e-08
-1.60768e-08
8.22005e-09
1.72716e-08
6.91418e-08
5.25138e-08
4.31932e-08
1.22213e-07
6.39072e-08
1.70685e-07
5.69121e-08
1.91202e-07
-1.46338e-08
1.80075e-07
2.91992e-08
1.39873e-07
-7.45195e-08
8.31155e-08
-4.91238e-08
2.754e-08
-8.64257e-08
-5.2895e-08
-8.94248e-08
-1.10392e-07
-2.39948e-08
-1.61848e-07
-6.91983e-09
-1.69428e-07
7.04065e-08
-1.23643e-07
1.33604e-07
-4.05286e-08
1.43098e-07
8.52673e-08
2.19162e-07
1.90369e-07
1.50676e-07
2.8058e-07
1.66038e-07
3.25571e-07
1.24361e-07
3.18707e-07
4.34705e-08
2.72901e-07
8.01104e-08
1.80807e-07
-2.57068e-08
9.43632e-08
3.59822e-08
4.42554e-08
2.79901e-08
5.29258e-08
6.75433e-08
1.22242e-07
1.25114e-07
1.98615e-07
8.56053e-08
2.75281e-07
1.42742e-07
3.0975e-07
6.18518e-08
3.36227e-07
7.36018e-08
3.62486e-07
4.63229e-08
3.92877e-07
-1.10434e-09
4.29011e-07
2.71356e-08
4.30966e-07
-6.61722e-08
4.01419e-07
-7.95436e-08
3.40163e-07
-1.18475e-07
2.52311e-07
-1.69031e-07
1.88794e-07
-1.19732e-07
1.40728e-07
-1.49369e-07
1.6003e-07
-9.31586e-08
2.12495e-07
-7.22868e-08
2.65743e-07
-1.07878e-07
2.75529e-07
-9.59855e-08
2.42413e-07
-1.69546e-07
2.04108e-07
-1.5578e-07
1.97946e-07
-1.30538e-07
2.33667e-07
-1.64535e-07
2.55902e-07
-1.20819e-07
2.46797e-07
-2.08007e-07
1.41508e-07
-2.01587e-07
3.77711e-09
-2.26617e-07
-1.21423e-07
-2.1041e-07
-1.59107e-07
-1.26418e-07
-1.45659e-07
-9.53971e-08
-7.9688e-08
-3.79135e-08
-5.19987e-09
-2.17367e-08
1.35861e-08
-1.89651e-08
5.26562e-08
2.55285e-08
6.17038e-08
2.8454e-08
1.13555e-07
5.14693e-08
1.52778e-07
5.76998e-08
1.50653e-07
7.91354e-09
1.20121e-07
3.80378e-08
8.02021e-08
-6.2368e-09
8.86059e-08
4.49492e-08
1.13241e-07
2.83192e-08
1.28008e-07
1.97629e-08
1.10423e-07
5.49108e-08
7.90847e-08
2.74457e-08
1.1284e-07
1.17335e-07
1.93415e-07
7.92283e-08
2.84433e-07
9.83872e-08
3.09611e-07
3.73364e-08
3.22995e-07
-1.85264e-08
3.08475e-07
1.18067e-09
3.50995e-07
-3.52572e-08
3.10919e-07
-5.96304e-08
2.02355e-07
-1.23398e-07
2.73335e-08
-1.57017e-07
-6.10812e-08
-8.11603e-08
-8.61031e-08
-4.28728e-08
-4.98814e-08
2.84717e-08
-3.32342e-08
8.4346e-08
-1.41666e-08
1.14067e-07
1.04241e-07
2.09651e-07
2.1931e-07
1.71041e-07
2.84048e-07
1.49888e-07
2.76827e-07
1.10543e-07
3.06067e-07
9.22772e-08
3.13049e-07
1.18223e-07
3.01107e-07
3.62155e-08
2.26331e-07
7.48512e-09
2.14426e-07
-3.14637e-09
3.10933e-07
2.9932e-08
3.49285e-07
5.94364e-08
3.04183e-07
8.43829e-09
1.98302e-07
-1.98542e-08
1.85187e-07
-1.02404e-08
2.02993e-07
-1.82357e-08
1.53392e-07
2.49557e-08
8.41503e-08
7.48297e-09
9.01419e-08
6.1396e-08
1.39959e-07
1.03443e-07
1.85527e-07
8.7166e-08
2.06105e-07
1.89006e-07
2.44324e-07
1.07237e-07
2.20466e-07
1.24641e-07
2.00546e-07
6.93124e-08
2.50329e-07
1.19136e-07
3.39873e-07
1.67692e-07
3.64034e-07
8.97641e-08
4.00179e-07
1.58166e-07
5.70464e-07
1.62538e-07
6.64906e-07
1.15696e-07
5.29371e-07
-1.09637e-08
4.06926e-07
-8.58243e-08
3.60068e-07
-1.98804e-08
2.73245e-07
-8.06127e-08
1.67475e-07
-5.32642e-08
2.05608e-07
-1.81468e-10
2.44059e-07
-5.07654e-09
1.88907e-07
9.21912e-08
2.38291e-07
9.68151e-08
4.24346e-07
1.83092e-07
5.41204e-07
1.64431e-07
5.77241e-07
8.81516e-08
5.1001e-07
3.52639e-08
4.48954e-07
-4.01721e-08
5.29302e-07
2.93848e-09
5.35147e-07
-8.02571e-08
3.72694e-07
-2.03294e-07
2.85688e-07
-1.01382e-07
2.63889e-07
-1.18493e-07
2.77288e-07
-1.01535e-07
3.9679e-07
-5.51654e-09
3.40607e-07
-6.18705e-08
2.35965e-07
-3.90832e-08
4.12022e-07
-2.00391e-08
3.01093e-07
3.20578e-08
1.38825e-07
-1.34793e-07
1.95982e-07
5.25477e-08