/*--------------------------------*- C++ -*----------------------------------*\
| =========                 |                                                 |
| \\      /  F ield         | OpenFOAM: The Open Source CFD Toolbox           |
|  \\    /   O peration     | Version:  2106                                  |
|   \\  /    A nd           | Website:  www.openfoam.com                      |
|    \\/     M anipulation  |                                                 |
\*---------------------------------------------------------------------------*/
FoamFile
{
    version     2.0;
    format      ascii;
    arch        "LSB;label=32;scalar=64";
    class       surfaceScalarField;
    location    "0.007";
    object      phiB;
}
// * * * * * * * * * * * * * * * * * * * * * * * * * * * * * * * * * * * * * //

dimensions      [1 2 -2 0 0 -1 0];

oriented        oriented;

internalField   nonuniform List<scalar> 
319200
(
1.7722e-06
2.03016e-06
8.63995e-07
-4.50521e-07
2.83656e-06
3.90734e-07
1.93536e-06
-3.62526e-07
1.11968e-06
-1.21014e-06
7.2224e-08
-1.18657e-06
-6.42644e-07
-6.82258e-07
-8.84093e-07
-1.84949e-07
-8.05834e-07
1.12842e-07
-6.03024e-07
2.24532e-07
-3.92605e-07
2.27423e-07
-2.28858e-07
1.86178e-07
-1.17373e-07
1.39303e-07
-4.77778e-08
1.01159e-07
-1.19924e-08
7.49612e-08
1.13957e-08
6.00501e-08
1.80859e-08
5.07972e-08
2.47973e-08
4.8237e-08
3.03454e-08
4.74722e-08
3.04776e-08
4.82227e-08
3.98808e-08
5.17917e-08
4.7672e-08
5.3275e-08
5.54962e-08
5.63106e-08
7.30116e-08
6.0167e-08
8.7107e-08
6.09639e-08
1.01091e-07
6.31717e-08
1.23709e-07
6.55299e-08
1.4151e-07
6.4248e-08
1.55467e-07
6.3807e-08
1.7675e-07
6.41823e-08
1.93905e-07
6.08407e-08
2.02644e-07
5.73361e-08
2.15301e-07
5.63318e-08
2.28098e-07
5.28681e-08
2.31043e-07
4.75355e-08
2.32678e-07
4.56493e-08
2.39364e-07
4.46313e-08
2.41341e-07
4.05221e-08
2.36487e-07
3.75949e-08
2.35805e-07
3.86967e-08
2.40056e-07
3.88558e-08
2.39081e-07
3.61127e-08
2.34045e-07
3.54813e-08
2.34869e-07
3.8124e-08
2.40249e-07
3.8754e-08
2.40671e-07
3.60705e-08
2.36649e-07
3.50415e-08
2.37078e-07
3.72184e-08
2.42359e-07
3.79422e-08
2.44182e-07
3.5019e-08
2.40528e-07
3.26951e-08
2.38815e-07
3.42576e-08
2.43278e-07
3.65855e-08
2.4892e-07
3.56214e-08
2.50432e-07
3.30397e-08
2.50393e-07
3.33113e-08
2.55094e-07
3.65669e-08
2.64927e-07
3.85722e-08
2.74073e-07
3.69622e-08
2.78798e-07
3.42903e-08
2.81608e-07
3.40926e-08
2.87321e-07
3.59928e-08
2.96028e-07
3.64043e-08
3.02557e-07
3.33274e-08
3.03816e-07
2.87485e-08
3.01617e-07
2.61394e-08
2.99399e-07
2.63185e-08
2.99188e-07
2.67865e-08
2.99285e-07
2.50668e-08
2.96686e-07
2.13859e-08
2.91325e-07
1.83163e-08
2.85467e-07
1.8176e-08
2.82015e-07
2.06186e-08
2.82479e-07
2.31561e-08
2.84907e-07
2.3747e-08
2.86913e-07
2.24312e-08
2.88521e-07
2.0986e-08
2.9053e-07
2.12026e-08
2.93936e-07
2.32357e-08
2.99321e-07
2.56159e-08
3.05653e-07
2.64973e-08
3.11983e-07
2.4957e-08
3.17376e-07
2.17853e-08
3.20006e-07
1.87107e-08
3.20229e-07
1.67896e-08
3.202e-07
1.60684e-08
3.20094e-07
1.5938e-08
3.19428e-07
1.53911e-08
3.18115e-07
1.38114e-08
3.14752e-07
1.13899e-08
3.09101e-07
8.68511e-09
3.0359e-07
6.50058e-09
2.99353e-07
5.71165e-09
2.95981e-07
6.47586e-09
2.94466e-07
8.15809e-09
2.95073e-07
1.00905e-08
2.96179e-07
1.17358e-08
2.97962e-07
1.25318e-08
3.01529e-07
1.23051e-08
3.05499e-07
1.13729e-08
3.08487e-07
9.96932e-09
3.11034e-07
8.24249e-09
3.12762e-07
6.55637e-09
3.12624e-07
5.09703e-09
3.11419e-07
3.71281e-09
3.10066e-07
2.35038e-09
3.07915e-07
1.07856e-09
3.04579e-07
-1.0141e-10
3.00497e-07
-1.12551e-09
2.95963e-07
-1.88651e-09
2.91739e-07
-2.4278e-09
2.88865e-07
-2.79571e-09
2.86822e-07
-2.90628e-09
2.84555e-07
-2.80785e-09
2.8295e-07
-2.72492e-09
2.83115e-07
-2.71364e-09
2.83935e-07
-2.6923e-09
2.84189e-07
-2.82026e-09
2.84468e-07
-3.35301e-09
2.84994e-07
-4.24529e-09
2.84533e-07
-5.35252e-09
2.82722e-07
-6.68099e-09
2.80633e-07
-8.13133e-09
2.78618e-07
-9.43341e-09
2.76018e-07
-1.0486e-08
2.72765e-07
-1.14259e-08
2.69378e-07
-1.23131e-08
2.65858e-07
-1.30087e-08
2.62176e-07
-1.34076e-08
2.59074e-07
-1.35862e-08
2.57053e-07
-1.36944e-08
2.55551e-07
-1.38681e-08
2.53967e-07
-1.42491e-08
2.52374e-07
-1.48998e-08
2.50714e-07
-1.57121e-08
2.48508e-07
-1.65701e-08
2.45723e-07
-1.74874e-08
2.42882e-07
-1.84625e-08
2.40131e-07
-1.93779e-08
2.37079e-07
-2.01403e-08
2.3358e-07
-2.07941e-08
2.30028e-07
-2.1415e-08
2.26781e-07
-2.198e-08
2.23884e-07
-2.2404e-08
2.21374e-07
-2.26662e-08
2.19345e-07
-2.28659e-08
2.17635e-07
-2.31774e-08
2.15825e-07
-2.37585e-08
2.13571e-07
-2.4648e-08
2.10756e-07
-2.57169e-08
2.0741e-07
-2.67555e-08
2.03723e-07
-2.76233e-08
1.99977e-07
-2.83174e-08
1.96337e-07
-2.89211e-08
1.92733e-07
-2.95161e-08
1.89055e-07
-3.01194e-08
1.85318e-07
-3.06823e-08
1.81609e-07
-3.11452e-08
1.78006e-07
-3.15004e-08
1.74674e-07
-3.18029e-08
1.71824e-07
-3.21083e-08
1.69413e-07
-3.24339e-08
1.67089e-07
-3.28076e-08
1.64537e-07
-3.33049e-08
1.61696e-07
-3.39739e-08
1.58555e-07
-3.47611e-08
1.54977e-07
-3.55624e-08
1.50976e-07
-3.62887e-08
1.46986e-07
-3.68709e-08
1.435e-07
-3.72784e-08
1.40436e-07
-3.75553e-08
1.37155e-07
-3.78224e-08
1.33312e-07
-3.82233e-08
1.29348e-07
-3.88102e-08
1.25812e-07
-3.94493e-08
1.22558e-07
-3.99168e-08
1.19062e-07
-4.01366e-08
1.15291e-07
-4.02385e-08
1.11737e-07
-4.03684e-08
1.08662e-07
-4.05649e-08
1.05724e-07
-4.08362e-08
1.02454e-07
-4.12127e-08
9.88596e-08
-4.16871e-08
9.53254e-08
-4.21794e-08
9.1947e-08
-4.25744e-08
8.83106e-08
-4.2791e-08
8.41647e-08
-4.28573e-08
8.00539e-08
-4.28964e-08
7.6816e-08
-4.29889e-08
7.44674e-08
-4.31037e-08
7.20338e-08
-4.32174e-08
6.86152e-08
-4.34111e-08
6.43096e-08
-4.37609e-08
5.99128e-08
-4.41891e-08
5.59471e-08
-4.45007e-08
5.22689e-08
-4.45473e-08
4.85855e-08
-4.43377e-08
4.50517e-08
-4.4009e-08
4.20898e-08
-4.37043e-08
3.96678e-08
-4.34868e-08
3.70963e-08
-4.33771e-08
3.37451e-08
-4.34232e-08
2.97662e-08
-4.3652e-08
2.58489e-08
-4.39655e-08
2.23477e-08
-4.41679e-08
1.89277e-08
-4.41199e-08
1.51156e-08
-4.38368e-08
1.10165e-08
-4.34443e-08
7.3166e-09
-4.30704e-08
4.53105e-09
-4.27668e-08
2.34796e-09
-4.25119e-08
-1.3594e-10
-4.22897e-08
-3.52051e-09
-4.21341e-08
-7.59226e-09
-4.20581e-08
-1.17163e-08
-4.19798e-08
-1.54745e-08
-4.17768e-08
-1.88116e-08
-4.13971e-08
-2.18367e-08
-4.08806e-08
-2.4705e-08
-4.03134e-08
-2.75696e-08
-3.97981e-08
-3.04933e-08
-3.9423e-08
-3.34593e-08
-3.91983e-08
-3.64885e-08
-3.90317e-08
-3.96671e-08
-3.87967e-08
-4.30662e-08
-3.84256e-08
-4.66317e-08
-3.79364e-08
-5.01039e-08
-3.73964e-08
-5.31833e-08
-3.68745e-08
-5.59345e-08
-3.64029e-08
-5.88637e-08
-3.59729e-08
-6.23645e-08
-3.55622e-08
-6.62214e-08
-3.51432e-08
-6.98543e-08
-3.46558e-08
-7.29059e-08
-3.40158e-08
-7.54442e-08
-3.31996e-08
-7.77141e-08
-3.23044e-08
-7.98694e-08
-3.14795e-08
-8.19858e-08
-3.08199e-08
-8.41785e-08
-3.03357e-08
-8.65772e-08
-2.99788e-08
-8.92509e-08
-2.96693e-08
-9.22058e-08
-2.93169e-08
-9.54095e-08
-2.88706e-08
-9.8753e-08
-2.83533e-08
-1.02071e-07
-2.78194e-08
-1.05305e-07
-2.72899e-08
-1.08541e-07
-2.67346e-08
-1.11833e-07
-2.60965e-08
-1.15054e-07
-2.53185e-08
-1.17943e-07
-2.43698e-08
-1.20279e-07
-2.3287e-08
-1.22028e-07
-2.21852e-08
-1.23395e-07
-2.12089e-08
-1.2477e-07
-2.04651e-08
-1.26507e-07
-1.99831e-08
-1.28689e-07
-1.96995e-08
-1.31186e-07
-1.94752e-08
-1.33907e-07
-1.91606e-08
-1.36811e-07
-1.86808e-08
-1.39751e-07
-1.80553e-08
-1.42575e-07
-1.73337e-08
-1.45302e-07
-1.65492e-08
-1.47955e-07
-1.57287e-08
-1.50301e-07
-1.48908e-08
-1.52035e-07
-1.4017e-08
-1.53227e-07
-1.30896e-08
-1.54251e-07
-1.21798e-08
-1.5532e-07
-1.14232e-08
-1.56569e-07
-1.08984e-08
-1.58389e-07
-1.0581e-08
-1.60996e-07
-1.04025e-08
-1.63968e-07
-1.02698e-08
-1.66823e-07
-1.00377e-08
-1.69637e-07
-9.59308e-09
-1.72517e-07
-8.95181e-09
-1.75189e-07
-8.17075e-09
-1.77504e-07
-7.23209e-09
-1.79481e-07
-6.11268e-09
-1.80673e-07
-4.88996e-09
-1.80494e-07
-3.66123e-09
-1.79338e-07
-2.48463e-09
-1.78215e-07
-1.49571e-09
-1.77353e-07
-8.69439e-10
-1.7665e-07
-6.04005e-10
-1.76862e-07
-5.44655e-10
-1.78549e-07
-6.23912e-10
-1.80932e-07
-8.46503e-10
-1.83376e-07
-1.09155e-09
-1.86418e-07
-1.21647e-09
-1.90264e-07
-1.22478e-09
-1.94177e-07
-1.1223e-09
-1.9771e-07
-8.26833e-10
-2.008e-07
-3.16721e-10
-2.03133e-07
3.59342e-10
-2.04661e-07
1.22641e-09
-2.05594e-07
2.33022e-09
-2.054e-07
3.6717e-09
-2.03582e-07
5.32077e-09
-2.00847e-07
7.27566e-09
-1.97655e-07
9.21455e-09
-1.93754e-07
1.06898e-08
-1.90087e-07
1.13667e-08
-1.87901e-07
1.09395e-08
-1.86882e-07
9.29656e-09
-1.87022e-07
6.87976e-09
-1.89403e-07
4.45445e-09
-1.93696e-07
2.71183e-09
-1.98557e-07
2.2464e-09
-2.03584e-07
3.26701e-09
-2.08022e-07
5.20632e-09
-2.10574e-07
7.09213e-09
-2.11663e-07
8.19197e-09
-2.12499e-07
8.2667e-09
-2.13168e-07
7.80941e-09
-2.1378e-07
7.95822e-09
-2.14111e-07
9.57302e-09
-2.12327e-07
1.25221e-08
-2.07601e-07
1.57742e-08
-2.01278e-07
1.7819e-08
-1.94643e-07
1.76371e-08
-1.89079e-07
1.57189e-08
-1.85855e-07
1.37204e-08
-1.84256e-07
1.30801e-08
-1.82832e-07
1.39095e-08
-1.81025e-07
1.48102e-08
-1.79301e-07
1.40597e-08
-1.79671e-07
1.13819e-08
-1.83676e-07
8.34171e-09
-1.89776e-07
6.99444e-09
-1.95186e-07
8.0452e-09
-1.98285e-07
1.01089e-08
-1.99301e-07
1.11847e-08
-2.00371e-07
1.09035e-08
-2.02563e-07
1.0854e-08
-2.03863e-07
1.2734e-08
-2.01909e-07
1.62916e-08
-1.96335e-07
1.93617e-08
-1.89518e-07
2.03997e-08
-1.84417e-07
2.02941e-08
-1.80304e-07
2.09492e-08
-1.74408e-07
2.26926e-08
-1.66685e-07
2.38149e-08
-1.59813e-07
2.29253e-08
-1.55982e-07
2.09893e-08
-1.54152e-07
1.9979e-08
-1.51644e-07
2.00815e-08
-1.48498e-07
1.97448e-08
-1.47092e-07
1.83544e-08
-1.4794e-07
1.72973e-08
-1.48606e-07
1.77109e-08
-1.47579e-07
1.87062e-08
-1.465e-07
1.90511e-08
-1.46728e-07
1.91959e-08
-1.4708e-07
2.00812e-08
-1.46369e-07
2.12794e-08
-1.45734e-07
2.18987e-08
-1.4627e-07
2.21378e-08
-1.47153e-07
2.26202e-08
-1.48008e-07
2.32238e-08
-1.49157e-07
2.37383e-08
-1.50175e-07
2.44678e-08
-1.50596e-07
2.54866e-08
-1.50573e-07
2.68136e-08
-1.48962e-07
2.88367e-08
-1.44337e-07
3.13578e-08
-1.38275e-07
3.38436e-08
-1.30685e-07
3.68331e-08
-1.18951e-07
4.05432e-08
-1.0467e-07
4.3691e-08
-9.04389e-08
4.64067e-08
-7.33424e-08
4.97167e-08
-5.38307e-08
5.22132e-08
-3.69432e-08
5.33627e-08
-1.95262e-08
5.4883e-08
-9.97029e-10
5.56596e-08
1.2568e-08
5.47327e-08
2.43998e-08
5.42741e-08
3.6312e-08
5.30796e-08
4.12295e-08
5.04188e-08
4.40627e-08
4.82567e-08
4.47409e-08
4.49458e-08
3.64698e-08
3.98438e-08
2.55567e-08
3.41459e-08
3.03322e-09
2.44736e-08
-3.55711e-08
1.05735e-08
-9.49312e-08
-9.81588e-09
-1.95145e-07
-3.97481e-08
-3.48086e-07
-7.8526e-08
-5.79052e-07
-1.24968e-07
-8.9499e-07
-1.67366e-07
-1.26972e-06
-1.83896e-07
-1.58976e-06
-1.3902e-07
-1.60244e-06
1.20023e-09
-9.48344e-07
2.25134e-07
5.2584e-07
3.97134e-07
1.96842e-06
2.12456e-07
1.0692e-06
-5.6454e-07
-3.89427e-07
-1.4155e-06
4.4238e-07
-8.23883e-07
-2.04381e-06
-7.30313e-07
2.69633e-07
1.69193e-06
7.48089e-07
2.08382e-06
2.15897e-07
1.08792e-06
-3.35128e-07
1.14311e-06
-6.51446e-07
5.76757e-07
-6.11261e-07
-1.44459e-07
-3.64276e-07
-5.85737e-07
-1.01266e-07
-6.94122e-07
7.7811e-08
-5.99933e-07
1.61016e-07
-4.3377e-07
1.77477e-07
-2.75658e-07
1.60438e-07
-1.55415e-07
1.33812e-07
-7.388e-08
1.09212e-07
-2.68923e-08
9.06089e-08
2.27784e-09
7.91528e-08
1.5708e-08
7.18666e-08
2.35808e-08
6.92061e-08
3.0558e-08
6.86289e-08
3.38582e-08
6.91231e-08
4.13491e-08
7.15996e-08
5.08205e-08
7.34054e-08
5.93545e-08
7.53786e-08
7.38358e-08
7.83341e-08
8.936e-08
7.94828e-08
1.03357e-07
8.04361e-08
1.22279e-07
8.1893e-08
1.41226e-07
8.12315e-08
1.5618e-07
7.98666e-08
1.73317e-07
7.92261e-08
1.90424e-07
7.68502e-08
2.0184e-07
7.31488e-08
2.11956e-07
7.07481e-08
2.23014e-07
6.80786e-08
2.29423e-07
6.3736e-08
2.31623e-07
6.04178e-08
2.35218e-07
5.87837e-08
2.38571e-07
5.62143e-08
2.37585e-07
5.31573e-08
2.35699e-07
5.21843e-08
2.37012e-07
5.22631e-08
2.38349e-07
5.09507e-08
2.36667e-07
4.94038e-08
2.35389e-07
4.97094e-08
2.37456e-07
5.04008e-08
2.39643e-07
4.92568e-08
2.38877e-07
4.74631e-08
2.37739e-07
4.71679e-08
2.39272e-07
4.75448e-08
2.41659e-07
4.6476e-08
2.41851e-07
4.43616e-08
2.40928e-07
4.34434e-08
2.42281e-07
4.41301e-08
2.46363e-07
4.44844e-08
2.50528e-07
4.34291e-08
2.53452e-07
4.2381e-08
2.57051e-07
4.28613e-08
2.63331e-07
4.41027e-08
2.71309e-07
4.42031e-08
2.78506e-07
4.2749e-08
2.83758e-07
4.11237e-08
2.88139e-07
4.0432e-08
2.9312e-07
4.01537e-08
2.9818e-07
3.88839e-08
3.0134e-07
3.60813e-08
3.015e-07
3.28537e-08
2.99651e-07
3.06034e-08
2.97534e-07
2.94889e-08
2.95884e-07
2.84786e-08
2.93952e-07
2.67542e-08
2.90972e-07
2.46414e-08
2.87367e-07
2.31365e-08
2.84337e-07
2.29117e-08
2.83115e-07
2.3757e-08
2.84073e-07
2.47672e-08
2.86434e-07
2.50869e-08
2.89227e-07
2.46113e-08
2.92111e-07
2.39691e-08
2.95444e-07
2.37808e-08
2.99711e-07
2.40489e-08
3.0467e-07
2.42459e-08
3.09573e-07
2.37585e-08
3.1397e-07
2.232e-08
3.17376e-07
2.01628e-08
3.19126e-07
1.77348e-08
3.19258e-07
1.54731e-08
3.18258e-07
1.36687e-08
3.16373e-07
1.22071e-08
3.13945e-07
1.07942e-08
3.11166e-07
9.363e-09
3.07831e-07
7.94026e-09
3.04168e-07
6.60042e-09
3.00758e-07
5.59167e-09
2.97904e-07
5.11448e-09
2.9597e-07
5.1561e-09
2.9539e-07
5.58922e-09
2.9613e-07
6.19587e-09
2.9782e-07
6.66705e-09
3.00213e-07
6.75993e-09
3.03108e-07
6.40116e-09
3.06022e-07
5.57167e-09
3.085e-07
4.28765e-09
3.10359e-07
2.72216e-09
3.11313e-07
1.05631e-09
3.1107e-07
-7.08622e-10
3.09693e-07
-2.55006e-09
3.07337e-07
-4.30464e-09
3.04159e-07
-5.84931e-09
3.00509e-07
-7.12953e-09
2.96657e-07
-8.10907e-09
2.92759e-07
-8.81315e-09
2.89249e-07
-9.27983e-09
2.86571e-07
-9.51168e-09
2.84665e-07
-9.56943e-09
2.83285e-07
-9.61763e-09
2.82585e-07
-9.77264e-09
2.82773e-07
-1.00074e-08
2.83399e-07
-1.034e-08
2.83778e-07
-1.09442e-08
2.83727e-07
-1.19174e-08
2.83217e-07
-1.31428e-08
2.82018e-07
-1.44659e-08
2.80087e-07
-1.57925e-08
2.77605e-07
-1.70441e-08
2.74679e-07
-1.82086e-08
2.7144e-07
-1.93134e-08
2.68172e-07
-2.02883e-08
2.65098e-07
-2.10126e-08
2.62275e-07
-2.14791e-08
2.59722e-07
-2.18137e-08
2.57516e-07
-2.21532e-08
2.55696e-07
-2.25539e-08
2.54044e-07
-2.30334e-08
2.52214e-07
-2.36423e-08
2.50089e-07
-2.44261e-08
2.47705e-07
-2.53521e-08
2.4506e-07
-2.63336e-08
2.42204e-07
-2.72829e-08
2.39252e-07
-2.81356e-08
2.36197e-07
-2.8891e-08
2.32949e-07
-2.96084e-08
2.2958e-07
-3.03115e-08
2.26368e-07
-3.09356e-08
2.23571e-07
-3.13999e-08
2.21217e-07
-3.17157e-08
2.19129e-07
-3.20128e-08
2.17097e-07
-3.24571e-08
2.14937e-07
-3.3135e-08
2.12486e-07
-3.40028e-08
2.09648e-07
-3.4934e-08
2.06422e-07
-3.58147e-08
2.0288e-07
-3.66128e-08
1.99166e-07
-3.73601e-08
1.95457e-07
-3.80779e-08
1.91852e-07
-3.87446e-08
1.88324e-07
-3.93283e-08
1.84811e-07
-3.98233e-08
1.81312e-07
-4.02538e-08
1.77908e-07
-4.06487e-08
1.74705e-07
-4.102e-08
1.71773e-07
-4.13769e-08
1.69125e-07
-4.17376e-08
1.6662e-07
-4.21299e-08
1.63951e-07
-4.2609e-08
1.60905e-07
-4.32384e-08
1.5757e-07
-4.40024e-08
1.54107e-07
-4.47734e-08
1.50547e-07
-4.54205e-08
1.46903e-07
-4.59133e-08
1.43286e-07
-4.62997e-08
1.39798e-07
-4.66531e-08
1.36443e-07
-4.70441e-08
1.33082e-07
-4.7498e-08
1.29504e-07
-4.7984e-08
1.25677e-07
-4.84557e-08
1.21871e-07
-4.88598e-08
1.18308e-07
-4.91405e-08
1.14913e-07
-4.93113e-08
1.11589e-07
-4.9478e-08
1.08423e-07
-4.97211e-08
1.05391e-07
-5.00209e-08
1.02217e-07
-5.03445e-08
9.86967e-08
-5.07064e-08
9.49041e-08
-5.11026e-08
9.10585e-08
-5.1468e-08
8.73817e-08
-5.17298e-08
8.39677e-08
-5.18619e-08
8.0683e-08
-5.19003e-08
7.73515e-08
-5.19334e-08
7.4016e-08
-5.20435e-08
7.07818e-08
-5.22411e-08
6.75048e-08
-5.24895e-08
6.39206e-08
-5.27644e-08
6.00002e-08
-5.30371e-08
5.59748e-08
-5.32305e-08
5.21024e-08
-5.32603e-08
4.85122e-08
-5.3113e-08
4.5185e-08
-5.28592e-08
4.20526e-08
-5.26094e-08
3.91187e-08
-5.24566e-08
3.63631e-08
-5.24246e-08
3.35243e-08
-5.24736e-08
3.02184e-08
-5.25648e-08
2.6355e-08
-5.26828e-08
2.22547e-08
-5.27807e-08
1.83203e-08
-5.27669e-08
1.47331e-08
-5.25846e-08
1.14368e-08
-5.22662e-08
8.26594e-09
-5.18993e-08
5.09943e-09
-5.15699e-08
1.95104e-09
-5.13282e-08
-1.14611e-09
-5.11661e-08
-4.3058e-09
-5.10314e-08
-7.68026e-09
-5.08806e-08
-1.12213e-08
-5.06955e-08
-1.47231e-08
-5.04418e-08
-1.80651e-08
-5.00709e-08
-2.12477e-08
-4.95913e-08
-2.42611e-08
-4.90888e-08
-2.71206e-08
-4.86475e-08
-2.999e-08
-4.82894e-08
-3.30765e-08
-4.79989e-08
-3.64027e-08
-4.77477e-08
-3.9806e-08
-4.74774e-08
-4.31472e-08
-4.71159e-08
-4.64067e-08
-4.66464e-08
-4.95975e-08
-4.61276e-08
-5.27176e-08
-4.56312e-08
-5.57994e-08
-4.51837e-08
-5.89082e-08
-4.47665e-08
-6.20822e-08
-4.43394e-08
-6.53241e-08
-4.38569e-08
-6.85849e-08
-4.32844e-08
-7.17022e-08
-4.26131e-08
-7.4483e-08
-4.18653e-08
-7.69062e-08
-4.10881e-08
-7.91405e-08
-4.03481e-08
-8.13679e-08
-3.97118e-08
-8.36862e-08
-3.92035e-08
-8.61721e-08
-3.8788e-08
-8.89004e-08
-3.84002e-08
-9.18576e-08
-3.79863e-08
-9.49482e-08
-3.75223e-08
-9.80964e-08
-3.70103e-08
-1.01286e-07
-3.64688e-08
-1.04519e-07
-3.59116e-08
-1.07767e-07
-3.53204e-08
-1.10971e-07
-3.46478e-08
-1.14022e-07
-3.38509e-08
-1.16752e-07
-3.29246e-08
-1.19032e-07
-3.19144e-08
-1.20881e-07
-3.09102e-08
-1.2247e-07
-3.0016e-08
-1.24049e-07
-2.93038e-08
-1.25863e-07
-2.87763e-08
-1.28049e-07
-2.83724e-08
-1.30564e-07
-2.80008e-08
-1.33265e-07
-2.75747e-08
-1.36049e-07
-2.7041e-08
-1.38866e-07
-2.63977e-08
-1.4163e-07
-2.5678e-08
-1.44208e-07
-2.49068e-08
-1.46541e-07
-2.40859e-08
-1.48653e-07
-2.32173e-08
-1.5051e-07
-2.2314e-08
-1.52044e-07
-2.13993e-08
-1.53343e-07
-2.0518e-08
-1.54648e-07
-1.97462e-08
-1.56168e-07
-1.91507e-08
-1.58048e-07
-1.87268e-08
-1.60412e-07
-1.84007e-08
-1.63254e-07
-1.80767e-08
-1.66331e-07
-1.76742e-08
-1.69339e-07
-1.71437e-08
-1.72104e-07
-1.647e-08
-1.7455e-07
-1.56488e-08
-1.76556e-07
-1.46565e-08
-1.77989e-07
-1.34926e-08
-1.788e-07
-1.2236e-08
-1.78967e-07
-1.09962e-08
-1.78572e-07
-9.85311e-09
-1.77956e-07
-8.89629e-09
-1.77481e-07
-8.24478e-09
-1.77283e-07
-7.92832e-09
-1.77524e-07
-7.8328e-09
-1.78569e-07
-7.8484e-09
-1.80587e-07
-7.94211e-09
-1.83373e-07
-8.04279e-09
-1.86735e-07
-8.00924e-09
-1.90576e-07
-7.74969e-09
-1.94553e-07
-7.24661e-09
-1.98128e-07
-6.47336e-09
-2.00955e-07
-5.42524e-09
-2.02867e-07
-4.17476e-09
-2.03703e-07
-2.81663e-09
-2.03498e-07
-1.44648e-09
-2.02431e-07
-1.59855e-10
-2.006e-07
1.02319e-09
-1.98256e-07
2.13849e-09
-1.95773e-07
3.13187e-09
-1.93282e-07
3.89474e-09
-1.90954e-07
4.40944e-09
-1.89315e-07
4.64962e-09
-1.88701e-07
4.49361e-09
-1.89069e-07
3.90839e-09
-1.90532e-07
3.03131e-09
-1.9327e-07
2.06701e-09
-1.97021e-07
1.32308e-09
-2.01307e-07
1.18602e-09
-2.05698e-07
1.82573e-09
-2.09523e-07
3.10311e-09
-2.12113e-07
4.74293e-09
-2.13336e-07
6.38203e-09
-2.13302e-07
7.71675e-09
-2.12226e-07
8.78715e-09
-2.10545e-07
9.8987e-09
-2.0826e-07
1.13137e-08
-2.0494e-07
1.30862e-08
-2.00593e-07
1.49095e-08
-1.95664e-07
1.6164e-08
-1.90797e-07
1.6419e-08
-1.86833e-07
1.58095e-08
-1.84281e-07
1.49093e-08
-1.82993e-07
1.43486e-08
-1.82509e-07
1.42958e-08
-1.82472e-07
1.42711e-08
-1.83104e-07
1.36943e-08
-1.85123e-07
1.25413e-08
-1.88669e-07
1.14734e-08
-1.92918e-07
1.13685e-08
-1.96693e-07
1.24895e-08
-1.99009e-07
1.41892e-08
-1.99876e-07
1.56538e-08
-2.0017e-07
1.67635e-08
-2.0014e-07
1.81677e-08
-1.98897e-07
2.04529e-08
-1.95445e-07
2.32172e-08
-1.90024e-07
2.54268e-08
-1.84137e-07
2.65972e-08
-1.7882e-07
2.72527e-08
-1.73669e-07
2.81426e-08
-1.67959e-07
2.91507e-08
-1.62027e-07
2.94452e-08
-1.57238e-07
2.87597e-08
-1.54325e-07
2.78848e-08
-1.52309e-07
2.75864e-08
-1.50124e-07
2.76389e-08
-1.48274e-07
2.7427e-08
-1.47657e-07
2.71117e-08
-1.47757e-07
2.74077e-08
-1.47376e-07
2.84e-08
-1.4651e-07
2.94559e-08
-1.46013e-07
3.03063e-08
-1.45987e-07
3.13212e-08
-1.45835e-07
3.26076e-08
-1.45597e-07
3.37673e-08
-1.45917e-07
3.46289e-08
-1.46753e-07
3.54528e-08
-1.47673e-07
3.63605e-08
-1.48679e-07
3.72967e-08
-1.49519e-07
3.8413e-08
-1.49522e-07
3.97937e-08
-1.48618e-07
4.14123e-08
-1.46556e-07
4.35139e-08
-1.42097e-07
4.6168e-08
-1.35285e-07
4.89775e-08
-1.26925e-07
5.19917e-08
-1.15916e-07
5.55488e-08
-1.01913e-07
5.90462e-08
-8.70078e-08
6.20717e-08
-7.08994e-08
6.5225e-08
-5.25593e-08
6.81027e-08
-3.50613e-08
6.99546e-08
-1.87477e-08
7.1574e-08
-1.86226e-09
7.28515e-08
1.22849e-08
7.28945e-08
2.33967e-08
7.27112e-08
3.36252e-08
7.21537e-08
3.91617e-08
7.05999e-08
4.09163e-08
6.89032e-08
3.97421e-08
6.66396e-08
3.09101e-08
6.30101e-08
1.56537e-08
5.85212e-08
-1.09601e-08
5.13906e-08
-5.58941e-08
4.07057e-08
-1.24916e-07
2.49443e-08
-2.33897e-07
1.666e-09
-3.94453e-07
-2.89844e-08
-6.2136e-07
-6.52901e-08
-9.11389e-07
-9.74555e-08
-1.22486e-06
-1.05141e-07
-1.44955e-06
-5.33019e-08
-1.37843e-06
9.95985e-08
-7.76127e-07
3.68398e-07
3.41192e-07
6.68817e-07
1.19151e-06
7.3802e-07
2.18471e-07
2.9847e-07
2.00209e-07
3.48782e-07
-7.89653e-07
8.08756e-07
4.80124e-07
-2.48655e-07
-5.96477e-07
1.15988e-06
2.012e-07
1.53274e-06
7.54164e-08
7.71503e-07
-2.03338e-07
1.18325e-06
-3.48053e-07
8.23579e-07
-3.16023e-07
1.18312e-07
-1.8115e-07
-4.06636e-07
-3.25745e-08
-6.10816e-07
7.71959e-08
-5.83397e-07
1.35523e-07
-4.50659e-07
1.53637e-07
-3.02254e-07
1.48243e-07
-1.80035e-07
1.33486e-07
-9.25073e-08
1.17996e-07
-3.8396e-08
1.05183e-07
-4.93063e-09
9.68477e-08
1.31164e-08
9.15421e-08
2.29662e-08
8.92454e-08
3.09369e-08
8.89491e-08
3.63566e-08
8.93471e-08
4.32029e-08
9.10872e-08
5.28099e-08
9.28967e-08
6.2293e-08
9.43394e-08
7.49346e-08
9.6404e-08
9.04595e-08
9.75505e-08
1.05055e-07
9.79103e-08
1.21563e-07
9.84794e-08
1.39738e-07
9.79062e-08
1.5555e-07
9.61744e-08
1.70937e-07
9.45627e-08
1.86759e-07
9.23264e-08
1.99417e-07
8.88494e-08
2.09139e-07
8.55631e-08
2.18598e-07
8.26694e-08
2.26164e-07
7.90043e-08
2.29947e-07
7.52965e-08
2.32556e-07
7.2774e-08
2.35506e-07
7.05693e-08
2.36629e-07
6.79254e-08
2.35788e-07
6.59451e-08
2.35692e-07
6.51504e-08
2.36766e-07
6.43087e-08
2.36909e-07
6.28445e-08
2.36066e-07
6.18188e-08
2.3634e-07
6.15734e-08
2.3784e-07
6.09159e-08
2.38545e-07
5.93388e-08
2.3809e-07
5.78739e-08
2.38197e-07
5.71354e-08
2.3957e-07
5.63368e-08
2.40989e-07
5.48388e-08
2.41643e-07
5.32851e-08
2.42605e-07
5.25694e-08
2.45286e-07
5.24793e-08
2.49488e-07
5.20974e-08
2.53926e-07
5.11971e-08
2.58278e-07
5.05046e-08
2.63466e-07
5.04522e-08
2.69924e-07
5.04553e-08
2.76805e-07
4.96736e-08
2.82938e-07
4.81233e-08
2.87743e-07
4.64464e-08
2.91746e-07
4.4973e-08
2.95383e-07
4.34313e-08
2.98114e-07
4.13657e-08
2.99251e-07
3.86648e-08
2.98541e-07
3.58393e-08
2.96571e-07
3.3515e-08
2.9422e-07
3.18175e-08
2.91807e-07
3.03819e-08
2.89464e-07
2.88504e-08
2.87194e-07
2.73864e-08
2.85123e-07
2.63979e-08
2.83962e-07
2.60204e-08
2.84227e-07
2.61048e-08
2.85863e-07
2.63088e-08
2.88591e-07
2.62628e-08
2.91985e-07
2.58321e-08
2.95756e-07
2.51341e-08
2.99846e-07
2.43666e-08
3.04084e-07
2.362e-08
3.08173e-07
2.27318e-08
3.1193e-07
2.1415e-08
3.15087e-07
1.96047e-08
3.17072e-07
1.74521e-08
3.17625e-07
1.51009e-08
3.16989e-07
1.27381e-08
3.15247e-07
1.0563e-08
3.12611e-07
8.65476e-09
3.09558e-07
7.05109e-09
3.06289e-07
5.72191e-09
3.03081e-07
4.57837e-09
3.00328e-07
3.66059e-09
2.98086e-07
3.0322e-09
2.96548e-07
2.62737e-09
2.96072e-07
2.39311e-09
2.96643e-07
2.30374e-09
2.98037e-07
2.21663e-09
3.00052e-07
1.92982e-09
3.02464e-07
1.33612e-09
3.04928e-07
4.29979e-10
3.07012e-07
-7.83248e-10
3.08501e-07
-2.29367e-09
3.09287e-07
-4.03532e-09
3.09126e-07
-5.91759e-09
3.07908e-07
-7.8341e-09
3.05734e-07
-9.6631e-09
3.02769e-07
-1.13465e-08
2.99335e-07
-1.28426e-08
2.95764e-07
-1.40504e-08
2.92248e-07
-1.49278e-08
2.89067e-07
-1.5548e-08
2.86491e-07
-1.59957e-08
2.84569e-07
-1.633e-08
2.83271e-07
-1.66185e-08
2.82606e-07
-1.69288e-08
2.82555e-07
-1.73176e-08
2.82827e-07
-1.78591e-08
2.82893e-07
-1.86551e-08
2.8254e-07
-1.97431e-08
2.81851e-07
-2.10061e-08
2.80693e-07
-2.23001e-08
2.78881e-07
-2.36125e-08
2.76511e-07
-2.49539e-08
2.73728e-07
-2.62435e-08
2.70671e-07
-2.73882e-08
2.67598e-07
-2.83386e-08
2.64673e-07
-2.90889e-08
2.61902e-07
-2.9697e-08
2.59344e-07
-3.02423e-08
2.57096e-07
-3.0753e-08
2.55166e-07
-3.12397e-08
2.53399e-07
-3.17702e-08
2.51491e-07
-3.24461e-08
2.49249e-07
-3.33099e-08
2.46745e-07
-3.42898e-08
2.44116e-07
-3.52614e-08
2.41397e-07
-3.61623e-08
2.38559e-07
-3.70084e-08
2.35532e-07
-3.78313e-08
2.32294e-07
-3.86349e-08
2.29022e-07
-3.93763e-08
2.25988e-07
-3.99845e-08
2.23317e-07
-4.04381e-08
2.20934e-07
-4.08179e-08
2.1867e-07
-4.12566e-08
2.16391e-07
-4.18432e-08
2.1404e-07
-4.25754e-08
2.1155e-07
-4.33865e-08
2.08794e-07
-4.42119e-08
2.05675e-07
-4.50265e-08
2.02209e-07
-4.58326e-08
1.98538e-07
-4.66243e-08
1.94855e-07
-4.73661e-08
1.91284e-07
-4.80146e-08
1.87809e-07
-4.85662e-08
1.84343e-07
-4.90583e-08
1.80851e-07
-4.95255e-08
1.77427e-07
-4.99762e-08
1.74248e-07
-5.0397e-08
1.71393e-07
-5.07721e-08
1.68743e-07
-5.11242e-08
1.66103e-07
-5.15247e-08
1.63298e-07
-5.20407e-08
1.60208e-07
-5.26815e-08
1.56862e-07
-5.34003e-08
1.53423e-07
-5.41038e-08
1.49974e-07
-5.46897e-08
1.46476e-07
-5.5141e-08
1.42939e-07
-5.55418e-08
1.39427e-07
-5.59671e-08
1.35929e-07
-5.64186e-08
1.32415e-07
-5.68757e-08
1.28904e-07
-5.73224e-08
1.25359e-07
-5.77256e-08
1.21724e-07
-5.8061e-08
1.18099e-07
-5.83426e-08
1.14639e-07
-5.8592e-08
1.11345e-07
-5.88236e-08
1.08135e-07
-5.90701e-08
1.04973e-07
-5.93597e-08
1.01761e-07
-5.96778e-08
9.83285e-08
-6.00025e-08
9.46467e-08
-6.03393e-08
9.08856e-08
-6.06728e-08
8.72279e-08
-6.09392e-08
8.37618e-08
-6.10945e-08
8.04851e-08
-6.11679e-08
7.72926e-08
-6.1231e-08
7.40385e-08
-6.13482e-08
7.06629e-08
-6.15478e-08
6.71728e-08
-6.18035e-08
6.35471e-08
-6.20563e-08
5.97865e-08
-6.22614e-08
5.59921e-08
-6.23897e-08
5.22897e-08
-6.24026e-08
4.87465e-08
-6.22852e-08
4.54035e-08
-6.20926e-08
4.22796e-08
-6.19157e-08
3.93026e-08
-6.18111e-08
3.6327e-08
-6.17874e-08
3.32192e-08
-6.18262e-08
2.98754e-08
-6.18921e-08
2.62413e-08
-6.19493e-08
2.24078e-08
-6.19767e-08
1.86064e-08
-6.1944e-08
1.50246e-08
-6.18024e-08
1.16854e-08
-6.15405e-08
8.52241e-09
-6.12233e-08
5.44745e-09
-6.09336e-08
2.3331e-09
-6.07019e-08
-9.21745e-10
-6.05202e-08
-4.27944e-09
-6.03762e-08
-7.63476e-09
-6.02347e-08
-1.09789e-08
-6.00317e-08
-1.43517e-08
-5.97284e-08
-1.76808e-08
-5.93445e-08
-2.08437e-08
-5.89215e-08
-2.38493e-08
-5.84909e-08
-2.68121e-08
-5.80868e-08
-2.98027e-08
-5.77409e-08
-3.28556e-08
-5.74468e-08
-3.60334e-08
-5.71605e-08
-3.93436e-08
-5.68415e-08
-4.26736e-08
-5.64701e-08
-4.5917e-08
-5.60385e-08
-4.9081e-08
-5.5561e-08
-5.22161e-08
-5.50837e-08
-5.5347e-08
-5.46465e-08
-5.85031e-08
-5.42341e-08
-6.17117e-08
-5.37915e-08
-6.49291e-08
-5.328e-08
-6.80475e-08
-5.26936e-08
-7.09756e-08
-5.20357e-08
-7.36868e-08
-5.13211e-08
-7.62059e-08
-5.05943e-08
-7.8582e-08
-4.99151e-08
-8.0897e-08
-4.93193e-08
-8.32659e-08
-4.88022e-08
-8.57901e-08
-4.83383e-08
-8.85155e-08
-4.78981e-08
-9.14314e-08
-4.74514e-08
-9.44974e-08
-4.69761e-08
-9.7653e-08
-4.64675e-08
-1.00831e-07
-4.59313e-08
-1.03994e-07
-4.53638e-08
-1.0713e-07
-4.47416e-08
-1.10199e-07
-4.40328e-08
-1.13111e-07
-4.32166e-08
-1.15751e-07
-4.23016e-08
-1.18039e-07
-4.13354e-08
-1.20003e-07
-4.03937e-08
-1.21784e-07
-3.95507e-08
-1.23576e-07
-3.88482e-08
-1.25542e-07
-3.82803e-08
-1.27745e-07
-3.77995e-08
-1.3016e-07
-3.73356e-08
-1.32728e-07
-3.68244e-08
-1.35404e-07
-3.62308e-08
-1.38139e-07
-3.55539e-08
-1.40854e-07
-3.48103e-08
-1.43429e-07
-3.4013e-08
-1.45754e-07
-3.31669e-08
-1.47797e-07
-3.22786e-08
-1.49582e-07
-3.13579e-08
-1.5116e-07
-3.04255e-08
-1.5262e-07
-2.95291e-08
-1.54087e-07
-2.87377e-08
-1.55715e-07
-2.80936e-08
-1.57679e-07
-2.75687e-08
-1.60092e-07
-2.70957e-08
-1.62871e-07
-2.66218e-08
-1.6576e-07
-2.61089e-08
-1.68537e-07
-2.55024e-08
-1.71132e-07
-2.4746e-08
-1.73502e-07
-2.38265e-08
-1.7546e-07
-2.276e-08
-1.76786e-07
-2.15612e-08
-1.77489e-07
-2.02701e-08
-1.77714e-07
-1.89816e-08
-1.77562e-07
-1.78072e-08
-1.77212e-07
-1.68232e-08
-1.76974e-07
-1.60761e-08
-1.77088e-07
-1.55847e-08
-1.77652e-07
-1.53069e-08
-1.78794e-07
-1.51581e-08
-1.80664e-07
-1.50587e-08
-1.83251e-07
-1.49331e-08
-1.86393e-07
-1.46955e-08
-1.89884e-07
-1.4274e-08
-1.93452e-07
-1.36236e-08
-1.96762e-07
-1.2699e-08
-1.99537e-07
-1.14883e-08
-2.0155e-07
-1.00639e-08
-2.0253e-07
-8.52693e-09
-2.02401e-07
-6.9496e-09
-2.01374e-07
-5.40804e-09
-1.99644e-07
-3.99779e-09
-1.97382e-07
-2.78934e-09
-1.94918e-07
-1.82912e-09
-1.92608e-07
-1.14719e-09
-1.90739e-07
-7.07788e-10
-1.89604e-07
-4.44734e-10
-1.8939e-07
-3.44293e-10
-1.90069e-07
-3.95433e-10
-1.91606e-07
-5.28651e-10
-1.94052e-07
-6.76938e-10
-1.97241e-07
-7.6929e-10
-2.00782e-07
-6.41865e-10
-2.04392e-07
-1.19107e-10
-2.0777e-07
8.67985e-10
-2.10407e-07
2.31158e-09
-2.1193e-07
4.10979e-09
-2.12199e-07
6.03968e-09
-2.11211e-07
7.89107e-09
-2.0924e-07
9.56678e-09
-2.06564e-07
1.1061e-08
-2.03258e-07
1.24614e-08
-1.9948e-07
1.38594e-08
-1.95447e-07
1.51566e-08
-1.9134e-07
1.61004e-08
-1.87537e-07
1.65005e-08
-1.84593e-07
1.63658e-08
-1.82896e-07
1.59574e-08
-1.82462e-07
1.56247e-08
-1.8302e-07
1.55055e-08
-1.84281e-07
1.54932e-08
-1.86193e-07
1.54294e-08
-1.88787e-07
1.53233e-08
-1.91915e-07
1.54903e-08
-1.95145e-07
1.63246e-08
-1.97685e-07
1.78964e-08
-1.98873e-07
1.98902e-08
-1.98804e-07
2.19019e-08
-1.97885e-07
2.38389e-08
-1.96117e-07
2.59495e-08
-1.93169e-07
2.83589e-08
-1.88804e-07
3.07644e-08
-1.83456e-07
3.2688e-08
-1.77938e-07
3.39635e-08
-1.72702e-07
3.4862e-08
-1.677e-07
3.56923e-08
-1.62725e-07
3.6331e-08
-1.58117e-07
3.64814e-08
-1.54615e-07
3.62347e-08
-1.52259e-07
3.60681e-08
-1.50369e-07
3.62641e-08
-1.48649e-07
3.66484e-08
-1.47424e-07
3.70516e-08
-1.46811e-07
3.76904e-08
-1.46356e-07
3.88035e-08
-1.457e-07
4.0227e-08
-1.45055e-07
4.16478e-08
-1.44772e-07
4.30491e-08
-1.44755e-07
4.45482e-08
-1.44797e-07
4.6051e-08
-1.45137e-07
4.73986e-08
-1.45913e-07
4.86411e-08
-1.46809e-07
4.99036e-08
-1.47632e-07
5.12112e-08
-1.48221e-07
5.26709e-08
-1.48005e-07
5.44001e-08
-1.46607e-07
5.63769e-08
-1.4396e-07
5.86881e-08
-1.39366e-07
6.14852e-08
-1.32345e-07
6.46024e-08
-1.23421e-07
6.78558e-08
-1.12521e-07
7.14345e-08
-9.89935e-08
7.51625e-08
-8.38665e-08
7.85552e-08
-6.80567e-08
8.17955e-08
-5.08351e-08
8.49185e-08
-3.35333e-08
8.73225e-08
-1.75837e-08
8.91922e-08
-1.93141e-09