/*--------------------------------*- C++ -*----------------------------------*\
| =========                 |                                                 |
| \\      /  F ield         | OpenFOAM: The Open Source CFD Toolbox           |
|  \\    /   O peration     | Version:  2106                                  |
|   \\  /    A nd           | Website:  www.openfoam.com                      |
|    \\/     M anipulation  |                                                 |
\*---------------------------------------------------------------------------*/
FoamFile
{
    version     2.0;
    format      ascii;
    arch        "LSB;label=32;scalar=64";
    class       surfaceScalarField;
    location    "0.325";
    object      phi;
}
// * * * * * * * * * * * * * * * * * * * * * * * * * * * * * * * * * * * * * //

dimensions      [0 3 -1 0 0 0 0];

oriented        oriented;

internalField   nonuniform List<scalar> 
22100
(
3.38461206835e-05
1.61538792874e-05
2.24572112112e-05
1.13889101826e-05
1.62585551036e-05
6.19865665153e-06
1.27977788296e-05
3.46077677394e-06
1.08046456022e-05
1.99313367514e-06
9.60459317259e-06
1.20005281781e-06
8.85132597458e-06
7.5326753996e-07
8.36435770202e-06
4.86968585487e-07
8.04434035459e-06
3.20017647752e-07
7.83284609036e-06
2.11494562705e-07
7.69340344841e-06
1.39442939202e-07
7.60224706226e-06
9.11566756434e-08
7.54348475058e-06
5.87625841378e-08
7.5063482612e-06
3.71367304222e-08
7.48350914493e-06
2.28393321375e-08
7.46998869113e-06
1.35206394911e-08
7.4624244409e-06
7.5644280765e-09
7.45855681518e-06
3.867822157e-09
7.45683824188e-06
1.71881594197e-09
7.45643211387e-06
4.06414404196e-10
7.45678248228e-06
-3.50029627624e-10
7.45746926677e-06
-6.86392467475e-10
7.45822825138e-06
-7.58545939427e-10
7.45895420199e-06
-7.25500664424e-10
7.45959915168e-06
-6.44502924159e-10
7.46014370335e-06
-5.44129297895e-10
7.46058639378e-06
-4.42319309737e-10
7.46093565885e-06
-3.48959925985e-10
7.46120440256e-06
-2.68494334293e-10
7.46140671597e-06
-2.02113721006e-10
7.46155598957e-06
-1.49121047888e-10
7.46166393117e-06
-1.07824655485e-10
7.46174029473e-06
-7.62737843304e-11
7.46179324572e-06
-5.28484883966e-11
7.46182675074e-06
-3.33557815322e-11
7.46184580175e-06
-1.88804414908e-11
7.46185518058e-06
-9.16002989117e-12
7.46185831225e-06
-2.86744827624e-12
7.46185711614e-06
1.49232141385e-12
7.46185270046e-06
4.73060127685e-12
7.46184597652e-06
7.00713207066e-12
7.46183755684e-06
8.65698259683e-12
7.46182779593e-06
9.9227679458e-12
7.46181691578e-06
1.10105212601e-11
7.46180494163e-06
1.20689754922e-11
7.46179180508e-06
1.32496318565e-11
7.46177728149e-06
1.4641925725e-11
7.46176103535e-06
1.63714833571e-11
7.46174264909e-06
1.85538130059e-11
7.46172155142e-06
2.12892692559e-11
7.46169708401e-06
2.46338429954e-11
7.46166852381e-06
2.86801941651e-11
7.4616350767e-06
3.35014021639e-11
7.46159588926e-06
3.91557853634e-11
7.46155016061e-06
4.57045109494e-11
7.46149706832e-06
5.30510218532e-11
7.46143596395e-06
6.10298140206e-11
7.46136676122e-06
6.913353363e-11
7.46129017693e-06
7.65723212504e-11
7.46120867657e-06
8.15564026629e-11
7.46112852672e-06
8.02207794013e-11
7.46106188417e-06
6.67349790858e-11
7.46101645036e-06
4.56030957571e-11
7.46101138961e-06
5.18109239629e-12
7.46108274423e-06
-7.11403781871e-11
7.46128875184e-06
-2.05744273888e-10
7.46172381067e-06
-4.34853443414e-10
7.46253795947e-06
-8.1395941821e-10
7.46396635868e-06
-1.42828846209e-09
7.46636451624e-06
-2.39804282991e-09
7.47018184566e-06
-3.81725121037e-09
7.47662909224e-06
-6.44719548662e-09
7.48739807021e-06
-1.07689395149e-08
7.5055709422e-06
-1.81728401405e-08
7.5387545256e-06
-3.31835554453e-08
7.6079684454e-06
-6.9213883424e-08
7.77463287725e-06
-1.66664364563e-07
8.22955636373e-06
-4.54923331559e-07
9.69723286733e-06
-1.46767630355e-06
-5.45162558698e-06
1.51488589474e-05
5.02175953025e-05
1.59362846483e-05
4.42441130273e-05
1.73623935575e-05
3.77795036795e-05
1.26632668844e-05
3.26461468993e-05
8.59413434443e-06
2.89380954144e-05
5.70118586046e-06
2.63596255896e-05
3.77852326654e-06
2.45875217237e-05
2.52537197985e-06
2.33734802022e-05
1.70101065261e-06
2.25435316974e-05
1.14996668891e-06
2.19782235724e-05
7.76803227048e-07
2.15955216123e-05
5.22145436268e-07
2.13387456068e-05
3.47933194727e-07
2.11685046215e-05
2.29004049214e-07
2.10573475094e-05
1.48294266224e-07
2.09861600644e-05
9.40271594587e-08
2.09416881499e-05
5.79929349966e-08
2.09148068158e-05
3.44461685328e-08
2.08993082333e-05
1.93668713155e-08
2.08910850703e-05
9.9425240663e-09
2.08872854351e-05
4.20669692605e-09
2.0886217107e-05
7.19035162051e-10
2.08864635584e-05
-9.32040377409e-10
2.08873357282e-05
-1.62990794318e-09
2.08884759472e-05
-1.86494132008e-09
2.08896499627e-05
-1.81779518843e-09
2.08907335952e-05
-1.62710674422e-09
2.08916717772e-05
-1.37992319025e-09
2.08924498237e-05
-1.12652393053e-09
2.08930754874e-05
-8.93783919664e-10
2.0893567995e-05
-6.94316457248e-10
2.08939521376e-05
-5.33002774143e-10
2.08942539535e-05
-4.09403147612e-10
2.08944651761e-05
-2.87266484666e-10
2.08946125127e-05
-1.99911070987e-10
2.08947131681e-05
-1.33658796115e-10
2.089477888e-05
-8.41553169211e-11
2.08948198058e-05
-4.96134056019e-11
2.08948441092e-05
-2.66659639661e-11
2.08948565591e-05
-1.04912717466e-11
2.0894860055e-05
1.60832002803e-12
2.08948570035e-05
1.03526686263e-11
2.08948490754e-05
1.67939422778e-11
2.08948374031e-05
2.17076130565e-11
2.08948227309e-05
2.57220392871e-11
2.08948054752e-05
2.93519055297e-11
2.08947858214e-05
3.29781319804e-11
2.08947637642e-05
3.68434799118e-11
2.08947391683e-05
4.11463713249e-11
2.08947118277e-05
4.60885609675e-11
2.08946814189e-05
5.18598660731e-11
2.08946476928e-05
5.84526155829e-11
2.08946104647e-05
6.58789176756e-11
2.08945697404e-05
7.40673279919e-11
2.08945258622e-05
8.28042844028e-11
2.08944796924e-05
9.15690229272e-11
2.08944330812e-05
9.93728009799e-11
2.08943893858e-05
1.04521502259e-10
2.08943545798e-05
1.03820225817e-10
2.08943381439e-05
9.29692832289e-11
2.08943553968e-05
6.43531498733e-11
2.08944331912e-05
2.48695141458e-12
2.08946203219e-05
-1.20203647775e-10
2.08949852505e-05
-3.1903409428e-10
2.08956464801e-05
-6.55768657374e-10
2.0896711801e-05
-1.1362609045e-09
2.0898358371e-05
-1.85203500931e-09
2.09009439353e-05
-3.02009800386e-09
2.09050162733e-05
-4.88603881263e-09
2.09114444716e-05
-7.85634060455e-09
2.09216521365e-05
-1.26056820069e-08
2.09381292596e-05
-2.02944240319e-08
2.09650214441e-05
-3.33394975396e-08
2.10092679996e-05
-5.50156102709e-08
2.10840416557e-05
-9.29464979578e-08
2.12152681459e-05
-1.64409959388e-07
2.1455854651e-05
-3.09800326724e-07
2.19136563649e-05
-6.24465979788e-07
2.28005867087e-05
-1.34185353268e-06
2.44444665922e-05
-3.11155598656e-06
-7.03807856443e-06
2.60309189303e-05
5.35171057874e-05
1.24191794011e-05
5.29349696495e-05
1.79445306272e-05
4.96538421508e-05
1.59443951299e-05
4.58401840969e-05
1.24077930627e-05
4.24400956366e-05
9.10127491571e-06
3.97291761664e-05
6.48944327234e-06
3.76873101526e-05
4.56723849406e-06
3.61976677815e-05
3.19065350537e-06
3.51326176059e-05
2.21501733634e-06
3.43823730211e-05
1.5270482786e-06
3.38606325012e-05
1.04388640394e-06
3.35023527115e-05
7.06213408241e-07
3.32596082345e-05
4.71748913374e-07
3.30975983192e-05
3.10304525751e-07
3.29913426102e-05
2.00283186935e-07
3.29231010894e-05
1.26234768585e-07
3.28804135107e-05
7.71340900317e-08
3.28546287792e-05
4.5152000548e-08
3.28398021458e-05
2.47696294746e-08
3.28318761565e-05
1.21332390136e-08
3.28280072835e-05
4.5885434642e-09
3.28270092642e-05
6.66630036964e-11
3.28271906868e-05
-1.81062649638e-09
3.28280397388e-05
-2.71330400669e-09
3.28291561161e-05
-2.93353343303e-09
3.28303039108e-05
-2.77433686426e-09
3.283136037e-05
-2.43588762205e-09
3.28322711787e-05
-2.03690875726e-09
3.28330214754e-05
-1.64373264992e-09
3.28336173566e-05
-1.28992369197e-09
3.28340737657e-05
-9.89195559653e-10
3.28344087905e-05
-7.44240575835e-10
3.2834675204e-05
-5.53466534677e-10
3.28348916361e-05
-4.16106371812e-10
3.2835038908e-05
-2.80652458022e-10
3.28351382501e-05
-1.83139491917e-10
3.28352042754e-05
-1.15231876788e-10
3.28352463854e-05
-6.83479919973e-11
3.2835271432e-05
-3.50825713866e-11
3.28352833201e-05
-9.91117489273e-12
3.28352856042e-05
8.34557333352e-12
3.28352807949e-05
2.18247910163e-11
3.28352707135e-05
3.19476539434e-11
3.28352566153e-05
3.99335246658e-11
3.28352393124e-05
4.67938852734e-11
3.28352192792e-05
5.31719178681e-11
3.28351968412e-05
5.94979798144e-11
3.2835172203e-05
6.60419867548e-11
3.2835145467e-05
7.30585586253e-11
3.28351165828e-05
8.0929689862e-11
3.28350858138e-05
8.93158555695e-11
3.28350537322e-05
9.79491336922e-11
3.28350213896e-05
1.0632213654e-10
3.28349905908e-05
1.13461656976e-10
3.2834964342e-05
1.17612389017e-10
3.2834947352e-05
1.16153690118e-10
3.28349467023e-05
1.05057069528e-10
3.28349739079e-05
7.66040624595e-11
3.28350462175e-05
2.0663974677e-11
3.28351935313e-05
-8.27764051332e-11
3.28354671184e-05
-2.70956016353e-10
3.28359560755e-05
-6.09054360237e-10
3.28366739219e-05
-1.03656752725e-09
3.28377165135e-05
-1.69810669292e-09
3.28393424288e-05
-2.76189652851e-09
3.284192701e-05
-4.43639206989e-09
3.28459741934e-05
-7.06705863592e-09
3.28522982135e-05
-1.12099415334e-08
3.28622118746e-05
-1.77699383547e-08
3.28778792321e-05
-2.82729755754e-08
3.29029600868e-05
-4.53752797341e-08
3.29428044083e-05
-7.3183920169e-08
3.30072399641e-05
-1.1945126371e-07
3.31132459375e-05
-1.9895250537e-07
3.3289830064e-05
-3.40994065372e-07
3.3585187858e-05
-6.05158007247e-07
3.40703859958e-05
-1.10966402533e-06
3.48115426582e-05
-2.0830100732e-06
3.56724428562e-05
-3.97245516903e-06
-7.10635965258e-06
3.5740727207e-05
5.35105669168e-05
8.90861297717e-06
5.55742235251e-05
1.58808748833e-05
5.52424844807e-05
1.62761348728e-05
5.35977885351e-05
1.40524896281e-05
5.15418508208e-05
1.1157213187e-05
4.95802835503e-05
8.45101105169e-06
4.79243549962e-05
6.22316753018e-06
4.66181435848e-05
4.49686539656e-06
4.56304712452e-05
3.20269015275e-06
4.49051227665e-05
2.25239723572e-06
4.43840960373e-05
1.56491359184e-06
4.40167003369e-05
1.07360955082e-06
4.3761974259e-05
7.2647538998e-07
4.35882760361e-05
4.84003112135e-07
4.34718770372e-05
3.1668252362e-07
4.33953673233e-05
2.02744817078e-07
4.33461974272e-05
1.26304352579e-07
4.33154602427e-05
7.58896047168e-08
4.32969243653e-05
4.33059923463e-08
4.32862988549e-05
2.27593150299e-08
4.32806966398e-05
1.01913868133e-08
4.32778896327e-05
2.87433828767e-09
4.32770625172e-05
-9.82824356297e-10
4.3277281106e-05
-2.93120911304e-09
4.32779693245e-05
-3.62110459168e-09
4.32788330161e-05
-3.63745031712e-09
4.32797064008e-05
-3.30876302203e-09
4.32805043565e-05
-2.8344146708e-09
4.32811905191e-05
-2.32951765802e-09
4.32817566716e-05
-1.85576316299e-09
4.32822096467e-05
-1.44191638723e-09
4.32825621887e-05
-1.09655473983e-09
4.32828240547e-05
-8.15113354136e-10
4.32829995036e-05
-5.91319705291e-10
4.32831327026e-05
-4.13564198135e-10
4.32832182817e-05
-2.68363313946e-10
4.32832725606e-05
-1.69126918237e-10
4.32833127021e-05
-1.08074799141e-10
4.32833374324e-05
-5.94122666265e-11
4.32833497552e-05
-2.18649118387e-11
4.32833530374e-05
5.32691118176e-12
4.32833492689e-05
2.57881240541e-11
4.32833401431e-05
4.12015156826e-11
4.32833268622e-05
5.33098506117e-11
4.32833101384e-05
6.36205008473e-11
4.3283290428e-05
7.30074012168e-11
4.32832680841e-05
8.2006599622e-11
4.32832434018e-05
9.09504334192e-11
4.32832167275e-05
9.99777338391e-11
4.3283188572e-05
1.09286299176e-10
4.32831595904e-05
1.18496401606e-10
4.32831306899e-05
1.26968442775e-10
4.32831033654e-05
1.33718219519e-10
4.32830797458e-05
1.37107432117e-10
4.3283062769e-05
1.34555851561e-10
4.32830569122e-05
1.2192181157e-10
4.32830702443e-05
9.16797211178e-11
4.32831147913e-05
3.2003269493e-11
4.32832098052e-05
-7.43263565983e-11
4.32833719091e-05
-2.44804457804e-10
4.32836141411e-05
-5.12962481239e-10
4.32840583245e-05
-1.05304665879e-09
4.32848309862e-05
-1.80905279055e-09
4.32860857738e-05
-2.9527130182e-09
4.32880303913e-05
-4.70633832381e-09
4.32910148262e-05
-7.42058514571e-09
4.32955985991e-05
-1.16506170888e-08
4.33026601458e-05
-1.82713842032e-08
4.33135813939e-05
-2.8691160965e-08
4.33305198699e-05
-4.52114422727e-08
4.33567839638e-05
-7.16394198478e-08
4.33979426874e-05
-1.14342674113e-07
4.34628447026e-05
-1.84353262583e-07
4.35652091838e-05
-3.01316993431e-07
4.37249818282e-05
-5.00766634473e-07
4.39667434418e-05
-8.46919415971e-07
4.43071339709e-05
-1.45005447819e-06
4.47074136608e-05
-2.48328997428e-06
4.49266242263e-05
-4.19166609514e-06
-6.57704269771e-06
4.43973091032e-05
5.2735138452e-05
6.1734749938e-06
5.5730935691e-05
1.28850784607e-05
5.73114761656e-05
1.46955950578e-05
5.76109942503e-05
1.37529721356e-05
5.71335256343e-05
1.16346823406e-05
5.63194716594e-05
9.26506552399e-06
5.54489920381e-05
7.09364761777e-06
5.4662982043e-05
5.2828758582e-06
5.40136870559e-05
3.851985604e-06
5.35061563111e-05
2.75992844606e-06
5.31242609809e-05
1.94680936909e-06
5.28449920276e-05
1.35287893441e-06
5.2645446356e-05
9.2602145172e-07
5.25057226702e-05
6.23727154402e-07
5.24097284509e-05
4.12677077719e-07
5.23450229991e-05
2.67450613965e-07
5.2302285758e-05
1.69041966754e-07
5.22746992148e-05
1.03476575834e-07
5.22573753336e-05
6.06303758213e-08
5.22468673457e-05
3.32678762246e-08
5.22407683531e-05
1.62910095243e-08
5.22374601604e-05
6.18319295725e-09
5.22359621238e-05
5.15887735848e-10
5.22354547442e-05
-2.42315770731e-09
5.22355202025e-05
-3.6859096022e-09
5.22358660981e-05
-3.98273663439e-09
5.2236320701e-05
-3.76282619676e-09
5.22367873657e-05
-3.30060943441e-09
5.22372149865e-05
-2.75674017625e-09
5.22375808311e-05
-2.22128945081e-09
5.2237878203e-05
-1.7390350487e-09
5.22381099168e-05
-1.32805829867e-09
5.22382862854e-05
-9.91264260161e-10
5.22384192232e-05
-7.24056392028e-10
5.22385196982e-05
-5.13795167454e-10
5.22386045068e-05
-3.52881459785e-10
5.22386702723e-05
-2.34512284352e-10
5.22387128723e-05
-1.50338356125e-10
5.22387458666e-05
-9.20565561545e-11
5.22387615273e-05
-3.7222160307e-11
5.22387669428e-05
1.53011167504e-13
5.22387647035e-05
2.81819797518e-11
5.22387567966e-05
4.92113008192e-11
5.22387445642e-05
6.56305045039e-11
5.22387289145e-05
7.93619182435e-11
5.22387104481e-05
9.15842499672e-11
5.22386896481e-05
1.02926050349e-10
5.22386671923e-05
1.13541458391e-10
5.22386441721e-05
1.23088096816e-10
5.22386184657e-05
1.35064641871e-10
5.22385917748e-05
1.45149767688e-10
5.22385652083e-05
1.53411088012e-10
5.22385403514e-05
1.58380185883e-10
5.2238519824e-05
1.57425404653e-10
5.22385090444e-05
1.45174720323e-10
5.22385177786e-05
1.13030407269e-10
5.22385486636e-05
6.06605688234e-11
5.22386248255e-05
-4.41238478856e-11
5.2238744725e-05
-1.94307376288e-10
5.22389390181e-05
-4.39051543044e-10
5.22392766141e-05
-8.50528503184e-10
5.22397940394e-05
-1.57029317267e-09
5.22405666771e-05
-2.58150032078e-09
5.22417271568e-05
-4.11297127833e-09
5.22434786888e-05
-6.45770643102e-09
5.22461225689e-05
-1.00643025387e-08
5.22501105989e-05
-1.56385426165e-08
5.22561338128e-05
-2.42945351013e-08
5.22652509109e-05
-3.78082194654e-08
5.22790790586e-05
-5.90396423583e-08
5.23000758426e-05
-9.26363305989e-08
5.23319566202e-05
-1.46223563514e-07
5.2380064166e-05
-2.32460908257e-07
5.2451323546e-05
-3.72576460844e-07
5.25525968129e-05
-6.02039868618e-07
5.26844268442e-05
-9.78749329611e-07
5.28245858982e-05
-1.59021333919e-06
5.28915880756e-05
-2.55029215804e-06
5.267297864e-05
-3.97305713304e-06
-5.76811824463e-06
5.18640552028e-05
5.1983486917e-05
4.18998851615e-06
5.50586651976e-05
9.80990094031e-06
5.76386150579e-05
1.21156458166e-05
5.93259055705e-05
1.20656821885e-05
6.02280181204e-05
1.07325703107e-05
6.0592929784e-05
8.90015435749e-06
6.06482871555e-05
7.03829072256e-06
6.05531931327e-05
5.3779703507e-06
6.04029589882e-05
4.00222022124e-06
6.02479189091e-05
2.91496900415e-06
6.01107937962e-05
2.08393495317e-06
5.99990346694e-05
1.46463850637e-06
5.99125198618e-05
1.01253667467e-06
5.98479283071e-05
6.88319090561e-07
5.98010250631e-05
4.59580697095e-07
5.97677407284e-05
3.00735321136e-07
5.97445997052e-05
1.9218339016e-07
5.97288215278e-05
1.19255204417e-07
5.97182737938e-05
7.11786194236e-08
5.97113680701e-05
4.01741717758e-08
5.97069492383e-05
2.07104635451e-08
5.97042158989e-05
8.91719283841e-09
5.97026074464e-05
2.12501583458e-09
5.97017034992e-05
-1.51854010899e-09
5.97012457891e-05
-3.22753217786e-09
5.97010568311e-05
-3.79313784389e-09
5.97010210806e-05
-3.72646951659e-09
5.97010658453e-05
-3.34484132632e-09
5.97011474042e-05
-2.83782150781e-09
5.97012400757e-05
-2.31355356576e-09
5.97013299721e-05
-1.82861773985e-09
5.97014105046e-05
-1.40832573618e-09
5.97014802734e-05
-1.06079324386e-09
5.97015399288e-05
-7.83420896941e-10
5.97015902695e-05
-5.63871429447e-10
5.97016302387e-05
-3.92521785361e-10
5.97016582579e-05
-2.62151625485e-10
5.97016737481e-05
-1.65442677367e-10
5.97016723817e-05
-9.0333598438e-11
5.9701664628e-05
-2.9170672265e-11
5.97016582484e-05
6.73483467305e-12
5.97016491872e-05
3.74023998496e-11
5.97016388862e-05
5.95860677798e-11
5.97016273918e-05
7.72010245668e-11
5.97016137018e-05
9.31699632955e-11
5.97015976912e-05
1.07781891586e-10
5.97015794364e-05
1.21441848977e-10
5.9701558953e-05
1.34361127012e-10
5.9701536033e-05
1.46390810896e-10
5.97015139874e-05
1.57488155294e-10
5.97014927073e-05
1.66776198079e-10
5.97014734181e-05
1.72955609438e-10
5.97014577759e-05
1.74170856809e-10
5.97014473499e-05
1.67921902777e-10
5.97014412168e-05
1.5135115682e-10
5.97014323071e-05
1.21926634924e-10
5.97014370243e-05
5.59786261387e-11
5.97014488634e-05
-5.59321256564e-11
5.97015320529e-05
-2.77353298126e-10
5.97017204571e-05
-6.27376142324e-10
5.97020198928e-05
-1.14980682566e-09
5.97024062588e-05
-1.95657382e-09
5.97029838996e-05
-3.15904777103e-09
5.9703835259e-05
-4.96425187021e-09
5.97050742434e-05
-7.69657244828e-09
5.97068657457e-05
-1.18557340337e-08
5.97094476985e-05
-1.82204248824e-08
5.97131638382e-05
-2.80106568914e-08
5.97185035576e-05
-4.3147947289e-08
5.972614712e-05
-6.6683301017e-08
5.9736995518e-05
-1.03484849263e-07
5.97521104655e-05
-1.61338640509e-07
5.97723283266e-05
-2.52678939758e-07
5.97970559541e-05
-3.97304194939e-07
5.98211348893e-05
-6.26118839972e-07
5.98276883856e-05
-9.85302671344e-07
5.97746752559e-05
-1.53719986776e-06
5.95741764251e-05
-2.34979307537e-06
5.90683759267e-05
-3.46725687544e-06
-4.79681869769e-06
5.80970770566e-05
5.14373058131e-05
2.75268311784e-06
5.42658217808e-05
6.98138569244e-06
5.72496450542e-05
9.13182311842e-06
5.97900299585e-05
9.52529781921e-06
6.17201309472e-05
8.80246981765e-06
6.30883063513e-05
7.53197942495e-06
6.40167203499e-05
6.109877193e-06
6.46292405691e-05
4.76545059137e-06
6.50258079497e-05
3.60565330771e-06
6.52790829402e-05
2.66169447156e-06
6.54389783971e-05
1.92403994773e-06
6.55386956199e-05
1.36492171692e-06
6.5599934528e-05
9.51298171461e-07
6.56367497036e-05
6.51504307727e-07
6.56582011601e-05
4.38129623373e-07
6.56701097502e-05
2.88827125208e-07
6.5676199383e-05
1.86094180698e-07
6.56788361259e-05
1.16618926625e-07
6.56795070501e-05
7.0508211256e-08
6.56791313804e-05
4.05504070844e-08
6.56782645679e-05
2.15778898012e-08
6.56772342744e-05
9.94813812242e-09
6.56762256749e-05
3.13428379168e-09
6.56753170609e-05
-6.09259800149e-10
6.56745490397e-05
-2.45886172279e-09
6.56739213525e-05
-3.16481697782e-09
6.56734231099e-05
-3.22762089218e-09
6.56730368104e-05
-2.95800746416e-09
6.56727434457e-05
-2.54401461381e-09
6.56725248453e-05
-2.0945766925e-09
6.5672364903e-05
-1.66835797251e-09
6.5672249938e-05
-1.29313931957e-09
6.56721678588e-05
-9.7852675167e-10
6.56721080752e-05
-7.23454432468e-10
6.56720648454e-05
-5.20406668068e-10
6.56720339471e-05
-3.61359683477e-10
6.56720092703e-05
-2.37129295888e-10
6.5671988079e-05
-1.43888083076e-10
6.56719735046e-05
-7.54234730898e-11
6.56719721069e-05
-2.74867913087e-11
6.56719707955e-05
8.24765351633e-12
6.56719636018e-05
4.47096927008e-11
6.56719536485e-05
6.95574333602e-11
6.56719412777e-05
8.95567286499e-11
6.56719273794e-05
1.07059858061e-10
6.5671912006e-05
1.23192454708e-10
6.56718950208e-05
1.38494066961e-10
6.56718763736e-05
1.53117662647e-10
6.5671856486e-05
1.66423487551e-10
6.5671837449e-05
1.76647572957e-10
6.5671818135e-05
1.86180060801e-10
6.56717990365e-05
1.92122884818e-10
6.56717812854e-05
1.91958207403e-10
6.56717667698e-05
1.82431272237e-10
6.56717592718e-05
1.58774805275e-10
6.5671766233e-05
1.15002073503e-10
6.5671772908e-05
4.92333072988e-11
6.56718052081e-05
-8.81617655547e-11
6.56718729108e-05
-3.45079235622e-10
6.56719707544e-05
-7.25198909159e-10
6.56721206348e-05
-1.29970643656e-09
6.5672329451e-05
-2.16534060968e-09
6.56726137186e-05
-3.4432286533e-09
6.56729899638e-05
-5.34042213904e-09
6.5673469106e-05
-8.17562811955e-09
6.56740487368e-05
-1.24352748756e-08
6.56746986952e-05
-1.88703280577e-08
6.56753333254e-05
-2.86452626469e-08
6.56757515358e-05
-4.3566225694e-08
6.56755257202e-05
-6.64576347679e-08
6.56737869116e-05
-1.01746185405e-07
6.56688014495e-05
-1.56353344464e-07
6.56570353935e-05
-2.40912989249e-07
6.5631361135e-05
-3.71629964331e-07
6.55776299878e-05
-5.72387757021e-07
6.54686141926e-05
-8.76286970474e-07
6.52551572981e-05
-1.32374277253e-06
6.48572334121e-05
-1.95186882246e-06
6.4162408665e-05
-2.77243213359e-06
-3.71494835564e-06
6.30805387657e-05
5.10850427926e-05
1.6676407066e-06
5.36118457492e-05
4.45458343128e-06
5.66873182855e-05
6.0563511429e-06
5.96894488603e-05
6.52316776366e-06
6.22997299907e-05
6.19218917873e-06
6.44136920375e-05
5.41801784671e-06
6.60471886533e-05
4.47638105396e-06
6.72686206585e-05
3.54401905246e-06
6.81599001652e-05
2.71437427961e-06
6.87977672405e-05
2.02382787005e-06
6.92467521052e-05
1.47505554882e-06
6.95579714332e-05
1.05370283949e-06
6.97704386056e-05
7.38831421681e-07
6.99131821818e-05
5.08761138829e-07
7.00073938374e-05
3.43918377001e-07
7.00683039947e-05
2.27917386142e-07
7.01067066693e-05
1.47691946286e-07
7.01301496694e-05
9.31764029235e-08
7.01438395341e-05
5.68188626852e-08
7.01513164102e-05
3.307408683e-08
7.01549496918e-05
1.79452028368e-08
7.01562983012e-05
8.60015620788e-09
7.01563710376e-05
3.06220589062e-09
7.01557798712e-05
-1.74199101865e-11
7.01549198748e-05
-1.59817949139e-09
7.01539971439e-05
-2.24140410356e-09
7.01531293704e-05
-2.35917744882e-09
7.01523701883e-05
-2.19819629743e-09
7.01517367766e-05
-1.91004605525e-09
7.01512262419e-05
-1.58360030484e-09
7.01508256763e-05
-1.26742852954e-09
7.01505181318e-05
-9.85290544889e-10
7.01502859957e-05
-7.46129475707e-10
7.01501131415e-05
-5.50350376928e-10
7.01499865958e-05
-3.93621199321e-10
7.01498957354e-05
-2.70225389228e-10
7.01498334663e-05
-1.74557101784e-10
7.01497922887e-05
-1.02395694364e-10
7.01497641339e-05
-4.69756504364e-11
7.01497344452e-05
2.4550974334e-12
7.01497113734e-05
3.15538283665e-11
7.014969856e-05
5.76829857246e-11
7.0149688205e-05
8.00413602843e-11
7.01496784489e-05
9.94171681201e-11
7.01496685835e-05
1.17056151392e-10
7.0149658235e-05
1.33685750131e-10
7.01496473065e-05
1.496501689e-10
7.01496358029e-05
1.64892879352e-10
7.01496235101e-05
1.79032531284e-10
7.01496090242e-05
1.91460333909e-10
7.01495942387e-05
2.01272307075e-10
7.01495799527e-05
2.06664390732e-10
7.01495669473e-05
2.05195125783e-10
7.01495557046e-05
1.9372327639e-10
7.01495459482e-05
1.68649684877e-10
7.01495349786e-05
1.26014739636e-10
7.01495271518e-05
5.71096890523e-11
7.01495169234e-05
-7.79706408237e-11
7.01495268004e-05
-3.5485243101e-10
7.01495489775e-05
-7.47334109146e-10
7.01495713708e-05
-1.32206081642e-09
7.0149572281e-05
-2.16624681917e-09
7.01495248721e-05
-3.39575117096e-09
7.0149375813e-05
-5.19127044431e-09
7.01490260221e-05
-7.82586155018e-09
7.0148300265e-05
-1.17095978207e-08
7.0146896921e-05
-1.74670795492e-08
7.01443042978e-05
-2.60527560183e-08
7.01396479177e-05
-3.89100256881e-08
7.0131446511e-05
-5.825642894e-08
7.0117211053e-05
-8.75109602617e-08
7.00927872636e-05
-1.31929796686e-07
7.00510860383e-05
-1.99211880911e-07
6.99801355486e-05
-3.00679505068e-07
6.98599741085e-05
-4.52226169255e-07
6.96581646071e-05
-6.74477329063e-07
6.93248066976e-05
-9.90384747177e-07
6.8790372337e-05
-1.41743422661e-06
6.7972305121e-05
-1.95436486824e-06
-2.55520630226e-06
6.68125634356e-05
5.08804136177e-05
7.87227443931e-07
5.31704673592e-05
2.16453035402e-06
5.62177515361e-05
3.00906751364e-06
5.94382721076e-05
3.30264770458e-06
6.24449724509e-05
3.18548932968e-06
6.50382563533e-05
2.82473441661e-06
6.71548703807e-05
2.3597674907e-06
6.88135693116e-05
1.88532058149e-06
7.00731757387e-05
1.45476831531e-06
7.10056731156e-05
1.09133095392e-06
7.16812698135e-05
7.99459310811e-07
7.21614295589e-05
5.73543531753e-07
7.2496610869e-05
4.03650542148e-07
7.27264878027e-05
2.78884628174e-07
7.2881287081e-05
1.89119515931e-07
7.29834772314e-05
1.25727669369e-07
7.30494214295e-05
8.17482046748e-08
7.30908239818e-05
5.17743418669e-08
7.3115918399e-05
3.17249686175e-08
7.31304034145e-05
1.85896185284e-08
7.31381586522e-05
1.01905270416e-08
7.31417796372e-05
4.9797575767e-09
7.31429679236e-05
1.87452951475e-09
7.3142822146e-05
1.29010843524e-10
7.3141999575e-05
-7.74921224461e-10
7.31409173445e-05
-1.15847520348e-09
7.31398031399e-05
-1.24429999617e-09
7.31387763604e-05
-1.17076599847e-09
7.31378894335e-05
-1.02254009217e-09
7.31371562012e-05
-8.49847672379e-10
7.31365693147e-05
-6.80135374228e-10
7.31361113903e-05
-5.27063441311e-10
7.31357615797e-05
-3.9608505633e-10
7.31354992946e-05
-2.87854248085e-10
7.31353062363e-05
-2.00330970149e-10
7.31351667698e-05
-1.30535892863e-10
7.31350676635e-05
-7.51913721205e-11
7.31349963398e-05
-3.08211168808e-11
7.31349434964e-05
6.08914747501e-12
7.31349139666e-05
3.21809974066e-11
7.31348910296e-05
5.460853257e-11
7.31348743455e-05
7.44039817204e-11
7.31348620545e-05
9.23283289081e-11
7.31348523991e-05
1.09066208491e-10
7.31348441387e-05
1.25335899076e-10
7.31348364297e-05
1.41471253568e-10
7.31348286658e-05
1.57538372548e-10
7.31348204171e-05
1.73333757493e-10
7.31348113837e-05
1.88288753346e-10
7.31348015136e-05
2.015865381e-10
7.31347908115e-05
2.12193588506e-10
7.31347793566e-05
2.18321571102e-10
7.31347672438e-05
2.17456355188e-10
7.31347547451e-05
2.06368982495e-10
7.31347424104e-05
1.81073365813e-10
7.31347313525e-05
1.37209446177e-10
7.31347161822e-05
7.23100185524e-11
7.31346927564e-05
-5.45582215273e-11
7.31346508081e-05
-3.12971609733e-10
7.31345844411e-05
-6.80975334381e-10
7.3134469906e-05
-1.20755860437e-09
7.31342638004e-05
-1.96028842089e-09
7.31338981259e-05
-3.03017593917e-09
7.31332578844e-05
-4.55107171271e-09
7.31321499886e-05
-6.71797665121e-09
7.31302524996e-05
-9.81212208895e-09
7.31270380711e-05
-1.42526831437e-08
7.31216513379e-05
-2.06661240387e-08
7.31126790474e-05
-2.99378528854e-08
7.3097816187e-05
-4.33936390534e-08
7.3073355457e-05
-6.30503207429e-08
7.30333987388e-05
-9.19731879471e-08
7.29684306909e-05
-1.34243975531e-07
7.2863432023e-05
-1.95680906857e-07
7.26952337186e-05
-2.84027906045e-07
7.24293311059e-05
-4.08574561717e-07
7.20173555492e-05
-5.78408964885e-07
7.1398098302e-05
-7.98176706383e-07
7.05059894686e-05
-1.06225592791e-06
-1.34559193471e-06
6.92963754448e-05
5.07871730181e-05
5.47686004501e-11
5.29516510283e-05
5.29947589606e-11
5.59606902645e-05
2.88171027902e-11
5.92633242911e-05
1.41910281257e-11
6.24488113585e-05
2.74995218459e-12
6.5273552344e-05
-6.08943191037e-12
6.76333322614e-05
-1.19647717364e-11
6.95186681876e-05
-1.48767992235e-11
7.09734522479e-05
-1.52793744658e-11
7.2064797443e-05
-1.37806587293e-11
7.28642682136e-05
-1.10101745184e-11
7.34378198113e-05
-7.62540871424e-12
7.38414750687e-05
-4.27881819745e-12
7.41203617367e-05
-1.60573676603e-12
7.43094818625e-05
-1.7377306537e-13
7.44352103635e-05
-3.80627203796e-13
7.4516961507e-05
-2.46905471468e-12
7.45687425441e-05
-6.2109531231e-12
7.46004789901e-05
-1.09808412107e-11
7.46190849337e-05
-1.58192701265e-11
7.46292955912e-05
-1.96123267995e-11
7.46342971608e-05
-2.12781933187e-11
7.46361926121e-05
-2.03543549162e-11
7.46363403519e-05
-1.81103495079e-11
7.46355818076e-05
-1.57068526028e-11
7.46344367314e-05
-1.26855831322e-11
7.46332023514e-05
-9.21574658107e-12
7.46320375941e-05
-5.32196544237e-12
7.46310163176e-05
-6.48519480119e-13
7.46301633405e-05
3.61704517696e-12
7.46294753529e-05
8.2739760463e-12
7.46289353135e-05
1.33103765933e-11
7.46285208285e-05
1.86547901631e-11
7.46282088519e-05
2.43450021858e-11
7.46279782242e-05
3.05610157642e-11
7.462781061e-05
3.73857898506e-11
7.46276908404e-05
4.49143991561e-11
7.46276072333e-05
5.31020357206e-11
7.46275516186e-05
6.19837136441e-11
7.46275127977e-05
7.12244161106e-11
7.46274867956e-05
8.07575619415e-11
7.46274697556e-05
9.15027459469e-11
7.46274587151e-05
1.03356952808e-10
7.46274514952e-05
1.16284854214e-10
7.46274465628e-05
1.3027060916e-10
7.4627442907e-05
1.45225719978e-10
7.46274397942e-05
1.60887060494e-10
7.46274366533e-05
1.76778130102e-10
7.46274330633e-05
1.92247094006e-10
7.46274286272e-05
2.06389019549e-10
7.46274231186e-05
2.18020736752e-10
7.46274163072e-05
2.25402227482e-10
7.46274078312e-05
2.26177318788e-10
7.46273970042e-05
2.1736163314e-10
7.46273827049e-05
1.9552395263e-10
7.46273631411e-05
1.56864820339e-10
7.46273376442e-05
9.79561721774e-11
7.46272926317e-05
-9.50398709468e-12
7.46272046251e-05
-2.24952402605e-10
7.46270688702e-05
-5.45239726188e-10
7.46268460361e-05
-9.84765839052e-10
7.46264753907e-05
-1.58963615635e-09
7.46258605376e-05
-2.41536002548e-09
7.46248447099e-05
-3.53532950662e-09
7.46231728271e-05
-5.04623504167e-09
7.46204281218e-05
-7.06749481248e-09
7.46159443094e-05
-9.76894436294e-09
7.4608663421e-05
-1.33853676173e-08
7.45968482452e-05
-1.8122852613e-08
7.45776978539e-05
-2.42434523002e-08
7.45467961131e-05
-3.21487970768e-08
7.4497414405e-05
-4.259159855e-08
7.44188146577e-05
-5.56443354935e-08
7.42946002738e-05
-7.14665477771e-08
7.41003939468e-05
-8.98215768177e-08
7.38013798538e-05
-1.09560421503e-07
7.3350896458e-05
-1.27925417511e-07
7.26924678e-05
-1.39747801378e-07
7.17680536679e-05
-1.37841686573e-07
-1.13713797445e-07
7.05361758636e-05
5.07871719738e-05
-7.87116859877e-07
5.29516501718e-05