/*--------------------------------*- C++ -*----------------------------------*\
| =========                 |                                                 |
| \\      /  F ield         | OpenFOAM: The Open Source CFD Toolbox           |
|  \\    /   O peration     | Version:  2106                                  |
|   \\  /    A nd           | Website:  www.openfoam.com                      |
|    \\/     M anipulation  |                                                 |
\*---------------------------------------------------------------------------*/
FoamFile
{
    version     2.0;
    format      ascii;
    arch        "LSB;label=32;scalar=64";
    class       volScalarField;
    location    "0.02";
    object      p;
}
// * * * * * * * * * * * * * * * * * * * * * * * * * * * * * * * * * * * * * //

dimensions      [0 2 -2 0 0 0 0];

internalField   nonuniform List<scalar> 
9600
(
4.10269465628
1.20614038549
0.3047979887
-0.0768267831397
-0.291616921543
-0.427341570929
-0.528329827045
-0.615046580815
-0.696200399359
-0.775741842498
-0.855476811179
-0.936113393957
-1.01780728391
-1.10046502085
-1.18390078554
-1.26794076655
-1.35241167605
-1.43718597071
-1.52216896699
-1.6072920198
-1.69250685349
-1.77778031056
-1.86308982734
-1.94842013035
-2.03376101916
-2.11910561439
-2.20444920559
-2.28978844889
-2.37512092552
-2.46044473915
-2.54575822685
-2.63106000027
-2.71634866347
-2.80162280917
-2.88688097507
-2.97212165391
-3.0573431258
-3.14254371995
-3.22772149296
-3.31287436969
-3.39800010741
-3.48309628274
-3.5681602575
-3.65318922001
-3.73818013409
-3.82312970406
-3.90803437901
-3.99289034743
-4.07769350666
-4.16243943731
-4.24712338895
-4.33174026466
-4.41628460412
-4.50075056476
-4.58513189184
-4.6694218831
-4.75361336465
-4.83769867658
-4.92166965269
-5.00551758785
-5.08923320241
-5.17280660834
-5.25622727756
-5.33948401126
-5.42256490716
-5.5054573257
-5.58814784968
-5.67062223971
-5.752865405
-5.83486136344
-5.91659319588
-5.99804300451
-6.07919186677
-6.16001979223
-6.24050568196
-6.32062728728
-6.40036116901
-6.47968265375
-6.55856578414
-6.63698326566
-6.71490641665
-6.79230512584
-6.86914781833
-6.94540142102
-7.02103131818
-7.09600130264
-7.17027351907
-7.24380842726
-7.31656476391
-7.38849950866
-7.45956786579
-7.52972321972
-7.59891709321
-7.66709910921
-7.73421696876
-7.80021644468
-7.86504138077
-7.92863366824
-7.99093320208
-8.05187785683
-8.11140349779
-8.16944400457
-8.22593128685
-8.28079528091
-8.3339639353
-8.38536322164
-8.43491717175
-8.48254793198
-8.52817581434
-8.57171930645
-8.61309510277
-8.65221817285
-8.68900183088
-8.72335781728
-8.75519636195
-8.78442618641
-8.81095470095
-8.83468804124
-8.85553112034
-8.87338773407
-8.88816071143
-8.89975204847
-8.90806296097
-8.91299391533
-8.91444472904
-8.91231482529
-8.90650373673
-8.89691054215
-8.8834327322
-8.86596798839
-8.84441401275
-8.81866819784
-8.78862738267
-8.75418781625
-8.71524507303
-8.6716936307
-8.6234263253
-8.57033394755
-8.5123046248
-8.44922255174
-8.38096646347
-8.30740841028
-8.22841224393
-8.14383065578
-8.05350086429
-7.95724000429
-7.85483977199
-7.74605822536
-7.63060752733
-7.50813710532
-7.37820914349
-7.24025823883
-7.09352057223
-6.93690451605
-6.76875311951
-6.58648596835
-6.38608967369
-6.16095937554
-5.90991321112
-5.73122674487
2.19012615609
1.00876374565
0.401386495558
0.0494050057373
-0.190491165511
-0.358192585397
-0.484030205707
-0.587673235459
-0.67977662408
-0.766173163421
-0.850079336956
-0.933181327142
-1.01628696904
-1.09972585396
-1.18358615913
-1.26783217608
-1.35239985187
-1.43721432267
-1.52220931999
-1.60733157109
-1.6925407703
-1.77780747438
-1.86311075741
-1.94843598254
-2.0337729872
-2.11911470826
-2.20445626788
-2.28979414255
-2.3751257455
-2.4604490392
-2.54576230947
-2.63106404293
-2.71635282368
-2.80162719016
-2.88688567625
-2.97212674205
-3.05734877091
-3.14254989462
-3.22772823201
-3.31288172842
-3.39800814666
-3.48310506072
-3.56816981244
-3.65319961405
-3.73819143249
-3.82314197409
-3.90804768892
-3.99290476552
-4.07770910954
-4.162456316
-4.24714164053
-4.33175998537
-4.41630589588
-4.50077354226
-4.58515667911
-4.66944860652
-4.7536421517
-4.83772966013
-4.92170297593
-5.0055534069
-5.08927168388
-5.17284792453
-5.25627160449
-5.33953153119
-5.42261581402
-5.50551182886
-5.58820617354
-5.67068461061
-5.75293205665
-5.83493254186
-5.91666915955
-5.99812402285
-6.07927821943
-6.16011176926
-6.24060358411
-6.32073142808
-6.40047187699
-6.47980027194
-6.55869066676
-6.63711577408
-6.71504691809
-6.79245399737
-6.86930545336
-6.94556823127
-7.02120772316
-7.0961877338
-7.1704704062
-7.24401620843
-7.3167838922
-7.38873045286
-7.45981110534
-7.52997924015
-7.59918637704
-7.66738213911
-7.73451423887
-7.80052847141
-7.86536869367
-7.92897679292
-7.9912926509
-8.05225413159
-8.11179711031
-8.16985548727
-8.22636117929
-8.28124411242
-8.33443222325
-8.38585149529
-8.43542599507
-8.48307784316
-8.52872733741
-8.5722929416
-8.61369132667
-8.65283745048
-8.68964461104
-8.72402445874
-8.755887008
-8.785140994
-8.8116939658
-8.83545209997
-8.85632032655
-8.87420244495
-8.88900129411
-8.9006189062
-8.90895657254
-8.91391485501
-8.91539366385
-8.91329235188
-8.90750956444
-8.8979438212
-8.8844943072
-8.86705963667
-8.84553812871
-8.81982790067
-8.78982679777
-8.75543240114
-8.71654194705
-8.67305188395
-8.62485731931
-8.57185188026
-8.51392768534
-8.45097446962
-8.38287786917
-8.30951798891
-8.23076863275
-8.14649608176
-8.05655636091
-7.96079147384
-7.85902577839
-7.7510621652
-7.63667621826
-7.51560794116
-7.38755340984
-7.2521569358
-7.10900275071
-6.95761537659
-6.79749883609
-6.62835059225
-6.45072472305
-6.26640598195
-6.07911944293
-5.92494244429
1.21330188502
0.732814517488
0.342229727336
0.0516671001053
-0.168224846537
-0.334119448924
-0.46443046985
-0.573393656554
-0.669970817783
-0.759692559961
-0.845912041761
-0.930556891479
-1.0146618331
-1.09873389538
-1.18298578098
-1.26747495699
-1.35219113006
-1.43709367014
-1.52214114044
-1.60729428279
-1.69252134953
-1.77779816078
-1.86310702802
-1.94843526774
-2.03377380367
-2.11911626401
-2.20445815778
-2.28979615258
-2.37512778294
-2.46045108169
-2.54576438078
-2.63106616638
-2.71635501105
-2.80162946996
-2.88688806415
-2.97212925522
-3.05735141569
-3.14255274391
-3.22773132372
-3.31288508987
-3.39801179731
-3.48310899702
-3.56817410657
-3.65320429247
-3.73819651466
-3.82314749066
-3.90805367718
-3.99291126214
-4.07771615039
-4.16246393688
-4.24714987697
-4.33176887899
-4.41631549793
-4.50078390783
-4.58516785993
-4.66946065246
-4.75365511804
-4.83774361167
-4.92171798483
-5.00556954815
-5.08928903198
-5.17286655401
-5.25629159355
-5.33955296471
-5.42263878316
-5.50553642911
-5.58823250862
-5.67071278095
-5.75296216314
-5.83496469572
-5.91670347601
-5.99816061974
-6.07931721915
-6.16015330047
-6.2406477823
-6.32077843553
-6.40052184157
-6.47985334559
-6.55874700446
-6.63717553411
-6.7151102625
-6.79252109627
-6.8693764832
-6.94564337944
-7.02128716749
-7.0962716689
-7.1705590107
-7.24410967374
-7.3168824223
-7.38883425394
-7.45992038441
-7.53009420533
-7.59930723857
-7.6675091086
-7.73464753323
-7.80066831121
-7.8655152908
-7.92913035636
-7.99145338537
-8.05242223593
-8.11197279478
-8.17003897528
-8.22655268679
-8.28144383408
-8.33464032581
-8.38606810345
-8.43565117919
-8.48331170015
-8.52897000717
-8.5725445704
-8.61395207174
-8.65310749176
-8.68992418144
-8.7243139341
-8.75618709918
-8.78545241683
-8.81201716045
-8.83578748221
-8.85666838349
-8.87456376539
-8.88937654837
-8.90100881406
-8.90936192161
-8.91433659051
-8.9158329956
-8.91375093728
-8.90798996598
-8.89844925754
-8.88502766721
-8.86762394747
-8.84613689761
-8.82046533981
-8.79050801137
-8.75616353685
-8.71733048865
-8.6739072499
-8.62579152484
-8.57287986224
-8.51506755412
-8.45224855427
-8.38431471061
-8.31115430583
-8.23265079639
-8.14868228346
-8.05912064689
-7.9638292365
-7.86266036483
-7.75545413893
-7.64203753671
-7.5222227064
-7.39580793474
-7.26258669258
-7.12236946005
-6.97503152295
-6.82061902074
-6.65960843084
-6.49350362365
-6.32535257858
-6.15927474472
-6.00871421401
0.661204431664
0.475673869765
0.233668655853
0.0117608318991
-0.174395550046
-0.327003340203
-0.454089651746
-0.563738874344
-0.662189372086
-0.753875368402
-0.841756812157
-0.927677802542
-1.01271067545
-1.09743397029
-1.18213103027
-1.26692026397
-1.35183801092
-1.43686870346
-1.52199997358
-1.60720694777
-1.69246811661
-1.77776628776
-1.863088364
-1.9484246824
-2.03376809719
-2.11911348693
-2.20445710013
-2.28979612699
-2.37512834189
-2.46045199706
-2.54576551235
-2.63106744852
-2.71635639267
-2.80163094451
-2.88688965122
-2.97213096276
-3.05735323597
-3.14255468925
-3.22773340528
-3.3128873155
-3.39801417451
-3.48311155321
-3.56817685405
-3.6532072639
-3.73819974244
-3.82315100112
-3.90805748944
-3.99291538767
-4.07772059594
-4.16246870906
-4.24715499168
-4.33177436219
-4.41632137976
-4.50079021968
-4.58517463958
-4.66946794834
-4.75366298511
-4.83775210273
-4.92172714567
-5.00557941997
-5.08929965732
-5.17287798027
-5.25630387159
-5.33956614596
-5.42265291669
-5.50555155655
-5.58824865659
-5.67073000838
-5.75298055245
-5.83498431606
-5.91672439469
-5.99818290581
-6.07934094553
-6.16017854456
-6.24067462544
-6.3208069615
-6.40055213519
-6.47988549247
-6.55878109156
-6.63721165207
-6.71514850611
-6.79256156775
-6.86941928501
-6.94568863009
-7.02133496358
-7.09632213789
-7.1706122372
-7.24416577123
-7.31694152673
-7.38889649159
-7.4599858787
-7.53016308236
-7.59937962785
-7.66758514509
-7.7347273586
-7.80075207285
-7.86560313404
-7.92922244513
-7.99154988145
-8.05252329313
-8.11207858575
-8.17014969541
-8.22666853191
-8.28156499531
-8.33476700571
-8.38620056301
-8.43578978119
-8.48345683986
-8.52912197649
-8.57270363315
-8.61411849442
-8.65328154974
-8.69010612856
-8.72450393822
-8.75638515591
-8.7856586048
-8.81223173986
-8.83601076149
-8.85690071249
-8.87480559378
-8.8896284593
-8.90127149486
-8.90963614273
-8.91462325465
-8.91613321596
-8.91406602372
-8.90832136579
-8.89879876102
-8.88539770725
-8.86801770864
-8.84655831884
-8.82091924581
-8.79100038366
-8.7567017053
-8.71792323473
-8.67456520746
-8.62652801621
-8.57371164497
-8.51601513886
-8.45333670673
-8.38557387132
-8.31262267811
-8.23437637914
-8.15072492237
-8.06155507402
-7.9667498097
-7.86618718761
-7.75974034425
-7.64727953959
-7.52867570431
-7.40380637145
-7.27257036784
-7.13491845374
-6.99090590335
-6.8407801952
-6.68513940815
-6.52520151596
-6.36288717502
-6.20008312411
-6.04075877457
0.323490238742
0.27230131148
0.128680047223
-0.035313894437
-0.189013917982
-0.326118985701
-0.447336072893
-0.555750731593
-0.654934599923
-0.748003631632
-0.837306022414
-0.924444754659
-1.01043231154
-1.09586519247
-1.18107079802
-1.2662143042
-1.35136897788
-1.43656870708
-1.52180838911
-1.60708584175
-1.6923925992
-1.77771988769
-1.86306034851
-1.94840812838
-2.03375861308
-2.11910830473
-2.20445451535
-2.289795074
-2.37512821232
-2.46045239518
-2.54576624158
-2.63106838017
-2.71635746296
-2.80163214317
-2.88689098246
-2.97213243927
-3.05735486273
-3.14255647496
-3.22773536867
-3.31288947748
-3.39801655393
-3.48311417402
-3.5681797324
-3.65321041137
-3.73820316763
-3.82315471835
-3.90806152391
-3.99291977273
-4.07772536476
-4.16247389096
-4.24716061772
-4.33178047029
-4.4163280094
-4.50079740174
-4.58518239519
-4.66947629989
-4.75367196797
-4.83776176554
-4.9217375415
-5.00559059766
-5.08931166058
-5.17289085426
-5.25631766939
-5.33958092929
-5.42266875169
-5.50556850809
-5.58826679146
-5.67074940375
-5.75300127702
-5.83500644739
-5.91674801602
-5.99820810706
-6.07936782372
-6.16020720238
-6.24070516694
-6.32083948723
-6.40058674016
-6.47992226711
-6.55882012668
-6.63725304259
-6.71519236186
-6.79260800551
-6.86946843816
-6.94574059812
-7.02138993208
-7.09638019292
-7.17067360491
-7.24423059206
-7.31700987297
-7.38896847333
-7.46006162615
-7.53024272887
-7.59946331155
-7.66767301126
-7.73481955382
-7.80084873559
-7.865704408
-7.92932840679
-7.99166061113
-8.05263894537
-8.11219930676
-8.17027557645
-8.22679965024
-8.28170142942
-8.33490884136
-8.38634785911
-8.43594253403
-8.483615075
-8.52928576967
-8.57287309559
-8.61429378536
-8.65346286763
-8.69029369506
-8.72469801186
-8.75658606279
-8.78586669265
-8.8124474006
-8.83623441683
-8.85713281072
-8.87504664609
-8.88987908981
-8.9015324675
-8.90990836374
-8.91490780871
-8.9164314244
-8.91437948648
-8.90865199359
-8.89914885838
-8.88577010691
-8.86841589021
-8.84698647429
-8.82138243159
-8.79150485826
-8.75725527363
-8.71853540026
-8.67524732962
-8.62729386494
-8.57457832667
-8.51700394508
-8.45447367016
-8.38689048744
-8.31415745507
-8.23617708455
-8.15285071044
-8.06407866867
-7.9697610753
-7.86979824242
-7.76409103113
-7.65254370807
-7.53507009297
-7.41160143786
-7.28209983441
-7.14658357014
-7.00516639968
-6.85810597191
-6.70586498428
-6.54916699016
-6.38883296893
-6.22507713223
-6.05784115533
0.11920371244
0.124302551323
0.040317107645
-0.0804148669745
-0.206725284798
-0.328800743726
-0.443094804
-0.549163162104
-0.648296096717
-0.742289667366
-0.832787167718
-0.921058085732
-1.00798811776
-1.09415041972
-1.17989431558
-1.26542208789
-1.3508455347
-1.43622615875
-1.52158692371
-1.60694462278
-1.69230371321
-1.77766473511
-1.86302665987
-1.94838793196
-2.03374683292
-2.11910169244
-2.2044510511
-2.28979351691
-2.37512778483
-2.46045264389
-2.54576688882
-2.63106927413
-2.71635852808
-2.80163332085
-2.88689224629
-2.97213378829
-3.05735630048
-3.14255801432
-3.2277370265
-3.31289126567
-3.39801848419
-3.48311626111
-3.56818198999
-3.65321285722
-3.73820582312
-3.82315760244
-3.90806465074
-3.99292315546
-4.07772901986
-4.16247783984
-4.24716488465
-4.33178507981
-4.41633298552
-4.50080277038
-4.5851881868
-4.66948254913
-4.75367871083
-4.83776903705
-4.92174537599
-5.00559902951
-5.08932072524
-5.17290058895
-5.25632811353
-5.33959212408
-5.42268074177
-5.50558134447
-5.5882805344
-5.67076410476
-5.75301698683
-5.83502321443
-5.91676588814
-5.99822713561
-6.07938806589
-6.16022872019
-6.24072802486
-6.32086375109
-6.40061247793
-6.47994955031
-6.55884903147
-6.63728365039
-6.71522475661
-6.79264227464
-6.86950466561
-6.94577888231
-7.02143034547
-7.0964228389
-7.17071854117
-7.24427790764
-7.317059683
-7.38902088499
-7.46011674342
-7.53030065423
-7.59952415034
-7.66773688101
-7.73488658755
-7.80091907653
-7.86577819528
-7.92940579503
-7.99174175664
-8.05272400177
-8.11228844621
-8.17036898521
-8.22689750143
-8.28180388465
-8.33501607654
-8.38646008878
-8.43606000547
-8.48373798493
-8.52941429374
-8.57300740143
-8.61443405926
-8.65360931462
-8.69044653059
-8.7248574541
-8.75675234131
-8.78604007927
-8.81262824769
-8.83642316149
-8.85732996637
-8.87525279631
-8.89009491073
-8.90175878295
-8.91014619754
-8.91515839658
-8.91669623457
-8.9146602708
-8.90895087155
-8.89946840132
-8.88611342347
-8.86878674672
-8.84738941419
-8.82182288829
-8.79198936437
-8.75779184118
-8.71913391224
-8.6759197263
-8.62805431063
-8.57544384085
-8.51799547907
-8.45561696791
-8.38821655396
-8.31570348397
-8.23798834087
-8.15498258647
-8.06659837034
-7.97274970277
-7.87335406439
-7.76833346722
-7.65761664944
-7.54114456236
-7.41887815518
-7.29080787837
-7.15696865048
-7.01746161212
-6.87247004407
-6.72226102334
-6.56715295766
-6.40731832614
-6.24228293715
-6.0708706738
-0.00408280524104
0.0209267078496
-0.0288616739544
-0.119311463328
-0.224241011494
-0.333276979769
-0.440777855369
-0.544050177077
-0.642631483865
-0.73715904753
-0.828591275354
-0.917837394988
-1.00562209779
-1.09246786442
-1.17872771235
-1.26462973473
-1.35031663218
-1.43587556631
-1.52136105379
-1.60680015738
-1.69221234029
-1.77760776476
-1.86299167616
-1.94836681582
-2.0337343917
-2.11909461909
-2.20444722791
-2.28979164694
-2.37512708523
-2.46045263088
-2.54576726454
-2.63106988862
-2.71635930615
-2.80163422162
-2.8868932477
-2.97213487641
-3.0573574738
-3.14255928099
-3.22773839102
-3.31289273327
-3.39802006941
-3.48311798281
-3.56818386704
-3.65321491095
-3.73820807461
-3.82316006731
-3.90806733982
-3.99292607962
-4.07773219328
-4.16248128088
-4.24716861372
-4.33178911625
-4.41633734678
-4.50080747611
-4.58519326237
-4.66948802514
-4.75368461872
-4.83777540685
-4.92175223643
-5.00560641007
-5.0893286582
-5.1729091102
-5.25633726242
-5.33960194212
-5.42269127296
-5.50559263729
-5.58829263955
-5.67077706843
-5.75303085344
-5.83503802833
-5.91678169723
-5.99824399409
-6.07940603378
-6.16024785971
-6.24074839709
-6.3208854154
-6.40063549371
-6.47997398071
-6.55887494508
-6.63731112116
-6.7152538611
-6.79267309122
-6.86953727075
-6.94581335695
-7.02146675968
-7.09646127755
-7.17075907402
-7.24432061918
-7.31710466632
-7.38906822864
-7.46016653253
-7.53035297457
-7.5995790904
-7.66779452865
-7.73494702316
-7.80098236934
-7.86584440759
-7.92947500374
-7.99181404979
-8.05279946193
-8.11236715246
-8.17045101592
-8.22698293659
-8.28189281542
-8.33510861294
-8.3865563568
-8.43616013634
-8.48384211672
-8.52952259179
-8.57312005429
-8.61455127362
-8.65373131301
-8.69057355748
-8.7249897945
-8.75689031807
-8.78618404123
-8.81277858295
-8.83658033097
-8.85749453837
-8.87542544534
-8.89027640884
-8.90195002748
-8.91034827033
-8.9153726073
-8.91692414043
-8.91490373857
-8.90921217552
-8.89975028192
-8.88641912015
-8.86912014063
-8.84775527233
-8.82222699901
-8.792438546
-8.75829415836
-8.71969922251
-8.67656013729
-8.6287842868
-8.57628042884
-8.51895909164
-8.4567323983
-8.38951370464
-8.31721795557
-8.23976246791
-8.15706713116
-8.06905428712
-7.97564931013
-7.87678238889
-7.77239059138
-7.66241928517
-7.54682554067
-7.42558422931
-7.29869376455
-7.16618237008
-7.02811580729
-6.88459590227
-6.73573860177
-6.58162264292
-6.42214729935
-6.25675218283
-6.08438659789
-0.0782757394797
-0.0482127059681
-0.0790399111809
-0.149530068943
-0.239099575844
-0.338017570042
-0.43979081198
-0.540427338856
-0.638257087802
-0.733024590611
-0.825116593925
-0.915118369105
-1.00359584274
-1.0910111807
-1.17770917787
-1.26393326813
-1.34984927558
-1.43556745022
-1.52116053116
-1.60667101946
-1.69213028664
-1.77755631276
-1.86295988358
-1.94834748728
-2.03372286994
-2.11908794203
-2.20444351289
-2.28978972113
-2.37512625081
-2.460452448
-2.54576746373
-2.63107031239
-2.71635987065
-2.80163489076
-2.88689400016
-2.97213569987
-3.05735837074
-3.14256025724
-3.22773944973
-3.3128938805
-3.39802131378
-3.48311933405
-3.56818533878
-3.65321651965
-3.73820983261
-3.82316198245
-3.90806942139
-3.99292834124
-4.07773465067
-4.16248394948
-4.24717150816
-4.33179225122
-4.41634073918
-4.50081114532
-4.58519723004
-4.66949231305
-4.75368924784
-4.83778039844
-4.92175761319
-5.00561219663
-5.08933488034
-5.17291579465
-5.25634443749
-5.33960963856
-5.42269952422
-5.50560148067
-5.58830211365
-5.6707872081
-5.75304169002
-5.83504959292
-5.91679402463
-5.99825712466
-6.07942001129
-6.16026272766
-6.24076419717
-6.32090218784
-6.40065328001
-6.47999282696
-6.55889490174
-6.63733224388
-6.71527620399
-6.79269670878
-6.86956221551
-6.94583968121
-7.02149451527
-7.09649052299
-7.17078986726
-7.24435302582
-7.31713875857
-7.38910407904
-7.46020421348
-7.53039256033
-7.59962065709
-7.66783815368
-7.73499278614
-7.80103035082
-7.86589469016
-7.92952767888
-7.99186921517
-8.05285721204
-8.11242757296
-8.17051418406
-8.22704893141
-8.28196173235
-8.33518056216
-8.38663144855
-8.4362384706
-8.483923793
-8.52960773602
-8.57320883231
-8.61464385819
-8.65382786663
-8.69067426273
-8.72509489562
-8.75700014024
-8.78629896271
-8.81289899952
-8.83670668605
-8.85762738525
-8.87556547606
-8.89042443898
-8.9021070033
-8.91051532251
-8.91555110291
-8.91711570844
-8.91511032545
-8.90943615247
-8.89999451157
-8.886686961
-8.86941555546
-8.84808310852
-8.82259321339
-8.79285021328
-8.75875952417
-8.72022810402
-8.67716449273
-8.62947857724
-8.57708176609
-8.51988755669
-8.45781185586
-8.39077286867
-8.31869104015
-8.24148952454
-8.15909508125
-8.07143863644
-7.97845526266
-7.8800852425
-7.77627643429
-7.66698568817
-7.55218053455
-7.43184274453
-7.30597175635
-7.17458553515
-7.03772160933
-6.89542906537
-6.74774653735
-6.59466075188
-6.43603148933
-6.27147258546
-6.10039705356
-0.12064294516
-0.0904734900623
-0.111410004938
-0.169964736161
-0.249747942526
-0.341861695419
-0.439561395243
-0.538187035311
-0.635337859588
-0.730168409994
-0.822663922654
-0.913169783389
-1.00212727076
-1.08994625135
-1.17695947073
-1.26341780152
-1.34950174838
-1.43533720248
-1.52101171488
-1.6065739732
-1.69206852057
-1.77751753282
-1.86293590695
-1.9483329287
-2.0337142188
-2.11908296878
-2.20444079342
-2.28978836672
-2.37512570055
-2.46045236902
-2.54576766428
-2.63107067189
-2.71636032219
-2.80163540011
-2.88689455081
-2.97213629129
-3.05735900759
-3.14256094196
-3.22774018778
-3.31289468058
-3.39802218394
-3.48312028488
-3.56818638581
-3.65321767696
-3.73821110776
-3.82316337995
-3.90807094803
-3.99293000625
-4.07773646348
-4.16248591889
-4.24717364421
-4.33179456648
-4.41634325018
-4.50081386878
-4.58520018169
-4.66949550627
-4.75369269594
-4.83778411641
-4.9217616186
-5.00561650856
-5.08933951888
-5.17292078037
-5.25634979224
-5.33961538696
-5.42270569381
-5.50560810143
-5.58830921451
-5.6707948142
-5.75304982357
-5.83505827698
-5.91680328673
-5.99826699673
-6.07943052602
-6.16027391555
-6.24077608592
-6.32091480446
-6.40066665603
-6.48000699792
-6.55890990978
-6.63734813042
-6.71529301073
-6.79271446927
-6.86958096583
-6.94585945596
-7.0215153524
-7.09651246546
-7.17081295802
-7.24437731162
-7.31716428877
-7.38913090183
-7.46023237488
-7.53042210494
-7.59965162849
-7.66787059553
-7.73502674373
-7.80106587415
-7.86593183169
-7.92956649502
-7.99190976687
-8.05289955804
-8.11247176855
-8.17056028383
-8.22709700197
-8.28201186077
-8.33523285101
-8.38668600119
-8.43629538234
-8.48398316653
-8.52966969467
-8.57327352602
-8.61471145434
-8.65389853703
-8.69074819532
-8.72517232792
-8.7570813803
-8.78638437376
-8.81298898707
-8.83680171625
-8.85772802669
-8.87567242289
-8.89053851446
-8.90222918144
-8.91064678041
-8.91569326703
-8.91727027201
-8.91527928385
-8.90962190343
-8.90019997703
-8.88691564985
-8.86967159973
-8.84837140097
-8.82291966985
-8.7932220142
-8.75918520925
-8.72071765665
-8.67772969461
-8.63013362494
-8.57784372265
-8.52077647154
-8.45885110624
-8.39199009442
-8.32011908734
-8.24316693431
-8.16106656123
-8.07375600933
-7.98117867063
-7.88328365354
-7.78002760634
-7.67137664258
-7.55730681587
-7.43780578071
-7.3128750345
-7.18252930247
-7.0467950024
-6.90570398993
-6.75927918309
-6.60751351987
-6.45034409234
-6.28762844272
-6.11923110654
-0.139972505531
-0.110487287385
-0.127226184069
-0.180234431687
-0.255284765716
-0.343998559449
-0.439594610355
-0.537139494117
-0.633893632973
-0.728721584237
-0.821403569534
-0.912158416655
-1.00135939431
-1.08938625252
-1.17656345
-1.26314449763
-1.34931669609
-1.43521293644
-1.52092352034
-1.60652056923
-1.69203513158
-1.77749663351
-1.86292296365
-1.94832503381
-2.03370949261
-2.11908019871
-2.20443924689
-2.28978756936
-2.37512535276
-2.46045229922
-2.54576776569
-2.63107087989
-2.71636059844
-2.80163571534
-2.88689489629
-2.97213666764
-3.05735940999
-3.14256136529
-3.22774063629
-3.31289516279
-3.39802270826
-3.48312086162
-3.56818702596
-3.65321838821
-3.73821189558
-3.82316425091
-3.90807190932
-3.9929310632
-4.07773762025
-4.16248718087
-4.24717501933
-4.33179606607
-4.41634488481
-4.50081565001
-4.58520211711
-4.66949760214
-4.75369496046
-4.83778656029
-4.9217642541
-5.00561934799
-5.0893425743
-5.17292406515
-5.25635332123
-5.3396191779
-5.42270976686
-5.50561247695
-5.58831391045
-5.67079984458
-5.75305520068
-5.83506401565
-5.91680940613
-5.99827351805
-6.0794374686
-6.16028129465
-6.24078391299
-6.32092309335
-6.40067542477
-6.48001627078
-6.55891971298
-6.63735848786
-6.71530394088
-6.79272598724
-6.86959308559
-6.94587219693
-7.02152873717
-7.09652651992
-7.17082770984
-7.2443927905
-7.31718052698
-7.38914793136
-7.46025022489
-7.5304408013
-7.59967119584
-7.66789106101
-7.73504813788
-7.80108823081
-7.86595518624
-7.9295908809
-7.99193521461
-8.05292609869
-8.11249943531
-8.17058911797
-8.22712705258
-8.28204318608
-8.33526551415
-8.38672007382
-8.43633094704
-8.48402031892
-8.52970853921
-8.57331418042
-8.61475405473
-8.65394325569
-8.69079524477
-8.72522195437
-8.75713386104
-8.78644003054
-8.81304821835
-8.836865019
-8.857795997
-8.87574575728
-8.89061803336
-8.90231587274
-8.91074184327
-8.91579815183
-8.91738671641
-8.91540933756
-8.90976797968
-8.90036499034
-8.88710318234
-8.8698859539
-8.84861757956
-8.82320353874
-8.79355070125
-8.75956739202
-8.72116354235
-8.67825109956
-8.63074451988
-8.57856091682
-8.52161995412
-8.45984419541
-8.39315988575
-8.32149736351
-8.24479112398
-8.16298012201
-8.07600876567
-7.98382802102
-7.88639541786
-7.78367593795
-7.67564426251
-7.56228533753
-7.44359497283
-7.31958179709
-7.19026659874
-7.05568190801
-6.91587054475
-6.77088028777
-6.62076052872
-6.46556684283
-6.30538466457
-6.14042117678
-0.139971983589
-0.11048761647
-0.127226833582
-0.180234519528
-0.255284946419
-0.343998859842
-0.439594840009
-0.537139674144
-0.633893840735
-0.728721789019
-0.821403722299
-0.912158548549
-1.0013595204
-1.0893863525
-1.17656353694
-1.26314457828
-1.34931676902
-1.43521300232
-1.52092359952
-1.60652064237
-1.69203521295
-1.77749672927
-1.86292308178
-1.94832519612
-2.0337096714
-2.11908038561
-2.2044394387
-2.28978776291
-2.37512553809
-2.46045246173
-2.54576790515
-2.63107100177
-2.71636070176
-2.80163581517
-2.88689500583
-2.97213679104
-3.05735954195
-3.14256150295
-3.22774078214
-3.31289532193
-3.39802288826
-3.48312107087
-3.56818726898
-3.65321866603
-3.73821221066
-3.82316460792
-3.90807231192
-3.99293151302
-4.07773811881
-4.16248773291
-4.24717563275
-4.33179674944
-4.41634564514
-4.50081648921
-4.58520303422
-4.66949859722
-4.75369603676
-4.83778772463
-4.9217655132
-5.00562070789
-5.08934404059
-5.1729256436
-5.25635501948
-5.3396210059
-5.42271173635
-5.50561459886
-5.58831619214
-5.67080228982
-5.75305781322
-5.83506680288
-5.91681237884
-5.99827668623
-6.07944083791
-6.16028486471
-6.24078768158
-6.32092706245
-6.40067960144
-6.4800206683
-6.55892434126
-6.63736335266
-6.71530904013
-6.79273131759
-6.8695986473
-6.94587799395
-7.02153477582
-7.09653280757
-7.1708342561
-7.2443996053
-7.31718762257
-7.38915531895
-7.46025791127
-7.53044878888
-7.59967948639
-7.6678996602
-7.73505705831
-7.80109748881
-7.86596479469
-7.92960084858
-7.99194554599
-8.05293680196
-8.11251052823
-8.17060062933
-8.22713901927
-8.28205564142
-8.33527848875
-8.38673360384
-8.43634509411
-8.4840351691
-8.52972419159
-8.57333072873
-8.61477160356
-8.65396195587
-8.69081530655
-8.72524362635
-8.75715740107
-8.78646573258
-8.81307646867
-8.83689631879
-8.85783093878
-8.87578502212
-8.89066244504
-8.90236644282
-8.91079977244
-8.91586485408
-8.9174639136
-8.9154991409
-8.90987288552
-8.90048790981
-8.88724762808
-8.87005623757
-8.84881883455
-8.82344173223
-8.79383288699
-8.75990208936
-8.72156097605
-8.67872331793
-8.63130559081
-8.57922735896
-8.52241139122
-8.46078388205
-8.39427492421
-8.32281918369
-8.24635644503
-8.16483165403
-8.07819565872
-7.98640672993
-7.88943072655
-7.78724145919
-7.67982280725
-7.56717049306
-7.44929116238
-7.3262057721
-7.197950478
-7.06457659814
-6.92615585379
-6.78278199283
-6.63457928784
-6.48172275136
-6.32447868659
-6.16328374364
-0.120641439187
-0.0904744927628
-0.111411825142
-0.169965081292
-0.249748574109
-0.341862560026
-0.439562031523
-0.538187556233
-0.635338410884
-0.730168925714
-0.822664368449
-0.913170211078
-1.00212768651
-1.08994663168
-1.1769598212
-1.26341812736
-1.34950204301
-1.43533748155
-1.52101196032
-1.60657421863
-1.69206877519
-1.77751777103
-1.86293615418
-1.94833321054
-2.03371451692
-2.11908327748
-2.2044411343
-2.28978873645
-2.3751260803
-2.46045274413
-2.54576803227
-2.63107103525
-2.71636067712
-2.8016357513
-2.88689491374
-2.97213667482
-3.05735940901
-3.14256136247
-3.22774063667
-3.31289516955
-3.39802273026
-3.48312091175
-3.56818711183
-3.65321851163
-3.73821205889
-3.82316445788
-3.90807216185
-3.99293136168
-4.07773796796
-4.16248758675
-4.24717549664
-4.33179662689
-4.41634553581
-4.50081638806
-4.58520293519
-4.66949849624
-4.75369593299
-4.83778761819
-4.92176540402
-5.00562059494
-5.08934392326
-5.17292552179
-5.25635489391
-5.33962087897
-5.42271161081
-5.50561447491
-5.5883160663
-5.67080215636
-5.75305766803
-5.83506664597
-5.91681221121
-5.99827650528
-6.0794406345
-6.16028462398
-6.24078739026
-6.32092671048
-6.4006791868
-6.48002018893
-6.55892379055
-6.63736271426
-6.71530829178
-6.79273044004
-6.86959762894
-6.94587682746
-7.02153345241
-7.09653131496
-7.17083258105
-7.24439773866
-7.31718555747
-7.38915304642
-7.46025541597
-7.53044605071
-7.5996764884
-7.66789639014
-7.73505350921
-7.80109365189
-7.86596065582
-7.92959639105
-7.99194075437
-8.05293166799
-8.11250505242
-8.1705948171
-8.2271328825
-8.28204919176
-8.33527173577
-8.38672655942
-8.43633778854
-8.4840276622
-8.52971656791
-8.57332307711
-8.61476401754
-8.65395455993
-8.6908082775
-8.72523718187
-8.75715178629
-8.78646124232
-8.813073487
-8.83689532371
-8.85783248348
-8.87578975966
-8.89067119657
-8.90238023471
-8.91081980199
-8.91589248485
-8.91750080441
-8.91554740118
-8.90993508001
-8.90056699138
-8.88734703539
-8.87018015649
-8.84897239263
-8.82363102608
-8.79406501315
-8.76018538266
-8.72190545978
-8.67914107825
-8.6318108546
-8.57983663603
-8.52314411282
-8.46166312236
-8.39532774074
-8.32407698216
-8.24785577816
-8.16661522993
-8.08031293147
-7.98891436123
-7.89239411397
-7.79073583594
-7.68393379937
-7.57199576671
-7.454943113
-7.33281325166
-7.20566356843
-7.07357320748
-6.93665102673
-6.79504400456
-6.64895149178
-6.49865008689
-6.34453541438
-6.18718207247
-0.078273738173
-0.0482146606665
-0.0790424861044
-0.149530703544
-0.239100773795
-0.338018955516
-0.439791849111
-0.540428249658
-0.638257990369
-0.733025386824
-0.825117295063
-0.915119024705
-1.00359645322
-1.09101175269
-1.1777097241
-1.26393377069
-1.34984974284
-1.43556792344
-1.52116097689
-1.60667145339
-1.69213074802
-1.7775567535
-1.86296033783