/*--------------------------------*- C++ -*----------------------------------*\
| =========                 |                                                 |
| \\      /  F ield         | OpenFOAM: The Open Source CFD Toolbox           |
|  \\    /   O peration     | Version:  2106                                  |
|   \\  /    A nd           | Website:  www.openfoam.com                      |
|    \\/     M anipulation  |                                                 |
\*---------------------------------------------------------------------------*/
FoamFile
{
    version     2.0;
    format      ascii;
    arch        "LSB;label=32;scalar=64";
    class       surfaceScalarField;
    location    "0.335";
    object      phi;
}
// * * * * * * * * * * * * * * * * * * * * * * * * * * * * * * * * * * * * * //

dimensions      [0 3 -1 0 0 0 0];

oriented        oriented;

internalField   nonuniform List<scalar> 
22100
(
3.38461201953e-05
1.61538798177e-05
2.24572092844e-05
1.13889105732e-05
1.62585520306e-05
6.19865699799e-06
1.27977746347e-05
3.46077711183e-06
1.08046403203e-05
1.99313401453e-06
9.60458682275e-06
1.20005315992e-06
8.85131856758e-06
7.53267884165e-07
8.36434925495e-06
4.86968923572e-07
8.04433088556e-06
3.2001796722e-07
7.83283563435e-06
2.11494855193e-07
7.69339206796e-06
1.3944319871e-07
7.6022348428e-06
9.11569008774e-08
7.54347179648e-06
5.87627821933e-08
7.50633469299e-06
3.71369120595e-08
7.48349506554e-06
2.28395148083e-08
7.46997417987e-06
1.35208498236e-08
7.46240952769e-06
7.56467957234e-09
7.45854148232e-06
3.86811770365e-09
7.45682249279e-06
1.71909507027e-09
7.45641583393e-06
4.06745173597e-10
7.45676559802e-06
-3.49701939761e-10
7.45745170556e-06
-6.86083313348e-10
7.45820995834e-06
-7.58281362808e-10
7.45893517215e-06
-7.25285539699e-10
7.45957940996e-06
-6.44341049622e-10
7.46012331247e-06
-5.44015583418e-10
7.46056545684e-06
-4.42243819318e-10
7.46091431434e-06
-3.48922200047e-10
7.46118280098e-06
-2.68497696812e-10
7.46138500474e-06
-2.02148363582e-10
7.4615343009e-06
-1.4917345213e-10
7.46164236313e-06
-1.07889601499e-10
7.46171890779e-06
-7.632407043e-11
7.46177202895e-06
-5.28903646531e-11
7.46180564105e-06
-3.34026060778e-11
7.46182473505e-06
-1.89015212915e-11
7.46183406911e-06
-9.1895534509e-12
7.46183707945e-06
-2.92697393431e-12
7.46183573495e-06
1.37869322962e-12
7.46183122615e-06
4.53518972384e-12
7.46182448691e-06
6.73838221581e-12
7.46181617038e-06
8.33823278645e-12
7.46180666738e-06
9.57476101831e-12
7.46179615067e-06
1.06459953393e-11
7.46178462011e-06
1.17483170713e-11
7.46177197732e-06
1.29842176209e-11
7.461757925e-06
1.44308775367e-11
7.46174213598e-06
1.62139507276e-11
7.4617241504e-06
1.84217519784e-11
7.4617034091e-06
2.11779655051e-11
7.46167929808e-06
2.45400320954e-11
7.46165109132e-06
2.85843191356e-11
7.46161800258e-06
3.34070731868e-11
7.46157920551e-06
3.90675558671e-11
7.46153384528e-06
4.55841487881e-11
7.46148111219e-06
5.29200901799e-11
7.46142038021e-06
6.09104975994e-11
7.46135157597e-06
6.89998732558e-11
7.4612754023e-06
7.63920510005e-11
7.46119427257e-06
8.13587240404e-11
7.46111462399e-06
7.99743333752e-11
7.46104843846e-06
6.64811739745e-11
7.46100339032e-06
4.53427316244e-11
7.46099872728e-06
4.94903487257e-12
7.46107053369e-06
-7.14143185346e-11
7.46127683679e-06
-2.06081241873e-10
7.46171219124e-06
-4.35217889282e-10
7.46252665048e-06
-8.14379816102e-10
7.46395549129e-06
-1.42874145473e-09
7.4663541768e-06
-2.39854484913e-09
7.47017207916e-06
-3.81775381218e-09
7.47662011291e-06
-6.44790538753e-09
7.48738971698e-06
-1.07694777654e-08
7.50556296558e-06
-1.81730965744e-08
7.53874635438e-06
-3.31832134715e-08
7.60795874596e-06
-6.92122177749e-08
7.77461824784e-06
-1.66659379132e-07
8.22952721761e-06
-4.54908959205e-07
9.69715593557e-06
-1.46762887327e-06
-5.451431402e-06
1.51485872975e-05
5.02175947069e-05
1.59362848001e-05
4.42441110783e-05
1.73623936276e-05
3.77795006253e-05
1.26632669435e-05
3.2646142755e-05
8.59413440782e-06
2.89380902068e-05
5.70118594558e-06
2.63596193344e-05
3.77852337432e-06
2.45875144198e-05
2.52537210203e-06
2.33734718538e-05
1.7010107818e-06
2.25435223158e-05
1.14996681336e-06
2.1978213186e-05
7.76803340602e-07
2.15955102852e-05
5.22145537703e-07
2.1338733437e-05
3.47933293511e-07
2.1168491732e-05
2.29004155151e-07
2.10573340454e-05
1.48294396741e-07
2.09861461555e-05
9.40273260399e-08
2.09416738853e-05
5.79931389673e-08
2.09147922387e-05
3.44464043568e-08
2.08992933401e-05
1.93671310696e-08
2.08910697633e-05
9.9427672906e-09
2.08872696488e-05
4.20693485446e-09
2.08862007408e-05
7.19216066588e-10
2.08864464844e-05
-9.318867306e-10
2.08873178894e-05
-1.62979796444e-09
2.08884573239e-05
-1.86486971316e-09
2.08896305815e-05
-1.81775570629e-09
2.0890713527e-05
-1.62708939314e-09
2.08916511303e-05
-1.37991219314e-09
2.08924287395e-05
-1.1265050486e-09
2.08930541315e-05
-8.93756445835e-10
2.08935465147e-05
-6.94300461169e-10
2.08939306583e-05
-5.33000648517e-10
2.08942325838e-05
-4.09418579001e-10
2.08944439565e-05
-2.87281243087e-10
2.08945914131e-05
-1.99925193954e-10
2.08946921283e-05
-1.33750847045e-10
2.08947577998e-05
-8.4272751666e-11
2.08947985917e-05
-4.97435988964e-11
2.08948226722e-05
-2.6841245e-11
2.08948348694e-05
-1.07203834576e-11
2.08948381702e-05
1.32357709977e-12
2.08948350146e-05
1.00092481392e-11
2.08948271081e-05
1.64350413301e-11
2.08948156256e-05
2.13766944591e-11
2.08948013024e-05
2.54320218665e-11
2.08947844673e-05
2.91253166756e-11
2.08947652946e-05
3.28462649444e-11
2.08947437213e-05
3.67915691791e-11
2.08947195719e-05
4.11759667097e-11
2.08946926197e-05
4.61708119357e-11
2.08946625524e-05
5.19830330672e-11
2.08946291487e-05
5.86221611072e-11
2.08945922556e-05
6.60768973901e-11
2.08945518747e-05
7.42760268749e-11
2.08945083557e-05
8.2995395163e-11
2.08944625977e-05
9.17023197427e-11
2.08944164189e-05
9.94350365239e-11
2.08943731643e-05
1.04504395844e-10
2.08943388474e-05
1.03701545844e-10
2.08943229866e-05
9.27323468965e-11
2.08943407684e-05
6.40211138545e-11
2.08944192747e-05
1.98249847714e-12
2.08946070867e-05
-1.20830552484e-10
2.08949727447e-05
-3.1976709432e-10
2.08956347058e-05
-6.56726389736e-10
2.08967007218e-05
-1.13723144701e-09
2.08983480317e-05
-1.85316640302e-09
2.09009344416e-05
-3.02141101377e-09
2.09050077826e-05
-4.8875393802e-09
2.09114371913e-05
-7.85799657715e-09
2.09216462616e-05
-1.26074515985e-08
2.09381249571e-05
-2.02962506922e-08
2.09650185648e-05
-3.33412476139e-08
2.10092662194e-05
-5.50168266782e-08
2.10840399171e-05
-9.29464958522e-08
2.12152641667e-05
-1.6440721957e-07
2.14558436703e-05
-3.09791561715e-07
2.1913628141e-05
-6.24443751469e-07
2.28005191093e-05
-1.34179970555e-06
2.44443146083e-05
-3.11142411555e-06
-7.03774523124e-06
2.60306249125e-05
5.35171051577e-05
1.24191793957e-05
5.29349677378e-05
1.79445305423e-05
4.96538391872e-05
1.59443950504e-05
4.58401801054e-05
1.24077930021e-05
4.24400906356e-05
9.10127488243e-06
3.97291701649e-05
6.48944326808e-06
3.76873031498e-05
4.56723851005e-06
3.61976597776e-05
3.19065353832e-06
3.51326086129e-05
2.21501737807e-06
3.43823630678e-05
1.52704832627e-06
3.3860621656e-05
1.04388646021e-06
3.35023410691e-05
7.0621348518e-07
3.32595959192e-05
4.71749019207e-07
3.30975854697e-05
3.10304675332e-07
3.29913293473e-05
2.00283384144e-07
3.29230874975e-05
1.26235009819e-07
3.28803996304e-05
7.71343656541e-08
3.28546145878e-05
4.51522816519e-08
3.28397875726e-05
2.4769888632e-08
3.28318611154e-05
1.21334605706e-08
3.28279916443e-05
4.58869529013e-09
3.28269929425e-05
6.67558834582e-11
3.28271736108e-05
-1.81057807518e-09
3.28280218849e-05
-2.71328884598e-09
3.28291375069e-05
-2.9335298332e-09
3.2830284622e-05
-2.77433007653e-09
3.28313405081e-05
-2.43586614607e-09
3.28322508811e-05
-2.0368628647e-09
3.2833000905e-05
-1.64366916294e-09
3.28335966629e-05
-1.28985916965e-09
3.28340530855e-05
-9.89146791832e-10
3.28343882161e-05
-7.44223844099e-10
3.28346547478e-05
-5.53478045297e-10
3.28348712401e-05
-4.16070438409e-10
3.28350185743e-05
-2.80811577777e-10
3.28351178523e-05
-1.83348921034e-10
3.28351837201e-05
-1.15464658611e-10
3.28352255917e-05
-6.86387806932e-11
3.28352503738e-05
-3.54647139984e-11
3.28352620591e-05
-1.03350132365e-11
3.28352642536e-05
7.88388969411e-12
3.28352594809e-05
2.1351079425e-11
3.28352495791e-05
3.15183364021e-11
3.28352358299e-05
3.95790744193e-11
3.28352189533e-05
4.64957671697e-11
3.2835199376e-05
5.29528281278e-11
3.28351774178e-05
5.93815393352e-11
3.28351532168e-05
6.60380402793e-11
3.28351268743e-05
7.31768527883e-11
3.28350983445e-05
8.11336378871e-11
3.2835067917e-05
8.95843282252e-11
3.28350361935e-05
9.82621616298e-11
3.2835004219e-05
1.06648087616e-10
3.28349738085e-05
1.13761018852e-10
3.28349480026e-05
1.17850506162e-10
3.28349315078e-05
1.16286652919e-10
3.28349313753e-05
1.05020317178e-10
3.2834959139e-05
7.63447368037e-11
3.28350321447e-05
2.01987807444e-11
3.28351801255e-05
-8.35170981736e-11
3.28354545514e-05
-2.71966065608e-10
3.28359444241e-05
-6.10391213944e-10
3.28366629701e-05
-1.03794958439e-09
3.28377064022e-05
-1.69979314478e-09
3.28393333807e-05
-2.76389117151e-09
3.2841919136e-05
-4.43866168255e-09
3.28459676081e-05
-7.06969921709e-09
3.28522931482e-05
-1.12129660064e-08
3.28622085829e-05
-1.77733364512e-08
3.28778779373e-05
-2.82766789726e-08
3.29029609384e-05
-4.53790763648e-08
3.29428072926e-05
-7.31873797418e-08
3.30072443021e-05
-1.19453579405e-07
3.31132501867e-05
-1.9895210955e-07
3.32898309684e-05
-3.40987763505e-07
3.35851790017e-05
-6.05139461607e-07
3.40703554344e-05
-1.10962021625e-06
3.48114695783e-05
-2.08291370222e-06
3.56722973163e-05
-3.97224973418e-06
-7.10593137161e-06
3.57404902991e-05
5.35105662676e-05
8.90861288732e-06
5.55742216247e-05
1.58808747004e-05
5.52424815447e-05
1.62761346904e-05
5.35977845926e-05
1.40524894723e-05
5.15418458914e-05
1.11572130634e-05
4.95802776389e-05
8.45101095945e-06
4.79243481059e-05
6.22316745723e-06
4.66181357124e-05
4.49686533662e-06
4.56304624051e-05
3.20269010399e-06
4.49051129893e-05
2.25239720106e-06
4.43840853944e-05
1.56491358064e-06
4.40166889174e-05
1.07360957471e-06
4.37619621883e-05
7.26475463941e-07
4.35882634425e-05
4.84003247392e-07
4.34718640339e-05
3.16682721262e-07
4.33953539897e-05
2.02745059352e-07
4.33461837923e-05
1.26304619054e-07
4.33154462846e-05
7.58898722318e-08
4.32969100227e-05
4.33062328202e-08
4.32862840328e-05
2.27594988986e-08
4.32806812318e-05
1.01915000587e-08
4.32778735483e-05
2.87438570736e-09
4.32770457031e-05
-9.82833597916e-10
4.32772635266e-05
-2.93124152023e-09
4.32779509985e-05
-3.6211329673e-09
4.32788140158e-05
-3.63745147278e-09
4.32796868336e-05
-3.30873080149e-09
4.32804843559e-05
-2.83435079771e-09
4.32811702383e-05
-2.32942849874e-09
4.32817362629e-05
-1.85566237478e-09
4.32821892376e-05
-1.44182921982e-09
4.32825418546e-05
-1.09650794002e-09
4.32828038386e-05
-8.15097343192e-10
4.3282979454e-05
-5.91347378844e-10
4.32831126659e-05
-4.13711583653e-10
4.32831982028e-05
-2.68639477379e-10
4.32832522952e-05
-1.69399685111e-10
4.32832921779e-05
-1.08420041384e-10
4.32833166652e-05
-5.98874416316e-11
4.32833287799e-05
-2.23936675915e-11
4.32833319858e-05
4.76791288856e-12
4.32833282815e-05
2.52171733295e-11
4.32833193457e-05
4.06712460582e-11
4.3283306398e-05
5.28587665591e-11
4.3283290113e-05
6.33062225534e-11
4.3283270878e-05
7.28137090469e-11
4.3283249014e-05
8.19344266001e-11
4.32832247751e-05
9.09908727061e-11
4.32831984865e-05
1.00180559104e-10
4.32831706941e-05
1.09593889933e-10
4.32831420422e-05
1.18850578605e-10
4.32831134909e-05
1.27327087784e-10
4.32830865312e-05
1.34027344617e-10
4.32830632912e-05
1.37345271739e-10
4.32830467302e-05
1.34715277923e-10
4.32830413754e-05
1.21931539168e-10
4.32830552337e-05
9.14285208414e-11
4.32831003901e-05
3.15006472436e-11
4.32831961361e-05
-7.51796075278e-11
4.32833587994e-05
-2.45863489104e-10
4.3283602218e-05
-5.14842479831e-10
4.32840472728e-05
-1.05499685195e-09
4.32848210802e-05
-1.81133106157e-09
4.32860770003e-05
-2.95533964609e-09
4.32880227732e-05
-4.70940719294e-09
4.32910085401e-05
-7.42420675595e-09
4.32955938593e-05
-1.16548563194e-08
4.33026572377e-05
-1.82762664872e-08
4.33135806471e-05
-2.86966848198e-08
4.33305216008e-05
-4.52175308196e-08
4.33567884388e-05
-7.16457575706e-08
4.33979498953e-05
-1.14348629619e-07
4.34628541598e-05
-1.8435759271e-07
4.35652195691e-05
-3.0131725166e-07
4.37249902394e-05
-5.00758190964e-07
4.39667444733e-05
-8.46893533928e-07
4.43071186411e-05
-1.44999452215e-06
4.47073685204e-05
-2.4831645499e-06
4.49265349701e-05
-4.19141750909e-06
-6.57657099732e-06
4.439717805e-05
5.27351377906e-05
6.17347485418e-06
5.57309337892e-05
1.28850782161e-05
5.73114732319e-05
1.46955948085e-05
5.76109903106e-05
1.37529719113e-05
5.71335207104e-05
1.16346821478e-05
5.63194657524e-05
9.26506536185e-06
5.54489851552e-05
7.09364747796e-06
5.46629741833e-05
5.28287572869e-06
5.4013678235e-05
3.85198548865e-06
5.35061465627e-05
2.75992835123e-06
5.31242503757e-05
1.9468093104e-06
5.2844980654e-05
1.3528789219e-06
5.2645434335e-05
9.26021504751e-07
5.25057101216e-05
6.2372728049e-07
5.24097154741e-05
4.12677277017e-07
5.23450096718e-05
2.67450864195e-07
5.23022721091e-05
1.69042234339e-07
5.22746852202e-05
1.03476825047e-07
5.22573609325e-05
6.06305761002e-08
5.22468524548e-05
3.32680071236e-08
5.22407528789e-05
1.62910632323e-08
5.22374440238e-05
6.18318101877e-09
5.22359452632e-05
5.1582734937e-10
5.22354371388e-05
-2.42323664694e-09
5.22355018645e-05
-3.68597404038e-09
5.22358470889e-05
-3.98276053688e-09
5.22363011233e-05
-3.76279382123e-09
5.22367673515e-05
-3.30053122004e-09
5.22371946869e-05
-2.75662830588e-09
5.22375603945e-05
-2.22116360548e-09
5.22378577635e-05
-1.73893044981e-09
5.22380895685e-05
-1.32798658253e-09
5.22382660527e-05
-9.91251653874e-10
5.22383991078e-05
-7.24093888579e-10
5.22384996103e-05
-5.13945382142e-10
5.22385843052e-05
-3.53143770902e-10
5.22386499028e-05
-2.3486387142e-10
5.22386922358e-05
-1.50676963966e-10
5.22387250289e-05
-9.26419099363e-11
5.22387404957e-05
-3.78139451278e-11
5.2238745852e-05
-4.87670033542e-13
5.22387437228e-05
2.75498570537e-11
5.22387360167e-05
4.86805608927e-11
5.22387241401e-05
6.51286316207e-11
5.22387089104e-05
7.89523861127e-11
5.22386909107e-05
9.13367907434e-11
5.22386705791e-05
1.02857456669e-10
5.22386485553e-05
1.13636505852e-10
5.22386258986e-05
1.23437281466e-10
5.22386005066e-05
1.3554989862e-10
5.22385741274e-05
1.45722372264e-10
5.22385478835e-05
1.54002865045e-10
5.22385233836e-05
1.58918230744e-10
5.22385032695e-05
1.5782486725e-10
5.22384930546e-05
1.45279063509e-10
5.22385021684e-05
1.13162479577e-10
5.22385336013e-05
6.03615231175e-11
5.2238610455e-05
-4.49864380943e-11
5.22387310586e-05
-1.95380569458e-10
5.22389262928e-05
-4.40730323794e-10
5.22392645779e-05
-8.52735290673e-10
5.22397830386e-05
-1.57294729483e-09
5.22405567854e-05
-2.58457228817e-09
5.22417184018e-05
-4.11662151104e-09
5.22434712205e-05
-6.46201059652e-09
5.22461165745e-05
-1.00693757605e-08
5.225010634e-05
-1.56444700144e-08
5.22561316195e-05
-2.43014380279e-08
5.22652511699e-05
-3.78161513902e-08
5.22790822278e-05
-5.90485009602e-08
5.23000823605e-05
-9.26457584409e-08
5.23319667551e-05
-1.46232839082e-07
5.23800779393e-05
-2.32468537947e-07
5.24513404655e-05
-3.72579509856e-07
5.25526154554e-05
-6.02032917703e-07
5.26844446257e-05
-9.78722403366e-07
5.28245991418e-05
-1.5901486429e-06
5.28915928606e-05
-2.55015848241e-06
5.26729751862e-05
-3.97280137858e-06
-5.76765628968e-06
5.18640620451e-05
5.19834862498e-05
4.1899883593e-06
5.50586632941e-05
9.80990067708e-06
5.76386121212e-05
1.21156455426e-05
5.93259016206e-05
1.20656819311e-05
6.02280131815e-05
1.07325700752e-05
6.05929238564e-05
8.90015413827e-06
6.06482802448e-05
7.03829052009e-06
6.05531852477e-05
5.37797015499e-06
6.0402950145e-05
4.00222003831e-06
6.02479091451e-05
2.91496884166e-06
6.01107831767e-05
2.0839348331e-06
5.9999023287e-05
1.46463844808e-06
5.99125078284e-05
1.01253669222e-06
5.98479157371e-05
6.88319194092e-07
5.98010120407e-05
4.5958087152e-07
5.97677273237e-05
3.00735550631e-07
5.9744585947e-05
1.92183636392e-07
5.9728807397e-05
1.19255421676e-07
5.97182592368e-05
7.11787719486e-08
5.97113530129e-05
4.01742390451e-08
5.97069336014e-05
2.07104452034e-08
5.97041996066e-05
8.91710372425e-09
5.97025904454e-05
2.12488431343e-09
5.97016857702e-05
-1.51867935323e-09
5.97012273396e-05
-3.22765021734e-09
5.97010377163e-05
-3.79320066325e-09
5.97010013868e-05
-3.726465787e-09
5.97010457036e-05
-3.3447794218e-09
5.97011269613e-05
-2.83772268161e-09
5.97012194721e-05
-2.31343325211e-09
5.97013093553e-05
-1.82849811898e-09
5.97013899534e-05
-1.40825600998e-09
5.97014598303e-05
-1.06079034462e-09
5.97015195608e-05
-7.83502976489e-10
5.97015699223e-05
-5.64050871689e-10
5.97016098054e-05
-3.92832678586e-10
5.97016376391e-05
-2.6256253316e-10
5.97016529617e-05
-1.65932185984e-10
5.97016513723e-05
-9.10086949774e-11
5.97016434076e-05
-2.9794954503e-11
5.97016369852e-05
6.01340149439e-12
5.97016280395e-05
3.66236129619e-11
5.97016179492e-05
5.91315788353e-11
5.97016068498e-05
7.670036193e-11
5.97015936268e-05
9.27865737641e-11
5.97015780995e-05
1.07556032732e-10
5.97015603062e-05
1.21382190137e-10
5.97015402236e-05
1.34444213173e-10
5.97015176663e-05
1.46689470655e-10
5.97014959399e-05
1.57880245042e-10
5.9701474938e-05
1.67223190425e-10
5.97014559211e-05
1.73431408956e-10
5.97014405798e-05
1.74611490718e-10
5.97014304589e-05
1.68254527308e-10
5.97014245458e-05
1.51461797838e-10
5.97014159886e-05
1.22046121259e-10
5.9701421312e-05
5.53591977204e-11
5.97014335485e-05
-5.68579084209e-11
5.97015179366e-05
-2.79126157838e-10
5.97017074365e-05
-6.29440991564e-10
5.97020075606e-05
-1.15245130805e-09
5.97023949084e-05
-1.95973875456e-09
5.97029736532e-05
-3.1628115931e-09
5.97038261497e-05
-4.9687664773e-09
5.9705066391e-05
-7.7019851991e-09
5.97068593669e-05
-1.18621577415e-08
5.97094430539e-05
-1.82280262873e-08
5.9713161321e-05
-2.80195969011e-08
5.97185036623e-05
-4.31583821731e-08
5.97261504682e-05
-6.66951976179e-08
5.97370027703e-05
-1.03497911704e-07
5.97521223226e-05
-1.61352208766e-07
5.97723455664e-05
-2.52691565271e-07
5.97970793217e-05
-3.97313034433e-07
5.98211651622e-05
-6.26118578968e-07
5.9827726589e-05
-9.85283708023e-07
5.97747237104e-05
-1.53714543483e-06
5.95742408015e-05
-2.34967532575e-06
5.90684692992e-05
-3.46703100881e-06
-4.79641749052e-06
5.80972310829e-05
5.14373051471e-05
2.75268296874e-06
5.42658198774e-05
6.98138544522e-06
5.72496421149e-05
9.13182286343e-06
5.97900259972e-05
9.52529756938e-06
6.17201259875e-05
8.80246957997e-06
6.30883004015e-05
7.53197918998e-06
6.40167134102e-05
6.10987695776e-06
6.46292326577e-05
4.76545035374e-06
6.50257990833e-05
3.60565307706e-06
6.52790731636e-05
2.66169426552e-06
6.54389677726e-05
1.92403978872e-06
6.55386842356e-05
1.36492162741e-06
6.55999224915e-05
9.51298167646e-07
6.56367371117e-05
6.51504391317e-07
6.56581880964e-05
4.38129781327e-07
6.5670096271e-05
2.88827329566e-07
6.56761855132e-05
1.86094391992e-07
6.56788218541e-05
1.16619101758e-07
6.56794923331e-05
7.05083104727e-08
6.56791161573e-05
4.05504094344e-08
6.56782487696e-05
2.15777956839e-08
6.56772178344e-05
9.94796935775e-09
6.56762085445e-05
3.13407980364e-09
6.56752992172e-05
-6.09454456104e-10
6.56745304933e-05
-2.45901175539e-09
6.56739021429e-05
-3.16489789657e-09
6.56734033112e-05
-3.22761885987e-09
6.56730165468e-05
-2.95792070889e-09
6.56727228692e-05
-2.54386666775e-09
6.56725040922e-05
-2.09442240832e-09
6.56723441035e-05
-1.66821675471e-09
6.56722291905e-05
-1.29303022179e-09
6.56721472079e-05
-9.78489282609e-10
6.56720874988e-05
-7.2351241391e-10
6.56720442805e-05
-5.20588978821e-10
6.56720133087e-05
-3.6168068251e-10
6.56719884596e-05
-2.37596632128e-10
6.56719670684e-05
-1.44472580458e-10
6.56719522634e-05
-7.61327395446e-11
6.56719506748e-05
-2.81171553593e-11
6.56719493464e-05
7.45003610089e-12
6.56719422587e-05
4.39027855974e-11
6.56719326633e-05
6.89422488444e-11
6.56719206574e-05
8.90344590134e-11
6.56719072025e-05
1.06703396223e-10
6.56718922987e-05
1.23025133288e-10
6.56718757568e-05
1.38534884659e-10
6.56718574895e-05
1.53364506009e-10
6.56718379331e-05
1.66875568744e-10
6.56718191573e-05
1.77233141754e-10
6.56718000745e-05
1.86821543812e-10
6.5671781204e-05
1.92759138309e-10
6.56717636926e-05
1.92527410358e-10
6.56717494652e-05
1.82799974235e-10
6.56717423004e-05
1.58903453529e-10
6.56717497328e-05
1.14902886588e-10
6.56717565744e-05
4.88753382624e-11
6.56717900304e-05
-8.97993608097e-11
6.56718580909e-05
-3.47062464527e-10
6.56719568929e-05
-7.27652512996e-10
6.56721075715e-05
-1.30282435895e-09
6.567231736e-05
-2.16905081537e-09
6.56726026549e-05
-3.44764737711e-09
6.56729799775e-05
-5.34574554245e-09
6.56734603273e-05
-8.18205973615e-09
6.56740413461e-05
-1.24430056112e-08
6.56746929579e-05
-1.88795510615e-08
6.56753296353e-05
-2.86562283632e-08
6.56757505046e-05
-4.35791885889e-08
6.5675528117e-05
-6.64727307835e-08
6.56737936282e-05
-1.01763287121e-07
6.56688136662e-05
-1.56372053245e-07
6.56570546771e-05
-2.40932331179e-07
6.56313896096e-05
-3.71647694043e-07
6.55776707715e-05
-5.72399478561e-07
6.54686720828e-05
-8.76284887463e-07
6.52552402038e-05
-1.32371343384e-06
6.48573553396e-05
-1.95179013387e-06
6.41625933901e-05
-2.77226974971e-06
-3.7146523727e-06
6.30808283869e-05
5.10850421336e-05
1.66764059111e-06
5.36118438506e-05
4.45458322226e-06
5.66873153419e-05
6.05635092543e-06
5.9689444889e-05
6.52316754268e-06
6.22997250109e-05
6.19218895489e-06
6.44136860646e-05
5.41801761145e-06
6.60471816895e-05
4.47638079675e-06
6.72686127291e-05
3.54401878177e-06
6.81598912904e-05
2.71437400398e-06
6.87977574679e-05
2.02382761516e-06
6.92467414958e-05
1.47505534262e-06
6.95579600698e-05
1.05370270489e-06
6.97704265856e-05
7.38831381037e-07
6.99131695919e-05
5.08761191072e-07
7.00073807508e-05
3.439185021e-07
7.00682904613e-05
2.27917556096e-07
7.01066927119e-05
1.47692114811e-07
7.0130135279e-05
9.31765254764e-08
7.01438246804e-05
5.68189015997e-08
7.01513010463e-05
3.30740209062e-08
7.01549337629e-05
1.79450329701e-08
7.01562817526e-05
8.59990938165e-09
7.01563538224e-05
3.06192351227e-09
7.01557619627e-05
-1.76766184066e-11
7.01549012746e-05
-1.59838450534e-09
7.01539778868e-05
-2.24152574075e-09
7.01531095234e-05
-2.35921274961e-09
7.01523498585e-05
-2.19813842177e-09
7.01517160958e-05
-1.90991687237e-09
7.0151205369e-05
-1.5834376449e-09
7.01508047414e-05
-1.26727048174e-09
7.01504972208e-05
-9.85183613365e-10
7.01502651666e-05
-7.46099696106e-10
7.01500923687e-05
-5.50429521083e-10
7.01499658244e-05
-3.9381717645e-10
7.01498748793e-05
-2.70572267364e-10
7.01498124345e-05
-1.750519144e-10
7.01497710488e-05
-1.03028663943e-10
7.01497426691e-05
-4.76823277979e-11
7.01497129397e-05
1.71452353972e-12
7.01496898375e-05
3.08021605767e-11
7.01496771564e-05
5.69031903487e-11
7.01496671484e-05
7.93699073689e-11
7.01496578091e-05
9.88740455599e-11
7.01496483978e-05
1.16684601618e-10
7.01496385215e-05
1.33534165966e-10
7.01496280178e-05
1.49715297695e-10
7.01496168737e-05
1.65159396163e-10
7.01496048692e-05
1.79462956868e-10
7.0149590598e-05
1.92009202256e-10
7.01495759901e-05
2.0186450091e-10
7.01495618837e-05
2.0723807597e-10
7.01495490344e-05
2.05680861683e-10
7.01495380502e-05
1.94071953441e-10
7.01495284576e-05
1.68735070228e-10
7.01495177161e-05
1.2597163398e-10
7.01495107928e-05
5.62767684447e-11
7.01495006549e-05
-7.9163769791e-11
7.01495114195e-05
-3.57206988073e-10
7.01495344417e-05
-7.50073015412e-10
7.01495576337e-05
-1.32550411688e-09
7.01495594221e-05
-2.17039359501e-09
7.01495128945e-05
-3.40070228559e-09
7.01493647459e-05
-5.19726461214e-09
7.01490159986e-05
-7.83308208445e-09
7.01482914468e-05
-1.17183339194e-08
7.01468895478e-05
-1.74776171511e-08
7.01442987627e-05
-2.60654740773e-08
7.01396448898e-05
-3.89253300747e-08
7.01314468762e-05
-5.82746885775e-08
7.01172158857e-05
-8.75322011123e-08
7.00927981106e-05
-1.31954087594e-07
7.00511051941e-05
-1.99239156934e-07
6.99801663876e-05
-3.00708631518e-07
6.98600217022e-05
-4.52254536178e-07
6.96582369201e-05
-6.74499902208e-07
6.93249163433e-05
-9.90392784109e-07
6.87905398278e-05
-1.41741334512e-06
6.79725624456e-05
-1.95429278581e-06
-2.55505073578e-06
6.6812960708e-05
5.08804129628e-05
7.87227379761e-07
5.31704654646e-05
2.16453021127e-06
5.62177485861e-05
3.00906735381e-06
5.94382681227e-05
3.30264752818e-06
6.24449674493e-05
3.18548912719e-06
6.5038250352e-05
2.82473419157e-06
6.7154863395e-05
2.3597672275e-06
6.8813561367e-05
1.8853202921e-06
7.00731668652e-05
1.45476801096e-06
7.10056633611e-05
1.09133066213e-06
7.16812592348e-05
7.99459061117e-07
7.21614182372e-05
5.73543360283e-07
7.24965988857e-05
4.03650465198e-07
7.27264752322e-05
2.78884643944e-07
7.28812739929e-05
1.89119603121e-07
7.29834636632e-05
1.25727799678e-07
7.30494074051e-05
8.17483244762e-08
7.30908094966e-05
5.17743998826e-08
7.31159034337e-05
3.17249313127e-08
7.31303879369e-05
1.85894731216e-08
7.31381426243e-05
1.01902834051e-08
7.31417630136e-05
4.97944163286e-09
7.3142950665e-05
1.87418847675e-09
7.31428042185e-05
1.28692981057e-10
7.31419809666e-05
-7.75175941917e-10
7.31408980775e-05
-1.15863521518e-09
7.31397832853e-05
-1.2443563104e-09
7.31387560097e-05
-1.17072848595e-09
7.31378687075e-05
-1.02241248732e-09
7.31371352608e-05
-8.49721567748e-10
7.31365482848e-05
-6.79996065672e-10
7.31360903668e-05
-5.26950664464e-10
7.31357406153e-05
-3.96047145216e-10
7.31354783809e-05
-2.87927872362e-10
7.31352853012e-05
-2.00526193061e-10
7.31351457506e-05
-1.30855814178e-10
7.31350464788e-05
-7.56684200501e-11
7.31349749899e-05
-3.14610643603e-11
7.3134921925e-05
5.42377658623e-12
7.31348923379e-05
3.13293642265e-11
7.31348694399e-05
5.37441606898e-11
7.31348529354e-05
7.35936006933e-11
7.31348409932e-05
9.16434167392e-11
7.31348317741e-05
1.08540041758e-10
7.31348239994e-05
1.2500151502e-10
7.31348167566e-05
1.41370564933e-10
7.3134809408e-05
1.57693709107e-10
7.31348014896e-05
1.73710871856e-10
7.31347926942e-05
1.88843424172e-10
7.31347829777e-05
2.02240636578e-10
7.31347724052e-05
2.12887025379e-10
7.31347610574e-05
2.18984599415e-10
7.31347490602e-05
2.18003034311e-10
7.31347367203e-05
2.06666693181e-10
7.31347246512e-05
1.81071064588e-10
7.31347139214e-05
1.37075804652e-10
7.31346989656e-05
7.13244811968e-11
7.31346761247e-05
-5.58982669571e-11
7.3134634835e-05
-3.15432110597e-10
7.31345691508e-05
-6.83853179857e-10
7.31344553788e-05
-1.21104178184e-09
7.31342500569e-05
-1.96454688981e-09
7.31338850921e-05
-3.03539801536e-09
7.31332455946e-05
-4.55746026174e-09
7.3132138502e-05
-6.72579049148e-09
7.31302419421e-05
-9.82168300843e-09
7.31270286195e-05
-1.42642729525e-08
7.3121643371e-05
-2.068026016e-08
7.31126732203e-05
-2.99552215291e-08
7.30978134376e-05
-4.34148677467e-08
7.30733569057e-05
-6.30755760833e-08
7.30334060981e-05
-9.20031104217e-08
7.29684467879e-05
-1.34279584297e-07
7.28634610636e-05
-1.9572259577e-07
7.26952821948e-05
-2.84075380495e-07
7.24294090957e-05
-4.08626565188e-07
7.20174788205e-05
-5.78462459262e-07
7.13982917591e-05
-7.98226089465e-07
7.05062907785e-05
-1.06229206377e-06
-1.34560083583e-06
6.92968406804e-05
5.0787172367e-05
5.4757681332e-11
5.29516491308e-05
5.29302858861e-11
5.59606873018e-05
2.87265180995e-11
5.92633202821e-05
1.40707558029e-11
6.24488063339e-05
2.58107795488e-12
6.52735463117e-05
-6.29801332189e-12
6.76333252543e-05
-1.22286996256e-11
6.951866023e-05
-1.51877851713e-11
7.09734433798e-05
-1.56159548557e-11
7.20647877127e-05
-1.41084271697e-11
7.28642576812e-05
-1.12971142078e-11
7.34378085441e-05
-7.83748599909e-12
7.38414631361e-05
-4.39453051306e-12
7.41203492003e-05
-1.62491023624e-12
7.43094687879e-05
-1.37740864219e-13
7.44351967725e-05
-2.90944896719e-13
7.45169474258e-05
-2.40412606594e-12
7.45687279795e-05
-6.21318107315e-12
7.46004639363e-05
-1.10814032529e-11
7.46190693726e-05
-1.60260146713e-11
7.4629279495e-05
-1.99136891347e-11
7.46342804974e-05
-2.16415247643e-11
7.46361753419e-05
-2.07381901413e-11
7.46363224388e-05
-1.84679210601e-11
7.46355632326e-05
-1.59966009431e-11
7.46344175024e-05
-1.28861216004e-11
7.4633182527e-05
-9.29868938199e-12
7.46320172695e-05
-5.31544490763e-12
7.46309955587e-05
-4.80304909839e-13
7.46301423764e-05
3.72315769686e-12
7.4629454274e-05
8.40575180709e-12
7.46289142105e-05
1.34127420516e-11
7.46284997608e-05
1.86788329431e-11
7.46281878276e-05
2.42582522469e-11
7.46279571786e-05
3.03259632642e-11
7.46277894643e-05
3.70027464294e-11
7.46276695325e-05
4.43627671089e-11
7.46275857332e-05
5.24256976788e-11
7.46275300046e-05
6.1243566764e-11
7.46274911371e-05
7.04145163143e-11
7.46274652211e-05
7.99325417424e-11
7.46274484075e-05
9.07285677991e-11
7.46274377346e-05
1.02717482459e-10
7.46274309653e-05
1.15805613289e-10
7.46274265382e-05
1.30000797392e-10
7.46274233568e-05
1.45175479719e-10
7.46274206249e-05
1.61049897558e-10
7.46274177801e-05
1.77153415193e-10
7.46274143725e-05
1.92794139219e-10
7.46274100404e-05
2.07038935829e-10
7.46274046001e-05
2.18704278488e-10
7.46273978284e-05
2.26035867318e-10
7.46273893733e-05
2.26676381441e-10
7.46273786373e-05
2.17692059281e-10
7.46273645648e-05
1.95660437742e-10
7.4627345257e-05
1.56706454264e-10
7.46273201671e-05
9.69122559069e-11
7.46272755405e-05
-1.08129296674e-11
7.46271880525e-05
-2.27572895983e-10
7.46270529146e-05
-5.48266806625e-10
7.46268307484e-05
-9.88377579913e-10
7.46264607173e-05
-1.59399898889e-09
7.46258463788e-05
-2.42071272814e-09
7.46248310642e-05
-3.54188128301e-09
7.46231597215e-05
-5.0542836524e-09
7.46204156075e-05
-7.0775039836e-09
7.46159324396e-05
-9.78109296004e-09
7.46086525043e-05
-1.34002877682e-08
7.45968389234e-05
-1.81416389933e-08
7.45776911295e-05
-2.42670396713e-08
7.45467928386e-05
-3.21771814357e-08
7.44974161244e-05
-4.26262163112e-08
7.44188244215e-05
-5.56876283705e-08
7.42946225933e-05
-7.15204612543e-08
7.41004358292e-05
-8.98883185354e-08
7.38014523502e-05
-1.09642803332e-07
7.33510166985e-05
-1.2802674913e-07
7.26926625634e-05
-1.39871845884e-07
7.17683632034e-05
-1.37992878391e-07
-1.13897966432e-07
7.05366600984e-05
5.07871713288e-05