/*--------------------------------*- C++ -*----------------------------------*\
| =========                 |                                                 |
| \\      /  F ield         | OpenFOAM: The Open Source CFD Toolbox           |
|  \\    /   O peration     | Version:  2106                                  |
|   \\  /    A nd           | Website:  www.openfoam.com                      |
|    \\/     M anipulation  |                                                 |
\*---------------------------------------------------------------------------*/
FoamFile
{
    version     2.0;
    format      ascii;
    arch        "LSB;label=32;scalar=64";
    class       volVectorField;
    location    "0.335";
    object      U;
}
// * * * * * * * * * * * * * * * * * * * * * * * * * * * * * * * * * * * * * //

dimensions      [0 1 -1 0 0 0 0];

internalField   nonuniform List<vector> 
11200
(
(0.662462402612 0.150569444288 0)
(0.558948668161 0.103243390232 0)
(0.383850727265 0.0513512261219 0)
(0.283747580616 0.0248708571749 0)
(0.232075250733 0.0124170470822 0)
(0.201908562435 0.00662281855385 0)
(0.183197903172 0.00380291600213 0)
(0.171276452809 0.00231587148228 0)
(0.163510264153 0.00146450775058 0)
(0.158388721016 0.00094489336672 0)
(0.15500657628 0.000615177571288 0)
(0.152786615986 0.000402234190764 0)
(0.151346461633 0.000264232325163 0)
(0.150428221693 0.000175250021058 0)
(0.149856615901 0.000118360380777 0)
(0.149512414298 8.21596169709e-05 0)
(0.149314854351 5.88655551994e-05 0)
(0.149209493345 4.33154671127e-05 0)
(0.149159634777 3.29345990327e-05 0)
(0.14914239469 2.8186331875e-05 0)
(0.149144548403 2.76844788987e-05 0)
(0.149156820236 2.98901802057e-05 0)
(0.149172436555 3.30505143592e-05 0)
(0.149187977688 3.59659684154e-05 0)
(0.149202179559 3.860125632e-05 0)
(0.149214442629 4.10400688397e-05 0)
(0.149224599632 4.33170793371e-05 0)
(0.149232757772 4.54634645546e-05 0)
(0.149239153918 4.75185189499e-05 0)
(0.149244070114 4.95293160311e-05 0)
(0.14924779137 5.15577959934e-05 0)
(0.1492505848 5.36948628605e-05 0)
(0.149252647024 5.60235442355e-05 0)
(0.149254147723 5.8405158381e-05 0)
(0.149255218776 6.0766525667e-05 0)
(0.149255946337 6.30879534433e-05 0)
(0.149256427191 6.5379597252e-05 0)
(0.149256744887 6.76543330886e-05 0)
(0.149256953321 6.99237899726e-05 0)
(0.149257082488 7.21940526634e-05 0)
(0.149257153872 7.44661638759e-05 0)
(0.149257185253 7.67412796505e-05 0)
(0.149257189539 7.901914669e-05 0)
(0.149257175742 8.12987308784e-05 0)
(0.149257150071 8.35785355583e-05 0)
(0.149257117321 8.58559534864e-05 0)
(0.149257080938 8.81281026166e-05 0)
(0.149257044114 9.03921832035e-05 0)
(0.149257010837 9.2644863458e-05 0)
(0.149256985581 9.48832019047e-05 0)
(0.149256974894 9.71039444061e-05 0)
(0.149256988114 9.93040871871e-05 0)
(0.149257038229 0.000101480741387 0)
(0.149257143857 0.000103630395243 0)
(0.149257331205 0.000105748650939 0)
(0.149257636922 0.000107829962302 0)
(0.149258112637 0.000109867268242 0)
(0.149258834281 0.000111850698784 0)
(0.149259911779 0.000113767597817 0)
(0.149261502871 0.000115593481576 0)
(0.149263855039 0.000117272220442 0)
(0.149267375838 0.000118720345825 0)
(0.14927253245 0.000119978066075 0)
(0.149279972016 0.000121239168445 0)
(0.14929072799 0.000122965810063 0)
(0.149306320498 0.000125338572457 0)
(0.149329134842 0.000128118695566 0)
(0.149362867059 0.0001310800907 0)
(0.149413110391 0.000134007420972 0)
(0.149488095467 0.000136786835951 0)
(0.149599759358 0.000140695028357 0)
(0.149770935475 0.000151555171909 0)
(0.150039388964 0.000172281127565 0)
(0.150468275917 0.00020253389518 0)
(0.151193394711 0.000232462142942 0)
(0.152492390209 0.000191661549228 0)
(0.155021416934 -0.000216780047635 0)
(0.162374811718 -0.00211014551614 0)
(0.187703448574 -0.0107887610374 0)
(0.204361832499 -0.0496606729268 0)
(0.965408253172 0.289214709282 0)
(0.961962854296 0.252656042595 0)
(0.823574380852 0.159021444218 0)
(0.698139351326 0.0959957337557 0)
(0.61022543866 0.0582481166145 0)
(0.548971457896 0.0362148554454 0)
(0.506588845167 0.023161287101 0)
(0.477567214343 0.01513751698 0)
(0.457745425754 0.0100177564639 0)
(0.444228383515 0.0066581421453 0)
(0.435053210971 0.00441555690679 0)
(0.428873021467 0.00290686613919 0)
(0.424754097708 0.00189105839528 0)
(0.422046542135 0.00121004508092 0)
(0.420297701368 0.000757163049024 0)
(0.419193090477 0.000459255513194 0)
(0.418515484994 0.000265854514698 0)
(0.418116338732 0.000142399588461 0)
(0.417895736247 6.61097708861e-05 0)
(0.417786686164 2.30925164565e-05 0)
(0.417745271731 1.40758557442e-06 0)
(0.417741993764 -1.01633354265e-05 0)
(0.417756590398 -1.37153715314e-05 0)
(0.417778547433 -1.32695092093e-05 0)
(0.417802840103 -1.08380303974e-05 0)
(0.417826209652 -7.49570047116e-06 0)
(0.417846963297 -3.87999882732e-06 0)
(0.417864502784 -3.60968523631e-07 0)
(0.417878832261 2.85998776264e-06 0)
(0.417890267098 5.67908623303e-06 0)
(0.417899278916 8.03210066301e-06 0)
(0.417906361157 9.83452275842e-06 0)
(0.417911715197 1.10039039734e-05 0)
(0.417915574142 1.18567617373e-05 0)
(0.417918315156 1.26789908028e-05 0)
(0.417920212765 1.34361770986e-05 0)
(0.417921509178 1.41101607841e-05 0)
(0.417922395655 1.47251668837e-05 0)
(0.417922998558 1.53101512008e-05 0)
(0.417923390115 1.58788090338e-05 0)
(0.417923623829 1.64313834839e-05 0)
(0.417923743784 1.69733954589e-05 0)
(0.417923781489 1.75085991452e-05 0)
(0.417923760052 1.80402180913e-05 0)
(0.417923695503 1.85718291249e-05 0)
(0.417923599883 1.91057588493e-05 0)
(0.417923483472 1.96431327571e-05 0)
(0.417923355684 2.01863195391e-05 0)
(0.417923227496 2.07371601972e-05 0)
(0.417923111734 2.12979448908e-05 0)
(0.417923025796 2.18686018065e-05 0)
(0.417922994536 2.2448911926e-05 0)
(0.41792305155 2.3038858546e-05 0)
(0.417923243494 2.36380469616e-05 0)
(0.417923636295 2.4245632522e-05 0)
(0.417924323131 2.4860971946e-05 0)
(0.417925435962 2.54816806044e-05 0)
(0.417927169105 2.60959596362e-05 0)
(0.417929801062 2.66868043054e-05 0)
(0.417933720633 2.72235186227e-05 0)
(0.417939530784 2.76565002747e-05 0)
(0.41794832918 2.79365137213e-05 0)
(0.41796160269 2.82228532784e-05 0)
(0.417981488763 2.77687463414e-05 0)
(0.418010750746 2.51622330537e-05 0)
(0.418052996581 1.93337008639e-05 0)
(0.418114415638 9.4782161948e-06 0)
(0.418205125636 -5.9370925342e-06 0)
(0.418340726311 -2.9435969699e-05 0)
(0.418546109895 -6.46990758124e-05 0)
(0.418863168189 -0.000115918440464 0)
(0.419361494781 -0.000188064482729 0)
(0.4201545518 -0.000307836596375 0)
(0.421445987581 -0.000532803185965 0)
(0.423627438764 -0.000999787525143 0)
(0.427417587737 -0.00209048951388 0)
(0.434238582228 -0.00485647503181 0)
(0.448265418322 -0.0122543396309 0)
(0.474645479304 -0.034242909807 0)
(0.478169693368 -0.0987738303278 0)
(1.0222209642 0.238416188463 0)
(1.08213752476 0.295926653635 0)
(1.03447721629 0.239503067178 0)
(0.954615393374 0.174290164955 0)
(0.879992033088 0.121345468689 0)
(0.818614405366 0.0830993841457 0)
(0.771410811869 0.0567316668267 0)
(0.736634343121 0.0387409679539 0)
(0.71162437629 0.0264327861755 0)
(0.693916556304 0.0179731036707 0)
(0.681541339369 0.0121424468267 0)
(0.673000041004 0.00812490709247 0)
(0.667180571509 0.00536632007109 0)
(0.663271598731 0.00348444404716 0)
(0.660688426289 0.00221256117422 0)
(0.659014102092 0.00136338189747 0)
(0.657954422327 0.000805244249212 0)
(0.657304131004 0.00044591732913 0)
(0.656921713915 0.000221069181566 0)
(0.656710149272 8.55815522531e-05 0)
(0.656603284913 8.35757823101e-06 0)
(0.656561734531 -3.37207402238e-05 0)
(0.656557831301 -5.68561677415e-05 0)
(0.656571303285 -6.68763212595e-05 0)
(0.656592828749 -6.84847386116e-05 0)
(0.656616644751 -6.55641617941e-05 0)
(0.656639444606 -6.05538620084e-05 0)
(0.656659621967 -5.48644754882e-05 0)
(0.656676591931 -4.9280442268e-05 0)
(0.656690332425 -4.42087676204e-05 0)
(0.656701089616 -3.98442206233e-05 0)
(0.656709247059 -3.63054121812e-05 0)
(0.656715500161 -3.36986655562e-05 0)
(0.656720539071 -3.18594673264e-05 0)
(0.656724406785 -3.08125995693e-05 0)
(0.65672711771 -3.03054184955e-05 0)
(0.656728983485 -3.02499762181e-05 0)
(0.65673028362 -3.05613598873e-05 0)
(0.656731185718 -3.10897065655e-05 0)
(0.65673178022 -3.17523113365e-05 0)
(0.656732142194 -3.25196640151e-05 0)
(0.656732337776 -3.33563947608e-05 0)
(0.656732412588 -3.42376978646e-05 0)
(0.656732401405 -3.51448383291e-05 0)
(0.656732329117 -3.60624995533e-05 0)
(0.656732213422 -3.69792347189e-05 0)
(0.656732070188 -3.78878995606e-05 0)
(0.656731914905 -3.87830880913e-05 0)
(0.656731764051 -3.96603170516e-05 0)
(0.656731635129 -4.05138663355e-05 0)
(0.656731551748 -4.13405762091e-05 0)
(0.656731549496 -4.2136574302e-05 0)
(0.656731677535 -4.29003392586e-05 0)
(0.656732004472 -4.36350127514e-05 0)
(0.656732627909 -4.4354117493e-05 0)
(0.656733685187 -4.50883312678e-05 0)
(0.656735365041 -4.58928681127e-05 0)
(0.656737945933 -4.68626353671e-05 0)
(0.656741837116 -4.81226206403e-05 0)
(0.656747635216 -4.98922924709e-05 0)
(0.656756273944 -5.26825770805e-05 0)
(0.656769400823 -5.74949634193e-05 0)
(0.656788330101 -6.51339858101e-05 0)
(0.656814504533 -7.64645805772e-05 0)
(0.656851768902 -9.31801990306e-05 0)
(0.656906832948 -0.000117678207181 0)
(0.656989073905 -0.000153159777408 0)
(0.657112282495 -0.000204912195589 0)
(0.657298274127 -0.000281455547821 0)
(0.657582441538 -0.00039666443632 0)
(0.658022912426 -0.000574888345426 0)
(0.658708880232 -0.000863392424677 0)
(0.659787396593 -0.00135225090072 0)
(0.661515998734 -0.00221458139066 0)
(0.66433685135 -0.00381292668832 0)
(0.668945716415 -0.0069460907325 0)
(0.676368501981 -0.0133527458476 0)
(0.688613106332 -0.0268440710858 0)
(0.705238647787 -0.0563211156231 0)
(0.700492492176 -0.113088103458 0)
(1.02251475323 0.170807153424 0)
(1.10138975191 0.276496478896 0)
(1.11752425026 0.266664799151 0)
(1.09214658853 0.219901698566 0)
(1.05187813175 0.168168846867 0)
(1.0102081915 0.123567395529 0)
(0.973494648051 0.0888375199872 0)
(0.943864502677 0.0630063696478 0)
(0.921142735475 0.0442232019714 0)
(0.904283998229 0.0307423905517 0)
(0.892074784956 0.0211562920357 0)
(0.883404418972 0.0143954667381 0)
(0.877352572963 0.00966794688302 0)
(0.873197606021 0.00639383646138 0)
(0.870392827069 0.00415116471618 0)
(0.868533937614 0.00263449127655 0)
(0.867327541088 0.001624018102 0)
(0.866564138772 0.000962676773408 0)
(0.866096382132 0.000539122956374 0)
(0.865822140185 0.000275153644995 0)
(0.865671295959 0.00011706775053 0)
(0.865595043977 2.87909211404e-05 0)
(0.865563983619 -1.93271216561e-05 0)
(0.865561172608 -4.1264469781e-05 0)
(0.865572513509 -4.76694799571e-05 0)
(0.865589517354 -4.5529543425e-05 0)
(0.865607825746 -3.9160411421e-05 0)
(0.865625165236 -3.11495506475e-05 0)
(0.865640452245 -2.29681272127e-05 0)
(0.865653319752 -1.53838542157e-05 0)
(0.865663799002 -8.72564221435e-06 0)
(0.865672093055 -3.04630556967e-06 0)
(0.865678453879 1.73288510493e-06 0)
(0.865683088631 5.46468935416e-06 0)
(0.865686414521 8.0320479e-06 0)
(0.865688818282 9.78899508129e-06 0)
(0.865690454433 1.11420607445e-05 0)
(0.865691619383 1.2286097557e-05 0)
(0.865692489378 1.32538519966e-05 0)
(0.865693083371 1.41391832885e-05 0)
(0.865693450196 1.49332067001e-05 0)
(0.865693655235 1.56587162713e-05 0)
(0.865693737513 1.63318535661e-05 0)
(0.865693728834 1.69686348432e-05 0)
(0.865693652287 1.75837344633e-05 0)
(0.865693523785 1.81871035813e-05 0)
(0.865693357663 1.87867002059e-05 0)
(0.865693169641 1.93882281984e-05 0)
(0.86569298004 1.99994442537e-05 0)
(0.865692811057 2.0629792357e-05 0)
(0.86569269229 2.12644430772e-05 0)
(0.865692665603 2.1890478428e-05 0)
(0.865692784559 2.24911518026e-05 0)
(0.865693119582 2.30404208758e-05 0)
(0.865693765359 2.35020754134e-05 0)
(0.865694854309 2.38409986886e-05 0)
(0.865696571032 2.40172187556e-05 0)
(0.865699207421 2.39124422019e-05 0)
(0.865703169029 2.33798510486e-05 0)
(0.865708871691 2.20072051574e-05 0)
(0.865716783655 1.92263759444e-05 0)
(0.865728524447 1.43350557686e-05 0)
(0.865746681525 5.50765104764e-06 0)
(0.86577422343 -8.84933994769e-06 0)
(0.865815019063 -3.07346511747e-05 0)
(0.865874989334 -6.41060414219e-05 0)
(0.865963472266 -0.000115837181091 0)
(0.866094977495 -0.000196687310296 0)
(0.866292051055 -0.00032391361218 0)
(0.86658950743 -0.00052598745437 0)
(0.867040942725 -0.0008518506712 0)
(0.867731410748 -0.00138843211654 0)
(0.868797243292 -0.00228449144917 0)
(0.870451666809 -0.00381460226454 0)
(0.873013525679 -0.00650299625387 0)
(0.876881652185 -0.0113590695083 0)
(0.882378458894 -0.0202519017902 0)
(0.889687015588 -0.0364522362537 0)
(0.896362105893 -0.0654921943674 0)
(0.886533165323 -0.110045179564 0)
(1.01287874934 0.118961024283 0)
(1.08820670125 0.231806937163 0)
(1.137413658 0.253106764426 0)
(1.15409084702 0.228992753086 0)
(1.14994208035 0.188368358149 0)
(1.1353846169 0.146579842957 0)
(1.1175889002 0.110150964237 0)
(1.10059494383 0.0808162202319 0)
(1.08612450273 0.0582265742339 0)
(1.07459084628 0.0413189827356 0)
(1.06579137971 0.0289160181072 0)
(1.05928789453 0.0199600982481 0)
(1.05459966354 0.0135815589776 0)
(1.05129066128 0.00909744280111 0)
(1.04899974095 0.00598615442466 0)
(1.04744329672 0.0038569676108 0)
(1.04640642336 0.0024215996528 0)
(1.04573050861 0.00147015209574 0)
(1.04530095363 0.00085170384227 0)
(1.04503645639 0.00045901783777 0)
(1.044880093 0.000216757649077 0)
(1.04479247506 7.30176032253e-05 0)
(1.04474860754 -5.50527006014e-06 0)
(1.04473170541 -4.40105476941e-05 0)
(1.04472945202 -5.93885978172e-05 0)
(1.04473493388 -6.17229101472e-05 0)
(1.04474388077 -5.72496158756e-05 0)
(1.0447537652 -4.9807613594e-05 0)
(1.04476320779 -4.16480988933e-05 0)
(1.04477153834 -3.39920388326e-05 0)
(1.04477850612 -2.74259895842e-05 0)
(1.04478409814 -2.21533535377e-05 0)
(1.04478845988 -1.81294098457e-05 0)
(1.0447918018 -1.51404242198e-05 0)
(1.04479437827 -1.28092468284e-05 0)
(1.04479648228 -1.10134013284e-05 0)
(1.04479822515 -9.52534692852e-06 0)
(1.0447995524 -8.23680396378e-06 0)
(1.04480053447 -7.21908264189e-06 0)
(1.04480122282 -6.55148967158e-06 0)
(1.04480163978 -6.17327543561e-06 0)
(1.04480187353 -5.96560819464e-06 0)
(1.04480196963 -5.87767011979e-06 0)
(1.04480196689 -5.86033767624e-06 0)
(1.04480189049 -5.87288944943e-06 0)
(1.04480175771 -5.89579328042e-06 0)
(1.04480158571 -5.91945298036e-06 0)
(1.04480139466 -5.93982251532e-06 0)
(1.04480120978 -5.96070868589e-06 0)
(1.04480103678 -5.99486000083e-06 0)
(1.0448008904 -6.02541890674e-06 0)
(1.04480081603 -6.05050355608e-06 0)
(1.0448008685 -6.07661188534e-06 0)
(1.04480112361 -6.11881577772e-06 0)
(1.04480170429 -6.21601690115e-06 0)
(1.04480279177 -6.48274686127e-06 0)
(1.04480457374 -7.17855944757e-06 0)
(1.04480734188 -8.58037586659e-06 0)
(1.04481140899 -1.11810186837e-05 0)
(1.04481724444 -1.50114198309e-05 0)
(1.04482586342 -1.99475790841e-05 0)
(1.04483841757 -2.61758212531e-05 0)
(1.04485619365 -3.5975055934e-05 0)
(1.04488149283 -5.23273029285e-05 0)
(1.04491778392 -7.94501926874e-05 0)
(1.0449702191 -0.000123588005123 0)
(1.04504640045 -0.000194510271222 0)
(1.04515767335 -0.000307794020162 0)
(1.04532118025 -0.000488601014792 0)
(1.04556277852 -0.00077795050441 0)
(1.04592113962 -0.00124315599953 0)
(1.04645410677 -0.00199585007516 0)
(1.04724577653 -0.00322656060959 0)
(1.04840906844 -0.00526605160444 0)
(1.05007126016 -0.00869114477503 0)
(1.05228897682 -0.0144955534037 0)
(1.05481820399 -0.0242862856098 0)
(1.05686936725 -0.0403732961103 0)
(1.05573676586 -0.0655961065982 0)
(1.04212319798 -0.0994583700371 0)
(1.00447483275 0.0814039983277 0)
(1.06917236586 0.1812885391 0)
(1.13080567247 0.216950418311 0)
(1.1737499823 0.210789154649 0)
(1.19865262251 0.183690075542 0)
(1.21019984225 0.149751681513 0)
(1.21350251062 0.116779141774 0)
(1.21251718408 0.0882206750701 0)
(1.20973091702 0.0650481477915 0)
(1.20651112106 0.0470209056821 0)
(1.20351904965 0.033406805539 0)
(1.20101136146 0.0233557300541 0)
(1.19903435532 0.0160720121168 0)
(1.19753867963 0.010879512942 0)
(1.19644121223 0.00723418829802 0)
(1.19565548185 0.00471351971756 0)
(1.19510478543 0.00299763105712 0)
(1.1947263724 0.00184916320813 0)
(1.19447139138 0.00109496280425 0)
(1.19430308062 0.000610613414498 0)
(1.19419444017 0.000307987936045 0)
(1.1941261535 0.00012576893477 0)
(1.19408510083 2.22225055691e-05 0)
(1.19406183855 -3.24536707229e-05 0)
(1.19404953463 -5.72732466151e-05 0)
(1.19404403274 -6.45996124995e-05 0)
(1.19404253263 -6.23780438642e-05 0)
(1.19404321623 -5.55234074141e-05 0)
(1.19404496815 -4.6946096768e-05 0)
(1.19404713013 -3.82596399761e-05 0)
(1.19404932951 -3.02653025673e-05 0)
(1.19405137373 -2.32680665658e-05 0)
(1.19405319316 -1.7291802116e-05 0)
(1.19405478181 -1.22628673713e-05 0)
(1.19405615528 -8.07497239199e-06 0)
(1.19405733247 -4.67409949695e-06 0)
(1.19405828575 -2.06388472462e-06 0)
(1.19405896183 -1.75700816486e-07 0)
(1.19405932078 1.14035436045e-06 0)
(1.19405943876 1.99485332237e-06 0)
(1.1940594977 2.67168158077e-06 0)
(1.19405953512 3.27286976043e-06 0)
(1.1940595245 3.79796862961e-06 0)
(1.19405948305 4.25792520595e-06 0)
(1.19405940728 4.66324624111e-06 0)
(1.19405928746 5.03083580741e-06 0)
(1.19405912587 5.37244093849e-06 0)
(1.19405892877 5.69104575349e-06 0)
(1.19405870513 5.97797584682e-06 0)
(1.19405849633 6.21664518941e-06 0)
(1.1940583487 6.43078569752e-06 0)
(1.19405829181 6.61378583944e-06 0)
(1.19405837461 6.73913187038e-06 0)
(1.19405865479 6.76593597017e-06 0)
(1.19405916671 6.63407189429e-06 0)
(1.19405989196 6.25097670932e-06 0)
(1.19406092053 5.46659736584e-06 0)
(1.19406240598 3.8966184575e-06 0)
(1.19406502492 1.13602832806e-06 0)
(1.19406980759 -3.11540614222e-06 0)
(1.19407727513 -9.63153372104e-06 0)
(1.19408736475 -1.97953430023e-05 0)
(1.19410084815 -3.56230176887e-05 0)
(1.19411971258 -6.00323607263e-05 0)
(1.19414608503 -9.76048465553e-05 0)
(1.19418278815 -0.000155656485069 0)
(1.19423381278 -0.000245833591811 0)
(1.19430479198 -0.000386614853893 0)
(1.19440360953 -0.000607457275691 0)
(1.19454104045 -0.00095569339171 0)
(1.19473112666 -0.00150783677012 0)
(1.19499063773 -0.00238816812122 0)
(1.19533438087 -0.00379991577695 0)
(1.19575960245 -0.0060760193492 0)
(1.19620595767 -0.00975534111454 0)
(1.19645370003 -0.0156817331149 0)
(1.19591599811 -0.0250661769578 0)
(1.19343830311 -0.0393644957096 0)
(1.18668545249 -0.0598200033791 0)
(1.17013884629 -0.0851231923027 0)
(0.998962323623 0.0544316260929 0)
(1.05310956061 0.133401607731 0)
(1.11628266706 0.170777557666 0)
(1.17301269698 0.175143870925 0)
(1.21791243202 0.159583604732 0)
(1.25049854001 0.134951017981 0)
(1.27288486341 0.108411654235 0)
(1.28776716385 0.0838849688592 0)
(1.29745261315 0.0630565692262 0)
(1.30366067474 0.0462999183933 0)
(1.30759225992 0.0333205122906 0)
(1.31005361117 0.0235495222396 0)
(1.31157353008 0.0163599069367 0)
(1.31249482937 0.0111713153676 0)
(1.31303852049 0.00749150790564 0)
(1.31334661149 0.00492448793783 0)
(1.31351002576 0.00316295775096 0)
(1.31358665668 0.00197475440414 0)
(1.31361303417 0.00118819898068 0)
(1.31361188565 0.000678630569144 0)
(1.31359704859 0.000357008680424 0)
(1.31357672749 0.000160753161966 0)
(1.31355573269 4.6467154588e-05 0)
(1.31353643657 -1.58724635798e-05 0)
(1.31351977816 -4.6061807338e-05 0)
(1.31350608966 -5.70723446939e-05 0)
(1.3134951866 -5.73272243859e-05 0)
(1.31348673225 -5.2088568823e-05 0)
(1.31348033862 -4.45256881312e-05 0)
(1.31347562035 -3.64631716709e-05 0)
(1.31347222613 -2.88742186217e-05 0)
(1.31346985249 -2.22124556377e-05 0)
(1.31346823933 -1.66294541239e-05 0)
(1.31346715792 -1.21327168389e-05 0)
(1.31346644234 -8.65670254258e-06 0)
(1.31346599492 -6.09982949798e-06 0)
(1.3134657144 -4.32488942267e-06 0)
(1.31346551149 -3.12438160926e-06 0)
(1.31346538398 -2.2686642634e-06 0)
(1.31346541804 -1.55370853812e-06 0)
(1.3134655766 -9.79157385466e-07 0)
(1.31346568234 -5.67114382592e-07 0)
(1.3134656859 -2.09013821954e-07 0)
(1.31346561892 1.26553144976e-07 0)
(1.3134655018 4.36647926319e-07 0)
(1.31346534742 7.29338438758e-07 0)
(1.31346515857 1.01618547462e-06 0)
(1.31346493743 1.30724945674e-06 0)
(1.31346469315 1.61268154937e-06 0)
(1.31346445874 1.93517937752e-06 0)
(1.31346425743 2.22461301601e-06 0)
(1.31346409678 2.44237067561e-06 0)
(1.31346400763 2.54405993793e-06 0)
(1.31346404353 2.46567381377e-06 0)
(1.31346429272 2.12195031079e-06 0)
(1.31346487494 1.4258822423e-06 0)
(1.31346575937 3.23319154027e-07 0)
(1.3134670481 -1.36156970451e-06 0)
(1.31346915892 -3.86668355174e-06 0)
(1.31347230217 -7.92064074884e-06 0)
(1.31347668848 -1.4807165541e-05 0)
(1.31348254779 -2.6094265515e-05 0)
(1.3134901587 -4.33782694493e-05 0)
(1.31350000614 -6.98337387992e-05 0)
(1.31351240937 -0.000110488721703 0)
(1.31352745283 -0.000173088756175 0)
(1.31354475772 -0.000269716062852 0)
(1.31356301663 -0.00041932352342 0)
(1.31357904324 -0.000651722961342 0)
(1.31358593526 -0.00101413030236 0)
(1.31356964401 -0.00158154272869 0)
(1.31350274623 -0.00247299005432 0)
(1.31333103184 -0.00387569542446 0)
(1.31294695458 -0.00608198884282 0)
(1.31214056266 -0.00953630979681 0)
(1.31050658164 -0.0148801266708 0)
(1.30729180103 -0.0229416174456 0)
(1.30128683707 -0.0345610789112 0)
(1.29062429071 -0.0501758860535 0)
(1.27183272334 -0.0685595987186 0)
(0.995736072105 0.0346338605947 0)
(1.04179513656 0.0905689210567 0)
(1.10222837379 0.121549564219 0)
(1.16491409694 0.129605832793 0)
(1.22202563707 0.122009266683 0)
(1.26951888669 0.106019936169 0)
(1.30680219633 0.0870975533791 0)
(1.33499530411 0.0686366781933 0)
(1.35574471751 0.0523698360766 0)
(1.37069610348 0.0389256151923 0)
(1.38128268485 0.0282980711073 0)
(1.38866260122 0.0201712756314 0)
(1.39373025318 0.0141175098158 0)
(1.39715652413 0.00970533648939 0)
(1.39943426378 0.00655059676026 0)
(1.40091958483 0.00433445700832 0)
(1.40186613113 0.00280414780015 0)
(1.40245215221 0.00176574613648 0)
(1.4028012506 0.0010741978526 0)
(1.40299794813 0.000623237057576 0)
(1.40309916975 0.000336410255117 0)
(1.40314262306 0.000159623007613 0)
(1.40315288325 5.51628908173e-05 0)
(1.40314539396 -3.00042109416e-06 0)
(1.40312963455 -3.2125711812e-05 0)
(1.40311123328 -4.38937371132e-05 0)
(1.40309319767 -4.5764089569e-05 0)
(1.40307705262 -4.24219082683e-05 0)
(1.4030633998 -3.67307007257e-05 0)
(1.40305231273 -3.03672481678e-05 0)
(1.40304358941 -2.42464592366e-05 0)
(1.40303690397 -1.88156792285e-05 0)
(1.40303189473 -1.42433634278e-05 0)
(1.40302821123 -1.05318337001e-05 0)
(1.40302555501 -7.58047289394e-06 0)
(1.40302369367 -5.26454457562e-06 0)
(1.40302245064 -3.46112069143e-06 0)
(1.40302167546 -2.02642868606e-06 0)
(1.40302120286 -8.55433855899e-07 0)
(1.40302083907 7.4586008869e-08 0)
(1.40302051707 7.82632250601e-07 0)
(1.40302031861 1.27173774956e-06 0)
(1.40302023212 1.64377815564e-06 0)
(1.40302016578 1.96327451745e-06 0)
(1.40302008413 2.26828477259e-06 0)
(1.40301998019 2.57664051881e-06 0)
(1.40301985209 2.89721106917e-06 0)
(1.40301970132 3.23437954563e-06 0)
(1.40301952857 3.58834072545e-06 0)
(1.40301932624 3.94981524102e-06 0)
(1.40301910581 4.27706273407e-06 0)
(1.40301890121 4.53802581085e-06 0)
(1.40301874106 4.69429981354e-06 0)
(1.40301865066 4.6880197223e-06 0)
(1.40301864701 4.43108796004e-06 0)
(1.40301873689 3.78137013605e-06 0)
(1.40301893416 2.53416996321e-06 0)
(1.4030192358 5.72559474926e-07 0)
(1.40301986802 -2.51974976279e-06 0)
(1.40302101185 -7.51544178636e-06 0)
(1.40302252176 -1.52124778658e-05 0)
(1.4030240681 -2.69288772694e-05 0)
(1.40302517647 -4.45189847913e-05 0)
(1.4030251034 -7.09676106354e-05 0)
(1.40302235954 -0.000110862340956 0)
(1.40301420604 -0.000171231266917 0)
(1.40299583904 -0.000262948236099 0)
(1.40295907705 -0.000402880755176 0)
(1.40288998293 -0.000617082804533 0)
(1.40276484096 -0.000946162263904 0)
(1.40254362411 -0.00145344721524 0)
(1.40215999304 -0.0022373505633 0)
(1.40150240286 -0.00344690962182 0)
(1.40038251288 -0.00530584980968 0)
(1.39848704783 -0.00813698432414 0)
(1.3953028691 -0.0123751306777 0)
(1.39001691266 -0.0185312913667 0)
(1.38148106056 -0.0270432985548 0)
(1.36819929143 -0.0379931082824 0)
(1.34777957339 -0.0504887878315 0)
(0.994011529251 0.0192358068086 0)
(1.03484762836 0.052333839831 0)
(1.09199261273 0.0723631262137 0)
(1.15662417888 0.0791292302037 0)
(1.22032113547 0.0761045440541 0)
(1.2770194176 0.0673339688033 0)
(1.3242441465 0.0561509005245 0)
(1.36181568604 0.0447990078599 0)
(1.39068525073 0.0345303745336 0)
(1.41226068589 0.025881429763 0)
(1.42801815094 0.0189465219529 0)
(1.43929876423 0.0135849809476 0)
(1.44722799275 0.0095565341759 0)
(1.45270404506 0.00660011638988 0)
(1.45641886807 0.0044741922445 0)
(1.4588913531 0.00297351638363 0)
(1.46050221824 0.00193277219522 0)
(1.46152561613 0.00122369752878 0)
(1.46215563321 0.000749554106542 0)
(1.4625274592 0.000439020731822 0)
(1.4627337372 0.000240523227637 0)
(1.4628368804 0.000117412914169 0)
(1.46287818302 4.40492508867e-05 0)
(1.46288442194 2.6896898534e-06 0)
(1.46287229758 -1.84464392921e-05 0)
(1.46285194706 -2.74408895864e-05 0)
(1.46282939767 -2.94410074022e-05 0)
(1.46280786263 -2.76909366435e-05 0)
(1.46278886992 -2.41885628773e-05 0)
(1.46277296361 -2.01148669944e-05 0)
(1.46276013451 -1.61191936751e-05 0)
(1.46275008805 -1.25243932486e-05 0)
(1.46274241304 -9.45707667515e-06 0)
(1.46273667683 -6.92843256409e-06 0)
(1.46273248029 -4.88458745443e-06 0)
(1.46272948093 -3.2562742509e-06 0)
(1.46272739046 -1.98044026463e-06 0)
(1.46272595229 -1.01582832421e-06 0)
(1.46272495462 -3.17241374257e-07 0)
(1.46272433371 2.03725151718e-07 0)
(1.46272397736 6.84309142417e-07 0)
(1.46272373618 1.160004335e-06 0)
(1.46272357843 1.58510061274e-06 0)
(1.46272346488 1.9656339732e-06 0)
(1.46272336557 2.32308139856e-06 0)
(1.46272326101 2.67072114316e-06 0)
(1.46272313724 3.01367529914e-06 0)
(1.46272298521 3.34949718686e-06 0)
(1.46272279988 3.66843465201e-06 0)
(1.46272257832 3.95772403164e-06 0)
(1.46272232373 4.2093037475e-06 0)
(1.46272204426 4.39167639112e-06 0)
(1.46272174734 4.45352978485e-06 0)
(1.46272144348 4.32466818638e-06 0)
(1.46272114976 3.91447383212e-06 0)
(1.46272088747 3.11571099388e-06 0)
(1.46272063279 1.80594746714e-06 0)
(1.46272029235 -1.36110674247e-07 0)
(1.46271972367 -2.95200216918e-06 0)
(1.46271879427 -7.50881715724e-06 0)
(1.46271723841 -1.4588721964e-05 0)
(1.46271437427 -2.52867264532e-05 0)
(1.46270908103 -4.11478758988e-05 0)
(1.4626995512 -6.45541316224e-05 0)
(1.46268272307 -9.91048982081e-05 0)
(1.4626534551 -0.000150189211221 0)
(1.46260324042 -0.00022599188607 0)
(1.46251832367 -0.000338975159115 0)
(1.46237623653 -0.000507740205633 0)
(1.46214012843 -0.000760704878473 0)
(1.46175003928 -0.0011416326563 0)
(1.46111137585 -0.00171815802337 0)
(1.46007300844 -0.00258600441533 0)
(1.45839393087 -0.00388472816096 0)
(1.45570018959 -0.00580673084327 0)
(1.45142634162 -0.00859515633879 0)
(1.44475193752 -0.0125102006614 0)
(1.4346078089 -0.0177323817479 0)
(1.41973433638 -0.0242100716963 0)
(1.39828540701 -0.0313974466377 0)
(0.993269665179 0.00617015070192 0)
(1.03158099219 0.0171020452251 0)
(1.08672180345 0.0239906472033 0)
(1.15174552293 0.0265606639443 0)
(1.21823533414 0.0258180566488 0)
(1.27925770534 0.0230488835569 0)
(1.33140131599 0.0193656286242 0)
(1.37377593619 0.0155468550265 0)
(1.40691047572 0.0120449274007 0)
(1.43203306936 0.00906639731061 0)
(1.45060207783 0.00666059301129 0)
(1.46402978103 0.00479009072817 0)
(1.47355007899 0.00337842881061 0)
(1.48017554898 0.0023387399954 0)
(1.48470220123 0.00158891720127 0)
(1.48773611766 0.00105829318818 0)
(1.4897272563 0.00068946773643 0)
(1.49100268798 0.000437643644419 0)
(1.49179577004 0.000268890825122 0)
(1.49227014271 0.000158115637784 0)
(1.49253863654 8.71283282402e-05 0)
(1.49267771466 4.2977500221e-05 0)
(1.49273824953 1.65863919878e-05 0)
(1.49275342473 1.66472438947e-06 0)
(1.49274418931 -6.06882170857e-06 0)
(1.49272340326 -9.41452127904e-06 0)
(1.49269876201 -1.0220696394e-05 0)
(1.49267449389 -9.65705472866e-06 0)
(1.49265269673 -8.44236292559e-06 0)
(1.4926342112 -6.99537780645e-06 0)
(1.49261915964 -5.55550753656e-06 0)
(1.49260727987 -4.24322518715e-06 0)
(1.49259814166 -3.1062397903e-06 0)
(1.49259126907 -2.15090191689e-06 0)
(1.49258620778 -1.36106281534e-06 0)
(1.49258255732 -7.14965094412e-07 0)
(1.4925799821 -1.91293388752e-07 0)
(1.49257821245 2.32343735929e-07 0)
(1.49257704308 6.02149381678e-07 0)
(1.49257629703 9.70351815275e-07 0)
(1.49257582111 1.27484870234e-06 0)
(1.49257552364 1.5595495689e-06 0)
(1.49257534738 1.84180847965e-06 0)
(1.49257523996 2.13135024735e-06 0)
(1.49257516188 2.43551632937e-06 0)
(1.4925750863 2.75683659072e-06 0)
(1.49257499403 3.09451350242e-06 0)
(1.49257487112 3.44401303514e-06 0)
(1.49257470722 3.79638459721e-06 0)
(1.49257449347 4.1373955335e-06 0)
(1.49257422416 4.44720001626e-06 0)
(1.49257389547 4.69355503087e-06 0)
(1.49257350102 4.83113199349e-06 0)
(1.4925730304 4.7983724219e-06 0)
(1.49257246431 4.51194931833e-06 0)
(1.49257177509 3.85414924461e-06 0)
(1.49257095003 2.67573127046e-06 0)
(1.4925698541 8.78164737239e-07 0)
(1.49256806544 -1.76155457049e-06 0)
(1.49256528689 -5.87564184428e-06 0)
(1.49256112833 -1.19945269168e-05 0)
(1.49255456241 -2.08903052455e-05 0)
(1.49254397471 -3.36507550356e-05 0)
(1.49252682191 -5.18280529004e-05 0)
(1.4924989919 -7.76205655184e-05 0)
(1.49245377996 -0.000114049953805 0)
(1.49238031514 -0.000165498515837 0)
(1.49226153787 -0.000238443846011 0)
(1.49207007232 -0.000341372081934 0)
(1.491761281 -0.000486840426222 0)
(1.49126289054 -0.000695101622168 0)
(1.49046618579 -0.00099979643408 0)
(1.48920171239 -0.00143328190293 0)
(1.48720354398 -0.00204311041414 0)
(1.48407318472 -0.00289065213291 0)
(1.47923071445 -0.00404339260424 0)
(1.47186912636 -0.00555561349582 0)
(1.46097464829 -0.00742884509559 0)
(1.44539966707 -0.00956910898487 0)
(1.42353406949 -0.0117279822752 0)
(0.993270462936 -0.0061684017845 0)
(1.0315809746 -0.0171003771167 0)
(1.08672173677 -0.0239897635322 0)
(1.15174556013 -0.0265602492669 0)
(1.21823541139 -0.0258179958495 0)
(1.27925780671 -0.0230491132505 0)