/*--------------------------------*- C++ -*----------------------------------*\
| =========                 |                                                 |
| \\      /  F ield         | OpenFOAM: The Open Source CFD Toolbox           |
|  \\    /   O peration     | Version:  2106                                  |
|   \\  /    A nd           | Website:  www.openfoam.com                      |
|    \\/     M anipulation  |                                                 |
\*---------------------------------------------------------------------------*/
FoamFile
{
    version     2.0;
    format      ascii;
    arch        "LSB;label=32;scalar=64";
    class       surfaceScalarField;
    location    "0.056";
    object      phi;
}
// * * * * * * * * * * * * * * * * * * * * * * * * * * * * * * * * * * * * * //

dimensions      [0 3 -1 0 0 0 0];

oriented        oriented;

internalField   nonuniform List<scalar> 
799
(
1.83783e-32
4.67516e-32
6.04832e-32
5.0178e-32
2.54682e-32
-4.08267e-32
-9.98625e-32
-1.45399e-31
-1.55113e-31
-1.17018e-31
-6.08925e-32
1.7039e-33
4.04913e-32
5.05381e-32
2.92449e-32
-9.70347e-33
-6.03283e-32
-1.12428e-31
-1.52156e-31
-1.79545e-31
-1.70803e-31
-1.34103e-31
-7.23322e-32
-9.68984e-34
4.02068e-32
4.98718e-32
8.75922e-33
-6.13288e-32
-1.27106e-31
-1.79197e-31
-1.81563e-31
-1.53799e-31
-1.07022e-31
-5.15495e-32
-2.62543e-32
-1.47856e-32
-3.16121e-32
-6.91572e-32
-9.87024e-32
-1.35081e-31
-1.43745e-31
-1.30972e-31
-1.07231e-31
-6.0253e-32
-3.47553e-32
-2.42058e-32
-3.98705e-32
-8.85967e-32
-1.28326e-31
-1.64399e-31
-1.66122e-31
-1.32078e-31
-8.87039e-32
-3.42116e-32
-9.61206e-33
-1.55881e-32
-4.85139e-32
-1.07432e-31
-1.52671e-31
-1.7766e-31
-1.64339e-31
-1.11039e-31
-4.87905e-32
6.28015e-33
1.92262e-32
-2.13914e-32
-9.50657e-32
-1.78464e-31
-2.23777e-31
-2.06147e-31
-1.34656e-31
-3.27957e-32
4.37589e-32
6.0411e-32
1.34544e-32
-8.01921e-32
-1.66563e-31
-2.11058e-31
-1.994e-31
-1.39997e-31
-7.35981e-32
-2.4432e-32
-8.90385e-33
-2.37454e-32
-4.76971e-32
-7.34742e-32
-9.2884e-32
-1.10856e-31
-1.30993e-31
-1.43092e-31
-1.40963e-31
-1.0968e-31
-5.69709e-32
-3.41702e-33
2.93855e-32
1.06302e-32
-4.78293e-32
-1.29477e-31
-1.98712e-31
-2.11952e-31
-1.76555e-31
-9.06632e-32
2.82119e-34
5.36326e-32
6.27763e-32
4.94516e-33
-7.42059e-32
-1.47883e-31
-1.91701e-31
-1.74592e-31
-1.30648e-31
-6.77881e-32
-2.10558e-32
-1.23831e-32
-2.37329e-32
-5.42691e-32
-7.10322e-32
-6.84592e-32
-5.56497e-32
-4.16887e-32
-5.15425e-32
-8.19714e-32
-1.23439e-31
-1.54198e-31
-1.52717e-31
-1.17983e-31
-5.85565e-32
9.62965e-34
3.88311e-32
4.42458e-32
1.43513e-32
-3.79739e-32
-9.88905e-32
-1.54174e-31
-1.86001e-31
-1.88703e-31
-1.54954e-31
-9.07821e-32
-1.70098e-32
4.7799e-32
7.31149e-32
5.05768e-32
-1.26092e-32
-9.67848e-32
-1.61611e-31
-1.88092e-31
-1.64586e-31
-1.04331e-31
-4.16022e-32
1.70625e-33
2.48679e-33
-3.20923e-32
-7.91019e-32
-1.16206e-31
-1.16748e-31
-8.38758e-32
-3.30997e-32
8.60199e-33
1.13931e-32
-2.86693e-32
-9.98014e-32
-1.66661e-31
-1.93621e-31
-1.62737e-31
-8.25699e-32
6.76116e-33
6.48181e-32
5.68706e-32
-9.66877e-33
-9.96699e-32
-1.70478e-31
-1.77418e-31
-1.31071e-31
-5.365e-32
8.97965e-33
1.53367e-32
-2.0691e-32
-8.9628e-32
-1.39299e-31
-1.41532e-31
-1.05367e-31
-3.4486e-32
1.48778e-32
2.82117e-32
-9.71993e-34
-6.84623e-32
-1.24554e-31
-1.61143e-31
-1.53603e-31
-1.067e-31
-5.15277e-32
4.20853e-33
2.70172e-32
1.82365e-32
-1.35823e-32
-6.24219e-32
-1.00348e-31
-1.24931e-31
-1.29104e-31
-1.11921e-31
-8.59386e-32
-5.10213e-32
-1.79124e-32
3.89248e-33
1.03684e-32
-8.95755e-33
-4.88061e-32
-9.5338e-32
-1.32101e-31
-1.35381e-31
-1.01533e-31
-4.36002e-32
1.34409e-32
3.43056e-32
5.64947e-33
-6.23354e-32
-1.37787e-31
-1.75211e-31
-1.49383e-31
-6.69531e-32
3.58125e-32
1.02422e-31
9.24266e-32
5.81841e-33
-1.2335e-31
-2.2815e-31
-2.53163e-31
-1.86219e-31
-5.00667e-32
8.38411e-32
1.52189e-31
1.27041e-31
1.34595e-32
-1.23175e-31
-2.23284e-31
-2.44921e-31
-1.7558e-31
-6.34707e-32
4.55407e-32
1.02903e-31
8.43625e-32
1.45129e-32
-7.76045e-32
-1.4689e-31
-1.64651e-31
-1.33664e-31
-7.09735e-32
-1.08943e-32
1.7544e-32
4.91263e-33
-3.45524e-32
-7.67092e-32
-9.10496e-32
-6.68599e-32
-2.29712e-32
1.86127e-32
2.17841e-32
-2.09332e-32
-8.49636e-32
-1.42585e-31
-1.50226e-31
-1.00168e-31
-1.82602e-32
6.29096e-32
9.64951e-32
7.01309e-32
6.28156e-33
-6.74677e-32
-1.09068e-31
-1.04169e-31
-7.04469e-32
-2.05013e-32
1.49329e-32
2.90025e-32
3.57062e-32
3.2308e-32
3.69937e-32
4.27872e-32
3.99811e-32
3.87588e-32
3.12886e-32
3.39851e-32
4.85786e-32
6.36977e-32
7.83846e-32
7.93348e-32
7.74811e-32
8.92153e-32
1.26349e-31
1.90606e-31
2.58306e-31
2.98295e-31
2.86192e-31
2.29602e-31
1.60389e-31
1.3024e-31
1.7413e-31
2.85627e-31
4.31229e-31
5.44779e-31
5.88032e-31
5.58519e-31
4.88515e-31
4.45522e-31
4.64035e-31
5.55885e-31
6.90467e-31
8.12162e-31
8.94939e-31
9.25024e-31
9.33405e-31
9.59376e-31
1.02096e-30
1.12713e-30
1.24606e-30
1.35261e-30
1.4347e-30
1.49195e-30
1.55832e-30
1.65155e-30
1.78302e-30
1.9467e-30
2.10782e-30
2.25253e-30
2.36647e-30
2.46144e-30
2.57271e-30
2.71493e-30
2.91061e-30
3.14387e-30
3.38283e-30
3.60787e-30
3.78683e-30
3.93772e-30
4.08553e-30
4.26092e-30
4.50636e-30
4.80986e-30
5.15858e-30
5.50904e-30
5.80874e-30
6.04306e-30
6.2149e-30
6.32768e-30
6.60017e-30
6.98181e-30
8.1903e-30
1.04624e-29
1.39275e-29
2.06543e-29
2.31884e-29
2.58277e-29
8.60918e-30
-3.42869e-29
-8.5803e-29
-1.91533e-28
-1.82307e-28
-1.21643e-28
1.66253e-28
8.10366e-28
1.17562e-27
1.818e-27
1.05629e-27
-7.61678e-28
-3.03706e-27
-7.54354e-27
-7.21402e-27
-5.93177e-27
1.74752e-27
1.68755e-26
2.2667e-26
3.30477e-26
1.66472e-26
-1.36123e-26
-4.10086e-26
-9.0497e-26
-7.13239e-26
-4.21964e-26
3.15685e-26
1.54623e-25
1.62734e-25
1.91996e-25
5.43093e-26
-1.45602e-25
-2.41564e-25
-4.15713e-25
-2.36526e-25
-3.16455e-26
2.19152e-25
5.89193e-25
4.55154e-25
3.83032e-25
-3.70863e-26
-5.44004e-25
-5.80052e-25
-7.54254e-25
-2.5458e-25
2.23626e-25
5.06846e-25
9.1529e-25
5.06856e-25
2.23641e-25
-2.54567e-25
-7.54249e-25
-5.80057e-25
-5.44017e-25
-3.71004e-26
3.83023e-25
4.55152e-25
5.89197e-25
2.19159e-25
-3.16397e-26
-2.36524e-25
-4.15715e-25
-2.41569e-25
-1.45607e-25
5.43057e-26
1.91994e-25
1.62734e-25
1.54623e-25
3.15689e-26
-4.21966e-26
-7.13245e-26
-9.04976e-26
-4.10095e-26
-1.3613e-26
1.66463e-26
3.30469e-26
2.26662e-26
1.68747e-26
1.7469e-27
-5.93229e-27
-7.21446e-27
-7.54393e-27
-3.03747e-27
-7.62101e-28
1.05581e-27
1.81749e-27
1.1751e-27
8.09866e-28
1.65827e-28
-1.21988e-28
-1.8255e-28
-1.9171e-28
-8.59788e-29
-3.45072e-29
8.283e-30
2.54187e-29
2.27465e-29
2.02529e-29
1.36532e-29
1.03238e-29
8.17068e-30
7.0086e-30
6.58501e-30
6.22649e-30
6.00147e-30
5.75186e-30
5.49998e-30
5.23695e-30
4.98216e-30
4.74463e-30
4.53827e-30
4.35529e-30
4.17211e-30
3.96758e-30
3.72728e-30
3.46013e-30
3.20157e-30
2.97847e-30
2.8174e-30
2.71144e-30
2.63107e-30
2.55039e-30
2.43341e-30
2.28218e-30
2.10428e-30
1.92007e-30
1.76104e-30
1.63308e-30
1.54984e-30
1.49988e-30
1.46333e-30
1.42309e-30
1.35208e-30
1.24555e-30
1.1134e-30
9.7816e-31
8.74064e-31
8.23558e-31
8.20374e-31
8.4588e-31
8.56858e-31
8.18292e-31
7.31186e-31
6.02245e-31
4.82676e-31
4.08688e-31
3.90775e-31
4.33602e-31
4.85264e-31
5.14964e-31
4.9534e-31
4.13359e-31
3.08546e-31
2.06484e-31
1.48777e-31
1.57105e-31
2.13323e-31
2.93325e-31
3.47791e-31
3.39881e-31
2.64271e-31
1.4111e-31
2.06532e-32
-4.20364e-32
-2.22535e-32
7.18932e-32
1.9339e-31
2.77111e-31
2.83825e-31
2.04162e-31
7.66569e-32
-4.10073e-32
-1.00902e-31
-8.21319e-32
-7.4389e-33
8.56994e-32
1.49204e-31
1.63278e-31
1.28682e-31
6.37377e-32
4.61772e-33
-3.72017e-32
-4.22508e-32
-2.07511e-32
1.24606e-32
4.90232e-32
5.98197e-32
5.53374e-32
2.90018e-32
-2.50916e-33
-1.3427e-32
-1.34228e-32
1.5199e-32
4.05538e-32
4.65398e-32
3.45908e-32
-1.10538e-32
-4.69075e-32
-6.39063e-32
-5.01434e-32
1.27292e-33
4.63662e-32
7.79718e-32
7.39392e-32
3.54382e-32
-3.93311e-33
-3.95478e-32
-5.03522e-32
-4.43957e-32
-4.17724e-32
-3.80905e-32
-4.00849e-32
-2.69568e-32
1.46514e-32
6.8057e-32
1.18705e-31
1.22153e-31
5.98212e-32
-4.71672e-32
-1.66673e-31
-2.24803e-31
-1.88218e-31
-6.55843e-32
1.05079e-31
2.27314e-31
2.50764e-31
1.55572e-31
-2.74763e-32
-1.97123e-31
-2.90466e-31
-2.52991e-31
-9.94517e-32
8.41409e-32
2.30322e-31
2.56179e-31
1.58408e-31
-6.47519e-33
-1.74725e-31
-2.50648e-31
-2.16899e-31
-9.58586e-32
5.95631e-32
1.60301e-31
1.82957e-31
1.20216e-31
9.31067e-33
-8.50945e-32
-1.43142e-31
-1.39431e-31
-9.50492e-32
-3.95004e-32
1.79894e-32
5.04428e-32
6.7947e-32
6.70886e-32
4.64317e-32
1.87237e-32
-2.25063e-32
-5.83318e-32
-8.4194e-32
-9.33139e-32
-7.95842e-32
-5.32971e-32
-1.39261e-32
2.34888e-32
5.59167e-32
7.12722e-32
6.33511e-32
3.57561e-32
-1.45931e-32
-6.0581e-32
-9.75751e-32
-1.0727e-31
-8.3401e-32
-4.77849e-32
3.54115e-33
3.89531e-32
5.65215e-32
5.87348e-32
3.30297e-32
5.45128e-33
-3.21976e-32
-6.56234e-32
-8.01458e-32
-8.33943e-32
-5.75973e-32
-2.06298e-32
1.8504e-32
5.00275e-32
5.32076e-32
3.73604e-32
2.08918e-33
-3.67145e-32
-6.33371e-32
-7.45124e-32
-6.26748e-32
-3.6689e-32
-4.26051e-33
2.34963e-32
3.67958e-32
3.09958e-32
1.07491e-32
-1.40563e-32
-3.30824e-32
-3.32719e-32
-2.46737e-32
-1.08568e-32
-6.41218e-33
-1.93676e-32
-3.03876e-32
-3.72201e-32
-1.70355e-32
2.2397e-32
5.57873e-32
6.99669e-32
3.5416e-32
-2.59283e-32
-8.81263e-32
-1.18199e-31
-8.59807e-32
-1.50719e-32
6.97638e-32
1.18234e-31
1.0408e-31
3.98938e-32
-4.954e-32
-1.08112e-31
-1.13449e-31
-6.30411e-32
1.72303e-32
7.69228e-32
9.48295e-32
5.74652e-32
-8.59296e-33
-6.34233e-32
-8.39814e-32
-5.18767e-32
7.40988e-33
6.28921e-32
8.75612e-32
6.03486e-32
2.32936e-33
-6.18629e-32
-1.01289e-31
-9.02381e-32
-4.0807e-32
3.05877e-32
9.31669e-32
1.15597e-31
9.78591e-32
4.18137e-32
-2.98587e-32
-8.60214e-32
-1.17106e-31
-1.0605e-31
-6.01236e-32
2.47728e-33
7.16973e-32
1.16911e-31
1.29055e-31
1.01742e-31
3.46637e-32
-4.35095e-32
-1.13941e-31
-1.44988e-31
-1.19571e-31
-4.82295e-32
5.04052e-32
1.31254e-31
1.61273e-31
1.27033e-31
3.84151e-32
-6.15004e-32
-1.30054e-31
-1.36013e-31
-7.58405e-32
1.83123e-32
1.0275e-31
1.38576e-31
1.08036e-31
3.2148e-32
-5.25448e-32
-1.05269e-31
-9.64688e-32
-3.9304e-32
4.30633e-32
1.08299e-31
1.2038e-31
8.61357e-32
1.21085e-32
-5.63997e-32
-8.49395e-32
-7.23096e-32
-1.00209e-32
5.49746e-32
9.78734e-32
1.06439e-31
6.40481e-32
1.29188e-32
-3.53529e-32
-5.76921e-32
-3.80597e-32
-4.89231e-33
4.02564e-32
7.10736e-32
7.6731e-32
6.8688e-32
4.43823e-32
2.24784e-32
9.50777e-33
2.39237e-33
4.55528e-33
7.13325e-33
5.46708e-33
6.79003e-33
7.06049e-33
1.70348e-32
4.00405e-32
6.41515e-32
9.35159e-32
1.02296e-31
8.85515e-32
5.36635e-32
-4.15956e-33
-4.75614e-32
-7.31157e-32
-5.79912e-32
-4.21598e-33
6.02252e-32
1.23827e-31
1.47689e-31
1.32811e-31
8.13216e-32
1.80007e-32
-3.06836e-32
-5.08716e-32
-2.92516e-32
1.79879e-33
5.09348e-32
7.16973e-32
7.27099e-32
6.60684e-32
2.16291e-32
1.26126e-32
-1.94797e-32
-2.53077e-32
-5.00702e-33
)
;

boundaryField
{
    left
    {
        type            calculated;
        value           uniform 0;
    }
    right
    {
        type            calculated;
        value           uniform 0;
    }
    empty
    {
        type            empty;
        value           nonuniform List<scalar> 0();
    }
}


// ************************************************************************* //
