/*--------------------------------*- C++ -*----------------------------------*\
| =========                 |                                                 |
| \\      /  F ield         | OpenFOAM: The Open Source CFD Toolbox           |
|  \\    /   O peration     | Version:  2106                                  |
|   \\  /    A nd           | Website:  www.openfoam.com                      |
|    \\/     M anipulation  |                                                 |
\*---------------------------------------------------------------------------*/
FoamFile
{
    version     2.0;
    format      ascii;
    arch        "LSB;label=32;scalar=64";
    class       volScalarField;
    location    "0.495";
    object      p;
}
// * * * * * * * * * * * * * * * * * * * * * * * * * * * * * * * * * * * * * //

dimensions      [0 2 -2 0 0 0 0];

internalField   nonuniform List<scalar> 
11200
(
150.100616907
147.172015006
146.058163255
145.530830739
145.163499446
144.868719247
144.607073429
144.358532763
144.114011968
143.868941352
143.620623733
143.367304386
143.107751275
142.841028796
142.566370068
142.283101671
141.99059779
141.688252448
141.375466839
141.051652815
140.71618665
140.368419331
140.007692524
139.633338384
139.244671342
138.840990093
138.421578435
137.98570594
137.532628702
137.061589957
136.57182067
136.062540035
135.532955607
134.982263502
134.409649106
133.814288203
133.195346847
132.551981568
131.883339778
131.188560202
130.466773188
129.71710092
128.938657604
128.13054956
127.291875156
126.421724581
125.519179404
124.583311817
123.613183529
122.607844207
121.566329345
120.487657419
119.370826166
118.214807773
117.018542715
115.780931909
114.5008268
113.177016839
111.808213685
110.393031368
108.929961286
107.417340542
105.85331176
104.235774374
102.562318364
100.830138471
99.0359242012
97.1757155088
95.2447082249
93.2369875682
91.1451643892
88.9598791545
86.6689328927
84.2561392992
81.6994123167
78.9670914908
76.0115763734
72.7602892413
69.0594982985
64.2961844359
148.30757519
146.949400804
146.158428416
145.658412803
145.267422977
144.943538588
144.659015348
144.394410746
144.138920256
143.886395439
143.633008944
143.376247148
143.114372976
142.846109934
142.570457573
142.286581062
141.993743004
141.691260578
141.378475351
141.054725483
140.719360771
140.371705771
140.011116735
139.636925547
139.248436216
138.844941712
138.425722997
137.990047817
137.537170973
137.06633472
136.576769021
136.067691507
135.538307893
134.987817936
134.415408971
133.820256796
133.20152719
132.558376638
131.889952572
131.195393789
130.473830787
129.724385965
128.946173846
128.138301175
127.299866897
126.429961938
125.527668818
124.592060939
123.622201536
122.617142185
121.575920762
120.497558705
119.381057437
118.225393723
117.029513729
115.79232543
114.512689031
113.189404854
111.821198064
110.406699593
108.94442234
107.432731021
105.869801919
104.253571969
102.581673366
100.851365853
99.0594338141
97.202039773
95.2745442896
93.2712626111
91.1851258252
89.0071775063
86.7258702931
84.3260682181
81.7873760285
79.0812853107
76.1669977978
72.9866797479
69.4375430148
65.3247413636
147.312384929
146.658184209
146.105827576
145.668208548
145.296583184
144.974479632
144.685377709
144.415141519
144.154676025
143.898192327
143.641805405
143.382833522
143.119364607
142.849971661
142.573533592
142.289121769
141.995926557
141.69320937
141.380271923
141.056437372
140.721043655
140.373451174
140.01291598
139.63878438
139.250364288
138.84694612
138.427808535
137.992218196
137.539429602
137.068685238
136.579215952
136.070241645
135.540971391
134.990597776
134.418303035
133.823265385
133.204651738
132.561619095
131.893315743
131.198881314
130.477447158
129.728136607
128.95006528
128.142341222
127.304064952
126.43432931
125.532219148
124.596810719
123.627170753
122.62235511
121.581406942
120.503354153
119.387206074
118.231949143
117.036541346
115.799905103
114.520918323
113.198403162
111.83111174
110.417708154
108.956745411
107.446636704
105.88561792
104.271720817
102.602707943
100.875985084
99.0885106335
97.236686103
95.3161974032
93.3218060174
91.2470623891
89.0839037992
86.8222355446
84.4491419067
81.9479022375
79.2966568701
76.4674330435
73.4286166317
70.1442317438
66.59126237
146.762623737
146.399242089
145.999343142
145.630351337
145.292732845
144.984628193
144.699262267
144.428555388
144.166180164
143.907509594
143.649125618
143.388496663
143.123722871
142.853336948
142.576162802
142.291217902
141.997645929
141.694670696
141.381565083
141.057629184
140.722172081
140.374503614
140.013982578
139.639885852
139.251502704
138.848125422
138.429032419
137.993489126
137.540748914
137.070053257
136.580631831
136.071702722
135.5424733
134.992141887
134.419898338
133.824917122
133.206366158
132.563403176
131.895175489
131.200823194
130.479478438
129.730265567
128.952301645
128.144696576
127.306553213
126.4369673
125.535027251
124.599813689
123.630398693
122.625844631
121.585202486
120.507509719
119.391787368
118.237036222
117.042231943
115.806318844
114.528201864
113.206736413
111.840715582
110.42885381
108.969769976
107.461965505
105.903780155
104.293354275
102.628586597
100.907078578
99.1260549306
97.282263595
95.3718515379
93.3902089216
91.331778822
89.1898319147
86.9561367525
84.6206517012
82.1712881921
79.593948613
76.8738885757
74.0014020278
70.9800879878
67.8471273854
146.42857583
146.196780043
145.895366715
145.584388243
145.279546842
144.987521114
144.70854282
144.439413705
144.176450149
143.916361998
143.656388818
143.394293169
143.128282507
142.856907742
142.578972165
142.293458801
141.999475018
141.696211614
141.382913284
141.058857441
140.723339222
140.375662322
140.015130409
139.641032885
139.252672611
138.849333254
138.430287994
137.994799849
137.542120849
137.071491907
136.58214279
136.073292264
135.544148191
134.99390724
134.421755497
133.826869277
133.208414038
132.56554775
131.897421028
131.203174411
130.481942535
129.732852067
128.955022521
128.147566575
127.309590345
126.440193442
125.538468912
124.603502991
123.634374533
122.630154061
121.589903116
120.512671821
119.397496599
118.243397004
117.049371441
115.814391323
114.537394287
113.217276613
111.852880545
110.442986986
108.986292893
107.481386921
105.926731573
104.3206323
102.661195471
100.946279134
99.1734357904
97.3398435499
95.4422229381
93.4767398099
91.4388975113
89.3234315881
87.1242337753
84.8343855857
82.4464665145
79.9534676917
77.3511932493
74.6440857153
71.8535049671
69.0301461136
146.2251834
146.049281057
145.808085428
145.540758343
145.263569614
144.986929118
144.715236808
144.448732156
144.185963609
143.924951082
143.663659655
143.400222263
143.133013428
142.860642308
142.581916001
142.295796802
142.001362672
141.697774225
141.384248737
141.06004043
140.724425925
140.376693358
140.016133341
139.642036143
139.253691196
138.850377745
138.43136632
137.995917894
137.543282996
137.072701286
136.583401542
136.074601693
135.545509031
134.99532036
134.423222404
133.8283925
133.209999185
132.567202216
131.899152891
131.204995582
130.483865791
129.734890902
128.957192514
128.1498859
127.312080577
126.442880701
125.541384949
124.60668642
123.637872407
122.634023961
121.594214386
120.517508571
119.402960984
118.249613192
117.056490772
115.822599773
114.546921813
113.228404108
111.8659566
110.458428795
109.004605355
107.503194032
105.952811251
104.351940881
102.69891589
100.991886456
99.2287817363
97.407268116
95.5247057248
93.5781088414
91.5641213969
89.4790318825
87.3188741249
85.0797070252
82.7582458077
80.3531388645
77.8674539052
75.313345218
72.7177605377
70.1277947349
146.10206669
145.946458811
145.740156231
145.503593021
145.248116437
144.984835289
144.720220148
144.456709354
144.194573673
143.932985267
143.670610102
143.405971664
143.137640174
142.864307079
142.584800206
142.298071978
142.003177469
141.69925086
141.385484144
141.061109428
140.725384903
140.377584153
140.016988355
139.64287997
139.25454014
138.851243136
138.432256641
137.99683944
137.544240547
137.073698766
136.584442482
136.075689603
135.546647669
134.996514225
134.424477208
133.829714854
133.211396122
132.568681585
131.900723444
131.206665289
130.48564254
129.736786399
128.959222877
128.15207154
127.31444668
126.445457755
125.54420983
124.609803822
123.641336514
122.637900335
121.598582723
120.522465936
119.408625656
118.256129271
117.064033524
115.831381123
114.557196465
113.240485299
111.880220774
110.475344022
109.024753547
107.527289258
105.981721978
104.386739202
102.740929192
101.042762758
99.2905755991
97.4825539632
95.6167282069
93.6909839684
91.7031070316
89.6508914834
87.5323580334
85.3461741048
83.0924084982
80.7738186714
78.3979532379
75.980410362
73.5480652818
71.1402719542
146.027987098
145.877976772
145.69122051
145.475114261
145.235407116
144.982584591
144.723946015
144.463206171
144.201837627
143.939913984
143.676694378
143.411055374
143.141756452
142.867576366
142.587371597
142.300092304
142.004776993
141.700538344
141.386546819
141.062015258
140.7261857
140.378318809
140.017685645
139.643560645
139.255220102
138.851933295
138.432965146
137.997572398
137.54500271
137.074494085
136.585274511
136.07656183
135.547563763
134.997478097
134.425492937
133.830787001
133.21253008
132.569883214
131.90199958
131.208025666
130.48710307
129.738365127
128.960938556
128.15394644
127.316507776
126.447737879
125.546748923
124.612650409
123.644549508
122.641551371
121.602759433
120.527274703
119.414195575
118.262617166
117.071630288
115.840320118
114.567764115
113.253027483
111.895164049
110.493203998
109.046156461
107.553001969
106.01268606
104.42411188
102.786135054
101.097560196
99.3571418177
97.5635940587
95.7156155147
93.811941282
91.8514390283
89.8332789873
87.7572154248
85.6240605832
83.4364278401
81.1998503812
78.9243640398
76.6265730141
74.3311567418
72.0701208618
145.985710813
145.83626297
145.659846886
145.456108055
145.226574639
144.980865384
144.726504368
144.467864788
144.207156625
143.945060859
143.681261583
143.414900925
143.144887348
142.870072197
142.589338728
142.301638751
142.006000234
141.701520646
141.387354656
141.062700704
140.726788638
140.378869236
140.01820585
139.644067899
139.255724196
138.852444049
138.433489273
137.998114868
137.545567521
137.075084679
136.585894058
136.077213501
135.548250941
134.998204548
134.426262997
133.831605824
133.213403917
132.570820092
131.903009909
131.209121979
130.488296659
129.739670905
128.962376466
128.155540816
127.318288025
126.449739608
125.549015318
124.615233901
123.647513795
122.644973775
121.606733518
120.531914133
119.419638556
118.269031723
117.079220547
115.849333616
114.578500702
113.265853598
111.910522947
110.511640012
109.068333553
107.579729851
106.04495304
104.463126345
102.833376677
101.154843702
99.4266967785
97.6481647045
95.8185844972
93.9374833455
92.0047064624
90.0206207445
87.9864212331
85.9045992319
83.7796010262
81.618721689
79.4332108491
77.2394792784
75.0595706533
72.9196621101
145.966434445
145.816556444
145.644593047
145.446657053
145.222095081
144.979975243
144.727839193
144.4703292
144.210000821
143.947838182
143.683746005
143.417008542
143.14661619
142.871461461
142.59044369
142.302516687
142.006703401
141.70209346
141.387833181
141.063113309
140.727157126
140.379210078
140.01853127
139.644386817
139.256044206
138.852770008
138.433825106
137.998463786
137.545932312
137.07546801
136.586298581
136.077642067
135.548706777
134.998691429
134.42678544
133.832169303
133.214015076
132.571486898
131.903741486
131.209928782
130.489193598
129.740675283
128.963508859
128.156826106
127.31975644
126.451427879
125.550968052
124.617505244
123.650169479
122.648093615
121.610414466
120.536273927
119.424820138
118.275208648
117.086603664
115.858179369
114.589121254
113.278626974
111.925909403
110.5301992
109.090744695
107.606819298
106.077726586
104.502808699
102.881459702
101.213145351
99.497432831
97.7340356229
95.9228790061
94.0642006799
92.1586928554
90.2077248579
88.213636477
86.1801809893
84.1130660518
82.0206363435
79.9146147314
77.8107545129
75.7287450706
73.6905089173
145.96643709
145.816572568
145.644620119
145.446693357
145.222139847
144.980027626
144.727898275
144.470394151
144.210070944
143.947912899
143.683824855
143.417091166
143.146702322
142.871550917
142.590536361
142.302612524
142.006802409
141.702195695
141.387938752
141.063222376
140.727269915
140.379326889
140.018652497
139.644512974
139.256175986
138.852908144
138.433970517
137.998617612
137.546095938
137.075642982
136.586486915
136.077846219
135.548929721
134.998936775
134.427057559
133.83247348
133.21435769
132.57187569
131.904186023
131.210441006
130.489787528
129.741367943
128.964321017
128.15778301
127.320888758
126.452772846
125.552570874
124.619420807
123.652464413
122.650848804
121.613728086
120.540265134
119.429633561
118.281019807
117.093625512
115.866670154
114.599394105
113.291061579
111.940966683
110.548440007
109.112847819
107.633608209
106.110199999
104.542177249
102.929189939
101.271010954
99.5675732215
97.8190261614
96.0258152141
94.1887903106
92.3093785489
90.3898835131
88.4334201048
86.4446084967
84.4299639268
82.3983877228
80.3616654295
78.3348138008
76.3357347026
74.3835201513
145.9857188
145.836311714
145.659928703
145.456217708
145.226709783
144.981023305
144.726682257
144.468060177
144.207367434
143.945285367
143.681498413
143.41514901
143.145145899
142.87034067
142.589616792
142.301926264
142.006297222
141.701827287
141.387671274
141.063027783
140.72712685
140.379219471
140.018569257
139.644446028
139.256119039
138.852857788
138.433924624
137.998575148
137.546056761
137.075607752
136.586456926
136.0778234
135.548916673
134.998936826
134.42707487
133.83251319
133.214426104
132.571980512
131.904336628
131.210648778
130.490066305
129.741734576
128.964796014
128.158391288
127.32166058
126.453744962
125.553787907
124.620936925
123.654345361
122.653174369
121.616595081
120.543791002
119.433960765
118.286321127
117.100110477
115.874592838
114.609062566
113.302849401
111.955325848
110.565915082
109.134103128
107.659443862
106.14158122
104.580267068
102.975386738
101.326995784
99.635378931
97.9011227232
96.1251167132
94.3087354023
92.453957155
90.563463358
88.6412297382
86.6925161211
84.7243138057
82.7457755166
80.7685739435
78.8071126883
76.8781077817
74.9989982459
146.028000605
145.878059249
145.691358714
145.475299094
145.235634467
144.98284977
144.724244248
144.463533313
144.202190204
143.940289142
143.677089837
143.411469378
143.142187705
142.868023977
142.587835033
142.300571341
142.005271689
141.701049006
141.387073997
141.062559764
140.726748671
140.378901734
140.018290348
139.644189772
139.255876529
138.852620793
138.433688221
137.998336498
137.545814452
137.075361508
136.586207377
136.077571987
135.548665599
134.99868908
134.426834292
133.832284597
133.214215458
132.571795139
131.90418548
131.210542771
130.490018741
129.741761638
128.964917395
128.158630935
127.3220476
126.454314721
125.55458335
124.622010191
123.655759725
122.655006606
121.618938333
120.546758204
119.437688847
118.290976042
117.105893285
115.881747037
114.61788293
113.313692893
111.968622945
110.582186708
109.153974955
107.68367472
106.17108578
104.616147876
103.018974912
101.379882205
99.6994250381
97.9784604786
96.2183083401
94.4207841101
92.5883429019
90.7242461329
88.8328022508
86.9196131385
84.9918970719
83.058825644
81.1318391546
79.2248828862
77.3540880547
75.5363675045
146.102086075
145.946577153
145.740353881
145.503856421
145.248439389
144.985210913
144.720641584
144.457170731
144.195070122
143.933512817
143.671165602
143.406552696
143.138244961
142.864934406
142.585449344
142.298742627
142.003869709
141.699965107
141.386221138
141.061870261
140.726171107
140.378397814
140.017832119
139.643757255
139.255454979
138.85220064
138.433262989
137.99790209
137.545368554
137.074903158
136.585736684
136.077089953
135.548174039
134.998190599
134.426332328
133.831783514
133.213720694
132.571313425
131.90372511
131.210113928
130.489633863
129.741435873
128.964669169
128.158482653
127.322026491
126.454453872
125.554922958
124.622599065
123.656657103
122.656284348
121.620683617
120.549076695
119.440708613
118.294852238
117.110813795
115.887939253
114.625621842
113.323311098
111.980523227
110.596852686
109.171990866
107.705741892
106.198044631
104.648999094
103.058897348
101.428277254
99.7579741249
98.0491715848
96.3034810686
94.5230443875
92.7106595034
90.869926148
89.0054257827
87.1229324238
85.2296750361
83.3346369693
81.4488971935
79.5860241762
77.7620274131
75.9943147618
146.225209314
146.049438948
145.808347699
145.541106067
145.263994022
144.987420826
144.715786727
144.449332656
144.186608443
143.925635204
143.664379096
143.400973993
143.133795233
142.861452678
142.582754031
142.296662112
142.002255318
141.698694626
141.385197637
141.061018882
140.725435255
140.377735497
140.01721276
139.643158702
139.254861499
138.851601557
138.432651059
137.99727262
137.544718755
137.074231665
136.585043231
136.076375183
135.547439399
134.997438319
134.425565446
133.831005929
133.212937237
132.570530036
131.902949091
131.209354278
130.488901685
129.740744813
128.964035934
128.157927614
127.321574426
126.454134874
125.55477356
124.622663605
123.656989375
122.656949565
121.621760867
120.550661773
119.442917516
118.297825361
117.114720952
115.892985777
114.632055919
113.331432279
111.990692719
110.609506662
109.187651817
107.725035022
106.221717646
104.67794615
103.094187309
101.471169793
99.8099367312
98.1119094351
96.3789626528
94.613509515
92.81860504
90.9980663589
89.15661702
87.3000476612
85.4354193075
83.5713252775
81.7182796222
79.8893623908
78.1006037669
76.3706765628
146.428608943
146.196982329
145.895700072
145.584827274
145.280079517
144.988135126
144.709226702
144.440158066
144.177247434
143.917206183
143.657275211
143.39521823
143.129243696
142.857903385
142.580001354
142.294521288
142.000571093
141.697341933
141.384078679
141.060058959
140.724578407
140.37694032
140.016449259
139.642405973
139.254103885
138.850828469
138.431855355
137.996449628
137.543865603
137.0733468
136.584126108
136.075426078
135.546459332
134.996429042
134.424529483
133.829946681
133.211859114
132.569438544
131.901850935
131.208257485
130.487815849
129.739681561
128.963009479
128.156955357
127.32067767
126.453339661
125.554111641
124.622173617
123.656718265
122.656954264
121.622110521
120.551440227
119.444226356
118.299787611
117.117485503
115.896732558
114.637001269
113.33783663
111.998869532
110.619832524
109.200578839
107.741104933
106.241577037
104.702362779
103.124068593
101.507583975
99.8541324014
98.1653302655
96.4432563348
94.6905284122
92.9103882266
91.1067934597
89.2845182706
87.4492596785
85.6077691515
83.768040824
81.9396961911
80.1348896331
78.3691366527
76.6622921691
146.762664058
146.399492425
145.999750081
145.630882042
145.293371335
144.985358755
144.700070951
144.429431096
144.167114125
143.908494915
143.650157001
143.389570176
143.12483578
142.854487606
142.577350601
142.292443265
141.998910329
141.695976586
141.382915421
141.059027814
140.723628098
140.376032701
140.01555758
139.641510057
139.253189949
138.849887026
138.430880016
137.995436291
137.542811712
137.072250852
136.582987406
136.074244577
135.54523549
134.99516373
134.423224
133.82860295
133.210479972
132.568027832
131.900413664
131.206800307
130.486347437
129.738212163
128.961551483
128.155523784
127.319290689
126.452019248
125.552884409
124.621071835
123.655781182
122.656229485
121.621655478
120.551324329
119.444533488
118.300619121
117.118963718
115.899005146
114.640247892
113.342274225
112.004758861
110.627486597
109.210372474
107.753485578
106.257077041
104.721612908
103.14781234
101.536691988
99.889616708
98.2083564277
96.4951488212
94.7527661326
92.9845841749
91.1946495229
89.3877384373
87.5694024613
85.7460060558
83.9247665013
82.1139866853
80.3240483341
78.5681673477
76.8649972863
147.312437259
146.658496734
146.106318095
145.668836235
145.297328375
144.975323332
144.68630375
144.416137335
144.155731786
143.89930032
143.642959651
143.384029466
143.120598859
142.851241812
142.574838099
142.290459993
141.997299119
141.694619013
141.38172377
141.057937951
140.722593461
140.375020047
140.014538773
139.640469436
139.252116602
138.848773286
138.429720758
137.99422824
137.541553079
137.070940837
136.581625935
136.0728322
135.543773333
134.993653472
134.421667823
133.827003174
133.208838037
132.566346442
131.898696438
131.20505141
130.484571609
129.736416308
128.959744418
128.153716449
127.3174966
126.450255023
125.551170378
124.619432744
123.654246995
122.654836508
121.62044792
120.550356242
119.443870262
118.300339914
117.119164194
115.899800497
114.641775467
113.344699454
112.008280785
110.632343946
109.216850875
107.761925979
106.267885252
104.735270039
103.164885822
101.557846361
99.9156232959
98.240100428
96.5336309817
94.7991007901
93.0399833906
91.2603887456
89.4650898368
87.6595156633
85.8496836285
84.0419819121
82.2430716754
80.4605129794
78.7014207956
76.9744922171
148.307674934
146.949858787
146.159111453
145.659268083
145.268427395
144.94467136
144.660259463
144.395753115
144.140350659
143.887905815
143.634592925
143.37789964
143.116089748
142.847887206
142.572291604
142.288467762
141.99567741
141.693236033
141.380486402
141.056779882
140.72145699
140.373868263
140.013361773
139.639254156
139.250853746
138.847456928
138.428346622
137.992791026
137.540049163
137.069368124
136.579982945
136.071117787
135.541986623
134.991793877
134.419735129
133.824998083
133.206764101
132.564206168
131.896492443
131.202787211
130.482251856
129.734046188
128.957330141
128.151265627
127.31501856
126.447761174
125.548674655
124.616952143
123.651802261
122.652453031
121.618156197
120.548193005
119.441879971
118.298576267
117.117692086
115.8986986
114.641139776
113.344644616
112.008944162
110.633890183
109.219476868
107.765866286
106.273417987
104.742723183
103.174643887
101.57035728
99.9314049646
98.2597448403
96.557803311
94.8285548522
93.0755474009
91.302949193
89.515565116
87.7188126207
85.9185888825
84.1207607992
82.3308581404
80.5536441591
78.7839226115
76.9921918186
150.10078353
147.172685451
146.059156913
145.532085434
145.164984956
144.870410948
144.608952728
144.360586086
144.1162294
143.871315832
143.623150544
143.369980844
143.110576607
142.844004172
142.569498705
142.286388884
141.994050899
141.69188012
141.379274002
141.055625094
140.720328074
140.372743132
140.012201359
139.638037538
139.249569539
138.846098167
138.426909601
137.99127883
137.538463535
137.067709306
136.578251208
136.069313556
135.540110395
134.989846186
134.417716508
133.822908779
133.204603194
132.561973764
131.894189289
131.200414398
130.479810861
129.731539111
128.954759803
128.148635646
127.31233349
126.445026689
125.545897769
124.614141463
123.648968245
122.649608438
121.615316632
120.545377366
119.439111191
118.295882054
117.115105817
115.896260253
114.638896856
113.342654681
112.007276482
110.632627702
109.218718689
107.765730626
106.274045618
104.744281334
103.177330526
101.574405516
99.9370877244
98.2673844458
96.5677928142
94.8413182641
93.0915659779
91.3227729878
89.5398284291
87.7482510597
85.9540868812
84.1638327537
82.3839094144
80.6190998693
78.8489449042
76.9489961643
56.90210961
53.3499776026
50.9585417576
49.0011260249
47.329084293
45.8722415054
44.5866109369
43.4424855009
42.4181927417
41.4969872276
40.6654641855
39.9126201446
39.2292553731
38.6075731346
38.0408958976
37.5234566165
37.0502401249
36.6168598147
36.2194597492
35.8546357429
35.5193708805
35.2109822172
34.9270763209
34.6655118431
34.4243678066
34.2019165333
33.9966004295
33.8070119808
33.6318764487
33.470036842
33.3204408558
33.1821294698
33.0542269646
32.9359321713
32.8265107929
32.7252886512
32.6316457287
32.5450108902
32.464857182
32.3906976126
32.3220813479
32.2585901706
32.1998353113
32.1454542082
32.0951069706
32.0484721951
32.0052482658
31.9652042148
31.92830832
31.894265181
31.8628000237
31.8336653074
31.8066685494
31.7816408161
31.7584197246
31.7368734041
31.7168657756
31.6982718292
31.6809766189
31.6648736645
31.6498688455
31.6358762758
31.6228027774
31.61056579
31.5990917713
31.5883134795
31.5781690692
31.5686017629
31.5595595704
31.5509942402
31.5428621097
31.5351227751
31.5277389509
31.5206768106
31.5139052553
31.5073957025
31.5011220309
31.4950603432
31.4891884589
31.4834876615
31.4779426831
31.4725434416
31.4672699031
31.4621069543
31.4570433691
31.4520652895
31.4471618413
31.4423277001
31.4375684956
31.4328709288
31.4282158929
31.4235946184
31.4190007205
31.4144284449
31.4098724852
31.4053278943
31.4007900504
31.3962546488
31.3917176337
31.3871751801
31.3826236876
31.3780597281
31.3734800293
31.3688814583
31.364260986
31.3596156865
31.3549427381
31.3502394224
31.3455031191
31.3407313016
31.3359215314
31.3310714741
31.3261789342
31.321241887
31.3162585252
31.3112272889
31.3061468999
31.3010164216
31.295835284
31.2906033378
31.2853207724
31.279987957
31.2746046172
31.2691644166
31.2636440644
31.2579965208
31.2523822014
31.2473069432
31.2421973716
31.2370206072
31.231890733
31.2268911062
31.2220750513
31.2174983366
31.2132198186
31.2092969459
31.2057790125
31.2027058508
31.2000710714
31.1978862528
31.1962176017
31.1948399611
31.1935892157
31.1918840709
31.1880734819
31.1779575759
31.1514751618
31.086974169
30.9431958093
30.6495972002
30.1009609643
29.164504628
27.7076347971
25.6376540668
22.9285543267
19.6364277811
15.8797910124
11.6268223873
6.60230455457
1.57011025127
60.0834850043
56.030651139
53.3186654057
51.1663065014
49.3643521649
47.8143905943
46.4582065393
45.2585649191
44.1892917519
43.2307549711
42.3676171634
41.5875360541
40.880359614
40.2375997513
39.6520681464
39.1176146441
38.6289326039
38.1814106588
37.771017146
37.3942086054
37.047856113
36.7291853512
36.4357271891
36.1652766602
35.9158585006
35.6856980669
35.4731965867
35.276909989
35.0955307273
34.9278720979
34.772854659
34.6294944494
34.4968927301
34.3742269757
34.2607430641
34.1557483999
34.0586059062
33.9687287762
33.8855758001
33.8086473586
33.7374818154
33.6716524664
33.6107648857
33.5544547255
33.5023863046
33.4542515811
33.4097656829
33.3686449557
33.3305377692
33.2952635397
33.2626017307
33.2323646638
33.2043692948
33.1784407956
33.1544162397
33.132140642
33.1114719205
33.0922795138
33.0744415647
33.0578454245
33.0423837588
33.0279564382
33.0144805032
33.0018775038
32.9900718863
32.978994425
32.9685804312
32.9587709663
32.9495123662
32.9407527726
32.9324472123
32.9245538651
32.9170326109
32.9098484234
32.9029693042
32.896364502
32.890007311
32.8838734206
32.8779410409
32.8721884834
32.8665928562
32.8611300776
32.8557906855
32.8505622367
32.8454314535
32.8403877466
32.8354202872
32.8305175639
32.8256673143
32.8208625981
32.8160992198
32.8113717639
32.8066742051
32.8020007285
32.7973459439
32.7927049018
32.7880729158
32.7834456549
32.7788190606
32.7741892701
32.7695526433
32.7649057315
32.7602452063
32.7555678617
32.750870594
32.7461503821
32.7414042906
32.7366294882
32.7318232139
32.7269828049
32.7221056877
32.7171894055
32.7122316565
32.7072303602
32.7021836996
32.6970901991
32.6919487756
32.6867588456
32.681520482
32.6762345306
32.6709028335
32.6655285528
32.6601165533
32.6546735934
32.6492118462
32.6437571371
32.6383438235
32.632934159
32.6274101136
32.6222392051
32.6171399731
32.6121984524
32.6074973441
32.6030981702
32.5990700817
32.5954849968
32.5924101444
32.5899035156
32.5879243488
32.5866674706
32.5859558534
32.5857068782
32.5856172366
32.5848830949
32.5813281114
32.5697698219
32.53815957
32.4615852249
32.2938217048
31.9580021446
31.3427975632
30.3124353819
28.7374283778
26.5349005389
23.6907267538
20.2654990547
16.375729799
12.0048576436
6.89143708697
1.70366390892
62.2909142554
58.3574608814
55.4903052649
53.2063692104
51.304391661
49.6778931252
48.2618398947
47.0142165042
45.9056009693
44.9141334723
44.0229193918
43.2185079617
42.4899453287
41.8281555793
41.2255138922
40.6755422775
40.172684951
39.7121389763
39.2897235318
38.9017774574
38.5450776232
38.2167731396
37.9143316518
37.6354951161
37.3782429671
37.1407612819
36.9214167049
36.718734291
36.5313786037
36.3581374765
36.1979080194
36.0496845312
35.9125479983
35.78565692
35.6682393491
35.5595859112
35.459043691
35.3660108841
35.2799320362
35.2002938726
35.1266215303
35.0584752497
34.9954473428
34.9371593907
34.8832597515
34.8334211754
34.7873402297
34.7447474748
34.7053800678
34.6688534635
34.635012204
34.6037021576
34.5747374158
34.5479271576
34.5230968285
34.5000870113
34.4787502043
34.4589500922
34.4405602101
34.423464393
34.407554434
34.3927226771
34.3788807797
34.3659442636
34.3538346966
34.3424803624
34.3318137644
34.3217732186
34.3123036498
34.3033507535
34.2948677814
34.2868122256
34.2791422613
34.2718211432
34.2648153784
34.2580933884
34.2516278066
34.2453918725
34.2393557138
34.2335027426
34.22781769
34.2222840194
34.2168847127
34.211603737
34.2064270689
34.2013422776
34.1963379715
34.1914042847
34.1865317572
34.1817115711
34.1769352509
34.1721952891
34.1674850162
34.1627983048
34.1581295212
34.1534734829
34.1488252807
34.144180403
34.1395346341
34.1348839649
34.1302246474
34.1255531432
34.1208660447
34.1161600924
34.111432144
34.1066791551
34.1018981813
34.0970863961
34.0922410537
34.0873595217
34.0824392774
34.0774779373
34.0724732996
34.0674234015
34.062326573
34.057181525
34.0519874191
34.0467440114
34.0414518172
34.0361123197
34.0307282094
34.0253038431
34.0198456915
34.0143631815
34.0088716516
34.0033902675
33.9979201692
33.9925034623
33.9872406166
33.9819353102
33.9767837429
33.9718290578
33.9671975436
33.9629439402
33.9591315782
33.9558455211
33.9531750595
33.951213904
33.9499223143
33.9493065063
33.9494622999
33.9501716575
33.9510275854
33.950964664
33.9472323771
33.9336048079
33.8960198336
33.8062987514
33.613455049
33.2347842661
32.5536852889
31.4323493549
29.7448470641
27.4174097674
24.4460308102
20.8939880542
16.8744781535
12.3854404372
7.18018617665
1.83500874927
64.0950888485
60.3703648701
57.4663701527
55.1111808958
53.1410726686
51.4567039428
49.9929106638
48.7058118838
47.5641599809
46.5446306173
45.6292123339
44.8036178905
44.056269638
43.3776260595
42.7597131214