/*--------------------------------*- C++ -*----------------------------------*\
| =========                 |                                                 |
| \\      /  F ield         | OpenFOAM: The Open Source CFD Toolbox           |
|  \\    /   O peration     | Version:  2106                                  |
|   \\  /    A nd           | Website:  www.openfoam.com                      |
|    \\/     M anipulation  |                                                 |
\*---------------------------------------------------------------------------*/
FoamFile
{
    version     2.0;
    format      ascii;
    arch        "LSB;label=32;scalar=64";
    class       surfaceScalarField;
    location    "0.495";
    object      phi;
}
// * * * * * * * * * * * * * * * * * * * * * * * * * * * * * * * * * * * * * //

dimensions      [0 3 -1 0 0 0 0];

oriented        oriented;

internalField   nonuniform List<scalar> 
22100
(
3.3846121009e-05
1.61538789938e-05
2.24572126832e-05
1.1388910295e-05
1.62585574124e-05
6.19865690618e-06
1.27977819315e-05
3.46077708016e-06
1.08046495265e-05
1.99313400632e-06
9.60459796659e-06
1.20005316804e-06
8.85133167521e-06
7.53267905493e-07
8.36436433442e-06
4.86968959523e-07
8.04434793298e-06
3.20018023037e-07
7.83285462129e-06
2.11494934143e-07
7.69341294066e-06
1.39443302017e-07
7.60225753201e-06
9.11570272175e-08
7.54349621902e-06
5.87629271275e-08
7.50636076024e-06
3.71370670944e-08
7.4835226929e-06
2.28396687491e-08
7.47000329722e-06
1.35209894403e-08
7.4624400886e-06
7.56479406294e-09
7.45857345843e-06
3.86820630407e-09
7.45685586416e-06
1.7191598041e-09
7.45645060116e-06
4.06814500107e-10
7.45680176922e-06
-3.4963675906e-10
7.45748928666e-06
-6.86011567051e-10
7.45824894049e-06
-7.58181623422e-10
7.45897551627e-06
-7.25145624948e-10
7.4596210549e-06
-6.44158099008e-10
7.46016617224e-06
-5.43792625264e-10
7.46060942245e-06
-4.41985613816e-10
7.46095926015e-06
-3.48635589649e-10
7.46122859322e-06
-2.68194060417e-10
7.46143150901e-06
-2.01839535428e-10
7.46158138234e-06
-1.488592364e-10
7.46168991231e-06
-1.07575993392e-10
7.46176684089e-06
-7.6033688785e-11
7.46182029303e-06
-5.26199447625e-11
7.46185421469e-06
-3.31450194613e-11
7.46187360388e-06
-1.86721911858e-11
7.46188322824e-06
-8.96900194488e-12
7.46188652415e-06
-2.69806097086e-12
7.46188543592e-06
1.62778198276e-12
7.4618811013e-06
4.81479595183e-12
7.46187445864e-06
7.06540430824e-12
7.46186612023e-06
8.70491128402e-12
7.46185645894e-06
9.97266153757e-12
7.46184565412e-06
1.10654634072e-11
7.46183371911e-06
1.2150134304e-11
7.46182053168e-06
1.33555936016e-11
7.46180587383e-06
1.47847623958e-11
7.46178943005e-06
1.6529787928e-11
7.46177078455e-06
1.86891227471e-11
7.46174940044e-06
2.13841491243e-11
7.46172467537e-06
2.46815130678e-11
7.46169592272e-06
2.86673798763e-11
7.46166236902e-06
3.34296104627e-11
7.46162317979e-06
3.90320273801e-11
7.46157750405e-06
4.54920135887e-11
7.46152452218e-06
5.27775080845e-11
7.46146362891e-06
6.0676511605e-11
7.46139476262e-06
6.86459594577e-11
7.46131863518e-06
7.59037022866e-11
7.46123774829e-06
8.06628273393e-11
7.4611585982e-06
7.89350151155e-11
7.46109316586e-06
6.52261154379e-11
7.46104897522e-06
4.3994150213e-11
7.46104560378e-06
3.18479688164e-12
7.46111906149e-06
-7.36285589534e-11
7.46132769897e-06
-2.08790410649e-10
7.46176607987e-06
-4.385155611e-10
7.46258433796e-06
-8.18369906774e-10
7.46401777939e-06
-1.43352646209e-09
7.46642184502e-06
-2.40411784792e-09
7.47024552583e-06
-3.82369426047e-09
7.47670203093e-06
-6.45647385639e-09
7.48748012502e-06
-1.07780130538e-08
7.50566240379e-06
-1.81821440446e-08
7.53885446184e-06
-3.3191869057e-08
7.60807238017e-06
-6.92176824108e-08
7.77472652945e-06
-1.66653876171e-07
8.22959675996e-06
-4.54869888611e-07
9.69707425132e-06
-1.46747704223e-06
-5.45081628468e-06
1.5147890775e-05
5.02175961663e-05
1.59362848013e-05
4.42441157344e-05
1.73623940081e-05
3.77795080448e-05
1.26632675253e-05
3.26461529122e-05
8.59413511823e-06
2.89381030988e-05
5.70118673285e-06
2.63596349782e-05
3.77852421188e-06
2.45875328372e-05
2.52537297739e-06
2.3373493049e-05
1.70101168296e-06
2.25435462763e-05
1.14996773217e-06
2.19782398766e-05
7.76804268365e-07
2.15955396425e-05
5.2214646545e-07
2.13387653774e-05
3.47934213715e-07
2.11685261559e-05
2.29005059417e-07
2.1057370845e-05
1.48295275955e-07
2.0986185226e-05
9.40281712495e-08
2.09417151378e-05
5.79939449161e-08
2.0914835608e-05
3.44471729384e-08
2.08993387838e-05
1.93678565629e-08
2.0891117275e-05
9.94346672674e-09
2.08873192391e-05
4.207612525e-09
2.08862523209e-05
7.19994519589e-10
2.08865002375e-05
-9.31277592804e-10
2.0887373736e-05
-1.62910547846e-09
2.0888515218e-05
-1.86414237578e-09
2.08896904499e-05
-1.81700487055e-09
2.08907752605e-05
-1.62632578699e-09
2.0891714589e-05
-1.3791483411e-09
2.0892493762e-05
-1.12575598304e-09
2.08931205473e-05
-8.93039233769e-10
2.08936141701e-05
-6.93632906392e-10
2.0893999427e-05
-5.32397048488e-10
2.08943021915e-05
-4.08731564564e-10
2.08945143336e-05
-2.86670520486e-10
2.08946624757e-05
-1.99370092838e-10
2.08947638414e-05
-1.33225436248e-10
2.08948301304e-05
-8.37783654811e-11
2.08948715193e-05
-4.92843482884e-11
2.0894896173e-05
-2.63853506257e-11
2.08949089053e-05
-1.0242660583e-11
2.08949126533e-05
1.8237868207e-12
2.08949098373e-05
1.05364354451e-11
2.08949021289e-05
1.69724260188e-11
2.08948906734e-05
2.18950260881e-11
2.08948761931e-05
2.59237383239e-11
2.08948590738e-05
2.95708603701e-11
2.08948394577e-05
3.31942455118e-11
2.08948173361e-05
3.70525650435e-11
2.08947925933e-05
4.13429443307e-11
2.0894765041e-05
4.6234842564e-11
2.08947344105e-05
5.19313123769e-11
2.0894700495e-05
5.84393584182e-11
2.0894663169e-05
6.57685604334e-11
2.0894622469e-05
7.3846336921e-11
2.08945787426e-05
8.24281062781e-11
2.08945328984e-05
9.09729557871e-11
2.08944867595e-05
9.85302687232e-11
2.08944437554e-05
1.03278590495e-10
2.08944099575e-05
1.02042204336e-10
2.08943948765e-05
9.0591494992e-11
2.08944139384e-05
6.12129364745e-11
2.08944944828e-05
-1.98217797674e-12
2.08946848949e-05
-1.25538643266e-10
2.08950538824e-05
-3.25319571121e-10
2.08957206129e-05
-6.63846306327e-10
2.08967909259e-05
-1.14421162983e-09
2.08984442699e-05
-1.86236535959e-09
2.09010384368e-05
-3.03287192239e-09
2.09051214272e-05
-4.90149943843e-09
2.09115625532e-05
-7.87473227147e-09
2.09217855989e-05
-1.26271727792e-08
2.09382809763e-05
-2.03189998691e-08
2.09651919844e-05
-3.33673214603e-08
2.10094587012e-05
-5.50444767118e-08
2.10842509025e-05
-9.29739984317e-08
2.1215488938e-05
-1.64429459098e-07
2.14560684527e-05
-3.09796648788e-07
2.19138190768e-05
-6.24403904578e-07
2.28005980457e-05
-1.34164840512e-06
2.44441173332e-05
-3.11099596793e-06
-7.03662286279e-06
2.60299265038e-05
5.35171068175e-05
1.2419179632e-05
5.29349726488e-05
1.79445310556e-05
4.96538470022e-05
1.59443957393e-05
4.58401908366e-05
1.24077938333e-05
4.24401043029e-05
9.10127582323e-06
3.97291867911e-05
6.48944428908e-06
3.76873227501e-05
4.56723959089e-06
3.61976823513e-05
3.19065465859e-06
3.51326341409e-05
2.21501852098e-06
3.43823915094e-05
1.52704947719e-06
3.38606529445e-05
1.04388760395e-06
3.35023751173e-05
7.06214607993e-07
3.32596326254e-05
4.71750109556e-07
3.30976247256e-05
3.1030572348e-07
3.29913710492e-05
2.00284383143e-07
3.2923131559e-05
1.26235956993e-07
3.28804459793e-05
7.71352595204e-08
3.28546631887e-05
4.51531355681e-08
3.2839838405e-05
2.47707135675e-08
3.28319141734e-05
1.21342751247e-08
3.28280470158e-05
4.58953991879e-09
3.2827050473e-05
6.75976146982e-11
3.28272333955e-05
-1.8097633284e-09
3.28280838633e-05
-2.71242438725e-09
3.28292016005e-05
-2.93264411079e-09
3.28303507158e-05
-2.77343721597e-09
3.28314084546e-05
-2.4349807503e-09
3.28323205069e-05
-2.0360003127e-09
3.2833072019e-05
-1.64284156856e-09
3.28336690698e-05
-1.28906985258e-09
3.28341265871e-05
-9.8839489141e-10
3.28344628027e-05
-7.43525541711e-10
3.28347302942e-05
-5.52829781151e-10
3.28349476898e-05
-4.15530181917e-10
3.28350957394e-05
-2.80137404969e-10
3.28351957559e-05
-1.82748755909e-10
3.28352623344e-05
-1.14912421869e-10
3.28353048959e-05
-6.8092518444e-11
3.28353303156e-05
-3.49010370156e-11
3.28353425617e-05
-9.75346754921e-12
3.28353451981e-05
8.47795845855e-12
3.28353407284e-05
2.19355259284e-11
3.28353309814e-05
3.20563131912e-11
3.28353171898e-05
4.00504162257e-11
3.2835300124e-05
4.69042972174e-11
3.28352802551e-05
5.32632819216e-11
3.28352578859e-05
5.95542852545e-11
3.28352332343e-05
6.60596420135e-11
3.283520645e-05
7.3015958161e-11
3.2835177534e-05
8.07765271137e-11
3.28351468039e-05
8.90328060862e-11
3.28351148855e-05
9.7490866584e-11
3.2835082854e-05
1.05629846833e-10
3.28350525527e-05
1.12438163568e-10
3.28350270389e-05
1.16164706594e-10
3.28350109559e-05
1.14272781458e-10
3.28350115436e-05
1.02335229824e-10
3.28350404648e-05
7.27626272039e-11
3.28351150838e-05
1.56251366293e-11
3.28352654212e-05
-8.9464508216e-11
3.28355430189e-05
-2.799063521e-10
3.28360376379e-05
-6.20466380376e-10
3.28367595333e-05
-1.04750064585e-09
3.28378079327e-05
-1.7125088375e-09
3.28394432336e-05
-2.77975098602e-09
3.28420388172e-05
-4.45815579639e-09
3.2846099181e-05
-7.09340701762e-09
3.28524390941e-05
-1.12415400638e-08
3.28623717189e-05
-1.78074318187e-08
3.28780613164e-05
-2.83167822e-08
3.29031675767e-05
-4.54252001803e-08
3.29430394883e-05
-7.32390943422e-08
3.30075039623e-05
-1.19508730156e-07
3.31135360727e-05
-1.99005809861e-07
3.32901360251e-05
-3.41029035656e-07
3.35854849181e-05
-6.05145057934e-07
3.40706235303e-05
-1.10954187732e-06
3.4811627555e-05
-2.08265189464e-06
3.56722309666e-05
-3.97160021885e-06
-7.10448822137e-06
3.57400925207e-05
5.35105679882e-05
8.9086131969e-06
5.55742265896e-05
1.58808752477e-05
5.52424894416e-05
1.62761353853e-05
5.35977954567e-05
1.40524903006e-05
5.15418597593e-05
1.11572140104e-05
4.95802945442e-05
8.45101200274e-06
4.79243680649e-05
6.22316857613e-06
4.66181587248e-05
4.49686650948e-06
4.56304884507e-05
3.20269130834e-06
4.49051420245e-05
2.25239841627e-06
4.43841173513e-05
1.56491478679e-06
4.40167237092e-05
1.07361075376e-06
4.3761999714e-05
7.26476600164e-07
4.35883035947e-05
4.84004327854e-07
4.34719067115e-05
3.16683739848e-07
4.33953991048e-05
2.02746023844e-07
4.33462312783e-05
1.26305531234e-07
4.33154961009e-05
7.58907400214e-08
4.3296962145e-05
4.33070716858e-08
4.3286338458e-05
2.27603319922e-08
4.32807379782e-05
1.01923468744e-08
4.327793263e-05
2.87521799362e-09
4.32771070013e-05
-9.81929132849e-10
4.32773270514e-05
-2.93034610552e-09
4.32780166668e-05
-3.62021657533e-09
4.32788817102e-05
-3.63652871122e-09
4.32797564064e-05
-3.30781861216e-09
4.32805556365e-05
-2.83346634048e-09
4.32812430488e-05
-2.32858389312e-09
4.32818104292e-05
-1.85487350594e-09
4.32822646145e-05
-1.4410944483e-09
4.32826182957e-05
-1.0958170484e-09
4.32828812194e-05
-8.14453469541e-10
4.32830576412e-05
-5.90742356105e-10
4.32831917349e-05
-4.13119860591e-10
4.32832780164e-05
-2.68010916676e-10
4.32833329542e-05
-1.68923941852e-10
4.32833736029e-05
-1.07909439526e-10
4.32833987868e-05
-5.93453178053e-11
4.32834115169e-05
-2.18342715014e-11
4.32834152199e-05
5.33532518314e-12
4.32834118637e-05
2.5768294095e-11
4.32834031549e-05
4.11673151354e-11
4.32833902675e-05
5.32633778513e-11
4.32833738725e-05
6.35579399591e-11
4.32833544197e-05
7.29105222462e-11
4.32833322624e-05
8.18402354743e-11
4.32833077099e-05
9.06749419409e-11
4.32832811085e-05
9.96133149659e-11
4.32832530716e-05
1.0874372385e-10
4.32832242672e-05
1.17703502376e-10
4.32831956858e-05
1.25880424874e-10
4.32831688233e-05
1.32250025453e-10
4.32831458005e-05
1.35175514795e-10
4.32831295656e-05
1.32081757528e-10
4.32831247424e-05
1.18761575512e-10
4.32831394987e-05
8.72316360879e-11
4.32831859843e-05
2.59237569993e-11
4.32832835519e-05
-8.22818551876e-11
4.3283447589e-05
-2.53829043602e-10
4.32836968738e-05
-5.29504922267e-10
4.32841458814e-05
-1.06977183756e-09
4.32849268056e-05
-1.82870145947e-09
4.32861904352e-05
-2.97639236e-09
4.32881454403e-05
-4.73498786109e-09
4.32911425493e-05
-7.4554675093e-09
4.3295741831e-05
-1.1692857192e-08
4.33028222635e-05
-1.83220978917e-08
4.33137662027e-05
-2.87514438651e-08
4.3330731488e-05
-4.52820778694e-08
4.33570266776e-05
-7.17203292203e-08
4.33982201989e-05
-1.14432477657e-07
4.34631594106e-05
-1.84447723089e-07
4.35655602139e-05
-3.01406318916e-07
4.37253617869e-05
-5.0083025767e-07
4.39671336052e-05
-8.46916459969e-07
4.43074984201e-05
-1.44990603868e-06
4.47076954703e-05
-2.4828477355e-06
4.49267560453e-05
-4.19065954476e-06
-6.57500207312e-06
4.43972679036e-05
5.27351395368e-05
6.17347519137e-06
5.57309387788e-05
1.28850787814e-05
5.73114811556e-05
1.46955954931e-05
5.76110012161e-05
1.37529727099e-05
5.71335346455e-05
1.16346830586e-05
5.63194827625e-05
9.26506637279e-06
5.5449005263e-05
7.09364857083e-06
5.46629973914e-05
5.28287688235e-06
5.40137045254e-05
3.85198667897e-06
5.35061758921e-05
2.75992955448e-06
5.31242826775e-05
1.94681050341e-06
5.28450158426e-05
1.35288008478e-06
5.26454723108e-05
9.26022619708e-07
5.25057507815e-05
6.23728334414e-07
5.24097587247e-05
4.12678262312e-07
5.23450554195e-05
2.67451781257e-07
5.23023202878e-05
1.69043099529e-07
5.2274735791e-05
1.03477654803e-07
5.22574138709e-05
6.06313843928e-08
5.2246907749e-05
3.32688126557e-08
5.22408105272e-05
1.62918837014e-08
5.22375039864e-05
6.18401816125e-09
5.22360075418e-05
5.16707905847e-10
5.22355016435e-05
-2.42233212611e-09
5.22355685123e-05
-3.68505420313e-09
5.22359157596e-05
-3.98183441502e-09
5.22363716676e-05
-3.76187735759e-09
5.22368396012e-05
-3.29964296703e-09
5.2237268462e-05
-2.75577970593e-09
5.22376355274e-05
-2.22036619528e-09
5.22379341019e-05
-1.73818552671e-09
5.22381669807e-05
-1.32730674288e-09
5.22383444482e-05
-9.90625059985e-10
5.22384784281e-05
-7.23515805799e-10
5.22385798173e-05
-5.13400337983e-10
5.22386654471e-05
-3.52626949971e-10
5.22387318147e-05
-2.34371136266e-10
5.22387749355e-05
-1.50204934927e-10
5.2238808411e-05
-9.20887957298e-11
5.22388245043e-05
-3.72853508491e-11
5.22388303708e-05
2.29131819063e-14
5.22388285908e-05
2.80173084038e-11
5.22388211257e-05
4.90286145547e-11
5.22388093095e-05
6.54023087736e-11
5.22387940182e-05
7.91030923703e-11
5.2238775829e-05
9.12904883795e-11
5.22387552132e-05
1.0258203952e-10
5.22387327972e-05
1.13151465224e-10
5.22387099055e-05
1.22499143923e-10
5.2238684365e-05
1.34213065979e-10
5.22386578999e-05
1.44033785352e-10
5.22386316862e-05
1.51899805345e-10
5.22386073691e-05
1.56321580479e-10
5.2238587703e-05
1.54552810674e-10
5.2238578737e-05
1.40724194592e-10
5.22385881403e-05
1.09018382912e-10
5.22386206187e-05
5.44070409949e-11
5.22386998415e-05
-5.36521517285e-11
5.22388218918e-05
-2.04671077088e-10
5.22390211634e-05
-4.53422881839e-10
5.2239361609e-05
-8.70257772669e-10
5.22398851119e-05
-1.59356643909e-09
5.22406650396e-05
-2.60890199805e-09
5.22418346268e-05
-4.1462323824e-09
5.22435975366e-05
-6.49812992014e-09
5.22462553188e-05
-1.01134544177e-08
5.2250260294e-05
-1.56980022288e-08
5.22563041148e-05
-2.43660439667e-08
5.2265446128e-05
-3.78935277184e-08
5.22793041294e-05
-5.91400859529e-08
5.23003360854e-05
-9.27522203616e-08
5.23322574878e-05
-1.46353739078e-07
5.23804108999e-05
-2.32600913456e-07
5.24517200087e-05
-3.72715124281e-07
5.25530438184e-05
-6.02153707187e-07
5.26849203937e-05
-9.78792688749e-07
5.28251165655e-05
-1.59010186525e-06
5.28921458584e-05
-2.54987626165e-06
5.26735714697e-05
-3.97208354719e-06
-5.76618275175e-06
5.18647514026e-05
5.19834880081e-05
4.1899887081e-06
5.50586682992e-05
9.80990125805e-06
5.76386200542e-05
1.21156462164e-05
5.93259125314e-05
1.20656826967e-05
6.02280271233e-05
1.07325709397e-05
6.05929408815e-05
8.900155098e-06
6.06483003842e-05
7.03829156127e-06
6.05532085089e-05
5.37797125798e-06
6.04029765141e-05
4.00222117852e-06
6.02479385816e-05
2.91496999266e-06
6.01108156175e-05
2.08393597037e-06
5.99990586488e-05
1.46463955002e-06
5.99125460148e-05
1.01253774127e-06
5.98479566478e-05
6.8832017793e-07
5.98010555867e-05
4.59581787842e-07
5.97677734203e-05
3.0073639819e-07
5.97446345255e-05
1.92184428486e-07
5.97288584139e-05
1.19256180855e-07
5.97183126666e-05
7.11795199438e-08
5.97114088384e-05
4.01749943507e-08
5.97069918065e-05
2.07112241053e-08
5.97042601621e-05
8.91791514118e-09
5.97026533177e-05
2.12573786103e-09
5.97017508801e-05
-1.51778530679e-09
5.97012945944e-05
-3.22674299789e-09
5.97011069894e-05
-3.79229190637e-09
5.97010725266e-05
-3.72556793139e-09
5.97011185473e-05
-3.34390812862e-09
5.97012013322e-05
-2.83689957719e-09
5.97012952124e-05
-2.31267317705e-09
5.9701386314e-05
-1.82780323187e-09
5.97014680233e-05
-1.40762417371e-09
5.97015389134e-05
-1.06022019112e-09
5.97015995893e-05
-7.82988033351e-10
5.97016508577e-05
-5.63560993525e-10
5.97016915988e-05
-3.92357295743e-10
5.97017202447e-05
-2.6210091702e-10
5.9701736321e-05
-1.65460427443e-10
5.97017354481e-05
-9.04893815043e-11
5.97017281339e-05
-2.93347350398e-11
5.97017222265e-05
6.48044397839e-12
5.97017136565e-05
3.70516075202e-11
5.97017038056e-05
5.92702089991e-11
5.9701692762e-05
7.67661017321e-11
5.97016794634e-05
9.26530097536e-11
5.97016637741e-05
1.07168305369e-10
5.97016457892e-05
1.20690619226e-10
5.97016255889e-05
1.33411011617e-10
5.97016027981e-05
1.45283759612e-10
5.97015809033e-05
1.5603733099e-10
5.97015598896e-05
1.64914688683e-10
5.97015409892e-05
1.70608105941e-10
5.97015258558e-05
1.71211288173e-10
5.97015158915e-05
1.6423093839e-10
5.97015094122e-05
1.4688127635e-10
5.9701500946e-05
1.17143342504e-10
5.97015074419e-05
4.75672176807e-11
5.97015197717e-05
-6.63312995704e-11
5.97016096683e-05
-2.94905618638e-10
5.97018026449e-05
-6.46718273321e-10
5.97021058533e-05
-1.17376966123e-09
5.97024974551e-05
-1.98545677506e-09
5.97030821338e-05
-3.19385263021e-09
5.97039422503e-05
-5.00660306845e-09
5.97051921093e-05
-7.74822363767e-09
5.97069971039e-05
-1.19186567234e-08
5.97095956838e-05
-1.82967533994e-08
5.97133323314e-05
-2.81028157787e-08
5.97186973055e-05
-4.32585681145e-08
5.97263718245e-05
-6.68146048403e-08
5.97372576246e-05
-1.03637948459e-07
5.97524175056e-05
-1.61513474332e-07
5.97726893163e-05
-2.52872502346e-07
5.9797481241e-05
-3.97506740834e-07
5.98216364657e-05
-6.26308531037e-07
5.98282810709e-05
-9.85436861522e-07
5.97753804298e-05
-1.53720089527e-06
5.95750320491e-05
-2.3495274741e-06
5.90694580901e-05
-3.46650821912e-06
-4.79525887968e-06
5.80985342525e-05
5.14373069113e-05
2.75268331767e-06
5.42658248918e-05
6.98138603781e-06
5.72496500503e-05
9.13182353001e-06
5.97900368978e-05
9.5252983078e-06
6.17201399065e-05
8.80247040019e-06
6.30883173941e-05
7.53198009183e-06
6.40167335137e-05
6.10987793447e-06
6.4629255885e-05
4.76545138828e-06
6.50258254241e-05
3.60565414628e-06
6.52791025823e-05
2.66169534234e-06
6.54390002105e-05
1.92404084681e-06
6.55387196143e-05
1.36492264387e-06
6.55999607186e-05
9.51299124609e-07
6.56367780933e-05
6.51505278867e-07
6.56582317433e-05
4.381306002e-07
6.56701425061e-05
2.88828083317e-07
6.56762342715e-05
1.86095093747e-07
6.56788730888e-05
1.16619773221e-07
6.56795460143e-05
7.05089770404e-08
6.56791722637e-05
4.05510920408e-08
6.56783072793e-05
2.15785099153e-08
6.56772787164e-05
9.9487233764e-09
6.56762717511e-05
3.13488192865e-09
6.56753646485e-05
-6.08579607497e-10
6.56745980701e-05
-2.45814414878e-09
6.56739717346e-05
-3.16402202832e-09
6.56734747638e-05
-3.22675199639e-09
6.56730896942e-05
-2.9570834611e-09
6.56727975413e-05
-2.54308120211e-09
6.56725801408e-05
-2.09369860569e-09
6.56724213802e-05
-1.66755938301e-09
6.56723075887e-05
-1.29243978302e-09
6.56722266248e-05
-9.77960838594e-10
6.56721678742e-05
-7.23035917156e-10
6.56721255643e-05
-5.20145035999e-10
6.56720954636e-05
-3.61248116036e-10
6.56720714422e-05
-2.37167032881e-10
6.5672050836e-05
-1.44037008414e-10
6.56720367485e-05
-7.56796078117e-11
6.56720357586e-05
-2.77137059054e-11
6.5672034902e-05
7.88336306683e-12
6.56720281684e-05
4.42471843642e-11
6.56720187164e-05
6.91083127955e-11
6.56720067645e-05
8.9036178997e-11
6.56719932203e-05
1.06445862085e-10
6.56719781267e-05
1.22447261287e-10
6.56719613465e-05
1.37592496277e-10
6.56719428152e-05
1.52000059195e-10
6.56719229845e-05
1.65107154945e-10
6.56719039784e-05
1.74971465552e-10
6.56718847872e-05
1.83971192566e-10
6.56718659019e-05
1.89298856147e-10
6.56718484864e-05
1.88379289762e-10
6.56718345448e-05
1.77883364723e-10
6.56718280123e-05
1.53090457637e-10
6.56718365719e-05
1.08239270195e-10
6.56718415599e-05
4.22370886194e-11
6.56718793887e-05
-1.04496969442e-10
6.56719478908e-05
-3.63741163715e-10
6.56720490328e-05
-7.4817486155e-10
6.56722028513e-05
-1.32788725564e-09
6.56724165971e-05
-2.19949024727e-09
6.56727071371e-05
-3.48466475645e-09
6.56730912514e-05
-5.39097329079e-09
6.56735802168e-05
-8.23742616334e-09
6.56741721226e-05
-1.25107722285e-08
6.56748373116e-05
-1.89621134974e-08
6.56754909498e-05
-2.87565747864e-08
6.56759331441e-05
-4.37008218785e-08
6.56757375578e-05
-6.66190090752e-08
6.5674036235e-05
-1.01936543459e-07
6.56690976626e-05
-1.56574747975e-07
6.56573913511e-05
-2.41165969062e-07
6.56317939887e-05
-3.71909083884e-07
6.55781632368e-05
-5.72677385755e-07
6.54692815605e-05
-8.76554692826e-07
6.52560095858e-05
-1.32392847577e-06
6.4858351513e-05
-1.95186909832e-06
6.41639260103e-05
-2.77208169194e-06
-3.71400242048e-06
6.30826699501e-05
5.10850439019e-05
1.66764093245e-06
5.36118488711e-05
4.45458382e-06
5.66873232792e-05
6.05635158714e-06
5.96894557773e-05
6.5231682627e-06
6.22997389006e-05
6.19218974243e-06
6.44137030127e-05
5.41801845987e-06
6.60472017355e-05
4.4763817053e-06
6.72686358896e-05
3.54401973797e-06
6.81599175588e-05
2.71437498662e-06
6.87977868127e-05
2.02382859893e-06
6.92467738638e-05
1.47505630203e-06
6.95579953876e-05
1.05370361803e-06
6.97704647668e-05
7.38832231978e-07
6.99132105488e-05
5.08761970161e-07
7.00074243962e-05
3.4391921159e-07
7.00683367209e-05
2.2791820184e-07
7.01067415245e-05
1.47692715316e-07
7.01301865989e-05
9.31771017442e-08
7.01438784734e-05
5.68194775609e-08
7.01513572859e-05
3.30746182925e-08
7.01549924215e-05
1.79456673563e-08
7.01563427949e-05
8.60058714692e-09
7.01564172212e-05
3.0626272171e-09
7.01558275298e-05
-1.67906132931e-11
7.01549690075e-05
-1.59760484473e-09
7.01540476252e-05
-2.24070776965e-09
7.01531811148e-05
-2.35839719761e-09
7.01524231348e-05
-2.19734822917e-09
7.01517908969e-05
-1.9091771816e-09
7.01512815478e-05
-1.58277418482e-09
7.01508821544e-05
-1.26668309778e-09
7.0150575766e-05
-9.84659415123e-10
7.01503447414e-05
-7.4564053384e-10
7.01501729151e-05
-5.5000984205e-10
7.0150047294e-05
-3.9342007689e-10
7.01499572302e-05
-2.70177987141e-10
7.01498956234e-05
-1.74650819498e-10
7.01498550198e-05
-1.02618926723e-10
7.01498273685e-05
-4.73085448486e-11
7.014979823e-05
2.05269585974e-12
7.01497755752e-05
3.10815154089e-11
7.01497631872e-05
5.70952990456e-11
7.0149753287e-05
7.93911847543e-11
7.01497439464e-05
9.86931326674e-11
7.014973441e-05
1.16229717812e-10
7.01497243079e-05
1.32732481696e-10
7.01497135083e-05
1.48512205574e-10
7.014970205e-05
1.63515934572e-10
7.01496898194e-05
1.77332041905e-10
7.01496753923e-05
1.89329122376e-10
7.01496606626e-05
1.98569493324e-10
7.01496465112e-05
2.03259442401e-10
7.01496337011e-05
2.0094576825e-10
7.01496227701e-05
1.88529328504e-10
7.01496131256e-05
1.62416949754e-10
7.01496019392e-05
1.19084314853e-10
7.01495974379e-05
4.63977463067e-11
7.01495848941e-05
-9.22827177149e-11
7.01495986701e-05
-3.77843798552e-10
7.01496237624e-05
-7.73579563211e-10
7.01496491755e-05
-1.35359496441e-09
7.0149653897e-05
-2.20449989786e-09
7.01496113479e-05
-3.44239036879e-09
7.01494684645e-05
-5.24834841714e-09
7.01491265574e-05
-7.8957579197e-09
7.01484108739e-05
-1.1795298845e-08
7.01470201232e-05
-1.75715312998e-08
7.01444435288e-05
-2.61800949021e-08
7.01398081552e-05
-3.90654986234e-08
7.01316343074e-05
-5.84451406736e-08
7.01174337996e-05
-8.77359415628e-08
7.00930553766e-05
-1.32196159042e-07
7.00514155168e-05
-1.99525878045e-07
6.99805492609e-05
-3.01042537633e-07
6.98605051176e-05
-4.52632874481e-07
6.96588622531e-05
-6.7491133931e-07
6.93257459462e-05
-9.90811628311e-07
6.87916684045e-05
-1.41779119773e-06
6.79741360981e-05
-1.9545485955e-06
-2.55506129122e-06
6.68151955121e-05
5.0880414735e-05
7.87227709147e-07
5.31704704912e-05
2.16453080532e-06
5.62177565292e-05
3.00906800693e-06
5.94382790068e-05
3.30264823254e-06
6.24449813135e-05
3.18548989825e-06
6.50382672648e-05
2.82473498797e-06
6.71548833927e-05
2.35976807253e-06
6.88135844668e-05
1.8853211703e-06
7.00731930626e-05
1.45476890327e-06
7.10056926277e-05
1.09133154653e-06
7.16812915226e-05
7.99459914374e-07
7.21614534781e-05
5.73544159902e-07
7.24966369973e-05
4.03651197141e-07
7.27265161338e-05
2.788853033e-07
7.28813175964e-05
1.89120202715e-07
7.29835099031e-05
1.25728331868e-07
7.30494562203e-05
8.174881583e-08
7.30908608419e-05
5.17748746654e-08
7.3115957272e-05
3.17254130224e-08
7.31304442365e-05
1.85899828442e-08
7.31382013509e-05
1.01908364379e-08
7.31418241194e-05
4.98004717106e-09
7.31430140581e-05
1.87485269122e-09
7.31428699361e-05
1.29423680821e-10
7.3142048776e-05
-7.74431266033e-10
7.31409678763e-05
-1.15787776409e-09
7.3139854923e-05
-1.2435995565e-09
7.31388293188e-05
-1.16998809547e-09
7.3137943529e-05
-1.02172084884e-09
7.31372114669e-05
-8.49135613918e-10
7.31366257381e-05
-6.79471150667e-10
7.31361689582e-05
-5.26488736666e-10
7.31358202558e-05
-3.95643200449e-10
7.31355590025e-05
-2.87558529153e-10
7.31353668586e-05
-2.00174739078e-10
7.31352281951e-05
-1.30510330216e-10
7.31351297588e-05
-7.53077196711e-11
7.31350590324e-05
-3.10809042558e-11
7.31350066676e-05
5.77385466315e-12
7.31349776199e-05
3.17260367583e-11
7.3134955164e-05
5.40787101403e-11
7.3134938936e-05
7.37848783732e-11
7.313492708e-05
9.16283381602e-11
7.31349178072e-05
1.08279078961e-10
7.31349098531e-05
1.24429934183e-10
7.3134902341e-05
1.40426181445e-10
7.31348946621e-05
1.56309825825e-10
7.31348863942e-05
1.7184056033e-10
7.3134877271e-05
1.86450026689e-10
7.31348672659e-05
1.99266399973e-10
7.31348564515e-05
2.09254481149e-10
7.31348449148e-05
2.14607512821e-10
7.31348328158e-05
2.12803719791e-10
7.31348204736e-05
2.00588438298e-10
7.31348086122e-05
1.73966219383e-10
7.31347986342e-05
1.28731931549e-10
7.31347812302e-05
6.34646630951e-11
7.31347592561e-05
-7.06331886736e-11
7.31347189225e-05
-3.37827812707e-10
7.31346542219e-05
-7.09192809617e-10
7.31345416161e-05
-1.24128185508e-09
7.31343379983e-05
-2.0011701569e-09
7.3133975517e-05
-3.08018772622e-09
7.31333394084e-05
-4.61250186707e-09
7.31322369097e-05
-6.79349948839e-09
7.31303466662e-05
-9.90526387824e-09
7.31271411872e-05
-1.43662158453e-08
7.31217661002e-05
-2.08051137154e-08
7.31128101402e-05
-3.01095776966e-08
7.30979699026e-05
-4.36048702103e-08
7.30735384469e-05
-6.33043800269e-08
7.30336213973e-05
-9.22789325416e-08
7.29687106677e-05
-1.34614904926e-07
7.28637954778e-05
-1.96127047602e-07
7.26957197761e-05
-2.8455681592e-07
7.24299991969e-05
-4.09190300849e-07
7.20182966396e-05
-5.79108497801e-07
7.13994508749e-05
-7.98944984231e-07
7.05079627711e-05
-1.06305981991e-06
-1.34637330711e-06
6.92992753745e-05
5.07871741417e-05
5.50736933296e-11
5.29516541635e-05
5.35144749573e-11
5.59606952548e-05
2.93658366791e-11
5.92633311792e-05
1.4750267782e-11
6.24488201781e-05
3.35932367687e-12
6.52735632136e-05
-5.56812322695e-12
6.76333452285e-05
-1.14458694441e-11
6.95186832963e-05
-1.43886172953e-11
7.09734695337e-05
-1.48192338704e-11
7.2064816927e-05
-1.33326577319e-11
7.28642899098e-05
-1.05610276216e-11
7.34378437249e-05
-7.15931756158e-12
7.38415011908e-05
-3.78761335845e-12
7.412039006e-05
-1.10094988366e-12
7.430951235e-05
3.60180528837e-13
7.44352429919e-05
1.19220556278e-13
7.45169962381e-05
-2.02151752123e-12
7.45687793385e-05
-5.84088564714e-12
7.46005178024e-05
-1.06957336815e-11
7.46191257101e-05
-1.56064377378e-11
7.46293382653e-05
-1.94452065149e-11
7.46343416482e-05
-2.11160884717e-11
7.46362388117e-05
-2.01530622587e-11
7.46363881556e-05
-1.78325246703e-11
7.46356310625e-05
-1.53272608479e-11
7.46344873132e-05
-1.21992779047e-11
7.46332541725e-05
-8.61417224228e-12
7.46320905725e-05
-4.63111294847e-12
7.46310703417e-05
1.77128425734e-13
7.4630218577e-05
4.20552167788e-12
7.46295317224e-05
8.86559890694e-12
7.46289928019e-05
1.381994391e-11
7.46285794154e-05
1.90358999613e-11
7.46282684743e-05
2.45779069778e-11
7.46280387703e-05
3.06272437512e-11
7.46278719561e-05
3.73049210802e-11
7.46277528629e-05
4.46894596829e-11
7.46276698266e-05
5.27649743369e-11
7.46276147627e-05
6.15548475144e-11
7.46275764165e-05
7.0697849952e-11
7.46275508763e-05
8.0158461024e-11
7.46275342905e-05
9.08326962803e-11
7.46275236754e-05
1.02625792574e-10
7.46275168077e-05
1.15458250469e-10
7.46275121533e-05
1.29329074796e-10
7.46275086456e-05
1.44114605232e-10
7.4627505537e-05
1.59536914781e-10
7.46275022941e-05
1.75140568507e-10
7.46274984976e-05
1.90242886506e-10
7.46274937999e-05
2.03899620629e-10
7.46274880238e-05
2.14905451849e-10
7.46274809629e-05
2.21484032572e-10
7.46274722632e-05
2.21268528813e-10
7.4627461263e-05
2.1131159964e-10
7.46274467832e-05
1.88142882402e-10
7.4627427129e-05
1.48064818705e-10
7.46274016332e-05
8.86298457774e-11
7.4627355926e-05
-2.52498702647e-11
7.46272683255e-05
-2.50533513463e-10
7.46271332971e-05
-5.74478772578e-10
7.46269111809e-05
-1.0194606827e-09
7.46265413407e-05
-1.63161771253e-09
7.46259276515e-05
-2.46678021315e-09
7.46249135422e-05
-3.59865803329e-09
7.46232441444e-05
-5.12434268844e-09
7.46205033662e-05
-7.16469124764e-09
7.46160239515e-05
-9.88695778426e-09
7.46087490543e-05
-1.35303119095e-08
7.459694431e-05
-1.83048598037e-08
7.4577810763e-05
-2.44712774527e-08
7.45469292217e-05
-3.24227217509e-08
7.44975757051e-05
-4.29252304308e-08
7.44190223263e-05
-5.60612734132e-08
7.42948808318e-05
-7.19852395331e-08
7.41007878022e-05
-9.04634225893e-08
7.38019495879e-05
-1.10351648474e-07
7.3351738887e-05
-1.28897230687e-07
7.26937307546e-05
-1.4093633479e-07
7.17699590974e-05
-1.39287537091e-07
-1.15471011674e-07
7.05390573967e-05
5.0787173104e-05
-7.87116529918e-07
5.29516532993e-05
-2.16442396051e-06