/*--------------------------------*- C++ -*----------------------------------*\
| =========                 |                                                 |
| \\      /  F ield         | OpenFOAM: The Open Source CFD Toolbox           |
|  \\    /   O peration     | Version:  2106                                  |
|   \\  /    A nd           | Website:  www.openfoam.com                      |
|    \\/     M anipulation  |                                                 |
\*---------------------------------------------------------------------------*/
FoamFile
{
    version     2.0;
    format      ascii;
    arch        "LSB;label=32;scalar=64";
    class       volScalarField;
    location    "0.008";
    object      p;
}
// * * * * * * * * * * * * * * * * * * * * * * * * * * * * * * * * * * * * * //

dimensions      [0 2 -2 0 0 0 0];

internalField   nonuniform List<scalar> 
160000
(
1.62303
0.0246192
3.10112
-1.20468
4.08564
-1.80361
4.36866
-1.72942
4.05554
-1.17939
3.41405
-0.441389
2.72182
0.24619
2.1601
0.764095
1.79046
1.09804
1.59075
1.29128
1.50708
1.39816
1.4886
1.46057
1.50123
1.50333
1.52654
1.5384
1.55594
1.57038
1.58571
1.60042
1.61481
1.62875
1.64212
1.65491
1.66708
1.67866
1.68956
1.69973
1.70909
1.71758
1.7252
1.73194
1.73779
1.74273
1.74673
1.74976
1.75183
1.75292
1.75304
1.75216
1.75029
1.7474
1.7435
1.73865
1.73289
1.72625
1.71878
1.71049
1.70141
1.69151
1.68087
1.66948
1.65742
1.64475
1.63152
1.61782
1.60366
1.58912
1.57426
1.55909
1.54372
1.52817
1.51255
1.49692
1.48131
1.46584
1.45052
1.43543
1.42061
1.40609
1.39196
1.37825
1.36503
1.35236
1.34028
1.32888
1.31818
1.30823
1.29908
1.29073
1.28325
1.27662
1.2709
1.26608
1.26219
1.25926
1.25729
1.2563
1.25629
1.25728
1.25927
1.26223
1.26618
1.27108
1.27691
1.28366
1.29127
1.29975
1.30902
1.31906
1.32984
1.34129
1.35341
1.3661
1.37934
1.3931
1.40728
1.42188
1.43679
1.452
1.46745
1.48303
1.49875
1.51448
1.53019
1.54584
1.56131
1.5766
1.5916
1.60629
1.62058
1.63441
1.64776
1.66054
1.67271
1.68425
1.69506
1.70515
1.71444
1.72292
1.73055
1.73728
1.74313
1.74803
1.75201
1.755
1.75702
1.75807
1.75811
1.75718
1.75526
1.75237
1.74852
1.7437
1.73798
1.73134
1.72383
1.71547
1.70629
1.69634
1.68564
1.67424
1.66219
1.64952
1.63632
1.6226
1.60844
1.59389
1.57899
1.56383
1.54845
1.53292
1.51729
1.50163
1.48601
1.47047
1.45509
1.43992
1.42502
1.41046
1.39628
1.38255
1.36932
1.35664
1.34456
1.33314
1.3224
1.31241
1.30319
1.29478
1.28723
1.28054
1.27477
1.26991
1.26601
1.26306
1.26108
1.26009
1.26007
1.26105
1.263
1.26592
1.26981
1.27464
1.28039
1.28705
1.29459
1.30297
1.31217
1.32214
1.33285
1.34426
1.35632
1.36898
1.38219
1.39591
1.41007
1.42463
1.43951
1.45468
1.47006
1.48559
1.50122
1.51687
1.5325
1.54803
1.56341
1.57856
1.59345
1.608
1.62216
1.63587
1.64906
1.66172
1.67376
1.68515
1.69585
1.70578
1.71496
1.7233
1.7308
1.73743
1.74313
1.74792
1.75175
1.75462
1.75652
1.75743
1.75737
1.7563
1.75427
1.75126
1.74727
1.74236
1.7365
1.72975
1.72211
1.71363
1.70434
1.69425
1.68345
1.67194
1.65978
1.64703
1.63371
1.61992
1.60567
1.59104
1.5761
1.56086
1.54544
1.52986
1.51419
1.49851
1.48284
1.4673
1.45189
1.43669
1.42178
1.40716
1.39296
1.37917
1.36589
1.35316
1.341
1.32952
1.31871
1.30864
1.29937
1.2909
1.28331
1.27659
1.27079
1.26593
1.26201
1.25907
1.25709
1.2561
1.25609
1.25705
1.25899
1.26189
1.26576
1.27056
1.27629
1.28294
1.29047
1.29886
1.30808
1.31809
1.32885
1.3403
1.35243
1.36513
1.37839
1.39217
1.40637
1.42099
1.43593
1.45117
1.46663
1.48223
1.49794
1.51365
1.52933
1.54491
1.5603
1.57549
1.59039
1.60495
1.61914
1.63285
1.64609
1.65875
1.67081
1.68223
1.69292
1.70291
1.7121
1.7205
1.72805
1.73469
1.74043
1.74521
1.74903
1.75188
1.75377
1.75471
1.75466
1.75365
1.75163
1.74862
1.74465
1.7397
1.73384
1.72705
1.7194
1.7109
1.70158
1.69152
1.68072
1.66922
1.65707
1.64427
1.63092
1.61709
1.60283
1.5882
1.57308
1.55845
1.54096
1.52912
1.50604
1.50394
1.46337
1.49137
1.40099
1.50998
1.29435
1.594
1.10147
1.79404
0.767848
2.16412
0.250551
2.72638
-0.436566
3.41933
-1.17334
4.06223
-1.72196
4.37729
-1.79309
4.09856
-1.1875
3.12047
0.0469487
1.63211
0.0178805
-1.52283
1.531
-2.78872
2.49366
-3.39599
2.77269
-3.32329
2.45986
-2.77322
1.81923
-2.03517
1.12768
-1.34732
0.566425
-0.829326
0.197025
-0.495237
-0.00254606
-0.301976
-0.0862235
-0.195109
-0.104663
-0.132636
-0.0919639
-0.0898174
-0.0666508
-0.0547145
-0.0373278
-0.0226625
-0.00745118
0.0072812
0.0216586
0.0355723
0.0489426
0.061759
0.0739549
0.0855318
0.0964242
0.106568
0.115917
0.124416
0.13205
0.138806
0.144658
0.149603
0.153596
0.156632
0.158701
0.159785
0.159902
0.159014
0.157124
0.154237
0.150351
0.145525
0.139772
0.133152
0.12568
0.117377
0.108275
0.0983665
0.087715
0.0763292
0.0642794
0.0516201
0.0383894
0.0246828
0.0105308
-0.00400905
-0.0188793
-0.034041
-0.0494071
-0.0649423
-0.080561
-0.096194
-0.111785
-0.127262
-0.142587
-0.157689
-0.172515
-0.187039
-0.201166
-0.214877
-0.228095
-0.240753
-0.252834
-0.264229
-0.274929
-0.284877
-0.294036
-0.302384
-0.309875
-0.316503
-0.322235
-0.327045
-0.330936
-0.333859
-0.335833
-0.336817
-0.336816
-0.335828
-0.333837
-0.330877
-0.326926
-0.322033
-0.316199
-0.309453
-0.301844
-0.29337
-0.284104
-0.27406
-0.263278
-0.25183
-0.239715
-0.227024
-0.213773
-0.200018
-0.185837
-0.171236
-0.156317
-0.141106
-0.125665
-0.11008
-0.0943673
-0.0786322
-0.0629106
-0.0472755
-0.031798
-0.0165089
-0.00151045
0.0131696
0.0274629
0.04129
0.0546386
0.0674152
0.0795913
0.0911191
0.101932
0.112022
0.121312
0.129796
0.137425
0.144168
0.150013
0.154915
0.158885
0.161878
0.1639
0.164944
0.164989
0.164063
0.162141
0.159251
0.155401
0.150592
0.144867
0.138227
0.130709
0.122349
0.113162
0.103208
0.0925049
0.0811011
0.0690535
0.0563937
0.04319
0.0294734
0.0153172
0.000763412
-0.0141241
-0.0292856
-0.0446656
-0.060198
-0.0758253
-0.091484
-0.107114
-0.122651
-0.138035
-0.153206
-0.168103
-0.182668
-0.196844
-0.210575
-0.223807
-0.236484
-0.248569
-0.259996
-0.27073
-0.280725
-0.289943
-0.29835
-0.305908
-0.312589
-0.318366
-0.323218
-0.327125
-0.33007
-0.332044
-0.333039
-0.333051
-0.332079
-0.330127
-0.327205
-0.323322
-0.318492
-0.312739
-0.30608
-0.298546
-0.290164
-0.280968
-0.270995
-0.260281
-0.248873
-0.236813
-0.224151
-0.210935
-0.197219
-0.183056
-0.168501
-0.153612
-0.138448
-0.123069
-0.107536
-0.0919092
-0.0762522
-0.0606259
-0.0450941
-0.0297144
-0.0145546
0.000334375
0.0148833
0.0290394
0.0427544
0.055947
0.0686064
0.0806394
0.0920287
0.102724
0.112661
0.121839
0.130181
0.13768
0.144306
0.150009
0.154801
0.158632
0.161502
0.163405
0.16431
0.164248
0.163184
0.161146
0.158138
0.154153
0.149241
0.143381
0.136631
0.128997
0.120509
0.111222
0.101135
0.090335
0.0788205
0.066664
0.0539163
0.040599
0.0268106
0.0125613
-0.00206989
-0.017016
-0.0322515
-0.0476685
-0.0632535
-0.0789194
-0.0946019
-0.110269
-0.125819
-0.141232
-0.156431
-0.171346
-0.185956
-0.200159
-0.213944
-0.227227
-0.239963
-0.252117
-0.263601
-0.27441
-0.284471
-0.293742
-0.302209
-0.309801
-0.316521
-0.322323
-0.327183
-0.331107
-0.334046
-0.33603
-0.337021
-0.337037
-0.336078
-0.334131
-0.331236
-0.327364
-0.32256
-0.316824
-0.310169
-0.30264
-0.294243
-0.285028
-0.275016
-0.264254
-0.252809
-0.240689
-0.227984
-0.214722
-0.200952
-0.186753
-0.17213
-0.157184
-0.141951
-0.126491
-0.110896
-0.095188
-0.0794763
-0.0637988
-0.0482236
-0.032827
-0.0176405
-0.00274289
0.0118258
0.0260071
0.0397227
0.0529578
0.0656203
0.0776804
0.0890945
0.0997924
0.10978
0.118971
0.127365
0.134903
0.141546
0.147283
0.152057
0.155887
0.15875
0.160651
0.161585
0.161534
0.160509
0.158482
0.155476
0.1515
0.146552
0.140693
0.133911
0.126255
0.117764
0.108448
0.098381
0.0875711
0.0760671
0.0639014
0.0511049
0.0377665
0.0239301
0.00963377
-0.00490002
-0.0202866
-0.0347381
-0.0521813
-0.0640955
-0.0871597
-0.0892814
-0.129855
-0.10184
-0.192214
-0.0832443
-0.298895
0.000675975
-0.491874
0.200564
-0.825581
0.57043
-1.34305
1.13219
-2.03038
1.82447
-2.76741
2.46626
-3.31612
2.78084
-3.38662
2.5045
-2.77684
1.54262
-1.51082
0.0382262
3.09372
1.52394
4.58507
0.27335
5.56113
-0.330521
5.84175
-0.257063
5.52768
0.292863
4.8856
1.03035
4.19305
1.71779
3.63126
2.23542
3.26157
2.5693
3.0619
2.76246
2.97817
2.86927
2.95968
2.93172
2.97239
2.97457
2.99772
3.00965
3.02709
3.04165
3.05695
3.07167
3.08604
3.09994
3.11332
3.12615
3.13836
3.14993
3.16081
3.17094
3.18029
3.1888
3.19644
3.20321
3.20906
3.214
3.218
3.22103
3.2231
3.22419
3.2243
3.2234
3.22151
3.21862
3.21474
3.20993
3.2042
3.19758
3.19011
3.1818
3.17268
3.16275
3.1521
3.14072
3.12868
3.11603
3.10281
3.08911
3.07495
3.06041
3.04554
3.03037
3.01501
2.99948
2.98386
2.96823
2.95263
2.93716
2.92183
2.90672
2.89189
2.87736
2.86324
2.84953
2.83632
2.82366
2.8116
2.80021
2.7895
2.77956
2.7704
2.76204
2.75455
2.74792
2.74218
2.73737
2.73348
2.73056
2.72859
2.72761
2.72761
2.72861
2.7306
2.73356
2.73751
2.7424
2.74823
2.75497
2.76258
2.77105
2.78031
2.79035
2.80113
2.81258
2.82469
2.83739
2.85065
2.8644
2.87858
2.89319
2.90811
2.92332
2.93876
2.95435
2.97006
2.9858
3.00152
3.01715
3.03263
3.04792
3.06292
3.0776
3.09189
3.10571
3.11906
3.13184
3.14402
3.15555
3.16636
3.17645
3.18574
3.19422
3.20185
3.20859
3.21444
3.21934
3.22331
3.2263
3.22833
3.22937
3.22941
3.22848
3.22656
3.22367
3.21982
3.21501
3.20928
3.20265
3.19513
3.18677
3.17759
3.16764
3.15693
3.14553
3.13348
3.12082
3.10762
3.0939
3.07974
3.06518
3.05029
3.03513
3.01975
3.00421
2.98859
2.97293
2.9573
2.94176
2.92638
2.91121
2.89631
2.88174
2.86757
2.85384
2.84061
2.82793
2.81585
2.80442
2.79369
2.78369
2.77448
2.76607
2.75851
2.75183
2.74605
2.7412
2.73729
2.73434
2.73237
2.73137
2.73136
2.73233
2.73429
2.73721
2.74109
2.74593
2.75168
2.75834
2.76587
2.77426
2.78345
2.79343
2.80414
2.81555
2.8276
2.84027
2.85348
2.8672
2.88136
2.89592
2.91081
2.92597
2.94135
2.95688
2.97251
2.98817
3.00379
3.01932
3.0347
3.04986
3.06475
3.0793
3.09345
3.10717
3.12037
3.13302
3.14506
3.15645
3.16714
3.17708
3.18626
3.1946
3.2021
3.20872
3.21443
3.21922
3.22305
3.22592
3.22783
3.22874
3.22867
3.22761
3.22557
3.22256
3.21858
3.21367
3.20781
3.20106
3.19342
3.18494
3.17565
3.16556
3.15476
3.14325
3.13109
3.11834
3.10503
3.09124
3.07699
3.06236
3.04741
3.03218
3.01676
3.00117
2.9855
2.96982
2.95415
2.9386
2.92318
2.90798
2.89307
2.87846
2.86425
2.85046
2.83718
2.82445
2.8123
2.80081
2.79001
2.77995
2.77068
2.76222
2.75463
2.74791
2.74211
2.73725
2.73332
2.73038
2.7284
2.7274
2.72738
2.72834
2.73029
2.73319
2.73706
2.74187
2.74761
2.75426
2.76179
2.77019
2.7794
2.78941
2.80017
2.81161
2.82373
2.83644
2.8497
2.86347
2.87768
2.89229
2.90724
2.92247
2.93793
2.95352
2.96922
2.98492
3.0006
3.01617
3.03157
3.04676
3.06166
3.07623
3.09041
3.10413
3.11736
3.13003
3.14209
3.1535
3.1642
3.17419
3.18338
3.19177
3.1993
3.20594
3.21167
3.21645
3.22029
3.22315
3.22505
3.22599
3.22593
3.2249
3.22287
3.21986
3.21588
3.21094
3.20508
3.1983
3.19065
3.18216
3.17285
3.16278
3.15196
3.14044
3.12828
3.11548
3.10214
3.08831
3.07402
3.05938
3.04411
3.0296
3.01215
3.00027
2.9772
2.97505
2.93449
2.9625
2.87217
2.98112
2.76552
3.06508
2.57263
3.26507
2.23911
3.63519
1.72196
4.19746
1.03506
4.8907
0.298433
5.53376
-0.25036
5.84914
-0.32228
5.57
0.282841
4.59431
1.53418
3.1008
-1.21473
-2.79954
0.267111
-4.04986
1.23309
-4.65453
1.51179
-4.58145
1.19944
-4.03117
0.559551
-3.29318
-0.131338
-2.60523
-0.692097
-2.08727
-1.06123
-1.75318
-1.26063
-1.55991
-1.34421
-1.45303
-1.36263
-1.39056
-1.34991
-1.34769
-1.32457
-1.3126
-1.29517
-1.28066
-1.26521
-1.25064
-1.23622
-1.22232
-1.20893
-1.1961
-1.18388
-1.17232
-1.16144
-1.15131
-1.14197
-1.13346
-1.12581
-1.11904
-1.11318
-1.10824
-1.10424
-1.10121
-1.09914
-1.09805
-1.09795
-1.09885
-1.10075
-1.10364
-1.10751
-1.1123
-1.11803
-1.12463
-1.13211
-1.14044
-1.14957
-1.15949
-1.17015
-1.18153
-1.19356
-1.20621
-1.21943
-1.23313
-1.24729
-1.26183
-1.2767
-1.29187
-1.30723
-1.32275
-1.33836
-1.354
-1.36959
-1.38506
-1.40039
-1.4155
-1.43035
-1.44487
-1.459
-1.47271
-1.48591
-1.49856
-1.51062
-1.52201
-1.53272
-1.54266
-1.55183
-1.56019
-1.56769
-1.57432
-1.58006
-1.58487
-1.58876
-1.59168
-1.59364
-1.59462
-1.59461
-1.59361
-1.59162
-1.58866
-1.58471
-1.57982
-1.574
-1.56726
-1.55965
-1.55119
-1.54192
-1.53188
-1.5211
-1.50966
-1.49754
-1.48484
-1.47159
-1.45783
-1.44364
-1.42904
-1.41411
-1.3989
-1.38346
-1.36787
-1.35216
-1.33642
-1.3207
-1.30506
-1.28959
-1.27431
-1.25931
-1.24463
-1.23034
-1.21652
-1.20317
-1.1904
-1.17822
-1.16669
-1.15588
-1.14579
-1.1365
-1.12802
-1.12039
-1.11364
-1.1078
-1.1029
-1.09893
-1.09593
-1.09391
-1.09287
-1.09282
-1.09375
-1.09567
-1.09856
-1.10241
-1.10722
-1.11295
-1.11959
-1.12711
-1.13547
-1.14465
-1.1546
-1.16531
-1.17671
-1.18876
-1.20142
-1.21463
-1.22834
-1.2425
-1.25706
-1.27194
-1.28711
-1.30249
-1.31802
-1.33365
-1.34931
-1.36494
-1.38047
-1.39586
-1.41103
-1.42593
-1.44049
-1.45467
-1.4684
-1.48163
-1.49431
-1.50639
-1.51782
-1.52856
-1.53855
-1.54777
-1.55618
-1.56373
-1.57041
-1.57619
-1.58104
-1.58495
-1.5879
-1.58987
-1.59087
-1.59088
-1.58991
-1.58795
-1.58503
-1.58115
-1.57632
-1.57056
-1.56391
-1.55637
-1.54799
-1.53879
-1.52882
-1.51811
-1.5067
-1.49464
-1.48198
-1.46876
-1.45504
-1.44088
-1.42632
-1.41143
-1.39627
-1.38089
-1.36536
-1.34973
-1.33407
-1.31844
-1.30291
-1.28754
-1.27237
-1.25749
-1.24293
-1.22878
-1.21506
-1.20187
-1.18921
-1.17717
-1.16579
-1.15509
-1.14515
-1.13598
-1.12763
-1.12013
-1.11351
-1.1078
-1.10301
-1.09918
-1.09631
-1.09441
-1.0935
-1.09356
-1.09462
-1.09666
-1.09967
-1.10365
-1.10857
-1.11443
-1.12118
-1.12881
-1.1373
-1.14658
-1.15667
-1.16747
-1.17898
-1.19114
-1.20388
-1.2172
-1.23099
-1.24524
-1.25987
-1.27481
-1.29005
-1.30547
-1.32105
-1.33672
-1.35241
-1.36807
-1.38363
-1.39905
-1.41424
-1.42917
-1.44377
-1.45798
-1.47177
-1.48505
-1.49779
-1.50994
-1.52142
-1.53222
-1.54227
-1.55154
-1.56
-1.56759
-1.57431
-1.58011
-1.58498
-1.58891
-1.59185
-1.59384
-1.59483
-1.59485
-1.5939
-1.59195
-1.58905
-1.58517
-1.58036
-1.57462
-1.56796
-1.56043
-1.55203
-1.54282
-1.53281
-1.52205
-1.51061
-1.4985
-1.48579
-1.47253
-1.45876
-1.44456
-1.42994
-1.41499
-1.39976
-1.38431
-1.36871
-1.35302
-1.33732
-1.32165
-1.30607
-1.29067
-1.27548
-1.26058
-1.24601
-1.23183
-1.21811
-1.20488
-1.19222
-1.18016
-1.16874
-1.15803
-1.14805
-1.13886
-1.13048
-1.12295
-1.11632
-1.11059
-1.1058
-1.10196
-1.09909
-1.09719
-1.09626
-1.09631
-1.09735
-1.09938
-1.10239
-1.10637
-1.11131
-1.11717
-1.12395
-1.1316
-1.14009
-1.1494
-1.15947
-1.1703
-1.18182
-1.19399
-1.20678
-1.22012
-1.23395
-1.2483
-1.26283
-1.27826
-1.29268
-1.3101
-1.32202
-1.34509
-1.34726
-1.38783
-1.35984
-1.45018
-1.34128
-1.55689
-1.25748
-1.7499
-1.05779
-2.08366
-0.688276
-2.60121
-0.127076
-3.28867
0.564388
-4.026
1.20501
-4.57541
1.51825
-4.64765
1.24028
-4.04261
0.274189
-2.79349
-1.21195
4.06693
2.47584
5.54723
1.22509
6.51421
0.620628
6.79084
0.693063
6.47531
1.24214
5.8328
1.9789
5.14017
2.66587
4.57845
3.18316
4.20883
3.51685
4.0092
3.70991
3.92551
3.8167
3.90706
3.87913
3.91975
3.92197
3.94509
3.95706
3.97451
3.98899
4.00446
4.01904
4.03345
4.04734
4.06074
4.07357
4.0858
4.09736
4.10823
4.11836
4.1277
4.13621
4.14387
4.15064
4.1565
4.16144
4.16544
4.16848
4.17055
4.17163
4.17173
4.17082
4.16892
4.16603
4.16217
4.15739
4.15168
4.14507
4.13759
4.12925
4.12012
4.11019
4.09953
4.08815
4.07612
4.06348
4.05026
4.03657
4.02241
4.00787
3.993
3.97783
3.96247
3.94695
3.93134
3.91571
3.90011
3.88463
3.8693
3.85419
3.83935
3.82483
3.81068
3.79698
3.78378
3.77113
3.75909
3.7477
3.737
3.72705
3.71788
3.70952
3.70202
3.69538
3.68964
3.68483
3.68094
3.67802
3.67606
3.67509
3.6751
3.6761
3.67809
3.68105
3.685
3.68989
3.69571
3.70245
3.71005
3.71851
3.72777
3.73781
3.74858
3.76004
3.77215
3.78485
3.79811
3.81187
3.82606
3.84066
3.85559
3.87081
3.88625
3.90184
3.91755
3.93328
3.949
3.96464
3.98011
3.9954
4.01039
4.02507
4.03936
4.05319
4.06653
4.07931
4.09149
4.10301
4.11383
4.12392
4.13321
4.14169
4.14932
4.15606
4.16191
4.16681
4.17078
4.17377
4.1758
4.17684
4.17688
4.17595
4.17403
4.17114
4.16728
4.16248
4.15675
4.15011
4.14259
4.13424
4.12505
4.1151
4.1044
4.09299
4.08094
4.06828
4.05507
4.04136
4.0272
4.01264
3.99775
3.98258
3.96721
3.95167
3.93605
3.92039
3.90476
3.88922
3.87383
3.85866
3.84376
3.8292
3.81502
3.8013
3.78806
3.77538
3.7633
3.75187
3.74114
3.73114
3.72192
3.71352
3.70596
3.69928
3.69351
3.68865
3.68474
3.6818
3.67982
3.67883
3.67881
3.67979
3.68174
3.68466
3.68855
3.69338
3.69913
3.70579
3.71333
3.72171
3.73091
3.74088
3.75159
3.763
3.77506
3.78772
3.80093
3.81465
3.82882
3.84337
3.85826
3.87343
3.88881
3.90434
3.91997
3.93563
3.95125
3.96678
3.98216
3.99732
4.01221
4.02676
4.04092
4.05463
4.06783
4.08048
4.09252
4.10391
4.1146
4.12455
4.13372
4.14207
4.14957
4.15619
4.1619
4.16669
4.17052
4.17339
4.17529
4.17621
4.17614
4.17508
4.17304
4.17003
4.16605
4.16114
4.15528
4.14853
4.14089
4.13241
4.12312
4.11304
4.10224
4.09072
4.07857
4.06582
4.05251
4.03872
4.02447
4.00984
3.99489
3.97966
3.96423
3.94865
3.93298
3.91729
3.90162
3.88606
3.87065
3.85545
3.84052
3.82592
3.8117
3.79792
3.78463
3.7719
3.75975
3.74828
3.73748
3.72742
3.71816
3.7097
3.70212
3.6954
3.68959
3.68473
3.6808
3.67785
3.67586
3.67487
3.67485
3.6758
3.67775
3.68065
3.68453
3.68935
3.69509
3.70175
3.70928
3.71768
3.72689
3.73689
3.74765
3.75909
3.77121
3.78391
3.79717
3.81094
3.82515
3.83977
3.85471
3.86994
3.88539
3.90098
3.91666
3.93237
3.94803
3.96361
3.97901
3.9942
4.0091
4.02367
4.03785
4.05158
4.0648
4.07747
4.08953
4.10095
4.11165
4.12164
4.13083
4.1392
4.14672
4.15336
4.15909
4.16387
4.16772
4.17059
4.1725
4.17342
4.17336
4.17232
4.17029
4.16727
4.16329
4.15836
4.1525
4.14573
4.13808
4.12959
4.12027
4.11019
4.09937
4.08784
4.07566
4.06287
4.04953
4.0357
4.02137
4.0068
3.99138
3.97695
3.95954
3.94762
3.92456
3.92239
3.88182
3.9098
3.8195
3.9284
3.71288
4.01229
3.52005
4.21218
3.18666
4.58214
2.66974
5.14425
1.9832
5.83734
1.24696
6.48043
0.69848
6.79648
0.626513
6.52008
1.23085
5.55221
2.47974
4.06824
-1.83255
-3.42333
-0.353997
-4.67221
0.610856
-5.27541
0.888996
-5.20185
0.576614
-4.65164
-0.0629636
-3.91388
-0.753471
-3.22614
-1.3139
-2.70837
-1.68281
-2.3744
-1.88208
-2.18119
-1.96559
-2.07434
-1.98398
-2.01188
-1.97125
-1.96902
-1.9459
-1.93392
-1.91646
-1.902
-1.88651
-1.87194
-1.85752
-1.84364
-1.83024
-1.81741
-1.80518
-1.79362
-1.78275
-1.77263
-1.76328
-1.75477
-1.74711
-1.74034
-1.73447
-1.72953
-1.72554
-1.7225
-1.72043
-1.71935
-1.71926
-1.72017
-1.72207
-1.72495
-1.7288
-1.73358
-1.73929
-1.7459
-1.75338
-1.76172
-1.77086
-1.78079
-1.79146
-1.80283
-1.81486
-1.8275
-1.84071
-1.85441
-1.86855
-1.8831
-1.89798
-1.91313
-1.9285
-1.94402
-1.95963
-1.97525
-1.99084
-2.00633
-2.02166
-2.03678
-2.05162
-2.06615
-2.08029
-2.09398
-2.10718
-2.11983
-2.13187
-2.14326
-2.15396
-2.16391
-2.17308
-2.18145
-2.18895
-2.19559
-2.20133
-2.20615
-2.21003
-2.21295
-2.2149
-2.21587
-2.21586
-2.21486
-2.21287
-2.20991
-2.20596
-2.20108
-2.19525
-2.18852
-2.18092
-2.17246
-2.1632
-2.15316
-2.14239
-2.13093
-2.11882
-2.10612
-2.09286
-2.0791
-2.0649
-2.0503
-2.03537
-2.02015
-2.00471
-1.98912
-1.97341
-1.95767
-1.94196
-1.92632
-1.91085
-1.89556
-1.88057
-1.8659
-1.85161
-1.83778
-1.82444
-1.81167
-1.79949
-1.78796
-1.77715
-1.76706
-1.75777
-1.74929
-1.74166
-1.73492
-1.72907
-1.72416
-1.7202
-1.7172
-1.71518
-1.71414
-1.71409
-1.71502
-1.71694
-1.71984
-1.72369
-1.7285
-1.73422
-1.74086
-1.74838
-1.75674
-1.76593
-1.77588
-1.78658
-1.79798
-1.81004
-1.8227
-1.83591
-1.84962
-1.86378
-1.87834
-1.89323
-1.90839
-1.92377
-1.9393
-1.95493
-1.97059
-1.98622
-2.00176
-2.01714
-2.03232
-2.04722
-2.06178
-2.07596
-2.08968
-2.10292
-2.1156
-2.12768
-2.13911
-2.14984
-2.15984
-2.16906
-2.17746
-2.18502
-2.1917
-2.19747
-2.20233
-2.20623
-2.20918
-2.21116
-2.21215
-2.21217
-2.21119
-2.20924
-2.20632
-2.20244
-2.19761
-2.19185
-2.18519
-2.17766
-2.16927
-2.16008
-2.1501
-2.13939
-2.12798
-2.11592
-2.10326
-2.09005
-2.07633
-2.06217
-2.04761
-2.03272
-2.01755
-2.00217
-1.98664
-1.97101
-1.95535
-1.93972
-1.92419
-1.90881
-1.89365
-1.87876
-1.86421
-1.85006
-1.83634
-1.82314
-1.81049
-1.79845
-1.78706
-1.77637
-1.76643
-1.75726
-1.74891
-1.74141
-1.73479
-1.72908
-1.72429
-1.72045
-1.71758
-1.71568
-1.71477
-1.71484
-1.71589
-1.71793
-1.72094
-1.72492
-1.72984
-1.7357
-1.74244
-1.75008
-1.75856
-1.76785
-1.77793
-1.78873
-1.80024
-1.8124
-1.82515
-1.83846
-1.85225
-1.8665
-1.88113
-1.89607
-1.91131
-1.92673
-1.94231
-1.95798
-1.97367
-1.98934
-2.0049
-2.02032
-2.03552
-2.05045
-2.06505
-2.07927
-2.09305
-2.10634
-2.11907
-2.13121
-2.14269
-2.15349
-2.16354
-2.1728
-2.18126
-2.18885
-2.19556
-2.20137
-2.20623
-2.21017
-2.21311
-2.21511
-2.21611
-2.21613
-2.21517
-2.21322
-2.21032
-2.20643
-2.20162
-2.19587
-2.18922
-2.18168
-2.17328
-2.16407
-2.15406
-2.14331
-2.13187
-2.11976
-2.10706
-2.0938
-2.08003
-2.06582
-2.0512
-2.03626
-2.02103
-2.00559
-1.99
-1.97432
-1.95861
-1.94295
-1.92738
-1.91197
-1.89678
-1.88188
-1.86731
-1.85313
-1.83941
-1.82618
-1.81351
-1.80145
-1.79003
-1.77933
-1.76935
-1.76016
-1.75179
-1.74427
-1.73763
-1.7319
-1.72711
-1.72327
-1.72039
-1.71849
-1.71756
-1.71762
-1.71867
-1.7207
-1.72372
-1.72769
-1.73263
-1.73849
-1.74526
-1.75291
-1.7614
-1.77071
-1.7808
-1.79163
-1.80316
-1.81533
-1.82812
-1.84146
-1.8553
-1.86965
-1.88419
-1.89965
-1.91405
-1.93148
-1.94339
-1.96648
-1.96865
-2.00923
-1.98127
-2.07159
-1.96276
-2.17829
-1.87906
-2.37128
-1.67956
-2.70499
-1.31036
-3.22245
-0.749599
-3.90983
-0.058738
-4.64723
0.581207
-5.19707
0.893854
-5.27051
0.61558
-4.66787
-0.35041
-3.42089
-1.8317
4.3278
2.73369
5.80674
1.48258
6.7695
0.877418
7.04384
0.948932
6.72759
1.49712
6.08504
2.23316
5.3926
2.91959
4.83109
3.43652
4.46161
3.77
4.26207
3.96295
4.17843
4.06968
4.15999
4.13209
4.1727
4.17493
4.19805
4.21001
4.22748
4.24193
4.25744
4.27202
4.28641
4.3003
4.31369
4.32653
4.33876
4.35032
4.36119
4.37131
4.38066
4.38917
4.39683
4.4036
4.40947
4.41441
4.41841
4.42145
4.42352
4.42459
4.42468
4.42377
4.42186
4.41899
4.41515
4.41038
4.40467
4.39806
4.39057
4.38223
4.37309
4.36315
4.35249
4.34111
4.32908
4.31645
4.30324
4.28955
4.2754
4.26086
4.24598
4.23083
4.21546
4.19994
4.18433
4.16871
4.15312
4.13763
4.1223
4.10718
4.09233
4.07781
4.06367
4.04998
4.03678
4.02413
4.01209
4.00071
3.99001
3.98006
3.97089
3.96252
3.95501
3.94837
3.94263
3.93781
3.93393
3.93102
3.92906
3.92809
3.92811
3.92911
3.9311
3.93406
3.938
3.94289
3.94872
3.95544
3.96305
3.9715
3.98076
3.99079
4.00156
4.01302
4.02513
4.03783
4.0511
4.06485
4.07906
4.09365
4.10859
4.12381
4.13925
4.15485
4.17056
4.18629
4.20201
4.21764
4.23311
4.2484
4.26339
4.27807
4.29235
4.30618
4.31952
4.3323
4.34447
4.356
4.36681
4.3769
4.38619
4.39468
4.40231
4.40905
4.4149
4.4198
4.42377
4.42676
4.42878
4.42982
4.42987
4.42894
4.42702
4.42412
4.42027
4.41546
4.40973
4.40309
4.39558
4.38722
4.37803
4.36807
4.35737
4.34598
4.33392
4.32126
4.30805
4.29434
4.28018
4.26561
4.25073
4.23557
4.22019
4.20465
4.18902
4.17336
4.15773
4.14219
4.12681
4.11163
4.09673
4.08217
4.068
4.05427
4.04104
4.02836
4.01627
4.00484
3.99411
3.98411
3.97489
3.96649
3.95894
3.95226
3.94648
3.94162
3.93772
3.93477
3.93279
3.9318
3.93178
3.93276
3.93471
3.93763
3.94151
3.94635
3.9521
3.95876
3.9663
3.97468
3.98388
3.99385
4.00457
4.01597
4.02803
4.04069
4.05391
4.06762
4.08179
4.09635
4.11124
4.1264
4.14178
4.15732
4.17295
4.1886
4.20423
4.21976
4.23514
4.25031
4.26519
4.27975
4.2939
4.30761
4.32081
4.33347
4.34551
4.35689
4.36758
4.37753
4.3867
4.39505
4.40255
4.40917
4.41488
4.41967
4.42351
4.42638
4.42828
4.42919
4.42913
4.42807
4.42603
4.42302
4.41904
4.41413
4.40827
4.40152
4.39389
4.3854
4.37611
4.36603
4.35523
4.34372
4.33156
4.31882
4.3055
4.29171
4.27746
4.26283
4.24789
4.23265
4.21723
4.20164
4.18598
4.17028
4.15462
4.13905
4.12363
4.10843
4.0935
4.0789
4.06469
4.0509
4.03761
4.02488
4.01274
4.00126
3.99047
3.98042
3.97116
3.9627
3.95512
3.9484
3.9426
3.93773
3.9338
3.93085
3.92885
3.92785
3.92783
3.92879
3.93074
3.93364
3.93753
3.94234
3.9481
3.95475
3.96229
3.97068
3.9799
3.9899
4.00065
4.01209
4.0242
4.0369
4.05016
4.06393
4.07814
4.09276
4.1077
4.12293
4.13837
4.15396
4.16963
4.18533
4.201
4.21657
4.23197
4.24716
4.26207
4.27664
4.29081
4.30454
4.31777
4.33044
4.3425
4.35392
4.36462
4.3746
4.38378
4.39216
4.39967
4.40631
4.41204
4.41683
4.42067
4.42355
4.42545
4.42638
4.42631
4.42527
4.42323
4.42022
4.41624
4.4113
4.40544
4.39867
4.39103
4.38254
4.37322
4.36313
4.3523
4.34077
4.32859
4.3158
4.30245
4.28861
4.27427
4.25972
4.24426
4.22986
4.21243
4.20051
4.17744
4.17526
4.13469
4.16265
4.07238
4.1812
3.96579
4.26501
3.77302
4.46475
3.43977
4.83447
2.92309
5.39625
2.23692
6.08895
1.50115
6.73174
0.953141
7.04804
0.881536
6.77333
1.48605
5.80943
2.73557
4.32842
-1.78398
-3.37586
-0.305569
-4.62408
0.658293
-5.22685
0.9355
-5.15336
0.622654
-4.60356
-0.0170115
-3.86625
-0.707397
-3.17893
-1.26767
-2.66146
-1.63645
-2.32768
-1.83563
-2.13459
-1.91912
-2.02781
-1.93749
-1.96537
-1.92475
-1.92252
-1.8994
-1.88744
-1.86996
-1.85551
-1.83999
-1.82543
-1.81103
-1.79714
-1.78375
-1.77091
-1.75869
-1.74712
-1.73626
-1.72613
-1.71679
-1.70827
-1.70062
-1.69385
-1.68798
-1.68303
-1.67903
-1.67599
-1.67393
-1.67286
-1.67278
-1.67369
-1.67559
-1.67846
-1.68229
-1.68707
-1.69277
-1.69938
-1.70687
-1.71521
-1.72436
-1.7343
-1.74496
-1.75634
-1.76837
-1.78101
-1.7942
-1.8079
-1.82204
-1.83658
-1.85146
-1.86661
-1.88197
-1.89749
-1.9131
-1.92872
-1.94431
-1.9598
-1.97514
-1.99026
-2.00511
-2.01963
-2.03377
-2.04746
-2.06066
-2.0733
-2.08534
-2.09672
-2.10742
-2.11737
-2.12655
-2.13492
-2.14243
-2.14907
-2.15481
-2.15963
-2.16351
-2.16642
-2.16838
-2.16935
-2.16933
-2.16833
-2.16634
-2.16337
-2.15943
-2.15454
-2.14872
-2.142
-2.13439
-2.12595
-2.11668
-2.10665
-2.09588
-2.08442
-2.07231
-2.05961
-2.04635
-2.03259
-2.01838
-2.00378
-1.98884
-1.97362
-1.95818
-1.94258
-1.92687
-1.91114
-1.89542
-1.87979
-1.86432
-1.84904
-1.83405
-1.81937
-1.80509
-1.79126
-1.77792
-1.76515
-1.75297
-1.74145
-1.73064
-1.72055
-1.71126
-1.70277
-1.69514
-1.6884
-1.68255
-1.67765
-1.67368
-1.67069
-1.66866
-1.66763
-1.66758
-1.66851
-1.67043
-1.67332
-1.67718
-1.68198
-1.68771
-1.69435
-1.70187
-1.71023
-1.71942
-1.72938
-1.74008
-1.75148
-1.76353
-1.77619
-1.7894
-1.80311
-1.81727
-1.83183
-1.84672
-1.86188
-1.87726
-1.89279
-1.90842
-1.92409
-1.93972
-1.95526
-1.97064
-1.98582
-2.00072
-2.01528
-2.02946
-2.04318
-2.05641
-2.06909
-2.08118
-2.09261
-2.10335
-2.11334
-2.12256
-2.13096
-2.13851
-2.1452
-2.15097
-2.15583
-2.15973
-2.16268
-2.16466
-2.16565
-2.16567
-2.1647
-2.16274
-2.15982
-2.15594
-2.15111
-2.14535
-2.1387
-2.13116
-2.12278
-2.11358
-2.1036
-2.09289
-2.08148
-2.06942
-2.05676
-2.04355
-2.02984
-2.01567
-2.00111
-1.98621
-1.97105
-1.95566
-1.94013
-1.9245
-1.90885
-1.89322
-1.87769
-1.86231
-1.84714
-1.83226
-1.8177
-1.80355
-1.78984
-1.77663
-1.76398
-1.75194
-1.74055
-1.72986
-1.71992
-1.71075
-1.7024
-1.6949
-1.68828
-1.68257
-1.67778
-1.67394
-1.67107
-1.66917
-1.66825
-1.66832
-1.66938
-1.67142
-1.67442
-1.67841
-1.68332
-1.68918
-1.69593
-1.70356
-1.71205
-1.72133
-1.73141
-1.74221
-1.75372
-1.76588
-1.77863
-1.79194
-1.80573
-1.81997
-1.8346
-1.84955
-1.86478
-1.88021
-1.89579
-1.91146
-1.92716
-1.94282
-1.95839
-1.97381
-1.98901
-2.00394
-2.01854
-2.03276
-2.04654
-2.05983
-2.07256
-2.0847
-2.09618
-2.10697
-2.11702
-2.12628
-2.13473
-2.14232
-2.14903
-2.15484
-2.15971
-2.16364
-2.16659
-2.16859
-2.16959
-2.16961
-2.16865
-2.1667
-2.1638
-2.15991
-2.1551
-2.14934
-2.14268
-2.13515
-2.12675
-2.11753
-2.10753
-2.09678
-2.08534
-2.07324
-2.06054
-2.04727
-2.03351
-2.0193
-2.00468
-1.98975
-1.97452
-1.95908
-1.94349
-1.92782
-1.91212
-1.89645
-1.88089
-1.86548
-1.85029
-1.83538
-1.82081
-1.80664
-1.79291
-1.77969
-1.76702
-1.75496
-1.74354
-1.73283
-1.72286
-1.71368
-1.70531
-1.69779
-1.69115
-1.68542
-1.68063
-1.67679
-1.67391
-1.672
-1.67108
-1.67114
-1.67219
-1.67423
-1.67724
-1.68122
-1.68616
-1.69201
-1.69878
-1.70643
-1.71492
-1.72424
-1.73433
-1.74516
-1.75669
-1.76887
-1.78167
-1.79501
-1.80886
-1.8232
-1.83776
-1.85323
-1.86762
-1.88506
-1.89697
-1.92006
-1.92224
-1.96282
-1.93489
-2.02517
-1.91643
-2.13184
-1.8328
-2.32477
-1.63343
-2.65836
-1.26444
-3.17565
-0.703968
-3.86277
-0.0133978
-4.59994
0.626369
-5.1497
0.93912
-5.22338
0.661455
-4.62133
-0.303461
-3.37445
-1.78355
3.9859
2.39219
5.46402
1.14167
6.4254
0.53648
6.69903
0.607522
6.38273
1.15511
5.74045
1.8906
5.04835
2.57661
4.4871
3.09324
4.1178
3.42655
3.91835
3.61938
3.83474
3.72604
3.81631
3.78843
3.82903
3.83125
3.85437
3.86633
3.88381
3.89825
3.91377
3.92835
3.94273
3.95662
3.97002
3.98286
3.99508
4.00664
4.01751
4.02763
4.03697
4.04549
4.05314
4.05992
4.06579
4.07074
4.07474
4.07778
4.07983
4.0809
4.08098
4.08007
4.07818
4.07531
4.07148
4.06671
4.061
4.05439
4.0469
4.03856
4.02941
4.01947
4.0088
3.99742
3.9854
3.97276
3.95957
3.94588
3.93173
3.9172
3.90232
3.88717
3.8718
3.85628
3.84068
3.82505
3.80946
3.79398
3.77864
3.76352
3.74867
3.73414
3.72001
3.70631
3.69312
3.68049
3.66845
3.65706
3.64637
3.63641
3.62723
3.61886
3.61135
3.60471
3.59896
3.59415
3.59027
3.58736
3.58541
3.58444
3.58445
3.58546
3.58745
3.59041
3.59435
3.59924
3.60506
3.61178
3.61938
3.62783
3.63709
3.64712
3.65789
3.66934
3.68145
3.69416
3.70742
3.72118
3.73539
3.74999
3.76493
3.78015
3.7956
3.8112
3.8269
3.84264
3.85835
3.87399
3.88946
3.90474
3.91973
3.93441
3.94869
3.96252
3.97586
3.98863
4.00081
4.01233
4.02315
4.03324
4.04252
4.05101
4.05864
4.06538
4.07123
4.07613
4.0801
4.08309
4.08511
4.08615
4.0862
4.08527
4.08335
4.08045
4.0766
4.07179
4.06606
4.05942
4.0519
4.04354
4.03435
4.02439
4.01369
4.00229
3.99024
3.97759
3.96438
3.95065
3.93649
3.92194
3.90705
3.89189
3.87651
3.86097
3.84534
3.82968
3.81405
3.79851
3.78312
3.76795
3.75305
3.73848
3.72431
3.71058
3.69735
3.68467
3.67259
3.66116
3.65042
3.64042
3.63121
3.62281
3.61525
3.60857
3.60279
3.59794
3.59403
3.59108
3.58911
3.58811
3.5881
3.58907
3.59102
3.59394
3.59783
3.60266
3.60841
3.61507
3.62261
3.63099
3.64019
3.65017
3.66088
3.67229
3.68435
3.69701
3.71022
3.72393
3.7381
3.75266
3.76756
3.78272
3.7981
3.81364
3.82927
3.84492
3.86055
3.87608
3.89146
3.90663
3.92151
3.93607
3.95022
3.96393
3.97714
3.98979
4.00183
4.01322