/*--------------------------------*- C++ -*----------------------------------*\
| =========                 |                                                 |
| \\      /  F ield         | OpenFOAM: The Open Source CFD Toolbox           |
|  \\    /   O peration     | Version:  2106                                  |
|   \\  /    A nd           | Website:  www.openfoam.com                      |
|    \\/     M anipulation  |                                                 |
\*---------------------------------------------------------------------------*/
FoamFile
{
    version     2.0;
    format      ascii;
    arch        "LSB;label=32;scalar=64";
    class       surfaceScalarField;
    location    "0.008";
    object      phi;
}
// * * * * * * * * * * * * * * * * * * * * * * * * * * * * * * * * * * * * * //

dimensions      [0 3 -1 0 0 0 0];

oriented        oriented;

internalField   nonuniform List<scalar> 
319200
(
4.67637e-06
-3.10497e-07
0.000458384
-0.000474339
-2.1533e-05
0.00047822
0.000108276
-0.000129348
-5.61099e-06
0.000114781
3.11883e-05
-3.6115e-05
-3.8507e-06
3.55148e-05
8.63963e-06
-1.20204e-05
-3.23947e-06
1.21585e-05
1.48827e-06
-4.46054e-06
-2.75259e-06
4.34477e-06
-7.03972e-07
-1.69296e-06
-2.14566e-06
1.49052e-06
-1.27619e-06
-8.36616e-07
-1.67332e-06
5.32877e-07
-1.11986e-06
-5.69958e-07
-1.19371e-06
2.00273e-07
-9.50477e-07
-1.26283e-07
-9.64638e-07
-1.1292e-07
-1.0605e-06
2.53651e-07
-1.14519e-06
2.34508e-07
-1.13392e-06
-1.70456e-08
-1.19413e-06
1.80695e-07
-1.24046e-06
1.89538e-07
-1.01336e-06
-1.12607e-07
-7.58411e-07
-3.20527e-07
-6.24044e-07
1.4274e-08
-4.19386e-07
6.14956e-08
-1.58769e-07
-4.91691e-07
-5.81134e-08
-4.35852e-08
-1.80454e-07
4.34362e-07
-1.47668e-07
-1.58308e-07
-1.55716e-07
-2.08101e-08
-2.07205e-07
2.03878e-07
-2.25999e-07
7.01538e-08
-1.87184e-07
6.89594e-08
3.9403e-08
-2.55364e-07
2.94712e-07
-4.22245e-07
3.08682e-07
5.70876e-08
3.16757e-07
1.49758e-07
5.44956e-07
-2.32241e-07
7.62272e-07
-3.34133e-07
7.70591e-07
-1.57613e-07
5.53929e-07
2.81548e-07
3.50017e-07
4.60411e-07
4.37858e-07
-9.89284e-08
6.36737e-07
-4.52175e-07
7.62132e-07
-1.93524e-07
8.96831e-07
-6.6369e-08
9.84592e-07
-1.37039e-07
9.84985e-07
1.09262e-07
1.07897e-06
1.37178e-07
1.36554e-06
-4.31871e-07
1.52214e-06
-5.2756e-07
1.30592e-06
1.77984e-07
9.92314e-07
6.32263e-07
7.43503e-07
4.49895e-07
5.58321e-07
2.50189e-07
4.87422e-07
9.94792e-08
6.0115e-07
-2.2693e-07
8.76691e-07
-4.575e-07
1.03131e-06
-1.93519e-07
1.10943e-06
7.61544e-08
1.01789e-06
2.1531e-07
8.15346e-07
4.03459e-07
6.13086e-07
4.98422e-07
5.24897e-07
2.28584e-07
6.38251e-07
-3.05051e-07
7.21475e-07
-2.82095e-07
6.73122e-07
-9.18456e-10
6.82022e-07
-9.36518e-08
8.13125e-07
-4.0875e-07
9.55313e-07
-3.93999e-07
9.35493e-07
4.2992e-08
8.85688e-07
2.35905e-07
1.01072e-06
4.36774e-09
1.15823e-06
-1.23232e-07
1.25269e-06
-1.4382e-08
1.19765e-06
1.91056e-07
1.08912e-06
1.71102e-07
9.67215e-07
7.73773e-08
7.73057e-07
2.50901e-07
6.54085e-07
2.87836e-07
6.68429e-07
9.75051e-08
8.51017e-07
-2.74256e-07
1.08034e-06
-4.00251e-07
1.16061e-06
-1.29782e-07
1.28046e-06
-2.86056e-09
1.4293e-06
-5.89917e-08
1.61841e-06
-2.54791e-07
1.69432e-06
-2.4841e-07
1.5494e-06
9.98107e-08
1.33882e-06
2.87905e-07
1.11428e-06
2.57886e-07
9.95974e-07
7.05205e-08
9.61454e-07
-6.57076e-10
8.64805e-07
1.77895e-07
8.32939e-07
1.48225e-07
8.53073e-07
9.13235e-09
1.00618e-06
-2.27223e-07
1.1061e-06
-2.12772e-07
1.03154e-06
5.17733e-08
9.11312e-07
2.23864e-07
7.68884e-07
2.7759e-07
8.15733e-07
-1.94475e-08
9.19012e-07
-1.63904e-07
9.91433e-07
-1.36959e-07
9.62466e-07
5.07351e-08
7.75936e-07
2.36509e-07
6.57295e-07
1.51595e-07
5.93162e-07
1.22425e-08
5.83946e-07
-1.10692e-07
6.02189e-07
-9.26602e-08
6.03789e-07
6.85722e-08
6.80803e-07
8.85667e-08
8.39169e-07
-3.24397e-08
1.08244e-06
-2.73134e-07
1.44065e-06
-4.69783e-07
1.6442e-06
-3.22235e-07
1.77096e-06
-1.47583e-07
1.71882e-06
9.54106e-08
1.66321e-06
1.35075e-07
1.75409e-06
-5.11122e-08
1.88309e-06
-1.85614e-07
2.16598e-06
-4.05717e-07
2.40445e-06
-3.41683e-07
2.59848e-06
-1.85844e-07
2.76632e-06
-6.56974e-08
2.83043e-06
7.13635e-08
3.00428e-06
-9.08872e-08
3.18121e-06
-1.79196e-07
3.36267e-06
-2.82107e-07
3.51269e-06
-2.73583e-07
3.46646e-06
-2.41075e-08
3.34e-06
1.79419e-07
3.04463e-06
4.1763e-07
2.64253e-06
5.1292e-07
2.28492e-06
3.95047e-07
1.87747e-06
3.90475e-07
1.63222e-06
1.79957e-07
1.36187e-06
1.68429e-07
1.17309e-06
1.07257e-07
1.02956e-06
1.35462e-07
8.64191e-07
2.54517e-07
7.4666e-07
2.57806e-07
5.17738e-07
3.50329e-07
3.27861e-07
2.58988e-07
8.92002e-08
2.47505e-07
-1.23988e-07
1.52725e-07
-3.10576e-07
6.62569e-08
-4.63686e-07
2.00445e-08
-5.19535e-07
-3.11267e-08
-5.34924e-07
2.46509e-08
-5.2314e-07
7.55899e-08
-4.78505e-07
8.21583e-08
-4.61961e-07
1.3506e-07
-3.96405e-07
8.49827e-08
-3.46461e-07
5.94903e-08
-2.85377e-07
-2.88234e-08
-2.10829e-07
-1.19836e-07
-1.36734e-07
-1.76127e-07
-7.72208e-08
-1.96854e-07
-6.88073e-08
-1.68969e-07
-1.24827e-07
-1.15798e-07
-2.11732e-07
-5.83934e-08
-3.16117e-07
2.46604e-08
-3.89956e-07
5.86737e-08
-4.74605e-07
9.91568e-08
-5.56499e-07
9.89266e-08
-6.39932e-07
1.11178e-07
-7.30547e-07
1.54722e-07
-8.27366e-07
1.9287e-07
-9.47717e-07
2.20459e-07
-1.07514e-06
2.04555e-07
-1.18546e-06
1.65097e-07
-1.2532e-06
1.17259e-07
-1.27153e-06
6.70075e-08
-1.243e-06
4.93447e-09
-1.16633e-06
-7.04227e-08
-1.03233e-06
-1.4541e-07
-8.39541e-07
-2.0374e-07
-6.01827e-07
-2.38056e-07
-3.46211e-07
-2.5486e-07
-1.05057e-07
-2.49341e-07
9.9956e-08
-2.25473e-07
2.37765e-07
-1.62124e-07
2.71699e-07
-5.40394e-08
1.92385e-07
6.21692e-08
-3.56394e-09
1.77872e-07
-2.63388e-07
2.46486e-07
-5.63216e-07
2.91883e-07
-8.62064e-07
2.98063e-07
-1.12196e-06
2.63289e-07
-1.31847e-06
2.01916e-07
-1.42019e-06
1.10088e-07
-1.40737e-06
-7.7212e-10
-1.26694e-06
-1.28336e-07
-1.00415e-06
-2.54089e-07
-6.46627e-07
-3.56166e-07
-2.40123e-07
-4.11563e-07
1.60968e-07
-4.13291e-07
5.03839e-07
-3.59094e-07
7.51006e-07
-2.67792e-07
8.83425e-07
-1.53726e-07
8.9696e-07
-3.1406e-08
7.97178e-07
8.61e-08
5.89708e-07
1.93939e-07
2.91944e-07
2.83842e-07
-6.48019e-08
3.4669e-07
-4.45715e-07
3.83456e-07
-7.82814e-07
3.46631e-07
-1.03709e-06
2.6311e-07
-1.17386e-06
1.39607e-07
-1.19676e-06
2.06571e-08
-1.12218e-06
-7.68309e-08
-9.82875e-07
-1.43558e-07
-8.05057e-07
-1.92418e-07
-6.12403e-07
-2.16115e-07
-4.20706e-07
-2.13791e-07
-2.6407e-07
-1.64341e-07
-1.75551e-07
-8.95485e-08
-1.77626e-07
-8.09296e-09
-2.61511e-07
6.01356e-08
-3.93053e-07
1.11588e-07
-5.31249e-07
1.39975e-07
-6.51744e-07
1.33926e-07
-7.38743e-07
9.24928e-08
-7.91029e-07
4.21962e-08
-7.96172e-07
3.82712e-10
-7.64438e-07
-2.09513e-09
-6.98906e-07
-8.21706e-09
-6.26999e-07
-2.04301e-08
-5.83631e-07
-2.27185e-08
-5.50301e-07
-2.50477e-08
-6.01078e-07
7.35238e-08
-6.61254e-07
1.07176e-07
-7.67908e-07
1.45788e-07
-8.6002e-07
1.05508e-07
-8.74578e-07
1.25146e-08
-8.80643e-07
-8.56689e-09
-7.93615e-07
-1.0599e-07
-7.08421e-07
-1.29402e-07
-5.92721e-07
-1.69605e-07
-4.48552e-07
-1.8666e-07
-3.40271e-07
-1.20608e-07
-2.63018e-07
-7.39362e-08
-2.82672e-07
3.1497e-08
-4.13118e-07
1.63758e-07
-6.14003e-07
2.64197e-07
-9.36466e-07
3.88895e-07
-1.23324e-06
3.32245e-07
-1.54671e-06
3.0069e-07
-1.77193e-06
1.96111e-07
-1.85379e-06
5.49105e-08
-1.88199e-06
6.13229e-09
-1.74959e-06
-1.56188e-07
-1.63924e-06
-1.10777e-07
-1.55358e-06
-5.36191e-08
-1.56697e-06
5.7951e-08
-1.7215e-06
1.6947e-07
-1.87697e-06
1.4593e-07
-2.12115e-06
2.25939e-07
-2.27747e-06
1.45853e-07
-2.47794e-06
1.74947e-07
-2.64863e-06
1.38629e-07
-2.72599e-06
8.20452e-08
-2.75631e-06
8.41496e-08
-2.6152e-06
-7.62716e-08
-2.41617e-06
-1.79483e-07
-2.17554e-06
-2.74203e-07
-1.89514e-06
-3.44647e-07
-1.71452e-06
-2.41848e-07
-1.51569e-06
-2.41643e-07
-1.40492e-06
-1.06477e-07
-1.32178e-06
-3.93582e-08
-1.20026e-06
-7.84126e-08
-1.09303e-06
-1.04108e-07
-9.05335e-07
-2.17494e-07
-7.63366e-07
-1.71805e-07
-6.60163e-07
-1.11631e-07
-5.31167e-07
-1.21232e-07
-3.57009e-07
-1.42616e-07
-4.14932e-08
-2.66028e-07
3.78027e-07
-3.96099e-07
7.93838e-07
-4.62149e-07
1.16869e-06
-4.33976e-07
1.37002e-06
-2.10603e-07
1.50896e-06
-8.13034e-08
1.51384e-06
4.08391e-08
1.45545e-06
6.93848e-08
1.41596e-06
2.67684e-08
1.28689e-06
1.23971e-07
1.21128e-06
6.48942e-08
1.10601e-06
1.03955e-07
1.02887e-06
6.89173e-08
1.03919e-06
-3.50898e-08
1.01076e-06
-1.33419e-08
1.04159e-06
-4.47894e-08
9.91443e-07
7.34291e-08
9.65383e-07
4.62493e-08
9.62535e-07
-1.8093e-09
9.27617e-07
-4.37299e-09
8.96047e-07
-2.45089e-08
7.06154e-07
1.30619e-07
5.24186e-07
1.86472e-07
3.10394e-07
2.34357e-07
1.86692e-07
1.25625e-07
1.24561e-07
3.78441e-08
1.22399e-07
3.88365e-08
1.86343e-07
1.21244e-08
3.72679e-07
-1.73507e-07
6.7483e-07
-3.73803e-07
1.04676e-06
-4.1314e-07
1.27073e-06
-1.78375e-07
1.4293e-06
-7.11566e-08
1.43824e-06
5.68764e-09
1.35508e-06
1.42594e-08
1.17132e-06
1.05302e-07
8.24197e-07
3.44374e-07
5.26823e-07
3.68575e-07
2.84093e-07
2.76738e-07
1.34353e-07
1.57714e-07
6.14896e-09
1.80206e-07
-6.01192e-08
1.49238e-07
-5.62511e-08
2.73786e-08
-2.05853e-08
-4.80788e-08
-3.67942e-08
6.2182e-08
-7.24477e-08
1.87421e-07
-6.53945e-09
9.92483e-08
1.20825e-07
-1.15068e-07
2.64656e-07
-2.17082e-07
3.28595e-07
-8.76703e-08
3.61953e-07
-3.69199e-08
3.57399e-07
-1.0803e-07
3.04569e-07
-9.97202e-08
1.5162e-07
9.51136e-08
-2.86471e-08
1.84561e-07
-1.83184e-07
1.30473e-07
-3.06225e-07
1.74125e-07
-3.66503e-07
1.6459e-07
-4.16214e-07
1.03931e-07
-5.58377e-07
1.13062e-07
-8.41572e-07
2.57775e-07
-1.20488e-06
2.92521e-07
-1.44685e-06
1.51693e-07
-1.70635e-06
3.46948e-07
-1.88323e-06
4.3115e-07
-1.93009e-06
1.20379e-07
-1.73652e-06
-3.11983e-07
-1.48174e-06
-2.56911e-07
-1.2795e-06
-8.46221e-08
-1.00144e-06
-2.52678e-07
-7.77366e-07
-1.85243e-07
-6.87595e-07
5.12246e-08
-6.386e-07
-2.22343e-08
-6.88427e-07
-5.95085e-08
-8.59128e-07
1.98172e-07
-1.14381e-06
4.22049e-07
-1.33526e-06
2.21882e-07
-1.33928e-06
4.41844e-08
-1.27876e-06
-5.49695e-08
-1.23723e-06
-3.86391e-08
-1.27127e-06
1.32425e-07
-1.17317e-06
-5.19528e-08
-9.19702e-07
-2.89438e-07
-7.84463e-07
-8.06247e-08
-7.35415e-07
-1.17026e-07
-7.66296e-07
-1.86754e-08
-8.30371e-07
1.82679e-07
-7.14507e-07
-2.03542e-07
-7.70835e-07
-1.06925e-08
-6.3596e-07
4.51337e-08
-5.06857e-07
-2.19061e-07
-3.17687e-07
-3.10547e-07
-3.23137e-07
1.45675e-07
-2.72952e-07
-1.33451e-07
-3.09812e-07
-9.6466e-09
-4.29143e-07
1.62712e-07
-5.61909e-07
1.39597e-07
-6.81118e-07
1.61242e-07
-7.08473e-07
-5.43911e-08
-7.88382e-07
2.37638e-07
-4.96555e-07
-1.73766e-07
-4.77068e-07
-4.42704e-08
-2.50336e-08
-2.69249e-07
-4.7388e-07
5.04798e-07
3.68727e-07
-7.46628e-07
-1.35507e-06
1.93332e-06
3.42935e-07
-1.66864e-06
-4.34508e-06
4.74015e-06
-6.78509e-08
-4.03942e-06
-1.24134e-05
1.23869e-05
-6.82789e-07
-1.14696e-05
-3.64455e-05
3.57871e-05
-8.42302e-07
-3.54438e-05
-0.000116149
0.000115153
1.18951e-05
-0.000128186
-0.000466896
0.000478867
-5.92804e-06
-0.000461869
-2.49276e-06
-0.000459407
0.00045816
-0.000467212
-0.000466499
-0.000130572
0.000141565
-0.000109196
-0.000150718
-5.25604e-05
5.81552e-05
-3.33169e-05
-5.53439e-05
-2.19547e-05
2.41351e-05
-1.15171e-05
-2.24643e-05
-9.61689e-06
1.02502e-05
-4.52948e-06
-9.56201e-06
-4.43073e-06
4.24603e-06
-2.03699e-06
-4.08438e-06
-2.20486e-06
1.66318e-06
-1.19982e-06
-1.85437e-06
-1.28896e-06
6.14969e-07
-9.39863e-07
-9.20543e-07
-9.36474e-07
2.06082e-07
-7.74571e-07
-2.85775e-07
-8.21237e-07
-6.88218e-08
-6.48891e-07
7.54512e-08
-5.98668e-07
1.78681e-07
-5.80031e-07
-4.30904e-08
-4.86804e-07
7.91214e-08
-4.76928e-07
1.75274e-07
-5.03634e-07
-8.40863e-08
-5.88721e-07
-2.29339e-07
-5.66809e-07
-2.7484e-09
-6.72622e-07
1.68656e-07
-7.13388e-07
-4.52291e-07
-7.92325e-07
3.41764e-08
-6.233e-07
2.65768e-07
-6.89511e-07
-9.03199e-08
-6.42733e-07
-6.58455e-08
-4.35866e-07
-2.25798e-09
-2.94583e-07
-7.16467e-08
-2.08946e-07
-1.80662e-08
-2.18197e-07
-2.47634e-07
-1.72773e-07
-4.68508e-07
-7.98003e-08
-3.5397e-08
-6.34854e-08
1.35438e-07
-1.6469e-07
-1.2803e-07
-2.52838e-07
-2.42968e-07
-3.237e-07
-8.48325e-08
-2.60004e-07
2.17943e-07
-1.88269e-07
3.8697e-07
-2.93522e-07
3.59192e-09
-4.5134e-07
-2.96967e-07
-4.45375e-07
-2.0093e-07
-3.9036e-07
-1.21072e-07
-4.32217e-07
-9.31806e-08
-4.4993e-07
1.30029e-07
-4.55695e-07
1.46137e-07
-5.58508e-07
-3.26556e-07
-6.07306e-07
-4.77465e-07
-5.3006e-07
1.00708e-07
-3.38162e-07
4.39231e-07
-1.93045e-07
3.02989e-07
-9.04816e-08
1.45726e-07
-7.71175e-08
8.46061e-08
-1.43057e-07
-1.61768e-07
-1.82081e-07
-4.18382e-07
-1.32417e-07
-2.4228e-07
-1.12648e-07
5.78968e-08
-1.2415e-07
2.28655e-07
-7.83671e-08
3.59552e-07
1.27119e-08
4.08977e-07
2.54248e-08
2.17041e-07
-1.09818e-07
-1.69228e-07
-2.06521e-07
-1.85423e-07
-2.02307e-07
-5.71012e-09
-1.85983e-07
-1.10974e-07
-2.25382e-07
-3.70608e-07
-2.42268e-07
-3.78465e-07
-1.7788e-07
-2.26941e-08
-9.8211e-08
1.55102e-07
-5.48079e-08
-3.99264e-08
2.42729e-08
-2.02911e-07
1.03762e-07
-9.41534e-08
1.54003e-07
1.40842e-07
1.26597e-07
1.98809e-07
1.05487e-07
9.90055e-08
1.85085e-07
1.71973e-07
2.84437e-07
1.89243e-07
2.72696e-07
1.10043e-07
1.39899e-07
-1.40652e-07
-8.14273e-09
-2.5142e-07
-4.74367e-08
-8.97322e-08
-5.64024e-08
6.8085e-09
-6.04315e-08
-5.43258e-08
-6.58484e-08
-2.48809e-07
-6.19371e-08
-2.51826e-07
9.28429e-09
2.90226e-08
5.12372e-08
2.46336e-07
8.9453e-08
2.20019e-07
1.13128e-07
4.71741e-08
1.93106e-07
-8.0319e-08
3.01498e-07
6.98103e-08
3.76433e-07
7.35875e-08
3.22429e-07
6.34212e-08
2.03214e-07
-1.07732e-07
1.01214e-07
-1.10503e-07
7.817e-08
7.50887e-08
1.11608e-07
1.90704e-07
1.47665e-07
2.41816e-07
1.47837e-07
-1.93395e-08
1.51156e-07
-1.66959e-07
1.9199e-07
-1.77557e-07
2.7216e-07
-2.92287e-08
3.12828e-07
1.96019e-07
3.02041e-07
1.62543e-07
2.35997e-07
7.84453e-08
1.79889e-07
-5.44108e-08
1.69048e-07
-8.16279e-08
1.93464e-07
4.43747e-08
2.21685e-07
6.05814e-08
2.06176e-07
-1.66826e-08
1.47494e-07
-2.14197e-07
7.02304e-08
-3.92262e-07
5.77064e-08
-3.09455e-07
9.64184e-08
-1.86036e-07
1.80268e-07
1.18318e-08
2.37493e-07
7.81297e-08
2.31269e-07
-4.45958e-08
1.82828e-07
-1.36868e-07
1.01499e-07
-3.24078e-07
3.37014e-08
-2.73577e-07
7.26113e-10
-1.52571e-07
-4.97015e-08
-1.49928e-08
-7.0162e-08
9.20835e-08
-1.65576e-07
4.7703e-09
-2.57627e-07
-8.69153e-08
-3.53098e-07
-1.86408e-07
-4.08696e-07
-2.17752e-07
-3.85393e-07
-4.71654e-08
-3.01945e-07
9.62322e-08
-1.73906e-07
2.89861e-07
-4.53209e-08
3.84607e-07
2.59984e-09
3.47395e-07
5.10717e-08
3.42257e-07
3.23413e-08
1.98921e-07
3.03082e-08
1.70675e-07
1.48002e-08
1.22953e-07
1.57402e-09
1.48859e-07
1.05381e-08
2.4571e-07
1.06707e-08
2.57825e-07
3.97271e-08
3.21429e-07
5.12526e-08
2.47626e-07
8.05681e-08
2.18363e-07
9.99069e-08
1.33569e-07
1.17595e-07
4.87607e-08
1.18216e-07
1.96169e-08
1.09919e-07
-2.26403e-08
9.93121e-08
3.54429e-08
9.36639e-08
8.14088e-08
7.62271e-08
9.97602e-08
7.25251e-08
1.38923e-07
6.70919e-08
9.05692e-08
7.04649e-08
5.62773e-08
7.49346e-08
-3.31221e-08
6.43428e-08
-1.09065e-07
4.75045e-08
-1.59092e-07
1.67593e-08
-1.65894e-07
-1.56151e-08
-1.36361e-07
-4.63099e-08
-8.486e-08
-7.20359e-08
-3.24173e-08
-8.28186e-08
3.57002e-08
-8.63767e-08
6.24889e-08
-7.60108e-08
8.90444e-08
-5.61767e-08
7.93419e-08
-2.58771e-08
8.11263e-08
2.82684e-08
1.00817e-07
9.57557e-08
1.25629e-07
1.6329e-07
1.53184e-07
2.082e-07
1.59917e-07
2.22233e-07
1.51355e-07
2.11922e-07
1.27888e-07
1.90883e-07
8.83927e-08
1.69679e-07
2.652e-08
1.50923e-07
-5.12549e-08
1.34183e-07
-1.28226e-07
1.20984e-07
-1.90066e-07
1.11658e-07
-2.28228e-07
1.00028e-07
-2.4271e-07
7.64802e-08
-2.25254e-07
3.73639e-08
-1.85805e-07
-1.01248e-08
-1.14075e-07
-3.76511e-08
-2.59488e-08
-3.45138e-08
5.95991e-08
9.98593e-09
1.33937e-07
8.75809e-08
1.69458e-07
1.80177e-07
1.99848e-07
2.69319e-07
2.09481e-07
3.43015e-07
1.9015e-07
3.91274e-07
1.54212e-07
4.08241e-07
9.36749e-08
3.92958e-07
1.50591e-08
3.52305e-07
-8.71384e-08
3.03204e-07
-2.04443e-07
2.61311e-07
-3.13729e-07
2.33631e-07
-3.8334e-07
2.10249e-07
-3.89362e-07
1.83978e-07
-3.32272e-07
1.49644e-07
-2.32909e-07
1.14965e-07
-1.185e-07
9.29877e-08
-8.8793e-09
9.15862e-08
8.80494e-08
1.15225e-07
1.70842e-07
1.64577e-07
2.35025e-07
2.40178e-07
2.71617e-07
3.39935e-07
2.84215e-07
4.39498e-07
2.47569e-07
5.10102e-07
1.92987e-07
5.36025e-07
1.14144e-07
5.2112e-07
3.5999e-08
4.88015e-07
-4.33165e-08
4.52821e-07
-1.07987e-07
4.22729e-07
-1.61979e-07
3.95036e-07
-1.88109e-07
3.77109e-07
-1.9558e-07
3.71879e-07
-1.58854e-07
3.77524e-07
-9.49615e-08
3.81489e-07
-1.18426e-08
3.75555e-07
6.62669e-08
3.64889e-07
1.2244e-07
3.66825e-07
1.38221e-07
3.86398e-07
1.14537e-07
4.17725e-07
6.13551e-08
4.44558e-07
1.55589e-08
4.69646e-07
-2.4498e-08
4.91445e-07
-2.36782e-08
5.05679e-07
-2.22266e-08
5.02619e-07
-1.7142e-08
4.66276e-07
1.38557e-08
4.49066e-07
-7.60785e-09
4.25032e-07
9.77866e-08
4.51939e-07
8.04926e-08
4.68337e-07
1.29609e-07
4.70444e-07
1.03613e-07
4.76498e-07
6.66943e-09
4.53246e-07
1.48925e-08
4.61172e-07
-1.13709e-07
4.39426e-07
-1.07445e-07
4.14588e-07
-1.44554e-07
3.9695e-07
-1.68807e-07
3.61146e-07
-8.4589e-08
3.45607e-07
-5.81836e-08
3.16015e-07
6.12991e-08
3.02522e-07
1.77454e-07
3.40243e-07
2.26669e-07
3.88001e-07
3.41322e-07
4.63765e-07
2.56655e-07
5.10415e-07
2.54207e-07
5.3819e-07
1.68501e-07
5.57082e-07
3.61813e-08
5.30914e-07
3.2466e-08
4.93105e-07
-1.18209e-07
4.33537e-07
-5.10312e-08
4.04108e-07
-2.40058e-08
3.87255e-07
7.49907e-08
3.63083e-07
1.93826e-07
3.47899e-07
1.61293e-07
3.55717e-07
2.1829e-07
4.06075e-07
9.56505e-08
4.82501e-07
9.86647e-08
5.49203e-07
7.20581e-08
6.02124e-07
2.92482e-08
6.24202e-07
6.21935e-08
6.12945e-07
-6.48899e-08
5.43678e-07
-1.10084e-07
4.4991e-07
-1.80293e-07
3.62192e-07
-2.5678e-07
3.05416e-07
-1.84917e-07
2.60667e-07
-1.96734e-07
2.28482e-07
-7.41326e-08
2.10467e-07
-2.11852e-08
1.85972e-07
-5.37603e-08
1.70132e-07
-8.81088e-08
1.54563e-07
-2.0176e-07
1.77511e-07
-1.94579e-07
2.05817e-07
-1.39753e-07
2.11698e-07
-1.26917e-07
1.71271e-07
-1.01983e-07
1.2108e-07
-2.15625e-07
3.35707e-08
-3.08369e-07
-6.54801e-08
-3.62872e-07
-1.64822e-07
-3.344e-07
-2.1056e-07
-1.64618e-07
-2.10365e-07
-8.12354e-08
-1.96575e-07
2.73306e-08
-1.7941e-07
5.25193e-08
-1.53587e-07
1.25885e-09
-9.12675e-08
6.19699e-08
-6.34236e-08
3.73652e-08
-6.02637e-08
1.01098e-07
-8.58689e-08
9.4806e-08
-1.24664e-07
3.96743e-09
-1.40997e-07
3.23179e-09
-1.36934e-07
-4.86308e-08
-1.1241e-07
4.91068e-08
-1.14548e-07
4.85659e-08
-1.45759e-07
2.95513e-08
-1.81755e-07
3.17409e-08
-1.99417e-07
-6.76415e-09
-2.13871e-07
1.45112e-07
-1.84541e-07
1.57133e-07
-1.36131e-07
1.8588e-07
-6.98143e-08
5.9175e-08
-2.64824e-08
-5.69832e-09
2.60074e-08
-1.39593e-08
3.09322e-08
6.78241e-09
-4.20542e-08
-1.01057e-07
-1.8484e-07
-2.3167e-07
-2.67986e-07
-3.30754e-07
-2.76147e-07
-1.71061e-07
-2.81184e-07
-6.70264e-08
-3.39197e-07
6.27728e-08
-4.24567e-07
9.87306e-08
-4.52835e-07
1.32756e-07
-4.31685e-07
3.22557e-07
-3.48028e-07
2.84471e-07
-2.81334e-07
2.09881e-07
-2.22678e-07
9.92256e-08
-1.61726e-07
1.19784e-07
-1.35076e-07
1.23477e-07
-1.31413e-07
2.4926e-08
-1.12473e-07
-6.55478e-08
-3.68474e-08
-1.18028e-08
2.14345e-08
1.30842e-07
1.95166e-08
1.02814e-07
-6.10224e-08
-3.30534e-08
-1.54317e-07
-1.22589e-07
-2.1842e-07
-2.27263e-08
-2.56163e-07
1.27009e-09
-3.36054e-07
-2.80711e-08
-3.74486e-07
-6.1535e-08
-3.44187e-07
6.43589e-08
-3.12571e-07
1.52431e-07
-3.16303e-07
1.33812e-07
-3.5168e-07
2.09413e-07
-3.35039e-07
1.48325e-07
-3.32333e-07
1.02153e-07
-2.68712e-07
5.08929e-08
-1.80916e-07
1.71789e-07
-1.43832e-07
2.57315e-07
-1.05261e-07
1.14709e-07
4.71862e-08
1.95461e-07
1.47553e-07
3.30912e-07
5.88321e-08
2.08425e-07
-1.08112e-07
-1.46217e-07
-1.58312e-07
-2.07866e-07
-1.75428e-07
-6.80529e-08
-2.59394e-07
-1.68236e-07
-2.83137e-07
-1.59944e-07
-2.66437e-07
3.6801e-08
-3.19643e-07
3.33019e-08
-4.15438e-07
3.79398e-08
-3.66366e-07
1.49588e-07
-3.1254e-07
3.67507e-07
-3.72975e-07
2.80826e-07
-4.51723e-07
1.21377e-07
-4.69328e-07
-3.82895e-08
-4.04336e-07
-1.03561e-07
-3.52949e-07
8.19723e-08
-3.29268e-07
-7.44606e-08
-2.5445e-07
-3.63611e-07
-1.44989e-07
-1.9047e-07
-1.16463e-07
-1.46955e-07
-4.42598e-08
-9.26437e-08
2.79717e-08
1.09156e-07
-5.77965e-08
-1.18153e-07
3.9649e-08
-1.08727e-07
-1.30683e-08
9.57651e-08
-1.60689e-07
-7.6961e-08
-1.84435e-07
-2.9386e-07
-1.43641e-07
9.77338e-08
-2.14072e-07
-6.47536e-08
-1.56165e-07
-6.66606e-08
-5.43284e-08
6.67953e-08
2.96773e-08
5.77094e-08
1.12346e-07
8.27958e-08
2.0531e-07
-1.49999e-07
2.78486e-07
1.64246e-07
4.3798e-07
-3.39994e-07
3.2696e-07
6.46945e-08
7.36914e-07
-6.80861e-07
5.47073e-07
6.96215e-07
1.54258e-06
-1.7386e-06
1.38436e-06
2.08855e-06
3.63324e-06
-3.91127e-06
3.68485e-06
4.6836e-06
8.7391e-06
-9.08916e-06
1.05021e-05
1.06069e-05
2.08352e-05
-2.17895e-05
3.19487e-05
2.4681e-05
5.08924e-05
-5.43855e-05
0.000106838
5.92008e-05
0.000127857
-0.000149194
0.000463817
0.000142902
0.000464932
-0.000462987
0.000463344
0.000477075
-1.85167e-05
0.000141255
-0.000130687
0.000141729
0.000141095
8.11335e-05
-9.01378e-05
5.22353e-05
8.70677e-05
4.12379e-05
-4.43428e-05
2.16723e-05
4.37108e-05
1.95323e-05
-2.03158e-05
9.35711e-06
2.04302e-05
8.78636e-06
-8.9923e-06
3.93055e-06
9.10297e-06
3.67873e-06
-3.83359e-06
1.4933e-06
3.84666e-06
1.25449e-06
-1.61785e-06
3.34403e-07
1.53298e-06
1.0717e-07
-6.93572e-07
-2.50666e-07
5.64288e-07
-3.04834e-07
-2.29845e-07
-5.19308e-07
1.48142e-07
-4.29918e-07
-1.00081e-08
-3.5693e-07
1.06992e-07
-3.99978e-07
-1.58036e-09
-3.48087e-07
2.38691e-08
-2.49165e-07
7.57937e-08
-2.68103e-07
-6.32461e-08
-4.54371e-07
-4.03405e-08
-4.09982e-07
-4.64389e-08
-3.19963e-07
7.80199e-08
-5.14779e-07
-2.58037e-07
-6.17748e-07
1.37856e-07
-3.32663e-07
-1.7936e-08
-3.703e-07
-5.14629e-08
-4.04436e-07
-3.11127e-08
-3.38558e-07
-6.77904e-08
-3.14881e-07
-9.50051e-08
-2.48747e-07
-8.39179e-08
-3.36825e-07
-1.59422e-07
-5.67155e-07
-2.37935e-07
-5.30246e-07
-7.13662e-08
-3.95658e-07
2.96328e-09
-4.06327e-07
-1.1421e-07
-5.49638e-07
-9.63269e-08
-6.43884e-07
1.18295e-08
-4.83542e-07
5.83731e-08
-1.89133e-07
9.17014e-08
-1.44731e-07
-4.25496e-08
-3.53288e-07
-8.99194e-08
-4.63596e-07
-9.09401e-08
-4.62451e-07
-1.20916e-07
-5.11118e-07
-4.18121e-08
-3.82107e-07
4.43658e-09
-2.30271e-07
-2.37352e-09
-4.06616e-07
-1.47625e-07
-7.2991e-07
-1.5265e-07
-7.34561e-07
1.05819e-07
-4.24135e-07
1.28463e-07
-2.11647e-07
8.97575e-08
-1.01714e-07
3.50694e-08
-5.41315e-08
3.66628e-08
-1.71402e-07
-4.42845e-08
-4.15124e-07
-1.73805e-07
-5.89056e-07
-6.68955e-08
-5.6942e-07
4.0177e-08
-4.95196e-07
1.56615e-07
-3.12507e-07
1.79095e-07
-4.59125e-08
1.44435e-07
1.07383e-07
6.54359e-08
-2.9099e-08
-3.1528e-08
-1.78493e-07
-3.53276e-08
-1.62715e-07
-2.12767e-08
-1.41857e-07
-1.32023e-07
-3.19798e-07
-1.93126e-07
-5.2207e-07
-1.76779e-07
-5.21309e-07
-2.40318e-08
-3.76161e-07
9.50031e-09
-3.39531e-07
-7.6794e-08
-4.39121e-07
-1.03283e-07
-4.78262e-07
-5.46655e-08
-4.04789e-07
6.80212e-08
-3.22363e-07
1.17312e-07
-2.90451e-07
6.82481e-08
-2.05625e-07
8.84631e-08
-6.08197e-08
4.58582e-08
2.25171e-08
2.81887e-08
-9.12235e-08
-2.54106e-08
-2.72287e-07
-6.88639e-08
-3.44731e-07
-1.58337e-08
-2.68741e-07
-6.77812e-08
-2.25067e-07
-9.66625e-08
-3.29502e-07
-1.43106e-07
-4.72011e-07
-1.08114e-07
-4.8283e-07
4.09798e-08
-3.3604e-07
1.00633e-07
-2.09316e-07
9.43436e-08
-2.043e-07
4.31815e-08
-2.39844e-07
-4.37679e-08
-2.11801e-07
4.27635e-08
-1.30931e-07
-6.29788e-09
-1.15266e-07
4.87277e-08
-2.23639e-07
1.59877e-09
-3.52203e-07
1.90138e-08
-3.73003e-07
9.68417e-08
-2.43146e-07
6.18049e-08
-8.94014e-08
8.90336e-08
-6.2869e-08
-4.49169e-08
-1.6547e-07
-6.34224e-08
-2.8881e-07
-5.33055e-08
-3.01831e-07
-1.53226e-08
-2.07057e-07
1.02105e-07
-9.59919e-08
5.23259e-08
-6.53076e-08
4.86097e-08
-1.18e-07
-8.61399e-10
-1.71098e-07
-2.76518e-08
-1.38244e-07
1.24146e-08
-4.25368e-08
-3.42166e-08
2.05489e-08
-7.88484e-08
-3.66983e-08
-1.56018e-07
-1.97564e-07
-2.30462e-07
-3.31858e-07
-1.74222e-07
-3.65148e-07
-1.51801e-07
-2.86542e-07
-6.58231e-08
-1.54391e-07
-5.30607e-08
-9.54492e-08
-1.02567e-07
-1.21121e-07
-1.10216e-07
-2.6465e-07
-1.79562e-07
-3.97235e-07
-1.4001e-07
-4.55119e-07
-9.3718e-08
-4.18535e-07
-5.06216e-08
-3.2738e-07
1.86698e-09
-2.80921e-07
-4.07666e-08
-3.10501e-07
-5.64223e-08
-4.25327e-07
-7.06707e-08
-5.6782e-07
-7.43413e-08
-6.44828e-07
3.07712e-08
-6.26286e-07
7.86299e-08
-5.07892e-07
1.72414e-07
-3.43566e-07
2.21228e-07
-2.08844e-07
2.13614e-07
-1.06028e-07
2.40367e-07
-9.42988e-08
1.881e-07
-1.20677e-07
1.97943e-07
-1.8387e-07
1.87013e-07
-2.1745e-07
1.83288e-07
-2.05689e-07
2.34789e-07
-1.40702e-07
1.93676e-07
-5.12499e-08
2.32812e-07
2.95636e-08
1.67657e-07
8.90409e-08
1.59737e-07
1.10655e-07
1.12814e-07
8.48267e-08
7.54549e-08
3.77483e-08
6.75658e-08
-2.97192e-08
4.56907e-08
-6.28593e-08
6.94416e-08
-6.11316e-08
8.05342e-08
-3.75297e-08
7.70004e-08
2.57506e-08
7.64788e-08
7.85392e-08
3.86168e-08
1.2463e-07
1.10279e-08
1.24275e-07
-3.19205e-08
8.37404e-08
-6.76717e-08
1.37155e-08
-8.8192e-08
-6.09401e-08
-9.03418e-08
-1.18095e-07
-7.82947e-08
-1.62042e-07
-3.99976e-08
-1.76397e-07
-1.71323e-08
-1.79615e-07
3.98522e-08
-1.59969e-07
4.37792e-08
-1.45442e-07
7.54488e-08
-1.29503e-07
6.43385e-08
-1.18515e-07
7.10657e-08
-9.3249e-08
7.64775e-08
-5.4184e-08
8.7503e-08
-2.88796e-09
1.02836e-07
5.78017e-08
1.00185e-07
1.1222e-07
9.79183e-08
1.60281e-07
8.08337e-08
1.94595e-07
5.51171e-08
2.086e-07
1.35822e-08
1.96694e-07
-3.82518e-08
1.61268e-07
-9.16684e-08
1.07418e-07
-1.35053e-07
3.97486e-08
-1.59373e-07
-3.65676e-08
-1.65186e-07
-1.13891e-07
-1.46699e-07
-1.84153e-07
-1.14304e-07
-2.27345e-07
-6.96313e-08
-2.35671e-07
-1.63691e-08
-2.08658e-07
3.38437e-08
-1.54068e-07
8.06025e-08
-8.37699e-08
1.00409e-07
-3.18276e-09
1.2051e-07
9.22674e-08
1.15278e-07
1.78251e-07
1.05414e-07
2.49296e-07
8.44098e-08
2.96074e-07
4.81336e-08
3.13813e-07
-1.44374e-09
2.95796e-07
-6.78876e-08
2.33878e-07
-1.41294e-07
1.29209e-07
-2.07828e-07
-3.5903e-09
-2.49306e-07
-1.369e-07
-2.54814e-07
-2.4491e-07
-2.23024e-07
-3.14235e-07
-1.62348e-07
-3.44737e-07
-8.67598e-08
-3.42234e-07
-1.01446e-08
-3.08691e-07
5.57394e-08
-2.44465e-07
1.07844e-07
-1.53554e-07
1.45336e-07
-4.57173e-08
1.64991e-07
6.25289e-08
1.77165e-07
1.52913e-07
1.58364e-07
2.15929e-07
1.31137e-07
2.46968e-07
8.42466e-08
2.45805e-07
3.82805e-08
2.15857e-07
-1.22765e-08
1.63509e-07
-5.45804e-08
9.62689e-08
-9.37129e-08
2.5775e-08
-1.16617e-07
-4.47153e-08
-1.2412e-07
-1.00094e-07
-1.02536e-07
-1.30575e-07
-6.3559e-08
-1.28228e-07
-1.32954e-08
-9.25489e-08
3.14651e-08
-3.44641e-08
6.52236e-08
2.82419e-08
7.63805e-08
7.20406e-08
7.16013e-08
9.28772e-08
4.13863e-08
9.1614e-08
1.76974e-08
7.56816e-08
-7.67815e-09
5.98851e-08
-6.98751e-09
4.14727e-08
-2.91191e-09
2.344e-08
1.79905e-09
1.18345e-08
2.63724e-08
-4.30365e-09
9.4403e-09
2.78175e-08
6.65736e-08
6.4086e-08
4.51255e-08
1.33266e-07
6.13248e-08
1.81926e-07
5.58446e-08
2.02296e-07
-1.28123e-08
1.92159e-07
2.59169e-08
1.51685e-07
-7.23472e-08
9.65492e-08
-5.14185e-08
4.0516e-08
-8.76297e-08
-3.8542e-08
-8.88576e-08
-9.62772e-08
-2.59632e-08
-1.47202e-07
-6.36989e-09
-1.5466e-07
6.96432e-08
-1.08812e-07
1.32485e-07
-2.54269e-08
1.44155e-07
9.99636e-08
2.16793e-07
2.05177e-07
1.52294e-07
2.9586e-07
1.64371e-07
3.41259e-07
1.23944e-07
3.34257e-07
4.40268e-08
2.89054e-07
7.85131e-08
1.9684e-07
-2.51464e-08
1.11221e-07
3.54416e-08
6.06669e-08
2.74065e-08
6.90796e-08
6.74381e-08
1.39e-07
1.24764e-07
2.1532e-07
8.5826e-08
2.92653e-07
1.41801e-07
3.27133e-07
6.2002e-08
3.54085e-07
7.2534e-08
3.8132e-07
4.56344e-08
4.11809e-07
-4.35372e-10
4.48268e-07
2.65381e-08
4.49877e-07
-6.56915e-08
4.203e-07
-7.96947e-08
3.59757e-07
-1.18929e-07
2.72033e-07
-1.6823e-07
2.09406e-07
-1.21459e-07
1.61448e-07
-1.47943e-07
1.80909e-07
-9.27596e-08
2.34364e-07
-7.38046e-08
2.86889e-07
-1.05449e-07
2.98587e-07
-9.89668e-08
2.64388e-07
-1.66716e-07
2.25701e-07
-1.55039e-07
2.21375e-07
-1.34563e-07
2.57789e-07
-1.62456e-07
2.82903e-07
-1.26215e-07
2.73436e-07
-2.05265e-07
1.68998e-07
-2.03031e-07
3.273e-08
-2.25698e-07
-9.19714e-08
-2.08782e-07
-1.29794e-07
-1.25868e-07
-1.15637e-07
-9.44473e-08
-4.91727e-08
-3.81729e-08
2.54344e-08
-2.11118e-08
4.77093e-08
-2.00279e-08
8.4607e-08
2.60666e-08
9.48972e-08
2.80641e-08
1.4625e-07
5.0721e-08
1.85052e-07
5.6961e-08
1.82874e-07
7.08444e-09
1.51023e-07
3.60032e-08
1.10996e-07
-7.70442e-09
1.181e-07
4.28803e-08
1.41307e-07
2.62121e-08
1.54212e-07
1.74697e-08
1.34794e-07
5.1948e-08
1.02961e-07
2.58208e-08
1.34306e-07
1.14474e-07
2.15125e-07
7.69709e-08
3.05904e-07
9.56995e-08
3.31857e-07
3.37501e-08
3.43503e-07
-1.69026e-08
3.30449e-07
-5.62047e-10
3.71543e-07
-3.40809e-08
3.32368e-07
-6.17639e-08
2.24273e-07
-1.2357e-07
5.18687e-08
-1.58447e-07
-3.69464e-08
-8.24302e-08
-6.07835e-08
-4.34282e-08
-2.56405e-08
2.73775e-08
-9.14675e-09
8.20217e-08
9.87257e-09
1.13613e-07
1.24772e-07
2.07695e-07
2.39617e-07
1.69889e-07
3.0369e-07
1.46353e-07
2.97328e-07
1.06467e-07
3.2317e-07
9.51754e-08
3.34618e-07
1.13609e-07
3.22205e-07
3.92274e-08
2.51835e-07
6.95371e-09
2.40542e-07
1.77562e-09
3.37459e-07
3.62541e-08
3.81583e-07
6.09511e-08
3.36645e-07
1.39677e-08
2.34167e-07
-1.83015e-08
2.21565e-07
-8.64891e-09
2.38697e-07
-1.47422e-08
1.90871e-07
2.05391e-08
1.21863e-07
7.99171e-09
1.28029e-07
5.85527e-08
1.78189e-07
1.02608e-07
2.25708e-07
8.67618e-08
2.4948e-07
1.86393e-07
2.8883e-07
1.10133e-07
2.6807e-07
1.24523e-07
2.50406e-07
7.05733e-08
3.02581e-07
1.21883e-07
3.93789e-07
1.68382e-07
4.1819e-07
9.22919e-08
4.57718e-07
1.57364e-07
6.26465e-07
1.62898e-07
7.19316e-07
1.15662e-07
5.85418e-07
-1.25948e-08
4.6364e-07
-8.62734e-08
4.17305e-07
-2.13368e-08
3.30381e-07
-8.00583e-08
2.2793e-07
-5.53787e-08
2.67806e-07
-4.57499e-10
3.07952e-07
-4.31099e-09
2.56677e-07
9.10829e-08
3.08076e-07
9.90776e-08
4.95262e-07
1.80307e-07
6.13836e-07
1.61766e-07
6.49012e-07
8.58079e-08
5.79841e-07
3.1026e-08
5.20846e-07
-4.37424e-08
6.02941e-07
1.18019e-09
6.11188e-07
-8.13184e-08
4.52217e-07
-2.03571e-07
3.68752e-07
-1.06431e-07
3.4505e-07
-1.23067e-07
3.64937e-07
-1.12194e-07
4.65854e-07
9.33024e-09
4.54089e-07
-1.04284e-07
3.32491e-07
1.54386e-08
4.83225e-07
-5.29673e-08
4.02567e-07
3.99251e-09
2.44669e-07
-1.36762e-07
2.96879e-07