/*--------------------------------*- C++ -*----------------------------------*\
| =========                 |                                                 |
| \\      /  F ield         | OpenFOAM: The Open Source CFD Toolbox           |
|  \\    /   O peration     | Version:  2106                                  |
|   \\  /    A nd           | Website:  www.openfoam.com                      |
|    \\/     M anipulation  |                                                 |
\*---------------------------------------------------------------------------*/
FoamFile
{
    version     2.0;
    format      ascii;
    arch        "LSB;label=32;scalar=64";
    class       surfaceScalarField;
    location    "0.008";
    object      phiB;
}
// * * * * * * * * * * * * * * * * * * * * * * * * * * * * * * * * * * * * * //

dimensions      [1 2 -2 0 0 -1 0];

oriented        oriented;

internalField   nonuniform List<scalar> 
319200
(
1.75824e-06
2.03016e-06
8.49981e-07
-4.50959e-07
2.83646e-06
3.90732e-07
1.9354e-06
-3.62528e-07
1.11973e-06
-1.21014e-06
7.21937e-08
-1.18657e-06
-6.42555e-07
-6.82258e-07
-8.84044e-07
-1.84946e-07
-8.05925e-07
1.12841e-07
-6.03025e-07
2.2453e-07
-3.92514e-07
2.27425e-07
-2.28833e-07
1.8618e-07
-1.17395e-07
1.39303e-07
-4.77678e-08
1.01157e-07
-1.19546e-08
7.49619e-08
1.13965e-08
6.00507e-08
1.80648e-08
5.07972e-08
2.47868e-08
4.82365e-08
3.03663e-08
4.74718e-08
3.05138e-08
4.82233e-08
3.99159e-08
5.17925e-08
4.77021e-08
5.32757e-08
5.55285e-08
5.63107e-08
7.306e-08
6.01672e-08
8.71719e-08
6.09647e-08
1.01158e-07
6.31733e-08
1.23751e-07
6.55314e-08
1.41512e-07
6.42486e-08
1.55434e-07
6.38066e-08
1.76705e-07
6.41813e-08
1.93871e-07
6.08397e-08
2.0263e-07
5.73356e-08
2.15299e-07
5.63318e-08
2.28098e-07
5.28683e-08
2.31038e-07
4.75355e-08
2.32669e-07
4.56489e-08
2.39355e-07
4.46308e-08
2.41337e-07
4.05218e-08
2.36489e-07
3.75949e-08
2.35809e-07
3.8697e-08
2.4006e-07
3.88562e-08
2.39083e-07
3.6113e-08
2.34045e-07
3.54814e-08
2.34867e-07
3.81239e-08
2.40246e-07
3.87538e-08
2.40669e-07
3.60703e-08
2.36648e-07
3.50413e-08
2.37078e-07
3.72183e-08
2.42359e-07
3.79421e-08
2.44182e-07
3.5019e-08
2.40528e-07
3.26952e-08
2.38814e-07
3.42578e-08
2.43278e-07
3.65857e-08
2.48919e-07
3.56216e-08
2.50432e-07
3.30398e-08
2.50394e-07
3.33113e-08
2.55096e-07
3.65667e-08
2.64931e-07
3.85719e-08
2.74077e-07
3.6962e-08
2.78803e-07
3.429e-08
2.8161e-07
3.40924e-08
2.87322e-07
3.59927e-08
2.96026e-07
3.64044e-08
3.02553e-07
3.33276e-08
3.03811e-07
2.87487e-08
3.01612e-07
2.61397e-08
2.99397e-07
2.63187e-08
2.99189e-07
2.67866e-08
2.99289e-07
2.50668e-08
2.96692e-07
2.13857e-08
2.91332e-07
1.83161e-08
2.85475e-07
1.81758e-08
2.82023e-07
2.06184e-08
2.82485e-07
2.31559e-08
2.84911e-07
2.37469e-08
2.86916e-07
2.24312e-08
2.88522e-07
2.0986e-08
2.9053e-07
2.12026e-08
2.93935e-07
2.32358e-08
2.9932e-07
2.5616e-08
3.05653e-07
2.64973e-08
3.11984e-07
2.4957e-08
3.17379e-07
2.17853e-08
3.20009e-07
1.87106e-08
3.20232e-07
1.67896e-08
3.20203e-07
1.60684e-08
3.20096e-07
1.59379e-08
3.1943e-07
1.53911e-08
3.18115e-07
1.38114e-08
3.14751e-07
1.139e-08
3.09099e-07
8.68518e-09
3.03587e-07
6.50068e-09
2.99351e-07
5.71174e-09
2.95979e-07
6.47595e-09
2.94466e-07
8.15817e-09
2.95073e-07
1.00905e-08
2.9618e-07
1.17358e-08
2.97964e-07
1.25318e-08
3.01533e-07
1.23051e-08
3.05505e-07
1.13728e-08
3.08494e-07
9.96925e-09
3.11041e-07
8.24239e-09
3.12769e-07
6.55627e-09
3.12631e-07
5.09693e-09
3.11425e-07
3.71271e-09
3.10072e-07
2.35029e-09
3.07921e-07
1.07848e-09
3.04585e-07
-1.01492e-10
3.00502e-07
-1.12558e-09
2.95968e-07
-1.88657e-09
2.91743e-07
-2.42785e-09
2.88869e-07
-2.79575e-09
2.86825e-07
-2.90631e-09
2.84557e-07
-2.80787e-09
2.82952e-07
-2.72493e-09
2.83117e-07
-2.71364e-09
2.83937e-07
-2.69231e-09
2.84191e-07
-2.82026e-09
2.8447e-07
-3.35301e-09
2.84996e-07
-4.24528e-09
2.84534e-07
-5.35252e-09
2.82723e-07
-6.68098e-09
2.80634e-07
-8.13132e-09
2.7862e-07
-9.43341e-09
2.76019e-07
-1.0486e-08
2.72767e-07
-1.14259e-08
2.69379e-07
-1.23131e-08
2.65859e-07
-1.30087e-08
2.62178e-07
-1.34076e-08
2.59075e-07
-1.35862e-08
2.57055e-07
-1.36944e-08
2.55552e-07
-1.38681e-08
2.53969e-07
-1.42491e-08
2.52375e-07
-1.48998e-08
2.50715e-07
-1.57121e-08
2.48509e-07
-1.65701e-08
2.45724e-07
-1.74874e-08
2.42882e-07
-1.84625e-08
2.40132e-07
-1.93779e-08
2.37079e-07
-2.01403e-08
2.33581e-07
-2.07941e-08
2.30029e-07
-2.1415e-08
2.26782e-07
-2.198e-08
2.23884e-07
-2.2404e-08
2.21374e-07
-2.26662e-08
2.19345e-07
-2.2866e-08
2.17636e-07
-2.31774e-08
2.15825e-07
-2.37585e-08
2.13571e-07
-2.4648e-08
2.10756e-07
-2.5717e-08
2.0741e-07
-2.67555e-08
2.03722e-07
-2.76234e-08
1.99977e-07
-2.83174e-08
1.96336e-07
-2.89211e-08
1.92733e-07
-2.95161e-08
1.89054e-07
-3.01194e-08
1.85317e-07
-3.06823e-08
1.81608e-07
-3.11452e-08
1.78006e-07
-3.15004e-08
1.74674e-07
-3.18029e-08
1.71823e-07
-3.21083e-08
1.69412e-07
-3.24339e-08
1.67088e-07
-3.28076e-08
1.64536e-07
-3.33049e-08
1.61695e-07
-3.39739e-08
1.58554e-07
-3.47611e-08
1.54975e-07
-3.55624e-08
1.50975e-07
-3.62887e-08
1.46985e-07
-3.6871e-08
1.43499e-07
-3.72784e-08
1.40435e-07
-3.75553e-08
1.37154e-07
-3.78224e-08
1.33311e-07
-3.82233e-08
1.29346e-07
-3.88102e-08
1.25811e-07
-3.94493e-08
1.22557e-07
-3.99168e-08
1.19061e-07
-4.01366e-08
1.15289e-07
-4.02385e-08
1.11735e-07
-4.03684e-08
1.0866e-07
-4.05649e-08
1.05722e-07
-4.08362e-08
1.02452e-07
-4.12127e-08
9.88582e-08
-4.16871e-08
9.5324e-08
-4.21794e-08
9.19456e-08
-4.25744e-08
8.83092e-08
-4.2791e-08
8.41632e-08
-4.28573e-08
8.00524e-08
-4.28963e-08
7.68144e-08
-4.29889e-08
7.44658e-08
-4.31037e-08
7.20321e-08
-4.32174e-08
6.86134e-08
-4.34111e-08
6.43077e-08
-4.37609e-08
5.99108e-08
-4.41891e-08
5.59451e-08
-4.45007e-08
5.22668e-08
-4.45473e-08
4.85834e-08
-4.43377e-08
4.50496e-08
-4.4009e-08
4.20876e-08
-4.37043e-08
3.96656e-08
-4.34868e-08
3.70941e-08
-4.33771e-08
3.37429e-08
-4.34232e-08
2.97641e-08
-4.3652e-08
2.58468e-08
-4.39655e-08
2.23456e-08
-4.41679e-08
1.89256e-08
-4.41199e-08
1.51135e-08
-4.38368e-08
1.10144e-08
-4.34443e-08
7.31449e-09
-4.30704e-08
4.52893e-09
-4.27668e-08
2.34583e-09
-4.25119e-08
-1.38062e-10
-4.22897e-08
-3.52262e-09
-4.21341e-08
-7.59434e-09
-4.20581e-08
-1.17184e-08
-4.19798e-08
-1.54766e-08
-4.17768e-08
-1.88137e-08
-4.13971e-08
-2.18388e-08
-4.08806e-08
-2.47071e-08
-4.03134e-08
-2.75717e-08
-3.97981e-08
-3.04954e-08
-3.9423e-08
-3.34613e-08
-3.91983e-08
-3.64905e-08
-3.90317e-08
-3.9669e-08
-3.87967e-08
-4.30681e-08
-3.84256e-08
-4.66336e-08
-3.79364e-08
-5.01057e-08
-3.73965e-08
-5.3185e-08
-3.68745e-08
-5.59362e-08
-3.64029e-08
-5.88653e-08
-3.5973e-08
-6.2366e-08
-3.55622e-08
-6.62229e-08
-3.51432e-08
-6.98557e-08
-3.46559e-08
-7.29072e-08
-3.40158e-08
-7.54454e-08
-3.31997e-08
-7.77152e-08
-3.23044e-08
-7.98704e-08
-3.14795e-08
-8.19868e-08
-3.082e-08
-8.41793e-08
-3.03357e-08
-8.6578e-08
-2.99788e-08
-8.92516e-08
-2.96693e-08
-9.22064e-08
-2.93169e-08
-9.54101e-08
-2.88706e-08
-9.87534e-08
-2.83533e-08
-1.02072e-07
-2.78194e-08
-1.05305e-07
-2.72899e-08
-1.08541e-07
-2.67346e-08
-1.11833e-07
-2.60965e-08
-1.15054e-07
-2.53185e-08
-1.17943e-07
-2.43698e-08
-1.20279e-07
-2.3287e-08
-1.22027e-07
-2.21852e-08
-1.23394e-07
-2.12089e-08
-1.24769e-07
-2.04651e-08
-1.26507e-07
-1.99831e-08
-1.28688e-07
-1.96996e-08
-1.31185e-07
-1.94752e-08
-1.33907e-07
-1.91606e-08
-1.3681e-07
-1.86808e-08
-1.3975e-07
-1.80553e-08
-1.42574e-07
-1.73337e-08
-1.45301e-07
-1.65493e-08
-1.47954e-07
-1.57287e-08
-1.50299e-07
-1.48908e-08
-1.52033e-07
-1.4017e-08
-1.53226e-07
-1.30896e-08
-1.5425e-07
-1.21799e-08
-1.55318e-07
-1.14232e-08
-1.56568e-07
-1.08984e-08
-1.58387e-07
-1.05811e-08
-1.60995e-07
-1.04026e-08
-1.63966e-07
-1.02698e-08
-1.66821e-07
-1.00377e-08
-1.69635e-07
-9.59308e-09
-1.72515e-07
-8.95182e-09
-1.75187e-07
-8.17075e-09
-1.77503e-07
-7.2321e-09
-1.7948e-07
-6.11268e-09
-1.80671e-07
-4.88996e-09
-1.80492e-07
-3.66122e-09
-1.79337e-07
-2.48462e-09
-1.78215e-07
-1.49569e-09
-1.77352e-07
-8.69416e-10
-1.76649e-07
-6.03979e-10
-1.76862e-07
-5.44628e-10
-1.78548e-07
-6.23884e-10
-1.80932e-07
-8.46475e-10
-1.83375e-07
-1.09153e-09
-1.86416e-07
-1.21645e-09
-1.90263e-07
-1.22476e-09
-1.94175e-07
-1.12229e-09
-1.97708e-07
-8.26829e-10
-2.00798e-07
-3.1673e-10
-2.0313e-07
3.59315e-10
-2.04657e-07
1.22637e-09
-2.05588e-07
2.33015e-09
-2.05394e-07
3.67161e-09
-2.03575e-07
5.32066e-09
-2.00839e-07
7.27553e-09
-1.97646e-07
9.21441e-09
-1.93745e-07
1.06896e-08
-1.90078e-07
1.13665e-08
-1.87893e-07
1.09393e-08
-1.86874e-07
9.29642e-09
-1.87015e-07
6.87964e-09
-1.89398e-07
4.45435e-09
-1.93692e-07
2.71176e-09
-1.98554e-07
2.24636e-09
-2.03582e-07
3.267e-09
-2.0802e-07
5.20632e-09
-2.10573e-07
7.09215e-09
-2.11662e-07
8.19198e-09
-2.12497e-07
8.2667e-09
-2.13165e-07
7.8094e-09
-2.13776e-07
7.95818e-09
-2.14106e-07
9.57295e-09
-2.12321e-07
1.2522e-08
-2.07594e-07
1.57741e-08
-2.01271e-07
1.78189e-08
-1.94636e-07
1.7637e-08
-1.89073e-07
1.57188e-08
-1.85849e-07
1.37203e-08
-1.84253e-07
1.308e-08
-1.82831e-07
1.39095e-08
-1.81027e-07
1.48103e-08
-1.79305e-07
1.40599e-08
-1.79676e-07
1.1382e-08
-1.83681e-07
8.34194e-09
-1.89781e-07
6.99466e-09
-1.95189e-07
8.04538e-09
-1.98286e-07
1.0109e-08
-1.99299e-07
1.11847e-08
-2.00367e-07
1.09034e-08
-2.02559e-07
1.08539e-08
-2.03858e-07
1.27338e-08
-2.01905e-07
1.62915e-08
-1.96333e-07
1.93616e-08
-1.89518e-07
2.03997e-08
-1.84417e-07
2.02942e-08
-1.80305e-07
2.09493e-08
-1.74409e-07
2.26927e-08
-1.66686e-07
2.38151e-08
-1.59813e-07
2.29254e-08
-1.55982e-07
2.09894e-08
-1.54152e-07
1.9979e-08
-1.51643e-07
2.00814e-08
-1.48498e-07
1.97447e-08
-1.47091e-07
1.83542e-08
-1.4794e-07
1.72972e-08
-1.48606e-07
1.77108e-08
-1.4758e-07
1.87061e-08
-1.465e-07
1.90511e-08
-1.46729e-07
1.91959e-08
-1.47081e-07
2.00812e-08
-1.46369e-07
2.12795e-08
-1.45733e-07
2.18988e-08
-1.4627e-07
2.21379e-08
-1.47153e-07
2.26203e-08
-1.4801e-07
2.32237e-08
-1.49162e-07
2.37381e-08
-1.50181e-07
2.44675e-08
-1.50599e-07
2.54863e-08
-1.50572e-07
2.68136e-08
-1.48959e-07
2.88369e-08
-1.44334e-07
3.1358e-08
-1.38276e-07
3.38437e-08
-1.30692e-07
3.68329e-08
-1.18961e-07
4.05429e-08
-1.04673e-07
4.36907e-08
-9.04273e-08
4.64068e-08
-7.3316e-08
4.97172e-08
-5.3799e-08
5.2214e-08
-3.69162e-08
5.33632e-08
-1.95057e-08
5.48833e-08
-9.7404e-10
5.56598e-08
1.2596e-08
5.47333e-08
2.44251e-08
5.42747e-08
3.63163e-08
5.30801e-08
4.12144e-08
5.04184e-08
4.40437e-08
4.82565e-08
4.47412e-08
4.49454e-08
3.64904e-08
3.98443e-08
2.55782e-08
3.4146e-08
3.04758e-09
2.44738e-08
-3.55699e-08
1.05735e-08
-9.49151e-08
-9.81587e-09
-1.95137e-07
-3.97474e-08
-3.48079e-07
-7.85264e-08
-5.79077e-07
-1.24968e-07
-8.95021e-07
-1.67367e-07
-1.26972e-06
-1.83896e-07
-1.58973e-06
-1.39021e-07
-1.60245e-06
1.20165e-09
-9.48419e-07
2.25133e-07
5.25835e-07
3.97133e-07
1.96839e-06
2.12456e-07
1.06915e-06
-5.64542e-07
-3.89409e-07
-1.4155e-06
4.42368e-07
-8.23882e-07
-2.04381e-06
-7.30282e-07
2.69635e-07
1.69197e-06
7.48092e-07
2.0838e-06
2.15898e-07
1.08792e-06
-3.35131e-07
1.14315e-06
-6.51444e-07
5.7677e-07
-6.1126e-07
-1.44471e-07
-3.64277e-07
-5.85732e-07
-1.01266e-07
-6.9414e-07
7.78118e-08
-5.99951e-07
1.61013e-07
-4.33755e-07
1.77478e-07
-2.75644e-07
1.60439e-07
-1.55426e-07
1.33812e-07
-7.39027e-08
1.0921e-07
-2.68943e-08
9.06084e-08
2.29125e-09
7.91535e-08
1.57143e-08
7.18674e-08
2.35675e-08
6.92059e-08
3.05418e-08
6.86278e-08
3.3856e-08
6.91229e-08
4.13521e-08
7.16e-08
5.08109e-08
7.34056e-08
5.93307e-08
7.53777e-08
7.38135e-08
7.83329e-08
8.93492e-08
7.9482e-08
1.03355e-07
8.04359e-08
1.22279e-07
8.18928e-08
1.41227e-07
8.12313e-08
1.56183e-07
7.98666e-08
1.73323e-07
7.92265e-08
1.90431e-07
7.68507e-08
2.01845e-07
7.31493e-08
2.1196e-07
7.07485e-08
2.23016e-07
6.80789e-08
2.29423e-07
6.37361e-08
2.31622e-07
6.04176e-08
2.35217e-07
5.87835e-08
2.38571e-07
5.62143e-08
2.37586e-07
5.31575e-08
2.35702e-07
5.21847e-08
2.37014e-07
5.22635e-08
2.38349e-07
5.0951e-08
2.36667e-07
4.94039e-08
2.35389e-07
4.97094e-08
2.37456e-07
5.04008e-08
2.39643e-07
4.92567e-08
2.38877e-07
4.7463e-08
2.37739e-07
4.71678e-08
2.39273e-07
4.75448e-08
2.41659e-07
4.64762e-08
2.41851e-07
4.43619e-08
2.40927e-07
4.34438e-08
2.4228e-07
4.41305e-08
2.46362e-07
4.44847e-08
2.50527e-07
4.34292e-08
2.53453e-07
4.2381e-08
2.57052e-07
4.28612e-08
2.63332e-07
4.41026e-08
2.71309e-07
4.4203e-08
2.78506e-07
4.27489e-08
2.83758e-07
4.11237e-08
2.88138e-07
4.04321e-08
2.93118e-07
4.01539e-08
2.98178e-07
3.88842e-08
3.01337e-07
3.60816e-08
3.01497e-07
3.28541e-08
2.99649e-07
3.06037e-08
2.97533e-07
2.94891e-08
2.95884e-07
2.84787e-08
2.93953e-07
2.67541e-08
2.90973e-07
2.46413e-08
2.87368e-07
2.31363e-08
2.84337e-07
2.29116e-08
2.83116e-07
2.37569e-08
2.84073e-07
2.47672e-08
2.86432e-07
2.5087e-08
2.89225e-07
2.46115e-08
2.92109e-07
2.39693e-08
2.95442e-07
2.3781e-08
2.99709e-07
2.40491e-08
3.04669e-07
2.42461e-08
3.09571e-07
2.37586e-08
3.13969e-07
2.23201e-08
3.17375e-07
2.01629e-08
3.19125e-07
1.77349e-08
3.19256e-07
1.54732e-08
3.18256e-07
1.36688e-08
3.16371e-07
1.22072e-08
3.13942e-07
1.07944e-08
3.11162e-07
9.36319e-09
3.07827e-07
7.94047e-09
3.04164e-07
6.60063e-09
3.00754e-07
5.59189e-09
2.979e-07
5.11469e-09
2.95967e-07
5.1563e-09
2.95387e-07
5.58939e-09
2.96128e-07
6.19601e-09
2.97818e-07
6.66716e-09
3.00211e-07
6.76002e-09
3.03107e-07
6.40122e-09
3.06022e-07
5.5717e-09
3.08499e-07
4.28767e-09
3.10359e-07
2.72217e-09
3.11313e-07
1.05632e-09
3.11069e-07
-7.08617e-10
3.09692e-07
-2.55005e-09
3.07337e-07
-4.30463e-09
3.04159e-07
-5.84928e-09
3.00508e-07
-7.1295e-09
2.96656e-07
-8.10903e-09
2.92758e-07
-8.8131e-09
2.89248e-07
-9.27976e-09
2.8657e-07
-9.5116e-09
2.84663e-07
-9.56934e-09
2.83283e-07
-9.61752e-09
2.82583e-07
-9.77253e-09
2.82771e-07
-1.00073e-08
2.83398e-07
-1.03399e-08
2.83776e-07
-1.09441e-08
2.83726e-07
-1.19173e-08
2.83215e-07
-1.31427e-08
2.82016e-07
-1.44658e-08
2.80085e-07
-1.57924e-08
2.77603e-07
-1.7044e-08
2.74677e-07
-1.82085e-08
2.71438e-07
-1.93133e-08
2.68171e-07
-2.02882e-08
2.65097e-07
-2.10125e-08
2.62274e-07
-2.1479e-08
2.59721e-07
-2.18136e-08
2.57515e-07
-2.21531e-08
2.55695e-07
-2.25537e-08
2.54043e-07
-2.30332e-08
2.52213e-07
-2.36422e-08
2.50088e-07
-2.44259e-08
2.47704e-07
-2.5352e-08
2.45059e-07
-2.63335e-08
2.42203e-07
-2.72828e-08
2.39251e-07
-2.81355e-08
2.36196e-07
-2.88909e-08
2.32948e-07
-2.96083e-08
2.29579e-07
-3.03114e-08
2.26368e-07
-3.09355e-08
2.23571e-07
-3.13998e-08
2.21217e-07
-3.17156e-08
2.19129e-07
-3.20127e-08
2.17097e-07
-3.2457e-08
2.14937e-07
-3.31349e-08
2.12486e-07
-3.40027e-08
2.09648e-07
-3.49339e-08
2.06422e-07
-3.58146e-08
2.0288e-07
-3.66127e-08
1.99166e-07
-3.736e-08
1.95457e-07
-3.80778e-08
1.91852e-07
-3.87445e-08
1.88325e-07
-3.93282e-08
1.84812e-07
-3.98232e-08
1.81312e-07
-4.02537e-08
1.77909e-07
-4.06486e-08
1.74705e-07
-4.10199e-08
1.71774e-07
-4.13768e-08
1.69125e-07
-4.17375e-08
1.66621e-07
-4.21298e-08
1.63952e-07
-4.26089e-08
1.60906e-07
-4.32383e-08
1.57571e-07
-4.40023e-08
1.54108e-07
-4.47733e-08
1.50548e-07
-4.54204e-08
1.46904e-07
-4.59131e-08
1.43287e-07
-4.62996e-08
1.398e-07
-4.6653e-08
1.36444e-07
-4.7044e-08
1.33083e-07
-4.74979e-08
1.29505e-07
-4.79839e-08
1.25678e-07
-4.84556e-08
1.21872e-07
-4.88597e-08
1.1831e-07
-4.91404e-08
1.14914e-07
-4.93111e-08
1.11591e-07
-4.94779e-08
1.08425e-07
-4.97209e-08
1.05393e-07
-5.00208e-08
1.02219e-07
-5.03444e-08
9.86987e-08
-5.07063e-08
9.49061e-08
-5.11025e-08
9.10606e-08
-5.14679e-08
8.73838e-08
-5.17296e-08
8.39698e-08
-5.18618e-08
8.06851e-08
-5.19001e-08
7.73537e-08
-5.19333e-08
7.40181e-08
-5.20434e-08
7.07839e-08
-5.2241e-08
6.7507e-08
-5.24893e-08
6.39228e-08
-5.27643e-08
6.00024e-08
-5.30369e-08
5.5977e-08
-5.32303e-08
5.21046e-08
-5.32602e-08
4.85143e-08
-5.31129e-08
4.51871e-08
-5.28591e-08
4.20547e-08
-5.26093e-08
3.91209e-08
-5.24565e-08
3.63652e-08
-5.24245e-08
3.35264e-08
-5.24734e-08
3.02205e-08
-5.25647e-08
2.63571e-08
-5.26827e-08
2.22568e-08
-5.27805e-08
1.83224e-08
-5.27668e-08
1.47351e-08
-5.25845e-08
1.14388e-08
-5.22661e-08
8.26793e-09
-5.18992e-08
5.10139e-09
-5.15698e-08
1.95297e-09
-5.13281e-08
-1.14422e-09
-5.1166e-08
-4.30393e-09
-5.10313e-08
-7.67842e-09
-5.08805e-08
-1.12195e-08
-5.06954e-08
-1.47214e-08
-5.04416e-08
-1.80634e-08
-5.00707e-08
-2.12461e-08
-4.95912e-08
-2.42595e-08
-4.90887e-08
-2.71191e-08
-4.86474e-08
-2.99885e-08
-4.82893e-08
-3.3075e-08
-4.79988e-08
-3.64013e-08
-4.77476e-08
-3.98047e-08
-4.74773e-08
-4.31459e-08
-4.71158e-08
-4.64055e-08
-4.66463e-08
-4.95963e-08
-4.61275e-08
-5.27164e-08
-4.56311e-08
-5.57983e-08
-4.51836e-08
-5.89071e-08
-4.47664e-08
-6.20812e-08
-4.43393e-08
-6.53231e-08
-4.38568e-08
-6.8584e-08
-4.32843e-08
-7.17013e-08
-4.2613e-08
-7.44822e-08
-4.18652e-08
-7.69054e-08
-4.1088e-08
-7.91397e-08
-4.0348e-08
-8.13672e-08
-3.97117e-08
-8.36855e-08
-3.92034e-08
-8.61715e-08
-3.87879e-08
-8.88998e-08
-3.84e-08
-9.18571e-08
-3.79862e-08
-9.49477e-08
-3.75222e-08
-9.8096e-08
-3.70101e-08
-1.01286e-07
-3.64687e-08
-1.04518e-07
-3.59115e-08
-1.07767e-07
-3.53203e-08
-1.10971e-07
-3.46477e-08
-1.14022e-07
-3.38508e-08
-1.16752e-07
-3.29245e-08
-1.19032e-07
-3.19143e-08
-1.20881e-07
-3.09101e-08
-1.2247e-07
-3.00159e-08
-1.24049e-07
-2.93037e-08
-1.25863e-07
-2.87762e-08
-1.28049e-07
-2.83723e-08
-1.30564e-07
-2.80007e-08
-1.33266e-07
-2.75746e-08
-1.36049e-07
-2.70409e-08
-1.38866e-07
-2.63976e-08
-1.4163e-07
-2.56779e-08
-1.44209e-07
-2.49067e-08
-1.46542e-07
-2.40858e-08
-1.48653e-07
-2.32172e-08
-1.50511e-07
-2.23139e-08
-1.52045e-07
-2.13992e-08
-1.53344e-07
-2.05179e-08
-1.54649e-07
-1.97461e-08
-1.5617e-07
-1.91506e-08
-1.58049e-07
-1.87267e-08
-1.60413e-07
-1.84006e-08
-1.63255e-07
-1.80766e-08
-1.66333e-07
-1.76741e-08
-1.69341e-07
-1.71436e-08
-1.72106e-07
-1.64699e-08
-1.74551e-07
-1.56487e-08
-1.76557e-07
-1.46564e-08
-1.7799e-07
-1.34925e-08
-1.78802e-07
-1.22359e-08
-1.78969e-07
-1.0996e-08
-1.78574e-07
-9.85297e-09
-1.77958e-07
-8.89615e-09
-1.77483e-07
-8.24464e-09
-1.77285e-07
-7.92817e-09
-1.77526e-07
-7.83265e-09
-1.78571e-07
-7.84825e-09
-1.8059e-07
-7.94196e-09
-1.83375e-07
-8.04264e-09
-1.86737e-07
-8.00909e-09
-1.90578e-07
-7.74955e-09
-1.94555e-07
-7.24648e-09
-1.9813e-07
-6.47324e-09
-2.00957e-07
-5.42513e-09
-2.02868e-07
-4.17468e-09
-2.03703e-07
-2.81657e-09
-2.03498e-07
-1.44645e-09
-2.02431e-07
-1.59848e-10
-2.006e-07
1.02317e-09
-1.98255e-07
2.13846e-09
-1.95772e-07
3.13181e-09
-1.93281e-07
3.89468e-09
-1.90954e-07
4.40938e-09
-1.89314e-07
4.64957e-09
-1.88701e-07
4.49357e-09
-1.89069e-07
3.90837e-09
-1.90533e-07
3.03133e-09
-1.93271e-07
2.06706e-09
-1.97023e-07
1.32316e-09
-2.01309e-07
1.18612e-09
-2.057e-07
1.82585e-09
-2.09525e-07
3.10324e-09
-2.12115e-07
4.74305e-09
-2.13338e-07
6.38214e-09
-2.13303e-07
7.71683e-09
-2.12226e-07
8.7872e-09
-2.10546e-07
9.89872e-09
-2.0826e-07
1.13137e-08
-2.0494e-07
1.30862e-08
-2.00592e-07
1.49095e-08
-1.95663e-07
1.6164e-08
-1.90797e-07
1.6419e-08
-1.86833e-07
1.58095e-08
-1.84282e-07
1.49093e-08
-1.82995e-07
1.43487e-08
-1.82512e-07
1.42961e-08
-1.82475e-07
1.42713e-08
-1.83108e-07
1.36947e-08
-1.85127e-07
1.25417e-08
-1.88672e-07
1.14737e-08
-1.92921e-07
1.13688e-08
-1.96694e-07
1.24897e-08
-1.9901e-07
1.41894e-08
-1.99876e-07
1.56539e-08
-2.0017e-07
1.67635e-08
-2.0014e-07
1.81677e-08
-1.98897e-07
2.04529e-08
-1.95446e-07
2.32173e-08
-1.90025e-07
2.54269e-08
-1.84139e-07
2.65974e-08
-1.78821e-07
2.72529e-08
-1.7367e-07
2.81428e-08
-1.6796e-07
2.91509e-08
-1.62028e-07
2.94454e-08
-1.57238e-07
2.87599e-08
-1.54325e-07
2.78849e-08
-1.52309e-07
2.75865e-08
-1.50124e-07
2.76389e-08
-1.48274e-07
2.7427e-08
-1.47657e-07
2.71117e-08
-1.47757e-07
2.74077e-08
-1.47376e-07
2.84001e-08
-1.46509e-07
2.9456e-08
-1.46013e-07
3.03064e-08
-1.45986e-07
3.13214e-08
-1.45834e-07
3.26078e-08
-1.45596e-07
3.37676e-08
-1.45917e-07
3.46291e-08
-1.46753e-07
3.54529e-08
-1.47673e-07
3.63605e-08
-1.4868e-07
3.72965e-08
-1.49519e-07
3.84129e-08
-1.49521e-07
3.97937e-08
-1.48616e-07
4.14125e-08
-1.46554e-07
4.35142e-08
-1.42096e-07
4.61682e-08
-1.35286e-07
4.89776e-08
-1.26927e-07
5.19916e-08
-1.15918e-07
5.55486e-08
-1.01915e-07
5.90461e-08
-8.70083e-08
6.20717e-08
-7.09013e-08
6.52251e-08
-5.25653e-08
6.81026e-08
-3.50717e-08
6.99541e-08
-1.87589e-08
7.15733e-08
-1.86862e-09
7.2851e-08
1.22837e-08
7.28944e-08
2.33974e-08
7.27111e-08
3.36239e-08
7.21538e-08
3.91605e-08
7.05996e-08
4.0917e-08
6.89034e-08
3.97419e-08
6.66397e-08
3.09053e-08
6.30102e-08
1.56436e-08
5.85207e-08
-1.09656e-08
5.13902e-08
-5.58941e-08
4.07058e-08
-1.24911e-07
2.49443e-08
-2.33898e-07
1.66654e-09
-3.94453e-07
-2.89853e-08
-6.21354e-07
-6.52897e-08
-9.11383e-07
-9.74558e-08
-1.22487e-06
-1.0514e-07
-1.44956e-06
-5.33025e-08
-1.37841e-06
9.9599e-08
-7.76117e-07
3.68398e-07
3.41186e-07
6.68817e-07
1.19152e-06
7.3802e-07
2.18486e-07
2.98471e-07
2.00206e-07
3.48781e-07
-7.89693e-07
8.08756e-07
4.80119e-07
-2.48615e-07
-5.96473e-07
1.1599e-06
2.01199e-07
1.53274e-06
7.5418e-08
7.71495e-07
-2.03342e-07
1.18327e-06
-3.48051e-07
8.23574e-07
-3.16023e-07
1.18313e-07
-1.8115e-07
-4.06625e-07
-3.25751e-08
-6.10816e-07
7.71973e-08
-5.83402e-07
1.35522e-07
-4.50655e-07
1.53637e-07
-3.02254e-07
1.48242e-07
-1.80045e-07
1.33486e-07
-9.25163e-08
1.17995e-07
-3.83923e-08
1.05183e-07
-4.92297e-09
9.68478e-08
1.31191e-08
9.15424e-08
2.29632e-08
8.92455e-08
3.09357e-08
8.89486e-08
3.63601e-08
8.9347e-08
4.32066e-08
9.10875e-08
5.28102e-08
9.2897e-08
6.22912e-08
9.43393e-08
7.49338e-08
9.6404e-08
9.04587e-08
9.75505e-08
1.05052e-07
9.79102e-08
1.21559e-07
9.8479e-08
1.39736e-07
9.79057e-08
1.5555e-07
9.61742e-08
1.70938e-07
9.45627e-08
1.8676e-07
9.23264e-08
1.99418e-07
8.88494e-08
2.09141e-07
8.55632e-08
2.18599e-07
8.26696e-08
2.26164e-07
7.90043e-08
2.29946e-07
7.52962e-08
2.32555e-07
7.27738e-08
2.35507e-07
7.05692e-08
2.36631e-07
6.79256e-08
2.3579e-07
6.59455e-08
2.35693e-07
6.51507e-08
2.36766e-07
6.43089e-08
2.3691e-07
6.28446e-08
2.36066e-07
6.18188e-08
2.3634e-07
6.15733e-08
2.37839e-07
6.09157e-08
2.38545e-07
5.93386e-08
2.3809e-07
5.78737e-08
2.38197e-07
5.71354e-08
2.3957e-07
5.6337e-08
2.40989e-07
5.48392e-08
2.41642e-07
5.32856e-08
2.42605e-07
5.25697e-08
2.45286e-07
5.24794e-08
2.49488e-07
5.20973e-08
2.53926e-07
5.11969e-08
2.58278e-07
5.05044e-08
2.63466e-07
5.0452e-08
2.69924e-07
5.04552e-08
2.76805e-07
4.96735e-08
2.82937e-07
4.81233e-08
2.87742e-07
4.64464e-08
2.91744e-07
4.49732e-08
2.95381e-07
4.34316e-08
2.98112e-07
4.1366e-08
2.99249e-07
3.86652e-08
2.98539e-07
3.58396e-08
2.9657e-07
3.35152e-08
2.9422e-07
3.18175e-08
2.91807e-07
3.03818e-08
2.89465e-07
2.88501e-08
2.87195e-07
2.73862e-08
2.85124e-07
2.63977e-08
2.83962e-07
2.60202e-08
2.84226e-07
2.61048e-08
2.85862e-07
2.63088e-08
2.8859e-07
2.62628e-08
2.91983e-07
2.58322e-08
2.95754e-07
2.51342e-08
2.99845e-07
2.43667e-08
3.04083e-07
2.36201e-08
3.08172e-07
2.27318e-08
3.11928e-07
2.1415e-08
3.15086e-07
1.96047e-08
3.1707e-07
1.74521e-08
3.17624e-07
1.5101e-08
3.16987e-07
1.27382e-08
3.15245e-07
1.05631e-08
3.12608e-07
8.6549e-09
3.09555e-07
7.05126e-09
3.06286e-07
5.72209e-09
3.03078e-07
4.57856e-09
3.00325e-07
3.66079e-09
2.98083e-07
3.03238e-09
2.96545e-07
2.62754e-09
2.9607e-07
2.39325e-09
2.96641e-07
2.30384e-09
2.98035e-07
2.21669e-09
3.00051e-07
1.92984e-09
3.02463e-07
1.3361e-09
3.04928e-07
4.29929e-10
3.07012e-07
-7.83323e-10
3.08501e-07
-2.29376e-09
3.09287e-07
-4.03542e-09
3.09126e-07
-5.91769e-09
3.07908e-07
-7.8342e-09
3.05734e-07
-9.66319e-09
3.02769e-07
-1.13466e-08
2.99335e-07
-1.28426e-08
2.95763e-07
-1.40504e-08
2.92247e-07
-1.49278e-08
2.89066e-07
-1.5548e-08
2.8649e-07
-1.59957e-08
2.84568e-07
-1.633e-08
2.8327e-07
-1.66184e-08
2.82604e-07
-1.69287e-08
2.82554e-07
-1.73176e-08
2.82826e-07
-1.78591e-08
2.82892e-07
-1.8655e-08
2.82538e-07
-1.97431e-08
2.8185e-07
-2.1006e-08
2.80692e-07
-2.23e-08
2.7888e-07
-2.36124e-08
2.76509e-07
-2.49538e-08
2.73727e-07
-2.62434e-08
2.7067e-07
-2.73881e-08
2.67597e-07
-2.83385e-08
2.64672e-07
-2.90888e-08
2.61901e-07
-2.96969e-08
2.59343e-07
-3.02422e-08
2.57095e-07
-3.07529e-08
2.55165e-07
-3.12396e-08
2.53398e-07
-3.17701e-08
2.5149e-07
-3.24461e-08
2.49248e-07
-3.33099e-08
2.46744e-07
-3.42897e-08
2.44116e-07
-3.52614e-08
2.41397e-07
-3.61623e-08
2.38559e-07
-3.70083e-08
2.35531e-07
-3.78312e-08
2.32293e-07
-3.86349e-08
2.29022e-07
-3.93763e-08
2.25988e-07
-3.99844e-08
2.23316e-07
-4.04381e-08
2.20934e-07
-4.08179e-08
2.1867e-07
-4.12565e-08
2.16391e-07
-4.18432e-08
2.1404e-07
-4.25754e-08
2.1155e-07
-4.33865e-08
2.08794e-07
-4.42119e-08
2.05675e-07
-4.50265e-08
2.02209e-07
-4.58326e-08
1.98538e-07
-4.66243e-08
1.94855e-07
-4.7366e-08
1.91285e-07
-4.80145e-08
1.87809e-07
-4.85662e-08
1.84343e-07
-4.90583e-08
1.80852e-07
-4.95254e-08
1.77428e-07
-4.99762e-08
1.74249e-07
-5.03969e-08
1.71393e-07
-5.07721e-08
1.68744e-07
-5.11241e-08
1.66104e-07
-5.15247e-08
1.63299e-07
-5.20406e-08
1.60208e-07
-5.26814e-08
1.56863e-07
-5.34002e-08
1.53424e-07
-5.41037e-08
1.49975e-07
-5.46897e-08
1.46477e-07
-5.51409e-08
1.4294e-07
-5.55418e-08
1.39428e-07
-5.59671e-08
1.3593e-07
-5.64185e-08
1.32416e-07
-5.68756e-08
1.28905e-07
-5.73224e-08
1.2536e-07
-5.77256e-08
1.21726e-07
-5.80609e-08
1.18101e-07
-5.83426e-08
1.14641e-07
-5.8592e-08
1.11346e-07
-5.88235e-08
1.08136e-07
-5.907e-08
1.04974e-07
-5.93596e-08
1.01763e-07
-5.96777e-08
9.83302e-08
-6.00024e-08
9.46485e-08
-6.03392e-08
9.08874e-08
-6.06727e-08
8.72297e-08
-6.09391e-08
8.37636e-08
-6.10944e-08
8.04869e-08
-6.11678e-08
7.72944e-08
-6.12309e-08
7.40403e-08
-6.13482e-08
7.06647e-08
-6.15478e-08
6.71746e-08
-6.18035e-08
6.35489e-08
-6.20562e-08
5.97883e-08
-6.22614e-08
5.59939e-08
-6.23897e-08
5.22915e-08
-6.24026e-08
4.87483e-08
-6.22851e-08
4.54053e-08
-6.20925e-08
4.22813e-08
-6.19156e-08
3.93044e-08
-6.1811e-08
3.63288e-08
-6.17873e-08
3.3221e-08
-6.18261e-08
2.98772e-08
-6.1892e-08
2.62431e-08
-6.19493e-08
2.24095e-08
-6.19766e-08
1.86081e-08
-6.1944e-08
1.50262e-08
-6.18024e-08
1.16871e-08
-6.15405e-08
8.52404e-09
-6.12232e-08
5.44906e-09
-6.09336e-08
2.33469e-09
-6.07019e-08
-9.20178e-10
-6.05202e-08
-4.2779e-09
-6.03761e-08
-7.63325e-09
-6.02347e-08
-1.09774e-08
-6.00317e-08
-1.43502e-08
-5.97283e-08
-1.76794e-08
-5.93444e-08
-2.08423e-08
-5.89214e-08
-2.3848e-08
-5.84908e-08
-2.68109e-08
-5.80867e-08
-2.98015e-08
-5.77408e-08
-3.28544e-08
-5.74468e-08
-3.60323e-08
-5.71605e-08
-3.93425e-08
-5.68414e-08
-4.26725e-08
-5.647e-08
-4.5916e-08
-5.60385e-08
-4.908e-08
-5.55609e-08
-5.22152e-08
-5.50837e-08
-5.53461e-08
-5.46464e-08
-5.85022e-08
-5.4234e-08
-6.17109e-08
-5.37914e-08
-6.49283e-08
-5.32799e-08
-6.80468e-08
-5.26935e-08
-7.09749e-08
-5.20357e-08
-7.36861e-08
-5.1321e-08
-7.62052e-08
-5.05942e-08
-7.85814e-08
-4.99151e-08
-8.08964e-08
-4.93192e-08
-8.32653e-08
-4.88022e-08
-8.57896e-08
-4.83382e-08
-8.8515e-08
-4.7898e-08
-9.1431e-08
-4.74513e-08
-9.44971e-08
-4.6976e-08
-9.76527e-08
-4.64674e-08
-1.00831e-07
-4.59312e-08
-1.03994e-07
-4.53637e-08
-1.0713e-07
-4.47416e-08
-1.10199e-07
-4.40327e-08
-1.13111e-07
-4.32165e-08
-1.15751e-07
-4.23016e-08
-1.18039e-07
-4.13353e-08
-1.20003e-07
-4.03936e-08
-1.21784e-07
-3.95507e-08
-1.23576e-07
-3.88481e-08
-1.25542e-07
-3.82803e-08
-1.27746e-07
-3.77994e-08
-1.3016e-07
-3.73355e-08
-1.32728e-07
-3.68243e-08
-1.35404e-07
-3.62308e-08
-1.38139e-07
-3.55538e-08
-1.40854e-07
-3.48103e-08
-1.43429e-07
-3.40129e-08
-1.45755e-07
-3.31669e-08
-1.47797e-07
-3.22786e-08
-1.49583e-07
-3.13578e-08
-1.51161e-07
-3.04255e-08
-1.5262e-07
-2.9529e-08
-1.54088e-07
-2.87377e-08
-1.55716e-07
-2.80935e-08
-1.5768e-07
-2.75687e-08
-1.60093e-07
-2.70956e-08
-1.62872e-07
-2.66218e-08
-1.65761e-07
-2.61089e-08
-1.68538e-07
-2.55023e-08
-1.71134e-07
-2.47459e-08
-1.73504e-07
-2.38264e-08
-1.75461e-07
-2.276e-08
-1.76788e-07
-2.15611e-08
-1.7749e-07
-2.02701e-08
-1.77715e-07
-1.89815e-08
-1.77564e-07
-1.78071e-08
-1.77214e-07
-1.68231e-08
-1.76976e-07
-1.6076e-08
-1.7709e-07
-1.55846e-08
-1.77654e-07
-1.53067e-08
-1.78796e-07
-1.5158e-08
-1.80666e-07
-1.50585e-08
-1.83253e-07
-1.4933e-08
-1.86395e-07
-1.46954e-08
-1.89886e-07
-1.42739e-08
-1.93453e-07
-1.36236e-08
-1.96763e-07
-1.26989e-08
-1.99539e-07
-1.14882e-08
-2.01551e-07
-1.00639e-08
-2.02531e-07
-8.52697e-09
-2.02401e-07
-6.94966e-09
-2.01374e-07
-5.40815e-09
-1.99643e-07
-3.99793e-09
-1.97381e-07
-2.78951e-09
-1.94917e-07
-1.82931e-09
-1.92607e-07
-1.14739e-09
-1.90738e-07
-7.07986e-10
-1.89603e-07
-4.44918e-10
-1.8939e-07
-3.44452e-10
-1.90069e-07
-3.95557e-10
-1.91606e-07
-5.28733e-10
-1.94053e-07
-6.76974e-10
-1.97242e-07
-7.69285e-10
-2.00783e-07
-6.41827e-10
-2.04394e-07
-1.19047e-10
-2.07772e-07
8.68053e-10
-2.10408e-07
2.31164e-09
-2.11931e-07
4.10983e-09
-2.122e-07
6.03969e-09
-2.11212e-07
7.89103e-09
-2.0924e-07
9.56669e-09
-2.06563e-07
1.10609e-08
-2.03257e-07
1.24612e-08
-1.99479e-07
1.38593e-08
-1.95446e-07
1.51564e-08
-1.9134e-07
1.61003e-08
-1.87537e-07
1.65004e-08
-1.84594e-07
1.63658e-08
-1.82898e-07
1.59575e-08
-1.82465e-07
1.56249e-08
-1.83023e-07
1.55058e-08
-1.84285e-07
1.54936e-08
-1.86196e-07
1.54298e-08
-1.8879e-07
1.53237e-08
-1.91917e-07
1.54906e-08
-1.95146e-07
1.63248e-08
-1.97685e-07
1.78965e-08
-1.98873e-07
1.98902e-08
-1.98804e-07
2.19018e-08
-1.97885e-07
2.38388e-08
-1.96118e-07
2.59494e-08
-1.9317e-07
2.83589e-08
-1.88805e-07
3.07645e-08
-1.83457e-07
3.26882e-08
-1.77939e-07
3.39637e-08
-1.72703e-07
3.48622e-08
-1.677e-07
3.56925e-08
-1.62725e-07
3.63311e-08
-1.58118e-07
3.64815e-08
-1.54615e-07
3.62347e-08
-1.52259e-07
3.60681e-08
-1.50369e-07
3.62641e-08
-1.48649e-07
3.66483e-08
-1.47425e-07
3.70516e-08
-1.46811e-07
3.76903e-08
-1.46356e-07
3.88035e-08
-1.457e-07
4.02271e-08
-1.45055e-07
4.16479e-08
-1.44771e-07
4.30492e-08
-1.44755e-07
4.45484e-08
-1.44796e-07
4.60512e-08
-1.45137e-07
4.73987e-08
-1.45913e-07
4.86411e-08
-1.4681e-07
4.99034e-08
-1.47632e-07
5.1211e-08
-1.48221e-07
5.26707e-08
-1.48004e-07
5.44001e-08
-1.46605e-07
5.6377e-08
-1.43959e-07
5.86882e-08
-1.39365e-07
6.14852e-08
-1.32346e-07
6.46023e-08
-1.23422e-07
6.78556e-08
-1.12521e-07
7.14343e-08
-9.89922e-08
7.51625e-08
-8.38639e-08
7.85554e-08
-6.80542e-08
8.17958e-08
-5.08345e-08
8.49187e-08
-3.3535e-08
8.73223e-08
-1.75862e-08
8.91919e-08