/*--------------------------------*- C++ -*----------------------------------*\
| =========                 |                                                 |
| \\      /  F ield         | OpenFOAM: The Open Source CFD Toolbox           |
|  \\    /   O peration     | Version:  2106                                  |
|   \\  /    A nd           | Website:  www.openfoam.com                      |
|    \\/     M anipulation  |                                                 |
\*---------------------------------------------------------------------------*/
FoamFile
{
    version     2.0;
    format      ascii;
    arch        "LSB;label=32;scalar=64";
    class       surfaceScalarField;
    location    "0.074";
    object      phi;
}
// * * * * * * * * * * * * * * * * * * * * * * * * * * * * * * * * * * * * * //

dimensions      [0 3 -1 0 0 0 0];

oriented        oriented;

internalField   nonuniform List<scalar> 
799
(
1.7772e-32
4.55358e-32
5.86596e-32
4.77443e-32
2.24252e-32
-4.44769e-32
-1.04114e-31
-1.5025e-31
-1.60554e-31
-1.23047e-31
-6.75052e-32
-5.48768e-33
3.27253e-32
4.22018e-32
2.03437e-32
-1.91639e-32
-7.03401e-32
-1.22986e-31
-1.63257e-31
-1.91182e-31
-1.82966e-31
-1.46782e-31
-8.55203e-32
-1.46596e-32
2.60211e-32
3.52082e-32
-6.37701e-33
-7.69289e-32
-1.43161e-31
-1.95693e-31
-1.98487e-31
-1.71146e-31
-1.24784e-31
-6.97187e-32
-4.48205e-32
-3.37392e-32
-5.09408e-32
-8.88504e-32
-1.18746e-31
-1.55463e-31
-1.6446e-31
-1.52012e-31
-1.2858e-31
-8.19002e-32
-5.66904e-32
-4.64187e-32
-6.23531e-32
-1.11335e-31
-1.5131e-31
-1.87622e-31
-1.89571e-31
-1.55744e-31
-1.12577e-31
-5.82812e-32
-3.38688e-32
-4.00215e-32
-7.31146e-32
-1.32193e-31
-1.7758e-31
-2.02709e-31
-1.89516e-31
-1.36339e-31
-7.42069e-32
-1.92431e-32
-6.39619e-33
-4.71003e-32
-1.20857e-31
-2.04331e-31
-2.49707e-31
-2.32141e-31
-1.60702e-31
-5.88891e-32
1.76238e-32
3.42364e-32
-1.27488e-32
-1.0642e-31
-1.9281e-31
-2.37311e-31
-2.25663e-31
-1.6626e-31
-9.98532e-32
-5.06768e-32
-3.51349e-32
-4.99591e-32
-7.3891e-32
-9.96428e-32
-1.19021e-31
-1.36963e-31
-1.5707e-31
-1.69131e-31
-1.66959e-31
-1.35634e-31
-8.28782e-32
-2.92771e-32
3.57501e-33
-1.51261e-32
-7.35316e-32
-1.55124e-31
-2.243e-31
-2.37482e-31
-2.02025e-31
-1.1607e-31
-2.50638e-32
2.83533e-32
3.75684e-32
-2.02051e-32
-9.92887e-32
-1.72896e-31
-2.16648e-31
-1.99472e-31
-1.55461e-31
-9.25321e-32
-4.57273e-32
-3.69869e-32
-4.82645e-32
-7.87314e-32
-9.54253e-32
-9.27838e-32
-7.99049e-32
-6.58752e-32
-7.56601e-32
-1.0602e-31
-1.47418e-31
-1.78106e-31
-1.76555e-31
-1.41756e-31
-8.22658e-32
-2.26838e-32
1.52475e-32
2.0725e-32
-9.1066e-33
-6.1371e-32
-1.22224e-31
-1.77448e-31
-2.09215e-31
-2.11857e-31
-1.78047e-31
-1.13817e-31
-3.99857e-32
2.48793e-32
5.02507e-32
2.77681e-32
-3.53597e-32
-1.1948e-31
-1.84248e-31
-2.10678e-31
-1.87122e-31
-1.26813e-31
-6.40249e-32
-2.06601e-32
-1.98275e-32
-5.43518e-32
-1.01312e-31
-1.38366e-31
-1.38857e-31
-1.05929e-31
-5.51012e-32
-1.33491e-32
-1.05084e-32
-5.05195e-32
-1.21604e-31
-1.88416e-31
-2.15328e-31
-1.84399e-31
-1.04181e-31
-1.48008e-32
4.33063e-32
3.54108e-32
-3.10797e-32
-1.21031e-31
-1.91789e-31
-1.98679e-31
-1.52283e-31
-7.48136e-32
-1.21364e-32
-5.72814e-33
-4.17028e-32
-1.10589e-31
-1.60207e-31
-1.62386e-31
-1.26169e-31
-5.52339e-32
-5.81691e-33
7.57413e-33
-2.15569e-32
-8.899e-32
-1.45024e-31
-1.81557e-31
-1.73957e-31
-1.26988e-31
-7.17529e-32
-1.59463e-32
6.93034e-33
-1.78111e-33
-3.35262e-32
-8.22951e-32
-1.20146e-31
-1.44652e-31
-1.48742e-31
-1.31475e-31
-1.05403e-31
-7.03935e-32
-3.71861e-32
-1.52728e-32
-8.68324e-33
-2.78887e-32
-6.76113e-32
-1.14009e-31
-1.5063e-31
-1.53761e-31
-1.19751e-31
-6.16461e-32
-4.42212e-33
1.66397e-32
-1.18073e-32
-7.95635e-32
-1.54774e-31
-1.91941e-31
-1.65832e-31
-8.31009e-32
1.99921e-32
8.69497e-32
7.73351e-32
-8.86492e-33
-1.37594e-31
-2.41918e-31
-2.66425e-31
-1.98936e-31
-6.21925e-32
7.23488e-32
1.41381e-31
1.16972e-31
4.18382e-33
-1.31598e-31
-2.3079e-31
-2.51441e-31
-1.81039e-31
-6.77905e-32
4.24472e-32
1.01128e-31
8.40052e-32
1.56768e-32
-7.48083e-32
-1.42347e-31
-1.58238e-31
-1.25249e-31
-6.0414e-32
1.95903e-33
3.28476e-32
2.28373e-32
-1.38306e-32
-5.29962e-32
-6.4142e-32
-3.65445e-32
1.09808e-32
5.64388e-32
6.37362e-32
2.54072e-32
-3.39656e-32
-8.6627e-32
-8.9002e-32
-3.33502e-32
5.44963e-32
1.41953e-31
1.82202e-31
1.62907e-31
1.06536e-31
4.07033e-32
7.469e-33
2.12048e-32
6.42584e-32
1.24058e-31
1.69893e-31
1.9493e-31
2.13191e-31
2.21962e-31
2.39459e-31
2.58728e-31
2.70089e-31
2.83754e-31
2.91914e-31
3.11015e-31
3.42811e-31
3.75962e-31
4.09541e-31
4.30271e-31
4.49111e-31
4.82488e-31
5.42239e-31
6.30119e-31
7.22478e-31
7.88191e-31
8.0291e-31
7.74264e-31
7.34153e-31
7.3429e-31
8.09682e-31
9.53919e-31
1.13353e-30
1.28239e-30
1.36229e-30
1.37076e-30
1.34012e-30
1.3379e-30
1.39861e-30
1.5341e-30
1.7138e-30
1.8821e-30
2.013e-30
2.09273e-30
2.1523e-30
2.23103e-30
2.34693e-30
2.50902e-30
2.68545e-30
2.85111e-30
2.99391e-30
3.11348e-30
3.24379e-30
3.40257e-30
3.60118e-30
3.83363e-30
4.06509e-30
4.28172e-30
4.46916e-30
4.63918e-30
4.82703e-30
5.04735e-30
5.3226e-30
5.63689e-30
5.95832e-30
6.26722e-30
6.5314e-30
6.76882e-30
7.00444e-30
7.26888e-30
7.60454e-30
7.9994e-30
8.44053e-30
8.88445e-30
9.27855e-30
9.60816e-30
9.87614e-30
1.00858e-29
1.04559e-29
1.09357e-29
1.22429e-29
1.46142e-29
1.81789e-29
2.50055e-29
2.76397e-29
3.03791e-29
1.32607e-29
-2.95353e-29
-8.09514e-29
-1.86582e-28
-1.77256e-28
-1.16493e-28
1.71501e-28
8.15711e-28
1.18106e-27
1.82353e-27
1.06192e-27
-7.5595e-28
-3.03124e-27
-7.53763e-27
-7.20801e-27
-5.92567e-27
1.7537e-27
1.68817e-26
2.26734e-26
3.30542e-26
1.66537e-26
-1.36057e-26
-4.1002e-26
-9.04903e-26
-7.13171e-26
-4.21895e-26
3.15755e-26
1.5463e-25
1.62741e-25
1.92003e-25
5.43165e-26
-1.45595e-25
-2.41557e-25
-4.15706e-25
-2.36519e-25
-3.1638e-26
2.19159e-25
5.89201e-25
4.55162e-25
3.8304e-25
-3.70788e-26
-5.43997e-25
-5.80044e-25
-7.54247e-25
-2.54573e-25
2.23633e-25
5.06853e-25
9.15298e-25
5.06864e-25
2.23649e-25
-2.54559e-25
-7.54242e-25
-5.8005e-25
-5.44009e-25
-3.70928e-26
3.83031e-25
4.5516e-25
5.89205e-25
2.19167e-25
-3.16323e-26
-2.36517e-25
-4.15708e-25
-2.41562e-25
-1.456e-25
5.43129e-26
1.92001e-25
1.62741e-25
1.5463e-25
3.15758e-26
-4.21898e-26
-7.13178e-26
-9.04909e-26
-4.10029e-26
-1.36065e-26
1.66528e-26
3.30532e-26
2.26725e-26
1.68809e-26
1.753e-27
-5.92628e-27
-7.20853e-27
-7.53809e-27
-3.03173e-27
-7.5645e-28
1.06137e-27
1.82295e-27
1.18047e-27
8.15134e-28
1.70997e-28
-1.16916e-28
-1.77578e-28
-1.86836e-28
-8.12043e-29
-2.98322e-29
1.28584e-29
2.98946e-29
2.7123e-29
2.45302e-29
1.78316e-29
1.44035e-29
1.21523e-29
1.08926e-29
1.0372e-29
9.91711e-30
9.59649e-30
9.25208e-30
8.90629e-30
8.55028e-30
8.20351e-30
7.87506e-30
7.5789e-30
7.30727e-30
7.03664e-30
6.74593e-30
6.42074e-30
6.07004e-30
5.7293e-30
5.42542e-30
5.18501e-30
5.00117e-30
4.84441e-30
4.68886e-30
4.49853e-30
4.2755e-30
4.02736e-30
3.77448e-30
3.54835e-30
3.35489e-30
3.20773e-30
3.09545e-30
2.99818e-30
2.8988e-30
2.77023e-30
2.60771e-30
2.42115e-30
2.23304e-30
2.07762e-30
1.97733e-30
1.92588e-30
1.90461e-30
1.87029e-30
1.78788e-30
1.65837e-30
1.48845e-30
1.32928e-30
1.21707e-30
1.16227e-30
1.16953e-30
1.18691e-30
1.1836e-30
1.1322e-30
1.01965e-30
8.85446e-31
7.55145e-31
6.7032e-31
6.52628e-31
6.83886e-31
7.3996e-31
7.71499e-31
7.41635e-31
6.45021e-31
5.01771e-31
3.62113e-31
2.8108e-31
2.83346e-31
3.6078e-31
4.66341e-31
5.34864e-31
5.27109e-31
4.33675e-31
2.9306e-31
1.62928e-31
9.11823e-32
9.87024e-32
1.62714e-31
2.45719e-31
2.99605e-31
3.04565e-31
2.61337e-31
1.88217e-31
1.21368e-31
7.22344e-32
6.02666e-32
7.52258e-32
1.02266e-31
1.33008e-31
1.3831e-31
1.2865e-31
9.74355e-32
6.13281e-32
4.60805e-32
4.20109e-32
6.68019e-32
8.85527e-32
9.11589e-32
7.60344e-32
2.74106e-32
-1.12405e-32
-3.0867e-32
-1.95655e-32
2.9548e-32
7.24795e-32
1.02063e-31
9.61385e-32
5.58719e-32
1.48462e-32
-2.23152e-32
-3.45644e-32
-2.99572e-32
-2.85933e-32
-2.60873e-32
-2.91793e-32
-1.70763e-32
2.35773e-32
7.60922e-32
1.25911e-31
1.28586e-31
6.55313e-32
-4.21282e-32
-1.62256e-31
-2.20964e-31
-1.84919e-31
-6.27958e-32
1.07395e-31
2.29192e-31
2.52236e-31
1.56668e-31
-2.67287e-32
-1.96695e-31
-2.90337e-31
-2.53141e-31
-9.9861e-32
8.34902e-32
2.29445e-31
2.55088e-31
1.57119e-31
-7.94747e-33
-1.7637e-31
-2.52455e-31
-2.18861e-31
-9.79636e-32
5.73246e-32
1.57938e-31
1.80481e-31
1.1763e-31
6.62339e-33
-8.78736e-32
-1.46007e-31
-1.42377e-31
-9.80682e-32
-4.25886e-32
1.48379e-32
4.72379e-32
6.46887e-32
6.37844e-32
4.30901e-32
1.53465e-32
-2.59165e-32
-6.17719e-32
-8.76629e-32
-9.68133e-32
-8.31106e-32
-5.6851e-32
-1.75079e-32
1.98897e-32
5.23134e-32
6.76641e-32
5.97399e-32
3.2139e-32
-1.82143e-32
-6.42072e-32
-1.01205e-31
-1.109e-31
-8.7028e-32
-5.13945e-32
-5.56714e-35
3.53756e-32
5.29661e-32
5.51959e-32
2.95036e-32
1.94699e-33
-3.56854e-32
-6.9098e-32
-8.36019e-32
-8.68309e-32
-6.10104e-32
-2.40181e-32
1.51426e-32
4.66933e-32
4.98996e-32
3.40815e-32
-1.1533e-33
-3.99164e-32
-6.64956e-32
-7.7627e-32
-6.57436e-32
-3.97088e-32
-7.23366e-33
2.05683e-32
3.39174e-32
2.81671e-32
7.97455e-33
-1.67797e-32
-3.57561e-32
-3.58945e-32
-2.72461e-32
-1.33762e-32
-8.88091e-33
-2.17826e-32
-3.27453e-32
-3.95192e-32
-1.92804e-32
2.02134e-32
5.36687e-32
6.79146e-32
3.34329e-32
-2.78434e-32
-8.99725e-32
-1.19975e-31
-8.76802e-32
-1.66999e-32
6.8217e-32
1.16766e-31
1.02686e-31
3.85788e-32
-5.07738e-32
-1.09266e-31
-1.14521e-31
-6.40296e-32
1.63238e-32
7.60998e-32
9.40862e-32
5.68019e-32
-9.17375e-33
-6.39228e-32
-8.43961e-32
-5.22062e-32
7.16552e-33
6.27281e-32
8.74793e-32
6.03486e-32
2.41719e-33
-6.16895e-32
-1.01028e-31
-8.9889e-32
-4.03703e-32
3.11128e-32
9.37808e-32
1.16295e-31
9.86415e-32
4.26879e-32
-2.88882e-32
-8.49591e-32
-1.15947e-31
-1.04795e-31
-5.87747e-32
3.92413e-33
7.3244e-32
1.18555e-31
1.30797e-31
1.03582e-31
3.65957e-32
-4.14872e-32
-1.1183e-31
-1.4279e-31
-1.17286e-31
-4.58552e-32
5.28653e-32
1.33802e-31
1.63906e-31
1.29751e-31
4.12191e-32
-5.86115e-32
-1.27081e-31
-1.32954e-31
-7.26896e-32
2.15494e-32
1.06072e-31
1.41979e-31
1.11519e-31
3.5711e-32
-4.89021e-32
-1.01551e-31
-9.26809e-32
-3.54461e-32
4.69829e-32
1.12281e-31
1.24421e-31
9.02343e-32
1.62643e-32
-5.21964e-32
-8.06867e-32
-6.80109e-32
-5.68149e-33
5.93465e-32
1.0227e-31
1.10861e-31
6.84905e-32
1.7377e-32
-3.08799e-32
-5.32046e-32
-3.35653e-32
-3.90452e-34
4.47636e-32
7.55762e-32
8.12276e-32
7.31733e-32
4.88477e-32
2.69211e-32
1.39239e-32
6.77085e-33
8.89106e-33
1.14196e-32
9.69886e-33
1.09645e-32
1.11734e-32
2.10841e-32
4.4021e-32
6.80575e-32
9.73377e-32
1.06031e-31
9.21933e-32
5.72069e-32
-7.16958e-34
-4.42197e-32
-6.98838e-32
-5.48736e-32
-1.21875e-33
6.30964e-32
1.26569e-31
1.50298e-31
1.35285e-31
8.36583e-32
2.01952e-32
-2.86373e-32
-4.8972e-32
-2.75002e-32
3.39972e-33
5.23808e-32
7.29882e-32
7.38444e-32
6.70464e-32
2.245e-32
1.32746e-32
-1.89824e-32
-2.49743e-32
-4.8409e-33
)
;

boundaryField
{
    left
    {
        type            calculated;
        value           uniform 0;
    }
    right
    {
        type            calculated;
        value           uniform 0;
    }
    empty
    {
        type            empty;
        value           nonuniform List<scalar> 0();
    }
}


// ************************************************************************* //
