/*--------------------------------*- C++ -*----------------------------------*\
| =========                 |                                                 |
| \\      /  F ield         | OpenFOAM: The Open Source CFD Toolbox           |
|  \\    /   O peration     | Version:  2106                                  |
|   \\  /    A nd           | Website:  www.openfoam.com                      |
|    \\/     M anipulation  |                                                 |
\*---------------------------------------------------------------------------*/
FoamFile
{
    version     2.0;
    format      ascii;
    arch        "LSB;label=32;scalar=64";
    class       volScalarField;
    location    "0.11";
    object      p;
}
// * * * * * * * * * * * * * * * * * * * * * * * * * * * * * * * * * * * * * //

dimensions      [0 2 -2 0 0 0 0];

internalField   nonuniform List<scalar> 
11200
(
145.207391637
142.278789853
141.164939181
140.637608254
140.270278916
139.975500907
139.71385741
139.465319146
139.22080086
138.975732951
138.727418366
138.474102517
138.214553463
137.947835619
137.673182026
137.389919062
137.097420608
136.795080284
136.48229905
136.158489443
135.823026352
135.475261194
135.114535656
134.740181573
134.351513632
133.947830697
133.528416622
133.092541004
132.639459941
132.168416672
131.678642159
131.169355642
130.639764926
130.089066533
129.516446033
128.921078895
128.302131228
127.658759709
126.990111774
126.295326164
125.57353324
124.823855187
124.045406184
123.237292488
122.398612393
121.528456038
120.625904981
119.690031484
118.719897417
117.714552664
116.67303293
115.594356834
114.477522137
113.321500902
112.125233376
110.88762022
109.60751269
108.283700169
106.91489445
105.499709772
104.036637691
102.524015414
100.959985477
99.3424467555
97.6689891416
95.936807522
94.1425915642
92.2823814248
90.3513733222
88.3436530219
86.2518325136
84.0665552756
81.775621689
79.3628526257
76.8061763646
74.0739633635
71.1186677924
67.8678555084
64.1684787553
59.4070587117
143.414349699
142.056175628
141.265204379
140.765190388
140.374202529
140.050320308
139.765799339
139.501197057
139.245708964
138.993186716
138.73980309
138.483044597
138.221174259
137.952915599
137.67726809
137.393396731
137.100563906
136.798086579
136.485306043
136.161560071
135.8261999
135.47854218
135.117953254
134.743761786
134.355271305
133.95177503
133.532554004
133.096875984
132.643995793
132.173155755
131.683586016
131.174504669
130.64511763
130.094622075
129.522206539
128.927047754
128.308311673
127.665154835
126.996724622
126.302159823
125.580590936
124.831140358
124.052922576
123.245044269
122.406604299
121.536693545
120.634394523
119.698780715
118.728915527
117.72385076
116.68262451
115.604258362
114.487753742
113.332087263
112.136204823
110.899014132
109.619375214
108.296088363
106.927878921
105.513378031
104.051098665
102.539405547
100.976475021
99.360244295
97.6883457625
95.9580369843
94.1661028539
92.3087063669
90.3812084556
88.3779246851
86.291786145
84.1138354958
81.8325275769
79.4327270677
76.8940411142
74.1879666065
71.2737073861
68.0934053051
64.5442155983
60.4307617605
142.419159515
141.764959168
141.212603678
140.774986249
140.403362808
140.08126136
139.792161629
139.521927677
139.261464496
139.004983279
138.748599133
138.489630448
138.226165234
137.956776502
137.680343065
137.395936104
137.10274572
136.800033018
136.487099396
136.163267519
135.827874663
135.480285375
135.119750099
134.745618781
134.357198367
133.953779022
133.534639492
133.099046472
132.646254421
132.17550576
131.686031232
131.177050461
130.647772666
130.097393707
129.525095966
128.930053462
128.311434573
127.668396443
127.00008737
126.305647173
125.584207268
124.834891013
124.056814026
123.24908431
122.410802309
121.541060816
120.638944676
119.703530226
118.733884389
117.729063276
116.68811025
115.610053341
114.493901868
113.338642121
112.143231862
110.906593331
109.627604328
108.305086934
106.93779342
105.524388104
104.063424275
102.553315212
100.992297183
99.3783982562
97.7093819192
95.9826563334
94.1951793856
92.3433523428
90.4228610389
88.4284667378
86.353719332
84.1905550454
81.9288777736
79.5557678397
77.0544981112
74.4031957112
71.573857897
68.5348095095
65.2499939486
61.6962073786
141.869398467
141.506017205
141.106119373
140.737129109
140.399512463
140.09140983
139.806046011
139.535341292
139.272968318
139.014300177
138.755918929
138.495293117
138.230522951
137.96014113
137.682971458
137.398031216
137.104463831
136.801492845
136.488390927
136.164457965
135.829002876
135.481337673
135.120820083
134.746721759
134.358337358
133.954958902
133.535864372
133.100319093
132.647576403
132.176877795
131.687453056
131.178520422
130.649287059
130.098950251
129.526698739
128.931710796
128.313151613
127.670181972
127.001948033
126.307589588
125.586238878
124.837020234
124.059050648
123.251439919
122.41329082
121.543699068
120.64175313
119.706533744
118.737113116
117.732553769
116.691906917
115.614210175
114.498484573
113.343730724
112.148923948
110.91300812
109.634887987
108.313419227
106.947395236
105.535530963
104.076444021
102.568636787
101.01044944
99.4000237486
97.7352564097
96.0137479345
94.2327230308
92.3889298602
90.4785154528
88.4968697437
86.4384351643
84.2964806817
82.0627720208
79.7272625297
77.2778547959
74.7004355082
71.9802327176
69.1074988669
66.0857895382
62.9522102175
141.535350722
141.303555315
141.002143055
140.691166048
140.386326397
140.094302592
139.815326321
139.546199302
139.283237957
139.023152218
138.76318176
138.501089243
138.235082176
137.963711441
137.68578022
137.400271349
137.106291957
136.803032597
136.489737776
136.16568477
135.83016859
135.482492994
135.121959235
134.747862704
134.359502201
133.956161741
133.53711473
133.101624174
132.648942056
132.178309187
131.688955344
131.180099343
130.650949243
130.100702277
129.528544879
128.933653478
128.315194777
127.672323507
127.00419166
126.309940048
125.588702666
124.83960648
124.061771185
123.254309491
122.416327474
121.546924672
120.645194075
119.710221827
118.741087155
117.736861121
116.696605205
115.619369566
114.50419059
113.350087694
112.156059206
110.921077039
109.644079487
108.323961028
106.959565373
105.549669754
104.092974211
102.588067489
101.033410548
99.4273092743
97.7678701559
96.0529514723
94.2801057983
92.4465112658
90.5488883366
88.5834025467
86.5455565788
84.4300844983
82.2308757715
79.9410080094
77.5530542882
75.0599958297
72.4576229098
69.7503645288
66.9595790319
64.1359741013
141.331958458
141.156056482
140.914861858
140.647536146
140.370349062
140.093710389
139.822020022
139.555517419
139.292751072
139.031740977
138.77045231
138.507018086
138.239812856
137.967445736
137.6887237
137.402608851
137.108178919
136.804594286
136.491072047
136.166866299
135.831253573
135.483522105
135.122962379
134.748865192
134.360519735
133.957205239
133.538192209
133.102741547
132.650103766
132.179518631
131.690214999
131.181410941
130.652313862
130.102120742
129.530018294
128.935183587
128.316784835
127.673981973
127.005926382
126.311762276
125.590626476
124.841645902
124.063942125
123.256629859
122.418818746
121.549613008
120.648111423
119.713407356
118.744588065
117.740734493
116.70092038
115.624210756
114.50966008
113.356309787
112.163185085
110.929290924
109.653607352
108.335085227
106.97263085
105.565102865
104.111280243
102.60986877
101.059485232
99.4586141898
97.8055883099
96.0985577309
94.3354517791
92.513937068
90.6313739631
88.6847767972
86.6707895067
84.5856999064
82.4255414005
80.1863721442
77.8649064481
75.4597926182
72.9741016235
70.4200010689
67.8244710321
65.2346717312
141.208841901
141.05323437
140.846932726
140.610370789
140.354895739
140.091616314
139.827003044
139.563494269
139.301360804
139.039774884
138.777402555
138.51276736
138.244439525
137.971110436
137.69160778
137.404883783
137.109993298
136.806070289
136.492306594
136.167934228
135.832211363
135.484411703
135.123816459
134.749708192
134.361367718
133.958069719
133.539081694
133.103662334
132.651060637
132.180515453
131.69125524
131.182498025
130.653451467
130.103313053
129.531270659
128.936502734
128.318178402
127.675458033
127.007494212
126.313430894
125.592402693
124.843540708
124.065971153
123.258814046
122.421183452
121.552188719
120.650934909
119.716523019
118.748049995
117.744608244
116.705285553
115.629164271
114.515320025
113.362820092
112.170721226
110.938066628
109.663881546
108.347167822
106.986904025
105.58202537
104.131432438
102.633966173
101.088397263
99.4934130475
97.8476016698
96.1494340434
94.3972461032
92.5892243977
90.7233997921
88.7976584418
86.8097872059
84.7575804161
82.6390611547
80.4529003144
78.1991723476
75.8806452266
73.5048868231
71.08753022
68.6555056147
66.2482544068
141.134762446
140.984752443
140.797997045
140.581891966
140.342186242
140.089365341
139.830728573
139.569990734
139.308624442
139.046703363
138.783486695
138.517851037
138.248555848
137.974379798
137.694179217
137.406904059
137.111592619
136.807357385
136.493368689
136.168839313
135.833011304
135.485145413
135.124512786
134.750388236
134.362046789
133.95875896
133.539789267
133.104394324
132.651821781
132.181309685
131.692086117
131.183369042
130.654366309
130.104275787
129.532285644
128.937574646
128.319312592
127.676660678
127.008771843
126.314792277
125.593863854
124.845120296
124.067688008
123.260690104
122.423245588
121.554469774
120.653474858
119.719370398
118.751263703
117.748260328
116.70946368
115.633974831
114.520892198
113.369310809
112.178321246
110.947008235
109.674448894
108.359709988
107.001842141
105.599880725
104.152832286
102.659676758
101.119359697
99.5307843308
97.8928063436
96.2042305897
94.4638119617
92.6702650467
90.822289423
88.918621336
86.9581310343
84.939989104
82.8639553993
80.7308499295
78.5432978684
76.3068520443
74.0315801233
71.7341364524
69.4392689504
67.1790767123
141.092486274
140.943038727
140.766623431
140.562885666
140.333353563
140.08764584
139.83328658
139.574649005
139.313943146
139.051850038
138.788053818
138.521696622
138.251686871
137.976875801
137.696146501
137.408450579
137.1128158
136.808339466
136.494176141
136.169524233
135.833613617
135.485695144
135.125032139
134.750893685
134.362550149
133.959269112
133.540312742
133.104936086
132.652385818
132.181899439
131.692704812
131.184019904
130.655052782
130.10500171
129.533055395
128.938393365
128.320186451
127.677597373
127.009781542
126.31588809
125.595057108
124.846425616
124.069125416
123.262283998
122.425025405
121.556471136
120.655740961
119.721953698
118.754227894
117.751682455
116.713437204
115.638613357
114.52633385
113.375723546
112.185909287
110.956019723
109.685184803
108.372534952
107.017202044
105.618317569
104.175009492
102.686404142
101.151625726
99.569797484
97.9400463858
96.2615124813
94.5333656305
92.7548349931
90.9252591139
89.0441661223
87.1114044585
85.1273428926
83.0931854984
81.0114337424
78.8865500287
76.7258557349
74.5406407299
72.347375631
70.1681804262
68.0293276382
141.073209991
140.92333226
140.751369573
140.553434545
140.328873785
140.086755398
139.834621065
139.57711309
139.316787077
139.054627197
138.7905382
138.52380432
138.253415887
137.978265287
137.697251668
137.40932865
137.113518987
136.808912164
136.494654418
136.169936488
135.833981704
135.486035584
135.125357297
134.751212901
134.36286999
133.959594817
133.54064828
133.105284651
132.652750188
132.182282245
131.693108782
131.184447937
130.655508148
130.105488205
129.533577532
128.93895659
128.320797391
127.67826407
127.010513432
126.316695164
125.595954303
124.847430252
124.07025805
123.263569487
122.426493976
121.558159521
120.657693769
119.724225074
118.75688358
117.754802306
116.717118211
115.642973288
114.531515687
113.38190089
112.193292959
110.964865881
109.695805052
108.385308673
107.032588717
105.636874863
104.197418371
102.713491056
101.184396423
99.6094767267
97.9881262501
96.3198113873
94.6040997493
92.8407049353
91.0295539274
89.1708826866
87.2653887501
85.3144417827
83.3203994071
81.2870242584
79.2200406005
77.1278230214
75.0221391339
72.9188069211
70.83759606
68.8005271192
141.073212695
140.923348412
140.751396601
140.553470712
140.328918319
140.086807488
139.834679827
139.577177742
139.316856968
139.054701787
138.790617044
138.523887055
138.253502217
137.978354979
137.697344569
137.409424653
137.113618063
136.809014358
136.494759854
136.170045366
135.834094298
135.486152243
135.125478454
134.751339088
134.363001823
133.959733013
133.540793717
133.105438421
132.652913656
132.182457075
131.693296905
131.184651846
130.65573086
130.105733359
129.533849525
128.939260728
128.321140063
127.678652975
127.010957994
126.317207462
125.596548338
124.848123016
124.071070301
123.264526467
122.42762634
121.559504499
120.659296564
119.72614057
118.759178402
117.757557327
116.720431595
115.646964182
114.536328697
113.387711512
112.200314157
110.973356014
109.706077415
108.3977432
107.04764609
105.655114761
104.219521649
102.740281301
101.216871801
99.648847586
98.0358575755
96.3776725614
94.6742260922
92.9256707525
91.1324529229
89.2954298848
87.4161132459
85.496642482
83.540211402
81.5514689237
79.5369461215
77.5055724266
75.4691769938
73.442840081
71.4445433674
69.4934695254
141.092494437
140.943087556
140.766705117
140.562994913
140.333488029
140.087802888
139.833463516
139.574843505
139.314153269
139.052074171
138.788290636
138.521945043
138.25194602
137.977144995
137.696425249
137.408738589
137.113112993
136.808645987
136.494492359
136.169850745
135.833951247
135.486044916
135.125395325
134.751271863
134.362945143
133.959683034
133.540748186
133.105396261
132.652874706
132.182421954
131.693266964
131.184629046
130.655717822
130.105733433
129.533866884
128.939300514
128.321208578
127.678757923
127.01110875
126.317415414
125.596827303
124.848489832
124.071545464
123.265134878
122.428398247
121.560476641
120.66051356
119.727656592
118.76105921
117.759882726
116.72329842
115.650489906
114.540655799
113.393012765
112.206799045
110.981278518
109.715745435
108.409530003
107.062004394
105.672589971
104.240770203
102.766105028
101.248237592
99.6869169388
98.0820309738
96.4336515531
94.7420647977
93.0078162161
91.2318157352
89.4154411345
87.5605921524
85.6701208569
83.7479349514
81.7992881665
79.831191892
77.8528266633
75.8759054012
73.9148914076
71.9865791338
70.108503165
141.134776244
140.984835064
140.798135043
140.582076147
140.3424125
140.089629102
139.831025254
139.570316427
139.308975902
139.047077912
138.78388214
138.518265593
138.248988083
137.974828595
137.694643776
137.407383912
137.112087653
136.807867853
136.493895215
136.169382895
135.833573324
135.485727558
135.125117068
134.751017215
134.362703398
133.95944672
133.540512456
133.105158215
132.65263291
132.182176124
131.693017758
131.184377922
130.655467003
130.105485922
129.533626531
128.939072138
128.320998139
127.678572751
127.010957806
126.317309615
125.596779952
124.848517105
124.071667035
123.265374673
122.428785356
121.561046415
120.661308942
119.728729729
118.762473403
117.761714783
116.725641503
115.653456976
114.544383784
113.397667603
112.212581766
110.988432605
109.724565678
108.420373154
107.075302555
105.688866742
104.260656034
102.790356527
101.277769589
99.7228370477
98.1256650924
96.4865531262
94.8060609038
93.0850887925
91.3249385242
89.5274203989
87.6949842669
85.8309000985
83.9394738088
82.026316647
80.0986609174
78.1656976087
76.2388981566
74.3322583338
72.4619819135
70.6450790313
141.208861692
141.053352922
140.847130116
140.610633327
140.355217231
140.091990031
139.827422386
139.563953688
139.301855742
139.040301612
138.777958038
138.513349144
138.245045647
137.971739375
137.692258447
137.405555543
137.110685995
136.80678427
136.493042702
136.16869381
135.832996296
135.485224317
135.124659654
134.75058529
134.36228276
133.959027539
133.540088161
133.104724665
132.65218777
132.181718433
131.692547633
131.183896377
130.654975866
130.104987812
129.533124899
128.938571359
128.320503661
127.678091308
127.010497691
126.316881012
125.596395306
124.848191566
124.071419018
123.265226557
122.428764343
121.561185572
120.661648459
119.729318427
118.763370555
117.762992306
116.727386596
115.655775331
114.547403458
113.401543696
112.217502053
110.994624302
109.732303533
108.429989096
107.087197164
105.703523478
104.278658539
102.8124052
101.304700663
99.7556451337
98.1655379617
96.5349192436
94.8646174724
93.1558121193
91.4101151783
89.6296720051
87.8172813412
85.9765445987
84.1120417176
82.229549734
80.3363037111
78.4412969583
76.5556269857
74.6928977622
72.8691786694
71.101968482
141.331984896
141.156214662
140.915123841
140.647882842
140.370771703
140.094199774
139.822567379
139.556115516
139.293394049
139.032424088
138.77117173
138.507770744
138.240596308
137.968258096
137.689563619
137.403475532
137.109072128
136.805514351
136.492019828
136.167843159
135.832261305
135.484563025
135.124041585
134.74998791
134.361690547
133.958429705
133.539477405
133.104096271
132.651538935
132.181047789
131.691854922
131.183182246
130.65424176
130.104235955
129.532358325
128.937793991
128.319720395
127.677308135
127.009721936
126.316121656
125.595663402
124.847500725
124.070785932
123.2646716
122.428312298
121.560866543
120.661498992
119.729382885
118.763702769
117.763657551
116.728463978
115.657360657
114.549612716
113.404517233
112.221409657
110.999671343
109.738738347
108.438111582
107.097368875
105.716179399
104.294320993
102.831700965
101.328380892
99.7846063214
98.2008425344
96.5778179441
94.916577022
93.2185423351
91.4855873439
89.7201242567
87.9252063748
86.104651953
84.2631822362
82.4065859086
80.5419225644
78.6777845464
76.8246880636
74.9957263903
73.2069665796
71.4771486448
141.53538448
141.303757984
141.002476129
140.691603938
140.386857071
140.09491395
139.816007263
139.546940896
139.284033098
139.023995231
138.764068126
138.502015377
138.236045271
137.964709389
137.686811597
137.401335426
137.107388689
136.804162527
136.490901842
136.16688433
135.831405652
135.48376893
135.12327913
134.74923674
134.360934545
133.95765816
133.538683139
133.103274593
132.650686973
132.180164004
131.690938785
131.182234044
130.653262495
130.103227346
129.531322855
128.93673501
128.318642286
127.676216449
127.008623501
126.315024669
125.594577562
124.846437668
124.069759786
123.263699648
122.427415739
121.560071356
120.660836921
119.728892587
118.763431213
117.76366176
116.728813137
115.658138639
114.550921107
113.406479038
112.224173721
111.003417341
109.74368225
108.444513738
107.105542876
105.72650233
104.30724526
102.847767871
101.34823611
99.809017475
98.2307184343
96.6142280997
94.9607694232
93.2719590177
91.5498750662
89.7971344382
88.0169769723
86.2133590557
84.3910514209
82.5557462232
80.7141877515
78.8743590695
77.0458658304
75.2408477998
73.4748215189
71.767649055
141.869439546
141.506268019
141.106526061
140.737658616
140.400148798
140.092137506
139.806851482
139.536213967
139.273899922
139.015284207
138.756950283
138.496367816
138.23163797
137.96129434
137.684161682
137.39925835
137.105728988
136.802798372
136.48973993
136.165854744
135.830457072
135.4828622
135.122389533
134.748342844
134.360022577
133.956718591
133.537709516
133.102262757
132.649634404
132.179069258
131.689801201
131.181053608
130.652039744
130.101963254
129.530018814
128.935392925
128.317264826
127.674807331
127.007187618
126.313568491
125.593109664
124.844968461
124.068301777
123.262267963
122.426028631
121.558750857
120.659609693
119.72779098
118.762494564
117.762937717
116.728359113
115.65802398
114.551229623
113.407311972
112.225653309
111.005691537
109.746931172
108.448954282
107.111435698
105.734160207
104.317042752
102.860152234
101.363739529
99.8282704374
98.2544640267
96.6433369298
94.9962539425
93.3149848423
91.6017665631
89.8593702124
88.0911698396
86.3012099341
84.4942630101
82.6758748396
80.8524003417
79.0310399088
77.2200663036
75.4298158324
73.673458319
71.9695431539
142.419212694
141.765272265
141.213094005
140.775612736
140.404105777
140.082102054
139.793084305
139.522920303
139.262517774
139.006089915
138.749753362
138.490827667
138.227401745
137.958049379
137.681650156
137.397276207
137.104119076
136.80144229
136.488550003
136.164766925
135.829425231
135.481854358
135.121373019
134.747304124
134.358951073
133.955606556
133.536551733
133.101055884
132.64837653
132.17775956
131.688439561
131.179640516
130.65057626
130.100451012
129.528460032
128.933790265
128.315620754
127.67312418
127.005469014
126.311818761
125.591333621
124.843172665
124.06649489
123.260460817
122.424234657
121.556986629
120.65789553
119.726151629
118.760959902
117.761543999
116.727150773
115.657054996
114.550565382
113.407031591
112.225852313
111.006484573
109.74845547
108.451375446
107.114952916
105.739012427
104.323515903
102.868587578
101.374543206
99.8419238501
98.2715348066
96.6644896667
95.0222599296
93.346729034
91.640249853
89.9057072078
88.146573332
86.3669565972
84.5716273724
82.7660107241
80.9561170056
79.1483197508
77.3492474897
75.5663945116
73.8067970221
72.0788773549
143.414450306
142.056634258
141.2658873
140.766044525
140.375204758
140.051450081
139.767040071
139.502536207
139.24713686
138.99469573
138.74138708
138.484698425
138.222893375
137.95469569
137.679104781
137.395285329
137.102498987
136.800061234
136.487314898
136.163611017
135.828288525
135.480702851
135.120197733
134.746090598
134.357689737
133.954291438
133.535178772
133.099621019
132.646875369
132.176189813
131.68679977
131.177929569
130.648793294
130.098595417
129.526531504
128.931789091
128.313548946
127.670985376
127.003266095
126.309555214
125.589014129
124.840802623
124.064080594
123.258009918
122.421756521
121.554492699
120.655399783
119.723671135
118.758515555
117.759161158
116.724859892
115.654892815
114.548576311
113.405269327
112.224381937
111.005385454
109.747823404
108.451324928
107.115621273
105.740564205
104.326147767
102.872533778
101.380081534
99.8493820713
98.2812973572
96.6770045986
95.038045165
93.3663759743
91.6644258532
89.9351671987
88.1821471644
86.4095336668
84.622131561
82.8253591292
81.0251141025
79.2272613213
77.4373253613
75.6600506617
73.8902775088
72.0979311604
145.207558822
142.279460908
141.165932739
140.638861864
140.271762332
139.977189718
139.715733433
139.467369338
139.223015845
138.978106098
138.729945186
138.476780286
138.217381103
137.950813786
137.676313327
137.393208258
137.100874674
136.798707864
136.486105176
136.162459469
135.827167376
135.479584304
135.119043594
134.744880332
134.35641199
133.952939223
133.533748048
133.098112155
132.645292126
132.174532797
131.685069206
131.176125866
130.646916975
130.096647075
129.524511789
128.929698572
128.311387583
127.66875272
127.000962728
126.307182246
125.586573034
124.83829547
124.061510177
123.255379851
122.419071364
121.551758145
120.652622862
119.720860448
118.755681577
117.756316643
116.72202038
115.652077204
114.545807489
113.402574946
112.221795251
111.002946107
109.745579108
108.449333425
107.113951907
105.739300008
104.325387956
102.872396763
101.380708328
99.8509402161
98.2839851446
96.6810555025
95.0437330968
93.3740269652
91.6744298966
89.9479493006
88.1981905811
86.4293914607
84.646442889
82.8548682442
81.0607289838
79.2705612553
77.4908484162
75.7265560924
73.9577522896
72.0592499301
52.0017312196
48.4516781486
46.0629008757
44.1101281287
42.4441829509
40.9940036832
39.7147318254
38.5759075922
37.5553263907
36.6359829938
35.8044748395
35.0500049859
34.363704442
33.7381515927
33.1670263611
32.6448631323
32.1668765905
31.7288392258
31.3269939364
30.9579894166
30.6188295117
30.3068312636
30.0195887267
29.7549411113
29.5109447862
29.2858487242
29.0780729106
28.886189001
28.7089029132
28.5450395868
28.3935299136
28.253399567
28.123759147
28.003795337
27.892763005
27.7899784104
27.6948138391
27.6066930239
27.5250873429
27.4495138059
27.3795419424
27.314807472
27.2548898982
27.1994215162
27.148039443
27.1004287541
27.0563023454
27.0153948867
26.9774603457
26.9422696829
26.9096102283
26.8792846814
26.8511121103
26.8249233703
26.8005764991
26.7779126548
26.7567970966
26.737102862
26.7187096279
26.7015104463
26.6854289846
26.6703606802
26.6562122462
26.6429040845
26.6303628455
26.6185209364
26.6073171179
26.5966958419
26.5866057321
26.5769989109
26.5678315901
26.5590643556
26.5506613003
26.5425891983
26.5348178406
26.5273203198
26.5200720167
26.5130496854
26.5062322092
26.4996016333
26.4931425717
26.4868407758
26.4806828541
26.4746572652
26.468754631
26.4629667554
26.4572863887
26.4517080833
26.4462279038
26.4408423926
26.4355487837
26.4303461849
26.4252354107
26.4202178563
26.4152950701
26.4104699063
26.4057470946
26.4011327892
26.3966336801
26.392257635
26.3880142026
26.3839146392
26.3799716711
26.3762002644
26.3726169234
26.369240012
26.3660902972
26.363191045
26.3605673239
26.358246227
26.3562568078
26.3546325043
26.3534099691
26.3526292132
26.352334372
26.3525752287
26.3534062361
26.3548857322
26.3570756844
26.3600419547
26.3638567926
26.3686000026
26.3743565739
26.3812198082
26.3892895479
26.3986697985
26.4094659556
26.4217922155
26.4357716589
26.4515370684
26.4692287592
26.4889893085
26.5109687001
26.5353310874
26.5622681512
26.5920179128
26.6249049442
26.6614281363
26.7024778209
26.7496744934
26.805918276
26.8760848414
26.9676487826
27.0907757241
27.2561741189
27.471077021
27.7316580717
28.0137347838
28.2634044135
28.395491122
28.2894262315
27.7975567029
26.7580156129
25.027260326
22.5404739189
19.3541553828
15.6392999042
11.4625692308
6.57851438346
1.56761013243
55.1849058724
51.1322823545
48.4232927187
46.2759132158
44.4802494649
42.937048928
41.5872283458
40.3928134681
39.3271211191
38.3702851508
37.5069946388
36.7251331828
36.0148926228
35.3681665825
34.7781252969
34.2389171596
33.7454599798
33.2932951484
32.8784836055
32.4975292809
32.147319781
31.8250777733
31.5283197049
31.2548202677
31.0025814112
30.7698057175
30.5548730499
30.3563199684
30.1728213518
30.0031746535
29.8462863617
29.7011605081
29.5668882009
29.4426381712
29.3276480017
29.2212171149
29.1227008326
29.0315055424
28.9470833046
28.8689259233
28.7965554186
28.7295201912
28.6674107758
28.6098596935
28.556550975
28.507170642
28.4614198867
28.4190224284
28.3797222731
28.3432802192
28.3094753699
28.2781033919
28.248972639
28.221906266
28.1967254409
28.173290637
28.151461872
28.1311082686
28.1121095426
28.0943520437
28.0777269867
28.062145532
28.047521361
28.0337736229
28.0208264345
28.0086098368
27.9970601007
27.9861193512
27.9757338376
27.9658537858
27.9564334561
27.9474319332
27.9388117546
27.9305382521
27.9225796629
27.9149079686
27.907497541
27.9003236167
27.8933638939
27.8865997929
27.8800149286
27.8735939396
27.8673226225
27.8611883079
27.855180664
27.8492909733
27.8435107593
27.8378334346
27.8322550129
27.8267700636
27.8213752076
27.8160686779
27.8108505319
27.8057202655
27.8006795878
27.79572861
27.7908721555
27.7861141561
27.781461237
27.7769177836
27.7724940986
27.7681970255
27.7640400231
27.7600337952
27.7561940921
27.7525354111
27.7490777223
27.7458375208
27.7428418907
27.7401076944
27.737665639
27.7355398749
27.7337635508
27.7323719742
27.7314000079
27.7308900984
27.7308943348
27.7314504417
27.7326207909
27.7344509586
27.7370033904
27.7403397591
27.7445301294
27.7496428548
27.7557562551
27.7629431051
27.771274856
27.7808294077
27.7916792802
27.8039051588
27.8175817206
27.8327694013
27.8495162711
27.8678673538
27.8878634993
27.9095554162
27.9330223914
27.9584776891
27.9864467746
28.0181515713
28.0560716488
28.1047344736
28.1714176953
28.266148583
28.3999772869
28.5802648118
28.802775505
29.0420324975
29.2423895884
29.3139036449
29.1375683463
28.5630470343
27.4314580924
25.6030101612
23.0201923027
19.7432646557
15.9408489626
11.694163083
6.77601580084
1.66932320093
57.3939647667
53.4603616708
50.5963230817
48.3175242031
46.4218992645
44.8021255517
43.3923096956
42.1497184298
41.0444493402
40.0544370989
39.1628379581
38.3564443245
37.6246561838
36.9587823319
36.3515543453
35.796787085
35.289141902
34.8239609766
34.3971491368
34.0050868653
33.6445631191
33.3127208595
33.0070113542
32.7251553751
32.4651095868
32.2250377974
32.0032859244
31.7983602879
31.6089083865
31.4337025097
31.2716256338
31.1216593943
30.9828731933
30.8544145911
30.7355006928
30.6254112823
30.5234830309
30.4291047886
30.3417128323
30.2607871862
30.1858482235
30.1164549005
30.0521916412
29.9926702377
29.9375276192
29.886439941
29.8391035694
29.7952357582
29.7545724424
29.7168707243
29.6819046273
29.6494505854
29.6193227863
29.5913431319
29.5653411359
29.5411581748
29.518647494
29.4976727929
29.4781083286
29.4598377319
29.4427534998
29.4267565103
29.4117546874
29.3976631179
29.3844027924
29.3719010824
29.3600916456
29.3489139698
29.3383119622
29.3282339769
29.3186325175
29.3094646561
29.3006911587
29.2922761476
29.2841866757
29.2763930704
29.2688682643
29.2615866955
29.2545254075
29.247664897
29.2409876007
29.2344771547
29.228118891
29.2218995872
29.2158078031
29.2098340299
29.2039695987
29.1982070902
29.192541488
29.1869667908
29.1814789346
29.1760753236
29.1707550684
29.1655164228
29.1603602705
29.1552861091
29.150297478
29.1453969658
29.1405900176
29.1358793968
29.1312736482
29.1267781829
29.1224041222
29.1181607072
29.114061301
29.1101170371
29.1063458282
29.1027607808
29.0993849293
29.0962318845
29.0933273429
29.0906920425
29.0883521531
29.0863370671
29.0846768017
29.0834047024
29.0825647705
29.0821844604
29.0823149025
29.08299146
29.0842607108
29.0861691105
29.0887684745
29.0921059139
29.0962331075
29.1011950977
29.1070295391
29.113775315
29.1214595021
29.1301036549
29.1397144569
29.1502713391
29.1617228721
29.1739901425
29.1869552135
29.2004691797
29.214360429
29.2285322301
29.2431271056
29.2589146319
29.2778912384
29.304141473
29.3446629677
29.4093090589
29.5093745652
29.6523513178
29.8337633165
30.0270750522
30.1750966528
30.1843202056
29.9355944457
29.2804110997
28.0610096097
26.1421665808
23.4724298215
20.1137701183
16.2305995192
11.9169017422
6.96484124945
1.76556683479
59.1992799197
55.4752921118
52.574611943
50.2246458383
48.2608612225
46.5830731394
45.1252821808
43.8429207385
42.704295202
41.6859066042
40.7698184638
39.9420019567
39.1912401786
38.5083761037
37.8857870833