/*--------------------------------*- C++ -*----------------------------------*\
| =========                 |                                                 |
| \\      /  F ield         | OpenFOAM: The Open Source CFD Toolbox           |
|  \\    /   O peration     | Version:  2106                                  |
|   \\  /    A nd           | Website:  www.openfoam.com                      |
|    \\/     M anipulation  |                                                 |
\*---------------------------------------------------------------------------*/
FoamFile
{
    version     2.0;
    format      ascii;
    arch        "LSB;label=32;scalar=64";
    class       surfaceScalarField;
    location    "0.11";
    object      phi;
}
// * * * * * * * * * * * * * * * * * * * * * * * * * * * * * * * * * * * * * //

dimensions      [0 3 -1 0 0 0 0];

oriented        oriented;

internalField   nonuniform List<scalar> 
22100
(
3.384612032e-05
1.61538796843e-05
2.24572096708e-05
1.13889107082e-05
1.62585523896e-05
6.19865732653e-06
1.27977748537e-05
3.46077761199e-06
1.080464027e-05
1.99313468912e-06
9.60458642346e-06
1.20005398458e-06
8.85131785153e-06
7.53268737814e-07
8.36434845253e-06
4.86969568845e-07
8.04433058043e-06
3.20018027491e-07
7.83283690149e-06
2.11493792449e-07
7.69339662402e-06
1.39440325147e-07
7.60224519607e-06
9.11514034264e-08
7.54349133448e-06
5.87537639148e-08
7.50636772318e-06
3.71234548412e-08
7.4835467892e-06
2.28207492763e-08
7.47005057713e-06
1.34960307375e-08
7.46251707885e-06
7.53334629301e-09
7.45868614401e-06
3.83082853437e-09
7.45700609976e-06
1.67998795218e-09
7.45665253868e-06
3.53546124966e-10
7.45705834402e-06
-4.05799238014e-10
7.4577998763e-06
-7.41528932633e-10
7.45861596222e-06
-8.16104175343e-10
7.45940015745e-06
-7.84242740009e-10
7.46010260605e-06
-7.02522056853e-10
7.46070224742e-06
-5.99729852548e-10
7.46119629702e-06
-4.94140147133e-10
7.4615922075e-06
-3.95993231852e-10
7.46190217967e-06
-3.10044958206e-10
7.46213987747e-06
-2.37765719642e-10
7.46231859354e-06
-1.78786278298e-10
7.46245025873e-06
-1.31741331125e-10
7.46254499855e-06
-9.48196024618e-11
7.46261153225e-06
-6.66104227894e-11
7.46265620095e-06
-4.47339604294e-11
7.46268273524e-06
-2.65801778486e-11
7.46269596942e-06
-1.32563519361e-11
7.4627008047e-06
-4.83713760748e-12
7.46270000574e-06
8.05827618217e-13
7.46269519399e-06
4.81155437597e-12
7.46268764444e-06
7.53084668541e-12
7.46267823314e-06
9.37576339961e-12
7.4626675233e-06
1.06714581465e-11
7.46265577154e-06
1.17285408957e-11
7.46264299316e-06
1.27848290107e-11
7.46262902308e-06
1.40149558472e-11
7.46261354813e-06
1.55568940804e-11
7.46259611577e-06
1.75346441025e-11
7.46257621719e-06
1.99986394974e-11
7.46255329259e-06
2.300195982e-11
7.46252672177e-06
2.66119948863e-11
7.46249582263e-06
3.09043654131e-11
7.4624598416e-06
3.59740681378e-11
7.46241793914e-06
4.1922049538e-11
7.4623692001e-06
4.88143228547e-11
7.46231271193e-06
5.6624837865e-11
7.46224770551e-06
6.51801673536e-11
7.46217368138e-06
7.4179628544e-11
7.46209114953e-06
8.26126209009e-11
7.46200237603e-06
8.87609017087e-11
7.46191325848e-06
8.90270272566e-11
7.46183608543e-06
7.70328399413e-11
7.46178045801e-06
5.54814980861e-11
7.46176427511e-06
1.60844890712e-11
7.46182363644e-06
-5.93825392433e-11
7.46201755842e-06
-1.93876679687e-10
7.46244207788e-06
-4.24446313087e-10
7.46325002539e-06
-8.07880600567e-10
7.46468132589e-06
-1.43126040674e-09
7.46709811395e-06
-2.41681237331e-09
7.47095547371e-06
-3.85747230328e-09
7.47750708896e-06
-6.55179426285e-09
7.48844737676e-06
-1.09404870412e-08
7.50690527413e-06
-1.8458066331e-08
7.54057020659e-06
-3.36650475217e-08
7.61070004522e-06
-7.01298604001e-08
7.77951057623e-06
-1.68810490075e-07
8.24055511914e-06
-4.61044524779e-07
9.73045196213e-06
-1.48989687368e-06
-5.55712472254e-06
1.52875766548e-05
5.02175948553e-05
1.59362848807e-05
4.42441113796e-05
1.73623943129e-05
3.77795006935e-05
1.2663268159e-05
3.26461423884e-05
8.59413611711e-06
2.89380892895e-05
5.70118804609e-06
2.6359617956e-05
3.77852559948e-06
2.45875130785e-05
2.52537390381e-06
2.33734716762e-05
1.70101122177e-06
2.25435253723e-05
1.14996450389e-06
2.1978222822e-05
7.76796410728e-07
2.15955314308e-05
5.22131657811e-07
2.1338772883e-05
3.47909772011e-07
2.11685582862e-05
2.2896809183e-07
2.10574385329e-05
1.4824289562e-07
2.09863012198e-05
9.39577565911e-08
2.09418935477e-05
5.79034453943e-08
2.09150912253e-05
3.43354856195e-08
2.08996868604e-05
1.92350915299e-08
2.0891576084e-05
9.79072902915e-09
2.08878927494e-05
4.03687936924e-09
2.08870008168e-05
4.86127462164e-10
2.08873649503e-05
-1.10570248903e-09
2.08883801431e-05
-1.83138295567e-09
2.08896674486e-05
-2.07167504064e-09
2.08909864207e-05
-2.0216459198e-09
2.08922090147e-05
-1.82248100609e-09
2.08932768231e-05
-1.56209609451e-09
2.0894172549e-05
-1.29185275763e-09
2.08949020429e-05
-1.03966519985e-09
2.08954831466e-05
-8.18998601673e-10
2.08959394461e-05
-6.35222255801e-10
2.08962979802e-05
-4.90415144026e-10
2.08965682194e-05
-3.65190996251e-10
2.08967571935e-05
-2.55695902222e-10
2.08968872372e-05
-1.74856302274e-10
2.08969732952e-05
-1.12680037271e-10
2.08970259772e-05
-6.59496328302e-11
2.08970565153e-05
-3.53735938795e-11
2.08970716298e-05
-1.43174609976e-11
2.08970753808e-05
1.02643795261e-12
2.08970709988e-05
1.18575213655e-11
2.08970608348e-05
1.94852902253e-11
2.08970465506e-05
2.49283702737e-11
2.08970291534e-05
2.9146824528e-11
2.08970091714e-05
3.28499182413e-11
2.08969868005e-05
3.65270812763e-11
2.08969619959e-05
4.05358579636e-11
2.08969345084e-05
4.51902878952e-11
2.08969040392e-05
5.0598725031e-11
2.08968702631e-05
5.68591826305e-11
2.08968328667e-05
6.40508623358e-11
2.08967916205e-05
7.21904011422e-11
2.08967464468e-05
8.12263257847e-11
2.08966975169e-05
9.09898379533e-11
2.08966454452e-05
1.01084544949e-10
2.08965916609e-05
1.10650737185e-10
2.08965390572e-05
1.18011705985e-10
2.08964927227e-05
1.20642400778e-10
2.0896461758e-05
1.13550786476e-10
2.08964610977e-05
8.92500070463e-11
2.08965166038e-05
3.32716676985e-11
2.08966767694e-05
-8.336191297e-11
2.08970109012e-05
-2.78786550591e-10
2.08976370132e-05
-6.10059173835e-10
2.08986754034e-05
-1.09772312474e-09
2.09002933548e-05
-1.81173982829e-09
2.09028555237e-05
-2.98654151788e-09
2.09069201148e-05
-4.8724620499e-09
2.09133735482e-05
-7.88479489806e-09
2.09236693081e-05
-1.27127868825e-08
2.09403521724e-05
-2.05406195036e-08
2.09676305314e-05
-3.38304617425e-08
2.10126026378e-05
-5.59128919495e-08
2.10887073492e-05
-9.45630387402e-08
2.12224022095e-05
-1.6736007716e-07
2.14677283298e-05
-3.15455996721e-07
2.19351561662e-05
-6.36238199231e-07
2.2842840809e-05
-1.36872904874e-06
2.45313221022e-05
-3.17837810656e-06
-7.21652786781e-06
2.61907245791e-05
5.35171053173e-05
1.24191796117e-05
5.29349680122e-05
1.79445317362e-05
4.96538392161e-05
1.59443970948e-05
4.58401797358e-05
1.24077957746e-05
4.24400899151e-05
9.1012780972e-06
3.97291694821e-05
6.48944628365e-06
3.7687303481e-05
4.5672401578e-06
3.61976629826e-05
3.19065194256e-06
3.51326178051e-05
2.21500983464e-06
3.43823830161e-05
1.52703125568e-06
3.38606591661e-05
1.04385545324e-06
3.35024053088e-05
7.0616347184e-07
3.32596986092e-05
4.71674556977e-07
3.30977408937e-05
3.10200340615e-07
3.2991554148e-05
2.00144239298e-07
3.29234002706e-05
1.2605710373e-07
3.28808203935e-05
7.6915210136e-08
3.28551641813e-05
4.48912221166e-08
3.28404868977e-05
2.44679859819e-08
3.28327323479e-05
1.17914258387e-08
3.28290202417e-05
4.19822108986e-09
3.28282196559e-05
-3.05161285625e-10
3.28285901484e-05
-2.20196003877e-09
3.28296360318e-05
-3.1176772583e-09
3.28309455786e-05
-3.33133123812e-09
3.28322782389e-05
-3.15528165734e-09
3.28335076866e-05
-2.79167359387e-09
3.28345767152e-05
-2.36099938615e-09
3.28354684907e-05
-1.93155481055e-09
3.28361881471e-05
-1.53877410352e-09
3.2836751041e-05
-1.19824214829e-09
3.28371746068e-05
-9.14108306092e-10
3.283749443e-05
-6.85131759182e-10
3.28377485881e-05
-5.09948141673e-10
3.28379453323e-05
-3.71660876287e-10
3.28380745376e-05
-2.41909470395e-10
3.2838159576e-05
-1.50985641103e-10
3.28382126496e-05
-8.84381923527e-11
3.28382429976e-05
-4.46709413663e-11
3.28382565365e-05
-1.25415192204e-11
3.28382579332e-05
1.0415361416e-11
3.28382506308e-05
2.67422054076e-11
3.28382372694e-05
3.82634376638e-11
3.2838219569e-05
4.68609086441e-11
3.28381986026e-05
5.38846060805e-11
3.28381750011e-05
6.0247282465e-11
3.28381490505e-05
6.66320813358e-11
3.28381206807e-05
7.37046480608e-11
3.2838089879e-05
8.15165004995e-11
3.28380567088e-05
9.00984554778e-11
3.28380213318e-05
9.94573733736e-11
3.28379841451e-05
1.09404259895e-10
3.28379459388e-05
1.19500218858e-10
3.28379081329e-05
1.28926445406e-10
3.2837873209e-05
1.36195919733e-10
3.28378454543e-05
1.38609678568e-10
3.28378318576e-05
1.31768686748e-10
3.28378423784e-05
1.10194133554e-10
3.28378937599e-05
6.21366299052e-11
3.28380140213e-05
-3.11451247462e-11
3.28382533716e-05
-2.06266822633e-10
3.28386984261e-05
-5.28579480571e-10
3.28393854361e-05
-9.65876983935e-10
3.28403881356e-05
-1.61274906134e-09
3.28419598045e-05
-2.66932262431e-09
3.28444937403e-05
-4.34558303374e-09
3.2848500695e-05
-6.99341305569e-09
3.28548091018e-05
-1.11808514199e-08
3.28647575752e-05
-1.7833352707e-08
3.28805554575e-05
-2.85108352859e-08
3.29059397922e-05
-4.59251613152e-08
3.2946391146e-05
-7.42820184292e-08
3.30119851156e-05
-1.21507040309e-07
3.31201347724e-05
-2.02712802682e-07
3.33006563796e-05
-3.47881746543e-07
3.36032474184e-05
-6.18047078825e-07
3.41016871053e-05
-1.13467789309e-06
3.4866504591e-05
-2.13354653559e-06
3.57659468782e-05
-4.07782014198e-06
-7.32911241058e-06
3.58785322803e-05
5.35105664751e-05
8.90861318857e-06
5.55742220532e-05
1.58808762864e-05
5.52424819294e-05
1.62761373673e-05
5.35977848877e-05
1.40524929963e-05
5.15418462907e-05
1.11572169172e-05
4.95802787253e-05
8.45101409269e-06
4.79243510681e-05
6.2231680556e-06
4.66181426218e-05
4.49686059205e-06
4.56304765529e-05
3.2026760389e-06
4.49051392481e-05
2.25236860132e-06
4.43841305718e-05
1.56486406391e-06
4.40167620589e-05
1.07353182467e-06
4.37620747572e-05
7.26361631649e-07
4.35884293381e-05
4.83845504262e-07
4.34720994077e-05
3.16473925707e-07
4.33956768356e-05
2.02479477238e-07
4.33466133088e-05
1.25978604303e-07
4.33160019519e-05
7.5502513086e-08
4.32976102322e-05
4.2859685379e-08
4.32871433131e-05
2.22583393757e-08
4.3281696651e-05
9.64486277519e-09
4.32790701208e-05
2.32131584679e-09
4.32784618061e-05
-1.59373688746e-09
4.32788689283e-05
-3.52492222804e-09
4.32797440755e-05
-4.20661630811e-09
4.3280788229e-05
-4.19957038389e-09
4.32818314356e-05
-3.83500364264e-09
4.32827853925e-05
-3.31507048348e-09
4.32836113957e-05
-2.7576722115e-09
4.32842997253e-05
-2.22722472327e-09
4.32848567915e-05
-1.7554360195e-09
4.32852965725e-05
-1.35401585872e-09
4.32856331674e-05
-1.02184002537e-09
4.3285875414e-05
-7.52281452776e-10
4.32860403369e-05
-5.36634569306e-10
4.32861622082e-05
-3.63796377705e-10
4.3286225442e-05
-2.1421234185e-10
4.3286274335e-05
-1.37322227935e-10
4.32863041669e-05
-7.45090966941e-11
4.32863178163e-05
-2.62186589328e-11
4.32863200276e-05
8.15985021363e-12
4.32863136913e-05
3.30305101278e-11
4.32863013457e-05
5.05795900019e-11
4.32862844552e-05
6.37659964517e-11
4.32862639076e-05
7.45026762981e-11
4.3286240271e-05
8.40018086323e-11
4.32862138957e-05
9.31533815978e-11
4.32861851369e-05
1.02614686769e-10
4.32861542383e-05
1.12544905244e-10
4.32861214581e-05
1.22964738217e-10
4.32860872714e-05
1.33687343119e-10
4.32860525073e-05
1.44194726148e-10
4.32860184804e-05
1.53573768147e-10
4.32859871717e-05
1.60334410186e-10
4.32859614435e-05
1.62074962719e-10
4.32859452562e-05
1.54952951631e-10
4.32859443907e-05
1.32738353275e-10
4.32859699706e-05
8.4636986283e-11
4.32860386902e-05
-6.64367164908e-12
4.32861741312e-05
-1.66707656417e-10
4.32863797568e-05
-4.12030107685e-10
4.32867735633e-05
-9.22491328033e-10
4.32874815634e-05
-1.67391480006e-09
4.3288674316e-05
-2.80546949381e-09
4.32905552799e-05
-4.55021879527e-09
4.32934751763e-05
-7.26541021588e-09
4.32980007586e-05
-1.15189507563e-08
4.33050251816e-05
-1.82052748089e-08
4.33159572775e-05
-2.8765507393e-08
4.33330027507e-05
-4.55564395361e-08
4.33595563349e-05
-7.24789281443e-08
4.34013323656e-05
-1.16058243461e-07
4.34674358678e-05
-1.87610695173e-07
4.35720305786e-05
-3.07307598691e-07
4.37358203297e-05
-5.1167154801e-07
4.39846176456e-05
-8.66844465125e-07
4.43368444316e-05
-1.48690481266e-06
4.47556351002e-05
-2.55233746106e-06
4.4999538176e-05
-4.32172350152e-06
-6.81959616767e-06
4.44900222435e-05
5.27351380717e-05
6.17347518117e-06
5.57309344937e-05
1.28850799993e-05
5.73114742186e-05
1.46955977981e-05
5.76109916489e-05
1.3752975754e-05
5.71335226648e-05
1.16346861219e-05
5.63194689043e-05
9.26506809034e-06
5.54489905394e-05
7.09364665425e-06
5.46629834654e-05
5.28286785785e-06
5.40136939385e-05
3.85196568634e-06
5.35061723046e-05
2.75989026253e-06
5.31242911081e-05
1.94674518719e-06
5.28450428748e-05
1.35277989793e-06
5.26455262181e-05
9.25878067599e-07
5.25058415415e-05
6.23529935882e-07
5.24098978833e-05
4.12417354035e-07
5.23452557832e-05
2.67121394891e-07
5.23025954309e-05
1.68638838349e-07
5.22750993896e-05
1.02998494757e-07
5.22578788148e-05
6.00802364399e-08
5.22474846618e-05
3.2652475348e-08
5.22415075648e-05
1.56219249269e-08
5.22383499775e-05
5.47883580693e-09
5.22369736187e-05
-2.17480759355e-10
5.22366119876e-05
-3.16341928746e-09
5.22368175123e-05
-4.41227721608e-09
5.22372979355e-05
-4.68012197688e-09
5.22378794327e-05
-4.41661723454e-09
5.22384632583e-05
-3.89900664767e-09
5.22389971687e-05
-3.2916969394e-09
5.22394569184e-05
-2.68709672004e-09
5.22398354778e-05
-2.1341231346e-09
5.22401350105e-05
-1.65367241444e-09
5.22403641993e-05
-1.25113597298e-09
5.22405359214e-05
-9.24080849417e-10
5.22406630534e-05
-6.63807154158e-10
5.22407579586e-05
-4.58709423749e-10
5.2240846578e-05
-3.02820782975e-10
5.22408996992e-05
-1.90432921178e-10
5.22409382294e-05
-1.13044798875e-10
5.22409589489e-05
-4.69674331914e-11
5.22409653032e-05
1.75414444094e-12
5.22409618346e-05
3.64405714638e-11
5.22409515032e-05
6.08740558076e-11
5.22409363423e-05
7.89377251974e-11
5.22409176293e-05
9.32839786763e-11
5.22408962713e-05
1.0547896879e-10
5.22408734841e-05
1.16095105341e-10
5.22408474614e-05
1.28800994968e-10
5.22408188717e-05
1.4127609555e-10
5.22407884719e-05
1.53465199087e-10
5.22407567226e-05
1.65497593304e-10
5.22407244225e-05
1.76529159676e-10
5.22406928531e-05
1.8517536761e-10
5.22406639837e-05
1.89262502206e-10
5.22406409602e-05
1.85190951699e-10
5.22406297802e-05
1.6623352667e-10
5.22406487052e-05
1.13880906357e-10
5.22406981172e-05
3.52270087017e-11
5.22408025433e-05
-1.11132230348e-10
5.22409598318e-05
-3.24086529596e-10
5.22412517232e-05
-7.03999089827e-10
5.22417255864e-05
-1.39639254211e-09
5.22424401574e-05
-2.38847130865e-09
5.22435312635e-05
-3.89651875252e-09
5.22452031685e-05
-6.22205011847e-09
5.22477602301e-05
-9.82241685382e-09
5.2251659237e-05
-1.5417939397e-08
5.22576007557e-05
-2.41468026097e-08
5.22666626019e-05
-3.7827389293e-08
5.22804981852e-05
-5.93920832505e-08
5.23016309844e-05
-9.36118246023e-08
5.23338847039e-05
-1.48312088131e-07
5.23827886261e-05
-2.36514762993e-07
5.24555746078e-05
-3.80093674917e-07
5.25595763137e-05
-6.15673270666e-07
5.26959718809e-05
-1.00324008729e-06
5.28431287588e-05
-1.63406172904e-06
5.29193347751e-05
-2.62854373538e-06
5.27089665778e-05
-4.11135565057e-06
-6.00720976202e-06
5.18965802565e-05
5.19834866043e-05
4.18998864919e-06
5.50586643107e-05
9.80990244433e-06
5.76386137841e-05
1.21156484868e-05
5.93259040876e-05
1.20656856417e-05
6.02280167016e-05
1.07325737274e-05
6.05929288167e-05
8.9001562069e-06
6.06482871943e-05
7.03828849844e-06
6.05531949293e-05
5.37796029791e-06
6.04029635556e-05
4.00219716249e-06
6.02479275907e-05
2.91492623981e-06
6.01108083453e-05
2.08386435201e-06
5.99990573171e-05
1.46453076586e-06
5.99125533656e-05
1.01238180569e-06
5.98479759627e-05
6.8810710793e-07
5.98010906567e-05
4.59302448826e-07
5.97678284588e-05
3.00383430172e-07
5.97447140197e-05
1.91753173445e-07
5.97289669461e-05
1.18745513276e-07
5.97184547216e-05
7.05924320619e-08
5.97115885336e-05
3.95186344004e-08
5.97072134172e-05
1.99969917251e-08
5.97045295869e-05
8.16258417637e-09
5.97029684147e-05
1.34357810734e-09
5.97021147385e-05
-2.30987471835e-09
5.97017080193e-05
-4.00569013e-09
5.97015688917e-05
-4.54111532324e-09
5.97015809314e-05
-4.42876715563e-09
5.97016704545e-05
-3.98863767623e-09
5.97017925191e-05
-3.41387576807e-09
5.97019212999e-05
-2.81600042027e-09
5.9702042462e-05
-2.25541284752e-09
5.97021493647e-05
-1.76069713996e-09
5.97022400195e-05
-1.3418933838e-09
5.97023160576e-05
-1.00018969125e-09
5.97023794852e-05
-7.27267563753e-10
5.97024314737e-05
-5.10698578339e-10
5.97024698324e-05
-3.41164293396e-10
5.97024935069e-05
-2.14096139255e-10
5.97024981564e-05
-1.17703361223e-10
5.97024872307e-05
-3.60792082265e-11
5.97024789835e-05
9.93890048411e-12
5.97024674659e-05
4.78921246667e-11
5.97024568468e-05
7.14535234108e-11
5.97024439684e-05
9.18264317473e-11
5.97024281828e-05
1.09139257598e-10
5.97024093144e-05
1.24476297157e-10
5.97023867739e-05
1.3880864543e-10
5.97023629902e-05
1.52767632169e-10
5.97023379614e-05
1.66461967102e-10
5.97023117776e-05
1.7976079591e-10
5.97022852834e-05
1.92056061293e-10
5.97022597217e-05
2.0211735065e-10
5.97022368544e-05
2.08052825153e-10
5.97022189454e-05
2.07186587025e-10
5.97022081854e-05
1.95979115126e-10
5.97022040784e-05
1.70377138445e-10
5.97021903894e-05
1.27595539228e-10
5.97021963795e-05
2.92276711067e-11
5.9702215771e-05
-1.30564749349e-10
5.97023622893e-05
-4.70650631241e-10
5.97026232627e-05
-9.6499188511e-10
5.97029637493e-05
-1.73686116184e-09
5.97034802084e-05
-2.90488741725e-09
5.97042573259e-05
-4.67357962232e-09
5.97054071592e-05
-7.37182387837e-09
5.97070933781e-05
-1.15085960969e-08
5.97095531599e-05
-1.78777127032e-08
5.97131300952e-05
-2.77237580022e-08
5.97183171957e-05
-4.30145066128e-08
5.97258060152e-05
-6.68809056141e-08
5.97365237908e-05
-1.04329598078e-07
5.97515650415e-05
-1.63353351028e-07
5.97718238157e-05
-2.56773627236e-07
5.97967893857e-05
-4.05059416587e-07
5.98213796457e-05
-6.40263696861e-07
5.98286728314e-05
-1.01053346985e-06
5.97761298807e-05
-1.58151894704e-06
5.95740969667e-05
-2.42651103363e-06
5.90602453005e-05
-3.59750426038e-06
-5.01157785828e-06
5.8064613351e-05
5.14373055649e-05
2.75268315821e-06
5.42658211801e-05
6.98138698895e-06
5.72496444039e-05
9.13182543191e-06
5.97900294803e-05
9.52530075769e-06
6.1720130829e-05
8.80247259644e-06
6.30883066639e-05
7.5319805957e-06
6.40167209534e-05
6.10987441515e-06
6.46292410074e-05
4.76544040026e-06
6.50258073026e-05
3.60563095383e-06
6.5279079707e-05
2.66165383794e-06
6.54389703641e-05
1.9239736133e-06
6.55386797778e-05
1.36482119794e-06
6.55999070293e-05
9.51154353514e-07
6.56367058644e-05
6.5130806131e-07
6.56581355508e-05
4.37872574617e-07
6.56700163508e-05
2.8850248876e-07
6.56760718161e-05
1.85697617178e-07
6.56786679758e-05
1.16149299601e-07
6.56792922448e-05
6.99681250521e-08
6.5678864491e-05
3.99463444575e-08
6.56779411837e-05
2.09202319532e-08
6.56768522097e-05
9.25145999144e-09
6.56757829677e-05
2.41269594912e-09
6.56748162952e-05
-1.34333651983e-09
6.56739892678e-05
-3.17879136614e-09
6.56733060476e-05
-3.85801139936e-09
6.56727566823e-05
-3.87951016133e-09
6.56723243745e-05
-3.55643841451e-09
6.5671990506e-05
-3.08012277234e-09
6.56717372387e-05
-2.56285755343e-09
6.56715484572e-05
-2.06675930077e-09
6.567141032e-05
-1.62268037385e-09
6.56713111528e-05
-1.24282468128e-09
6.56712396759e-05
-9.28775608856e-10
6.56711873514e-05
-6.74966579142e-10
6.56711494489e-05
-4.72788636518e-10
6.56711216999e-05
-3.1339554867e-10
6.56710972431e-05
-1.89628844209e-10
6.56710779428e-05
-9.84172598108e-11
6.56710766635e-05
-3.48452858853e-11
6.56710768725e-05
9.66204775277e-12
6.56710701511e-05
5.45470597905e-11
6.56710586576e-05
8.29092897522e-11
6.56710454366e-05
1.05057866568e-10
6.56710307551e-05
1.23892810634e-10
6.5671014364e-05
1.41004395839e-10
6.5670995952e-05
1.57406338396e-10
6.56709754102e-05
1.73509291139e-10
6.56709545064e-05
1.87540422029e-10
6.56709326362e-05
2.01749379373e-10
6.56709095227e-05
2.15219026026e-10
6.56708857576e-05
2.2587927733e-10
6.56708622874e-05
2.31497993851e-10
6.5670840491e-05
2.28955840216e-10
6.56708225869e-05
2.13862071282e-10
6.56708130002e-05
1.79950454932e-10
6.56708209063e-05
1.19679592507e-10
6.56708209216e-05
2.92042954095e-11
6.56708732244e-05
-1.82871642422e-10
6.5670938764e-05
-5.36180124767e-10
6.5671047686e-05
-1.07387467558e-09
6.56712076218e-05
-1.89673073448e-09
6.56714302364e-05
-3.12742912036e-09
6.56717289587e-05
-4.97224466698e-09
6.56721104762e-05
-7.75331475089e-09
6.56725673563e-05
-1.19654646644e-08
6.56730619979e-05
-1.83723537033e-08
6.56734957252e-05
-2.81575006128e-08
6.56736507084e-05
-4.31695207944e-08
6.56730782944e-05
-6.63085118379e-08
6.56708893027e-05
-1.02140602198e-07
6.56652861319e-05
-1.57750205078e-07
6.56526398946e-05
-2.44127446197e-07
6.56256571326e-05
-3.78076748969e-07
6.55698635572e-05
-5.84470331484e-07
6.54573669828e-05
-8.98037099565e-07
6.52376449686e-05
-1.36179710832e-06
6.48279401887e-05
-2.01680648873e-06
6.41106909915e-05
-2.88025541341e-06
-3.88791603281e-06
6.29870290786e-05
5.10850426023e-05
1.66764064166e-06
5.3611845385e-05
4.45458437655e-06
5.66873181399e-05
6.05635286021e-06
5.96894491751e-05
6.523169921e-06
6.22997308315e-05
6.19219115806e-06
6.44136931211e-05
5.41801851965e-06
6.60471891179e-05
4.47637860555e-06
6.72686188192e-05
3.54401083431e-06
6.81598931783e-05
2.71435666296e-06
6.87977508019e-05
2.02379620355e-06
6.92467201338e-05
1.4750041936e-06
6.95579158346e-05
1.05362534602e-06
6.97703491356e-05
7.38720864051e-07
6.99130464453e-05
5.08610560354e-07
7.00071974726e-05
3.43721382785e-07
7.00680310656e-05
2.27668773527e-07
7.01063402462e-05
1.47388355474e-07
7.01296725971e-05
9.28168946833e-08
7.01432353389e-05
5.64053374257e-08
7.01505701923e-05
3.26114333689e-08
7.01540490595e-05
1.74412808892e-08
7.01552346104e-05
8.06579563126e-09
7.01551368073e-05
2.51036578972e-09
7.01543811831e-05
-5.87848254366e-10
7.01533522449e-05
-2.14997890907e-09
7.01522694027e-05
-2.77528160116e-09
7.01512518006e-05
-2.86201338212e-09
7.01503556967e-05
-2.66044120138e-09
7.01496001637e-05
-2.32470429331e-09
7.0148983411e-05
-1.9462288463e-09
7.01484928957e-05
-1.57637181362e-09
7.01481113698e-05
-1.24127359415e-09
7.01478203878e-05
-9.51936338519e-10
7.0147602079e-05
-7.10521626977e-10
7.01474410524e-05
-5.13954918336e-10
7.01473249332e-05
-3.56657900947e-10
7.01472442416e-05
-2.32686517871e-10
7.01471919979e-05
-1.37380445909e-10
7.01471589789e-05
-6.54202257924e-11
7.01471268778e-05
-2.79678482924e-12
7.01471019415e-05
3.45265161813e-11
7.01470901685e-05
6.62533132597e-11
7.01470809852e-05
9.20554200976e-11
7.01470723831e-05
1.13672954181e-10
7.01470634748e-05
1.32879760479e-10
7.01470537652e-05
1.50861130095e-10
7.01470430473e-05
1.68323504304e-10
7.01470312147e-05
1.85561083006e-10
7.01470165962e-05
2.02355656678e-10
7.01470000282e-05
2.18449266541e-10
7.01469824094e-05
2.32885954476e-10
7.01469642885e-05
2.43978886565e-10
7.01469463793e-05
2.49347905405e-10
7.01469294703e-05
2.45796666898e-10
7.01469140019e-05
2.29271287964e-10
7.01468988689e-05
1.95037855621e-10
7.01468801305e-05
1.38392330387e-10
7.01468677615e-05
4.15762883735e-11
7.01468426751e-05
-1.57754951542e-10
7.01468360856e-05
-5.29539592058e-10
7.01468247984e-05
-1.06251587823e-09
7.01467832773e-05
-1.85511660385e-09
7.01466801676e-05
-3.02422528973e-09
7.01464575204e-05
-4.7495427164e-09
7.01460094903e-05
-7.30526573884e-09
7.01451525819e-05
-1.11085417223e-08
7.01435719143e-05
-1.67916682255e-08
7.0140729033e-05
-2.53146059104e-08
7.01357113036e-05
-3.8151782436e-08
7.0126983894e-05
-5.75810588182e-08
7.01120025524e-05
-8.71592132319e-08
7.00864465961e-05
-1.32194234448e-07
7.00429887498e-05
-2.00669648508e-07
6.99692698372e-05
-3.04357901561e-07
6.98446620417e-05
-4.59862726906e-07
6.9635575625e-05
-6.88951008398e-07
6.92901226521e-05
-1.01634442988e-06
6.87354222405e-05
-1.46210624581e-06
6.78835327777e-05
-2.0283662672e-06
-2.67286373344e-06
6.66684803724e-05
5.08804134667e-05
7.87227269331e-07
5.31704671672e-05
2.1645308622e-06
5.62177517465e-05
3.00906847373e-06
5.94382729641e-05
3.30264890464e-06
6.24449739041e-05
3.18549042954e-06
6.50382578197e-05
2.82473480084e-06
6.71548704204e-05
2.35976617048e-06
6.88135652461e-05
1.88531612384e-06
7.00731632011e-05
1.45475876049e-06
7.10056455872e-05
1.09131379787e-06
7.1681218172e-05
7.99431520459e-07
7.21613417283e-05
5.73501647887e-07
7.24964715895e-05
4.03590834216e-07
7.27262786411e-05
2.78803343297e-07
7.2880986664e-05
1.890132209e-07
7.29830618286e-05
1.25593505635e-07
7.30488657891e-05
8.15843232086e-08
7.30901024525e-05
5.15801770796e-08
7.31150062521e-05
3.15014822416e-08
7.31292782327e-05
1.83393780199e-08
7.31368017256e-05
9.91768390209e-09
7.31401774693e-05
4.68992143485e-09
7.31411142448e-05
1.57344736682e-09
7.31407047124e-05
-1.78454435944e-10
7.31396314821e-05
-1.07687259601e-09
7.31383058826e-05
-1.44979116405e-09
7.31369628417e-05
-1.51907409876e-09
7.31357260306e-05
-1.42373379848e-09
7.31346510067e-05
-1.24979336772e-09
7.31337532984e-05
-1.04864439599e-09
7.31330264287e-05
-8.49629796569e-10
7.31324525655e-05
-6.67527219249e-10
7.31320094704e-05
-5.0892844454e-10
7.31316743517e-05
-3.75449138756e-10
7.31314261468e-05
-2.65760090563e-10
7.31312465485e-05
-1.77050162705e-10
7.31311199467e-05
-1.06073917954e-10
7.31310320526e-05
-4.948915221e-11
7.3130967339e-05
-7.34211298351e-13
7.31309330838e-05
3.14030711957e-11
7.31309086711e-05
5.88681673025e-11
7.31308926409e-05
8.22186657372e-11
7.31308821809e-05
1.02479817558e-10
7.31308748777e-05
1.20992722447e-10
7.31308690081e-05
1.38836632913e-10
7.31308633732e-05
1.56656570639e-10
7.3130857147e-05
1.74763611539e-10
7.31308497962e-05
1.93141987288e-10
7.31308409792e-05
2.11372672891e-10
7.31308305931e-05
2.28966139189e-10
7.31308186337e-05
2.44888275956e-10
7.31308051381e-05
2.57435393118e-10
7.31307901475e-05
2.64244347577e-10
7.31307736863e-05
2.62150189837e-10
7.31307558501e-05
2.47017304333e-10
7.31307371125e-05
2.13715651029e-10
7.31307187572e-05
1.56725183326e-10
7.31306882758e-05
7.20734007335e-11
7.31306317095e-05
-1.01134729267e-10
7.31305465028e-05
-4.4424370694e-10
7.31304057431e-05
-9.21645654837e-10
7.31301652796e-05
-1.61454041134e-09
7.31297533213e-05
-2.61218059033e-09
7.31290488712e-05
-4.04504209621e-09
7.31278494059e-05
-6.10578250023e-09
7.31258238819e-05
-9.08303384963e-09
7.31224296108e-05
-1.33974051396e-08
7.3116770209e-05
-1.96551830913e-08
7.31073765461e-05
-2.87580665753e-08
7.30918690236e-05
-4.20735235328e-08
7.30664593528e-05
-6.17495231552e-08
7.30250000221e-05
-9.07349290752e-08
7.2957630743e-05
-1.33300397252e-07
7.28487830125e-05
-1.95510313323e-07
7.26743811373e-05
-2.85461054274e-07
7.2398438207e-05
-4.13008298025e-07
7.19702032353e-05
-5.8810989004e-07
7.13247543699e-05
-8.16657556115e-07
7.03910244314e-05
-1.09463655317e-06
-1.39872196087e-06
6.91168825077e-05
5.07871728883e-05
5.44803226015e-11
5.29516509321e-05
5.3023900905e-11
5.59606906666e-05
2.89386272953e-11
5.92633254282e-05
1.43459905336e-11
6.24488131117e-05
2.94841888472e-12
6.52735539581e-05
-5.86399636808e-12
6.76333319766e-05
-1.1699556836e-11
6.95186627759e-05
-1.45747491936e-11
7.09734365078e-05
-1.49312788891e-11
7.20647636437e-05
-1.33636396643e-11
7.28642055766e-05
-1.04980304313e-11
7.34377140779e-05
-6.98218960029e-12
7.3841308236e-05
-3.47109177876e-12
7.4120112087e-05
-6.48508351781e-13
7.43091241487e-05
1.04164113083e-12
7.44347165973e-05
9.67878983817e-13
7.45163018565e-05
-1.00302728633e-12
7.45678866831e-05
-4.7089190973e-12
7.45993976276e-05
-9.53253146712e-12
7.4617751455e-05
-1.45457162726e-11
7.4627687662e-05
-1.86499188854e-11
7.46323981588e-05
-2.07231373232e-11
7.46339920661e-05
-2.06112415392e-11
7.46338328046e-05
-1.9331677159e-11
7.46327732461e-05
-1.74328725463e-11
7.46313382943e-05
-1.4941236769e-11
7.46298309923e-05
-1.18656099931e-11
7.46284153528e-05
-8.19028563872e-12
7.46271692319e-05
-3.77927858109e-12
7.4626119059e-05
1.40940594746e-12
7.46252630191e-05
6.28661339169e-12
7.46245834531e-05
1.19288946519e-11
7.46240564221e-05
1.80240753151e-11
7.46236564178e-05
2.45142814587e-11
7.46233591682e-05
3.14761115409e-11
7.46231430466e-05
3.90697353893e-11
7.46229895441e-05
4.74268628179e-11
7.4622883442e-05
5.65983742943e-11
7.462281603e-05
6.66396305731e-11
7.4622770833e-05
7.6538000823e-11
7.46227429135e-05
8.67149751706e-11
7.46227268273e-05
9.82398894744e-11
7.46227182954e-05
1.1097498181e-10
7.46227142886e-05
1.25018145331e-10
7.46227127292e-05
1.4049186016e-10
7.46227121871e-05
1.57373518721e-10
7.46227116821e-05
1.7549828494e-10
7.46227105303e-05
1.9453382759e-10
7.46227081918e-05
2.13911163947e-10
7.46227043637e-05
2.32916492884e-10
7.46226988485e-05
2.50430945296e-10
7.46226914029e-05
2.64820046826e-10
7.46226816367e-05
2.73892802975e-10
7.46226688613e-05
2.74796497755e-10
7.46226518531e-05
2.63925820231e-10
7.46226285684e-05
2.36952523688e-10
7.46225962847e-05
1.89006142229e-10
7.46225524222e-05
1.15966418264e-10
7.46224728602e-05
-2.15021751388e-11
7.4622319909e-05
-2.91182795182e-10
7.46220807422e-05
-6.82352076631e-10
7.46216871939e-05
-1.22088156659e-09
7.46210404068e-05
-1.96531352886e-09
7.46199765517e-05
-2.98113714216e-09
7.46182289442e-05
-4.35818031872e-09
7.46153754628e-05
-6.22959441798e-09
7.46107365422e-05
-8.75855250182e-09
7.46031981777e-05
-1.21168618156e-08
7.45909518647e-05
-1.65117495654e-08
7.45711056942e-05
-2.22272920205e-08
7.45392224858e-05
-2.98662700451e-08
7.44882022542e-05
-3.97146484084e-08
7.44069246597e-05
-5.20228066777e-08
7.42783650455e-05
-6.69507985697e-08
7.40771191547e-05
-8.42154656763e-08
7.37667270388e-05
-1.02616346106e-07
7.32979556243e-05
-1.19338890126e-07
7.26104528615e-05
-1.29155070706e-07
7.16406469056e-05
-1.24830766304e-07
-9.77329524775e-08
7.03396577754e-05
5.07871718516e-05
-7.87117258688e-07