/*--------------------------------*- C++ -*----------------------------------*\
| =========                 |                                                 |
| \\      /  F ield         | OpenFOAM: The Open Source CFD Toolbox           |
|  \\    /   O peration     | Version:  2106                                  |
|   \\  /    A nd           | Website:  www.openfoam.com                      |
|    \\/     M anipulation  |                                                 |
\*---------------------------------------------------------------------------*/
FoamFile
{
    version     2.0;
    format      ascii;
    arch        "LSB;label=32;scalar=64";
    class       surfaceScalarField;
    location    "0.3";
    object      phi;
}
// * * * * * * * * * * * * * * * * * * * * * * * * * * * * * * * * * * * * * //

dimensions      [0 3 -1 0 0 0 0];

oriented        oriented;

internalField   nonuniform List<scalar> 
18840
(
3.37543058801e-05
1.62456941215e-05
2.25359608746e-05
1.1218341339e-05
1.6302378349e-05
6.23358526229e-06
1.28098255843e-05
3.49255291807e-06
1.08065799444e-05
2.00324499513e-06
9.60476904436e-06
1.20181095602e-06
8.85167851095e-06
7.53090591684e-07
8.36503053102e-06
4.86647808587e-07
8.04518589689e-06
3.19844534346e-07
7.83374171753e-06
2.11444139863e-07
7.6942817943e-06
1.39459927138e-07
7.60308017587e-06
9.12016477855e-08
7.54426532071e-06
5.88149151619e-08
7.50707711232e-06
3.71882999686e-08
7.48418915122e-06
2.28879431191e-08
7.4706235383e-06
1.35655453221e-08
7.46302093068e-06
7.60256483389e-09
7.45913808385e-06
3.88274525112e-09
7.45749826296e-06
1.6396925311e-09
7.45714514731e-06
3.53041514982e-10
7.45748249988e-06
-3.37378393766e-10
7.45813359076e-06
-6.51091673075e-10
7.45888560666e-06
-7.5202252641e-10
7.45961931853e-06
-7.33695968685e-10
7.46027583719e-06
-6.56464428855e-10
7.46083233176e-06
-5.56482227245e-10
7.46128650979e-06
-4.54167007064e-10
7.46164675503e-06
-3.60178224309e-10
7.46192590425e-06
-2.79152827636e-10
7.46213799671e-06
-2.12166807107e-10
7.46229649561e-06
-1.58534876287e-10
7.46241310395e-06
-1.16683164312e-10
7.46249761537e-06
-8.46305716576e-11
7.46255809418e-06
-6.05194847111e-11
7.46260078912e-06
-4.27184538409e-11
7.4626304642e-06
-2.97368372011e-11
7.46265083997e-06
-2.03810211359e-11
7.46266463369e-06
-1.37675569583e-11
7.46267378185e-06
-9.15845011786e-12
7.46267976622e-06
-5.97601346981e-12
7.46268365638e-06
-3.83864784758e-12
7.46268619122e-06
-2.4726413216e-12
7.46268778314e-06
-1.55385894469e-12
7.46268872704e-06
-9.03325163207e-13
7.46268931124e-06
-5.59282356476e-13
7.46268968121e-06
-3.86581480527e-13
7.46268994976e-06
-2.98148759436e-13
7.46269021509e-06
-2.62312299705e-13
7.46269050835e-06
-2.85185091137e-13
7.4626908372e-06
-3.18841442415e-13
7.46269124038e-06
-3.36059743506e-13
7.46269170856e-06
-3.63948003627e-13
7.46269221016e-06
-3.90345882391e-13
7.46269275288e-06
-4.04011545086e-13
7.46269333356e-06
-4.29779398739e-13
7.46269393041e-06
-4.62466067339e-13
7.46269455405e-06
-4.83103049593e-13
7.46269521772e-06
-5.05162710806e-13
7.46269591192e-06
-5.42179239527e-13
7.46269662598e-06
-5.75815404496e-13
7.46269736815e-06
-6.04400702783e-13
7.46269814228e-06
-6.46279238126e-13
7.46269894459e-06
-6.95927880102e-13
7.46269978593e-06
-7.39717749373e-13
7.46270067661e-06
-7.79866509504e-13
7.46270160773e-06
-8.08891391044e-13
7.46270256738e-06
-8.27050703401e-13
7.46270353929e-06
-8.58383059975e-13
7.46270450173e-06
-8.93475280427e-13
7.4627054652e-06
-9.19608509691e-13
7.46270645245e-06
-9.66369187696e-13
7.46270746339e-06
-1.03007814102e-12
7.46270852549e-06
-1.0632277251e-12
7.46270966514e-06
-1.0690299619e-12
7.46271084608e-06
-1.07897756515e-12
7.46271203229e-06
-1.10346119589e-12
7.46271323616e-06
-1.15522577757e-12
7.4627144697e-06
-1.23171370179e-12
7.46271574043e-06
-1.29008169134e-12
7.46271706094e-06
-1.32412325109e-12
7.46271841585e-06
-1.38193438857e-12
7.46271979582e-06
-1.44746764085e-12
7.46272125134e-06
-1.46366293815e-12
7.46272280573e-06
-1.46941412225e-12
7.4627243838e-06
-1.51599007051e-12
7.46272595023e-06
-1.56309878189e-12
7.46272757361e-06
-1.60974539284e-12
7.46272926653e-06
-1.7024036775e-12
7.46273097988e-06
-1.79496440453e-12
7.46273274164e-06
-1.84942382119e-12
7.46273459737e-06
-1.92204308103e-12
7.46273653659e-06
-2.00297750192e-12
7.46273856584e-06
-2.039984674e-12
7.4627406919e-06
-2.0977824974e-12
7.46274287987e-06
-2.22207964762e-12
7.4627451598e-06
-2.33428583931e-12
7.4627476407e-06
-2.42954357087e-12
7.46275031564e-06
-2.57282267228e-12
7.46275307722e-06
-2.71388129828e-12
7.46275598154e-06
-2.84909144284e-12
7.46275917644e-06
-3.10566005402e-12
7.46276266611e-06
-3.45294337727e-12
7.46276648241e-06
-3.79526248311e-12
7.46277077571e-06
-4.21340486115e-12
7.46277558844e-06
-4.78574731337e-12
7.46278102844e-06
-5.46263262651e-12
7.46278733374e-06
-6.27652117368e-12
7.46279468082e-06
-7.28823539987e-12
7.46280328971e-06
-8.51443238355e-12
7.46281351177e-06
-1.00695054082e-11
7.46282568116e-06
-1.2085228315e-11
7.4628402445e-06
-1.45934436977e-11
7.46285785747e-06
-1.76495564786e-11
7.46287927404e-06
-2.13912413595e-11
7.46290543747e-06
-2.60480883052e-11
7.46293742676e-06
-3.18421058038e-11
7.46297652999e-06
-3.90024164546e-11
7.46302454176e-06
-4.79017043188e-11
7.46308364862e-06
-5.8985557592e-11
7.46315637478e-06
-7.27063058156e-11
7.46324598206e-06
-8.96259794296e-11
7.46335661214e-06
-1.10621189794e-10
7.46349339324e-06
-1.36864820852e-10
7.46366355796e-06
-1.70235721215e-10
7.4638775997e-06
-2.14162399173e-10
7.46413838047e-06
-2.60636581779e-10
7.46446005237e-06
-3.21656260005e-10
7.46485815157e-06
-3.98057143481e-10
7.46535116423e-06
-4.93031268e-10
7.46596166981e-06
-6.10562562166e-10
7.46671772442e-06
-7.55996735208e-10
7.46765436334e-06
-9.36340660376e-10
7.46881448561e-06
-1.15998132634e-09
7.4702514058e-06
-1.4370768495e-09
7.47203188616e-06
-1.78058922184e-09
7.47423842678e-06
-2.20667811206e-09
7.47697340364e-06
-2.7351623476e-09
7.48036447197e-06
-3.39107207066e-09
7.48457027573e-06
-4.20582451396e-09
7.48978866359e-06
-5.21850203939e-09
7.49626714514e-06
-6.47846488098e-09
7.50431521549e-06
-8.04806340329e-09
7.51432112588e-06
-1.00060160792e-08
7.52677397409e-06
-1.24529279374e-08
7.54229214949e-06
-1.55182325777e-08
7.56166156506e-06
-1.93693842439e-08
7.58588719073e-06
-2.42255065268e-08
7.61626394674e-06
-3.03768488848e-08
7.65447746155e-06
-3.82138099896e-08
7.70274986967e-06
-4.82725908638e-08
7.76406063318e-06
-6.1311071055e-08
7.84251189999e-06
-7.84517497664e-08
7.94400659818e-06
-1.01494676219e-07
8.07772900466e-06
-1.33722213362e-07
8.25995900136e-06
-1.82230140689e-07
8.524868233e-06
-2.64909093007e-07
8.95654027391e-06
-4.3167194048e-07
9.7907169057e-06
-8.3417672455e-07
1.17519983817e-05
-1.96128157605e-06
-5.3113167305e-06
1.70633157414e-05
5.01388843589e-05
1.61068137887e-05
4.41591283449e-05
1.71980932517e-05
3.77598735803e-05
1.26328404491e-05
3.26495149055e-05
8.60291232965e-06
2.89465821627e-05
5.7061774072e-06
2.63676029946e-05
3.78078983181e-06
2.45938850702e-05
2.52680845119e-06
2.3378398032e-05
1.70213471498e-06
2.25473234721e-05
1.15091902494e-06
2.19811564507e-05
7.77611121603e-07
2.15978041296e-05
5.22812331525e-07
2.13405412845e-05
3.48464639709e-07
2.11699438707e-05
2.29412355117e-07
2.10585362449e-05
1.48595961032e-07
2.09871852271e-05
9.42389393924e-08
2.09426216235e-05
5.81289580183e-08
2.09157070014e-05
3.45169852523e-08
2.09002071218e-05
1.93824821717e-08
2.08919195536e-05
9.9271504581e-09
2.08880543537e-05
4.21818961393e-09
2.08867846574e-05
9.32311078573e-10
2.08869496622e-05
-8.16057466297e-10
2.08878279968e-05
-1.63032535637e-09
2.08889864986e-05
-1.89221117174e-09
2.08901799471e-05
-1.84986714652e-09
2.08912805475e-05
-1.65702092202e-09
2.08922319962e-05
-1.40563295759e-09
2.08930196709e-05
-1.14784233763e-09
2.089365125e-05
-9.10756795446e-10
2.08941450112e-05
-7.0611038067e-10
2.08945231731e-05
-5.36844532359e-10
2.0894807693e-05
-4.01269490761e-10
2.08950182634e-05
-2.95339001206e-10
2.08951718631e-05
-2.14216880441e-10
2.08952824047e-05
-1.53239097361e-10
2.08953608206e-05
-1.0814304326e-10
2.08954156955e-05
-7.52518496495e-11
2.08954535984e-05
-5.16234162649e-11
2.08954793673e-05
-3.48928321978e-11
2.0895496598e-05
-2.31799286604e-11
2.08955079086e-05
-1.50896911399e-11
2.08955150939e-05
-9.6066566708e-12
2.08955195457e-05
-5.96813349441e-12
2.08955222694e-05
-3.60773183047e-12
2.08955238679e-05
-2.12870807608e-12
2.08955247311e-05
-1.23083466973e-12
2.08955251384e-05
-7.35025517943e-13
2.08955254145e-05
-5.40836923113e-13
2.08955256706e-05
-4.53389836436e-13
2.08955259172e-05
-4.35003095079e-13
2.08955261838e-05
-4.38525374689e-13
2.08955265136e-05
-4.579795401e-13
2.08955268816e-05
-4.92233810962e-13
2.08955272701e-05
-5.34333109748e-13
2.08955276976e-05
-5.92221159185e-13
2.08955281546e-05
-6.66289293264e-13
2.08955286297e-05
-7.31527634609e-13
2.08955291412e-05
-7.90198770402e-13
2.0895529692e-05
-8.55380532543e-13
2.08955302648e-05
-9.23941400257e-13
2.08955308579e-05
-9.90361869501e-13
2.08955314869e-05
-1.06206656039e-12
2.08955321431e-05
-1.14661831397e-12
2.08955328229e-05
-1.23664982593e-12
2.089553355e-05
-1.31035566565e-12
2.08955343184e-05
-1.36919682874e-12
2.08955350983e-05
-1.43056605615e-12
2.08955358892e-05
-1.50733182396e-12
2.08955366666e-05
-1.58185196167e-12
2.0895537421e-05
-1.63359550748e-12
2.08955381942e-05
-1.67884128145e-12
2.08955390062e-05
-1.73670702388e-12
2.08955398601e-05
-1.79057409878e-12
2.08955407789e-05
-1.84222588458e-12
2.08955417379e-05
-1.91915454476e-12
2.0895542689e-05
-2.01886341381e-12
2.08955436449e-05
-2.12595573297e-12
2.08955446393e-05
-2.23179039401e-12
2.08955456665e-05
-2.31860859895e-12
2.08955467199e-05
-2.39462267157e-12
2.08955478216e-05
-2.49228895038e-12
2.08955489775e-05
-2.58964448348e-12
2.08955501855e-05
-2.63996275993e-12
2.08955514733e-05
-2.68809676328e-12
2.08955528137e-05
-2.80892231172e-12
2.08955541394e-05
-2.96737265391e-12
2.08955555089e-05
-3.10231904335e-12
2.08955570093e-05
-3.24466130122e-12
2.08955585826e-05
-3.42364658881e-12
2.08955602005e-05
-3.6078739601e-12
2.08955619587e-05
-3.78379616071e-12
2.08955638792e-05
-3.95472643828e-12
2.0895565917e-05
-4.12012651582e-12
2.08955681217e-05
-4.33083423161e-12
2.08955705527e-05
-4.63616734176e-12
2.08955732187e-05
-4.98008851366e-12
2.08955762284e-05
-5.32230152182e-12
2.08955796861e-05
-5.76903470637e-12
2.08955835123e-05
-6.39406176337e-12
2.08955877396e-05
-7.13181390913e-12
2.08955926641e-05
-7.98744826128e-12
2.08955984388e-05
-9.05373404836e-12
2.0895605085e-05
-1.03565994296e-11
2.08956128923e-05
-1.19462352234e-11
2.08956221591e-05
-1.39449487192e-11
2.08956331573e-05
-1.64032791358e-11
2.08956463767e-05
-1.93957147532e-11
2.08956623006e-05
-2.30651257211e-11
2.08956813586e-05
-2.74884860621e-11
2.08957039832e-05
-3.26459574152e-11
2.08957315372e-05
-3.95964941164e-11
2.08957661088e-05
-4.91362825825e-11
2.08958087817e-05
-6.02990753672e-11
2.08958613465e-05
-7.39214010546e-11
2.08959262215e-05
-9.07269976548e-11
2.08960062947e-05
-1.1164673705e-10
2.08961050078e-05
-1.37648899102e-10
2.08962269368e-05
-1.69772907404e-10
2.08963777496e-05
-2.09563190215e-10
2.08965641147e-05
-2.58925960843e-10
2.08967944059e-05
-3.20012454989e-10
2.08970790958e-05
-3.95554329712e-10
2.08974310208e-05
-4.8892623818e-10
2.08978652216e-05
-6.04534038942e-10
2.08983993265e-05
-7.48087649397e-10
2.08990657447e-05
-9.26996620834e-10
2.08998932004e-05
-1.14912154794e-09
2.09009192539e-05
-1.42420760148e-09
2.09021912008e-05
-1.76474258276e-09
2.09037672865e-05
-2.18650988036e-09
2.09057199017e-05
-2.70875369752e-09
2.0908139373e-05
-3.35560552067e-09
2.09111371552e-05
-4.15736352409e-09
2.0914851151e-05
-5.1511129838e-09
2.09194533179e-05
-6.38286485889e-09
2.09251570125e-05
-7.91028781468e-09
2.09322267014e-05
-9.80507537092e-09
2.09409917567e-05
-1.21566023881e-08
2.0951862251e-05
-1.50768255203e-08
2.0965349027e-05
-1.87059857365e-08
2.09820904611e-05
-2.32204543334e-08
2.1002885393e-05
-2.88430647738e-08
2.10287356841e-05
-3.5856284368e-08
2.1060902786e-05
-4.46202022128e-08
2.11009815658e-05
-5.55972564438e-08
2.115099881e-05
-6.93866595938e-08
2.1213547486e-05
-8.67738171573e-08
2.12919732638e-05
-1.08802241435e-07
2.13906425548e-05
-1.36882853784e-07
2.15153411576e-05
-1.72970549186e-07
2.16738951157e-05
-2.19864408684e-07
2.18772035019e-05
-2.81760295208e-07
2.2141074489e-05
-3.65365864746e-07
2.24897008461e-05
-4.82348821564e-07
2.2962592263e-05
-6.55122528824e-07
2.36286874603e-05
-9.31004972785e-07
2.46131623681e-05
-1.41614765826e-06
2.61345659222e-05
-2.35558086518e-06
2.84931126666e-05
-4.31982811841e-06
-8.46024644284e-06
3.16420420674e-05
5.35844287053e-05
1.25223878272e-05
5.29166006655e-05
1.78659193727e-05
4.96393011823e-05
1.59101394917e-05
4.58382172874e-05
1.24039967386e-05
4.24428747415e-05
9.10151989384e-06
3.97331592017e-05
6.49050508765e-06
3.76912451899e-05
4.56872239036e-06
3.62011667656e-05
3.19221304676e-06
3.51355933001e-05
2.21649242285e-06
3.43848441895e-05
1.52836018984e-06
3.38626586641e-05
1.04499789742e-06
3.35040064176e-05
7.07117000928e-07
3.32609624392e-05
4.7245633312e-07
3.30987204461e-05
3.10837950343e-07
3.29922904895e-05
2.00668911676e-07
3.29239192431e-05
1.26500089111e-07
3.28811292249e-05
7.73068483136e-08
3.28552505493e-05
4.52610578761e-08
3.28403339755e-05
2.48436493239e-08
3.28323540031e-05
1.2198112646e-08
3.28286280782e-05
4.65820139459e-09
3.28274041452e-05
4.07889794326e-10
3.2827563614e-05
-1.78974400012e-09
3.28284096729e-05
-2.73827708249e-09
3.28295257965e-05
-2.96597328068e-09
3.28306755233e-05
-2.80667721254e-09
3.28317356443e-05
-2.46578940234e-09
3.28326520771e-05
-2.06435313302e-09
3.2833410732e-05
-1.66944498028e-09
3.28340189388e-05
-1.31443907453e-09
3.28344944675e-05
-1.01251550977e-09
3.28348587029e-05
-7.65537059173e-10
3.28351326582e-05
-5.69348444933e-10
3.28353354137e-05
-4.17057698984e-10
3.28354833397e-05
-3.0115479089e-10
3.28355897071e-05
-2.14483153558e-10
3.28356650939e-05
-1.50655493637e-10
3.28357178114e-05
-1.04326692786e-10
3.28357541351e-05
-7.11798716766e-11
3.28357787608e-05
-4.77762601386e-11
3.28357951916e-05
-3.14886770301e-11
3.28358059733e-05
-2.03504102192e-11
3.28358128981e-05
-1.28792111594e-11
3.2835817223e-05
-7.96083030573e-12
3.28358198651e-05
-4.80001431066e-12
3.2835821487e-05
-2.84720078987e-12
3.28358224473e-05
-1.69720252544e-12
3.28358229354e-05
-1.01544394623e-12
3.2835823201e-05
-6.09659013365e-13
3.28358233953e-05
-4.76079838508e-13
3.28358235707e-05
-4.53732006831e-13
3.28358237794e-05
-4.66200809363e-13
3.28358240182e-05
-5.20392004904e-13
3.28358242644e-05
-5.95153107346e-13
3.28358245401e-05
-6.73995285358e-13
3.28358248636e-05
-7.87217629719e-13
3.28358252116e-05
-8.87655450299e-13
3.28358255872e-05
-9.64639799032e-13
3.28358259997e-05
-1.04285653119e-12
3.28358264306e-05
-1.14838840329e-12
3.28358268695e-05
-1.25986962328e-12
3.2835827332e-05
-1.35940585246e-12
3.28358278219e-05
-1.45256197093e-12
3.28358283479e-05
-1.55937259316e-12
3.2835828916e-05
-1.64370596698e-12
3.28358295049e-05
-1.72919566857e-12
3.28358300788e-05
-1.82852051024e-12
3.28358306433e-05
-1.93665429703e-12
3.28358312075e-05
-2.04831910194e-12
3.2835831741e-05
-2.13109668144e-12
3.28358322807e-05
-2.18012766527e-12
3.28358328632e-05
-2.23299411372e-12
3.28358334751e-05
-2.3056439227e-12
3.28358341204e-05
-2.39044357637e-12
3.2835834794e-05
-2.50395468732e-12
3.28358354586e-05
-2.65403689085e-12
3.28358361281e-05
-2.80719149196e-12
3.28358368475e-05
-2.93980987429e-12
3.28358375916e-05
-3.06093167763e-12
3.28358383275e-05
-3.16992015851e-12
3.28358391083e-05
-3.26464371927e-12
3.28358399631e-05
-3.36676966137e-12
3.28358408385e-05
-3.47773709099e-12
3.28358417442e-05
-3.59520378675e-12
3.28358427265e-05
-3.77325194772e-12
3.28358437387e-05
-4.02149469969e-12
3.28358447768e-05
-4.25501221173e-12
3.28358459257e-05
-4.46916237605e-12
3.28358471732e-05
-4.74108135484e-12
3.28358484903e-05
-5.04139000262e-12
3.28358499728e-05
-5.30866099397e-12
3.28358516523e-05
-5.59773892391e-12
3.28358534531e-05
-5.95987816243e-12
3.28358554305e-05
-6.38574172416e-12
3.28358577279e-05
-6.9136744192e-12
3.28358603662e-05
-7.55727868753e-12
3.28358633742e-05
-8.26327198449e-12
3.28358668799e-05
-9.10360624362e-12
3.28358708445e-05
-1.01803678915e-11
3.2835875346e-05
-1.15729334438e-11
3.28358808711e-05
-1.34296375814e-11
3.28358875981e-05
-1.56102371057e-11
3.2835895609e-05
-1.83333649652e-11
3.283590525e-05
-2.16514345704e-11
3.28359170199e-05
-2.57124988765e-11
3.28359313585e-05
-3.07041964113e-11
3.2835948908e-05
-3.6860474913e-11
3.28359705126e-05
-4.45387769775e-11
3.28359971507e-05
-5.40981458307e-11
3.28360303895e-05
-6.5914767067e-11
3.2836071383e-05
-8.05383489216e-11
3.28361210624e-05
-9.8683441307e-11
3.28361820831e-05
-1.21172856452e-10
3.28362572452e-05
-1.48978015798e-10
3.28363499539e-05
-1.83346370337e-10
3.28364644172e-05
-2.25981150735e-10
3.28366057191e-05
-2.78858590222e-10
3.28367802447e-05
-3.44287061771e-10
3.28369960216e-05
-4.25264121181e-10
3.28372628092e-05
-5.25570705533e-10
3.2837592599e-05
-6.49814038835e-10
3.28380005418e-05
-8.03530781208e-10
3.28385054405e-05
-9.93830865516e-10
3.2839130504e-05
-1.22956858074e-09
3.28399042739e-05
-1.52189804293e-09
3.28408616554e-05
-1.88432416331e-09
3.28420465429e-05
-2.33394590109e-09
3.28435134707e-05
-2.89105862672e-09
3.28453300872e-05
-3.58114063762e-09
3.28475799354e-05
-4.43609290649e-09
3.28503661924e-05
-5.49513602458e-09
3.28538172359e-05
-6.80695110428e-09
3.285809221e-05
-8.43243764066e-09
3.2863387848e-05
-1.04470338688e-08
3.28699487615e-05
-1.29441617254e-08
3.28780788067e-05
-1.60404077123e-08
3.28881546947e-05
-1.98810186812e-08
3.29006449757e-05
-2.46469412729e-08
3.29161328608e-05
-3.05645806347e-08
3.29353443905e-05
-3.79175395478e-08
3.29591856684e-05
-4.70618642302e-08
3.29887894246e-05
-5.84467683236e-08
3.30255744533e-05
-7.26412834748e-08
3.30713238747e-05
-9.03696975154e-08
3.31282869885e-05
-1.12560461047e-07
3.31993141837e-05
-1.40414108649e-07
3.32880398949e-05
-1.75499893886e-07
3.33991340478e-05
-2.19896688511e-07
3.35386569849e-05
-2.76406198485e-07
3.37145779502e-05
-3.48891795698e-07
3.39375560486e-05
-4.42842155174e-07
3.4222163676e-05
-5.66367572701e-07
3.45888637982e-05
-7.32065900719e-07
3.5067228284e-05
-9.60712932807e-07
3.57009601593e-05
-1.28885430648e-06
3.65545737901e-05
-1.78461874883e-06
3.77175946185e-05
-2.57916889792e-06
3.92846983036e-05
-3.9226849293e-06
4.12323145811e-05
-6.26744428919e-06
-1.02626278684e-05
4.30346958174e-05
5.35705211366e-05
8.95186786876e-06
5.55863059549e-05
1.58501340776e-05
5.52410586236e-05
1.62553860933e-05
5.35976159015e-05
1.40474396862e-05
5.15429060379e-05
1.11562297942e-05
4.95819403616e-05
8.45147054522e-06
4.7926251078e-05
6.22441159749e-06
4.66200396233e-05
4.49842437678e-06
4.56322336584e-05
3.20429832014e-06
4.490668748e-05
2.25390635024e-06
4.43854421406e-05
1.56624323023e-06
4.40178329129e-05
1.07472631942e-06
4.3762912477e-05
7.27376818203e-07
4.35890449878e-05
4.84705424297e-07
4.3472501766e-05
3.17212128123e-07
4.33958686735e-05
2.0313311326e-07
4.33465905296e-05
1.26584880846e-07
4.3315756312e-05
7.60951898519e-08
4.32971347883e-05
4.34651109252e-08
4.3286433152e-05
2.28997157364e-08
4.32807397989e-05
1.03515146395e-08
4.32781170321e-05
3.03063015148e-09
4.32772903859e-05
-9.63062401325e-10
4.32774549081e-05
-2.90279760193e-09
4.32781063118e-05
-3.61739529172e-09
4.32789443759e-05
-3.64470042202e-09
4.32797993452e-05
-3.32079891044e-09
4.32805836059e-05
-2.84873801982e-09
4.32812593876e-05
-2.34527466062e-09
4.32818174437e-05
-1.87256322631e-09
4.32822640061e-05
-1.45920744931e-09
4.32826127071e-05
-1.11426963405e-09
4.32828794221e-05
-8.36054578299e-10
4.32830797705e-05
-6.17439709772e-10
4.32832279368e-05
-4.49301287441e-10
4.32833358844e-05
-3.22390559941e-10
4.32834133671e-05
-2.28148632092e-10
4.3283468233e-05
-1.59192286751e-10
4.32835065524e-05
-1.09464619768e-10
4.32835329048e-05
-7.41128633373e-11
4.32835507499e-05
-4.9334487688e-11
4.32835626385e-05
-3.22351996892e-11
4.32835704028e-05
-2.06394373655e-11
4.32835753354e-05
-1.29203977017e-11
4.3283578368e-05
-7.875817504e-12
4.32835801897e-05
-4.6672391872e-12
4.32835812351e-05
-2.71163258676e-12
4.32835818229e-05
-1.55833008293e-12
4.32835822223e-05
-9.11147382961e-13
4.32835824966e-05
-6.12954348778e-13
4.32835826864e-05
-4.9989009356e-13
4.32835828491e-05
-4.48641692999e-13
4.32835830037e-05
-4.68104440396e-13
4.32835831395e-05
-5.26287518177e-13
4.32835832923e-05
-6.00574527628e-13
4.32835834554e-05
-6.93007282826e-13
4.32835836253e-05
-7.8860920687e-13
4.32835837968e-05
-8.8098416476e-13
4.32835839796e-05
-9.89839988175e-13
4.32835841798e-05
-1.13637494446e-12
4.32835843892e-05
-1.2986725031e-12
4.32835846116e-05
-1.4537227787e-12
4.32835848657e-05
-1.59897744024e-12
4.32835851317e-05
-1.72490468796e-12
4.32835854066e-05
-1.82099843353e-12
4.32835856845e-05
-1.91039082e-12
4.32835859487e-05
-2.00099351939e-12
4.328358622e-05
-2.08476266907e-12
4.32835864796e-05
-2.16129194593e-12
4.3283586691e-05
-2.23206335709e-12
4.32835868734e-05
-2.28881254583e-12
4.32835870762e-05
-2.36404182778e-12
4.3283587298e-05
-2.46924128502e-12
4.32835875298e-05
-2.57388045755e-12
4.32835877687e-05
-2.69694375018e-12
4.32835879951e-05
-2.86553303371e-12
4.32835882208e-05
-3.03230453353e-12
4.32835884805e-05
-3.16829100098e-12
4.32835887572e-05
-3.30454619429e-12
4.32835890164e-05
-3.43045421798e-12
4.32835892968e-05
-3.51756091172e-12
4.32835896377e-05
-3.61770156234e-12
4.32835899887e-05
-3.77067456241e-12
4.32835903351e-05
-3.95007016945e-12
4.32835907504e-05
-4.18754207283e-12
4.32835912345e-05
-4.51102894807e-12
4.32835917399e-05
-4.83457126779e-12
4.32835923142e-05
-5.14603320748e-12
4.32835930078e-05
-5.54156311087e-12
4.32835938158e-05
-5.97624045914e-12
4.32835947821e-05
-6.35686924232e-12
4.32835959492e-05
-6.77627059117e-12
4.32835972821e-05
-7.32854947907e-12
4.32835988236e-05
-7.98063446433e-12
4.32836007446e-05
-8.77014391336e-12
4.32836031114e-05
-9.77841890727e-12
4.32836059111e-05
-1.09858944898e-11
4.32836093207e-05
-1.24421125028e-11
4.32836136097e-05
-1.43167711449e-11
4.32836187842e-05
-1.66443108846e-11
4.32836248718e-05
-1.94359543362e-11
4.32836322866e-05
-2.28720346856e-11
4.32836412462e-05
-2.71770689306e-11
4.32836521243e-05
-3.24726240105e-11
4.32836654871e-05
-3.8981589633e-11
4.3283681849e-05
-4.70158808536e-11
4.32837019201e-05
-5.69332712017e-11
4.32837266573e-05
-6.92310685789e-11
4.32837570909e-05
-8.4492776067e-11
4.32837945546e-05
-1.03345922359e-10
4.328384079e-05
-1.26708502695e-10
4.32838979042e-05
-1.55724176793e-10
4.32839685005e-05
-1.91640246367e-10
4.32840557231e-05
-2.36060883298e-10
4.32841634237e-05
-2.9099701385e-10
4.32842965593e-05
-3.59001348584e-10
4.32844611613e-05
-4.43273628367e-10
4.32846645915e-05
-5.4764559843e-10
4.32849161806e-05
-6.76790381373e-10
4.32852273802e-05
-8.36729199986e-10
4.32856123191e-05
-1.03475486931e-09
4.32860886075e-05
-1.27987658286e-09
4.32866782197e-05
-1.58335246923e-09
4.32874081119e-05
-1.95934704684e-09
4.3288311553e-05
-2.42527858236e-09
4.32894299728e-05
-3.00264015801e-09
4.32908144936e-05
-3.71822256243e-09
4.32925282689e-05
-4.60479793893e-09
4.32946499568e-05
-5.70291974023e-09
4.32972771735e-05
-7.06318112891e-09
4.33005302646e-05
-8.74822799138e-09
4.33045585538e-05
-1.08355228285e-08
4.33095475303e-05
-1.34216112928e-08
4.33157266199e-05
-1.66264145288e-08
4.33233804592e-05
-2.05985091969e-08
4.333286264e-05
-2.55228994068e-08
4.3344611546e-05
-3.16300908111e-08
4.33591716674e-05
-3.92072345614e-08
4.33772202467e-05
-4.86131244016e-08
4.33995995796e-05
-6.02967606853e-08
4.342735884e-05
-7.48211471711e-08
4.34618071449e-05
-9.28951353024e-08
4.35045805722e-05
-1.15414787445e-07
4.35577289097e-05
-1.43517996901e-07
4.36238276376e-05
-1.78658958517e-07
4.37061241302e-05
-2.22710593233e-07
4.38087325919e-05
-2.78108466889e-07
4.39368953413e-05
-3.48059027295e-07
4.40973384159e-05
-4.36848930239e-07
4.42987684737e-05
-5.50321994483e-07
4.45525730469e-05
-6.96646473496e-07
4.48738068251e-05
-8.87601085113e-07
4.52825591464e-05
-1.14081844897e-06
4.58056729031e-05
-1.48382649246e-06
4.64782489459e-05
-1.9614301899e-06
4.73426148531e-05
-2.64898503198e-06
4.84376887807e-05
-3.67424308072e-06
4.97605226422e-05
-5.24551930832e-06
5.11595997777e-05
-7.66652130741e-06
-1.12416403539e-05
5.21386124149e-05
5.27606087881e-05
6.19125917207e-06
5.57402410492e-05
1.28705022088e-05
5.73124118656e-05
1.46832146627e-05
5.76111978847e-05
1.37486536767e-05
5.71338686688e-05
1.16335591265e-05
5.63199840331e-05
9.26535501182e-06
5.54496448565e-05
7.09475066602e-06
5.46637027008e-05
5.28436639405e-06
5.40144127976e-05
3.85358815298e-06
5.35068422536e-05
2.76147687306e-06
5.31248777879e-05
1.94820766617e-06
5.28455238887e-05
1.35408031887e-06
5.26458878006e-05
9.2701300513e-07
5.2506075155e-05
6.24518058605e-07
5.24099974876e-05
4.13289787965e-07
5.23452158979e-05
2.6791466414e-07
5.23024108354e-05
1.69389839582e-07
5.22747658586e-05
1.03740071414e-07
5.22573936085e-05
6.0837292561e-08
5.22468515153e-05
3.34417753115e-08
5.22407552385e-05
1.64477552638e-08
5.22374822124e-05
6.30360838194e-09
5.22359410131e-05
5.78156872571e-10
5.22354257512e-05
-2.38752025645e-09
5.22354776754e-05
-3.66937257687e-09
5.22358125671e-05
-3.97959975929e-09
5.22362598705e-05
-3.76812276876e-09
5.223672265e-05
-3.31163206815e-09
5.22371504535e-05
-2.77313881964e-09
5.22375208554e-05
-2.24299225951e-09
5.22378277265e-05
-1.76618385607e-09
5.22380739855e-05
-1.36058886241e-09
5.22382666998e-05
-1.02874618209e-09
5.22384143246e-05
-7.65065107633e-10
5.22385254095e-05
-5.60375177899e-10
5.22386076766e-05
-4.0460795085e-10
5.22386676498e-05
-2.88100528552e-10
5.22387107533e-05
-2.02285122791e-10
5.22387413149e-05
-1.40011817345e-10
5.22387626666e-05
-9.54793795383e-11
5.22387773647e-05
-6.40776985476e-11
5.22387873356e-05
-4.22486287991e-11
5.22387939979e-05
-2.73164102087e-11
5.22387983594e-05
-1.72884467573e-11
5.22388011381e-05
-1.06837670563e-11
5.22388029037e-05
-6.42998883528e-12
5.22388040271e-05
-3.76916575514e-12
5.22388046972e-05
-2.14671765594e-12
5.22388050808e-05
-1.18268092384e-12
5.22388053001e-05
-6.58103047981e-13
5.22388053987e-05
-4.07741175635e-13
5.22388054495e-05
-3.28414559112e-13
5.22388055054e-05
-3.69040173601e-13
5.2238805571e-05
-4.55991398279e-13
5.22388056441e-05
-5.41211271442e-13
5.22388057431e-05
-6.17990556253e-13
5.22388058444e-05
-7.00214565286e-13
5.22388059277e-05
-8.01737750203e-13
5.22388060031e-05
-9.25300606403e-13
5.22388060935e-05
-1.07613119738e-12
5.22388061948e-05
-1.24617538966e-12
5.22388063066e-05
-1.40573423373e-12
5.22388064457e-05
-1.53063228648e-12
5.22388065925e-05
-1.62685417931e-12
5.22388067286e-05
-1.71428917547e-12
5.22388068589e-05
-1.81686605858e-12
5.2238806971e-05
-1.92864840314e-12
5.22388070626e-05
-2.02006922278e-12
5.22388071493e-05
-2.09255231079e-12
5.22388071923e-05
-2.16012709633e-12
5.22388071801e-05
-2.22321949424e-12
5.22388071658e-05
-2.29847228101e-12
5.22388071671e-05
-2.40075766218e-12
5.22388071601e-05
-2.52134323042e-12
5.22388071445e-05
-2.66548235143e-12
5.22388071292e-05
-2.83819514367e-12
5.22388071164e-05
-3.00728910724e-12
5.22388071198e-05
-3.15051777038e-12
5.223880714e-05
-3.28187381602e-12
5.22388071415e-05
-3.39775461352e-12
5.22388071205e-05
-3.48934868874e-12
5.22388071267e-05
-3.61055911448e-12
5.22388071485e-05
-3.81525795016e-12
5.22388071424e-05
-4.06946435886e-12
5.22388071709e-05
-4.34103483958e-12
5.22388072867e-05
-4.66166299295e-12
5.22388074289e-05
-5.0337725675e-12
5.22388075992e-05
-5.43040371279e-12
5.22388078848e-05
-5.86350411528e-12
5.22388082926e-05
-6.33710761692e-12
5.22388088052e-05
-6.84189657228e-12
5.22388094732e-05
-7.43287072636e-12
5.22388103172e-05
-8.17354719311e-12
5.22388113478e-05
-9.04904124921e-12
5.22388127062e-05
-1.00815440265e-11
5.22388145111e-05
-1.14021447821e-11
5.22388167218e-05
-1.30868762935e-11
5.22388194334e-05
-1.51402979162e-11
5.22388229223e-05
-1.76785391567e-11
5.22388273043e-05
-2.08604128486e-11
5.22388327149e-05
-2.47771830794e-11
5.2238839486e-05
-2.95840629067e-11
5.22388479211e-05
-3.55510010631e-11
5.2238858381e-05
-4.29018570227e-11
5.22388714321e-05
-5.1970468217e-11
5.22388876265e-05
-6.32091590963e-11
5.22389076754e-05
-7.70788741034e-11
5.22389326098e-05
-9.41947927764e-11
5.22389635955e-05
-1.15384233639e-10
5.22390020079e-05
-1.41623787295e-10
5.22390495056e-05
-1.74139572141e-10
5.22391081744e-05
-2.14412712784e-10
5.22391807917e-05
-2.64202442645e-10
5.22392706787e-05
-3.2580980228e-10
5.22393818058e-05
-4.02061902836e-10
5.22395192966e-05
-4.96425641233e-10
5.22396894812e-05
-6.13312448076e-10
5.22399000464e-05
-7.58044518343e-10
5.22401605368e-05
-9.37185591151e-10
5.22404829388e-05
-1.15900164752e-09
5.22408819684e-05
-1.43370060576e-09
5.22413758639e-05
-1.77378068431e-09
5.22419873611e-05
-2.1948459134e-09
5.22427445109e-05
-2.71636393981e-09
5.22436817485e-05
-3.36244734957e-09
5.22448420496e-05
-4.16279164044e-09
5.22462785058e-05
-5.15440654834e-09
5.22480565946e-05
-6.3828650104e-09
5.22502576956e-05
-7.90434392255e-09
5.2252983052e-05
-9.78872990245e-09
5.22563575496e-05
-1.21228283988e-08
5.2260535667e-05
-1.50140492882e-08
5.22657094487e-05
-1.85957771775e-08
5.22721166314e-05
-2.3033777813e-08
5.22800515701e-05
-2.85336669193e-08
5.22898796829e-05
-3.53510574376e-08
5.23020538702e-05
-4.38041925197e-08
5.23171357716e-05
-5.42892836383e-08
5.23358231187e-05
-6.73005750389e-08
5.23589823932e-05
-8.34558929464e-08
5.2387690205e-05
-1.03528889726e-07
5.24232861828e-05
-1.28491250521e-07
5.24674389674e-05
-1.5956782452e-07
5.25222298244e-05
-1.9830900863e-07
5.25902590095e-05
-2.46688057096e-07
5.26747814267e-05
-3.07233000019e-07
5.27798817904e-05
-3.83208954923e-07
5.291070045e-05
-4.78877400774e-07
5.3073723444e-05
-5.9987149274e-07
5.32771563748e-05
-7.53754806191e-07
5.35313927888e-05
-9.50882514878e-07
5.38495568394e-05
-1.20576469196e-06
5.42480149634e-05
-1.53927661594e-06