/*--------------------------------*- C++ -*----------------------------------*\
| =========                 |                                                 |
| \\      /  F ield         | OpenFOAM: The Open Source CFD Toolbox           |
|  \\    /   O peration     | Version:  2106                                  |
|   \\  /    A nd           | Website:  www.openfoam.com                      |
|    \\/     M anipulation  |                                                 |
\*---------------------------------------------------------------------------*/
FoamFile
{
    version     2.0;
    format      ascii;
    arch        "LSB;label=32;scalar=64";
    class       volScalarField;
    location    "0.25";
    object      p;
}
// * * * * * * * * * * * * * * * * * * * * * * * * * * * * * * * * * * * * * //

dimensions      [0 2 -2 0 0 0 0];

internalField   nonuniform List<scalar> 
11200
(
150.332603795
147.404002224
146.290152047
145.762821993
145.395493982
145.100717926
144.83907709
144.590542234
144.346028086
144.100964957
143.852655658
143.599345464
143.33980234
143.073090675
142.798443583
142.515187629
142.222696984
141.920365654
141.607594802
141.283796376
140.948346507
140.60059618
140.239887051
139.865551244
139.476903161
139.073241464
138.653849917
138.217998054
137.764941929
137.293924745
136.804177426
136.294919133
135.765357375
135.214688242
134.642097074
134.046759631
133.427841939
132.784500495
132.115882686
131.421127207
130.699364372
129.949716329
129.171297251
128.363213412
127.524563145
126.654436606
125.751915325
124.816071457
123.84596668
122.840650626
121.799158755
120.720509508
119.603700587
118.447704148
117.251460632
116.013870924
114.733786426
113.409996558
112.041212969
110.626049668
109.162998021
107.650395166
106.086383708
104.468863
102.795423071
101.063258754
99.2690596268
97.4088656814
95.4778727948
93.470166244
91.378356905
89.1930851604
86.9021528147
84.4893735525
81.9326620046
79.2003591435
76.2448668321
72.9936131349
69.2928914279
64.5296489542
148.53956173
147.181387862
146.390417062
145.890403917
145.499417379
145.175537129
144.89101887
144.62642008
144.370936238
144.118418907
143.865040734
143.608288094
143.346423911
143.078171687
142.802530963
142.518666898
142.225842084
141.923373693
141.610603292
141.286868948
140.951520525
140.603882499
140.243311148
139.869138304
139.48066794
139.077192996
138.657994398
138.222339855
137.769484131
137.298669443
136.809125723
136.300070576
135.77070964
135.220242658
134.647856925
134.052728208
133.434022267
132.790895555
132.122495475
131.427960797
130.70642198
129.957001388
129.178813509
128.37096505
127.532554914
126.662673998
125.760404784
124.824820638
123.854984762
122.849948699
121.808750285
120.730410925
119.613932006
118.45829026
117.262431812
116.025264609
114.745648815
113.42238472
112.054197469
110.639717976
109.177459098
107.665785601
106.102873763
104.486660681
102.81477875
101.084487098
99.2925703044
97.4351910266
95.5077099017
93.5044422395
91.4183192147
89.2403845561
86.9590905845
84.5593015602
82.0206223974
79.3145448988
76.4002708461
73.2199653106
69.6708349719
65.5580010138
147.544371421
146.890171268
146.337816239
145.900199683
145.528577608
145.206478196
144.917381252
144.647150874
144.386692028
144.130215816
143.873837216
143.614874491
143.351415565
143.082033438
142.805607008
142.521207632
142.228025668
141.925322518
141.612399887
141.288580885
140.953203456
140.605628003
140.24511049
139.870997234
139.482596115
139.079197513
138.66008005
138.224510354
137.771742884
137.301020088
136.81157277
136.302620782
135.773373186
135.223022536
134.650751043
134.055736855
133.437146873
132.794138072
132.125858706
131.431448377
130.710038402
129.960752074
129.182704979
128.375005127
127.536752993
126.667041388
125.764955127
124.829570425
123.859953974
122.855161606
121.814236436
120.73620633
119.620080588
118.464845621
117.269459387
116.032844286
114.753878179
113.431383195
112.064111453
110.650727083
109.189783044
107.679692449
106.118691449
104.50481095
102.835813716
101.109106297
99.3216469825
97.4698372331
95.5493629811
93.5549857312
91.4802559231
89.3171107851
87.0554554662
84.6823742229
82.1811460762
79.5299105983
76.7006935164
73.6618782554
70.3774853899
66.824486452
146.994610229
146.631229154
146.231331816
145.862342486
145.524727283
145.216626771
144.931265825
144.660564758
144.398196184
144.139533102
143.881157449
143.620537652
143.355773849
143.085398745
142.808236236
142.523303785
142.229745059
141.926783863
141.61369306
141.28977272
140.95433191
140.606680454
140.246177123
139.872098744
139.48373457
139.080376855
138.661303975
138.225781324
137.773062237
137.302388151
136.812988699
136.304081937
135.77487519
135.224566746
134.652346415
134.057388654
133.438861336
132.79592219
132.127718485
131.433390285
130.712069706
129.962881056
129.184941362
128.377360498
127.539241274
126.669679406
125.767763276
124.832573479
123.863182056
122.858651326
121.818032231
120.740362198
119.624662234
118.469933084
117.275150333
116.039258234
114.761161746
113.439716258
112.073714814
110.661871826
109.202805658
107.695019209
106.136851004
104.526442191
102.861691168
101.140199196
99.3591910198
97.5154146696
95.6050171863
93.6233887751
91.564972507
89.42303901
87.1893567276
84.8538838571
82.4045314266
79.8272009815
77.1071465666
74.234660152
71.2133397909
68.0803631986
146.660562326
146.428767112
146.127355392
145.816379394
145.511541281
145.219519693
144.940546379
144.671423077
144.408466174
144.148385513
143.888420658
143.626334167
143.360333496
143.088969547
142.811045606
142.52554469
142.231574156
141.928324789
141.615041271
141.291000993
140.955499076
140.60783919
140.247324971
139.873245803
139.484904508
139.081584719
138.662559584
138.227092081
137.774434202
137.303826826
136.814499674
136.305671481
135.776550069
135.226332073
134.654203551
134.059340787
133.440909224
132.798066782
132.129964049
131.435741523
130.714533812
129.96546755
129.187662213
128.380230454
127.542278354
126.672905485
125.771204857
124.83626265
123.86715763
122.8629604
121.822732422
120.745523763
119.630370809
118.476293087
117.282289048
116.047330361
114.770354152
113.450256864
112.085880948
110.676006559
109.219331397
107.714443083
106.159804942
104.553722291
102.894301499
101.17940073
99.40657254
97.5729950814
95.6753889278
93.7099199669
91.6720915354
89.5566391094
87.3574543617
85.0676187113
82.679711442
80.1867232634
77.5844574402
74.877355478
72.0867777375
69.2634227704
146.457169904
146.281268133
146.040074108
145.772749494
145.495564051
145.218927694
144.947240364
144.680741528
144.417979636
144.156974602
143.895691502
143.63226327
143.365064425
143.092704119
142.813989448
142.527882696
142.233461816
141.929887408
141.616376734
141.292183998
140.956585798
140.608870249
140.248327932
139.874249092
139.485923125
139.082629244
138.663637944
138.228210159
137.775596381
137.305036234
136.815758454
136.306980938
135.777910944
135.227745233
134.655670507
134.060864067
133.442494419
132.799721287
132.131695937
131.437562711
130.716457082
129.967506406
129.189832253
128.382549836
127.544768657
126.67559284
125.774121032
124.839446314
123.870655984
122.866830935
121.827044476
120.75036147
119.635836348
118.482510636
117.289409789
116.055539509
114.779881675
113.461383772
112.098954843
110.691446333
109.23764184
107.736248625
106.185883302
104.585029839
102.932021178
101.225007526
99.4619181029
97.6404193666
95.7578715301
93.8112889346
91.7973155496
89.7122398496
87.5520957202
85.3129421458
82.9914944645
80.5864012266
78.1007303807
75.5466365872
72.9510689031
70.3611290204
146.334053201
146.178445894
145.972144914
145.735584171
145.480110869
145.21683386
144.952223701
144.688718724
144.426589701
144.165008791
143.902641955
143.638012678
143.369691176
143.096368897
142.816873657
142.530157875
142.235276617
141.931364049
141.61761215
141.293253008
140.957544791
140.609761063
140.249182971
139.875092946
139.486772097
139.083494664
138.664528292
138.22913173
137.776553954
137.306033731
136.816799408
136.308068857
135.779049587
135.228939104
134.656925314
134.062186424
133.443891358
132.801200659
132.133266496
131.439232421
130.718233809
129.969401846
129.191862501
128.384735339
127.54713461
126.678169728
125.776945728
124.842563483
123.874119737
122.870706845
121.831412211
120.755318063
119.641500039
118.489025502
117.296951234
116.064320047
114.790156401
113.473464809
112.113220765
110.708363054
109.257790875
107.760344341
106.2147943
104.619828224
102.974034376
101.275883597
99.5237116504
97.7157048572
95.849893666
93.9241637959
91.9363011402
89.8840997921
87.765580685
85.5794115968
83.325661802
81.0070894725
78.6312445135
76.2137269196
73.7814140859
71.3736676252
146.259973621
146.109963868
145.923209201
145.707105416
145.46740155
145.214583161
144.955949569
144.695215545
144.433853662
144.171937517
143.908726242
143.643096398
143.373807463
143.099638189
142.819445054
142.532178206
142.236876147
141.93265154
141.618674835
141.294158852
140.958345607
140.610495741
140.249880286
139.875773653
139.487452088
139.084184849
138.665236821
138.229864707
137.777316131
137.30682906
136.817631444
136.308941088
135.779965683
135.229902979
134.657941048
134.063258576
133.445025322
132.802402292
132.134542628
131.440592789
130.719694352
129.97098061
129.193578242
128.386610306
127.549195778
126.680449933
125.779484915
124.845410178
123.877332853
122.874358074
121.835589225
120.760127257
119.647070524
118.495514101
117.304548738
116.073259464
114.80072368
113.486007708
112.128163078
110.726222027
109.279193079
107.78605653
106.245757936
104.657200475
103.019239797
101.330680549
99.5902773269
97.7967443482
95.948780329
94.0451205019
92.0846327709
90.066487281
87.9904387056
85.8572999522
83.6696852019
81.4331288266
79.157668748
76.8599122197
74.5645417049
72.3035702169
146.217697355
146.068250085
145.89183559
145.688099219
145.458569081
145.212863961
144.95850793
144.699874172
144.439172673
144.177084406
143.913293461
143.646941961
143.37693837
143.102134031
142.821412194
142.533724663
142.238099396
141.933633853
141.619482684
141.294844314
140.958948565
140.611046192
140.250400516
139.876280923
139.487956208
139.084695628
138.665760968
138.230407193
137.777880952
137.307419658
136.818250993
136.309592759
135.780652858
135.230629428
134.658711107
134.064077398
133.445899158
132.803339167
132.135552959
131.441689091
130.720887901
129.972286329
129.195016088
128.388204614
127.550975954
126.682451589
125.781751241
124.847993612
123.880297099
122.877780422
121.839563207
120.764766519
119.652513251
118.501928311
117.312138614
116.082272822
114.81146085
113.498833286
112.143522114
110.744658201
109.301370129
107.812784208
106.278024589
104.696214506
103.066480885
101.387963406
99.6598315624
97.8813141856
96.0517484086
94.1706615282
92.2378990136
90.2538277792
88.2196435814
86.137838508
84.0128598273
81.852004151
79.6665236749
77.4728331298
75.2929801326
73.153148955
146.198421012
146.048543582
145.87658177
145.678648234
145.454089538
145.211973833
144.959842769
144.702338601
144.442016886
144.179861747
143.915777902
143.649049596
143.378667228
143.103523309
142.822517169
142.534602611
142.238802577
141.934206682
141.619961227
141.295256939
140.959317077
140.61138706
140.250725966
139.876599877
139.488276247
139.085021612
138.66609682
138.230756124
137.778245749
137.307802988
136.818655511
136.310021319
135.781108691
135.231116307
134.659233549
134.064640876
133.446510313
132.804005962
132.136284505
131.442495873
130.721784831
129.973290698
129.196148471
128.389489892
127.552444354
126.684139845
125.783703958
124.850264941
123.882952774
122.880900263
121.843244178
120.769126368
119.657694924
118.508105353
117.319521817
116.091118443
114.822080724
113.511606419
112.158908085
110.763216836
109.323780759
107.839873145
106.310797569
104.735896187
103.114563124
101.446264163
99.7305667238
97.9671842383
96.1560420198
94.2973775579
92.3918834966
90.4409288876
88.44685528
86.4134167153
84.3463216702
82.2539165213
80.1479269423
78.0441106664
75.9621617548
73.9240100077
146.198423687
146.048559734
145.876608868
145.67868456
145.454134325
145.212026239
144.959901874
144.702403575
144.442087033
144.17993649
143.915856776
143.649132243
143.378753381
143.103612785
142.822609857
142.534698466
142.238901603
141.934308937
141.62006682
141.295366032
140.959429894
140.611503901
140.250847224
139.876726063
139.488408053
139.085159767
138.666242243
138.230909953
137.778409375
137.307977959
136.818843843
136.310225471
135.781331636
135.231361656
134.659505669
134.064945051
133.446852919
132.804394742
132.13672903
131.443008077
130.722378739
129.973983334
129.196960602
128.390446768
127.553576642
126.685484778
125.785306743
124.852180465
123.885247667
122.883655407
121.846557745
120.773117511
119.66250826
118.513916399
117.326543534
116.09960912
114.832353454
113.524040955
112.173965689
110.781457766
109.345883902
107.866661942
106.34327082
104.775264672
103.162293465
101.504129552
99.8007055055
98.052171025
96.2589723239
94.4219608995
92.5425736109
90.6230942643
88.6666432037
86.6778461344
84.6632194549
82.6316658903
80.5949734482
78.5681630118
76.5691411803
74.6170057395
146.217705433
146.068298913
145.891917484
145.688208942
145.458704293
145.213021948
144.958685886
144.700069631
144.439383552
144.177308985
143.91353036
143.647190112
143.377196984
143.102402562
142.821690313
142.534012231
142.238396441
141.933940557
141.619799373
141.295171471
140.959286862
140.611396518
140.250764018
139.876659148
139.48835113
139.08510943
138.666196361
138.230867495
137.778370198
137.307942728
136.818813852
136.310202653
135.781318591
135.23136171
134.659522981
134.064984757
133.446921324
132.804499549
132.136879617
131.443215829
130.722657495
129.974349947
129.197435577
128.391055023
127.554348437
126.686456863
125.786523739
124.85369654
123.887128569
122.885980927
121.849424693
120.776643338
119.666835429
118.519217685
117.333028462
116.107531768
114.842021966
113.535829112
112.188324519
110.798931297
109.367137821
107.892496271
106.374650369
104.813351844
103.208485914
101.560109132
99.8685122596
98.134274823
96.3582831668
94.5419145146
92.6871383834
90.7966562892
88.8744385796
86.9257409734
84.9575560627
82.9790385539
81.0018635634
79.0404385889
77.1114845132
75.2324465132
146.259987283
146.110046493
145.923347541
145.707290373
145.467629022
145.214848457
144.956247916
144.695542804
144.434206359
144.172312795
143.909121819
143.643510515
143.374238825
143.100085904
142.819908589
142.532657344
142.237370946
141.933162315
141.619202136
141.294703494
140.958908728
140.611078824
140.250485149
139.876402929
139.48810865
139.084872457
138.665959975
138.230628854
137.778127896
137.307696491
136.818564312
136.30995125
135.781067528
135.231113971
134.659282406
134.06475616
133.446710666
132.80431416
132.13672845
131.4431098
130.722609909
129.97437699
129.197556938
128.391294649
127.554735435
126.687026593
125.787319147
124.854769763
123.888542884
122.887813114
121.851767886
120.779610479
119.670563443
118.523872523
117.338811183
116.114685851
114.850842129
113.546672116
112.201622423
110.815205522
109.387011455
107.916728667
106.404157055
104.849236708
103.252082535
101.613005402
99.9325568108
98.2116017525
96.4514631235
94.6539528671
92.8215247131
90.9574406472
89.0660089447
87.1528319972
85.2251291853
83.2920733345
81.3651065074
79.4581771717
77.5874210021
75.7697569402
146.334072811
146.178564455
145.972342768
145.73584776
145.480434004
145.217209659
144.952645307
144.689180274
144.427086326
144.165536517
143.90319763
143.63859388
143.370296128
143.09699638
142.817522949
142.53082868
142.235969017
141.932078468
141.618349331
141.294014045
140.958331217
140.610574955
140.250026966
139.875970453
139.487687136
139.08445233
138.665534761
138.230194459
137.77768201
137.307238154
136.818093634
136.309469233
135.780575985
135.230615503
134.658780448
134.064255074
133.446215892
132.80383243
132.136268062
131.442680937
130.722225012
129.974051204
129.197308693
128.391146344
127.554714297
126.687165708
125.787658709
124.855358577
123.88944019
122.889090782
121.853513079
120.781928871
119.6735831
118.527748597
117.34373155
116.120877889
114.858580808
113.556289768
112.213521046
110.829869919
109.405026527
107.938795145
106.431114451
104.882084076
103.291995328
101.661390407
99.991102757
98.2823145942
96.5366371169
94.7562125478
92.9438392017
91.1031170121
89.2386270721
87.3561435014
85.462895711
83.5678676694
81.6821393652
79.8192814646
77.9953070474
76.2276293405
146.45719612
146.281426324
146.040336665
145.773097484
145.495988717
145.219419649
144.947790521
144.681342266
144.41862471
144.157658966
143.896411184
143.633015238
143.365846462
143.093514716
142.814827702
142.528748232
142.234354694
141.930808055
141.617325898
141.293162734
140.957595431
140.609912701
140.249407666
139.875371949
139.487093694
139.083853281
138.664922858
138.229565014
137.777032235
137.306566685
136.817400207
136.308754489
135.779841365
135.229863236
134.65801357
134.063477484
133.445432423
132.803049026
132.13549203
131.441921274
130.721492823
129.973360142
129.196675462
128.390591315
127.554262241
126.686846718
125.787509315
124.855423117
123.889772455
122.889755999
121.854590316
120.783513926
119.675791978
118.5307217
117.347638698
116.125924438
114.865014994
113.564411228
112.223690897
110.842523263
109.420686164
107.958086664
106.454786196
104.91103119
103.327288134
101.704285333
100.043065942
98.3450517343
96.6121174799
94.8466760991
93.0517824203
91.2312537428
89.3898133435
87.5332516105
85.6686294527
83.8045401059
81.9514976414
80.1225829158
78.3338282311
76.6039101734
146.660595833
146.428969792
146.127689135
145.816818786
145.512074311
145.220134043
144.941230586
144.67216776
144.409263781
144.149230022
143.889307376
143.627259553
143.361295005
143.089965506
142.812075108
142.526607492
142.232670553
141.929455447
141.616207025
141.292202895
140.956738664
140.6091176
140.248644233
139.87461928
139.486336132
139.083080236
138.66412719
138.228742056
137.776179116
137.305681854
136.816483119
136.307805415
135.778861324
135.228853976
134.656977612
134.062418232
133.444354291
132.801957523
132.13439386
131.440824455
130.720406952
129.972296845
129.195648952
128.389618988
127.5533654
126.6860514
125.786847272
124.854932982
123.889501157
122.889760484
121.854939731
120.784292113
119.67710054
118.53268367
117.350402978
116.129670928
114.869959931
113.570815042
112.231867177
110.852848874
109.433613298
107.974156852
106.474645709
104.935447476
103.3571686
101.740698677
100.087260987
98.3984719378
96.676410337
94.9236938991
93.1435641687
91.3399787325
89.5177114246
87.6824588495
85.8409719725
84.0012441814
82.1728958946
80.3680806245
78.6023138375
76.8954508999
146.994651042
146.631479989
146.231739254
145.862873664
145.525366239
145.21735778
144.932074939
144.661440891
144.39913057
144.14051885
143.882189262
143.621611596
143.356887188
143.086549828
142.809424457
142.524529571
142.231009892
141.928090201
141.615043868
141.291171854
140.955788451
140.608210068
140.247752635
139.873723434
139.485422259
139.082138845
138.663151898
138.227728765
137.775125271
137.304585951
136.815344459
136.306623952
135.777637512
135.227588682
134.655672135
134.061074495
133.442975149
132.800546813
132.132956605
131.439367287
130.718938566
129.97082749
129.194191013
128.388187485
127.551978497
126.684731069
125.785620128
124.853831314
123.888564232
122.889035879
121.854484883
120.784176412
119.677407871
118.533515378
117.35188139
116.131943761
114.873207011
113.575253278
112.23775725
110.860503673
109.443407569
107.986538032
106.490146178
104.954698013
103.380912666
101.769806824
100.122745303
98.4414980276
96.7283026405
94.9859312958
93.2177596484
91.4278340696
89.620930462
87.8025998693
85.9792060604
84.1579651447
82.3471780273
80.5572237061
78.8013152404
77.09810094
147.544424339
146.890484406
146.338307388
145.900827979
145.529323401
145.207322477
144.918307854
144.648147244
144.387748343
144.131324366
143.874992024
143.616070999
143.352650382
143.08330415
142.806912072
142.522546416
142.229398797
141.926732741
141.613852331
141.290082113
140.95475392
140.607197515
140.246733917
139.872682895
139.484348984
139.081025168
138.661992698
138.226520772
137.773866694
137.303275991
136.813983038
136.30521162
135.776175392
135.226078452
134.654115977
134.059474726
133.441333203
132.798865384
132.131239307
131.437618366
130.717162714
129.969031602
129.192383904
128.386380095
127.550184339
126.682966754
125.783905976
124.852192058
123.887029742
122.887642502
121.853276956
120.783207906
119.676744195
118.533235699
117.352081373
116.132738535
114.874733744
113.577677477
112.24127802
110.865359812
109.449884796
107.994977359
106.500953448
104.968354368
103.397985576
101.790960813
100.148751675
98.4732419234
96.7667847919
95.0322660385
93.2731590962
91.4935737197
89.6982825886
87.8927142894
86.0828856202
84.2751835499
82.4762669693
80.6936918718
78.9345679309
77.2075778183
148.539662095
147.181846588
146.391100889
145.891259968
145.500422557
145.176670638
144.892263699
144.627763154
144.372367345
144.119929989
143.866625426
143.609941302
143.348141401
143.079949674
142.804365707
142.520554315
142.227777215
141.925349883
141.612615078
141.288924186
140.953617549
140.606045823
140.245557009
139.871467704
139.483086209
139.079708886
138.66061863
138.225083621
137.772362832
137.301703321
136.812340083
136.303497232
135.774388699
135.224218871
134.652183299
134.057469656
133.439259261
132.796725103
132.129035312
131.435354159
130.714842956
129.966661479
129.189969626
128.383929272
127.547706298
126.680472904
125.781410245
124.849711456
123.884585092
122.885259112
121.85098531
120.781044777
119.674754036
118.531472221
117.350609493
116.13163701
114.874098735
113.5776235
112.241942392
110.86690715
109.452511928
107.998918773
106.506487202
104.9758084
103.40774437
101.803472305
100.164533772
98.4928865319
96.7909574161
95.0617206054
93.3087239514
91.5361355564
89.7487601778
87.9520151475
86.151797391
84.3539730467
82.5640710247
80.7868524594
79.0171188352
77.2253342995
150.332770718
147.404673446
146.291146549
145.764077521
145.396980321
145.10241043
144.840957168
144.592596329
144.348246291
144.103340211
143.85518325
143.602022711
143.342628464
143.076066843
142.80157301
142.518475634
142.226150897
141.923994154
141.611402836
141.287769423
140.952488782
140.604920858
140.244396758
139.870251241
139.481802153
139.078350277
138.659181763
138.223571552
137.770777323
137.300044614
136.810608448
136.301693094
135.772512558
135.222271264
134.650164757
134.055380422
133.437098412
132.794492749
132.126732208
131.432981381
130.712401988
129.96415442
129.187399296
128.381299291
127.545021221
126.677738401
125.778633329
124.846900715
123.881751012
122.882414437
121.848145616
120.778228997
119.671985106
118.528777846
117.348023029
116.129198382
114.87185538
113.575633062
112.240274172
110.865644118
109.451753232
107.998782674
106.507114513
104.977366398
103.410431066
101.807520839
100.170217196
98.5005276795
96.8009488214
95.0744863576
93.3247454677
91.555963107
89.7730283855
87.9814601562
86.1873051758
84.3970621969
82.6171540445
80.8523708409
79.0822684696
77.1823400827
57.1351652537
53.5831151491
51.191718127
49.2344370791
47.5626523455
46.1061950324
44.8210684401
43.6775373709
42.6538895396
41.7333328612
40.9024148374
40.1500876655
39.4671146647
38.8456718659
38.2790656908
37.7615242384
37.2880376957
36.8542332507
36.4562748183
36.0907818059
35.7547621993
35.4455574654
35.1607966295
34.8983580165
34.6563370357
34.4330190963
34.2268565185
34.0364489706
33.8605265265
33.6979349814
33.547622906
33.4086305868
33.2800802711
33.1611671717
33.0511512731
32.9493499309
32.8551306528
32.7679030238
32.6871110962
32.6122576337
32.5430271481
32.4792216427
32.4202872415
32.3657831052
32.3153140352
32.2685769646
32.2252990174
32.1852278144
32.1481440221
32.1138150968
32.082014803
32.0525617327
32.0252642217
31.9999650611
31.9764931781
31.9546992377
31.9344468935
31.915610345
31.8980728263
31.8817262322
31.8664711131
31.8522160352
31.8388761375
31.8263728014
31.8146331997
31.8035904487
31.7931830238
31.7833540619
31.7740510531
31.7652260235
31.7568346911
31.7488370242
31.7411954674
31.7338758148
31.7268472871
31.7200809464
31.7135516524
31.7072343223
31.7011071945
31.6951500294
31.6893462881
31.6836784914
31.6781321651
31.6726927796
31.6673488221
31.6620880809
31.6569005359
31.651777204
31.646710105
31.641700094
31.6367392249
31.6318259957
31.6269173576
31.6220505304
31.61720759
31.6124094919
31.6076282399
31.6028512609
31.5980730033
31.593289289
31.5884963667
31.583690739
31.5788688327
31.5740271869
31.5691629699
31.5642733261
31.5593550723
31.5544054527
31.5494223543
31.5444034105
31.5393459765
31.5342477991
31.5291071948
31.5239226692
31.5186926314
31.513415892
31.5080921646
31.5027218967
31.4973055953
31.491844614
31.4863413223
31.4807996868
31.4752245158
31.4696219809
31.4639995221
31.4583646816
31.452718732
31.4470693373
31.4413889934
31.4359956205
31.4309147051
31.4262346085
31.421586094
31.4172432331
31.4132916193
31.4098214799
31.4069689155
31.4047510479
31.4031525912
31.4029561471
31.403329085
31.4045117903
31.4062277032
31.4076397522
31.4065605886
31.3981654538
31.3712534712
31.3035001934
31.1529740686
30.848771028
30.2854713136
29.3305293952
27.8525416102
25.7608030739
23.0310703349
19.7201834228
15.9457726841
11.6731972929
6.62683458297
1.57790191245
60.3165519705
56.2637370658
53.5518160511
51.3996285196
49.597968949
48.0484290973
46.692779673
45.4937545107
44.4251391658
43.4672539624
42.6047150929
41.8251368079
41.1183324818
40.4757884647
39.8903027689
39.3557221258
38.8667470971
38.4187812446
38.007813854
37.6303253822
37.2832120498
36.9637236596
36.6694131601
36.3980946222
36.147808527
35.9167926842
35.7034576631
35.5063662736
35.324215706
35.1558222682
35.000107999
34.8560894245
34.7228678612
34.599620497
34.4855931823
34.3800943981
34.2824905228
34.1922020885
34.108700557
34.0314931102
33.9600733737
33.8939076825
33.8326550649
33.7759865698
33.7235686451
33.6750849268
33.6302359464
33.5887389716
33.5503323352
33.5147778393
33.4818533145
33.4513641671
33.423107761
33.3969024498
33.3725954656
33.3500367498
33.3290862361
33.3096126397
33.2914960173
33.2746272105
33.2588995578
33.2442149718
33.2304855212
33.2176284076
33.205567908
33.1942345434
33.1835641266
33.1734968228
33.1639789812
33.1549596329
33.1463930421
33.1382373141
33.1304537936
33.1230060542
33.1158619674
33.1089928767
33.1023705264
33.0959694705
33.0897690378
33.0837492735
33.0778919763
33.072177574
33.066591221
33.0611168642
33.0557430248
33.0504590085
33.0452503574
33.0401090532
33.0350308613
33.0299928999
33.0249899214
33.0200261962
33.0150702695
33.0101442508
33.0052311401
33.0003235717
32.995419781
32.9905178175
32.9856177836
32.9807147613
32.9758051895
32.9708852469
32.9659526094
32.9610031643
32.9560344611
32.9510438289
32.9460277311
32.9409838541
32.9359097923
32.9308032728
32.9256610116
32.9204814165
32.9152621843
32.9100014743
32.9046979816
32.8993501643
32.8939579818
32.888521461
32.8830421618
32.8775214294
32.8719621917
32.8663698082
32.8607508861
32.8551140324
32.849470511
32.843836887
32.8382287585
32.8326824618
32.8272360168
32.8220028813
32.8170259892
32.8119999649
32.8073958546
32.8032827235
32.79966661
32.7966351325
32.7944084472
32.7930176498
32.7925032131
32.7931454046
32.7948151551
32.7975341696
32.8009349232
32.8039618341
32.8038984991
32.7950081684
32.7639851014
32.6852709151
32.5118489692
32.1663231315
31.5370012052
30.4882745294
28.8919232639
26.6671843816
23.8017030542
20.3567056313
16.4478420781
12.0560161732
6.91929515113
1.71262260794
62.5240524268
58.5905851239
55.7235204377
53.4397922833
51.538148125
49.9121065963
48.4966158369
47.2496267135
46.141676076
45.1508564393
44.2602280043
43.4562982124
42.7280808498
42.0664766865
41.463849504
40.9137202604
40.4105420514
39.9495282074
39.5265196636
39.1378796447
38.7804101744
38.451284245
38.1479910243
37.8682908374
37.6101781185
37.3718507127
37.1516840181
36.9482095957
36.7600965641
36.5861358257
36.4252263523
36.2763635863
36.1386292847
36.0111822769
35.8932508511
35.7841257536
35.6831538626
35.589732016
35.5033032817
35.4233576977
35.3494196702
35.2809052252
35.2174310506
35.158735178
35.1044539176
35.0542459518
35.0078016649
34.9648336539
34.9250788239
34.888290523
34.8542391193
34.8227167419
34.7935225609
34.7664659208
34.7413789402
34.7181056525
34.6965017199
34.676431685
34.6577691134
34.6403938618
34.6242020257
34.6090943998
34.5949798514
34.5817730461
34.5693952689
34.5577741332
34.5468432311
34.5365401664
34.5268090969
34.517597399
34.5088570308
34.5005445457
34.4926197326
34.4850444471
34.477785871
34.470813028
34.4640979654
34.4576128625
34.4513350182
34.4452417025
34.4393127374
34.4335327385
34.4278851379
34.4223537713
34.4169254862
34.4115879517
34.4063285419
34.4011345507
34.3959954347
34.3909070111
34.3858645181
34.3808618978
34.3758815771
34.3709283366
34.3659941471
34.3610757218
34.3561661448
34.3512577544
34.3463483546
34.3414336661
34.3365097399
34.3315722709
34.3266191849
34.3216465029
34.3166512919
34.311630982
34.3065823521
34.3015031053
34.296390751
34.2912431825
34.2860574225
34.2808320962
34.2755651013
34.270254725
34.2648999895
34.2594996104
34.2540541869
34.248563844
34.2430304521
34.2374565242
34.2318455378
34.2262037447
34.2205391964
34.2148627248
34.2091873846
34.2035339817
34.197924207
34.1923974495
34.1869915535
34.1817567824
34.1767407431
34.1719675786
34.1676357097
34.16370017
34.160349943
34.1577361045
34.155895576
34.1551212546
34.1554708513
34.1570237082
34.1598557157
34.1639128902
34.1687267163
34.1730032349
34.1734488355
34.1633485279
34.1272856708
34.0364551298
33.8389730432
33.4514584067
32.7568003562
31.6172969159
29.9083385703
27.5583489968
24.5650778929
20.9923265344
16.9524650013
12.4411912541
7.21126574216
1.84510449846
64.3282857436
60.6035896917
57.6997221215
55.3447807282
53.3750454677
51.6911673606
50.2279610345
48.9415096582
47.8005243968
46.7816334152
45.8667816514
45.0416419784
44.2946068229
43.6161137208