/*--------------------------------*- C++ -*----------------------------------*\
| =========                 |                                                 |
| \\      /  F ield         | OpenFOAM: The Open Source CFD Toolbox           |
|  \\    /   O peration     | Version:  2106                                  |
|   \\  /    A nd           | Website:  www.openfoam.com                      |
|    \\/     M anipulation  |                                                 |
\*---------------------------------------------------------------------------*/
FoamFile
{
    version     2.0;
    format      ascii;
    arch        "LSB;label=32;scalar=64";
    class       volScalarField;
    location    "0.12";
    object      p;
}
// * * * * * * * * * * * * * * * * * * * * * * * * * * * * * * * * * * * * * //

dimensions      [1 -1 -2 0 0 0 0];

internalField   nonuniform List<scalar> 
800
(
1
1
1
1
1
1
1
1
1
1
1
1
1
1
1
1
1
1
1
1
1
1
1
1
1
1
1
1
1
1
1
1
1
1
1
1
1
1
1
1
1
1
1
1
1
1
1
1
1
1
1
1
1
1
1
1
1
1
1
1
1
1
1
1
1
1
1
1
1
1
1
1
1
1
1
1
1
1
1
1
1
1
1
1
1
1
1
1
1
1
1
1
1
1
1
1
1
1
1
1
1
1
1
1
1
1
1
1
1
1
1
1
1
1
1
1
1
1
1
1
1
1
1
1
1
1
1
1
1
1
1
1
1
1
1
1
1
1
1
1
1
1
1
1
1
1
1
1
1
1
1
1
1
1
1
1
1
1
1
1
1
1
1
1
1
1
1
1
1
1
1
1
1
1
1
1
1
1
1
1
1
1
1
1
1
1
1
1
1
1
1
1
1
1
1
1
1
1
1
1
1
1
1
1
1
1
1
1
1
1
1
1
1
1
1
1
1
1
1
1
1
1
1
1
1
1
1
1
1
1
1
1
1
1
1
1
1
1
1
1
1
1
1
1
1
1
1
1
1
1
1
1
1
1
1
1
1
1
1
0.999937
0.998382
0.990362
0.976014
0.96147
0.949265
0.939047
0.93005
0.921736
0.913798
0.906075
0.89849
0.891004
0.8836
0.876266
0.868998
0.861793
0.854647
0.847559
0.840526
0.833548
0.826624
0.819751
0.81293
0.80616
0.79944
0.79277
0.786148
0.779575
0.77305
0.766573
0.760143
0.753759
0.747422
0.741131
0.734886
0.728686
0.722531
0.716421
0.710355
0.704333
0.698355
0.692421
0.68653
0.680681
0.674876
0.669112
0.663391
0.657712
0.652074
0.646477
0.640921
0.635406
0.629931
0.624496
0.619102
0.613747
0.608431
0.603155
0.597917
0.592718
0.587557
0.582435
0.57735
0.572303
0.567293
0.56232
0.557384
0.552485
0.547623
0.542796
0.538005
0.53325
0.528531
0.523847
0.519198
0.514583
0.510003
0.505458
0.500947
0.496469
0.492025
0.487615
0.483238
0.478894
0.474583
0.470305
0.466059
0.461846
0.457664
0.453514
0.449396
0.44531
0.441255
0.437231
0.433238
0.429275
0.425344
0.421443
0.417572
0.413731
0.40992
0.406138
0.402387
0.398665
0.394972
0.391308
0.387673
0.384068
0.38049
0.376942
0.373422
0.36993
0.366466
0.36303
0.359622
0.356242
0.352889
0.349563
0.346265
0.342994
0.339749
0.336531
0.33334
0.330175
0.327035
0.323921
0.320832
0.317769
0.314735
0.311745
0.308839
0.306116
0.303773
0.30209
0.301237
0.301025
0.301112
0.301398
0.301464
0.301338
0.301157
0.301107
0.301107
0.301141
0.301181
0.301215
0.301255
0.301299
0.301333
0.301361
0.301399
0.301455
0.301512
0.301554
0.301579
0.301593
0.3016
0.301604
0.301613
0.30164
0.301682
0.301716
0.301739
0.301754
0.301765
0.301771
0.30178
0.301796
0.301816
0.301826
0.301827
0.30182
0.301795
0.301758
0.30172
0.301693
0.30168
0.301672
0.301664
0.301656
0.301651
0.301644
0.301632
0.30162
0.301615
0.30162
0.301629
0.301634
0.30164
0.30165
0.301654
0.301653
0.301653
0.301666
0.301684
0.301695
0.301701
0.301709
0.301715
0.301715
0.301714
0.301724
0.301747
0.301762
0.301765
0.301764
0.301762
0.301751
0.301724
0.301708
0.301702
0.301699
0.301693
0.301684
0.301681
0.301679
0.301664
0.301653
0.301653
0.301662
0.30166
0.301652
0.301651
0.301654
0.30165
0.301641
0.301644
0.301667
0.301675
0.301672
0.301675
0.301687
0.30169
0.30168
0.301677
0.301702
0.301718
0.301712
0.301713
0.301725
0.301736
0.301729
0.301711
0.301727
0.301744
0.301727
0.301712
0.301715
0.301739
0.301801
0.301953
0.302144
0.302156
0.302702
0.302289
0.300869
0.300972
0.301049
0.30126
0.301737
0.302408
0.302754
0.302462
0.302034
0.301568
0.301086
0.300859
0.300829
0.300993
0.301581
0.302303
0.302486
0.3025
0.302398
0.301986
0.301289
0.30087
0.300879
0.300979
0.301246
0.301813
0.302334
0.30247
0.302425
0.302277
0.301829
0.301211
0.300981
0.30097
0.301056
0.301412
0.302045
0.30237
0.302414
0.302393
0.302152
0.301573
0.301054
0.300979
0.300995
0.301126
0.301536
0.302117
0.302361
0.302344
0.302256
0.301978
0.301419
0.301063
0.30103
0.301062
0.301228
0.301686
0.302164
0.302282
0.302283
0.30218
0.301813
0.30128
0.301092
0.301079
0.301129
0.301364
0.301856
0.30221
0.302247
0.302216
0.302071
0.301683
0.301255
0.301131
0.301156
0.30124
0.301503
0.301965
0.302193
0.302204
0.302174
0.301996
0.301577
0.301259
0.301208
0.30121
0.301311
0.301621
0.302035
0.302161
0.302151
0.301975
0.299511
0.272218
0.168318
0.103502
0.100007
0.1
0.1
0.1
0.1
0.1
0.1
0.1
0.1
0.1
0.1
0.1
0.1
0.1
0.1
0.1
0.1
0.1
0.1
0.1
0.1
0.1
0.1
0.1
0.1
0.1
0.1
0.1
0.1
0.1
0.1
0.1
0.1
0.1
0.1
0.1
0.1
0.1
0.1
0.1
0.1
0.1
0.1
0.1
0.1
0.1
0.1
0.1
0.1
0.1
0.1
0.1
0.1
0.1
0.1
0.1
0.1
0.1
0.1
0.1
0.1
0.1
0.1
0.1
0.1
0.1
0.1
0.1
0.1
0.1
0.1
0.1
0.1
0.1
0.1
0.1
0.1
0.1
0.1
0.1
0.1
0.1
0.1
0.1
0.1
0.1
0.1
0.1
0.1
0.1
0.1
0.1
0.1
0.1
0.1
0.1
0.1
0.1
0.1
0.1
0.1
0.1
0.1
0.1
0.1
0.1
0.1
0.1
0.1
0.1
0.1
0.1
0.1
0.1
0.1
0.1
0.1
0.1
0.1
0.1
0.1
0.1
0.1
0.1
0.1
0.1
0.1
0.1
0.1
0.1
0.1
0.1
0.1
0.1
0.1
0.1
0.1
0.1
0.1
0.1
0.1
0.1
0.1
0.1
0.1
0.1
0.1
0.1
0.1
0.1
0.1
0.1
0.1
0.1
0.1
0.1
0.1
0.1
0.1
0.1
0.1
0.1
0.1
0.1
0.1
0.1
0.1
0.1
0.1
0.1
0.1
0.1
0.1
0.1
0.1
0.1
0.1
0.1
0.1
0.1
0.1
0.1
0.1
0.1
0.1
0.1
0.1
)
;

boundaryField
{
    left
    {
        type            zeroGradient;
    }
    right
    {
        type            zeroGradient;
    }
    empty
    {
        type            empty;
    }
}


// ************************************************************************* //
