/*--------------------------------*- C++ -*----------------------------------*\
| =========                 |                                                 |
| \\      /  F ield         | OpenFOAM: The Open Source CFD Toolbox           |
|  \\    /   O peration     | Version:  2106                                  |
|   \\  /    A nd           | Website:  www.openfoam.com                      |
|    \\/     M anipulation  |                                                 |
\*---------------------------------------------------------------------------*/
FoamFile
{
    version     2.0;
    format      ascii;
    arch        "LSB;label=32;scalar=64";
    class       volScalarField;
    location    "0.12";
    object      rho;
}
// * * * * * * * * * * * * * * * * * * * * * * * * * * * * * * * * * * * * * //

dimensions      [1 -3 0 0 0 0 0];

internalField   nonuniform List<scalar> 
800
(
1.00435
1.00435
1.00435
1.00435
1.00435
1.00435
1.00435
1.00435
1.00435
1.00435
1.00435
1.00435
1.00435
1.00435
1.00435
1.00435
1.00435
1.00435
1.00435
1.00435
1.00435
1.00435
1.00435
1.00435
1.00435
1.00435
1.00435
1.00435
1.00435
1.00435
1.00435
1.00435
1.00435
1.00435
1.00435
1.00435
1.00435
1.00435
1.00435
1.00435
1.00435
1.00435
1.00435
1.00435
1.00435
1.00435
1.00435
1.00435
1.00435
1.00435
1.00435
1.00435
1.00435
1.00435
1.00435
1.00435
1.00435
1.00435
1.00435
1.00435
1.00435
1.00435
1.00435
1.00435
1.00435
1.00435
1.00435
1.00435
1.00435
1.00435
1.00435
1.00435
1.00435
1.00435
1.00435
1.00435
1.00435
1.00435
1.00435
1.00435
1.00435
1.00435
1.00435
1.00435
1.00435
1.00435
1.00435
1.00435
1.00435
1.00435
1.00435
1.00435
1.00435
1.00435
1.00435
1.00435
1.00435
1.00435
1.00435
1.00435
1.00435
1.00435
1.00435
1.00435
1.00435
1.00435
1.00435
1.00435
1.00435
1.00435
1.00435
1.00435
1.00435
1.00435
1.00435
1.00435
1.00435
1.00435
1.00435
1.00435
1.00435
1.00435
1.00435
1.00435
1.00435
1.00435
1.00435
1.00435
1.00435
1.00435
1.00435
1.00435
1.00435
1.00435
1.00435
1.00435
1.00435
1.00435
1.00435
1.00435
1.00435
1.00435
1.00435
1.00435
1.00435
1.00435
1.00435
1.00435
1.00435
1.00435
1.00435
1.00435
1.00435
1.00435
1.00435
1.00435
1.00435
1.00435
1.00435
1.00435
1.00435
1.00435
1.00435
1.00435
1.00435
1.00435
1.00435
1.00435
1.00435
1.00435
1.00435
1.00435
1.00435
1.00435
1.00435
1.00435
1.00435
1.00435
1.00435
1.00435
1.00435
1.00435
1.00435
1.00435
1.00435
1.00435
1.00435
1.00435
1.00435
1.00435
1.00435
1.00435
1.00435
1.00435
1.00435
1.00435
1.00435
1.00435
1.00435
1.00435
1.00435
1.00435
1.00435
1.00435
1.00435
1.00435
1.00435
1.00435
1.00435
1.00435
1.00435
1.00435
1.00435
1.00435
1.00435
1.00435
1.00435
1.00435
1.00435
1.00435
1.00435
1.00435
1.00435
1.00435
1.00435
1.00435
1.00435
1.00435
1.00435
1.00435
1.00435
1.00435
1.00435
1.00435
1.00435
1.00435
1.00435
1.00435
1.00435
1.00435
1.00435
1.00435
1.00435
1.00435
1.00435
1.00435
1.00435
1.00435
1.00435
1.00435
1.00435
1.00435
1.00435
1.00435
1.00435
1.00435
1.00435
1.00435
1.00435
1.0043
1.00319
0.997424
0.987084
0.97656
0.967694
0.960246
0.953668
0.947573
0.941739
0.93605
0.930448
0.924906
0.919411
0.913956
0.908537
0.903152
0.897798
0.892475
0.887181
0.881916
0.876679
0.871468
0.866285
0.861127
0.855995
0.850889
0.845809
0.840753
0.835722
0.830716
0.825735
0.820777
0.815844
0.810935
0.80605
0.801188
0.79635
0.791536
0.786745
0.781977
0.777232
0.77251
0.767811
0.763135
0.758482
0.753851
0.749243
0.744657
0.740093
0.735552
0.731032
0.726535
0.72206
0.717606
0.713174
0.708764
0.704375
0.700008
0.695662
0.691337
0.687034
0.682751
0.67849
0.674249
0.670029
0.66583
0.661652
0.657494
0.653357
0.64924
0.645143
0.641066
0.63701
0.632973
0.628957
0.62496
0.620983
0.617026
0.613089
0.609171
0.605272
0.601393
0.597534
0.593693
0.589872
0.58607
0.582287
0.578523
0.574778
0.571052
0.567344
0.563656
0.559986
0.556334
0.552702
0.549087
0.545492
0.541914
0.538355
0.534815
0.531292
0.527788
0.524302
0.520835
0.517385
0.513953
0.51054
0.507145
0.503767
0.500408
0.497066
0.493743
0.490437
0.48715
0.48388
0.480627
0.477393
0.474176
0.470977
0.467795
0.464631
0.461485
0.458355
0.455243
0.452148
0.44907
0.446007
0.442962
0.439938
0.43695
0.434037
0.431301
0.428942
0.427244
0.42638
0.426169
0.426258
0.426547
0.426613
0.426486
0.426302
0.426256
0.426256
0.426291
0.426331
0.426365
0.426406
0.42645
0.426486
0.426516
0.426556
0.426613
0.426672
0.426714
0.42674
0.426754
0.426761
0.426767
0.426777
0.426807
0.42685
0.426885
0.426908
0.426923
0.426933
0.426941
0.426951
0.42697
0.426992
0.427003
0.427005
0.426998
0.426974
0.426938
0.4269
0.426874
0.426862
0.426856
0.42685
0.426843
0.426838
0.426832
0.426821
0.426809
0.426807
0.426812
0.426822
0.426829
0.426837
0.426848
0.426855
0.426856
0.426859
0.426874
0.426894
0.426905
0.426912
0.426922
0.426932
0.426934
0.426936
0.426948
0.426973
0.426988
0.426992
0.426993
0.426991
0.426982
0.426959
0.426946
0.426945
0.426948
0.426945
0.42694
0.426941
0.426942
0.426932
0.426923
0.426928
0.426942
0.426944
0.426939
0.426942
0.42695
0.426949
0.426944
0.426953
0.42698
0.426994
0.426996
0.427005
0.427021
0.427028
0.427023
0.427028
0.427064
0.427104
0.427133
0.427162
0.42718
0.427185
0.427141
0.427012
0.426741
0.4261
0.424692
0.421909
0.416713
0.407556
0.39256
0.370268
0.341064
0.308889
0.281786
0.265369
0.25919
0.258484
0.25853
0.258762
0.259277
0.260027
0.260699
0.261067
0.261306
0.261364
0.261272
0.261236
0.261277
0.261423
0.261817
0.262243
0.262313
0.262267
0.26212
0.261758
0.261215
0.260866
0.260791
0.260782
0.260915
0.261277
0.261639
0.261769
0.261819
0.261828
0.261643
0.261324
0.261228
0.261243
0.261309
0.261515
0.26185
0.261979
0.261942
0.261865
0.261653
0.261242
0.260904
0.260854
0.26087
0.260981
0.261286
0.261701
0.261902
0.26194
0.261938
0.261796
0.261454
0.261224
0.261189
0.261174
0.261219
0.261445
0.261695
0.261733
0.261713
0.261631
0.2614
0.261091
0.261004
0.261025
0.26109
0.26128
0.261622
0.261869
0.26191
0.261909
0.261823
0.261564
0.261268
0.261159
0.261133
0.261138
0.261268
0.261541
0.261675
0.261681
0.261666
0.261573
0.261339
0.26117
0.261165
0.261189
0.261278
0.261496
0.261767
0.261852
0.261847
0.261722
0.260144
0.243021
0.17296
0.126144
0.123444
0.123438
0.123438
0.123438
0.123438
0.123438
0.123438
0.123438
0.123438
0.123438
0.123438
0.123438
0.123438
0.123438
0.123438
0.123438
0.123438
0.123438
0.123438
0.123438
0.123438
0.123438
0.123438
0.123438
0.123438
0.123438
0.123438
0.123438
0.123438
0.123438
0.123438
0.123438
0.123438
0.123438
0.123438
0.123438
0.123438
0.123438
0.123438
0.123438
0.123438
0.123438
0.123438
0.123438
0.123438
0.123438
0.123438
0.123438
0.123438
0.123438
0.123438
0.123438
0.123438
0.123438
0.123438
0.123438
0.123438
0.123438
0.123438
0.123438
0.123438
0.123438
0.123438
0.123438
0.123438
0.123438
0.123438
0.123438
0.123438
0.123438
0.123438
0.123438
0.123438
0.123438
0.123438
0.123438
0.123438
0.123438
0.123438
0.123438
0.123438
0.123438
0.123438
0.123438
0.123438
0.123438
0.123438
0.123438
0.123438
0.123438
0.123438
0.123438
0.123438
0.123438
0.123438
0.123438
0.123438
0.123438
0.123438
0.123438
0.123438
0.123438
0.123438
0.123438
0.123438
0.123438
0.123438
0.123438
0.123438
0.123438
0.123438
0.123438
0.123438
0.123438
0.123438
0.123438
0.123438
0.123438
0.123438
0.123438
0.123438
0.123438
0.123438
0.123438
0.123438
0.123438
0.123438
0.123438
0.123438
0.123438
0.123438
0.123438
0.123438
0.123438
0.123438
0.123438
0.123438
0.123438
0.123438
0.123438
0.123438
0.123438
0.123438
0.123438
0.123438
0.123438
0.123438
0.123438
0.123438
0.123438
0.123438
0.123438
0.123438
0.123438
0.123438
0.123438
0.123438
0.123438
0.123438
0.123438
0.123438
0.123438
0.123438
0.123438
0.123438
0.123438
0.123438
0.123438
0.123438
0.123438
0.123438
0.123438
0.123438
0.123438
0.123438
0.123438
0.123438
0.123438
0.123438
0.123438
0.123438
0.123438
0.123438
0.123438
0.123438
0.123438
0.123438
)
;

boundaryField
{
    left
    {
        type            calculated;
        value           uniform 0.123438;
    }
    right
    {
        type            calculated;
        value           uniform 1.00435;
    }
    empty
    {
        type            empty;
    }
}


// ************************************************************************* //
