/*--------------------------------*- C++ -*----------------------------------*\
| =========                 |                                                 |
| \\      /  F ield         | OpenFOAM: The Open Source CFD Toolbox           |
|  \\    /   O peration     | Version:  2106                                  |
|   \\  /    A nd           | Website:  www.openfoam.com                      |
|    \\/     M anipulation  |                                                 |
\*---------------------------------------------------------------------------*/
FoamFile
{
    version     2.0;
    format      ascii;
    arch        "LSB;label=32;scalar=64";
    class       volScalarField;
    location    "0.12";
    object      T;
}
// * * * * * * * * * * * * * * * * * * * * * * * * * * * * * * * * * * * * * //

dimensions      [0 0 0 1 0 0 0];

internalField   nonuniform List<scalar> 
800
(
0.003468
0.003468
0.003468
0.003468
0.003468
0.003468
0.003468
0.003468
0.003468
0.003468
0.003468
0.003468
0.003468
0.003468
0.003468
0.003468
0.003468
0.003468
0.003468
0.003468
0.003468
0.003468
0.003468
0.003468
0.003468
0.003468
0.003468
0.003468
0.003468
0.003468
0.003468
0.003468
0.003468
0.003468
0.003468
0.003468
0.003468
0.003468
0.003468
0.003468
0.003468
0.003468
0.003468
0.003468
0.003468
0.003468
0.003468
0.003468
0.003468
0.003468
0.003468
0.003468
0.003468
0.003468
0.003468
0.003468
0.003468
0.003468
0.003468
0.003468
0.003468
0.003468
0.003468
0.003468
0.003468
0.003468
0.003468
0.003468
0.003468
0.003468
0.003468
0.003468
0.003468
0.003468
0.003468
0.003468
0.003468
0.003468
0.003468
0.003468
0.003468
0.003468
0.003468
0.003468
0.003468
0.003468
0.003468
0.003468
0.003468
0.003468
0.003468
0.003468
0.003468
0.003468
0.003468
0.003468
0.003468
0.003468
0.003468
0.003468
0.003468
0.003468
0.003468
0.003468
0.003468
0.003468
0.003468
0.003468
0.003468
0.003468
0.003468
0.003468
0.003468
0.003468
0.003468
0.003468
0.003468
0.003468
0.003468
0.003468
0.003468
0.003468
0.003468
0.003468
0.003468
0.003468
0.003468
0.003468
0.003468
0.003468
0.003468
0.003468
0.003468
0.003468
0.003468
0.003468
0.003468
0.003468
0.003468
0.003468
0.003468
0.003468
0.003468
0.003468
0.003468
0.003468
0.003468
0.003468
0.003468
0.003468
0.003468
0.003468
0.003468
0.003468
0.003468
0.003468
0.003468
0.003468
0.003468
0.003468
0.003468
0.003468
0.003468
0.003468
0.003468
0.003468
0.003468
0.003468
0.003468
0.003468
0.003468
0.003468
0.003468
0.003468
0.003468
0.003468
0.003468
0.003468
0.003468
0.003468
0.003468
0.003468
0.003468
0.003468
0.003468
0.003468
0.003468
0.003468
0.003468
0.003468
0.003468
0.003468
0.003468
0.003468
0.003468
0.003468
0.003468
0.003468
0.003468
0.003468
0.003468
0.003468
0.003468
0.003468
0.003468
0.003468
0.003468
0.003468
0.003468
0.003468
0.003468
0.003468
0.003468
0.003468
0.003468
0.003468
0.003468
0.003468
0.003468
0.003468
0.003468
0.003468
0.003468
0.003468
0.003468
0.003468
0.003468
0.003468
0.003468
0.003468
0.003468
0.003468
0.003468
0.003468
0.003468
0.003468
0.003468
0.003468
0.003468
0.003468
0.003468
0.003468
0.003468
0.003468
0.003468
0.003468
0.003468
0.003468
0.003468
0.003468
0.003468
0.003468
0.003468
0.003468
0.003468
0.003468
0.003468
0.003468
0.003468
0.00346794
0.0034664
0.00345842
0.00344402
0.00342926
0.00341675
0.00340619
0.00339683
0.00338811
0.00337974
0.00337155
0.00336345
0.00335541
0.00334742
0.00333945
0.0033315
0.00332358
0.00331568
0.00330779
0.00329992
0.00329206
0.00328421
0.00327638
0.00326856
0.00326076
0.00325296
0.00324517
0.0032374
0.00322964
0.00322188
0.00321414
0.00320641
0.00319868
0.00319097
0.00318327
0.00317557
0.00316789
0.00316021
0.00315255
0.00314489
0.00313724
0.00312961
0.00312198
0.00311436
0.00310675
0.00309915
0.00309156
0.00308398
0.0030764
0.00306884
0.00306128
0.00305374
0.0030462
0.00303867
0.00303115
0.00302364
0.00301614
0.00300865
0.00300116
0.00299369
0.00298622
0.00297876
0.00297131
0.00296387
0.00295644
0.00294902
0.0029416
0.0029342
0.0029268
0.00291941
0.00291203
0.00290466
0.00289729
0.00288994
0.00288259
0.00287525
0.00286792
0.0028606
0.00285329
0.00284598
0.00283868
0.0028314
0.00282412
0.00281684
0.00280958
0.00280233
0.00279508
0.00278784
0.00278061
0.00277339
0.00276617
0.00275897
0.00275177
0.00274458
0.0027374
0.00273023
0.00272307
0.00271591
0.00270877
0.00270163
0.0026945
0.00268738
0.00268027
0.00267317
0.00266607
0.00265899
0.00265191
0.00264485
0.00263779
0.00263074
0.0026237
0.00261667
0.00260965
0.00260264
0.00259564
0.00258865
0.00258167
0.0025747
0.00256774
0.00256078
0.00255384
0.00254691
0.00253999
0.00253308
0.00252618
0.00251929
0.00251241
0.00250553
0.00249867
0.00249182
0.00248503
0.00247838
0.00247212
0.00246669
0.00246278
0.00246079
0.00246028
0.00246048
0.00246115
0.0024613
0.00246101
0.00246059
0.00246045
0.00246045
0.00246053
0.00246062
0.0024607
0.0024608
0.00246089
0.00246097
0.00246102
0.0024611
0.00246123
0.00246136
0.00246145
0.00246151
0.00246155
0.00246156
0.00246156
0.00246157
0.00246162
0.00246171
0.00246179
0.00246185
0.00246188
0.00246191
0.00246192
0.00246193
0.00246196
0.00246199
0.002462
0.002462
0.00246198
0.00246192
0.00246184
0.00246174
0.00246167
0.00246163
0.0024616
0.00246157
0.00246155
0.00246153
0.00246151
0.00246148
0.00246145
0.00246142
0.00246143
0.00246144
0.00246145
0.00246145
0.00246146
0.00246146
0.00246144
0.00246143
0.00246145
0.00246148
0.0024615
0.00246151
0.00246152
0.00246152
0.0024615
0.00246148
0.0024615
0.00246154
0.00246157
0.00246157
0.00246157
0.00246155
0.00246151
0.00246143
0.00246137
0.00246133
0.0024613
0.00246126
0.00246121
0.00246118
0.00246116
0.0024611
0.00246106
0.00246103
0.00246102
0.002461
0.00246096
0.00246093
0.00246091
0.00246088
0.00246084
0.00246082
0.00246084
0.00246083
0.00246079
0.00246077
0.00246077
0.00246075
0.00246071
0.00246065
0.00246065
0.00246055
0.00246033
0.00246017
0.00246016
0.00246023
0.00246042
0.00246102
0.00246272
0.00246655
0.00247459
0.0024908
0.00252188
0.00257874
0.0026778
0.00284045
0.00308562
0.00340716
0.00374163
0.00396768
0.00404317
0.00405561
0.00405593
0.00405513
0.00405349
0.00405078
0.00404496
0.00403537
0.00402597
0.00401887
0.00401386
0.00401138
0.00401036
0.0040103
0.0040121
0.00401516
0.00401651
0.0040174
0.0040183
0.00401837
0.00401744
0.00401721
0.00401849
0.00401996
0.00402149
0.00402346
0.00402484
0.00402466
0.00402329
0.00402118
0.00401806
0.00401473
0.00401314
0.00401275
0.00401288
0.00401447
0.00401776
0.00402009
0.00402124
0.00402216
0.00402221
0.0040208
0.00401909
0.00401886
0.00401882
0.00401887
0.00401964
0.004021
0.00402116
0.00402034
0.00401922
0.00401768
0.00401549
0.00401429
0.00401438
0.00401505
0.00401657
0.00401918
0.00402171
0.0040227
0.00402302
0.00402291
0.00402158
0.00401922
0.00401805
0.00401757
0.00401722
0.00401744
0.00401874
0.00401966
0.00401952
0.00401913
0.00401851
0.00401732
0.00401618
0.00401619
0.00401693
0.00401797
0.00401948
0.00402145
0.00402241
0.00402246
0.00402228
0.00402136
0.00401937
0.00401772
0.00401714
0.00401679
0.00401677
0.00401754
0.0040189
0.00401927
0.00401922
0.00401878
0.00401017
0.00390156
0.0033896
0.0028579
0.0028218
0.00282173
0.00282173
0.00282173
0.00282173
0.00282173
0.00282173
0.00282173
0.00282173
0.00282173
0.00282173
0.00282173
0.00282173
0.00282173
0.00282173
0.00282173
0.00282173
0.00282173
0.00282173
0.00282173
0.00282173
0.00282173
0.00282173
0.00282173
0.00282173
0.00282173
0.00282173
0.00282173
0.00282173
0.00282173
0.00282173
0.00282173
0.00282173
0.00282173
0.00282173
0.00282173
0.00282173
0.00282173
0.00282173
0.00282173
0.00282173
0.00282173
0.00282173
0.00282173
0.00282173
0.00282173
0.00282173
0.00282173
0.00282173
0.00282173
0.00282173
0.00282173
0.00282173
0.00282173
0.00282173
0.00282173
0.00282173
0.00282173
0.00282173
0.00282173
0.00282173
0.00282173
0.00282173
0.00282173
0.00282173
0.00282173
0.00282173
0.00282173
0.00282173
0.00282173
0.00282173
0.00282173
0.00282173
0.00282173
0.00282173
0.00282173
0.00282173
0.00282173
0.00282173
0.00282173
0.00282173
0.00282173
0.00282173
0.00282173
0.00282173
0.00282173
0.00282173
0.00282173
0.00282173
0.00282173
0.00282173
0.00282173
0.00282173
0.00282173
0.00282173
0.00282173
0.00282173
0.00282173
0.00282173
0.00282173
0.00282173
0.00282173
0.00282173
0.00282173
0.00282173
0.00282173
0.00282173
0.00282173
0.00282173
0.00282173
0.00282173
0.00282173
0.00282173
0.00282173
0.00282173
0.00282173
0.00282173
0.00282173
0.00282173
0.00282173
0.00282173
0.00282173
0.00282173
0.00282173
0.00282173
0.00282173
0.00282173
0.00282173
0.00282173
0.00282173
0.00282173
0.00282173
0.00282173
0.00282173
0.00282173
0.00282173
0.00282173
0.00282173
0.00282173
0.00282173
0.00282173
0.00282173
0.00282173
0.00282173
0.00282173
0.00282173
0.00282173
0.00282173
0.00282173
0.00282173
0.00282173
0.00282173
0.00282173
0.00282173
0.00282173
0.00282173
0.00282173
0.00282173
0.00282173
0.00282173
0.00282173
0.00282173
0.00282173
0.00282173
0.00282173
0.00282173
0.00282173
0.00282173
0.00282173
0.00282173
0.00282173
0.00282173
0.00282173
0.00282173
0.00282173
0.00282173
0.00282173
0.00282173
0.00282173
0.00282173
0.00282173
0.00282173
0.00282173
0.00282173
0.00282173
0.00282173
0.00282173
)
;

boundaryField
{
    left
    {
        type            zeroGradient;
    }
    right
    {
        type            zeroGradient;
    }
    empty
    {
        type            empty;
    }
}


// ************************************************************************* //
