/*--------------------------------*- C++ -*----------------------------------*\
| =========                 |                                                 |
| \\      /  F ield         | OpenFOAM: The Open Source CFD Toolbox           |
|  \\    /   O peration     | Version:  2106                                  |
|   \\  /    A nd           | Website:  www.openfoam.com                      |
|    \\/     M anipulation  |                                                 |
\*---------------------------------------------------------------------------*/
FoamFile
{
    version     2.0;
    format      ascii;
    arch        "LSB;label=32;scalar=64";
    class       volVectorField;
    location    "0.12";
    object      U;
}
// * * * * * * * * * * * * * * * * * * * * * * * * * * * * * * * * * * * * * //

dimensions      [0 1 -1 0 0 0 0];

internalField   nonuniform List<vector> 
800
(
(-2.59803e-11 0 0)
(-1.06721e-10 0 0)
(-1.59181e-10 0 0)
(-1.63103e-10 0 0)
(-1.86196e-10 0 0)
(-2.35898e-10 0 0)
(-2.88616e-10 0 0)
(-2.81157e-10 0 0)
(-2.272e-10 0 0)
(-1.48962e-10 0 0)
(-2.32166e-11 0 0)
(1.13717e-10 0 0)
(1.79962e-10 0 0)
(1.60869e-10 0 0)
(1.92432e-10 0 0)
(2.85243e-10 0 0)
(3.68367e-10 0 0)
(3.92541e-10 0 0)
(4.13959e-10 0 0)
(3.98494e-10 0 0)
(3.51015e-10 0 0)
(2.87384e-10 0 0)
(1.46241e-10 0 0)
(-4.12e-11 0 0)
(-1.0468e-10 0 0)
(-1.45867e-10 0 0)
(-1.51956e-10 0 0)
(-8.10111e-11 0 0)
(-7.77919e-11 0 0)
(-1.68284e-10 0 0)
(-2.48459e-10 0 0)
(-2.70467e-10 0 0)
(-2.70363e-10 0 0)
(-2.42453e-10 0 0)
(-1.82136e-10 0 0)
(-1.06718e-10 0 0)
(-2.85975e-11 0 0)
(5.20801e-11 0 0)
(9.33286e-11 0 0)
(1.16344e-10 0 0)
(7.61092e-11 0 0)
(4.07647e-12 0 0)
(-5.76233e-11 0 0)
(-1.45524e-10 0 0)
(-1.56641e-10 0 0)
(-2.0727e-10 0 0)
(-2.97632e-10 0 0)
(-2.5092e-10 0 0)
(-1.28703e-10 0 0)
(-4.94633e-11 0 0)
(7.45904e-12 0 0)
(6.12632e-12 0 0)
(-6.18346e-11 0 0)
(-4.29614e-11 0 0)
(-7.63692e-12 0 0)
(-9.15799e-12 0 0)
(6.3971e-11 0 0)
(1.56668e-10 0 0)
(1.51877e-10 0 0)
(1.46264e-10 0 0)
(1.25797e-10 0 0)
(7.53347e-11 0 0)
(4.23834e-11 0 0)
(2.9655e-11 0 0)
(3.17358e-12 0 0)
(3.03304e-11 0 0)
(-2.37549e-12 0 0)
(-5.7826e-11 0 0)
(-4.99838e-11 0 0)
(-1.49e-10 0 0)
(-2.39976e-10 0 0)
(-2.69123e-10 0 0)
(-2.68616e-10 0 0)
(-2.60317e-10 0 0)
(-2.13928e-10 0 0)
(-1.96072e-10 0 0)
(-2.1143e-10 0 0)
(-2.28475e-10 0 0)
(-1.91915e-10 0 0)
(-1.83461e-10 0 0)
(-2.08806e-10 0 0)
(-2.06036e-10 0 0)
(-1.83321e-10 0 0)
(-2.21827e-10 0 0)
(-2.49422e-10 0 0)
(-2.34076e-10 0 0)
(-1.69424e-10 0 0)
(-7.96297e-11 0 0)
(-1.46224e-12 0 0)
(1.12452e-10 0 0)
(1.3512e-10 0 0)
(8.26067e-11 0 0)
(1.66805e-11 0 0)
(-7.81757e-11 0 0)
(-1.07022e-10 0 0)
(-5.9845e-11 0 0)
(-4.15175e-11 0 0)
(-1.14711e-10 0 0)
(-1.79214e-10 0 0)
(-1.26964e-10 0 0)
(-8.61387e-12 0 0)
(7.19925e-11 0 0)
(7.92919e-11 0 0)
(6.87162e-11 0 0)
(4.46056e-11 0 0)
(1.43979e-11 0 0)
(-9.44886e-11 0 0)
(-1.41245e-10 0 0)
(-1.28614e-10 0 0)
(-1.63055e-10 0 0)
(-2.63376e-10 0 0)
(-3.8922e-10 0 0)
(-3.26177e-10 0 0)
(-2.38047e-10 0 0)
(-1.96625e-10 0 0)
(-1.51129e-10 0 0)
(-1.11705e-10 0 0)
(-1.26407e-10 0 0)
(-8.38811e-11 0 0)
(-9.5308e-11 0 0)
(-1.41138e-10 0 0)
(-1.80479e-10 0 0)
(-2.1533e-10 0 0)
(-2.29791e-10 0 0)
(-2.67359e-10 0 0)
(-2.92827e-10 0 0)
(-3.308e-10 0 0)
(-3.13884e-10 0 0)
(-2.52613e-10 0 0)
(-2.0101e-10 0 0)
(-2.27719e-10 0 0)
(-2.2558e-10 0 0)
(-2.49699e-10 0 0)
(-2.81355e-10 0 0)
(-2.79482e-10 0 0)
(-1.51469e-10 0 0)
(2.91299e-11 0 0)
(9.46061e-11 0 0)
(1.47016e-10 0 0)
(1.15417e-10 0 0)
(6.85813e-11 0 0)
(8.716e-11 0 0)
(6.56921e-11 0 0)
(5.66171e-11 0 0)
(7.43249e-11 0 0)
(4.13959e-11 0 0)
(1.073e-13 0 0)
(-3.63572e-11 0 0)
(-8.11449e-11 0 0)
(-1.5011e-10 0 0)
(-1.84997e-10 0 0)
(-1.61951e-10 0 0)
(-1.6821e-10 0 0)
(-1.9746e-10 0 0)
(-1.03703e-10 0 0)
(-5.17457e-11 0 0)
(-2.00936e-11 0 0)
(4.27381e-11 0 0)
(7.4998e-11 0 0)
(1.23897e-10 0 0)
(1.42799e-10 0 0)
(1.36155e-10 0 0)
(1.75289e-10 0 0)
(3.32453e-10 0 0)
(3.70251e-10 0 0)
(3.07321e-10 0 0)
(3.0407e-10 0 0)
(2.57304e-10 0 0)
(1.92911e-10 0 0)
(1.33194e-10 0 0)
(7.48596e-11 0 0)
(3.3407e-11 0 0)
(-2.62884e-12 0 0)
(-4.80124e-11 0 0)
(-9.17251e-11 0 0)
(-1.31811e-10 0 0)
(-1.41984e-10 0 0)
(-1.16166e-10 0 0)
(-9.87938e-11 0 0)
(-3.59232e-11 0 0)
(3.41366e-11 0 0)
(8.37531e-11 0 0)
(1.27395e-10 0 0)
(1.67804e-10 0 0)
(1.10405e-10 0 0)
(7.18347e-11 0 0)
(7.17285e-11 0 0)
(8.34996e-11 0 0)
(5.26979e-11 0 0)
(5.00684e-11 0 0)
(1.03541e-10 0 0)
(1.51408e-10 0 0)
(1.83621e-10 0 0)
(1.93527e-10 0 0)
(2.48447e-10 0 0)
(2.71496e-10 0 0)
(2.39554e-10 0 0)
(2.15772e-10 0 0)
(1.60442e-10 0 0)
(1.23074e-10 0 0)
(1.28349e-10 0 0)
(-1.13177e-11 0 0)
(-1.23077e-10 0 0)
(-1.69715e-10 0 0)
(-2.19814e-10 0 0)
(-1.58924e-10 0 0)
(-1.13741e-10 0 0)
(-1.17271e-10 0 0)
(-9.07051e-11 0 0)
(-7.6529e-11 0 0)
(-6.55385e-11 0 0)
(-2.32048e-11 0 0)
(-4.13123e-12 0 0)
(3.19974e-11 0 0)
(8.08253e-11 0 0)
(1.47257e-10 0 0)
(1.65654e-10 0 0)
(1.28788e-10 0 0)
(2.43216e-11 0 0)
(-8.19516e-11 0 0)
(-1.07712e-10 0 0)
(-1.03552e-11 0 0)
(6.94657e-11 0 0)
(1.01587e-10 0 0)
(5.73123e-11 0 0)
(-1.67364e-11 0 0)
(2.83588e-11 0 0)
(8.41219e-11 0 0)
(7.49355e-12 0 0)
(-1.32263e-10 0 0)
(-1.55174e-10 0 0)
(-1.36e-10 0 0)
(-1.20378e-10 0 0)
(-5.25054e-11 0 0)
(3.44516e-11 0 0)
(1.62673e-10 0 0)
(2.79412e-10 0 0)
(3.37826e-10 0 0)
(3.20515e-10 0 0)
(2.82367e-10 0 0)
(2.81266e-10 0 0)
(2.09616e-10 0 0)
(1.71062e-10 0 0)
(1.63645e-10 0 0)
(1.67213e-10 0 0)
(1.46919e-10 0 0)
(-1.01527e-11 0 0)
(-1.56166e-10 0 0)
(-2.38923e-10 0 0)
(-3.72981e-10 0 0)
(-4.66283e-10 0 0)
(-4.72786e-10 0 0)
(-5.11433e-10 0 0)
(-6.4295e-10 0 0)
(-7.82414e-10 0 0)
(-8.6514e-10 0 0)
(-8.44567e-10 0 0)
(-7.67704e-10 0 0)
(2.57714e-07 0 0)
(5.32282e-05 0 0)
(0.00136496 0 0)
(0.0081578 0 0)
(0.0204278 0 0)
(0.0330305 0 0)
(0.0437365 0 0)
(0.0527905 0 0)
(0.0608324 0 0)
(0.068323 0 0)
(0.0755288 0 0)
(0.0825899 0 0)
(0.0895758 0 0)
(0.09652 0 0)
(0.103438 0 0)
(0.110339 0 0)
(0.117227 0 0)
(0.124105 0 0)
(0.130975 0 0)
(0.137838 0 0)
(0.144696 0 0)
(0.15155 0 0)
(0.1584 0 0)
(0.165247 0 0)
(0.172092 0 0)
(0.178934 0 0)
(0.185775 0 0)
(0.192614 0 0)
(0.199452 0 0)
(0.206289 0 0)
(0.213125 0 0)
(0.219961 0 0)
(0.226795 0 0)
(0.233629 0 0)
(0.240463 0 0)
(0.247296 0 0)
(0.254129 0 0)
(0.260962 0 0)
(0.267794 0 0)
(0.274627 0 0)
(0.281459 0 0)
(0.288291 0 0)
(0.295124 0 0)
(0.301956 0 0)
(0.308788 0 0)
(0.315621 0 0)
(0.322454 0 0)
(0.329286 0 0)
(0.33612 0 0)
(0.342953 0 0)
(0.349786 0 0)
(0.35662 0 0)
(0.363455 0 0)
(0.370289 0 0)
(0.377124 0 0)
(0.383959 0 0)
(0.390795 0 0)
(0.397631 0 0)
(0.404468 0 0)
(0.411305 0 0)
(0.418143 0 0)
(0.424981 0 0)
(0.43182 0 0)
(0.438659 0 0)
(0.445499 0 0)
(0.45234 0 0)
(0.459181 0 0)
(0.466023 0 0)
(0.472866 0 0)
(0.47971 0 0)
(0.486554 0 0)
(0.493399 0 0)
(0.500245 0 0)
(0.507092 0 0)
(0.513939 0 0)
(0.520788 0 0)
(0.527637 0 0)
(0.534487 0 0)
(0.541339 0 0)
(0.548191 0 0)
(0.555044 0 0)
(0.561898 0 0)
(0.568753 0 0)
(0.575609 0 0)
(0.582466 0 0)
(0.589324 0 0)
(0.596183 0 0)
(0.603044 0 0)
(0.609905 0 0)
(0.616767 0 0)
(0.62363 0 0)
(0.630494 0 0)
(0.637359 0 0)
(0.644225 0 0)
(0.651093 0 0)
(0.657961 0 0)
(0.66483 0 0)
(0.6717 0 0)
(0.67857 0 0)
(0.685442 0 0)
(0.692314 0 0)
(0.699187 0 0)
(0.706061 0 0)
(0.712936 0 0)
(0.719811 0 0)
(0.726686 0 0)
(0.733563 0 0)
(0.740439 0 0)
(0.747316 0 0)
(0.754193 0 0)
(0.76107 0 0)
(0.767947 0 0)
(0.774824 0 0)
(0.781701 0 0)
(0.788578 0 0)
(0.795455 0 0)
(0.802331 0 0)
(0.809207 0 0)
(0.816083 0 0)
(0.822957 0 0)
(0.829832 0 0)
(0.836705 0 0)
(0.843578 0 0)
(0.85045 0 0)
(0.857322 0 0)
(0.864193 0 0)
(0.871065 0 0)
(0.877936 0 0)
(0.884809 0 0)
(0.891681 0 0)
(0.898543 0 0)
(0.905362 0 0)
(0.912043 0 0)
(0.918353 0 0)
(0.92382 0 0)
(0.927775 0 0)
(0.929781 0 0)
(0.930281 0 0)
(0.930077 0 0)
(0.929409 0 0)
(0.929252 0 0)
(0.929545 0 0)
(0.929971 0 0)
(0.930081 0 0)
(0.930088 0 0)
(0.930009 0 0)
(0.929916 0 0)
(0.929838 0 0)
(0.92974 0 0)
(0.929635 0 0)
(0.929555 0 0)
(0.929489 0 0)
(0.9294 0 0)
(0.929269 0 0)
(0.929134 0 0)
(0.929037 0 0)
(0.928975 0 0)
(0.928943 0 0)
(0.928928 0 0)
(0.928919 0 0)
(0.928899 0 0)
(0.928833 0 0)
(0.928734 0 0)
(0.928652 0 0)
(0.928598 0 0)
(0.928559 0 0)
(0.928535 0 0)
(0.928519 0 0)
(0.928498 0 0)
(0.92846 0 0)
(0.928416 0 0)
(0.928397 0 0)
(0.928395 0 0)
(0.928412 0 0)
(0.92847 0 0)
(0.928554 0 0)
(0.928641 0 0)
(0.928701 0 0)
(0.928732 0 0)
(0.928751 0 0)
(0.928771 0 0)
(0.928792 0 0)
(0.928806 0 0)
(0.928821 0 0)
(0.928847 0 0)
(0.928875 0 0)
(0.928883 0 0)
(0.928873 0 0)
(0.928855 0 0)
(0.928845 0 0)
(0.92883 0 0)
(0.928808 0 0)
(0.928796 0 0)
(0.928797 0 0)
(0.928796 0 0)
(0.928769 0 0)
(0.928724 0 0)
(0.928701 0 0)
(0.928686 0 0)
(0.928667 0 0)
(0.928649 0 0)
(0.928646 0 0)
(0.928646 0 0)
(0.928622 0 0)
(0.92857 0 0)
(0.92854 0 0)
(0.928535 0 0)
(0.928537 0 0)
(0.928544 0 0)
(0.928569 0 0)
(0.928628 0 0)
(0.928665 0 0)
(0.928676 0 0)
(0.928679 0 0)
(0.928695 0 0)
(0.928716 0 0)
(0.928726 0 0)
(0.928735 0 0)
(0.92877 0 0)
(0.928798 0 0)
(0.928794 0 0)
(0.928769 0 0)
(0.928772 0 0)
(0.928789 0 0)
(0.928793 0 0)
(0.928785 0 0)
(0.928797 0 0)
(0.928818 0 0)
(0.928809 0 0)
(0.928755 0 0)
(0.928735 0 0)
(0.928742 0 0)
(0.928733 0 0)
(0.928706 0 0)
(0.928701 0 0)
(0.928726 0 0)
(0.92873 0 0)
(0.928674 0 0)
(0.928636 0 0)
(0.928646 0 0)
(0.928642 0 0)
(0.928611 0 0)
(0.928585 0 0)
(0.928609 0 0)
(0.928655 0 0)
(0.928622 0 0)
(0.928585 0 0)
(0.928626 0 0)
(0.928666 0 0)
(0.928693 0 0)
(0.928751 0 0)
(0.928921 0 0)
(0.929357 0 0)
(0.929757 0 0)
(0.929703 0 0)
(0.931551 0 0)
(0.930558 0 0)
(0.926322 0 0)
(0.9268 0 0)
(0.926947 0 0)
(0.927585 0 0)
(0.929011 0 0)
(0.930984 0 0)
(0.932001 0 0)
(0.931179 0 0)
(0.929961 0 0)
(0.928487 0 0)
(0.927064 0 0)
(0.926365 0 0)
(0.926268 0 0)
(0.926761 0 0)
(0.928514 0 0)
(0.930659 0 0)
(0.931193 0 0)
(0.931235 0 0)
(0.930909 0 0)
(0.92965 0 0)
(0.927543 0 0)
(0.926269 0 0)
(0.926255 0 0)
(0.926564 0 0)
(0.927348 0 0)
(0.929041 0 0)
(0.930577 0 0)
(0.93098 0 0)
(0.930846 0 0)
(0.930359 0 0)
(0.928997 0 0)
(0.927116 0 0)
(0.926403 0 0)
(0.92636 0 0)
(0.92662 0 0)
(0.927698 0 0)
(0.929619 0 0)
(0.930601 0 0)
(0.930789 0 0)
(0.930751 0 0)
(0.930046 0 0)
(0.928332 0 0)
(0.926792 0 0)
(0.926587 0 0)
(0.926654 0 0)
(0.927066 0 0)
(0.928312 0 0)
(0.930062 0 0)
(0.930807 0 0)
(0.930775 0 0)
(0.930513 0 0)
(0.929685 0 0)
(0.928008 0 0)
(0.926956 0 0)
(0.926849 0 0)
(0.926959 0 0)
(0.927464 0 0)
(0.928843 0 0)
(0.930276 0 0)
(0.930637 0 0)
(0.930636 0 0)
(0.93032 0 0)
(0.929211 0 0)
(0.927595 0 0)
(0.927023 0 0)
(0.92696 0 0)
(0.927103 0 0)
(0.927798 0 0)
(0.929264 0 0)
(0.93031 0 0)
(0.930417 0 0)
(0.930306 0 0)
(0.929859 0 0)
(0.928679 0 0)
(0.927391 0 0)
(0.926999 0 0)
(0.927058 0 0)
(0.927304 0 0)
(0.92808 0 0)
(0.929453 0 0)
(0.930121 0 0)
(0.930136 0 0)
(0.93003 0 0)
(0.929489 0 0)
(0.928223 0 0)
(0.927276 0 0)
(0.927126 0 0)
(0.92715 0 0)
(0.927482 0 0)
(0.928437 0 0)
(0.929708 0 0)
(0.930108 0 0)
(0.930099 0 0)
(0.929587 0 0)
(0.922282 0 0)
(0.839646 0 0)
(0.424541 0 0)
(0.0263303 0 0)
(5.64271e-05 0 0)
(1.8651e-09 0 0)
(-1.23437e-10 0 0)
(-2.16826e-10 0 0)
(-2.87591e-10 0 0)
(-2.49216e-10 0 0)
(-2.55559e-10 0 0)
(-2.74308e-10 0 0)
(-2.3765e-10 0 0)
(-2.59832e-10 0 0)
(-2.67752e-10 0 0)
(-2.71313e-10 0 0)
(-2.58392e-10 0 0)
(-2.46584e-10 0 0)
(-2.74882e-10 0 0)
(-2.74574e-10 0 0)
(-2.28964e-10 0 0)
(-2.1206e-10 0 0)
(-2.2083e-10 0 0)
(-2.33722e-10 0 0)
(-2.53342e-10 0 0)
(-1.5994e-10 0 0)
(-1.01783e-10 0 0)
(-1.24847e-10 0 0)
(-1.78925e-10 0 0)
(-1.60129e-10 0 0)
(-1.90909e-10 0 0)
(-2.52797e-10 0 0)
(-2.857e-10 0 0)
(-2.7957e-10 0 0)
(-2.17077e-10 0 0)
(-1.91473e-10 0 0)
(-2.03752e-10 0 0)
(-2.72104e-10 0 0)
(-2.45074e-10 0 0)
(-1.21607e-10 0 0)
(-4.83259e-11 0 0)
(-8.5429e-11 0 0)
(-7.3862e-11 0 0)
(-7.93435e-11 0 0)
(-9.80362e-11 0 0)
(-1.15196e-10 0 0)
(-1.28871e-10 0 0)
(-4.48484e-11 0 0)
(1.06849e-10 0 0)
(2.29496e-10 0 0)
(2.76167e-10 0 0)
(2.6809e-10 0 0)
(2.3378e-10 0 0)
(2.01722e-10 0 0)
(2.06613e-10 0 0)
(2.50044e-10 0 0)
(2.91851e-10 0 0)
(3.1204e-10 0 0)
(3.84928e-10 0 0)
(4.02941e-10 0 0)
(3.02974e-10 0 0)
(2.04436e-10 0 0)
(1.5051e-10 0 0)
(7.05175e-11 0 0)
(1.64234e-11 0 0)
(1.23543e-10 0 0)
(1.91335e-10 0 0)
(1.36585e-10 0 0)
(1.17402e-10 0 0)
(9.4494e-11 0 0)
(1.12435e-10 0 0)
(2.8734e-11 0 0)
(-7.56113e-11 0 0)
(-2.20159e-10 0 0)
(-4.03711e-10 0 0)
(-4.96596e-10 0 0)
(-5.35461e-10 0 0)
(-4.70365e-10 0 0)
(-3.34936e-10 0 0)
(-2.24894e-10 0 0)
(-1.34845e-10 0 0)
(-1.01296e-10 0 0)
(-3.55001e-11 0 0)
(1.48877e-11 0 0)
(8.27309e-11 0 0)
(1.15738e-10 0 0)
(9.44398e-11 0 0)
(9.22067e-11 0 0)
(9.38203e-11 0 0)
(1.58119e-10 0 0)
(2.139e-10 0 0)
(2.48794e-10 0 0)
(2.63283e-10 0 0)
(2.09796e-10 0 0)
(2.00945e-10 0 0)
(1.98185e-10 0 0)
(1.62582e-10 0 0)
(1.63082e-10 0 0)
(1.90343e-10 0 0)
(1.86373e-10 0 0)
(1.63203e-10 0 0)
(1.35424e-10 0 0)
(6.43156e-11 0 0)
(-2.54555e-11 0 0)
(-1.74237e-10 0 0)
(-2.24159e-10 0 0)
(-1.7108e-10 0 0)
(-1.01674e-10 0 0)
(-1.40111e-11 0 0)
(-1.66635e-11 0 0)
(-4.11822e-11 0 0)
(1.76342e-11 0 0)
(4.92293e-11 0 0)
(-6.40753e-12 0 0)
(-6.05626e-11 0 0)
(-8.62923e-11 0 0)
(-1.06758e-10 0 0)
(-2.06232e-10 0 0)
(-2.53794e-10 0 0)
(-2.31205e-10 0 0)
(-2.03791e-10 0 0)
(-1.55781e-10 0 0)
(-2.98319e-11 0 0)
(1.27708e-10 0 0)
(2.06859e-10 0 0)
(1.74391e-10 0 0)
(1.32299e-10 0 0)
(1.19925e-10 0 0)
(1.1982e-10 0 0)
(1.17721e-10 0 0)
(3.9139e-11 0 0)
(-1.53762e-11 0 0)
(-3.7042e-11 0 0)
(-4.8761e-11 0 0)
(-6.75301e-11 0 0)
(-5.40405e-11 0 0)
(-8.91472e-11 0 0)
(-4.57728e-11 0 0)
(4.61317e-11 0 0)
(9.58566e-11 0 0)
(1.22427e-10 0 0)
(1.17262e-10 0 0)
(1.19788e-10 0 0)
(5.87321e-11 0 0)
(1.5909e-11 0 0)
(2.09036e-11 0 0)
(-3.33214e-11 0 0)
(-1.94567e-10 0 0)
(-2.65609e-10 0 0)
(-2.58338e-10 0 0)
(-1.68761e-10 0 0)
(5.48376e-12 0 0)
(1.16432e-10 0 0)
(2.6493e-10 0 0)
(3.94747e-10 0 0)
(4.46401e-10 0 0)
(3.93864e-10 0 0)
(3.57949e-10 0 0)
(3.06634e-10 0 0)
(1.8447e-10 0 0)
(1.85087e-10 0 0)
(1.6957e-10 0 0)
(1.62945e-11 0 0)
(-6.39902e-11 0 0)
(-8.55143e-11 0 0)
(-8.82629e-11 0 0)
(-1.07867e-10 0 0)
(-1.21028e-10 0 0)
(-6.21367e-11 0 0)
(5.92744e-11 0 0)
(1.30253e-10 0 0)
(1.56768e-10 0 0)
(1.15012e-10 0 0)
(4.28846e-11 0 0)
(6.50563e-11 0 0)
(1.07622e-10 0 0)
(1.14608e-10 0 0)
(1.24222e-10 0 0)
(1.08585e-10 0 0)
(1.2302e-10 0 0)
(1.70448e-10 0 0)
(1.85357e-10 0 0)
(2.38948e-10 0 0)
(1.39359e-10 0 0)
(6.90611e-11 0 0)
(3.47421e-11 0 0)
(9.06961e-11 0 0)
(1.21029e-10 0 0)
(1.27567e-10 0 0)
(7.79154e-11 0 0)
(4.76722e-11 0 0)
)
;

boundaryField
{
    left
    {
        type            noSlip;
    }
    right
    {
        type            noSlip;
    }
    empty
    {
        type            empty;
    }
}


// ************************************************************************* //
