/*--------------------------------*- C++ -*----------------------------------*\
| =========                 |                                                 |
| \\      /  F ield         | OpenFOAM: The Open Source CFD Toolbox           |
|  \\    /   O peration     | Version:  2106                                  |
|   \\  /    A nd           | Website:  www.openfoam.com                      |
|    \\/     M anipulation  |                                                 |
\*---------------------------------------------------------------------------*/
FoamFile
{
    version     2.0;
    format      ascii;
    arch        "LSB;label=32;scalar=64";
    class       volVectorField;
    location    "0.39";
    object      U;
}
// * * * * * * * * * * * * * * * * * * * * * * * * * * * * * * * * * * * * * //

dimensions      [0 1 -1 0 0 0 0];

internalField   nonuniform List<vector> 
9600
(
(0.675396182418 0.157677435237 0)
(0.563826161663 0.102430802058 0)
(0.381538928647 0.0510646947268 0)
(0.283853188677 0.0244589888633 0)
(0.23228103285 0.0119348217961 0)
(0.201907709243 0.00623035839129 0)
(0.183178409468 0.00352192593909 0)
(0.171271988272 0.00212007498302 0)
(0.163512241669 0.0013252358377 0)
(0.158392662042 0.000841456137122 0)
(0.155010700332 0.000534135252019 0)
(0.152789981692 0.000335039707535 0)
(0.151348694186 0.000205521460996 0)
(0.15042924733 0.000121792353856 0)
(0.149856459938 6.84343973585e-05 0)
(0.149511123903 3.51735454407e-05 0)
(0.149312514831 1.50866729614e-05 0)
(0.149206464222 3.50378776673e-06 0)
(0.149157083077 -2.70698705259e-06 0)
(0.14914097286 -5.61171523111e-06 0)
(0.149143255695 -6.52752045564e-06 0)
(0.149154651741 -6.4182281229e-06 0)
(0.14916959069 -5.78215631689e-06 0)
(0.149184962884 -4.92844341634e-06 0)
(0.149199133876 -4.04282446634e-06 0)
(0.149211382249 -3.22364822812e-06 0)
(0.14922152058 -2.51491638874e-06 0)
(0.149229648979 -1.92844100926e-06 0)
(0.149236003937 -1.45843493247e-06 0)
(0.149240870014 -1.09130903884e-06 0)
(0.149244530203 -8.11183281432e-07 0)
(0.149247239457 -6.01765418506e-07 0)
(0.149249214631 -4.47599324393e-07 0)
(0.149250634056 -3.35718909631e-07 0)
(0.149251640072 -2.55857274189e-07 0)
(0.149252342854 -1.99534672394e-07 0)
(0.149252826101 -1.59756444771e-07 0)
(0.149253152948 -1.31182565287e-07 0)
(0.149253370178 -1.10232497647e-07 0)
(0.149253511465 -9.43957546378e-08 0)
(0.149253601244 -8.19480827465e-08 0)
(0.149253657612 -7.29975559009e-08 0)
(0.149253691841 -6.9385937142e-08 0)
(0.149253710294 -7.0244871544e-08 0)
(0.149253718594 -7.31514300551e-08 0)
(0.149253721172 -7.74836541029e-08 0)
(0.149253720219 -8.33575628122e-08 0)
(0.149253717135 -9.10692885743e-08 0)
(0.149253712872 -9.99456241797e-08 0)
(0.149253707954 -1.09312010173e-07 0)
(0.149253702959 -1.18693142809e-07 0)
(0.149253698391 -1.28223777289e-07 0)
(0.149253694373 -1.38558999593e-07 0)
(0.149253690459 -1.4982198907e-07 0)
(0.14925368651 -1.61558054393e-07 0)
(0.149253683206 -1.73728901786e-07 0)
(0.149253680822 -1.86763974345e-07 0)
(0.149253678427 -2.00731031046e-07 0)
(0.149253675118 -2.15575010091e-07 0)
(0.14925367109 -2.31567665747e-07 0)
(0.149253666718 -2.48866633163e-07 0)
(0.149253661995 -2.67360777685e-07 0)
(0.149253657244 -2.87031080616e-07 0)
(0.149253653083 -3.07827344907e-07 0)
(0.149253649677 -3.29688479553e-07 0)
(0.149253646516 -3.52847883479e-07 0)
(0.149253642682 -3.77641067525e-07 0)
(0.149253637491 -4.04166923982e-07 0)
(0.149253631157 -4.32265170989e-07 0)
(0.149253624544 -4.61831663566e-07 0)
(0.149253618276 -4.92933025662e-07 0)
(0.149253612263 -5.25664013268e-07 0)
(0.149253606163 -5.60135639807e-07 0)
(0.149253599946 -5.96455360009e-07 0)
(0.149253593765 -6.34723506828e-07 0)
(0.149253587699 -6.75114498239e-07 0)
(0.149253581635 -7.17761676562e-07 0)
(0.149253575341 -7.62588719102e-07 0)
(0.149253568736 -8.09517192822e-07 0)
(0.149253561885 -8.58709088963e-07 0)
(0.149253554908 -9.10413705355e-07 0)
(0.149253547982 -9.64700656837e-07 0)
(0.149253541292 -1.02150821303e-06 0)
(0.149253534778 -1.08086386682e-06 0)
(0.149253528329 -1.14298900462e-06 0)
(0.149253522113 -1.20800276735e-06 0)
(0.149253516325 -1.27565611499e-06 0)
(0.149253511033 -1.34580602893e-06 0)
(0.149253506096 -1.41868933348e-06 0)
(0.149253501278 -1.49458364911e-06 0)
(0.149253496906 -1.57366154039e-06 0)
(0.149253493617 -1.65584825827e-06 0)
(0.149253491492 -1.74065775337e-06 0)
(0.149253490463 -1.82784694133e-06 0)
(0.149253491083 -1.91814968386e-06 0)
(0.149253493236 -2.01198506592e-06 0)
(0.149253496167 -2.10886772433e-06 0)
(0.149253500689 -2.20862417681e-06 0)
(0.149253508405 -2.31085292548e-06 0)
(0.149253520251 -2.41451824496e-06 0)
(0.149253537181 -2.51954129217e-06 0)
(0.149253560171 -2.62648581835e-06 0)
(0.149253589559 -2.73591812431e-06 0)
(0.149253625879 -2.84726584252e-06 0)
(0.149253671791 -2.96007314749e-06 0)
(0.149253731004 -3.07474225567e-06 0)
(0.149253805976 -3.19201492941e-06 0)
(0.149253898686 -3.31199348928e-06 0)
(0.149254013239 -3.43525263694e-06 0)
(0.149254156081 -3.56471983398e-06 0)
(0.149254334102 -3.70618779583e-06 0)
(0.149254556762 -3.86429115807e-06 0)
(0.149254835005 -4.03371414958e-06 0)
(0.149255180497 -4.2128891906e-06 0)
(0.149255608115 -4.4024504288e-06 0)
(0.149256136929 -4.6027601662e-06 0)
(0.14925679246 -4.81471029412e-06 0)
(0.149257605892 -5.0399810009e-06 0)
(0.149258613329 -5.27954895867e-06 0)
(0.149259860617 -5.53482289342e-06 0)
(0.14926140629 -5.80831895543e-06 0)
(0.149263321476 -6.10308721202e-06 0)
(0.149265693152 -6.42491485745e-06 0)
(0.149268638852 -6.7897187663e-06 0)
(0.149272329131 -7.25392166329e-06 0)
(0.149276896642 -7.94516301573e-06 0)
(0.149282506484 -8.8012325457e-06 0)
(0.149289440066 -9.78392162411e-06 0)
(0.149298024851 -1.08889003655e-05 0)
(0.149308653786 -1.21268212904e-05 0)
(0.149321816515 -1.35175375096e-05 0)
(0.149338118419 -1.50862393374e-05 0)
(0.14935830943 -1.68651423376e-05 0)
(0.149383318458 -1.8893176006e-05 0)
(0.149414297584 -2.12185163935e-05 0)
(0.149452679701 -2.39042021953e-05 0)
(0.149500243422 -2.70302770767e-05 0)
(0.149559197813 -3.06961895716e-05 0)
(0.149632292527 -3.50265838693e-05 0)
(0.149722954196 -4.01815659036e-05 0)
(0.149835458123 -4.63668276313e-05 0)
(0.149975142596 -5.38404297694e-05 0)
(0.150148697607 -6.29318195448e-05 0)
(0.150364532686 -7.40649296146e-05 0)
(0.150633246468 -8.77840481438e-05 0)
(0.150968260764 -0.000104795629862 0)
(0.151386661603 -0.000126018442018 0)
(0.151910349057 -0.00015265603622 0)
(0.152567625861 -0.000186297570255 0)
(0.153395437418 -0.000229056058019 0)
(0.154442663304 -0.000283779651182 0)
(0.155775198328 -0.000354463448032 0)
(0.157484595456 -0.000447425251356 0)
(0.159705574463 -0.00057563324865 0)
(0.162657975575 -0.00077538524198 0)
(0.166752762052 -0.00116756779014 0)
(0.172922180208 -0.00218064077668 0)
(0.183957660822 -0.00540661976038 0)
(0.208270782906 -0.0168573755257 0)
(0.261827084876 -0.0586416351222 0)
(0.977201170053 0.296997123773 0)
(0.962687466158 0.250387263646 0)
(0.820646033231 0.158581012762 0)
(0.697824894205 0.0957993467877 0)
(0.61049167165 0.0579132733992 0)
(0.549133315461 0.0359038518424 0)
(0.506705988348 0.0229309350809 0)
(0.47766202374 0.0149788776747 0)
(0.457815301488 0.0099097320414 0)
(0.444277678511 0.00658330970129 0)
(0.435087230951 0.00436198714478 0)
(0.428895559859 0.00286682771809 0)
(0.424768041175 0.0018597217341 0)
(0.422054232305 0.0011845729631 0)
(0.420301050147 0.000736111370395 0)
(0.41919367706 0.000442159651434 0)
(0.418514608406 0.000252859628435 0)
(0.418114832039 0.00013373857604 0)
(0.417893373113 6.1051658117e-05 0)
(0.417782729646 1.85768290842e-05 0)
(0.417738470998 -4.63523202247e-06 0)
(0.417731932614 -1.60108028285e-05 0)
(0.417745147619 -2.03065791731e-05 0)
(0.417767170588 -2.06091684551e-05 0)
(0.417791619697 -1.88557960686e-05 0)
(0.417815033312 -1.62208336988e-05 0)
(0.41783575234 -1.33831035121e-05 0)
(0.41785318494 -1.07058745013e-05 0)
(0.417867334411 -8.35782720575e-06 0)
(0.417878506055 -6.39380749068e-06 0)
(0.41788713159 -4.80692537247e-06 0)
(0.417893666507 -3.55890989934e-06 0)
(0.417898534863 -2.59809610059e-06 0)
(0.417902105882 -1.87144078198e-06 0)
(0.417904687702 -1.33081425352e-06 0)
(0.417906528543 -9.34568812938e-07 0)
(0.417907822701 -6.47652430985e-07 0)
(0.417908719201 -4.41913030685e-07 0)
(0.417909330565 -2.96130502476e-07 0)
(0.417909740355 -1.94177884212e-07 0)
(0.417910009073 -1.23727912276e-07 0)
(0.417910179888 -7.66540825242e-08 0)
(0.417910284412 -4.81301944106e-08 0)
(0.417910345714 -3.25862446554e-08 0)
(0.417910378927 -2.46998732094e-08 0)
(0.417910393675 -2.13072307749e-08 0)
(0.417910396375 -2.00259001761e-08 0)
(0.417910392215 -1.9179148024e-08 0)
(0.417910384878 -1.92183001977e-08 0)
(0.417910376084 -2.02676473983e-08 0)
(0.417910366666 -2.13979287533e-08 0)
(0.417910356685 -2.24822345264e-08 0)
(0.417910346437 -2.42564219845e-08 0)
(0.417910336457 -2.68195183301e-08 0)
(0.417910326812 -2.92809988776e-08 0)
(0.417910317454 -3.11827771468e-08 0)
(0.417910308566 -3.31061388194e-08 0)
(0.417910299643 -3.54669888126e-08 0)
(0.41791028951 -3.80102330253e-08 0)
(0.417910278097 -4.06693416368e-08 0)
(0.417910266152 -4.37819125526e-08 0)
(0.417910253783 -4.72169849528e-08 0)
(0.417910241135 -5.06978025701e-08 0)
(0.417910228893 -5.41457058612e-08 0)
(0.417910217098 -5.75336547828e-08 0)
(0.417910204878 -6.11288066998e-08 0)
(0.417910191291 -6.53789998442e-08 0)
(0.417910176002 -7.03117281485e-08 0)
(0.417910159396 -7.52274505582e-08 0)
(0.417910142149 -7.97554146729e-08 0)
(0.417910124755 -8.41408360999e-08 0)
(0.417910107179 -8.87488746684e-08 0)
(0.4179100891 -9.36965403691e-08 0)
(0.417910070441 -9.88628085113e-08 0)
(0.417910051265 -1.04102563675e-07 0)
(0.417910031619 -1.09527099638e-07 0)
(0.417910011597 -1.15396794684e-07 0)
(0.417909991161 -1.21718951937e-07 0)
(0.417909970052 -1.28353394727e-07 0)
(0.4179099481 -1.35303174017e-07 0)
(0.417909925548 -1.42647705549e-07 0)
(0.417909902849 -1.50392795497e-07 0)
(0.417909880188 -1.58526559266e-07 0)
(0.417909857268 -1.67002602587e-07 0)
(0.417909834004 -1.75901018719e-07 0)
(0.417909811091 -1.85480805254e-07 0)
(0.417909788982 -1.95586371655e-07 0)
(0.417909767396 -2.0585127701e-07 0)
(0.417909746041 -2.16372228168e-07 0)
(0.417909724937 -2.27432039597e-07 0)
(0.417909704759 -2.39264073501e-07 0)
(0.417909686754 -2.52075696401e-07 0)
(0.417909671424 -2.65542557796e-07 0)
(0.417909658147 -2.79040956246e-07 0)
(0.417909647416 -2.93409155615e-07 0)
(0.417909640647 -3.09994333443e-07 0)
(0.417909638069 -3.2852178294e-07 0)
(0.417909640855 -3.48665848421e-07 0)
(0.417909651993 -3.70912647504e-07 0)
(0.417909673241 -3.95736088088e-07 0)
(0.417909705831 -4.24760323776e-07 0)
(0.417909752189 -4.580356602e-07 0)
(0.417909815773 -4.96931848353e-07 0)
(0.417909900165 -5.40742016833e-07 0)
(0.417910009982 -5.88634106207e-07 0)
(0.417910151811 -6.42066939047e-07 0)
(0.417910333117 -7.02934805771e-07 0)
(0.417910561725 -7.7183525727e-07 0)
(0.417910846456 -8.48527648424e-07 0)
(0.417911198025 -9.31574791182e-07 0)
(0.417911632753 -1.01560614534e-06 0)
(0.417912183581 -1.09623266642e-06 0)
(0.417912883056 -1.185104405e-06 0)
(0.417913758392 -1.2894655206e-06 0)
(0.417914848613 -1.41476390466e-06 0)
(0.41791620418 -1.56580476814e-06 0)
(0.417917888213 -1.74954508665e-06 0)
(0.417919980076 -1.97613507764e-06 0)
(0.417922576154 -2.25631514081e-06 0)
(0.417925795147 -2.60312029029e-06 0)
(0.417929785916 -3.03384293168e-06 0)
(0.417934731183 -3.57046768284e-06 0)
(0.41794085219 -4.24126990069e-06 0)
(0.417948413581 -5.08576728496e-06 0)
(0.417957733747 -6.1818678881e-06 0)
(0.417969283145 -7.67426231753e-06 0)
(0.417983656363 -9.58521525312e-06 0)
(0.418001506943 -1.19717893981e-05 0)
(0.418023644086 -1.49323306549e-05 0)
(0.418051077696 -1.85937317727e-05 0)
(0.418085069289 -2.31196549013e-05 0)
(0.418127183705 -2.87140060726e-05 0)
(0.418179360978 -3.56295625087e-05 0)
(0.418244006636 -4.41779316532e-05 0)
(0.418324101488 -5.47428047962e-05 0)
(0.418423347114 -6.78034853611e-05 0)
(0.418546342406 -8.39589131047e-05 0)
(0.418698802105 -0.000103953820027 0)
(0.418887833802 -0.00012871624082 0)
(0.41912228953 -0.000159411776845 0)
(0.419413216422 -0.000197513002609 0)
(0.419774416116 -0.000244876196154 0)
(0.420223174214 -0.000303855492262 0)
(0.420781212102 -0.000377460639326 0)
(0.42147591269 -0.000469561324289 0)
(0.42234195849 -0.000585182296982 0)
(0.42342353214 -0.00073091190535 0)
(0.424777336179 -0.000915504454688 0)
(0.426476843223 -0.00115080206911 0)
(0.428618462494 -0.00145319566242 0)
(0.431330901996 -0.00184613569694 0)
(0.434790142543 -0.00236488127078 0)
(0.439244962446 -0.00306663223457 0)
(0.445064121042 -0.0040550175359 0)
(0.452829765043 -0.0055452440708 0)
(0.463516346488 -0.00804374859834 0)
(0.478828384944 -0.0128454651399 0)
(0.502061963796 -0.0234649580197 0)
(0.539612571229 -0.0496780565162 0)
(0.595489039244 -0.114904525358 0)
(1.03387038155 0.239240967009 0)
(1.08314081872 0.293634375573 0)
(1.03294437944 0.239131933048 0)
(0.954408205399 0.174539019166 0)
(0.880112588228 0.121551459899 0)
(0.818677615828 0.083233593072 0)
(0.771466792867 0.0568258114752 0)
(0.73669157427 0.0388125710395 0)
(0.711672100434 0.026491317567 0)
(0.693953127906 0.0180235776509 0)
(0.681568202245 0.0121876211003 0)
(0.673018600855 0.00816650445034 0)
(0.667192230664 0.00540556714085 0)
(0.66327774795 0.00352226345879 0)
(0.660690309803 0.00224961240432 0)
(0.659012734662 0.00140002865694 0)
(0.657950526943 0.000841456254265 0)
(0.657298072799 0.000481123099368 0)
(0.656913528234 0.000254194279971 0)
(0.65670033674 0.000115711140049 0)
(0.656593727942 3.4797026195e-05 0)
(0.656551013515 -9.4641781978e-06 0)
(0.656544669385 -3.10077570796e-05 0)
(0.65655736601 -3.90712059241e-05 0)
(0.656578548542 -3.95439971467e-05 0)
(0.656602071213 -3.61167982595e-05 0)
(0.656624600273 -3.10273672315e-05 0)
(0.65664453789 -2.5566092266e-05 0)
(0.65666131326 -2.042197018e-05 0)
(0.656674928717 -1.59144986629e-05 0)
(0.656685678567 -1.21469266819e-05 0)
(0.656693978612 -9.10380488264e-06 0)
(0.656700266468 -6.71019825214e-06 0)
(0.656704949879 -4.86754003078e-06 0)
(0.656708384591 -3.4750001295e-06 0)
(0.656710867236 -2.44018096339e-06 0)
(0.656712636448 -1.68303556782e-06 0)
(0.656713878922 -1.137209406e-06 0)
(0.656714738143 -7.49721185605e-07 0)
(0.656715322826 -4.79311857842e-07 0)
(0.656715713488 -2.94049401915e-07 0)
(0.656715968932 -1.69667794496e-07 0)
(0.656716131792 -8.78384682854e-08 0)
(0.656716232087 -3.55081953345e-08 0)
(0.656716290704 -3.59214839471e-09 0)
(0.656716322496 1.46780813955e-08 0)
(0.656716337422 2.44878549947e-08 0)
(0.656716340672 3.00415788831e-08 0)
(0.656716335615 3.32056090344e-08 0)
(0.65671632646 3.58610248363e-08 0)
(0.656716315725 3.84129478763e-08 0)
(0.656716303647 4.11718021456e-08 0)
(0.656716290711 4.40523762501e-08 0)
(0.656716278002 4.70529296539e-08 0)
(0.656716265999 5.0598054842e-08 0)
(0.656716254352 5.51757518984e-08 0)
(0.656716242667 6.03910424285e-08 0)
(0.656716230691 6.54196244328e-08 0)
(0.65671621784 7.04505459041e-08 0)
(0.656716203691 7.59880382693e-08 0)
(0.656716188622 8.18652387936e-08 0)
(0.656716173114 8.79165666287e-08 0)
(0.656716157361 9.44292007194e-08 0)
(0.656716141756 1.01510389664e-07 0)
(0.656716126288 1.088055418e-07 0)
(0.656716110087 1.15918455489e-07 0)
(0.656716092276 1.22852131599e-07 0)
(0.656716072966 1.30300994428e-07 0)
(0.656716052691 1.3891907829e-07 0)
(0.656716031595 1.49076604887e-07 0)
(0.656716009715 1.60443360433e-07 0)
(0.656715987103 1.72457895584e-07 0)
(0.65671596386 1.84919888183e-07 0)
(0.656715940153 1.97966602008e-07 0)
(0.656715915916 2.1180519917e-07 0)
(0.65671589088 2.2654057786e-07 0)
(0.656715864988 2.4204570633e-07 0)
(0.65671583836 2.5814430389e-07 0)
(0.656715810983 2.74804527626e-07 0)
(0.656715782787 2.92194321388e-07 0)
(0.656715753904 3.10533237319e-07 0)
(0.65671572462 3.29844916111e-07 0)
(0.656715695227 3.49956303639e-07 0)
(0.656715665666 3.70910896843e-07 0)
(0.656715635636 3.93002068132e-07 0)
(0.656715605595 4.16147361055e-07 0)
(0.656715576415 4.40145338141e-07 0)
(0.656715548191 4.65141829357e-07 0)
(0.65671552049 4.91288599387e-07 0)
(0.656715493176 5.18855056199e-07 0)
(0.656715466842 5.48147490386e-07 0)
(0.656715442853 5.78731460272e-07 0)
(0.656715422431 6.0988854009e-07 0)
(0.656715405275 6.419317538e-07 0)
(0.656715391117 6.7504336654e-07 0)
(0.656715381532 7.08157247015e-07 0)
(0.656715378109 7.41293489874e-07 0)
(0.656715382104 7.75403955055e-07 0)
(0.656715395627 8.10310524202e-07 0)
(0.656715420436 8.46142905744e-07 0)
(0.656715460618 8.85031455331e-07 0)
(0.656715520577 9.24377950038e-07 0)
(0.656715605009 9.61774169984e-07 0)
(0.656715720431 9.95797675683e-07 0)
(0.656715872721 1.02597708229e-06 0)
(0.656716069909 1.05029536905e-06 0)
(0.656716323457 1.06532267026e-06 0)
(0.656716647058 1.06763925826e-06 0)
(0.656717058552 1.05528279568e-06 0)
(0.656717583379 1.02710430852e-06 0)
(0.656718249976 9.8403283531e-07 0)
(0.656719079423 9.25658578554e-07 0)
(0.656720102636 8.35192408583e-07 0)
(0.65672137165 6.99142873637e-07 0)
(0.656722947816 5.03978434908e-07 0)
(0.656724904379 2.34010420082e-07 0)
(0.656727330827 -1.30391105412e-07 0)
(0.656730339646 -6.15846114409e-07 0)
(0.656734069278 -1.25545496951e-06 0)
(0.656738690132 -2.08860527775e-06 0)
(0.656744414291 -3.16432098928e-06 0)
(0.656751504066 -4.54514829078e-06 0)
(0.656760284931 -6.30759705116e-06 0)
(0.656771159344 -8.54448561384e-06 0)
(0.65678462169 -1.13664368969e-05 0)
(0.656801288793 -1.48929792907e-05 0)
(0.65682192256 -1.93305632445e-05 0)
(0.656847466017 -2.49263403858e-05 0)
(0.656879096839 -3.19761459635e-05 0)
(0.656918268584 -4.08375139903e-05 0)
(0.656966780384 -5.19548058459e-05 0)
(0.657026862189 -6.58802617656e-05 0)
(0.657101278672 -8.32999998238e-05 0)
(0.657193458739 -0.000105066490867 0)
(0.657307651886 -0.000132234756508 0)
(0.657449130122 -0.00016611547505 0)
(0.657624441643 -0.000208342554856 0)
(0.657841723962 -0.000260953133115 0)
(0.658111093064 -0.000326489438713 0)
(0.65844513552 -0.000408132804697 0)
(0.658859544767 -0.000509885732486 0)
(0.659373914637 -0.000636798137213 0)
(0.660012754226 -0.000795264423237 0)
(0.660806810055 -0.000993439104216 0)
(0.66179477118 -0.00124179506767 0)
(0.663025527657 -0.00155390578305 0)
(0.664561187262 -0.001947560629 0)
(0.66648117357 -0.00244640518789 0)
(0.668887937816 -0.00308246458968 0)
(0.671915126184 -0.00390017727846 0)
(0.675739675758 -0.00496326305279 0)
(0.68060039921 -0.00636722731204 0)
(0.686827519842 -0.0082638476026 0)
(0.694891089188 -0.0109123456954 0)
(0.70548123497 -0.0147921298416 0)
(0.719626344953 -0.0208560384311 0)
(0.738810980622 -0.0310776359172 0)
(0.765046713283 -0.0495616548788 0)
(0.800402214332 -0.0846130376291 0)
(0.841132871881 -0.150061673785 0)
(1.03384127451 0.171306950989 0)
(1.10231584858 0.275556742921 0)
(1.11663621327 0.266312370816 0)
(1.09207924428 0.219892604514 0)
(1.05195420226 0.168210313426 0)
(1.01022221574 0.123615335121 0)
(0.973507717971 0.0888850596819 0)
(0.943885948618 0.0630494608391 0)
(0.921162801546 0.0442607977324 0)
(0.904299824924 0.0307744360623 0)
(0.892086138774 0.0211830170432 0)
(0.883411238188 0.0144173001798 0)
(0.877355066567 0.00968544403828 0)
(0.87319622035 0.00640758935882 0)
(0.870388069171 0.00416172528746 0)
(0.868526263595 0.00264232323058 0)
(0.867317306373 0.00162947799296 0)
(0.866551593175 0.00096602488823 0)
(0.866081666255 0.000540572126861 0)
(0.865805308986 0.000274925966828 0)
(0.86565273408 0.000114790730168 0)
(0.865577100977 2.29555876902e-05 0)
(0.865547486943 -2.57254698032e-05 0)
(0.865543947591 -4.80455806343e-05 0)
(0.865553994078 -5.492612235e-05 0)
(0.86556999682 -5.3328275036e-05 0)
(0.865587533926 -4.75753233257e-05 0)
(0.865604223744 -4.02475329822e-05 0)
(0.865618937156 -3.28001826061e-05 0)
(0.86563128368 -2.59822782432e-05 0)
(0.865641284281 -2.01149670113e-05 0)
(0.865649167584 -1.527366558e-05 0)
(0.86565524586 -1.14021842157e-05 0)
(0.865659844273 -8.38201222601e-06 0)
(0.86566326488 -6.07385965094e-06 0)
(0.86566577045 -4.3410684537e-06 0)
(0.865667579136 -3.06105281512e-06 0)
(0.865668865862 -2.12954027054e-06 0)
(0.865669767609 -1.46118695113e-06 0)
(0.865670389934 -9.88442071599e-07 0)
(0.865670812245 -6.58748778243e-07 0)
(0.865671093066 -4.32204568607e-07 0)
(0.865671275219 -2.79600412021e-07 0)
(0.865671389478 -1.79447424554e-07 0)
(0.865671457551 -1.15645746253e-07 0)
(0.865671494858 -7.67375181901e-08 0)
(0.86567151235 -5.46602458261e-08 0)
(0.865671517326 -4.34479055037e-08 0)
(0.865671515013 -3.80233878736e-08 0)
(0.865671508326 -3.54710990099e-08 0)
(0.865671498384 -3.55233021505e-08 0)
(0.865671485908 -3.78220093217e-08 0)
(0.865671471692 -4.13643425449e-08 0)
(0.865671457114 -4.55951224503e-08 0)
(0.865671442904 -5.00518397515e-08 0)
(0.865671428617 -5.43173398024e-08 0)
(0.86567141349 -5.86510297452e-08 0)
(0.865671397484 -6.36790818563e-08 0)
(0.865671380501 -6.92748065678e-08 0)
(0.865671362132 -7.49539267881e-08 0)
(0.865671342524 -8.06993823219e-08 0)
(0.865671322176 -8.67300994993e-08 0)
(0.865671301457 -9.29815908879e-08 0)
(0.865671280496 -9.95153867335e-08 0)
(0.865671258952 -1.06797860074e-07 0)
(0.86567123627 -1.15069747431e-07 0)
(0.86567121234 -1.23999872338e-07 0)
(0.865671187287 -1.32872027855e-07 0)
(0.865671161233 -1.41462123181e-07 0)
(0.865671134074 -1.49820900414e-07 0)
(0.865671105533 -1.58242172466e-07 0)
(0.865671075662 -1.66995365072e-07 0)
(0.865671044707 -1.76084138553e-07 0)
(0.865671012902 -1.85596597623e-07 0)
(0.865670980278 -1.9582525627e-07 0)
(0.865670946629 -2.06785442934e-07 0)
(0.865670911821 -2.18284015869e-07 0)
(0.865670875901 -2.30338577797e-07 0)
(0.865670838923 -2.43202415501e-07 0)
(0.865670800924 -2.57018692498e-07 0)
(0.865670762021 -2.71647006438e-07 0)
(0.865670722366 -2.86894214127e-07 0)
(0.865670682246 -3.02887650134e-07 0)
(0.865670641868 -3.19925937466e-07 0)
(0.865670601101 -3.37824187127e-07 0)
(0.865670560223 -3.5629759386e-07 0)
(0.865670519948 -3.7575411421e-07 0)
(0.865670480491 -3.96864027834e-07 0)
(0.865670441829 -4.19853461982e-07 0)
(0.86567040423 -4.44330194034e-07 0)
(0.865670368005 -4.69832488384e-07 0)
(0.865670333823 -4.9678489396e-07 0)
(0.865670303085 -5.26507319166e-07 0)
(0.865670276377 -5.59769454307e-07 0)
(0.865670253616 -5.96449818548e-07 0)
(0.865670236589 -6.37323695552e-07 0)
(0.865670227905 -6.83084258513e-07 0)
(0.865670229477 -7.33239615674e-07 0)
(0.86567024448 -7.88177801862e-07 0)
(0.865670277813 -8.48901784401e-07 0)
(0.86567033051 -9.14608640099e-07 0)
(0.865670403517 -9.87639806399e-07 0)
(0.865670503854 -1.06957233669e-06 0)
(0.865670639865 -1.16344976386e-06 0)
(0.865670819375 -1.27216001671e-06 0)
(0.865671051306 -1.3987298366e-06 0)
(0.865671348152 -1.54783636369e-06 0)
(0.865671726221 -1.72542159464e-06 0)
(0.86567220491 -1.93751010546e-06 0)
(0.865672808252 -2.19367895819e-06 0)
(0.865673566658 -2.51004220709e-06 0)
(0.865674515988 -2.90515770883e-06 0)
(0.865675700488 -3.389945838e-06 0)
(0.865677176122 -3.98247986999e-06 0)
(0.865679012115 -4.70766852326e-06 0)
(0.865681293932 -5.59631731379e-06 0)
(0.865684125603 -6.6855540515e-06 0)
(0.865687636909 -8.02353624792e-06 0)
(0.86569198967 -9.67105119461e-06 0)
(0.865697383931 -1.17016269827e-05 0)
(0.865704066818 -1.42062788988e-05 0)
(0.865712344537 -1.7298928195e-05 0)
(0.86572259761 -2.11211870933e-05 0)
(0.865735295275 -2.58499063822e-05 0)
(0.865751017736 -3.17097649087e-05 0)
(0.865770488232 -3.89754688794e-05 0)
(0.865794595156 -4.79795883032e-05 0)
(0.865824436697 -5.91261705844e-05 0)
(0.865861382608 -7.29234621104e-05 0)
(0.865907127358 -9.00046840069e-05 0)
(0.865963768826 -0.000111156913907 0)
(0.866033905679 -0.000137357699641 0)
(0.866120758097 -0.000169822250665 0)
(0.866228320753 -0.000210062724554 0)
(0.866361544683 -0.000259958145064 0)
(0.866526568427 -0.000321843731357 0)
(0.866731010526 -0.000398627402422 0)
(0.866984332849 -0.0004939382145 0)
(0.867298291576 -0.000612311310588 0)
(0.867687498373 -0.000759421014581 0)
(0.868170143329 -0.000942393205897 0)
(0.868768903295 -0.00117021032101 0)
(0.869512086114 -0.00145423480792 0)
(0.870435106699 -0.00180892469388 0)
(0.871582380659 -0.00225279928932 0)
(0.873009796274 -0.00280977705217 0)
(0.87478796668 -0.00351108059844 0)
(0.877006554651 -0.00439800544784 0)
(0.879780140022 -0.00552611116062 0)
(0.883256301056 -0.00697179095576 0)
(0.887626953 -0.00884308264667 0)
(0.89314443027 -0.0112983693069 0)
(0.900144188485 -0.0145803531527 0)
(0.909075661165 -0.0190802071536 0)
(0.920539253043 -0.0254616280814 0)
(0.935308230084 -0.0348994728454 0)
(0.954251782407 -0.0495050849929 0)
(0.977996311372 -0.0729523640977 0)
(1.00589107791 -0.111056818543 0)
(1.03213434157 -0.170546491044 0)
(1.02388344994 0.119321987357 0)
(1.08875436208 0.231514422229 0)
(1.13660483875 0.25286893733 0)
(1.15406272509 0.228905049928 0)
(1.15000112794 0.188337384203 0)
(1.13537623994 0.146577290467 0)
(1.11757777624 0.110164821009 0)
(1.1005919977 0.0808376062299 0)
(1.08612241355 0.0582502004839 0)
(1.07458761929 0.0413417867403 0)
(1.06578679723 0.0289362844086 0)
(1.05928156754 0.0199770210348 0)
(1.05459132794 0.0135949310721 0)
(1.05128026967 0.00910742871317 0)
(1.04898736328 0.00599313420588 0)
(1.04742905341 0.00386144230363 0)
(1.04639046009 0.00242413727264 0)
(1.04571299223 0.00147134844564 0)
(1.04528206106 0.000852136078951 0)
(1.04501637932 0.000459263153348 0)
(1.04485925643 0.000217489619588 0)
(1.04477182642 7.47180845358e-05 0)
(1.04472784441 -4.64610999088e-06 0)
(1.04470997682 -4.44458223359e-05 0)
(1.04470704927 -6.05360764862e-05 0)
(1.04471197173 -6.30937784157e-05 0)
(1.04472041249 -5.85445764476e-05 0)
(1.04472985425 -5.08114714525e-05 0)
(1.04473892895 -4.21798061148e-05 0)
(1.04474697617 -3.38922794708e-05 0)
(1.04475375557 -2.65470058994e-05 0)
(1.04475926273 -2.03603270218e-05 0)
(1.04476361348 -1.53352816192e-05 0)
(1.04476697368 -1.13659097249e-05 0)
(1.04476951937 -8.30014283327e-06 0)
(1.04477141548 -5.97669888486e-06 0)
(1.04477280579 -4.24505094801e-06 0)
(1.04477380986 -2.97393743029e-06 0)
(1.04477452395 -2.05407778827e-06 0)
(1.04477502416 -1.39755706893e-06 0)
(1.04477536897 -9.35349302649e-07 0)
(1.04477560195 -6.1428354997e-07 0)
(1.04477575553 -3.9476672175e-07 0)
(1.04477585381 -2.47445512966e-07 0)
(1.04477591407 -1.50275957065e-07 0)
(1.04477594871 -8.71105969189e-08 0)
(1.04477596667 -4.65923183441e-08 0)
(1.04477597348 -2.09251721983e-08 0)
(1.04477597225 -4.98789195507e-09 0)
(1.04477596496 3.87212721042e-09 0)
(1.04477595328 7.92470726853e-09 0)
(1.04477593892 9.10525091452e-09 0)
(1.04477592319 9.58159391609e-09 0)
(1.04477590725 1.01681694384e-08 0)
(1.04477589182 1.07408963464e-08 0)
(1.04477587626 1.11840198157e-08 0)
(1.04477585945 1.14709901511e-08 0)
(1.04477584141 1.15040640395e-08 0)
(1.04477582254 1.1343470737e-08 0)
(1.04477580237 1.15018234464e-08 0)
(1.04477578069 1.21344953378e-08 0)
(1.04477575807 1.30654008638e-08 0)
(1.04477573489 1.41348196745e-08 0)
(1.04477571107 1.50979065444e-08 0)
(1.04477568643 1.57325063678e-08 0)
(1.04477566076 1.62163038341e-08 0)
(1.04477563394 1.70251088041e-08 0)
(1.04477560596 1.84777962938e-08 0)
(1.04477557674 2.06759818689e-08 0)
(1.04477554603 2.33130331292e-08 0)
(1.04477551367 2.61346425941e-08 0)
(1.0447754799 2.91750964772e-08 0)
(1.04477544497 3.2616556779e-08 0)
(1.04477540879 3.63835415792e-08 0)
(1.04477537132 4.01387060875e-08 0)
(1.04477533272 4.38607518767e-08 0)
(1.04477529296 4.78410929634e-08 0)
(1.04477525182 5.22016186126e-08 0)
(1.04477520913 5.67184194145e-08 0)
(1.04477516516 6.10875400442e-08 0)
(1.04477512033 6.533166407e-08 0)
(1.04477507474 6.98259914054e-08 0)
(1.04477502828 7.4702839172e-08 0)
(1.04477498123 7.95365806879e-08 0)
(1.04477493385 8.42111680862e-08 0)
(1.04477488614 8.91146659465e-08 0)
(1.04477483821 9.42023958981e-08 0)
(1.04477479038 9.90854500548e-08 0)
(1.04477474321 1.03508089863e-07 0)
(1.04477469723 1.07384998382e-07 0)
(1.04477465254 1.10861556488e-07 0)
(1.04477460921 1.13904021865e-07 0)
(1.04477456836 1.15612795031e-07 0)
(1.04477453114 1.14879100704e-07 0)
(1.0447744977 1.11711815709e-07 0)
(1.0447744693 1.0545805509e-07 0)
(1.04477444896 9.44788819421e-08 0)
(1.04477443882 7.83703400426e-08 0)
(1.04477444041 5.61096566749e-08 0)
(1.04477445733 2.40991976042e-08 0)
(1.04477449375 -2.26795643891e-08 0)
(1.04477455365 -8.47513457117e-08 0)
(1.04477464274 -1.63536050286e-07 0)
(1.04477476869 -2.63255963547e-07 0)
(1.04477493997 -3.89683972097e-07 0)
(1.04477516626 -5.48788444114e-07 0)
(1.04477546065 -7.47202310884e-07 0)
(1.04477584055 -9.93100303646e-07 0)
(1.04477632663 -1.29653912241e-06 0)
(1.04477694365 -1.66991964969e-06 0)
(1.0447777219 -2.12904079367e-06 0)
(1.04477869755 -2.69459597064e-06 0)
(1.04477991645 -3.39157164503e-06 0)
(1.04478143665 -4.25088429745e-06 0)
(1.04478333035 -5.31088190953e-06 0)
(1.04478568719 -6.61889823189e-06 0)
(1.04478861539 -8.23207845085e-06 0)
(1.04479224887 -1.02219412821e-05 0)
(1.04479675555 -1.26776274198e-05 0)
(1.04480234341 -1.5708693231e-05 0)
(1.04480926919 -1.94507295988e-05 0)
(1.04481785064 -2.40722152621e-05 0)
(1.04482848338 -2.97846281027e-05 0)
(1.04484165449 -3.68483763916e-05 0)
(1.04485796419 -4.55877621636e-05 0)
(1.04487816163 -5.64078718331e-05 0)
(1.04490317104 -6.98069936338e-05 0)
(1.04493413193 -8.63929931813e-05 0)
(1.04497246151 -0.000106923008681 0)
(1.04501991621 -0.000132336800863 0)
(1.0450786708 -0.000163800633214 0)
(1.04515141847 -0.000202761085919 0)
(1.04524149435 -0.000251011347046 0)
(1.04535303284 -0.000310780121918 0)
(1.0454911578 -0.000384838993393 0)
(1.04566221972 -0.000476632289933 0)
(1.04587409169 -0.000590444490998 0)
(1.04613654009 -0.000731616220246 0)
(1.0464616874 -0.000906817386287 0)
(1.04686457956 -0.00112438876436 0)
(1.04736390875 -0.00139478594171 0)
(1.04798292293 -0.00173116204023 0)
(1.04875055651 -0.0021501212615 0)
(1.04970286881 -0.00267272789567 0)
(1.0508848665 -0.00332586136423 0)
(1.05235282869 -0.00414406930695 0)