/*--------------------------------*- C++ -*----------------------------------*\
| =========                 |                                                 |
| \\      /  F ield         | OpenFOAM: The Open Source CFD Toolbox           |
|  \\    /   O peration     | Version:  2106                                  |
|   \\  /    A nd           | Website:  www.openfoam.com                      |
|    \\/     M anipulation  |                                                 |
\*---------------------------------------------------------------------------*/
FoamFile
{
    version     2.0;
    format      ascii;
    arch        "LSB;label=32;scalar=64";
    class       volScalarField;
    location    "0.23";
    object      p;
}
// * * * * * * * * * * * * * * * * * * * * * * * * * * * * * * * * * * * * * //

dimensions      [0 2 -2 0 0 0 0];

internalField   nonuniform List<scalar> 
11200
(
150.087066068
147.158464411
146.044613886
145.517283433
145.149955165
144.855179007
144.593538103
144.345002976
144.100488151
143.8554239
143.607113115
143.353801134
143.094255864
142.827541548
142.552891157
142.269631198
141.977135859
141.674799163
141.362022222
141.038216639
140.702758641
140.354999088
139.994279613
139.619932393
139.23127189
138.827596804
138.408190895
137.972323639
137.519251012
137.048216181
136.558450113
136.049172047
135.519589681
134.968899168
134.396285833
133.800925336
133.181983663
132.538617398
131.869974139
131.17519284
130.453403983
129.703729717
128.925284122
128.11717342
127.278496041
126.408342362
125.505794138
124.569923653
123.599792586
122.594450501
121.552932822
120.474258061
119.357424088
118.201403266
117.0051362
115.767523802
114.48741735
113.163606106
111.794801698
110.379618327
108.91654757
107.403926582
105.839897725
104.222360061
102.548903494
100.816722984
99.0225081755
97.162299081
95.2312915568
93.2235708613
91.1317478818
88.9464630765
86.6555184101
84.2427275576
81.6860052285
78.953693083
75.9981944278
72.7469408387
69.0462413136
64.2830261672
148.294023991
146.935849993
146.14487883
145.644865324
145.253878622
144.929998364
144.645480067
144.380880962
144.125396376
143.872877889
143.619498246
143.362743858
143.100877557
142.832622684
142.556978655
142.273110595
141.980281106
141.677807332
141.36503072
141.041289346
140.70593279
140.358285523
139.997703835
139.623519595
139.235036829
138.831548514
138.412335559
137.976665599
137.523793319
137.052960923
136.563398427
136.054323512
135.524942008
134.974453674
134.402045803
133.806894006
133.188164025
132.545012441
131.876586905
131.182026442
130.460461645
129.711014848
128.932800433
128.124925079
127.28648781
126.416579751
125.514283598
124.578672832
123.608810639
122.603748497
121.562524229
120.48415933
119.36765537
118.211989292
117.016107358
115.778917488
114.499279688
113.175994119
111.807786
110.393286472
108.931008543
107.419316926
105.856387645
104.240157607
102.568259114
100.837951368
99.0460189206
97.1886244828
95.2611287081
93.2578468661
91.1717101006
88.9937622154
86.7124555176
84.3126541107
81.7739627847
79.0678734655
76.1535880595
72.9732711511
69.424127388
65.3112634317
147.298833614
146.644633318
146.092277975
145.65466116
145.283039022
144.960939644
144.671842623
144.40161184
144.141152169
143.884674767
143.628294705
143.369330254
143.105869228
142.836484472
142.560054769
142.275651443
141.982464836
141.679756307
141.366827465
141.043001352
140.707615769
140.36003107
139.999503234
139.625378604
139.236965107
138.833553147
138.414421311
137.978836145
137.526052042
137.055311463
136.565845321
136.056873674
135.527605602
134.977233635
134.404940022
133.80990269
133.191288585
132.548254883
131.879950096
131.185514056
130.464078157
129.71476563
128.936691974
128.128965206
127.29068594
126.420947207
125.51883401
124.583422657
123.613779825
122.608961296
121.568010207
120.48995455
119.373803818
118.218544617
117.023134986
115.786497236
114.507509045
113.184992501
111.817699904
110.404295608
108.943332641
107.433224018
105.872205641
104.258308104
102.589294209
100.862570545
99.0750955401
97.2232706748
95.3027818409
93.3083904468
91.233646908
89.0704884909
86.8088201951
84.4357260139
81.9344847429
79.2832355759
76.4540035926
73.4151708841
70.1307548544
66.5777216431
146.749072325
146.385691125
145.985793558
145.616804081
145.279188895
144.97108842
144.685727325
144.415025753
144.152656275
143.893991971
143.635614864
143.374993371
143.110227512
142.83984983
142.562684106
142.27774774
141.984184363
141.681217736
141.368120665
141.044193154
140.708744182
140.361083514
140.000569896
139.626480179
139.238103658
138.834732589
138.415645295
137.980107093
137.527371285
137.056679371
136.567261131
136.058334784
135.529107657
134.978778014
134.406535434
133.811554454
133.193002958
132.550038926
131.881809859
131.187456016
130.466109556
129.716894725
128.938928487
128.131320729
127.293174391
126.423585387
125.521642282
124.586425769
123.617007901
122.612450945
121.571805913
120.49411038
119.378385538
118.223632275
117.02882618
115.792911358
114.514792625
113.193325461
111.827303121
110.415440174
108.956354856
107.44855039
105.890364701
104.279938912
102.615171368
100.893663302
99.1126395754
97.2688482653
95.3584362994
93.3767937682
91.3183637807
89.1764169558
86.9427215482
84.6072355478
82.1578697159
79.5805251797
76.8604555932
73.9879522951
70.9666111593
67.8336059363
146.415024314
146.183229006
145.881817154
145.570841112
145.266003071
144.973981496
144.69500795
144.425884048
144.162926175
143.902844276
143.642877994
143.380789866
143.11478721
142.843420755
142.565493641
142.279988798
141.986013548
141.682758666
141.369468816
141.045421346
140.709911292
140.362242237
140.001717777
139.627627313
139.239273696
138.835940544
138.416900935
137.981417786
137.528743107
137.058117893
136.568772021
136.059924325
135.530782597
134.980543373
134.408392557
133.813506488
133.195050765
132.552183476
131.884055436
131.189807326
130.468573777
129.719481369
128.941649529
128.134190905
127.296211691
126.426811648
125.52508396
124.590114913
123.620983339
122.616759805
121.576505877
120.499271772
119.384094023
118.229992243
117.035964835
115.800983395
114.52398499
113.203866142
111.839469587
110.429575403
108.972881495
107.467974921
105.913319153
104.30721936
102.64778189
100.932864982
99.1600213156
97.3264289989
95.4288084148
93.4633253776
91.4254832865
89.3100175671
87.1108197749
84.8209712053
82.4330509197
79.9400494162
77.3377699682
74.6306542688
71.8400622499
69.0166900407
146.21163179
146.035729961
145.794535895
145.52721132
145.250025979
144.973389595
144.70170195
144.435202432
144.172439528
143.911433266
143.650148798
143.386719013
143.119518267
142.847155508
142.568437656
142.28232691
141.987901213
141.684321204
141.370804167
141.046604256
140.710997961
140.363273287
140.002720767
139.628630663
139.240292389
138.83698512
138.417979278
137.982535764
137.52990514
137.059327178
136.570030755
136.061233807
135.532143525
134.981956545
134.409859488
133.815029711
133.196635888
132.553837932
131.88578735
131.191628607
130.470497189
129.721520418
128.943819845
128.136510593
127.29870229
126.429499241
125.528000272
124.593298597
123.624481588
122.620630285
121.580818055
120.504109828
119.389560106
118.236210417
117.043086126
115.809192822
114.533512571
113.214992987
111.852543053
110.445014878
108.991191614
107.489780209
105.939397236
104.338526634
102.685501348
100.978471697
99.2153669765
97.3938535165
95.5112913569
93.5646948299
91.550707937
89.4656191146
87.3054622556
85.0662963284
82.7448366118
80.3397317993
77.8540501858
75.2999473214
72.7043733621
70.1144291074
146.088515005
145.932907675
145.72660673
145.490046088
145.234572896
144.971295811
144.706685259
144.443179539
144.18104949
143.919467395
143.657099275
143.392468538
143.124145201
142.850820474
142.571321994
142.284602109
141.989715934
141.685797717
141.372039465
141.04767319
140.711956917
140.36416409
140.003575816
139.629474548
139.241141396
138.837850542
138.418869563
137.983457211
137.530862573
137.060324577
136.571071683
136.062321758
135.533282203
134.983150409
134.411114241
133.81635199
133.19803276
132.555317303
131.887357987
131.193298452
130.472274086
129.723416029
128.945850183
128.138696183
127.30106834
126.432076215
125.530825005
124.596415734
123.627945266
122.624506093
121.585185676
120.509066301
119.395223651
118.242725076
117.050627317
115.817973224
114.543787321
113.227074069
111.866809717
110.461932273
109.011341077
107.513876164
105.968308327
104.373325003
102.72751451
101.029347818
99.2771606781
97.469139231
95.6033138274
93.6775701835
91.6896942018
89.6374799795
87.5189485961
85.3327679059
83.0790073558
80.7604256344
78.3845734346
75.9670520339
73.5347408323
71.1270018179
146.014435365
145.864425619
145.677671049
145.461567404
145.221863639
144.969045124
144.710411073
144.449676265
144.188313367
143.926396101
143.663183633
143.397552408
143.128261667
142.854089904
142.573893431
142.286622378
141.991315338
141.687085082
141.373102063
141.048578986
140.712757703
140.364898743
140.004273114
139.630155246
139.241821372
138.838540674
138.419577983
137.984190042
137.531624612
137.061119823
136.5719037
136.063194001
135.534198292
134.984114223
134.41212987
133.817424034
133.199166662
132.556518953
131.888634201
131.194658955
130.473734846
129.724995072
128.947566241
128.140571448
127.303129743
126.434356559
125.533364242
124.59926245
123.63115846
122.628157489
121.589362936
120.513875776
119.400794392
118.249213875
117.058224986
115.826912783
114.554354691
113.239617558
111.881752143
110.479791325
109.032743354
107.539588393
105.999271949
104.410697201
102.772719928
101.084144855
99.3437264877
97.5501788828
95.7022007264
93.798527251
91.8380264077
89.8198683217
87.7438079193
85.6106582828
83.4230340739
81.1864704974
78.9110065681
76.6132510503
74.3178889026
72.0569344096
145.972159059
145.822711824
145.64629747
145.442561261
145.213031207
144.967325909
144.712969367
144.454334802
144.193632315
143.931542999
143.667750942
143.401398109
143.131392697
142.856585796
142.575860528
142.288168725
141.992538468
141.688067309
141.373909869
141.049264423
140.713360629
140.365449149
140.004793297
139.630662471
139.242325426
138.839051344
138.420101974
137.984732357
137.532189298
137.061710349
136.572523228
136.063845653
135.534885402
134.984840546
134.412899774
133.818242735
133.20004046
132.55745589
131.889644692
131.195755459
130.474928578
129.726300969
128.949004268
128.14216591
127.304910023
126.436358266
125.535630604
124.601845965
123.634122862
122.631580036
121.593337103
120.518515149
119.406237116
118.255627986
117.065814759
115.835926163
114.565092105
113.252443224
111.897111555
110.498227842
109.054920632
107.566316215
106.03153869
104.449711317
102.819961135
101.141427832
99.4132808133
97.6347487957
95.8051689216
93.9240684719
91.9912929591
90.0072092848
87.9730135761
85.8911982176
83.7662111212
81.6053499617
79.4198682449
77.2261823371
75.0463425435
72.9065350905
145.952882694
145.80300532
145.631043677
145.433110313
145.20855168
144.966435755
144.714304138
144.456799151
144.196476485
143.934320359
143.670235455
143.403505828
143.133121597
142.857975045
142.576965412
142.289046564
141.993241566
141.688640097
141.374388393
141.049677024
140.713729096
140.365789955
140.005118675
139.630981338
139.242645341
138.839377157
138.42043763
137.985081108
137.532553971
137.062093621
136.572927714
136.064274151
135.535341099
134.98532723
134.413422024
133.818806096
133.200651614
132.558122793
131.890376396
131.196562449
130.475825719
129.727305511
128.950136782
128.143451278
127.306378481
126.438046579
125.537583428
124.604117485
123.636778802
122.634700162
121.597018306
120.522875122
119.411418817
118.261805033
117.07319801
115.844771882
114.57571211
113.265216547
111.912497627
110.516786579
109.077331369
107.593405273
106.064311812
104.489393167
102.868043526
101.199728662
99.4840160025
97.7206188921
95.9094626442
94.0507845714
92.1452774796
90.1943101762
88.2002251205
86.1667766246
84.0996737494
82.0072639867
79.901274525
77.797464806
75.7155315547
73.6774070695
145.952885353
145.803021465
145.631070787
145.433146661
145.208596472
144.966488131
144.714363181
144.456864064
144.196546602
143.934395115
143.670314367
143.403588496
143.133207726
142.858064447
142.577058003
142.289142335
141.993340542
141.688742329
141.374493967
141.049786079
140.713841853
140.365906717
140.005239834
139.631107386
139.242776961
138.839515088
138.420582826
137.985234758
137.532717493
137.062268537
136.573115987
136.064478179
135.535563842
134.98557234
134.413693948
133.819110181
133.20099426
132.558511717
131.890821124
131.197074846
130.476419781
129.727998247
128.950948964
128.144408178
127.307510793
126.439391587
125.539186387
124.606033285
123.639074022
122.637455601
121.600332062
120.526866335
119.416232154
118.267616088
117.080219796
115.853262707
114.585985123
113.277651337
111.92755565
110.535027638
109.099434685
107.62019434
106.096785399
104.528762026
102.915774228
101.257594206
99.5541544441
97.8056048819
96.0123917935
94.1753670267
92.2959707835
90.376478101
88.4200146963
86.4312071907
84.4165723755
82.3850138699
80.3483211767
78.3215168252
76.3225098629
74.370400501
145.972167075
145.822760623
145.6463794
145.442671051
145.213166436
144.96748381
144.713147145
144.454530077
144.193843105
143.931767618
143.667987956
143.401646342
143.131651265
142.856854135
142.57613837
142.288456032
141.992835336
141.688373914
141.374226479
141.049591462
140.713698744
140.365799231
140.005156485
139.631040269
139.242719792
138.839464486
138.420536714
137.985192145
137.532678236
137.062233255
136.573085899
136.064455174
135.535550534
134.985572126
134.413711071
133.819149831
133.201062738
132.558616678
131.890971885
131.197282741
130.476698624
129.72836489
128.951423938
128.145016426
127.308282618
126.440363786
125.540403612
124.607549679
123.640955258
122.639781388
121.603199175
120.530392248
119.420559397
118.272917486
117.086704877
115.861185533
114.595653809
113.289439609
111.941914315
110.552501402
109.12068865
107.646028675
106.128164868
104.566848856
102.96196588
101.313572877
99.621962667
97.8877111284
96.1117053507
94.2953226143
92.4405291225
90.5500353661
88.6278067234
86.6790989284
84.710905624
82.7323824304
80.7552058695
78.7937850179
76.8648430366
74.9858277479
146.014448887
145.864508168
145.677809442
145.461752482
145.222091159
144.969310296
144.710709148
144.450003234
144.18866591
143.926771428
143.663579396
143.397966693
143.128693027
142.854537385
142.574356557
142.287101066
141.991809774
141.687595614
141.373629182
141.04912341
140.713320507
140.365481393
140.00487742
139.630783809
139.242477021
138.83922723
138.420300106
137.984953372
137.532435866
137.061986945
136.572836214
136.064203528
135.535299173
134.985324119
134.413470329
133.818921199
133.20085215
132.558431408
131.890820836
131.197176789
130.476651063
129.728391922
128.95154528
128.145256051
127.308669669
126.440933669
125.541199275
124.608623213
123.64236987
122.641613805
121.605542526
120.533359521
119.424287563
118.277572507
117.092487787
115.868339782
114.604474062
113.3002827
111.955212464
110.568775687
109.140562845
107.670261742
106.15767239
104.602735044
103.005564913
101.366471835
99.6860057204
97.965035403
96.2048827187
94.4073588796
92.5749172902
90.7108205263
88.8193765734
86.9061881899
84.9784755095
83.0454119832
81.1184407809
79.2115116627
77.3407622315
75.5231140986
146.08853437
145.933026094
145.726804654
145.490309868
145.234896135
144.971671486
144.70710653
144.443640704
144.18154588
143.919995139
143.65765517
143.393049993
143.124750241
142.851447757
142.571970807
142.285272297
141.990407754
141.686511688
141.372776297
141.048433859
140.712742852
140.364977327
140.004418981
139.630351023
139.242055186
138.838806822
138.419874695
137.984518868
137.53198991
137.061528505
136.572365341
136.063721227
135.534807314
134.984825388
134.412968221
133.818420077
133.200357414
132.557949744
131.890360498
131.196747941
130.476266152
129.72806612
128.951297027
128.145107766
127.308648615
126.441072951
125.54153907
124.609212287
123.643267419
122.642891673
121.607287888
120.53567809
119.427307435
118.281448809
117.097408357
115.874531973
114.612212826
113.309900391
111.967111048
110.58344033
109.158577988
107.692328225
106.184629615
104.635581704
103.045475696
101.414854826
99.7445521323
98.0357492433
96.2900572437
94.5096184815
92.6972313483
90.8564959049
88.9919931644
87.1094972524
85.216238101
83.3212001087
81.4354639571
79.5726011
77.7486260524
75.9809544631
146.211657643
146.03588794
145.794798546
145.527559595
145.250450842
144.973881467
144.702251743
144.435802699
144.17308426
143.912117564
143.650868674
143.387471273
143.120300469
142.847965962
142.569275419
142.28319172
141.988793324
141.685241182
141.371752759
141.047582407
140.712006876
140.364314828
140.003799383
139.629752188
139.241461422
138.838207504
138.419262611
137.983889314
137.53134004
137.060856883
136.571671667
136.063006159
135.53407237
134.984072868
134.4122012
133.817642439
133.199573949
132.557166347
131.889584446
131.195988248
130.475533945
129.727375057
128.950663821
128.144552792
127.308196661
126.440754115
125.541389876
124.609277049
123.643599896
122.643557085
121.608365326
120.537263385
119.429516588
118.284422183
117.10131575
115.879578725
114.618647163
113.318021974
111.977281023
110.596093593
109.174237494
107.711619615
106.208301304
104.664529042
103.080769355
101.457750492
99.7965155659
98.0984863402
96.3655374333
94.6000817467
92.8051740742
90.9846317603
89.1431780372
87.2866031307
85.4219682456
83.557866764
81.7048128275
79.8758874071
78.0871235963
76.3571996429
146.415057338
146.183431409
145.882151021
145.571280897
145.266536423
144.974595846
144.695691794
144.426628178
144.163723306
143.903688577
143.643764799
143.381715489
143.115748877
142.84441659
142.566522663
142.281050844
141.987109074
141.683888468
141.370633753
141.04662239
140.711149884
140.363519455
140.003035633
139.628999177
139.240703537
138.837434203
138.418466774
137.983066241
137.530486791
137.059971844
136.570754275
136.062056732
135.533092
134.983063371
134.411165114
133.81658314
133.198495789
132.556074786
131.888486181
131.194891369
130.47444805
129.726311774
128.949637337
128.143580494
127.307299856
126.439958866
125.540727951
124.608787065
123.643328748
122.64356173
121.608714908
120.538041763
119.430825356
118.286384364
117.104080231
115.883325363
114.623592153
113.324425799
111.985457368
110.606419394
109.187164875
107.727690017
106.228160938
104.688945353
103.110649809
101.494163915
99.8407107725
98.1519066508
96.4298302953
94.6770994551
92.8969556492
91.0933563424
89.2710753289
87.4358090486
85.5943085304
83.7545669136
81.9262040507
80.1213728682
78.3555886493
76.6487066991
146.749112554
146.385941624
145.98620115
145.617335768
145.279828325
144.971819548
144.686536106
144.415901263
144.153590042
143.894977341
143.636646599
143.376067409
143.111340897
142.841000731
142.563871846
142.27897279
141.9854483
141.682523099
141.369470436
141.045591143
140.710199428
140.362611637
140.002143704
139.628102987
139.239789355
138.836492583
138.417491326
137.982052812
137.529432759
137.058875665
136.56961526
136.060874902
135.531867887
134.981797883
134.40985954
133.815239359
133.197116574
132.554663962
131.887048771
131.193434145
130.472979671
129.724842468
128.948179448
128.142149022
127.305913003
126.438638648
125.539500991
124.607685624
123.642392063
122.642837387
121.608260321
120.537926339
119.431132982
118.287216376
117.105558919
115.885598453
114.626839526
113.328864401
111.99134786
110.614074594
109.19695945
107.74007139
106.243661569
104.708196103
103.13439418
101.523272423
99.8761954501
98.1949330227
96.4817227915
94.7393369771
92.9711512238
91.181211733
89.3742943434
87.5559499783
85.7325422442
83.911286725
82.1004833631
80.3105097521
78.5545774572
76.8513317282
147.298885874
146.644946064
146.092769289
145.655290058
145.283785436
144.961784176
144.672768946
144.402607539
144.142207742
143.885782781
143.629449261
143.370526669
143.107103912
142.837754868
142.561359299
142.276989499
141.983837075
141.681165488
141.368278714
141.044501169
140.709164634
140.361598775
140.001124647
139.627062116
139.238715805
138.835378706
138.41633197
137.980844634
137.528173928
137.057565368
136.568253469
136.059462238
135.53040553
134.980287514
134.408303304
133.813639533
133.195474547
132.552982506
131.885331589
131.19168521
130.47120383
129.723046587
128.946372302
128.140341577
127.30411883
126.436874394
125.537786963
124.606046512
123.640857712
122.641444082
121.607052569
120.536958104
119.430469595
118.286936913
117.105758997
115.886393146
114.628366151
113.331288527
111.994868565
110.61893062
109.203436503
107.748510536
106.254468728
104.721852486
103.151467265
101.544426678
99.9022021085
98.2266771667
96.5202051366
94.7856719221
93.0265509516
91.2469518374
89.4516471838
87.6460654711
85.836223266
84.0285070767
82.2295747774
80.4469803316
78.6878308669
76.960801379
148.294123654
146.936308259
146.145562782
145.645722003
145.254884517
144.931132244
144.646724694
144.382223364
144.126826673
143.874388332
143.621082561
143.364396827
143.102594755
142.834400213
142.55881277
142.274997242
141.982215331
141.679782451
141.367041256
141.043342959
140.70802798
140.360446766
139.999947405
139.625846621
139.237452783
138.834062224
138.41495771
137.979407212
137.526669722
137.055992311
136.566610139
136.057747544
135.528618613
134.978427752
134.406370419
133.811634178
133.193400401
132.550842045
131.883127448
131.189420968
130.468884058
129.720676412
128.943957939
128.137890691
127.301640797
126.434380629
125.535291363
124.603566039
123.638413179
122.639060854
121.604761148
120.534795254
119.428479722
118.285173714
117.104287442
115.885292152
114.627731756
113.331235174
111.995533516
110.620478475
109.206064108
107.752452413
106.260002976
104.729307066
103.161226628
101.556938682
99.9179845873
98.2463220103
96.5443779775
94.8151268054
93.0621163167
91.2895145094
89.5021260625
87.7053682891
85.9051381027
84.1073015098
82.3173871327
80.5401551582
78.7704067939
76.9785896732
150.087232292
147.159135158
146.04560845
145.518539519
145.151442206
144.85687194
144.595418071
144.347056471
144.102705571
143.857798502
143.609640299
143.356478103
143.097081651
142.830517204
142.556019897
142.272918389
141.98058884
141.678426548
141.36582885
141.042188151
140.706898958
140.359321456
139.998786814
139.624629857
139.236168453
138.832703318
138.413520483
137.977894855
137.525083902
137.05433329
136.564878236
136.055943209
135.526742333
134.976480025
134.404351743
133.809544788
133.191239359
132.548609515
131.880824204
131.187048123
130.466443019
129.718169256
128.941387521
128.135260671
127.298955743
126.431646199
125.532514518
124.600755337
123.635579125
122.636216268
121.601921584
120.531979602
119.425710904
118.282479466
117.101701135
115.882853653
114.625488522
113.329244849
111.993865414
110.619215555
109.205305502
107.752316398
106.260630427
104.730865307
103.163913646
101.56098755
99.9236683521
98.2539636888
96.5543700761
94.8278934646
93.0781390071
91.309343581
89.5263962561
87.7348159951
85.9406499704
84.1503979979
82.3704843274
80.6057030613
78.8356207315
76.9357061538
56.8882516924
53.3362402444
50.9448820674
48.9876984625
47.316071652
45.8598232803
44.5749416719
43.4316729771
42.4082826927
41.48795553
40.6572201825
39.9050156868
39.2220960061
38.6006337615
38.0339402052
37.5162528906
37.0425730307
36.6085414599
36.2103357288
35.844586638
35.5083120043
35.1988627732
34.9138725994
34.6512203783
34.4090035972
34.1855093767
33.9791892752
33.7886425945
33.6125978406
33.4498957109
33.2994832609
33.1604018868
33.0317705189
32.9127808026
32.8026918324
32.7008198023
32.6065287374
32.5192213831
32.4383438734
32.3634413578
32.2943234493
32.230512422
32.1715171623
32.1169306778
32.0664029422
32.0196233577
31.9763221703
31.9362434057
31.8991331153
31.8648013093
31.8329525527
31.803462542
31.7761399903
31.7508040971
31.727290011
31.7054514483
31.685156127
31.6662740952
31.6486891643
31.6322975865
31.6169964807
31.6026942657
31.589309137
31.5767595345
31.5649714032
31.5538799955
31.5434256802
31.5335507599
31.5242000299
31.5153271812
31.5068906653
31.498847082
31.4911588888
31.4837956724
31.4767259563
31.4699192675
31.4633485922
31.4569915417
31.4508274849
31.4448388622
31.4390063192
31.4333101644
31.4277360977
31.4222733827
31.4169103916
31.4116342523
31.4064349257
31.4013034853
31.3962299999
31.3912077449
31.3862320526
31.3812944159
31.3763866708
31.3715059491
31.3666507976
31.3618155651
31.3569942451
31.3521862969
31.3473955155
31.3426050583
31.3378123911
31.3330075919
31.3281867655
31.3234307897
31.3186643927
31.3139491263
31.3092310461
31.3044850417
31.2997199099
31.2949373946
31.2901361832
31.2853133177
31.2804731669
31.2756225449
31.2707593712
31.2658872228
31.2610177818
31.2561517895
31.251290826
31.2464454245
31.2416240504
31.2368324378
31.2320869647
31.2273946139
31.222769304
31.2181982694
31.2135019318
31.2095097587
31.2062788315
31.2028619226
31.1997426822
31.1970445288
31.194922978
31.1933787326
31.1925369386
31.1926517808
31.193866791
31.1963101232
31.200177807
31.206176929
31.213960346
31.2239308405
31.2361409479
31.2501287264
31.2641035187
31.2732297057
31.2664627875
31.2205563241
31.0926878979
30.8108689602
30.2686768642
29.3321986771
27.8680987685
25.7840588613
23.0557307489
19.741383635
15.9614101468
11.6852034785
6.63771193544
1.58189229947
60.069693206
56.016852737
53.3049821079
51.1529060732
49.3514160466
47.8020945897
46.4466966484
45.2479368699
44.1795782547
43.2219178865
42.3595551722
41.5800916176
40.8733320515
40.230759488
39.645179482
39.1104470008
38.6212742723
38.1730790743
37.7618638297
37.3841202384
37.0367537
36.7170242811
36.4224880818
36.1509592473
35.9004807302
35.6692928815
35.4558026446
35.2585760566
35.0763072468
34.9078049423
34.7519944498
34.6078926682
34.4745956891
34.3512800954
34.2371940136
34.1316473896
34.0340040171
33.9436835498
33.8601595506
33.782924925
33.7113861251
33.645188276
33.5839181785
33.5272265308
33.4747784852
33.426264058
33.3813719592
33.3398297655
33.3013782678
33.2658049319
33.2328262075
33.2022793969
33.1739664297
33.147719338
33.1233697186
33.1007696668
33.0797775011
33.0602627364
33.0421075724
33.025197896
33.00942329
32.9946921148
32.9809187291
32.9680148999
32.9559055096
32.9445239835
32.9338074832
32.9236944747
32.9141271058
32.905060609
32.8964488204
32.8882467106
32.8804162613
32.8729246356
32.8657397331
32.8588289001
32.8521642059
32.8457272641
32.8394911492
32.8334390037
32.8275486159
32.8218009761
32.8161810308
32.810676794
32.8052776474
32.7999676204
32.7947375695
32.7895777956
32.7844763628
32.7794280735
32.7744270841
32.7694647092
32.7645311624
32.7596242646
32.7547416543
32.7498735879
32.745015363
32.7401599195
32.735324335
32.7305089402
32.7256959287
32.7209010198
32.7160680331
32.7111750413
32.7063168495
32.7014423411
32.6965265829
32.6915917488
32.68664697
32.6816936843
32.6767273708
32.6717394061
32.6667471482
32.6617480386
32.6567366402
32.6517210656
32.6467095808
32.6417055967
32.6367079761
32.6317281332
32.626778484
32.621859445
32.6170037454
32.6122205309
32.6075568759
32.6030151742
32.5985475782
32.594573502
32.5902508709
32.5864445529
32.5831726158
32.5803467093
32.57819138
32.5765913253
32.5756664569
32.5758118841
32.5771537297
32.5799181308
32.5842255695
32.5905063962
32.598852805
32.6095332148
32.6224970406
32.6370779143
32.6509752222
32.6583782277
32.6463519969
32.5884112193
32.4368856438
32.1135151371
31.5057154236
30.4764099011
28.8951735325
26.6793779115
23.8165446176
20.3694545348
16.4565507683
12.0627852901
6.92700250757
1.71553354213
62.2772328787
58.3437359944
55.4767283952
53.1931227333
51.2916580395
49.6658424144
48.2506072923
47.003883058
45.8961843027
44.905581877
44.0151198519
43.2112929588
42.4831083593
41.8214651322
41.2187343067
40.6684458155
40.1650646836
39.7038187635
39.2805608288
38.8916659082
38.533945596
38.2045810963
37.9010644497
37.6211576387
37.3628562985
37.1243598821
36.9040417824
36.700434996
36.5122055129
36.3381392908
36.1771372091
36.0281938069
35.8903874506
35.7628759754
35.644888234
35.5357158551
35.4346998558
35.3412358082
35.2547664551
35.1747857552
35.1008007625
35.0321990782
34.9686900572
34.9099626337
34.8556473793
34.8054061745
34.7589271205
34.7159259479
34.6761365941
34.6393238243
34.605230122
34.5736633049
34.5444180249
34.5173139731
34.4921817379
34.4688663373
34.4472188009
34.4271003802
34.4083875759
34.3909657578
34.3747259215
34.3595718204
34.3454119126
34.3321579934
34.3197315831
34.3080625082
34.2970847041
34.2867346613
34.2769536246
34.2676942685
34.2589068586
34.2505467942
34.2425753326
34.2349558458
34.2276551551
34.2206411712
34.2138869007
34.2073604837
34.2010428454
34.1949159424
34.1889566476
34.1831471005
34.1774717311
34.1719148058
34.1664641337
34.1611070847
34.155833559
34.1506340542
34.1454973195
34.1404174905
34.1353864975
34.1303964379
34.1254394956
34.1205120414
34.1156114451
34.1107303164
34.1058662609
34.1010175226
34.0961735091
34.091319943
34.0864598666
34.0815624637
34.0766743804
34.0717387102
34.066795305
34.0618510237
34.0568951008
34.0519197273
34.0469271649
34.0419194266
34.0368929639
34.0318405475
34.0267770772
34.0216963137
34.016598731
34.0114933116
34.0063794804
34.0012660539
33.9961550137
33.9910528327
33.9859742881
33.9809261104
33.9759303947
33.9710034312
33.9661792315
33.9614692774
33.9568712283
33.9525670455
33.9483578768
33.9445602774
33.9410222508
33.9380176859
33.9358181973
33.9340941317
33.9329394149
33.9330331396
33.9343932974
33.9372142213
33.9417701193
33.9482878693
33.9570071341
33.9681292039
33.9814952919
33.9961899142
34.0093790723
34.0141884435
33.9958197696
33.9245212396
33.7480243785
33.3823079155
32.709488953
31.5903036566
29.8976749928
27.5579408462
24.5686960466
20.9954059591
16.9532449204
12.4419398249
7.21524194732
1.84672615177
64.0814974063
60.3568003927
57.4530015384
55.0981937406
53.1286470623
51.4450004968
49.9820512353
48.6958612697
47.555120359
46.5364361329
45.6217380606
44.7966871107
44.0496708412
43.3711263248