/*--------------------------------*- C++ -*----------------------------------*\
| =========                 |                                                 |
| \\      /  F ield         | OpenFOAM: The Open Source CFD Toolbox           |
|  \\    /   O peration     | Version:  2106                                  |
|   \\  /    A nd           | Website:  www.openfoam.com                      |
|    \\/     M anipulation  |                                                 |
\*---------------------------------------------------------------------------*/
FoamFile
{
    version     2.0;
    format      ascii;
    arch        "LSB;label=32;scalar=64";
    class       surfaceScalarField;
    location    "0.23";
    object      phi;
}
// * * * * * * * * * * * * * * * * * * * * * * * * * * * * * * * * * * * * * //

dimensions      [0 3 -1 0 0 0 0];

oriented        oriented;

internalField   nonuniform List<scalar> 
22100
(
3.38461201656e-05
1.61538798435e-05
2.24572091709e-05
1.13889105244e-05
1.62585518562e-05
6.19865691298e-06
1.27977744981e-05
3.46077701206e-06
1.0804640265e-05
1.99313391138e-06
9.60458687529e-06
1.20005306407e-06
8.85131872534e-06
7.53267796909e-07
8.36434949726e-06
4.86968848309e-07
8.04433119552e-06
3.20017912488e-07
7.83283599085e-06
2.11494828231e-07
7.6933924371e-06
1.39443203908e-07
7.60223517804e-06
9.11569385574e-08
7.54347203419e-06
5.87628464847e-08
7.5063347616e-06
3.7136990562e-08
7.48349489864e-06
2.2839594775e-08
7.46997372585e-06
1.35209181427e-08
7.46240875771e-06
7.56472318913e-09
7.45854039143e-06
3.86813122577e-09
7.4568211353e-06
1.71902353075e-09
7.45641414966e-06
4.06749354958e-10
7.45676363205e-06
-3.49728292905e-10
7.4574494942e-06
-6.8610955e-10
7.4582075688e-06
-7.58304138761e-10
7.45893266856e-06
-7.25280518457e-10
7.45957682589e-06
-6.44282652356e-10
7.46012062792e-06
-5.4389893188e-10
7.46056260183e-06
-4.42081982886e-10
7.46091119483e-06
-3.48737101001e-10
7.46117933086e-06
-2.68310600412e-10
7.46138113043e-06
-2.01966800741e-10
7.46153000858e-06
-1.48994455593e-10
7.46163763595e-06
-1.0769334135e-10
7.46171372698e-06
-7.61304239095e-11
7.46176637481e-06
-5.26966637856e-11
7.46179952577e-06
-3.32407137963e-11
7.46181817868e-06
-1.87795040983e-11
7.46182712528e-06
-9.07598491718e-12
7.46182982073e-06
-2.79245070801e-12
7.46182820165e-06
1.55867661278e-12
7.46182337663e-06
4.76770844831e-12
7.4618162458e-06
7.01619334259e-12
7.46180742038e-06
8.63075013223e-12
7.46179731828e-06
9.87583391755e-12
7.46178616944e-06
1.09832017989e-11
7.46177398937e-06
1.21327190897e-11
7.4617606052e-06
1.34282535105e-11
7.46174571467e-06
1.49266770214e-11
7.46172896185e-06
1.66962346353e-11
7.46170994732e-06
1.8856692928e-11
7.46168819816e-06
2.15490647294e-11
7.46166314936e-06
2.48743714373e-11
7.46163410579e-06
2.89292476663e-11
7.46160025082e-06
3.37879819603e-11
7.46156070008e-06
3.95043226416e-11
7.46151456706e-06
4.61016993312e-11
7.46146100797e-06
5.35285457042e-11
7.46139926335e-06
6.16871791371e-11
7.46132914576e-06
7.00132430482e-11
7.46125138133e-06
7.7637412039e-11
7.46116841697e-06
8.28853575128e-11
7.46108636673e-06
8.20783480196e-11
7.46101754797e-06
6.89341463799e-11
7.46096975198e-06
4.78824420736e-11
7.46096185683e-06
7.88586077312e-12
7.46102975802e-06
-6.79595709225e-11
7.46123178474e-06
-2.02050341274e-10
7.46166239391e-06
-4.30568504558e-10
7.46247166254e-06
-8.09209963996e-10
7.46389505781e-06
-1.42336039098e-09
7.4662885708e-06
-2.39348139479e-09
7.47010253205e-06
-3.81393774684e-09
7.47654848555e-06
-6.44593666113e-09
7.48732171414e-06
-1.07731505e-08
7.50550787122e-06
-1.81859805745e-08
7.53872179741e-06
-3.32138178448e-08
7.60800391259e-06
-6.92821802143e-08
7.77483561183e-06
-1.66831734881e-07
8.23022219297e-06
-4.55386522266e-07
9.69946974214e-06
-1.46924755058e-06
-5.45850750428e-06
1.51579778298e-05
5.02175945887e-05
1.59362847748e-05
4.42441107832e-05
1.7362393575e-05
3.77795001737e-05
1.26632668681e-05
3.26461422535e-05
8.59413432186e-06
2.8938089707e-05
5.70118585056e-06
2.63596188588e-05
3.77852327985e-06
2.45875139715e-05
2.52537202182e-06
2.33734714229e-05
1.70101072604e-06
2.25435218904e-05
1.14996679001e-06
2.19782127476e-05
7.76803351932e-07
2.15955097952e-05
5.22145580617e-07
2.13387328358e-05
3.47933359335e-07
2.11684909425e-05
2.29004228096e-07
2.10573329858e-05
1.48294459269e-07
2.09861447511e-05
9.40273619938e-08
2.09416720797e-05
5.79931361295e-08
2.09147900004e-05
3.44463655257e-08
2.08992906497e-05
1.9367052713e-08
2.0891066581e-05
9.94266256089e-09
2.0887266044e-05
4.20684803064e-09
2.0886196751e-05
7.19132432531e-10
2.08864421755e-05
-9.31932504862e-10
2.088731337e-05
-1.6298217392e-09
2.08884526824e-05
-1.86483617066e-09
2.08896258525e-05
-1.81765759589e-09
2.08907086729e-05
-1.62693948304e-09
2.08916460614e-05
-1.37973479977e-09
2.08924233515e-05
-1.12632363998e-09
2.08930483395e-05
-8.9357841484e-10
2.08935402827e-05
-6.94120121851e-10
2.08939239943e-05
-5.3285127089e-10
2.08942254481e-05
-4.09258176188e-10
2.08944363352e-05
-2.87137415041e-10
2.08945832419e-05
-1.99773886128e-10
2.08946834317e-05
-1.33649696601e-10
2.08947486078e-05
-8.41751279833e-11
2.08947889793e-05
-4.96260393219e-11
2.08948127321e-05
-2.66852023903e-11
2.08948246518e-05
-1.05072105243e-11
2.0894827611e-05
1.58050156946e-12
2.08948239972e-05
1.0304332872e-11
2.08948155145e-05
1.67661777153e-11
2.08948033885e-05
2.17513217452e-11
2.08947883853e-05
2.58958342555e-11
2.08947708406e-05
2.96963144388e-11
2.0894750794e-05
3.34690326472e-11
2.08947281431e-05
3.74366540851e-11
2.08947027567e-05
4.18036264505e-11
2.08946744813e-05
4.68015954196e-11
2.08946431124e-05
5.26347872313e-11
2.0894608447e-05
5.93511529604e-11
2.08945703091e-05
6.69522020203e-11
2.08945286656e-05
7.53450125014e-11
2.08944837932e-05
8.42974125138e-11
2.08944365038e-05
9.33030982387e-11
2.08943885331e-05
1.01381781311e-10
2.08943430133e-05
1.07044660351e-10
2.08943058092e-05
1.07039459763e-10
2.08942864267e-05
9.69140167789e-11
2.08942999835e-05
6.93723033036e-11
2.08943727959e-05
9.41814410449e-12
2.08945541325e-05
-1.12295767535e-10
2.08949119845e-05
-3.09983468055e-10
2.08955643982e-05
-6.44617277036e-10
2.08966221208e-05
-1.12571919184e-09
2.08982591695e-05
-1.83902644097e-09
2.09008337039e-05
-3.00499349697e-09
2.09048940996e-05
-4.86953012206e-09
2.09113104826e-05
-7.83967136754e-09
2.09215082837e-05
-1.25912162172e-08
2.0937980868e-05
-2.02864740263e-08
2.09648803642e-05
-3.33453318524e-08
2.10091559213e-05
-5.50485018843e-08
2.10840004494e-05
-9.303036518e-08
2.12153789542e-05
-1.64592344992e-07
2.1456280448e-05
-3.1018364693e-07
2.19147419348e-05
-6.25292986165e-07
2.2803093501e-05
-1.34373769425e-06
2.44499845308e-05
-3.11613783621e-06
-7.04991557888e-06
2.60413923747e-05
5.35171050177e-05
1.24191793534e-05
5.29349674078e-05
1.79445305063e-05
4.96538386927e-05
1.59443950042e-05
4.5840179544e-05
1.24077929474e-05
4.24400900629e-05
9.10127482479e-06
3.97291696083e-05
6.48944321702e-06
3.76873026118e-05
4.56723847864e-06
3.61976592493e-05
3.19065353393e-06
3.51326080819e-05
2.21501740555e-06
3.43823625156e-05
1.52704838599e-06
3.38606210441e-05
1.04388654393e-06
3.35023403374e-05
7.06213577454e-07
3.32595949937e-05
4.71749102473e-07
3.30975842724e-05
3.10304732472e-07
3.29913278076e-05
2.00283398448e-07
3.2923085567e-05
1.26234974932e-07
3.28803972714e-05
7.71342834064e-08
3.28546117872e-05
4.51521708269e-08
3.28397843126e-05
2.47697617662e-08
3.28318574276e-05
1.21333410031e-08
3.28279875731e-05
4.58859101586e-09
3.28269885835e-05
6.67006325266e-11
3.28271690578e-05
-1.81057944602e-09
3.28280172211e-05
-2.71321639657e-09
3.28291327543e-05
-2.93338247008e-09
3.28302797329e-05
-2.77413099385e-09
3.28313353881e-05
-2.43564689975e-09
3.28322454292e-05
-2.0366455292e-09
3.28329950546e-05
-1.64345588332e-09
3.28335903856e-05
-1.28964731881e-09
3.28340463498e-05
-9.88960168477e-10
3.2834381039e-05
-7.44061591041e-10
3.28346471294e-05
-5.53354628757e-10
3.2834863109e-05
-4.15920671515e-10
3.28350099313e-05
-2.8066406953e-10
3.28351087554e-05
-1.83192431647e-10
3.2835174225e-05
-1.15262471181e-10
3.28352157894e-05
-6.83846973428e-11
3.28352402809e-05
-3.5151856345e-11
3.2835251616e-05
-9.97828863928e-12
3.28352533416e-05
8.28798145609e-12
3.2835248003e-05
2.18184950018e-11
3.28352374964e-05
3.20646154742e-11
3.28352230676e-05
4.02518329263e-11
3.28352054193e-05
4.7329148751e-11
3.28351849301e-05
5.38933315873e-11
3.28351618399e-05
6.03482887732e-11
3.28351363546e-05
6.70216427791e-11
3.28351085984e-05
7.42825909385e-11
3.28350786414e-05
8.23801795808e-11
3.28350467833e-05
9.10682238091e-11
3.28350135699e-05
1.00064146352e-10
3.28349799742e-05
1.08849483731e-10
3.28349477116e-05
1.16471736753e-10
3.28349197157e-05
1.21210411929e-10
3.28349006994e-05
1.20292428188e-10
3.28348973597e-05
1.10244072025e-10
3.28349209936e-05
8.32592879443e-11
3.28349889367e-05
2.89168561246e-11
3.28351306137e-05
-7.22358117314e-11
3.28353971861e-05
-2.57053690817e-10
3.28358766893e-05
-5.9176973806e-10
3.28365874496e-05
-1.02080177685e-09
3.28376206092e-05
-1.67782511329e-09
3.28392324202e-05
-2.73747806627e-09
3.28418014604e-05
-4.40794037135e-09
3.28458315412e-05
-7.03498294364e-09
3.28521374534e-05
-1.11754059732e-08
3.28620333208e-05
-1.77355394438e-08
3.28776859205e-05
-2.82438368127e-08
3.29027603024e-05
-4.53608285982e-08
3.29426157415e-05
-7.32006006604e-08
3.30070964845e-05
-1.19529061813e-07
3.31132126569e-05
-1.99146562073e-07
3.32900290499e-05
-3.41408852091e-07
3.35858458395e-05
-6.06000430129e-07
3.40719157698e-05
-1.11136303912e-06
3.48146566535e-05
-2.08647874051e-06
3.56781648381e-05
-3.97964574977e-06
-7.12134690555e-06
3.57495965837e-05
5.3510566129e-05
8.90861284404e-06
5.55742212924e-05
1.58808746739e-05
5.52424810569e-05
1.6276134672e-05
5.35977840466e-05
1.40524894573e-05
5.15418453412e-05
1.11572130566e-05
4.95802771134e-05
8.45101096726e-06
4.79243476059e-05
6.22316748638e-06
4.66181352293e-05
4.49686539046e-06
4.56304619262e-05
3.2026901813e-06
4.49051124932e-05
2.25239729754e-06
4.4384084841e-05
1.56491368643e-06
4.40166882489e-05
1.07360967537e-06
4.37619613343e-05
7.26475542446e-07
4.35882623284e-05
4.84003283873e-07
4.34718625973e-05
3.16682701963e-07
4.33953521868e-05
2.0274499212e-07
4.33461815934e-05
1.26304509202e-07
4.33154436709e-05
7.58897323093e-08
4.32969069814e-05
4.33060781678e-08
4.32862805816e-05
2.27593484521e-08
4.32806774185e-05
1.01913714183e-08
4.32778694734e-05
2.87431218659e-09
4.32770414542e-05
-9.82825709524e-10
4.327725917e-05
-2.93114568945e-09
4.32779465427e-05
-3.62095684031e-09
4.32788094071e-05
-3.63722483073e-09
4.3279681979e-05
-3.30848943525e-09
4.32804791669e-05
-2.83411507414e-09
4.32811646597e-05
-2.32920250833e-09
4.32817302676e-05
-1.85546014675e-09
4.32821828127e-05
-1.44165819803e-09
4.32825349888e-05
-1.09636734347e-09
4.32827964807e-05
-8.14981131186e-10
4.32829716081e-05
-5.91203844989e-10
4.32831043355e-05
-4.13565995216e-10
4.32831894113e-05
-2.68450485648e-10
4.328324315e-05
-1.69162405079e-10
4.32832827285e-05
-1.08113104855e-10
4.3283306906e-05
-5.9502380186e-11
4.32833186545e-05
-2.19513691424e-11
4.3283321391e-05
5.29344511766e-12
4.32833171203e-05
2.58610180707e-11
4.32833076036e-05
4.14334046248e-11
4.328329399e-05
5.3792395777e-11
4.32832768678e-05
6.43810903827e-11
4.32832566025e-05
7.40165139853e-11
4.32832334976e-05
8.32196311531e-11
4.32832078689e-05
9.23802473164e-11
4.3283180168e-05
1.01757725302e-10
4.32831509345e-05
1.1145898263e-10
4.32831207614e-05
1.21135257807e-10
4.32830905726e-05
1.30147788094e-10
4.32830618221e-05
1.37481984474e-10
4.32830366314e-05
1.41546031994e-10
4.32830179298e-05
1.39814546134e-10
4.32830099453e-05
1.28179610802e-10
4.32830203717e-05
9.96932445664e-11
4.32830611273e-05
4.23992804665e-11
4.32831514063e-05
-6.13931255718e-11
4.3283309855e-05
-2.30652379842e-10
4.32835397414e-05
-4.86911796492e-10
4.32839755868e-05
-1.02765340143e-09
4.32847346491e-05
-1.77991370308e-09
4.32859753583e-05
-2.91850043643e-09
4.32879042653e-05
-4.66624413717e-09
4.32908704236e-05
-7.37394973613e-09
4.32954333341e-05
-1.15978135129e-08
4.33024719942e-05
-1.82140545752e-08
4.33133695802e-05
-2.8633171395e-08
4.33302863398e-05
-4.5160661011e-08
4.33565360559e-05
-7.16105035326e-08
4.33976971573e-05
-1.14361522646e-07
4.34626351618e-05
-1.84466934848e-07
4.35650994958e-05
-3.01610936394e-07
4.37250878959e-05
-5.01397265528e-07
4.39672656742e-05
-8.4817818875e-07
4.43083957779e-05
-1.45249332096e-06
4.47098733181e-05
-2.48795654192e-06
4.49307365511e-05
-4.2005090067e-06
-6.59351002062e-06
4.44028999004e-05
5.27351376545e-05
6.17347480331e-06
5.57309334637e-05
1.28850781851e-05
5.73114727616e-05
1.46955948063e-05
5.76109897941e-05
1.37529719336e-05
5.71335201979e-05
1.16346821944e-05
5.63194652719e-05
9.26506543194e-06
5.5448984707e-05
7.09364756572e-06
5.46629737577e-05
5.28287582771e-06
5.40136778193e-05
3.85198559263e-06
5.35061461335e-05
2.75992845594e-06
5.31242498924e-05
1.94680940901e-06
5.28449800601e-05
1.35287900508e-06
5.26454335607e-05
9.26021557273e-07
5.2505709098e-05
6.2372728377e-07
5.24097141529e-05
4.12677220865e-07
5.23450080065e-05
2.67450749702e-07
5.23022700721e-05
1.69042082768e-07
5.22746827935e-05
1.03476652394e-07
5.22573581036e-05
6.06303905411e-08
5.22468492389e-05
3.32678257956e-08
5.22407493312e-05
1.62909145686e-08
5.22374402331e-05
6.18310015435e-09
5.22359413171e-05
5.15840746863e-10
5.22354330834e-05
-2.42312471322e-09
5.2235497694e-05
-3.68578204658e-09
5.22358427444e-05
-3.98252203542e-09
5.22362965204e-05
-3.7625412723e-09
5.22367624107e-05
-3.3002830801e-09
5.22371893458e-05
-2.75638972316e-09
5.22375546269e-05
-2.22094396803e-09
5.22378515526e-05
-1.7387404571e-09
5.2238082904e-05
-1.32783910029e-09
5.22382589287e-05
-9.91124011806e-10
5.22383915413e-05
-7.23943409847e-10
5.22384915802e-05
-5.13766568313e-10
5.22385758683e-05
-3.52913437284e-10
5.22386410763e-05
-2.34540838575e-10
5.2238683107e-05
-1.50312319557e-10
5.22387155647e-05
-9.21464274332e-11
5.22387306748e-05
-3.72702144515e-11
5.2238735588e-05
1.71034617223e-13
5.22387329032e-05
2.83711056187e-11
5.22387246188e-05
4.95982986573e-11
5.22387120264e-05
6.62898838089e-11
5.22386959412e-05
8.03327742144e-11
5.22386769016e-05
9.28436180337e-11
5.2238655437e-05
1.04415936698e-10
5.22386324349e-05
1.15133892206e-10
5.22386081046e-05
1.25915520069e-10
5.22385812723e-05
1.38184623937e-10
5.22385533937e-05
1.48912248849e-10
5.22385255065e-05
1.57899323481e-10
5.22384991451e-05
1.63683299733e-10
5.22384767396e-05
1.63821107569e-10
5.22384627423e-05
1.53733419277e-10
5.22384693532e-05
1.21496590696e-10
5.22384972262e-05
7.17320594205e-11
5.2238567546e-05
-2.79953008762e-11
5.22386836299e-05
-1.77510949108e-10
5.22388691815e-05
-4.16209179101e-10
5.22392019115e-05
-8.19666400597e-10
5.22397087295e-05
-1.53451293964e-09
5.22404690998e-05
-2.54027455347e-09
5.22416147027e-05
-4.06397193801e-09
5.22433483398e-05
-6.39969587895e-09
5.22459710797e-05
-9.99657464738e-09
5.22499346034e-05
-1.55613123602e-08
5.22559299565e-05
-2.42094428988e-08
5.22650163317e-05
-3.7719620019e-08
5.22788125764e-05
-5.8956954809e-08
5.2299779941e-05
-9.25777909462e-08
5.23316397103e-05
-1.46221124847e-07
5.23797457862e-05
-2.32572911249e-07
5.24510427953e-05
-3.72907903377e-07
5.2552423562e-05
-6.02777980466e-07
5.26844731524e-05
-9.80227850348e-07
5.28250053424e-05
-1.5930256652e-06
5.28925275672e-05
-2.55547903746e-06
5.26744001361e-05
-3.98238170366e-06
-5.78438602967e-06
5.18652763662e-05
5.1983486113e-05
4.18998829177e-06
5.50586629818e-05
9.8099006378e-06
5.76386116753e-05
1.21156455496e-05
5.93259011372e-05
1.20656819846e-05
6.02280127047e-05
1.07325701703e-05
6.05929234092e-05
8.90015426363e-06
6.06482798278e-05
7.03829065574e-06
6.05531848531e-05
5.37797028474e-06
6.04029497626e-05
4.00222015335e-06
6.02479087518e-05
2.91496893882e-06
6.0110782733e-05
2.08393491025e-06
5.99990227346e-05
1.46463849905e-06
5.99125070966e-05
1.01253670402e-06
5.98479147621e-05
6.88319153828e-07
5.98010107809e-05
4.59580776744e-07
5.97677257445e-05
3.00735404791e-07
5.97445840168e-05
1.92183451968e-07
5.97288050919e-05
1.19255212845e-07
5.971825655e-05
7.11785526274e-08
5.97113499666e-05
4.01740308956e-08
5.97069302536e-05
2.07102828135e-08
5.97041960396e-05
8.91702491456e-09
5.97025867306e-05
2.12491053907e-09
5.97016819397e-05
-1.51855251556e-09
5.97012233756e-05
-3.22745086372e-09
5.97010335593e-05
-3.79296603663e-09
5.97009969604e-05
-3.72621876415e-09
5.97010409367e-05
-3.34453135789e-09
5.97011217893e-05
-2.8374858095e-09
5.97012138678e-05
-2.31322209752e-09
5.97013033037e-05
-1.82832356465e-09
5.97013834707e-05
-1.40811318036e-09
5.97014529198e-05
-1.06065427253e-09
5.9701512213e-05
-7.83346960205e-10
5.9701562131e-05
-5.63838173946e-10
5.9701601578e-05
-3.9254847789e-10
5.97016290345e-05
-2.62195109891e-10
5.97016440029e-05
-1.65473544999e-10
5.97016420518e-05
-9.03791950161e-11
5.97016337508e-05
-2.91452816317e-11
5.9701626879e-05
6.88235586982e-12
5.97016173005e-05
3.78205975433e-11
5.97016067339e-05
6.00560409892e-11
5.97015948971e-05
7.79980641176e-11
5.97015807171e-05
9.43152172419e-11
5.97015640119e-05
1.09283430627e-10
5.97015448224e-05
1.23332783723e-10
5.97015230276e-05
1.36720444935e-10
5.9701499395e-05
1.49425022387e-10
5.97014762726e-05
1.6122166761e-10
5.97014537264e-05
1.71339432175e-10
5.97014329948e-05
1.78450434328e-10
5.97014158341e-05
1.80659695366e-10
5.97014040929e-05
1.75453697813e-10
5.97013979401e-05
1.59844971401e-10
5.97013880304e-05
1.31371579064e-10
5.97013891429e-05
7.05599434967e-11
5.97013998045e-05
-3.87232108804e-11
5.97014708758e-05
-2.48634909657e-10
5.97016513018e-05
-5.96678108454e-10
5.97019438486e-05
-1.11225700986e-09
5.97023211312e-05
-1.91180995117e-09
5.97028867087e-05
-3.10575904646e-09
5.97037233368e-05
-4.90041933387e-09
5.97049442835e-05
-7.62050147802e-09
5.97067138231e-05
-1.17660856239e-08
5.97092693255e-05
-1.81168634687e-08
5.9712953811e-05
-2.78939989272e-08
5.97182559005e-05
-4.30217831837e-08
5.97258556366e-05
-6.65566823035e-08
5.97366547111e-05
-1.03376708124e-07
5.97517146768e-05
-1.6128088511e-07
5.97718732468e-05
-2.52731340784e-07
5.97965402013e-05
-3.97574735191e-07
5.98205591245e-05
-6.26796917876e-07
5.98270470298e-05
-9.86715831572e-07
5.97739270758e-05
-1.53990597049e-06
5.95731664792e-05
-2.3547186551e-06
5.90666605894e-05
-3.47587588548e-06
-4.81131681169e-06
5.8093591664e-05
5.14373050114e-05
2.75268287973e-06
5.4265819586e-05
6.98138539614e-06
5.72496417022e-05
9.131822874e-06
5.9790025551e-05
9.52529764367e-06
6.17201255425e-05
8.8024697058e-06
6.30882999726e-05
7.53197934556e-06
6.40167130003e-05
6.10987711549e-06
6.46292322652e-05
4.76545049298e-06
6.50257987028e-05
3.6056531896e-06
6.52790727746e-05
2.66169434955e-06
6.54389673347e-05
1.92403984295e-06
6.55386836882e-05
1.36492164603e-06
6.55999217644e-05
9.51298139451e-07
6.56367361473e-05
6.51504310671e-07
6.56581868551e-05
4.38129651505e-07
6.5670094723e-05
2.88827154936e-07
6.56761836281e-05
1.86094178141e-07
6.56788196087e-05
1.16618857404e-07
6.56794897264e-05
7.05080545725e-08
6.56791132203e-05
4.05501724881e-08
6.56782455624e-05
2.15776181042e-08
6.56772144276e-05
9.94788784218e-09
6.56762049912e-05
3.13410966605e-09
6.56752955329e-05
-6.09326727636e-10
6.56745266544e-05
-2.45882148744e-09
6.56738980976e-05
-3.16467444731e-09
6.567339899e-05
-3.22738231452e-09
6.56730118779e-05
-2.95767746685e-09
6.5672717788e-05
-2.54362697181e-09
6.56724985736e-05
-2.0942033696e-09
6.56723381417e-05
-1.66802781243e-09
6.56722228134e-05
-1.29286491644e-09
6.56721404149e-05
-9.78322537001e-10
6.56720802828e-05
-7.2331813256e-10
6.56720366203e-05
-5.2034343085e-10
6.56720052126e-05
-3.61358759697e-10
6.56719799663e-05
-2.37176130489e-10
6.56719582259e-05
-1.43935857533e-10
6.56719431436e-05
-7.5465443037e-11
6.56719412915e-05
-2.74363558525e-11
6.56719396235e-05
8.43359008504e-12
6.56719321147e-05
4.52269063431e-11
6.56719217416e-05
7.03123563254e-11
6.56719089363e-05
9.0631046643e-11
6.56718945051e-05
1.08498272766e-10
6.56718784718e-05
1.250288039e-10
6.56718607318e-05
1.4081898711e-10
6.56718412524e-05
1.56038824598e-10
6.56718206581e-05
1.6993382455e-10
6.56718007497e-05
1.81044847118e-10
6.5671780327e-05
1.91605255395e-10
6.56717599782e-05
1.98584905558e-10
6.56717408667e-05
1.9959905509e-10
6.5671724815e-05
1.91435151474e-10
6.56717152156e-05
1.69441218306e-10
6.56717192165e-05
1.27351711185e-10
6.56717278724e-05
6.18422873128e-11
6.56717494312e-05
-6.03657834881e-11
6.56718160396e-05
-3.15313872348e-10
6.56719078859e-05
-6.88579370786e-10
6.56720506252e-05
-1.25503138633e-09
6.56722505497e-05
-2.11170106268e-09
6.56725235983e-05
-3.37867981283e-09
6.56728858593e-05
-5.26254204199e-09
6.56733475168e-05
-8.08212447969e-09
6.56739052565e-05
-1.23238694741e-08
6.56745280437e-05
-1.87397046013e-08
6.56751284896e-05
-2.84945077321e-08
6.56755031713e-05
-4.33965065253e-08
6.56752219011e-05
-6.62753156855e-08
6.56734134218e-05
-1.01567977571e-07
6.56683360995e-05
-1.56203325329e-07
6.56564459699e-05
-2.40841017682e-07
6.56306002674e-05
-3.71728897307e-07
6.55766232423e-05
-5.72819944309e-07
6.54672361771e-05
-8.77328970017e-07
6.52531837202e-05
-1.32585379044e-06
6.48542504908e-05
-1.95578560549e-06
6.41576551294e-05
-2.77928050355e-06
-3.7263263949e-06
6.30726650255e-05
5.10850420042e-05
1.66764047978e-06
5.36118435879e-05
4.45458315871e-06
5.66873149718e-05
6.05635093175e-06
5.96894444834e-05
6.52316762277e-06
6.22997245928e-05
6.19218909011e-06
6.44136856432e-05
5.41801777032e-06
6.60471812718e-05
4.47638095004e-06
6.7268612322e-05
3.54401891101e-06
6.81598908945e-05
2.71437410223e-06
6.87977570642e-05
2.02382768069e-06
6.9246741043e-05
1.4750553734e-06
6.95579595045e-05
1.05370269537e-06
6.97704258411e-05
7.38831326253e-07
6.99131686152e-05
5.08761086267e-07
7.00073795017e-05
3.43918348175e-07
7.00682889094e-05
2.27917354753e-07
7.01066908298e-05
1.47691871532e-07
7.01301330517e-05
9.3176248774e-08
7.01438221158e-05
5.68186143028e-08
7.01512981828e-05
3.30737611295e-08
7.01549306579e-05
1.79448446435e-08
7.0156278462e-05
8.5998243897e-09
7.01563503825e-05
3.06194517381e-09
7.01557583684e-05
-1.7561623751e-11
7.01548975108e-05
-1.59822205651e-09
7.01539739049e-05
-2.2413303836e-09
7.01531052625e-05
-2.35899365356e-09
7.01523452446e-05
-2.19790112331e-09
7.01517110633e-05
-1.9096769451e-09
7.01511998956e-05
-1.58322083013e-09
7.01507988311e-05
-1.26708920141e-09
7.01504909111e-05
-9.85016613097e-10
7.01502584533e-05
-7.45931909792e-10
7.01500852423e-05
-5.50227622971e-10
7.01499582656e-05
-3.9356021466e-10
7.0149866897e-05
-2.70228131401e-10
7.01498040793e-05
-1.74590339264e-10
7.01497623782e-05
-1.02429064599e-10
7.01497337049e-05
-4.69491621982e-11
7.01497035365e-05
2.60879473091e-12
7.01496800843e-05
3.1786672879e-11
7.01496670284e-05
5.81850462986e-11
7.01496563739e-05
8.08318938959e-11
7.01496462466e-05
1.00554811935e-10
7.01496358926e-05
1.18581984961e-10
7.01496249678e-05
1.35668222417e-10
7.01496133974e-05
1.52172146937e-10
7.01496012311e-05
1.68083089101e-10
7.01495880579e-05
1.83038963054e-10
7.01495725838e-05
1.96410640878e-10
7.01495567286e-05
2.07267201157e-10
7.01495412606e-05
2.13835420553e-10
7.01495270062e-05
2.13707979872e-10
7.01495146474e-05
2.03748651944e-10
7.01495039491e-05
1.80130594872e-10
7.01494926084e-05
1.38656938924e-10
7.01494783955e-05
7.59716942613e-11
7.01494724218e-05
-5.44898626533e-11
7.0149474732e-05
-3.1770051682e-10
7.0149491374e-05
-7.05272565222e-10
7.01495079933e-05
-1.27166422515e-09
7.01495017589e-05
-2.10540328719e-09
7.01494451069e-05
-3.32192443575e-09
7.01492840952e-05
-5.10150174874e-09
7.01489188887e-05
-7.71696334504e-09
7.01481730033e-05
-1.15780257485e-08
7.01467438471e-05
-1.73105572167e-08
7.01441169897e-05
-2.58676678009e-08
7.01394138677e-05
-3.86933654192e-08
7.01311484026e-05
-5.80096888539e-08
7.0116828001e-05
-8.72473039213e-08
7.00922815797e-05
-1.31656631952e-07
7.00503995102e-05
-1.98958717925e-07
6.99791789206e-05
-3.00508283174e-07
6.98586063582e-05
-4.522475347e-07
6.96561579569e-05
-6.74880854193e-07
6.93217877443e-05
-9.91483872804e-07
6.87857270859e-05
-1.4197251058e-06
6.79650378288e-05
-1.95859118811e-06
-2.56240253576e-06
6.68011142636e-05
5.08804128434e-05
7.87227246937e-07
5.31704652384e-05
2.1645301279e-06
5.62177482652e-05
3.00906734392e-06
5.94382677595e-05
3.30264759413e-06
6.24449670531e-05
3.18548924995e-06
6.50382499318e-05
2.82473433053e-06
6.71548629641e-05
2.35976736179e-06
6.88135609403e-05
1.88532040414e-06
7.00731664479e-05
1.45476809469e-06
7.10056629355e-05
1.09133071485e-06
7.16812587587e-05
7.9945907937e-07
7.21614176482e-05
5.73543336235e-07
7.24965981164e-05
4.03650393877e-07
7.27264742312e-05
2.78884524188e-07
7.2881272718e-05
1.89119434682e-07
7.29834620871e-05
1.25727572317e-07
7.30494055038e-05
8.17480477431e-08
7.30908072662e-05
5.17740917926e-08
7.31159008934e-05
3.17246223881e-08
7.31303851291e-05
1.85892051832e-08
7.31381395992e-05
1.01900964484e-08
7.31417598085e-05
4.9793579159e-09
7.31429472924e-05
1.87420300742e-09
7.31428006862e-05
1.28778749819e-10
7.31419772443e-05
-7.75041337766e-10
7.31408941332e-05
-1.15846878065e-09
7.31397790605e-05
-1.24415947388e-09
7.3138751425e-05
-1.17050114665e-09
7.31378636903e-05
-1.02216784521e-09
7.31371297999e-05
-8.4952289268e-10
7.31365424011e-05
-6.79818546447e-10
7.31360840931e-05
-5.26788647052e-10
7.31357339582e-05
-3.95882830215e-10
7.31354713207e-05
-2.87730274084e-10
7.31352778257e-05
-2.00268105032e-10
7.31351378691e-05
-1.30502944635e-10
7.31350382275e-05
-7.51699822672e-11
7.31349663628e-05
-3.07571796731e-11
7.31349131205e-05
6.13521366349e-12
7.31348832157e-05
3.23931642619e-11
7.31348599211e-05
5.49872602877e-11
7.31348429718e-05
7.50352937003e-11
7.31348304047e-05
9.32536200572e-11
7.3134820401e-05
1.10334356373e-10
7.31348117111e-05
1.26994039456e-10
7.31348035002e-05
1.43612796235e-10
7.31347952068e-05
1.60286355653e-10
7.31347863987e-05
1.76808761775e-10
7.31347767448e-05
1.92626318157e-10
7.31347661223e-05
2.06893858713e-10
7.31347545663e-05
2.18604295741e-10
7.31347421882e-05
2.25997007453e-10
7.31347291369e-05
2.26623982581e-10
7.31347155655e-05
2.17270417146e-10
7.31347017718e-05
1.93904011865e-10
7.31346883623e-05
1.52001613092e-10
7.3134675331e-05
8.8900433724e-11
7.31346490672e-05
-2.83261230952e-11
7.31346049105e-05
-2.73619959406e-10
7.31345350422e-05
-6.3544373164e-10
7.31344162584e-05
-1.15286094525e-09
7.31342050034e-05
-1.89408850569e-09
7.31338325573e-05
-2.94944949626e-09
7.31331832435e-05
-4.45223092044e-09
7.31320631129e-05
-6.59689263422e-09
7.31301485661e-05
-9.66347855466e-09
7.31269120206e-05
-1.40739722827e-08
7.31214943289e-05
-2.04499522716e-08
7.31124764342e-05
-2.96754185945e-08
7.30975475407e-05
-4.30806237135e-08
7.30729960154e-05
-6.26955277463e-08
7.30328996605e-05
-9.1560005553e-08
7.29677150461e-05
-1.33773963371e-07
7.28623804573e-05
-1.95173736358e-07
7.26936577555e-05
-2.83525082848e-07
7.24269309456e-05
-4.08154377222e-07
7.20136551743e-05
-5.78208364244e-07
7.1392349207e-05
-7.98419244152e-07
7.04970397964e-05
-1.06328168581e-06
-1.34787858047e-06
6.92825161108e-05
5.07871722582e-05
5.46095799016e-11
5.29516489449e-05
5.28292935432e-11
5.59606870318e-05
2.86938453484e-11
5.92633199621e-05
1.41058157485e-11
6.24488059554e-05
2.6762016384e-12
6.52735458935e-05
-6.19490513296e-12
6.76333248116e-05
-1.21221700125e-11
6.95186597864e-05
-1.50948709373e-11
7.09734429437e-05
-1.55445399885e-11
7.20647872672e-05
-1.40629251393e-11
7.28642571821e-05
-1.12835852093e-11
7.34378079307e-05
-7.8651268115e-12
7.38414623419e-05
-4.47414259723e-12
7.41203481727e-05
-1.76168008459e-12
7.43094674771e-05
-3.18361588269e-13
7.44351951636e-05
-5.53182125645e-13
7.45169455016e-05
-2.71240928058e-12
7.45687257461e-05
-6.54402237328e-12
7.46004614215e-05
-1.13995889985e-11
7.46190666186e-05
-1.62916404227e-11
7.46292765404e-05
-2.00954529337e-11
7.46342773611e-05
-2.17291780437e-11
7.46361720275e-05
-2.07416070184e-11
7.46363189396e-05
-1.84094362901e-11
7.46355595379e-05
-1.58984624771e-11
7.46344135861e-05
-1.27489281953e-11
7.46331783336e-05
-9.12405822429e-12
7.4632012715e-05
-5.11408045405e-12
7.46309905366e-05
-2.27343630566e-13
7.46301369305e-05
3.87744297846e-12
7.46294484087e-05
8.55894825379e-12
7.46289079647e-05
1.35588132296e-11
7.46284931487e-05
1.88339038081e-11
7.46281808285e-05
2.44483230866e-11
7.4627949786e-05
3.05862740959e-11
7.46277816961e-05
3.73707173651e-11
7.46276614241e-05
4.48802323489e-11
7.46275773631e-05
5.30999464417e-11
7.46275212857e-05
6.2049119277e-11
7.46274821303e-05
7.14308474418e-11
7.46274558591e-05
8.11694949421e-11
7.46274386077e-05
9.21879719004e-11
7.4627427339e-05
1.04361486248e-10
7.46274198143e-05
1.17622774219e-10
7.46274145289e-05
1.32006696077e-10
7.46274104766e-05
1.47436657378e-10
7.46274069498e-05
1.63680050147e-10
7.46274033866e-05
1.80312876425e-10
7.46273992747e-05
1.96658568643e-10
7.46273942009e-05
2.1179739829e-10
7.46273879981e-05
2.24571561241e-10
7.46273805156e-05
2.33265526796e-10
7.46273714408e-05
2.35578832477e-10
7.46273601139e-05
2.28558889351e-10
7.46273453395e-05
2.08637422803e-10
7.462732535e-05
1.71908128371e-10
7.46272989742e-05
1.15160762458e-10
7.46272549132e-05
1.56341205501e-11
7.46271647106e-05
-1.83482396581e-10
7.46270275381e-05
-4.98294739247e-10
7.46268028985e-05
-9.28212435231e-10
7.46264298555e-05
-1.52101929748e-09
7.4625811512e-05
-2.33111726327e-09
7.46247904415e-05
-3.4312028228e-09
7.46231107173e-05
-4.91718680315e-09
7.46203534832e-05
-6.90620297978e-09
7.46158539244e-05
-9.57436226616e-09
7.46085488967e-05
-1.31449054281e-08
7.4596693261e-05
-1.78197101378e-08
7.45774797541e-05
-2.38669699231e-08
7.45464988995e-05
-3.17144493844e-08
7.44969808376e-05
-4.20416929717e-08
7.44181590403e-05
-5.49520985305e-08
7.42935898355e-05
-7.06046481469e-08
7.40988184982e-05
-8.87539855597e-08
7.37989060501e-05
-1.08242227137e-07
7.33469998998e-05
-1.26302360131e-07
7.26863366697e-05
-1.37755998737e-07
7.17584638675e-05
-1.35408731464e-07
-1.10743206329e-07
7.05213287558e-05
5.07871712304e-05
-7.87116983092e-07