/*--------------------------------*- C++ -*----------------------------------*\
| =========                 |                                                 |
| \\      /  F ield         | OpenFOAM: The Open Source CFD Toolbox           |
|  \\    /   O peration     | Version:  2106                                  |
|   \\  /    A nd           | Website:  www.openfoam.com                      |
|    \\/     M anipulation  |                                                 |
\*---------------------------------------------------------------------------*/
FoamFile
{
    version     2.0;
    format      ascii;
    arch        "LSB;label=32;scalar=64";
    class       volVectorField;
    location    "0.23";
    object      U;
}
// * * * * * * * * * * * * * * * * * * * * * * * * * * * * * * * * * * * * * //

dimensions      [0 1 -1 0 0 0 0];

internalField   nonuniform List<vector> 
11200
(
(0.662462402784 0.150569444716 0)
(0.558948667159 0.103243389895 0)
(0.383850724197 0.0513512254709 0)
(0.283747577409 0.0248708563982 0)
(0.232075248772 0.0124170463086 0)
(0.201908562365 0.00662281789034 0)
(0.18319790524 0.00380291543537 0)
(0.17127645679 0.00231587100825 0)
(0.163510269677 0.00146450743193 0)
(0.158388727698 0.000944893274614 0)
(0.155006583567 0.000615177781986 0)
(0.152786623076 0.000402234751551 0)
(0.151346467425 0.000264233200979 0)
(0.150428224831 0.000175251121062 0)
(0.149856614993 0.000118361618563 0)
(0.149512408146 8.2160951715e-05 0)
(0.149314842129 5.88670306099e-05 0)
(0.149209474729 4.3317237263e-05 0)
(0.149159610243 3.29366527916e-05 0)
(0.14914236419 2.81875178469e-05 0)
(0.149144511811 2.76851450084e-05 0)
(0.14915677836 2.98904703429e-05 0)
(0.149172390467 3.3050546149e-05 0)
(0.149187928701 3.59660915305e-05 0)
(0.14920212864 3.86018364148e-05 0)
(0.149214389913 4.10413098356e-05 0)
(0.149224544228 4.3318926372e-05 0)
(0.149232698046 4.54656556818e-05 0)
(0.149239088072 4.75207466831e-05 0)
(0.149243996739 4.95313699766e-05 0)
(0.149247709775 5.15597167461e-05 0)
(0.14925049465 5.36968924181e-05 0)
(0.149252547947 5.60256995154e-05 0)
(0.149254039353 5.84074795698e-05 0)
(0.149255101047 6.07686285943e-05 0)
(0.149255819576 6.30896461774e-05 0)
(0.149256292145 6.53808758835e-05 0)
(0.149256602815 6.76554313021e-05 0)
(0.149256805348 6.99250885817e-05 0)
(0.149256928605 7.21959329305e-05 0)
(0.149256992954 7.44686661787e-05 0)
(0.149257015414 7.67439783567e-05 0)
(0.149257008708 7.90216744964e-05 0)
(0.149256982648 8.13011322341e-05 0)
(0.149256944136 8.35810522563e-05 0)
(0.149256897398 8.58590322509e-05 0)
(0.149256845158 8.81317595564e-05 0)
(0.149256790309 9.03956611676e-05 0)
(0.149256737129 9.26475404024e-05 0)
(0.149256691547 9.48846757414e-05 0)
(0.149256661454 9.71043625925e-05 0)
(0.149256656987 9.93038821357e-05 0)
(0.149256691152 0.000101480196464 0)
(0.149256781674 0.000103629873526 0)
(0.149256953823 0.000105748729316 0)
(0.149257243723 0.000107831110354 0)
(0.149257701324 0.000109870114391 0)
(0.149258399866 0.00011185566286 0)
(0.149259448579 0.000113775111244 0)
(0.149261006133 0.000115604744553 0)
(0.149263315884 0.000117290125545 0)
(0.149266785755 0.000118743883021 0)
(0.149271889017 0.000120003845427 0)
(0.149279268139 0.00012125940425 0)
(0.149289953079 0.000122969167044 0)
(0.149305465167 0.000125335585087 0)
(0.149328189008 0.000128117793723 0)
(0.14936182064 0.000131084980903 0)
(0.149411955393 0.000134019291963 0)
(0.149486830475 0.000136805938519 0)
(0.149598395909 0.000140720264065 0)
(0.149769499771 0.000151587364441 0)
(0.150037947403 0.000172342228137 0)
(0.15046695712 0.00020263595692 0)
(0.151192425555 0.000232607047347 0)
(0.152492236037 0.000191776300013 0)
(0.155023019612 -0.000217140147046 0)
(0.162380461437 -0.00211285169005 0)
(0.187727173252 -0.0108023805323 0)
(0.204457617849 -0.0497349323845 0)
(0.965408252588 0.289214709588 0)
(0.96196285066 0.252656041866 0)
(0.823574373296 0.15902144295 0)
(0.698139341693 0.0959957322684 0)
(0.610225428577 0.058248115064 0)
(0.54897144807 0.0362148540258 0)
(0.506588835862 0.0231612858919 0)
(0.477567205508 0.0151375160442 0)
(0.457745417177 0.0100177559304 0)
(0.44422837488 0.00665814211724 0)
(0.435053201712 0.00441555745042 0)
(0.428873010608 0.00290686723397 0)
(0.424754083878 0.00189105987548 0)
(0.422046523742 0.00121004671041 0)
(0.420297676831 0.000757164609713 0)
(0.419193058462 0.000459256863696 0)
(0.418515444601 0.000265855711904 0)
(0.418116289423 0.000142400728937 0)
(0.417895677457 6.61109150522e-05 0)
(0.417786618172 2.30928347685e-05 0)
(0.417745195613 1.40741847345e-06 0)
(0.417741910619 -1.01638551722e-05 0)
(0.417756501973 -1.37156830961e-05 0)
(0.417778455731 -1.3269115781e-05 0)
(0.417802746335 -1.08364795107e-05 0)
(0.417826113781 -7.49288375008e-06 0)
(0.417846864053 -3.87622858515e-06 0)
(0.417864398239 -3.56818809111e-07 0)
(0.417878720521 2.86395618578e-06 0)
(0.417890146936 5.68265077952e-06 0)
(0.417899150012 8.03538139172e-06 0)
(0.417906223168 9.83737933021e-06 0)
(0.417911567606 1.10064968732e-05 0)
(0.417915416215 1.18594559741e-05 0)
(0.417918146481 1.26814477189e-05 0)
(0.417920033847 1.34381930888e-05 0)
(0.417921321102 1.4111991442e-05 0)
(0.417922200087 1.47272220749e-05 0)
(0.417922796893 1.53130336773e-05 0)
(0.417923182259 1.58827416951e-05 0)
(0.417923408051 1.64363115491e-05 0)
(0.417923517797 1.69787282046e-05 0)
(0.417923543446 1.75141046733e-05 0)
(0.417923508848 1.80465186719e-05 0)
(0.417923430366 1.85793436711e-05 0)
(0.417923318806 1.91144348693e-05 0)
(0.417923182813 1.96529092797e-05 0)
(0.417923031967 2.01962643774e-05 0)
(0.417922878278 2.07469528117e-05 0)
(0.417922736345 2.13073581596e-05 0)
(0.417922624917 2.1878151987e-05 0)
(0.417922568763 2.2459541797e-05 0)
(0.417922600917 2.30512131989e-05 0)
(0.417922766938 2.36525135131e-05 0)
(0.41792313097 2.42624878337e-05 0)
(0.417923785003 2.48798301903e-05 0)
(0.417924858092 2.5503663149e-05 0)
(0.417926540108 2.61216415218e-05 0)
(0.41792910849 2.67153600701e-05 0)
(0.417932952705 2.72557340444e-05 0)
(0.417938663856 2.76981583818e-05 0)
(0.417947336779 2.79808303792e-05 0)
(0.417960467694 2.82633759075e-05 0)
(0.417980185762 2.78327195572e-05 0)
(0.418009270157 2.52724335177e-05 0)
(0.418051327879 1.94768911563e-05 0)
(0.418112525618 9.64139188159e-06 0)
(0.418202984457 -5.76399969669e-06 0)
(0.4183383188 -2.92650081295e-05 0)
(0.418543446939 -6.45483309308e-05 0)
(0.418860309968 -0.00011581789594 0)
(0.419358594598 -0.000188061233801 0)
(0.420151917192 -0.00030799755997 0)
(0.421444202846 -0.000533284207803 0)
(0.423627632121 -0.00100092713963 0)
(0.427421995749 -0.0020931240403 0)
(0.43425176947 -0.00486293734835 0)
(0.448297119639 -0.0122713392814 0)
(0.474718878734 -0.0342909669995 0)
(0.478327989629 -0.0989265079634 0)
(1.02222096331 0.238416187901 0)
(1.08213752049 0.295926652877 0)
(1.03447720801 0.239503066155 0)
(0.954615382731 0.174290163784 0)
(0.879992021668 0.121345467428 0)
(0.818614393995 0.0830993829519 0)
(0.771410800854 0.0567316659185 0)
(0.736634332408 0.0387409674713 0)
(0.71162436567 0.0264327862184 0)
(0.693916545462 0.017973104264 0)
(0.681541327736 0.0121424478783 0)
(0.673000027602 0.00812490840961 0)
(0.667180555 0.00536632138822 0)
(0.66327157759 0.00348444507985 0)
(0.660688399019 0.00221256165369 0)
(0.659014067481 0.00136338165682 0)
(0.657954379485 0.000805243314623 0)
(0.657304079416 0.000445915793413 0)
(0.656921653243 0.000221067231697 0)
(0.656710079664 8.55797143701e-05 0)
(0.656603207147 8.35591896221e-06 0)
(0.656561650061 -3.37220491025e-05 0)
(0.65655774205 -5.68565099256e-05 0)
(0.656571211004 -6.68753594359e-05 0)
(0.656592734508 -6.84824611315e-05 0)
(0.656616548294 -6.5560877394e-05 0)
(0.656639344514 -6.05500598546e-05 0)
(0.65665951629 -5.48606617554e-05 0)
(0.656676478975 -4.92768990651e-05 0)
(0.656690211198 -4.42053880687e-05 0)
(0.656700959521 -3.98408396907e-05 0)
(0.656709107923 -3.63021994086e-05 0)
(0.656715352173 -3.36955497255e-05 0)
(0.656720381552 -3.18569295873e-05 0)
(0.656724239038 -3.08102700217e-05 0)
(0.656726940315 -3.03031706539e-05 0)
(0.656728797533 -3.02475520988e-05 0)
(0.656730090614 -3.05581806861e-05 0)
(0.656730986689 -3.10854831056e-05 0)
(0.656731574788 -3.17474201631e-05 0)
(0.656731928679 -3.25142778433e-05 0)
(0.656732114037 -3.3350463223e-05 0)
(0.656732177272 -3.42309364704e-05 0)
(0.656732153319 -3.51362506546e-05 0)
(0.656732066483 -3.60516140662e-05 0)
(0.656731933879 -3.69672027947e-05 0)
(0.65673177017 -3.7876000499e-05 0)
(0.656731590867 -3.87722678212e-05 0)
(0.65673141318 -3.96502646737e-05 0)
(0.656731255968 -4.05039464804e-05 0)
(0.656731144204 -4.13293164257e-05 0)
(0.656731112945 -4.21227540941e-05 0)
(0.656731210094 -4.28829559097e-05 0)
(0.656731502608 -4.36126663267e-05 0)
(0.656732085735 -4.43239482896e-05 0)
(0.656733096654 -4.50471590797e-05 0)
(0.656734720556 -4.58335792339e-05 0)
(0.656737228113 -4.67788466951e-05 0)
(0.65674102743 -4.80104170428e-05 0)
(0.656746718463 -4.97391394567e-05 0)
(0.656755212776 -5.24586065745e-05 0)
(0.656768154325 -5.72331750539e-05 0)
(0.656786906006 -6.4818143066e-05 0)
(0.656812897276 -7.61068640047e-05 0)
(0.656849911781 -9.27729425218e-05 0)
(0.656904658819 -0.000117233047613 0)
(0.656986545779 -0.000152689465263 0)
(0.657109369849 -0.000204432976106 0)
(0.657294960511 -0.000280996737324 0)
(0.657578746844 -0.000396281846024 0)
(0.658018931246 -0.000574683669613 0)
(0.658704845236 -0.000863545686099 0)
(0.659783783436 -0.0013530940513 0)
(0.66151372964 -0.00221673255899 0)
(0.664337682238 -0.00381759046993 0)
(0.668952945755 -0.0069557665029 0)
(0.676388212057 -0.0133729858889 0)
(0.688656196559 -0.0268877689572 0)
(0.705323859113 -0.0564189132483 0)
(0.700642219195 -0.113313043922 0)
(1.02251475229 0.170807152692 0)
(1.10138974756 0.276496478348 0)
(1.11752424203 0.266664798605 0)
(1.09214657812 0.21990169799 0)
(1.05187812071 0.168168846348 0)
(1.01020818067 0.123567395195 0)
(0.973494637726 0.0888375199941 0)
(0.943864492792 0.0630063700768 0)
(0.921142725819 0.0442232028517 0)
(0.904283988458 0.0307423918486 0)
(0.892074774455 0.0211562936063 0)
(0.88340440677 0.0143954683447 0)
(0.877352557782 0.0096679482413 0)
(0.873197586412 0.00639383727182 0)
(0.870392801654 0.00415116472683 0)
(0.86853390531 0.0026344904992 0)
(0.867327501138 0.00162401658968 0)
(0.866564090661 0.000962674781423 0)
(0.866096325527 0.000539120704682 0)
(0.865822075136 0.000275151494275 0)
(0.865671223162 0.000117065893187 0)
(0.865594964944 2.87897976629e-05 0)
(0.865563900245 -1.93271575257e-05 0)
(0.865561086449 -4.12630925828e-05 0)
(0.865572425303 -4.76668127605e-05 0)
(0.865589426673 -4.55260304263e-05 0)
(0.865607731132 -3.91566052901e-05 0)
(0.865625064863 -3.11458540942e-05 0)
(0.865640344651 -2.29646403102e-05 0)
(0.865653204074 -1.53806067709e-05 0)
(0.865663674802 -8.72264352595e-06 0)
(0.865671960104 -3.04344924155e-06 0)
(0.865678311572 1.73537100691e-06 0)
(0.865682936574 5.46642456638e-06 0)
(0.865686252736 8.03377226794e-06 0)
(0.865688647047 9.79117315262e-06 0)
(0.865690275063 1.11452480524e-05 0)
(0.865691433398 1.22904289009e-05 0)
(0.865692297246 1.32593846048e-05 0)
(0.865692884493 1.41455442592e-05 0)
(0.865693243088 1.49406238357e-05 0)
(0.865693437882 1.56678553715e-05 0)
(0.865693508767 1.63429634879e-05 0)
(0.865693487676 1.69825210245e-05 0)
(0.86569339605 1.76003594521e-05 0)
(0.865693248734 1.82059615964e-05 0)
(0.865693059823 1.88069395027e-05 0)
(0.86569284615 1.94110775366e-05 0)
(0.86569262871 2.00287897194e-05 0)
(0.86569243089 2.06652248934e-05 0)
(0.865692282747 2.13074103345e-05 0)
(0.86569222481 2.1942985803e-05 0)
(0.865692310032 2.25551790316e-05 0)
(0.865692608491 2.31178945782e-05 0)
(0.86569321225 2.35925797702e-05 0)
(0.865694253985 2.39359469298e-05 0)
(0.865695913192 2.41265907889e-05 0)
(0.865698470584 2.40440630652e-05 0)
(0.865702336363 2.35296601491e-05 0)
(0.865707941136 2.21868667232e-05 0)
(0.865715678312 1.94246717143e-05 0)
(0.865727192531 1.46148044272e-05 0)
(0.865745107452 5.89843181706e-06 0)
(0.865772357164 -8.37137937614e-06 0)
(0.86581283201 -3.01866074863e-05 0)
(0.865872436393 -6.34788311927e-05 0)
(0.865960498681 -0.000115132301828 0)
(0.866091529719 -0.000195925958688 0)
(0.866288089612 -0.000323147479666 0)
(0.866585028052 -0.000525321163821 0)
(0.867036017594 -0.00085148022979 0)
(0.867726252302 -0.00138870779329 0)
(0.868792312527 -0.00228605293775 0)
(0.870447875296 -0.00381862187468 0)
(0.873012583753 -0.00651166463837 0)
(0.876886621371 -0.0113765992923 0)
(0.882394520686 -0.0202866295472 0)
(0.889722265821 -0.036520868878 0)
(0.896427397862 -0.0656278173116 0)
(0.886635208429 -0.110310215688 0)
(1.01287874839 0.118961023511 0)
(1.08820669695 0.231806936691 0)
(1.13741365001 0.253106764271 0)
(1.15409083709 0.228992753164 0)
(1.14994206998 0.188368358493 0)
(1.1353846069 0.146579843612 0)
(1.11758889085 0.110150965212 0)
(1.10059493504 0.0808162215006 0)
(1.08612449429 0.0582265757353 0)
(1.0745908378 0.0413189844 0)
(1.06579137057 0.028916019802 0)
(1.05928788376 0.0199600997781 0)
(1.05459964989 0.0135815600841 0)
(1.05129064336 0.00909744317253 0)
(1.04899971759 0.0059861538716 0)
(1.04744326696 0.0038569662063 0)
(1.04640638642 0.00242159760893 0)
(1.04573046399 0.00147014964191 0)
(1.04530090103 0.000851701168162 0)
(1.04503639583 0.000459015226983 0)
(1.04488002522 0.000216755470988 0)
(1.04479240154 7.30163894626e-05 0)
(1.04474853004 -5.50514705405e-06 0)
(1.04473162528 -4.4008924519e-05 0)
(1.04472936968 -5.93856895909e-05 0)
(1.04473484871 -6.1719228316e-05 0)
(1.04474379134 -5.7245719758e-05 0)
(1.04475366985 -4.98038261041e-05 0)
(1.04476310506 -4.16445019674e-05 0)
(1.0447714273 -3.39888329975e-05 0)
(1.04477838632 -2.74233763613e-05 0)
(1.04478396933 -2.21515552568e-05 0)
(1.04478832193 -1.81283436946e-05 0)
(1.04479165482 -1.51392787809e-05 0)
(1.04479422227 -1.28074347194e-05 0)
(1.04479631759 -1.10103119037e-05 0)
(1.04479805252 -9.52061162649e-06 0)
(1.04479937287 -8.23058431241e-06 0)
(1.0448003485 -7.21191675398e-06 0)
(1.04480102999 -6.54371175234e-06 0)
(1.04480143912 -6.16418359249e-06 0)
(1.04480166286 -5.95467304981e-06 0)
(1.04480174766 -5.86526151281e-06 0)
(1.04480173212 -5.8451545792e-06 0)
(1.04480163998 -5.85530438823e-06 0)
(1.04480148822 -5.87677575446e-06 0)
(1.04480129476 -5.90019682046e-06 0)
(1.04480108221 -5.92190981751e-06 0)
(1.04480087107 -5.94729819898e-06 0)
(1.04480066775 -5.98124168658e-06 0)
(1.04480049172 -6.0091805714e-06 0)
(1.04480038615 -6.03058005362e-06 0)
(1.04480040377 -6.05206817789e-06 0)
(1.04480061641 -6.08748261172e-06 0)
(1.04480113729 -6.16922106293e-06 0)
(1.04480216447 -6.39250587515e-06 0)
(1.04480388582 -7.02580383929e-06 0)
(1.04480656016 -8.35243361327e-06 0)
(1.04481051276 -1.08527145087e-05 0)
(1.0448162044 -1.46595519238e-05 0)
(1.0448246712 -1.96246411028e-05 0)
(1.04483705666 -2.57959741457e-05 0)
(1.04485458918 -3.55093821212e-05 0)
(1.04487959204 -5.17372999594e-05 0)
(1.04491553373 -7.87132724349e-05 0)
(1.04496755324 -0.00012269621006 0)
(1.04504324713 -0.000193471550018 0)
(1.04515395803 -0.000306637616913 0)
(1.04531683003 -0.000487396766163 0)
(1.04555773701 -0.000776843335034 0)
(1.0459154011 -0.00124242181589 0)
(1.04644775628 -0.00199597801379 0)
(1.04723905866 -0.00322844262274 0)
(1.04840252528 -0.00527130272089 0)
(1.05006593771 -0.00870268520964 0)
(1.05228668099 -0.0145187038419 0)
(1.05482169746 -0.0243307874694 0)
(1.05688215484 -0.0404568469974 0)
(1.05576136196 -0.0657498854585 0)
(1.0421544344 -0.099733789299 0)
(1.00447483179 0.0814039973741 0)
(1.06917236166 0.181288538539 0)
(1.13080566484 0.216950418364 0)
(1.17374997293 0.210789155276 0)
(1.19865261284 0.183690076699 0)
(1.21019983294 0.149751683101 0)
(1.21350250191 0.116779143588 0)
(1.21251717592 0.0882206769334 0)
(1.20973090922 0.0650481495799 0)
(1.20651111328 0.0470209073394 0)
(1.20351904125 0.033406806987 0)
(1.20101135149 0.0233557311671 0)
(1.19903434249 0.0160720126662 0)
(1.19753866262 0.0108795126772 0)
(1.19644118997 0.00723418711831 0)
(1.19565545356 0.00471351766016 0)
(1.19510475042 0.0029976283985 0)
(1.19472633007 0.00184916018621 0)
(1.19447134141 0.00109495959466 0)
(1.19430302318 0.000610610327155 0)
(1.1941943761 0.000307985477622 0)
(1.19412608421 0.000125767692128 0)
(1.19408502789 2.22228535869e-05 0)
(1.19406176299 -3.24517198298e-05 0)
(1.19404945662 -5.72700852466e-05 0)
(1.19404395152 -6.45958027512e-05 0)
(1.19404244687 -6.23740230137e-05 0)
(1.1940431244 -5.55194153648e-05 0)
(1.19404486886 -4.69422743457e-05 0)
(1.1940470224 -3.82561688306e-05 0)
(1.19404921291 -3.02623419051e-05 0)
(1.1940512483 -2.32656392008e-05 0)
(1.19405305914 -1.72894194288e-05 0)
(1.19405463913 -1.22599330965e-05 0)
(1.19405600383 -8.07114693823e-06 0)
(1.1940571723 -4.66908788191e-06 0)
(1.19405811744 -2.05787975613e-06 0)
(1.19405878616 -1.6868454463e-07 0)
(1.19405913797 1.14806926273e-06 0)
(1.19405924905 2.00423918379e-06 0)
(1.19405930023 2.68403671331e-06 0)
(1.19405932701 3.28975345331e-06 0)
(1.19405930522 3.82132198807e-06 0)
(1.19405925154 4.28548182136e-06 0)
(1.19405915896 4.69405781239e-06 0)
(1.1940590178 5.06374636971e-06 0)
(1.19405883029 5.40678123912e-06 0)
(1.19405860269 5.72611302464e-06 0)
(1.19405835101 6.011557739e-06 0)
(1.19405811743 6.25602732434e-06 0)
(1.19405794106 6.48078520816e-06 0)
(1.19405785159 6.67688495336e-06 0)
(1.19405789914 6.81792649138e-06 0)
(1.19405814595 6.86431529361e-06 0)
(1.19405863778 6.7595273344e-06 0)
(1.19405934497 6.42066496315e-06 0)
(1.1940603308 5.67951208346e-06 0)
(1.19406175525 4.20275098302e-06 0)
(1.1940642217 1.49793343393e-06 0)
(1.19406878358 -2.67258120372e-06 0)
(1.19407607876 -9.07730198966e-06 0)
(1.19408600086 -1.91389921882e-05 0)
(1.19409925541 -3.48435125542e-05 0)
(1.19411783087 -5.91016356374e-05 0)
(1.19414385439 -9.64996471771e-05 0)
(1.19418013326 -0.000154358138269 0)
(1.19423064519 -0.000244337557974 0)
(1.19430100919 -0.000384938682294 0)
(1.19439909025 -0.000605665144068 0)
(1.19453564708 -0.000953939425631 0)
(1.19472472896 -0.00150643268835 0)
(1.1949831102 -0.00238765849614 0)
(1.19532560021 -0.00380130607008 0)
(1.1957494894 -0.00608112226297 0)
(1.19619450039 -0.0097673625765 0)
(1.19644089543 -0.0157062969595 0)
(1.19590155298 -0.0251130429369 0)
(1.19342075039 -0.0394502405652 0)
(1.18665979352 -0.059971643743 0)
(1.17009084419 -0.0853816825498 0)
(0.998962322673 0.0544316248402 0)
(1.05310955662 0.13340160703 0)
(1.11628265996 0.170777557821 0)
(1.1730126883 0.17514387196 0)
(1.21791242303 0.15958360651 0)
(1.25049853121 0.134951020236 0)
(1.27288485498 0.108411656589 0)
(1.2877671558 0.0838849710232 0)
(1.2974526054 0.0630565710663 0)
(1.30366066701 0.0462999198666 0)
(1.30759225161 0.033320513366 0)
(1.31005360128 0.0235495228181 0)
(1.31157351733 0.0163599068218 0)
(1.31249481251 0.0111713144122 0)
(1.31303849852 0.00749150611878 0)
(1.3133465837 0.00492448538546 0)
(1.31350999152 0.00316295457504 0)
(1.31358661539 0.00197475078972 0)
(1.3136129856 0.00118819519245 0)
(1.31361183011 0.000678627026181 0)
(1.31359698703 0.000357005983039 0)
(1.31357666122 0.000160751908068 0)
(1.31355566296 4.64676442501e-05 0)
(1.31353636408 -1.58703767626e-05 0)
(1.31351970286 -4.60586447689e-05 0)
(1.31350601083 -5.70686416895e-05 0)
(1.31349510303 -5.73233186763e-05 0)
(1.31348664247 -5.20845955745e-05 0)
(1.31348024121 -4.45218366645e-05 0)
(1.31347551437 -3.64596945158e-05 0)
(1.31347211127 -2.8871277567e-05 0)
(1.31346972898 -2.22099620077e-05 0)
(1.3134681075 -1.66270030953e-05 0)
(1.31346701774 -1.21299241886e-05 0)
(1.31346629351 -8.65314606856e-06 0)
(1.31346583734 -6.09525049118e-06 0)
(1.31346554852 -4.31904099724e-06 0)
(1.31346533817 -3.11700442542e-06 0)
(1.31346520439 -2.25916036903e-06 0)
(1.31346523305 -1.54097876906e-06 0)
(1.31346538566 -9.64309649068e-07 0)
(1.31346548383 -5.49003005784e-07 0)
(1.31346547551 -1.84386061263e-07 0)
(1.3134653928 1.55900283881e-07 0)
(1.31346525784 4.69955544673e-07 0)
(1.3134650825 7.66845897923e-07 0)
(1.31346487055 1.05958635791e-06 0)
(1.31346462502 1.36099266274e-06 0)
(1.31346435823 1.68416909535e-06 0)
(1.31346410267 2.0243099367e-06 0)
(1.31346387689 2.33265480711e-06 0)
(1.31346368817 2.5725907279e-06 0)
(1.31346356798 2.70071518494e-06 0)
(1.31346356867 2.65381299409e-06 0)
(1.31346377525 2.34390522014e-06 0)
(1.31346430619 1.67427184725e-06 0)
(1.31346516568 5.96677320331e-07 0)
(1.31346636683 -1.09403705376e-06 0)
(1.31346834813 -3.54219889415e-06 0)
(1.31347138704 -7.47979998699e-06 0)
(1.31347563315 -1.4215212206e-05 0)
(1.31348132142 -2.53481572652e-05 0)
(1.31348871384 -4.24568217035e-05 0)
(1.31349829022 -6.8702212598e-05 0)
(1.31351036004 -0.000109114386402 0)
(1.31352498841 -0.000171442085634 0)
(1.31354177836 -0.000267781573448 0)
(1.31355939705 -0.000417099848489 0)
(1.31357461294 -0.0006492499908 0)
(1.31358046437 -0.00101153756207 0)
(1.31356286604 -0.00157912517508 0)
(1.31349429729 -0.00247123208304 0)
(1.31332035516 -0.00387553221835 0)
(1.3129332507 -0.00608512916444 0)
(1.31212263696 -0.00954574589123 0)
(1.31048251073 -0.0149009856903 0)
(1.30725826792 -0.0229824959745 0)
(1.30123785805 -0.0346359408732 0)
(1.29054871149 -0.0503063527863 0)
(1.27170950316 -0.0687767396314 0)
(0.995736071217 0.0346338589967 0)
(1.04179513291 0.0905689201642 0)
(1.10222836739 0.121549564363 0)
(1.16491408907 0.129605834035 0)
(1.22202562874 0.122009268774 0)
(1.26951887823 0.10601993868 0)
(1.30680218791 0.0870975558636 0)
(1.33499529585 0.0686366803399 0)
(1.35574470946 0.0523698377689 0)
(1.37069609545 0.0389256163972 0)
(1.38128267624 0.0282980717986 0)
(1.38866259099 0.0201712757119 0)
(1.39373024007 0.0141175091565 0)
(1.39715650697 0.00970533500661 0)
(1.39943424162 0.00655059449122 0)
(1.40091955693 0.00433445399704 0)
(1.40186609687 0.00280414414004 0)
(1.40245211113 0.00176574196769 0)
(1.40280120263 0.0010741935123 0)
(1.40299789375 0.000623233097477 0)
(1.40309910995 0.000336407348952 0)
(1.40314255898 0.000159621700126 0)
(1.40315281581 5.51633255907e-05 0)
(1.40314532351 -2.99857413633e-06 0)
(1.40312956092 -3.21228749737e-05 0)
(1.40311115585 -4.38903553018e-05 0)
(1.40309311536 -4.57604012411e-05 0)
(1.40307696401 -4.24180105611e-05 0)
(1.40306330342 -3.67267905489e-05 0)
(1.40305220766 -3.03637362235e-05 0)
(1.40304347549 -2.42434953987e-05 0)
(1.40303678165 -1.88130352522e-05 0)
(1.40303176436 -1.42407156975e-05 0)
(1.40302807271 -1.05287186314e-05 0)
(1.40302540808 -7.57651201781e-06 0)
(1.40302353824 -5.25927611495e-06 0)
(1.40302228731 -3.45407996596e-06 0)
(1.40302150517 -2.01719567801e-06 0)
(1.4030210265 -8.4409239777e-07 0)
(1.40302065558 8.92758043451e-08 0)
(1.40302032566 8.00048436832e-07 0)
(1.40302011991 1.29102885649e-06 0)
(1.4030200233 1.66472938883e-06 0)
(1.40301994254 1.98748555254e-06 0)
(1.40301984356 2.29594485527e-06 0)
(1.40301971978 2.60832479842e-06 0)
(1.40301957067 2.93460801378e-06 0)
(1.40301939891 3.28030956334e-06 0)
(1.40301920436 3.64690989462e-06 0)
(1.40301897865 4.02202521412e-06 0)
(1.40301873374 4.36461222094e-06 0)
(1.40301850322 4.64436431773e-06 0)
(1.4030183157 4.82400018564e-06 0)
(1.4030181981 4.84697120933e-06 0)
(1.40301817059 4.6260242511e-06 0)
(1.40301823547 4.01822639117e-06 0)
(1.40301836665 2.81659547601e-06 0)
(1.40301863639 9.01609545101e-07 0)
(1.40301921998 -2.05935495608e-06 0)
(1.4030202245 -6.92778424118e-06 0)
(1.40302159904 -1.44805880246e-05 0)
(1.40302300278 -2.60309644629e-05 0)
(1.40302393348 -4.34188714524e-05 0)
(1.40302363393 -6.96196009371e-05 0)
(1.40302060237 -0.000109219034476 0)
(1.40301207624 -0.000169242560173 0)
(1.4029932309 -0.000260579853531 0)
(1.40295585211 -0.000400094185041 0)
(1.40288592892 -0.000613862616684 0)
(1.40275963734 -0.000942566324972 0)
(1.40253689392 -0.00144969862621 0)
(1.40215116972 -0.0022337430289 0)
(1.40149052067 -0.00344412625864 0)
(1.40036610617 -0.00530520490875 0)
(1.39846385627 -0.00814079474895 0)
(1.39526929044 -0.0123873443827 0)
(1.38996709102 -0.0185584239759 0)
(1.38140540599 -0.0270956796831 0)
(1.36808201152 -0.0380862657602 0)
(1.34759468506 -0.0506443838808 0)
(0.994011528453 0.0192358048626 0)
(1.03484762518 0.052333838668 0)
(1.09199260716 0.0723631261938 0)
(1.15662417191 0.0791292313736 0)
(1.22032112778 0.0761045461109 0)
(1.27701940938 0.0673339711825 0)
(1.32424413797 0.0561509028192 0)
(1.36181567746 0.0447990097872 0)
(1.39068524229 0.0345303759889 0)
(1.41226067743 0.0258814307116 0)
(1.42801814187 0.0189465223451 0)
(1.43929875352 0.0135849806765 0)
(1.44722797915 0.00955653315889 0)
(1.45270402741 0.00660011458048 0)
(1.45641884541 0.00447418964682 0)
(1.45889132469 0.00297351294176 0)
(1.46050218353 0.00193276802439 0)
(1.46152557482 0.00122369284404 0)
(1.46215558546 0.000749549338823 0)
(1.46252740563 0.000439016521578 0)
(1.46273367875 0.000240520244597 0)
(1.46283681797 0.000117411584317 0)
(1.46287811712 4.40495543205e-05 0)
(1.46288435277 2.69123300386e-06 0)
(1.46287222499 -1.84440537553e-05 0)
(1.46285187046 -2.74379708955e-05 0)
(1.46282931611 -2.94376408193e-05 0)
(1.46280777468 -2.76871781043e-05 0)
(1.46278877397 -2.41846698774e-05 0)
(1.46277285879 -2.01114925237e-05 0)
(1.46276002097 -1.61163172511e-05 0)
(1.46274996632 -1.25217718868e-05 0)
(1.46274228357 -9.4544379983e-06 0)
(1.46273653952 -6.92525027957e-06 0)
(1.46273233484 -4.88048049078e-06 0)
(1.46272932732 -3.25070489615e-06 0)
(1.46272722913 -1.9727903214e-06 0)
(1.46272578363 -1.00562050514e-06 0)
(1.46272478044 -3.03797312702e-07 0)
(1.46272415447 2.19775350517e-07 0)
(1.46272379098 7.04649271324e-07 0)
(1.46272354143 1.18456625502e-06 0)
(1.46272337303 1.61283221513e-06 0)
(1.46272324534 1.99696013214e-06 0)
(1.46272312901 2.35813563293e-06 0)
(1.46272300565 2.71017890723e-06 0)
(1.46272286284 3.05927847749e-06 0)
(1.46272269262 3.40395388217e-06 0)
(1.46272248983 3.73497056878e-06 0)
(1.46272225055 4.04075560482e-06 0)
(1.46272197723 4.31341997283e-06 0)
(1.46272167787 4.52164625795e-06 0)
(1.46272136021 4.61574394091e-06 0)
(1.46272103345 4.52688288521e-06 0)
(1.46272070969 4.16407528118e-06 0)
(1.46272040674 3.41412786511e-06 0)
(1.46272013649 2.15563723479e-06 0)
(1.4627197877 3.11926132266e-07 0)
(1.46271916631 -2.44217759021e-06 0)
(1.462718157 -6.87939603478e-06 0)
(1.46271650828 -1.380031455e-05 0)
(1.46271353853 -2.43056562178e-05 0)
(1.46270811459 -3.99304122404e-05 0)
(1.46269841517 -6.30464786327e-05 0)
(1.46268136537 -9.72469285993e-05 0)
(1.4626517917 -0.000147908436334 0)
(1.46260117161 -0.000223237604022 0)
(1.46251572181 -0.000335656725693 0)
(1.46237287158 -0.000503759469662 0)
(1.46213560138 -0.000756024978783 0)
(1.46174392474 -0.00113644085386 0)
(1.4611029951 -0.00171236507831 0)
(1.46006108079 -0.00257986953359 0)
(1.45837650932 -0.00387894298662 0)
(1.45567425435 -0.00580258323429 0)
(1.45138709927 -0.0085949095526 0)
(1.44469176179 -0.0125176458708 0)
(1.43451465442 -0.0177535386824 0)
(1.41958931821 -0.024253931503 0)
(1.39805919295 -0.0314764603169 0)
(0.993269664474 0.00617014846592 0)
(1.03158098952 0.0171020437674 0)
(1.08672179877 0.0239906468729 0)
(1.15174551687 0.0265606647383 0)
(1.21823532706 0.0258180582149 0)
(1.27925769733 0.0230488855375 0)
(1.33140130737 0.019365630563 0)
(1.37377592735 0.0155468566701 0)
(1.40691046692 0.0120449286428 0)
(1.43203306052 0.00906639809418 0)
(1.45060206831 0.00666059326048 0)
(1.46402976984 0.00479009029794 0)
(1.47355006489 0.00337842756469 0)
(1.48017553081 0.00233873784079 0)
(1.48470217795 0.00158891405606 0)
(1.48773608857 0.00105828923253 0)
(1.48972722103 0.000689463042062 0)
(1.49100264641 0.000437638525629 0)
(1.49179572251 0.000268885809448 0)
(1.49227008994 0.000158111378414 0)
(1.49253857935 8.71253902541e-05 0)
(1.49267765362 4.29761429817e-05 0)
(1.49273818489 1.65865002308e-05 0)
(1.49275335649 1.66594594505e-06 0)
(1.49274411734 -6.0669318314e-06 0)
(1.49272332721 -9.41208635021e-06 0)
(1.49269868104 -1.02177832396e-05 0)
(1.49267440653 -9.65380653015e-06 0)
(1.49265260103 -8.43923171439e-06 0)
(1.49263410651 -6.9921119131e-06 0)
(1.49261904639 -5.55257143768e-06 0)
(1.49260715859 -4.24060784856e-06 0)
(1.49259801289 -3.10361674613e-06 0)
(1.49259113279 -2.14777710455e-06 0)
(1.49258606375 -1.35688849913e-06 0)
(1.49258240569 -7.09114591171e-07 0)
(1.49257982338 -1.83029799973e-07 0)
(1.49257804769 2.43421121874e-07 0)
(1.49257687229 6.16997086013e-07 0)
(1.49257611994 9.87789257148e-07 0)
(1.49257563747 1.2953322783e-06 0)
(1.49257533201 1.5834588658e-06 0)
(1.49257514542 1.86878308238e-06 0)
(1.49257502447 2.16159125764e-06 0)
(1.49257493028 2.46934917791e-06 0)
(1.49257483745 2.79541057115e-06 0)
(1.49257472854 3.13987100268e-06 0)
(1.49257459052 3.49911359175e-06 0)
(1.49257441239 3.86452052478e-06 0)
(1.49257418424 4.22191359031e-06 0)
(1.49257390001 4.55170605644e-06 0)
(1.49257355672 4.82269746629e-06 0)
(1.49257314926 4.99152246832e-06 0)
(1.49257266682 4.99847755891e-06 0)
(1.49257208808 4.76132652362e-06 0)
(1.49257138252 4.16703541234e-06 0)
(1.49257053865 3.06644085752e-06 0)
(1.49256943262 1.31160723684e-06 0)
(1.49256762953 -1.28778329913e-06 0)
(1.49256480935 -5.23865790008e-06 0)
(1.49256059684 -1.11805750395e-05 0)
(1.49255397755 -1.98717742937e-05 0)
(1.49254332319 -3.23788716134e-05 0)
(1.49252607526 -5.02432301426e-05 0)
(1.49249811307 -7.56477817497e-05 0)
(1.49245268769 -0.000111573762391 0)
(1.49237893081 -0.00016244759396 0)
(1.49225977818 -0.000234638992418 0)
(1.49206770472 -0.000336607833226 0)
(1.49175778138 -0.000481066601286 0)
(1.49125794989 -0.000688770530183 0)
(1.4904592302 -0.000992102524426 0)
(1.48919122497 -0.00142385368922 0)
(1.48718734403 -0.00203186111475 0)
(1.48404792382 -0.00287763317822 0)
(1.47919105541 -0.00402887689044 0)
(1.47180661325 -0.00554027053087 0)
(1.46087607778 -0.00741396067732 0)
(1.44524468475 -0.00955681571205 0)
(1.42329164578 -0.0117213345764 0)
(0.993270462326 -0.00616840416034 0)
(1.03158097241 -0.0171003787678 0)
(1.08672173291 -0.0239897641834 0)
(1.15174555484 -0.0265602489523 0)
(1.21823540493 -0.0258179948631 0)
(1.27925779906 -0.0230491118366 0)