/*--------------------------------*- C++ -*----------------------------------*\
| =========                 |                                                 |
| \\      /  F ield         | OpenFOAM: The Open Source CFD Toolbox           |
|  \\    /   O peration     | Version:  2106                                  |
|   \\  /    A nd           | Website:  www.openfoam.com                      |
|    \\/     M anipulation  |                                                 |
\*---------------------------------------------------------------------------*/
FoamFile
{
    version     2.0;
    format      ascii;
    arch        "LSB;label=32;scalar=64";
    class       volVectorField;
    location    "0.38";
    object      U;
}
// * * * * * * * * * * * * * * * * * * * * * * * * * * * * * * * * * * * * * //

dimensions      [0 1 -1 0 0 0 0];

internalField   nonuniform List<vector> 
11200
(
(0.662462403534 0.150569443457 0)
(0.558948672832 0.103243389795 0)
(0.38385073723 0.0513512257585 0)
(0.283747596052 0.0248708566003 0)
(0.232075273379 0.0124170462223 0)
(0.201908594281 0.00662281748543 0)
(0.183197946226 0.00380291480027 0)
(0.171276508612 0.00231587026329 0)
(0.163510333631 0.00146450666461 0)
(0.15838880434 0.000944892544625 0)
(0.155006672751 0.000615177135697 0)
(0.152786724162 0.000402234228216 0)
(0.151346579518 0.000264232856789 0)
(0.150428346964 0.000175251012292 0)
(0.149856746228 0.000118361737414 0)
(0.149512547644 8.21612036375e-05 0)
(0.149314989215 5.88672436475e-05 0)
(0.149209628866 4.3317103613e-05 0)
(0.149159770603 3.29358982548e-05 0)
(0.149142531022 2.8187298847e-05 0)
(0.149144685983 2.76851568762e-05 0)
(0.149156959777 2.98905981574e-05 0)
(0.149172578771 3.30509909868e-05 0)
(0.14918812307 3.59665840483e-05 0)
(0.149202327997 3.86021051468e-05 0)
(0.149214593473 4.10411628617e-05 0)
(0.149224751651 4.33183843376e-05 0)
(0.149232909285 4.54648886323e-05 0)
(0.149239302975 4.75199559084e-05 0)
(0.149244214727 4.95306772869e-05 0)
(0.149247929811 5.15591280143e-05 0)
(0.149250715565 5.36965236888e-05 0)
(0.149252769194 5.60250942796e-05 0)
(0.149254261079 5.8406426119e-05 0)
(0.149255323996 6.07675403058e-05 0)
(0.149256044821 6.30885071487e-05 0)
(0.149256520207 6.53798138516e-05 0)
(0.149256834002 6.76545413621e-05 0)
(0.149257040105 6.99241159136e-05 0)
(0.149257167474 7.21947633019e-05 0)
(0.149257237024 7.44675205422e-05 0)
(0.149257266039 7.6743303166e-05 0)
(0.149257266587 7.90218448632e-05 0)
(0.149257247461 8.13019767958e-05 0)
(0.14925721501 8.35819094613e-05 0)
(0.149257173716 8.58593862608e-05 0)
(0.149257127577 8.81314718502e-05 0)
(0.14925708074 9.03951618117e-05 0)
(0.149257037672 9.26474220657e-05 0)
(0.149257003446 9.48852561013e-05 0)
(0.14925698479 9.71055107649e-05 0)
(0.149256991451 9.93052557736e-05 0)
(0.149257036859 0.000101481472908 0)
(0.14925713945 0.000103630765594 0)
(0.149257325125 0.000105748810738 0)
(0.149257630371 0.00010782993785 0)
(0.149258106449 0.000109866990653 0)
(0.149258828892 0.000111850256964 0)
(0.14925990759 0.000113766939366 0)
(0.149261500694 0.000115591931858 0)
(0.149263856138 0.000117269220347 0)
(0.149267381883 0.000118716188845 0)
(0.14927254514 0.000119973173097 0)
(0.149279993671 0.000121234484844 0)
(0.149290761246 0.000122964424376 0)
(0.149306369479 0.000125339135551 0)
(0.14932920543 0.000128119244566 0)
(0.149362964767 0.000131079107774 0)
(0.149413240571 0.000134004273696 0)
(0.149488262742 0.000136781735117 0)
(0.149599967186 0.000140690128388 0)
(0.149771192364 0.000151555188322 0)
(0.150039700547 0.000172277299904 0)
(0.150468639461 0.000202522498277 0)
(0.151193801157 0.000232442842695 0)
(0.15249280948 0.000191642309206 0)
(0.155021772072 -0.000216759740061 0)
(0.162374895484 -0.00210994233769 0)
(0.187702243184 -0.0107878006264 0)
(0.204355951987 -0.04965592323 0)
(0.965408254362 0.289214708177 0)
(0.961962860689 0.25265604238 0)
(0.823574394606 0.159021444368 0)
(0.698139372619 0.095995733812 0)
(0.610225469235 0.0582481163538 0)
(0.548971499783 0.0362148549763 0)
(0.506588900362 0.0231612865785 0)
(0.47756728447 0.0151375165685 0)
(0.457745511829 0.0100177563771 0)
(0.444228485833 0.00665814256973 0)
(0.43505332901 0.00441555801001 0)
(0.428873153928 0.00290686802712 0)
(0.424754242655 0.0018910610642 0)
(0.422046697175 0.00121004843824 0)
(0.420297863915 0.000757166927338 0)
(0.419193258131 0.000459259703001 0)
(0.418515655815 0.000265858826357 0)
(0.41811651132 0.000142403739334 0)
(0.417895909997 6.61135534127e-05 0)
(0.417786861236 2.30959491996e-05 0)
(0.417745448806 1.4108352983e-06 0)
(0.417742174177 -1.0159859913e-05 0)
(0.417756775516 -1.37112953477e-05 0)
(0.417778738248 -1.32647643273e-05 0)
(0.417803037119 -1.08325608851e-05 0)
(0.417826412621 -7.48954790414e-06 0)
(0.417847171199 -3.87331346906e-06 0)
(0.417864713963 -3.5400253341e-07 0)
(0.41787904466 2.86689408619e-06 0)
(0.417890478644 5.68553627217e-06 0)
(0.417899488057 8.03742209233e-06 0)
(0.417906565814 9.83779687223e-06 0)
(0.41791191396 1.10055071399e-05 0)
(0.417915767114 1.18575674802e-05 0)
(0.417918502806 1.26798947309e-05 0)
(0.417920396396 1.34366403283e-05 0)
(0.417921690459 1.41103508428e-05 0)
(0.417922576145 1.47258880965e-05 0)
(0.417923179837 1.53116772254e-05 0)
(0.417923573118 1.58813641174e-05 0)
(0.417923808616 1.64353809193e-05 0)
(0.4179239299 1.69787145179e-05 0)
(0.417923967616 1.75151321468e-05 0)
(0.417923944211 1.80478752712e-05 0)
(0.417923876081 1.85797543179e-05 0)
(0.417923775071 1.91132420824e-05 0)
(0.417923651433 1.96502355611e-05 0)
(0.41792351585 2.01924239518e-05 0)
(0.417923380084 2.07420369843e-05 0)
(0.417923257647 2.13013625089e-05 0)
(0.417923166507 2.18703954782e-05 0)
(0.417923131837 2.24492309454e-05 0)
(0.417923187761 2.30378087295e-05 0)
(0.417923381027 2.36358170036e-05 0)
(0.417923777097 2.42427169233e-05 0)
(0.417924468852 2.48578349093e-05 0)
(0.417925588394 2.54780831155e-05 0)
(0.417927330025 2.60917351354e-05 0)
(0.417929971761 2.66819251928e-05 0)
(0.417933903175 2.72174938403e-05 0)
(0.417939730022 2.76477126669e-05 0)
(0.417948550164 2.79267896986e-05 0)
(0.417961849805 2.82138766419e-05 0)
(0.417981769789 2.77528658297e-05 0)
(0.418011070604 2.51329871831e-05 0)
(0.418053360618 1.92952516693e-05 0)
(0.418114835999 9.43251642794e-06 0)
(0.418205615818 -5.98965797712e-06 0)
(0.418341300327 -2.94949649022e-05 0)
(0.418546781509 -6.47633788753e-05 0)
(0.418863950137 -0.000115984813928 0)
(0.419362392517 -0.000188126613502 0)
(0.420155560994 -0.000307898180823 0)
(0.421447088779 -0.000532855363604 0)
(0.423628571855 -0.000999803257129 0)
(0.427418608169 -0.00209039898977 0)
(0.434239166615 -0.00485609093484 0)
(0.448264847862 -0.0122531559667 0)
(0.474642084264 -0.0342394805965 0)
(0.478160514965 -0.0987633603313 0)
(1.02222096562 0.238416187798 0)
(1.08213753212 0.295926653928 0)
(1.03447723206 0.239503068046 0)
(0.954615418 0.174290166127 0)
(0.879992068325 0.121345469981 0)
(0.818614453307 0.0830993855949 0)
(0.771410874426 0.0567316685549 0)
(0.736634421796 0.038740970013 0)
(0.711624472015 0.0264327886377 0)
(0.693916669317 0.0179731066137 0)
(0.681541469131 0.0121424503109 0)
(0.673000186243 0.00812491115052 0)
(0.667180730353 0.00536632465988 0)
(0.663271768874 0.0034844490577 0)
(0.660688605236 0.00221256649701 0)
(0.659014287487 0.00136338743466 0)
(0.657954612159 0.000805249885849 0)
(0.657304323971 0.000445922972845 0)
(0.656921909404 0.000221074930898 0)
(0.656710347323 8.5587433403e-05 0)
(0.656603486389 8.36383731746e-06 0)
(0.656561940736 -3.37137902416e-05 0)
(0.656558043403 -5.68483953129e-05 0)
(0.656571522369 -6.68677268034e-05 0)
(0.656593055458 -6.84754764556e-05 0)
(0.656616878957 -6.55544798257e-05 0)
(0.656639685312 -6.05440622781e-05 0)
(0.656659867409 -5.48549150599e-05 0)
(0.656676839826 -4.9271548219e-05 0)
(0.656690580185 -4.42008265693e-05 0)
(0.656701334783 -3.983752828e-05 0)
(0.656709488675 -3.63006209357e-05 0)
(0.656715738574 -3.36952714792e-05 0)
(0.656720774501 -3.1857395443e-05 0)
(0.656724638537 -3.08119678638e-05 0)
(0.656727346339 -3.03053862371e-05 0)
(0.656729211133 -3.02502625514e-05 0)
(0.656730511919 -3.05610436109e-05 0)
(0.656731415736 -3.108794277e-05 0)
(0.656732012849 -3.17490485916e-05 0)
(0.656732377542 -3.25147362037e-05 0)
(0.65673257534 -3.33499787035e-05 0)
(0.656732651415 -3.42302126335e-05 0)
(0.656732639607 -3.51363295548e-05 0)
(0.656732564805 -3.605336215e-05 0)
(0.656732445361 -3.69705474492e-05 0)
(0.656732296914 -3.78799814358e-05 0)
(0.656732135474 -3.87763449996e-05 0)
(0.656731978728 -3.96551965222e-05 0)
(0.656731844804 -4.05105673829e-05 0)
(0.656731758057 -4.1339152639e-05 0)
(0.656731754618 -4.21369930241e-05 0)
(0.656731883967 -4.29024609751e-05 0)
(0.656732214909 -4.36390456397e-05 0)
(0.656732844839 -4.4360358425e-05 0)
(0.656733910338 -4.50968847812e-05 0)
(0.656735600333 -4.59052339649e-05 0)
(0.656738194235 -4.68804367655e-05 0)
(0.656742101478 -4.81471737312e-05 0)
(0.656747918298 -4.99259043957e-05 0)
(0.656756583596 -5.27319018631e-05 0)
(0.65676974651 -5.75542744939e-05 0)
(0.656788710469 -6.52083244803e-05 0)
(0.656814921225 -7.65509924608e-05 0)
(0.656852241041 -9.32825640128e-05 0)
(0.656907380481 -0.000117794739242 0)
(0.656989710976 -0.000153290571818 0)
(0.657113025296 -0.000205058050917 0)
(0.657299140951 -0.000281616901127 0)
(0.65758345079 -0.000396840665207 0)
(0.658024080342 -0.000575076182699 0)
(0.658710215154 -0.00086358353097 0)
(0.659788893728 -0.00135242369292 0)
(0.661517625624 -0.0022146910602 0)
(0.664338515008 -0.0038128802018 0)
(0.668947210417 -0.00694569171822 0)
(0.676369411561 -0.013351566735 0)
(0.688612652352 -0.0268411553109 0)
(0.705235471547 -0.0563142770342 0)
(0.700484893792 -0.113072352181 0)
(1.02251475478 0.170807152343 0)
(1.1013897596 0.276496478605 0)
(1.11752426669 0.266664799481 0)
(1.09214661442 0.219901699282 0)
(1.05187816895 0.168168847929 0)
(1.01020824216 0.123567396984 0)
(0.973494714074 0.0888375219078 0)
(0.943864585503 0.0630063720424 0)
(0.921142835984 0.0442232048378 0)
(0.904284116593 0.030742393892 0)
(0.892074920582 0.0211562958568 0)
(0.883404570572 0.0143954710412 0)
(0.877352738676 0.00966795162583 0)
(0.873197783606 0.00639384156148 0)
(0.870393014145 0.00415117011902 0)
(0.868534131887 0.00263449705486 0)
(0.867327740701 0.00162402418972 0)
(0.866564342459 0.000962683210522 0)
(0.86609658927 0.00053912979234 0)
(0.865822350824 0.000275160978391 0)
(0.865671510809 0.000117075699041 0)
(0.865595264217 2.87994077408e-05 0)
(0.865564210457 -1.93181494737e-05 0)
(0.865561406977 -4.12551004786e-05 0)
(0.865572755962 -4.76599891287e-05 0)
(0.865589767766 -4.55203836331e-05 0)
(0.865608083183 -3.91520908393e-05 0)
(0.865625427981 -3.11425670121e-05 0)
(0.86564071819 -2.29629094063e-05 0)
(0.865653586724 -1.53806531127e-05 0)
(0.865664064954 -8.72414313418e-06 0)
(0.865672356386 -3.04584378384e-06 0)
(0.865678713626 1.73220908319e-06 0)
(0.865683344306 5.46242473512e-06 0)
(0.865686667177 8.02799893481e-06 0)
(0.865689069385 9.78481840722e-06 0)
(0.865690705536 1.11392035397e-05 0)
(0.865691872334 1.22846843877e-05 0)
(0.865692744891 1.32544546515e-05 0)
(0.865693341757 1.41419750209e-05 0)
(0.865693711572 1.49381790655e-05 0)
(0.865693918936 1.56656321931e-05 0)
(0.865694002667 1.63398856471e-05 0)
(0.865693993937 1.6977189084e-05 0)
(0.865693915411 1.75923376395e-05 0)
(0.865693783491 1.81953495866e-05 0)
(0.865693612826 1.87935417592e-05 0)
(0.865693419552 1.93930024297e-05 0)
(0.865693225014 2.00010876578e-05 0)
(0.865693052292 2.06285145637e-05 0)
(0.865692931505 2.12603707274e-05 0)
(0.865692904945 2.18834783199e-05 0)
(0.865693026392 2.24810356504e-05 0)
(0.865693366263 2.30268184671e-05 0)
(0.86569401939 2.34851411611e-05 0)
(0.86569511712 2.38221130858e-05 0)
(0.86569684439 2.39940628822e-05 0)
(0.865699494795 2.38836541493e-05 0)
(0.865703473182 2.3345389838e-05 0)
(0.865709193007 2.19652382444e-05 0)
(0.865717137129 1.91792471985e-05 0)
(0.865728920119 1.42695319536e-05 0)
(0.865747125461 5.41420557572e-06 0)
(0.865774729231 -8.96628799767e-06 0)
(0.865815596435 -3.08720384362e-05 0)
(0.865875652943 -6.42691716535e-05 0)
(0.865964239643 -0.00011603091413 0)
(0.866095870155 -0.000196915298291 0)
(0.866293092795 -0.000324178210552 0)
(0.866590722498 -0.000526287878414 0)
(0.867042354476 -0.000852179693908 0)
(0.867733036594 -0.00138877120608 0)
(0.868799087621 -0.00228479889802 0)
(0.870453707079 -0.00381479554033 0)
(0.873015685454 -0.00650291120562 0)
(0.876883759168 -0.0113583826894 0)
(0.88238018389 -0.0202499761387 0)
(0.889687806499 -0.0364478218163 0)
(0.896361185716 -0.0654828740838 0)
(0.886529922203 -0.110026498477 0)
(1.01287875092 0.118961022617 0)
(1.08820670906 0.231806936042 0)
(1.13741367464 0.253106763953 0)
(1.15409087331 0.228992753011 0)
(1.14994211822 0.1883683585 0)
(1.13538466855 0.146579843837 0)
(1.11758896756 0.110150965712 0)
(1.10059502831 0.0808162223058 0)
(1.08612460519 0.0582265768646 0)
(1.07459096682 0.0413189858751 0)
(1.0657915177 0.0289160217087 0)
(1.05928804866 0.0199601022791 0)
(1.05459983194 0.0135815634055 0)
(1.05129084176 0.00909744757561 0)
(1.04899993129 0.00598615952253 0)
(1.0474434947 0.00385697315448 0)
(1.04640662704 0.00242160576379 0)
(1.0457307168 0.00147015881222 0)
(1.04530116578 0.000851711191807 0)
(1.04503667252 0.000459025911241 0)
(1.04488031369 0.000216766466108 0)
(1.04479270132 7.30271022037e-05 0)
(1.04474884049 -5.49533994107e-06 0)
(1.04473194599 -4.40004561859e-05 0)
(1.04472970063 -5.93787277806e-05 0)
(1.04473519031 -6.17137995169e-05 0)
(1.04474414412 -5.7241904225e-05 0)
(1.04475403384 -4.98018770039e-05 0)
(1.04476347967 -4.16447184183e-05 0)
(1.0447718114 -3.39913790948e-05 0)
(1.04477877854 -2.74280904658e-05 0)
(1.0447843685 -2.215789553e-05 0)
(1.04478872754 -1.81358351243e-05 0)
(1.04479206679 -1.51479120962e-05 0)
(1.0447946416 -1.28163892226e-05 0)
(1.04479674565 -1.10196325111e-05 0)
(1.04479848935 -9.52951837729e-06 0)
(1.0447998182 -8.23887002054e-06 0)
(1.04480080303 -7.21914347054e-06 0)
(1.04480149451 -6.54908225117e-06 0)
(1.04480191446 -6.1683089988e-06 0)
(1.04480215011 -5.95827149096e-06 0)
(1.04480224705 -5.86811417665e-06 0)
(1.04480224372 -5.84941534702e-06 0)
(1.04480216525 -5.86187707384e-06 0)
(1.04480202912 -5.88580339543e-06 0)
(1.04480185228 -5.91135073306e-06 0)
(1.04480165551 -5.9338358694e-06 0)
(1.04480146596 -5.95644615169e-06 0)
(1.04480129025 -5.99320169751e-06 0)
(1.04480114263 -6.02683453598e-06 0)
(1.0448010691 -6.05478646271e-06 0)
(1.0448011249 -6.08346559426e-06 0)
(1.04480138654 -6.12833318086e-06 0)
(1.04480197806 -6.22936850464e-06 0)
(1.0448030764 -6.50572530828e-06 0)
(1.04480486989 -7.21388294597e-06 0)
(1.04480765516 -8.62988952766e-06 0)
(1.0448117429 -1.12513434917e-05 0)
(1.04481760541 -1.50880299848e-05 0)
(1.04482625246 -2.00223103217e-05 0)
(1.04483883734 -2.62648378637e-05 0)
(1.04485665984 -3.60853438435e-05 0)
(1.04488202033 -5.2469873344e-05 0)
(1.04491838787 -7.96318128673e-05 0)
(1.04497091735 -0.000123815249642 0)
(1.04504721325 -0.000194788496838 0)
(1.04515862439 -0.000308128217654 0)
(1.04532229671 -0.000488995204249 0)
(1.04556409085 -0.00077840434301 0)
(1.04592267977 -0.00124365988128 0)
(1.04645590517 -0.00199637932401 0)
(1.04724785877 -0.00322706094333 0)
(1.04841144705 -0.00526641296315 0)
(1.05007391969 -0.00869115361953 0)
(1.05229185417 -0.0144948076204 0)
(1.05482116948 -0.0242840424258 0)
(1.05687223421 -0.0403682147371 0)
(1.05573940318 -0.0655858510505 0)
(1.0421259261 -0.0994391167873 0)
(1.00447483435 0.0814039961167 0)
(1.06917237376 0.181288537271 0)
(1.13080568925 0.216950417096 0)
(1.17375000875 0.210789153821 0)
(1.19865266059 0.183690075168 0)
(1.21019989415 0.149751681759 0)
(1.21350257829 0.116779142709 0)
(1.21251726897 0.0882206766999 0)
(1.20973101993 0.0650481500619 0)
(1.20651124208 0.0470209085119 0)
(1.20351918811 0.0334068088325 0)
(1.20101151605 0.0233557337468 0)
(1.19903452416 0.0160720161736 0)
(1.19753886055 0.0108795173576 0)
(1.19644140303 0.0072341930974 0)
(1.19565568044 0.00471352494077 0)
(1.19510498996 0.00299763694456 0)
(1.19472658157 0.00184916992128 0)
(1.19447160461 0.00109497039895 0)
(1.19430329796 0.000610621919105 0)
(1.19419466212 0.000307997337263 0)
(1.19412638091 0.000125779110635 0)
(1.19408533473 2.2233172897e-05 0)
(1.19406207977 -3.2442970316e-05 0)
(1.19404978355 -5.72630193996e-05 0)
(1.19404428908 -6.45905241942e-05 0)
(1.19404279553 -6.2370713442e-05 0)
(1.19404348426 -5.55183931558e-05 0)
(1.19404523944 -4.69437261518e-05 0)
(1.19404740277 -3.82600399115e-05 0)
(1.19404960198 -3.02683400813e-05 0)
(1.19405164491 -2.32732425139e-05 0)
(1.19405346247 -1.72983636275e-05 0)
(1.19405504934 -1.22701300599e-05 0)
(1.19405642185 -8.08188681468e-06 0)
(1.19405759917 -4.68013411155e-06 0)
(1.19405855351 -2.06869510384e-06 0)
(1.19405923159 -1.78180296047e-07 0)
(1.1940595936 1.1404320545e-06 0)
(1.19405971512 1.99745288941e-06 0)
(1.19405977714 2.67638295282e-06 0)
(1.1940598167 3.2791162769e-06 0)
(1.19405980697 3.80545094966e-06 0)
(1.19405976438 4.26561055732e-06 0)
(1.19405968522 4.67084778704e-06 0)
(1.19405956109 5.03702446702e-06 0)
(1.19405939489 5.37644511674e-06 0)
(1.19405919357 5.69268070505e-06 0)
(1.19405896562 5.97764339401e-06 0)
(1.19405875317 6.21333853673e-06 0)
(1.19405860465 6.42359755575e-06 0)
(1.19405854977 6.60230820759e-06 0)
(1.19405863687 6.72300644825e-06 0)
(1.19405892275 6.74451938636e-06 0)
(1.19405943871 6.60584372866e-06 0)
(1.19406016775 6.2128664686e-06 0)
(1.19406120566 5.41861343046e-06 0)
(1.19406270133 3.83146081164e-06 0)
(1.1940653467 1.05576582199e-06 0)
(1.19407016916 -3.21395815807e-06 0)
(1.19407766731 -9.75685592591e-06 0)
(1.19408778773 -1.99461368035e-05 0)
(1.19410131395 -3.58040837056e-05 0)
(1.19412023666 -6.02514979616e-05 0)
(1.19414668279 -9.78703119227e-05 0)
(1.19418347765 -0.000155977962413 0)
(1.19423461555 -0.000246220620924 0)
(1.19430573357 -0.000387076973387 0)
(1.19440472066 -0.000608002756433 0)
(1.19454235812 -0.000956325726877 0)
(1.19473269305 -0.00150854853023 0)
(1.19499249988 -0.0023889357151 0)
(1.19533659387 -0.00380068424834 0)
(1.19576223035 -0.00607667205201 0)
(1.19620907274 -0.00975565169523 0)
(1.19645738812 -0.0156812855528 0)
(1.19592037864 -0.0250642325936 0)
(1.19344359129 -0.0393597882811 0)
(1.18669212684 -0.0598104664375 0)
(1.17014801336 -0.0851056731258 0)
(0.998962325231 0.0544316233703 0)
(1.05310956861 0.133401605327 0)
(1.11628268402 0.170777555831 0)
(1.17301272361 0.17514386945 0)
(1.21791247024 0.159583603698 0)
(1.25049859198 0.134951017617 0)
(1.27288493106 0.108411654649 0)
(1.28776724864 0.0838849700601 0)
(1.29745271588 0.0630565711584 0)
(1.30366079545 0.0462999209391 0)
(1.30759239796 0.0333205153178 0)
(1.31005376522 0.0235495256366 0)
(1.3115736983 0.0163599106507 0)
(1.31249500962 0.011171319426 0)
(1.31303871055 0.00749151241872 0)
(1.31334680934 0.00492449296616 0)
(1.31351022961 0.0031629634865 0)
(1.31358686521 0.00197476106725 0)
(1.31361324674 0.00118820670741 0)
(1.31361210222 0.000678639383665 0)
(1.31359726961 0.000357018496447 0)
(1.31357695367 0.000160763795864 0)
(1.31355596489 4.64782512311e-05 0)
(1.31353667559 -1.58615052636e-05 0)
(1.31352002431 -4.6051586503e-05 0)
(1.31350634268 -5.70635874242e-05 0)
(1.31349544571 -5.73206301384e-05 0)
(1.31348699614 -5.20846876476e-05 0)
(1.3134806056 -4.45248924396e-05 0)
(1.31347588875 -3.64654678337e-05 0)
(1.31347249464 -2.88793923703e-05 0)
(1.31347012024 -2.22200825384e-05 0)
(1.31346850585 -1.66387252079e-05 0)
(1.31346742341 -1.21428138811e-05 0)
(1.31346670759 -8.66663420896e-06 0)
(1.31346626099 -6.10854142596e-06 0)
(1.31346598232 -4.33168210527e-06 0)
(1.3134657821 -3.12835256932e-06 0)
(1.31346565751 -2.26934907206e-06 0)
(1.31346569431 -1.55075574783e-06 0)
(1.31346585513 -9.72818353416e-07 0)
(1.31346596202 -5.58362646518e-07 0)
(1.31346596554 -1.99670209014e-07 0)
(1.31346589704 1.3468607661e-07 0)
(1.31346577679 4.43197148237e-07 0)
(1.31346561751 7.33766057212e-07 0)
(1.31346542327 1.01768274592e-06 0)
(1.31346519686 1.30473497584e-06 0)
(1.31346494771 1.60484796443e-06 0)
(1.31346470953 1.92241397868e-06 0)
(1.31346450655 2.20698997739e-06 0)
(1.31346434681 2.41928421784e-06 0)
(1.31346426091 2.51449941333e-06 0)
(1.31346430242 2.42875385681e-06 0)
(1.31346455976 2.07665688285e-06 0)
(1.31346515185 1.37571146088e-06 0)
(1.31346604238 2.66410524372e-07 0)
(1.31346734523 -1.42166336412e-06 0)
(1.31346947712 -3.94085010682e-06 0)
(1.31347263904 -8.02149308977e-06 0)
(1.31347704896 -1.49413684027e-05 0)
(1.31348293823 -2.62650437418e-05 0)
(1.31349058863 -4.35903571712e-05 0)
(1.31350048824 -7.00960857955e-05 0)
(1.31351295794 -0.000110812117868 0)
(1.31352808545 -0.000173485217587 0)
(1.31354549555 -0.00027019765149 0)
(1.31356388511 -0.000419903931385 0)
(1.313580075 -0.000652416112986 0)
(1.31358717294 -0.00101494556841 0)
(1.31357113884 -0.00158247832767 0)
(1.31350456042 -0.002474032157 0)
(1.31333325133 -0.00387680411924 0)
(1.31294969952 -0.00608306614142 0)
(1.31214399912 -0.0095371573724 0)
(1.31051094937 -0.0148803791531 0)
(1.30729746563 -0.0229406372962 0)
(1.30129438548 -0.0345578029221 0)
(1.29063472164 -0.0501686417481 0)
(1.27184777799 -0.068545935583 0)
(0.995736073733 0.0346338573748 0)
(1.04179514468 0.0905689181633 0)
(1.102228391 0.121549561877 0)
(1.16491412385 0.129605830797 0)
(1.22202567553 0.122009265104 0)
(1.26951893883 0.106019935255 0)
(1.30680226403 0.0870975532969 0)
(1.3349953888 0.0686366789836 0)
(1.35574481999 0.0523698376856 0)
(1.37069622377 0.0389256174825 0)
(1.38128282231 0.0282980739204 0)
(1.38866275453 0.0201712788253 0)
(1.39373042058 0.014117513314 0)
(1.39715670351 0.00970534031405 0)
(1.39943445294 0.0065506010747 0)
(1.40091978173 0.00433446192706 0)
(1.40186633401 0.0028041535031 0)
(1.40245235978 0.00176575282967 0)
(1.40280146214 0.00107420568445 0)
(1.4029981635 0.000623246048122 0)
(1.40309938926 0.000336420285406 0)
(1.40314284735 0.000159633824644 0)
(1.40315311301 5.51740984106e-05 0)
(1.40314562993 -2.98940183809e-06 0)
(1.40312987704 -3.21157599886e-05 0)
(1.40311148202 -4.38855380895e-05 0)
(1.40309345192 -4.57583697133e-05 0)
(1.40307731123 -4.24192107543e-05 0)
(1.40306366135 -3.6731353934e-05 0)
(1.40305257582 -3.03713321869e-05 0)
(1.40304385288 -2.42535351405e-05 0)
(1.40303716721 -1.88251761609e-05 0)
(1.40303215746 -1.42544664794e-05 0)
(1.40302847367 -1.05434577634e-05 0)
(1.40302581799 -7.59161875149e-06 0)
(1.40302395806 -5.27408357935e-06 0)
(1.40302271734 -3.46831192102e-06 0)
(1.40302194509 -2.03076387861e-06 0)
(1.40302147602 -8.56458017933e-07 0)
(1.40302111578 7.71482159186e-08 0)
(1.40302079579 7.88228145301e-07 0)
(1.40302059733 1.28016682842e-06 0)
(1.40302050887 1.65404121801e-06 0)
(1.40302043944 1.97386526275e-06 0)
(1.40302035359 2.27747157632e-06 0)
(1.40302024411 2.58335302769e-06 0)
(1.40302010975 2.90053466377e-06 0)
(1.4030199527 3.23332276357e-06 0)
(1.40301977471 3.5820293662e-06 0)
(1.40301956902 3.93800889187e-06 0)
(1.40301934731 4.25986254827e-06 0)
(1.40301914348 4.51513184163e-06 0)
(1.40301898616 4.66509511255e-06 0)
(1.4030188999 4.65174666344e-06 0)
(1.40301890225 4.38680153863e-06 0)
(1.40301899827 3.72936223874e-06 0)
(1.40301920569 2.47215910442e-06 0)
(1.40301951114 4.94950925994e-07 0)
(1.40302014964 -2.62335332683e-06 0)
(1.40302131586 -7.64659953841e-06 0)
(1.40302284728 -1.53749972094e-05 0)
(1.40302441648 -2.71303694396e-05 0)
(1.40302555521 -4.47678460618e-05 0)
(1.40302552284 -7.12743030877e-05 0)
(1.40302283224 -0.000111240097186 0)
(1.40301474848 -0.000171695257387 0)
(1.40299647062 -0.000263513438715 0)
(1.40295982075 -0.000403566514195 0)
(1.40289087148 -0.000617911897532 0)
(1.40276592161 -0.000947154166665 0)
(1.4025449538 -0.00145461030484 0)
(1.40216164263 -0.00223869031062 0)
(1.40150448286 -0.00344841708843 0)
(1.40038519235 -0.00530746898811 0)
(1.39849057407 -0.0081385826999 0)
(1.39530761266 -0.0123764502012 0)
(1.39002344406 -0.0185318733355 0)
(1.38149026674 -0.0270423778108 0)
(1.36821257548 -0.0379894932524 0)
(1.34779916315 -0.0504807548777 0)
(0.994011530903 0.0192358031417 0)
(1.03484763664 0.0523338365108 0)
(1.09199263026 0.0723631234556 0)
(1.15662420619 0.0791292278111 0)
(1.22032117432 0.0761045421014 0)
(1.27701947008 0.0673339674892 0)
(1.32424421447 0.056150900063 0)
(1.36181577088 0.0447990083277 0)
(1.39068535321 0.0345303758868 0)
(1.41226080602 0.0258814318653 0)
(1.42801828807 0.0189465246273 0)
(1.4392989171 0.0135849840348 0)
(1.44722815961 0.00955653758614 0)
(1.45270422387 0.00660012014585 0)
(1.45641905665 0.00447419650263 0)
(1.45889154938 0.00297352129496 0)
(1.46050242051 0.00193277792588 0)
(1.46152582308 0.0012237042765 0)
(1.46215584405 0.000749562003854 0)
(1.46252767365 0.000439029780696 0)
(1.46273395547 0.000240533285236 0)
(1.46283710304 0.0001174236825 0)
(1.46287841069 4.40602323655e-05 0)
(1.46288465506 2.70036218839e-06 0)
(1.46287253651 -1.84369967096e-05 0)
(1.46285219168 -2.74334651719e-05 0)
(1.4628296473 -2.94362540861e-05 0)
(1.46280811624 -2.76893264176e-05 0)
(1.4627891262 -2.41903858558e-05 0)
(1.46277322154 -2.01204430235e-05 0)
(1.46276039327 -1.61277882714e-05 0)
(1.46275034711 -1.25352956857e-05 0)
(1.4627426724 -9.46952146588e-06 0)
(1.46273693677 -6.94117751985e-06 0)
(1.46273274153 -4.89663357967e-06 0)
(1.46272974421 -3.2665187901e-06 0)
(1.46272765653 -1.98786443899e-06 0)
(1.4627262216 -1.01976087049e-06 0)
(1.46272522704 -3.17430948968e-07 0)
(1.46272460848 2.06859411624e-07 0)
(1.46272425363 6.89674924819e-07 0)
(1.46272401284 1.16687440052e-06 0)
(1.46272385291 1.59304959749e-06 0)
(1.4627237352 1.97391806572e-06 0)
(1.46272363032 2.33021352529e-06 0)
(1.46272351908 2.67537199343e-06 0)
(1.4627233881 3.01463113793e-06 0)
(1.462723229 3.3459689285e-06 0)
(1.46272303759 3.65973337803e-06 0)
(1.46272281174 3.94315991335e-06 0)
(1.46272255492 4.18833806897e-06 0)
(1.46272227521 4.36371939774e-06 0)
(1.46272197999 4.41797218099e-06 0)
(1.4627216798 4.28081290583e-06 0)
(1.46272139292 3.86215930381e-06 0)
(1.4627211385 3.05368031042e-06 0)
(1.46272088182 1.73201272825e-06 0)
(1.46272054126 -2.33214711333e-07 0)
(1.46271998139 -3.0644910431e-06 0)
(1.46271906351 -7.64729715884e-06 0)
(1.46271751834 -1.4762721928e-05 0)
(1.46271466728 -2.55042240366e-05 0)
(1.4627093936 -4.14190868304e-05 0)
(1.46269989097 -6.48908747245e-05 0)
(1.46268309937 -9.95216598743e-05 0)
(1.46265388262 -0.000150704191722 0)
(1.46260373517 -0.00022662179444 0)
(1.4625189023 -0.000339745374578 0)
(1.46237692819 -0.000508685057496 0)
(1.46214098314 -0.000761856579417 0)
(1.46175111439 -0.00114300328051 0)
(1.46111274008 -0.00171977968869 0)
(1.46007478541 -0.00258792080676 0)
(1.45839632185 -0.00388694524637 0)
(1.45570349453 -0.00580921001542 0)
(1.45143101809 -0.00859778961453 0)
(1.44475869436 -0.0125127657288 0)
(1.43461773607 -0.017734479883 0)
(1.41974911165 -0.0242110589043 0)
(1.39830760679 -0.0313963689795 0)
(0.993269666849 0.00617014668797 0)
(1.03158100064 0.0171020415505 0)
(1.08672182135 0.023990644101 0)
(1.15174555075 0.0265606612364 0)
(1.21823537354 0.0258180543963 0)
(1.27925775836 0.0230488820341 0)
(1.33140138447 0.0193656279806 0)
(1.37377602146 0.0155468553361 0)
(1.4069105785 0.0120449286258 0)
(1.43203318968 0.00906639932046 0)
(1.45060221501 0.00666059563916 0)
(1.46402993386 0.00479009380607 0)
(1.47355024577 0.0033784322598 0)
(1.48017572772 0.00233874382782 0)
(1.48470238978 0.00158892144951 0)
(1.48773631394 0.00105829810949 0)
(1.48972745862 0.00068947348311 0)
(1.49100289499 0.000437650391004 0)
(1.49179598086 0.00026889867874 0)
(1.49227035694 0.000158124583476 0)
(1.49253885429 8.71382051574e-05 0)
(1.49267793632 4.29879575637e-05 0)
(1.49273847574 1.6596926603e-05 0)
(1.4927536559 1.67469759538e-06 0)
(1.49274442564 -6.0601850223e-06 0)
(1.49272364468 -9.40802626408e-06 0)
(1.49269900803 -1.02170935214e-05 0)
(1.49267474362 -9.65680639488e-06 0)
(1.49265294877 -8.44568657536e-06 0)
(1.49263446503 -7.00158006085e-06 0)
(1.49261941491 -5.56464702498e-06 0)
(1.49260753605 -4.25473436545e-06 0)
(1.4925983989 -3.11926292876e-06 0)
(1.49259152777 -2.16424689255e-06 0)
(1.49258646857 -1.37356558214e-06 0)
(1.49258282097 -7.25491741776e-07 0)
(1.49258024918 -1.9867216656e-07 0)
(1.49257848296 2.28594809487e-07 0)
(1.49257731692 6.02208155624e-07 0)
(1.49257657306 9.73982042897e-07 0)
(1.49257609764 1.28179561149e-06 0)
(1.49257579923 1.56837395659e-06 0)
(1.49257562002 1.85129408974e-06 0)
(1.49257550761 2.14060760479e-06 0)
(1.49257542296 2.44316042378e-06 0)
(1.49257533962 2.76167374798e-06 0)
(1.49257523914 3.09535937126e-06 0)
(1.49257510842 3.4400406101e-06 0)
(1.49257493777 3.78710593844e-06 0)
(1.49257471909 4.12242654624e-06 0)
(1.49257444692 4.42607233621e-06 0)
(1.49257411726 4.66564170652e-06 0)
(1.49257372375 4.79545073875e-06 0)
(1.49257325579 4.75431265967e-06 0)
(1.49257269366 4.45746628971e-06 0)
(1.49257200684 3.78507094503e-06 0)
(1.49257117974 2.58837095206e-06 0)
(1.49257008105 7.77642798874e-07 0)
(1.49256829327 -1.88230799369e-06 0)
(1.4925655172 -6.02279925393e-06 0)
(1.49256136086 -1.21756539776e-05 0)
(1.49255479735 -2.11153736165e-05 0)
(1.49254421543 -3.39311191908e-05 0)
(1.49252707381 -5.21770942601e-05 0)
(1.49249926046 -7.80540802234e-05 0)
(1.49245407747 -0.000114592213794 0)
(1.4923806528 -0.0001661686677 0)
(1.49226192108 -0.000239278138931 0)
(1.49207052341 -0.000342421207086 0)
(1.49176185926 -0.000488142907855 0)
(1.49126364701 -0.000696632158261 0)
(1.49046715772 -0.00100160968755 0)
(1.4892030187 -0.00143551224 0)
(1.48720540306 -0.00204584858489 0)
(1.48407591274 -0.00289397252109 0)
(1.47923479782 -0.0040473636595 0)
(1.4718753275 -0.0055602879015 0)
(1.46098414325 -0.00743424028395 0)
(1.4454142569 -0.00957518436775 0)
(1.42355651097 -0.0117346344532 0)
(0.993270464628 -0.00616840601965 0)
(1.03158098322 -0.0171003810365 0)
(1.08672175507 -0.0239897668737 0)
(1.15174558851 -0.0265602521893 0)
(1.21823545152 -0.0258179982702 0)
(1.27925786055 -0.0230491149079 0)