/*--------------------------------*- C++ -*----------------------------------*\
| =========                 |                                                 |
| \\      /  F ield         | OpenFOAM: The Open Source CFD Toolbox           |
|  \\    /   O peration     | Version:  2106                                  |
|   \\  /    A nd           | Website:  www.openfoam.com                      |
|    \\/     M anipulation  |                                                 |
\*---------------------------------------------------------------------------*/
FoamFile
{
    version     2.0;
    format      ascii;
    arch        "LSB;label=32;scalar=64";
    class       volScalarField;
    location    "0.115";
    object      p;
}
// * * * * * * * * * * * * * * * * * * * * * * * * * * * * * * * * * * * * * //

dimensions      [0 2 -2 0 0 0 0];

internalField   nonuniform List<scalar> 
11200
(
146.554945769
143.626344131
142.512493681
141.985163055
141.617834078
141.323056436
141.061413233
140.812875102
140.568356685
140.32328828
140.074972757
139.821655478
139.5621045
139.295384285
139.020727973
138.7374621
138.444960751
138.142617784
137.829834305
137.506022686
137.170558418
136.822792744
136.462067175
136.087713785
135.699047086
135.29536578
134.875953647
134.440080274
133.98700181
133.515961577
133.026190627
132.51690824
131.987322192
131.436628889
130.864013775
130.268652247
129.649710281
129.006344456
128.337702168
127.642922173
126.921134897
126.171462627
125.39301968
124.58491246
123.746239384
122.876090638
121.973547709
121.037682636
120.067556925
119.062220031
118.020707275
116.942037055
115.825207148
114.669189878
113.472925888
112.235316224
110.955212359
109.631403666
108.262601726
106.847420515
105.384351448
103.871731838
102.307704532
100.690168832
99.0167149693
97.2845379864
95.4903275433
93.6301236801
91.6991224197
89.6914093014
87.5995959581
85.4143251651
83.1233970884
80.7106312329
78.1539538435
75.4217316076
72.4664124534
69.215545993
65.5160045407
60.7543563465
144.761903778
143.403729835
142.612758809
142.112745145
141.721757686
141.397875885
141.113355268
140.848753178
140.593265011
140.340742319
140.087357809
139.830597947
139.568725751
139.300464794
139.024814647
138.740940455
138.448104764
138.145624704
137.832841765
137.509093866
137.173731605
136.826075055
136.465486732
136.091296219
135.702807043
135.299312331
134.880093102
134.444417129
133.9915393
133.520702031
133.031135546
132.522057927
131.992674994
131.442184394
130.869774281
130.274621121
129.655890716
129.012739526
128.344314907
127.649755669
126.92819238
126.17874755
125.400535812
124.592664004
123.754231114
122.884328068
121.982037292
121.046432018
120.076575257
119.071518357
118.030299027
116.951938647
115.835438707
114.679776125
113.483897226
112.246710089
110.967074927
109.643791972
108.275586321
106.861088856
105.398812437
103.887121932
102.324194016
100.707966304
99.0360715107
97.3057673825
95.5138387972
93.6564486566
91.7289577459
89.7256814531
87.6395506469
85.4616077694
83.180306862
80.7805120943
78.2418299624
75.5357565439
72.6214954427
69.4411913951
65.8920058624
61.7786229497
143.766713466
143.112513239
142.560158006
142.122540971
141.750918013
141.428817073
141.139717773
140.869484067
140.609020839
140.352539187
140.096154151
139.837184089
139.573717023
139.304326022
139.027890008
138.743480312
138.450287216
138.147572028
137.834636351
137.510803127
137.17541017
136.827820643
136.467284897
136.093153904
135.704734443
135.301316471
134.882178642
134.446587645
133.993798001
133.523052224
133.033581144
132.524604477
131.995331477
131.444957299
130.872664324
130.277627077
129.659013617
129.015980957
128.347677366
127.653242678
126.931808368
126.182497903
125.404427036
124.59670392
123.758429116
122.888695446
121.986587647
121.051181783
120.081544364
119.07673105
118.035784837
116.957733589
115.841586729
114.68633088
113.49092423
112.254289356
110.975304185
109.652790693
108.285500896
106.87209891
105.411137924
103.901031372
102.340015876
100.726120077
99.0571076182
97.3303867374
95.5429153166
93.6910945498
91.7706102139
89.7762234824
87.7014840897
85.5383280115
83.2766588199
80.903556821
78.4022952655
75.7510026454
72.9216796968
69.8826581517
66.5978896893
63.0441921978
143.216952238
142.853571101
142.453673584
142.084683814
141.747067768
141.438965752
141.153602447
140.882898021
140.620525003
140.361856397
140.103474209
139.842846969
139.578074916
139.307690823
139.030518608
138.745575696
138.452005684
138.149032292
137.835928338
137.511993837
137.176537682
136.828870691
136.468353293
136.094256367
135.705873252
135.302496224
134.883403362
134.447860024
133.995119624
133.524423747
133.035002247
132.526073389
131.996844338
131.446512458
130.874266501
130.279284053
129.660730404
129.017766207
128.349537695
127.655184686
126.933839552
126.184626751
125.406663388
124.599059391
123.760917626
122.891333806
121.989396254
121.05418543
120.084773141
119.080221481
118.039581323
116.961890162
115.846169159
114.691419266
113.496616205
112.260704169
110.982587991
109.661123191
108.295102893
106.883241919
105.424157838
103.916353368
102.358168786
100.747746175
99.0829825951
97.3614786672
95.5804590898
93.7366719929
91.8262643999
89.8446262101
87.7861997266
85.6442537436
83.4105538421
81.0750534843
78.6256559596
76.0482496832
73.3280660003
70.4553621619
67.4336976631
64.3001856368
142.882904284
142.651109019
142.349697154
142.03872076
141.733881846
141.441858781
141.162883106
140.89375641
140.630794999
140.370708728
140.110737242
139.848643212
139.582634197
139.311261168
139.033327424
138.747815939
138.453833998
138.15057231
137.837275521
137.513221029
137.17770397
136.830028056
136.469495251
136.09539918
135.70703964
135.303700582
134.884655304
134.449166804
133.996487115
133.525857136
133.036506694
132.527654604
131.998508854
131.448266515
130.876113883
130.281227304
129.662773465
129.019907219
128.351780587
127.657534534
126.936302875
126.187212714
125.409383831
124.601929029
123.763954467
122.894559669
121.992837488
121.057873816
120.088747388
119.084528917
118.0442796
116.967049519
115.851875211
114.697776412
113.503751802
112.268773508
110.991779782
109.671665104
108.307272826
106.897380459
105.440687795
103.935783695
102.381129655
100.775031728
99.1155965401
97.4006824156
95.6278419475
93.7942532978
91.8966369772
89.9311585237
87.8933205191
85.7778568405
83.5786567795
81.2887979648
78.9008539502
76.4078070719
73.8054493209
71.0982116077
68.3074519502
65.483875076
142.679511806
142.503609993
142.262415862
141.995090902
141.717904703
141.441266894
141.1695772
140.903074932
140.640308466
140.379297739
140.118007919
139.854572064
139.587364802
139.314995351
139.036270804
138.750153398
138.455721001
138.152134139
137.838610038
137.514402912
137.178789401
136.831057738
136.470498432
136.096401819
135.708057469
135.304744459
134.88573322
134.450284673
133.997649378
133.527067128
133.037766809
132.528966479
131.999873494
131.449684759
130.877586917
130.282757004
129.664363236
129.021565556
128.353515282
127.659356456
126.938226227
126.189251672
125.411554318
124.604249115
123.766445635
122.897248
121.995754805
121.061059099
120.092247879
119.088401697
118.048594059
116.971889961
115.857344018
114.703997947
113.510877245
112.276987064
111.001307661
109.682789504
108.320338879
106.912814072
105.458994219
103.957585509
102.407204987
100.806337316
99.1533152746
97.4462890557
95.683188037
93.8616789021
91.9791220705
90.0325318483
88.0185520302
85.9334701814
83.7733193929
81.534157566
79.2126989111
76.8075917173
74.3219067227
71.7678105368
69.1722797918
66.5824660191
142.55639505
142.400787712
142.194486666
141.957925628
141.702451616
141.439173177
141.174560644
140.911052194
140.64891853
140.387331846
140.124958212
139.860321245
139.591991275
139.318659806
139.039154646
138.752428145
138.457535279
138.15361014
137.839844678
137.515471008
137.179747371
136.831947459
136.471352499
136.097244977
135.708905746
135.305609321
134.886623182
134.451206038
133.99860692
133.528064697
133.038807836
132.530054331
132.001011777
131.450877596
130.878839616
130.284076222
129.665756527
129.02304093
128.355082077
127.661024171
126.940001994
126.191146373
125.413583577
124.606433623
123.768810671
122.89982402
121.998578557
121.064174992
120.095709949
119.092275537
118.052959329
116.976843651
115.863004279
114.710508743
113.518414034
112.285763467
111.011582191
109.694872181
108.334611896
106.929736163
105.479146241
103.981683038
102.436117364
100.841136664
99.1953291357
97.4971657368
95.7449824948
93.9369660715
92.0711473774
90.1454124728
88.157548
86.1053479441
83.9868348357
81.8006789497
79.5469540315
77.2284268056
74.8526630539
72.4352924324
70.0032397697
67.5959359581
142.482315426
142.332305652
142.145550961
141.92944693
141.689742394
141.436922593
141.178286609
140.917549062
140.656182465
140.394260467
140.131042323
139.865404739
139.596107305
139.321928821
139.04172574
138.754448129
138.45913439
138.154897114
137.840906735
137.516376121
137.180547386
136.832681292
136.472049002
136.097925268
135.709585144
135.30629898
134.887331291
134.451938695
133.999368848
133.528859799
133.039639606
132.530926185
132.001927319
131.451840814
130.879854805
130.285148066
129.66689045
129.024243253
128.356359532
127.662385501
126.941462714
126.19272537
125.415299932
124.608309375
123.770872653
122.90210499
122.001118413
121.067022228
120.098923445
119.095927338
118.057137162
116.98165397
115.8685763
114.716999386
113.526014002
112.294704991
111.022149479
109.707414271
108.34954992
106.947591691
105.500546385
104.007394046
102.467080338
100.878508545
99.2405343709
97.5519627149
95.8115485926
94.0180067094
92.1700366415
90.2663744556
88.3058901211
86.2877537913
84.2117245425
82.0786213875
79.8910681372
77.6546154051
75.3793273386
73.0818530506
70.7869340571
68.5266590372
142.440039135
142.290591856
142.114177375
141.910440803
141.680910026
141.435203499
141.180845048
140.922207708
140.661501418
140.399407221
140.135609345
139.869250067
139.59923796
139.324424404
139.04369261
138.755994286
138.460357283
138.155878992
137.84171406
137.517060981
137.181149695
136.833231082
136.472568472
136.098430896
135.710088742
135.306809474
134.88785524
134.452481067
133.999933613
133.52945036
133.040259109
132.531577776
132.002614363
131.452567092
130.880624674
130.285966687
129.667764047
129.025179569
128.357368727
127.663480656
126.942655745
126.194030699
125.416737396
124.609903331
123.772652517
122.904106361
122.003384469
121.069605417
120.101887482
119.099349325
118.061110614
116.986292539
115.874018132
114.723412418
113.533602399
112.303716829
111.032885701
109.720239419
108.364909909
106.966028536
105.522723689
104.034121721
102.499346825
100.917522246
99.2877749739
97.6092451112
95.8811026584
94.102576877
92.2730062727
90.3919187816
88.4591624793
86.4751055848
84.4409512245
82.3591996847
80.2343114211
78.073604835
75.8883654703
73.6950575018
71.51579396
69.3768376348
142.420762797
142.270885371
142.098923607
141.900989904
141.676430587
141.434313468
141.182179942
140.924672122
140.664345536
140.402184392
140.138093561
139.871357449
139.600966558
139.325813427
139.044797327
138.756871955
138.46106014
138.156451433
137.842192149
137.517473105
137.181517697
136.833571483
136.472893653
136.09875031
135.710408729
135.307135422
134.888191153
134.452830135
134.000298594
133.529833857
133.040663757
132.532006405
132.003070178
131.453053851
130.881146882
130.286529813
129.668374762
129.025845966
128.35810031
127.664287567
126.943552694
126.195035107
125.417869844
124.611188665
123.77412094
122.905794591
122.005337108
121.071876621
120.104543014
119.102469069
118.064791594
116.990652541
115.879200122
114.729589943
113.540986197
112.312562976
111.043505736
109.733012662
108.38029595
106.984585934
105.545132901
104.061209122
102.532118124
100.957202137
99.3358554707
97.6675445717
95.95183725
94.1884471894
92.3773013494
90.5186355147
88.6131468272
86.6622042386
84.6681642062
82.634788198
80.567798316
78.4755656054
76.3698529835
74.2664714841
72.1851833801
70.148000035
142.420765516
142.270901581
142.098950788
141.901026336
141.676475483
141.434365954
141.182239071
140.924737044
140.664415549
140.402258929
140.138172183
139.871439823
139.60105244
139.325902641
139.044889758
138.756967537
138.461158858
138.156553334
137.842297348
137.51758179
137.181630131
136.833688012
136.473014719
136.098876495
135.710540606
135.30727376
134.888336853
134.452984291
134.000462544
133.530009172
133.040852379
132.532210749
132.003293205
131.453299174
130.881418903
130.286833867
129.668717283
129.026234704
128.358544724
127.664799702
126.944146578
126.195727724
125.418681926
124.612145444
123.775253078
122.907139332
122.006939679
121.07379193
120.106837718
119.105224069
118.068105068
116.994643627
115.884013393
114.735400843
113.548007635
112.321053285
111.053778261
109.745447494
108.39535371
107.002825521
105.567236109
104.087999259
102.564593383
100.99657299
99.3835871079
97.7254066587
96.0219652648
94.2734153281
92.4802027725
90.6431825605
88.7638678141
86.8444017617
84.8879738733
82.8992312792
80.8847029965
78.8533148873
76.8168914005
74.7905060399
72.792132873
70.8409459792
142.440047351
142.290640862
142.114259522
141.910550841
141.681045557
141.435361726
141.181023077
140.922403011
140.661711898
140.399631192
140.135845496
139.869497411
139.59949577
139.32469216
139.043969963
138.756281042
138.460653412
138.156184641
137.842029575
137.517386923
137.181486854
136.833580474
136.47293137
136.098808901
135.710483847
135.307223822
134.888291464
134.452942374
134.000423915
133.529974425
133.040822786
132.532188226
132.003280345
131.45329932
130.881436245
130.286873582
129.668785711
129.026339575
128.358695415
127.665007585
126.944425446
126.196094386
125.419156863
124.612753568
123.776024668
122.908111168
122.00815642
121.075307785
120.108718471
119.107549538
118.070972078
116.998169617
115.888340786
114.740702347
113.554492676
112.328975803
111.063446131
109.757234001
108.40971179
107.020301204
105.588485214
104.113824611
102.595961161
101.034644515
99.4297624214
97.7813853967
96.0898015725
94.3555578041
92.5795627751
90.7631959456
88.9083549095
87.0178873802
85.0957040568
83.1470578105
81.1789577619
79.2005811107
77.2236363528
75.2625806047
73.3342007378
71.4560223545
142.482329332
142.332388584
142.145689724
141.929632406
141.689970383
141.437188272
141.178585067
140.917876058
140.656534502
140.394634744
140.131436672
139.865817531
139.596537347
139.322375262
139.042188011
138.754925926
138.459627678
138.155406155
137.841432111
137.516918772
137.181108643
136.833262835
136.472652842
136.098554067
135.710241962
135.306987447
134.88805576
134.452704438
134.000182291
133.529728794
133.040573756
132.531937222
132.003029576
131.453051799
130.88119585
130.286645168
129.668575266
129.026154431
128.35854451
127.664901795
126.94437803
126.196121491
125.419278165
124.612993022
123.776411412
122.908680612
122.008951558
121.076380804
120.110132687
119.10938175
118.073315421
117.001137006
115.89206909
114.745357441
113.560275554
112.336129947
111.072266363
109.768077131
108.423009858
107.036577225
105.608369729
104.138072987
102.625489634
101.070560929
99.4733933538
97.8342878391
96.153802187
94.4328353639
92.6726902319
90.87517733
89.0427466726
87.1786678381
85.2872465503
83.3740929764
81.4464376944
79.5134692229
77.5866554755
75.6799870355
73.8096606049
71.9926770002
142.556415028
142.40090672
142.194685115
141.958189929
141.702775447
141.43954948
141.174982379
140.911513364
140.649414237
140.387858193
140.125512201
139.860900633
139.59259442
139.319285542
139.039802199
138.753097102
138.458225597
138.154322176
137.840579223
137.516229328
137.180531267
136.832759262
136.472195111
136.098121866
135.709821092
135.30656811
134.887631386
134.452270876
133.999737185
133.52927115
133.040103657
132.531455665
132.002538391
131.452553626
130.880694175
130.286144398
129.668080865
129.025673114
128.358084524
127.66447326
126.943993336
126.195795765
125.419029837
124.612844518
123.776390003
122.908819435
122.009290861
121.076969438
120.111029928
119.110659488
118.075060813
117.00345569
115.895089067
114.749233764
113.565195976
112.342321695
111.08000423
109.777693127
108.434904731
107.051234904
105.626374061
104.160124962
102.652424502
101.103372905
99.5132696957
97.8826552706
96.2123584018
94.5035585849
92.7578675711
90.9774305201
89.1650461479
87.3243159189
85.4598197736
83.5773342419
81.6840933601
79.7890889964
77.9034165126
76.0406762403
74.2169316461
72.4496724344
142.67953853
142.503768785
142.262679184
141.995439783
141.718330217
141.441759441
141.170127474
140.903675157
140.640952368
140.379980369
140.118725496
139.855321771
139.588144586
139.315803758
139.037106872
138.751016606
138.456611259
138.153051798
137.839555902
137.515378242
137.179795863
136.832097614
136.47157683
136.097524182
135.709228583
135.305970039
134.887020459
134.451642364
133.999088263
133.528600425
133.03941085
132.530741419
132.001804169
131.451801684
130.879927582
130.285367101
129.667297748
129.024890136
128.357308956
127.663714025
126.943261445
126.19510481
125.418396521
124.612289261
123.775937654
122.908500165
122.009141269
121.077033911
120.111362292
119.111324985
118.076138496
117.005041316
115.897298574
114.752207474
113.569103665
112.347368742
111.086438993
109.785815507
108.445076205
107.063890274
105.642035513
104.179419233
102.676103099
101.13233277
99.5485736201
97.9255541575
96.264318751
94.5662898751
92.8333409928
91.0678843442
89.2729733678
87.452426452
85.6109650154
83.7543777232
81.8897239397
80.025595741
78.1725089664
76.3435555949
74.5547989791
72.8249722387
142.882938446
142.651312455
142.350031821
142.039161194
141.734415835
141.442473766
141.16356738
140.894500424
140.631591177
140.371551168
140.111621471
139.849565933
139.583593048
139.312254535
139.034354325
138.748875969
138.454927284
138.151699435
137.838437378
137.514418885
137.178939725
136.831303155
136.470813694
136.096772577
135.708472208
135.305198162
134.886225917
134.450820457
133.998236097
133.527716439
133.038494506
132.52979301
132.000824728
131.45079297
130.878892116
130.28430824
129.666219845
129.023798665
128.356210648
127.662616991
126.942175373
126.194041362
125.417369892
124.611316818
123.775040675
122.907704684
122.008479052
121.076543612
120.111090859
119.1113294
118.076487903
117.005819539
115.898607168
114.754169426
113.571867818
112.351114798
111.09138296
109.792217771
108.45325039
107.074213487
105.654960196
104.195486673
102.695958893
101.156744472
99.5784500365
97.9619648055
96.3085117317
94.6197072776
92.8976295746
91.144895559
89.3647452763
87.561135401
85.7388369937
83.9035424867
82.0619965868
80.2221831948
78.3937095577
76.5887171255
74.8227223995
73.1155868941
143.21699385
142.853822843
142.454082087
142.085216154
141.747707752
141.439697393
141.154411538
140.883773306
140.621457705
140.362839767
140.104503194
139.843917898
139.579185244
139.308838959
139.031703858
138.746798314
138.453266981
138.150334659
137.837274829
137.513388634
137.177990489
136.830396384
136.469923634
136.095878144
135.707559736
135.304258143
134.885251907
134.449808296
133.997183239
133.526621413
133.037356645
132.528612318
131.999601768
131.449528749
130.877588053
130.282966259
129.664842623
129.022389898
128.354775183
127.661161199
126.940707725
126.192572277
125.415911892
124.609885072
123.773653497
122.906384161
122.007251876
121.075442137
120.11015443
119.110605595
118.076034097
117.005705054
115.898915799
114.755002414
113.573347412
112.353388944
111.094631781
109.796658161
108.459142981
107.081871057
105.664757312
104.207870642
102.71146199
101.175997256
99.6021956302
97.9910738078
96.3439965254
94.6627334343
92.9495214159
91.2071316706
89.4389384663
87.6489866039
85.8420489772
84.0236717101
82.2002104053
80.3788669661
78.5679173359
76.7777028429
75.0213982579
73.3175648756
143.766767318
143.112827422
142.560650334
142.123170505
141.751664852
141.429661931
141.140644219
140.870479389
140.610075219
140.35364508
140.097305841
139.83837729
139.574948534
139.305593479
139.029191772
138.744815565
138.451656416
138.148977879
137.836084156
137.512299989
137.17695748
136.829386117
136.468906301
136.094838858
135.706487735
135.303145681
134.884093767
134.448601133
133.995925154
133.525311574
133.035994938
132.52719925
131.998138411
131.448016737
130.876029571
130.281363894
129.663198767
129.020706818
128.353056468
127.659411263
126.938931459
126.190776201
125.414104709
124.608077673
123.771859351
122.90461985
122.005537703
121.073802806
120.108619714
119.109211804
118.074825653
117.004735932
115.898251401
114.754721881
113.573546294
112.354181918
111.096156121
109.799079465
108.462660437
107.086723588
105.671230817
104.21630637
102.722266051
101.189651054
99.619266771
98.0122268706
96.3700027949
94.6944778356
92.988004769
91.2534685185
89.494341516
87.7147323374
85.9194115985
84.1138045228
82.3039218659
80.4961384512
78.6970862909
76.9142669325
75.1547249278
73.4269142424
144.762005203
143.404189711
142.613443888
142.113602465
141.722763882
141.399009875
141.114599785
140.850095004
140.59469396
140.342250518
140.088939163
139.832247632
139.570439714
139.302239287
139.02664582
138.742824024
138.450035572
138.147595976
137.834848111
137.511143265
137.175821057
136.828234932
136.467730532
136.093624826
135.705225995
135.301830251
134.882720507
134.447165655
133.994423294
133.523741118
133.034354458
132.525487671
131.996354919
131.446160767
130.874100857
130.279362742
129.661127124
129.018568255
128.350853815
127.657147933
126.936612076
126.188406231
125.411690494
124.605626885
123.769381355
122.902126077
122.003042104
121.071322429
120.10617546
119.106828993
118.072534734
117.002573657
115.896262198
114.752959471
113.572075787
112.353082711
111.095523939
109.799028781
108.463328557
107.088275041
105.673862274
104.22025212
102.727803963
101.19710894
99.6290290955
98.0247416446
96.385787914
94.7141247273
93.0121805502
91.2829280023
89.5299143902
87.757307669
85.9699126285
84.1731472119
82.3729087059
80.575061789
78.7851315189
77.007864236
75.238094723
73.4458134133
146.555113902
143.627016618
142.513489533
141.986419911
141.619321442
141.324749379
141.06329292
140.814927847
140.570572624
140.325660552
140.077496922
139.824329115
139.564927004
139.29835685
139.023853709
138.740746155
138.448410324
138.146241575
137.833637364
137.50999047
137.17469687
136.82711402
136.466574276
136.092412511
135.703946244
135.300476086
134.881287989
134.445655854
133.992839383
133.522083592
133.032623549
132.523683783
131.994478553
131.444212484
130.872081255
130.277272336
129.658965848
129.016335656
128.348550474
127.654774976
126.934171026
126.185899172
125.40912023
124.602997023
123.766696431
122.899391741
122.000265338
121.0685118
120.10334143
119.103984318
118.069694988
116.999757775
115.893493111
114.750264871
113.569488946
112.350643287
111.093279648
109.797037347
108.461659299
107.08701096
105.673102582
104.22011522
102.728430882
101.198667209
99.631716964
98.0287925
96.3914755498
94.7217748005
93.0221833937
91.2957085219
89.5459556436
87.7771623932
85.9942194057
84.2026492928
82.408511468
80.6183374832
78.8386033269
77.074253358
75.3052918517
73.4066139606
53.3503537191
49.8000266876
47.4109006367
45.4575902701
43.7910132564
42.3402388662
41.060509957
39.9214305121
38.9008147034
37.981634883
37.1504387237
36.396369207
35.7105016359
35.0853719285
34.5146332315
33.9928071329
33.5151059298
33.0773065522
32.6756599398
32.3068235523
31.9678088005
31.6559382726
31.3688097133
31.1042650062
30.8603629485
30.6353549629
30.4276632275
30.2358610306
30.0586552905
29.894871292
29.7434396478
29.6033853046
29.4738181174
29.3539246126
29.2429601945
29.140241964
29.0451425191
28.9570851609
28.875541032
28.8000307867
28.7301374518
28.6654780588
28.6056507015
28.5502567056
28.498943514
28.4513998125
28.4073405026
28.3665009051
28.3286342173
28.2935117106
28.2609207104
28.230664259
28.2025598538
28.1764380866
28.1521410835
28.1295228254
28.108449232
28.0887980851
28.0704581992
28.0533140607
28.0372738423
28.0222371542
28.0081176217
27.9948384596
27.9823522033
27.970573959
27.9594381127
27.9488864148
27.9388652464
27.9293262801
27.9202263172
27.9115261324
27.9031897559
27.8951842982
27.8874795611
27.8800476165
27.872863184
27.8659040791
27.859150497
27.8525840071
27.8461880073
27.8399487895
27.8338547587
27.8278944774
27.8220569059
27.8163335879
27.8107190761
27.8052090916
27.7997994161
27.7944862786
27.7892667356
27.7841391511
27.7791038452
27.7741624807
27.7693162801
27.7645669199
27.7599191114
27.7553803867
27.7509587652
27.7466632192
27.7425052888
27.7384971742
27.7346506876
27.7309806122
27.7275047146
27.7242395638
27.721203567
27.7184227061
27.7159273588
27.7137481702
27.7119194418
27.7104812381
27.7094749747
27.7089433743
27.7089348506
27.709504289
27.710713567
27.7126342346
27.7153468885
27.7189399266
27.72350909
27.7291593545
27.7360071641
27.7441812179
27.753820265
27.7650800804
27.778138818
27.793196671
27.8104817452
27.8302511993
27.8527936141
27.8784377675
27.907567915
27.9406410588
27.9782037883
28.0209203516
28.0696438479
28.1255199495
28.190145398
28.2658092937
28.3558324832
28.4649590604
28.5996551591
28.7669956904
28.9730523583
29.2184185039
29.4916563921
29.7614472945
29.9676501211
30.0231863757
29.8058172046
29.1702652382
27.9540695273
26.0295451736
23.3555155672
20.0061800122
16.1487885239
11.8225987023
6.77020753977
1.62936878383
56.5333093416
52.4806127348
49.7712446265
47.6233029428
45.8270018627
44.2832105473
42.9329449621
41.7382917354
40.6725829066
39.7159270829
38.8529616653
38.071509195
37.3617059406
36.7154037646
36.1257471997
35.5868727358
35.093696762
34.6417657749
34.2271491996
33.8463600433
33.4962935289
33.1741777315
32.8775327294
32.6041357229
32.3519910091
32.1193034136
31.9044547765
31.7059831587
31.5225644722
31.3529965912
31.1961858842
31.0511356746
30.91693647
30.7927571125
30.677836348
30.5714752121
30.4730301383
30.3819076806
30.2975594455
30.2194752276
30.1471742986
30.0802046156
30.0181467727
29.9606616084
29.9074181637
29.8580999014
29.8124144374
29.7700816537
29.7308478947
29.6944724564
29.660732836
29.6294240796
29.6003576015
29.5733567475
29.5482588993
29.5249109709
29.5031691157
29.4828974472
29.4639704162
29.4462851983
29.4297383309
29.4142357805
29.3996867046
29.3860056121
29.3731198521
29.3609643731
29.3494773123
29.3385993976
29.328275495
29.3184557228
29.3090950499
29.3001523563
29.2915901191
29.2833742109
29.2754730741
29.2678574452
29.2605010045
29.2533807615
29.2464758622
29.2397666445
29.2332355271
29.2268681978
29.2206523147
29.2145751012
29.2086243821
29.2027913371
29.1970701727
29.1914553722
29.185941472
29.1805237128
29.1751985994
29.1699633493
29.1648171042
29.1597606158
29.1547942173
29.149917899
29.145135475
29.1404533782
29.1358777021
29.1314160569
29.1270790091
29.122876092
29.1188170115
29.1149152425
29.1111858645
29.1076427313
29.1043006982
29.1011841959
29.0983210091
29.095735069
29.0934603961
29.0915297965
29.0899802441
29.088849706
29.0881774751
29.0880135432
29.0884123202
29.0894336635
29.0911535424
29.0936444564
29.096992996
29.1012895575
29.106631512
29.113135254
29.1209103549
29.1300977653
29.1408425779
29.1533166647
29.1677087678
29.1842389776
29.2031382053
29.2246812734
29.2491769328
29.2770003256
29.3085885357
29.3444773486
29.3853656555
29.4322093355
29.4863869809
29.5499464448
29.6259980605
29.7191178551
29.8355191367
29.9824262191
30.16591749
30.3862188203
30.6309220727
30.8669024048
31.0304974745
31.032872048
30.7495800033
30.03409997
28.7242767545
26.6965957237
23.9177854744
20.4662496977
16.5076427272
12.0978420019
6.99701592547
1.74137490556
58.742172035
54.808548419
51.9441298246
49.6647679111
47.7685179647
46.1481744306
44.7379398823
43.4951379421
42.3898780018
41.4000670813
40.5088085611
39.7028336594
38.9714874143
38.3060379187
37.6991922837
37.1447547722
36.6373863397
36.172435015
35.7458145308
35.3539145787
34.9935317207
34.6618142683
34.35621708
34.074463286
33.814511647
33.5745280126
33.3528602196
33.1480160945
32.9586442004
32.7835172508
32.6215181111
32.4716277853
32.3329152146
32.2045281438
32.0856846521
31.9756657567
31.8738088528
31.7795027483
31.6921835776
31.6113316893
31.5364694663
31.4671558388
31.4029725928
31.343514847
31.2884398274
31.2374210617
31.1901524119
31.1463557987
31.1057640387
31.0681333591
31.0332370331
31.0008635315
30.9708130284
30.9429065394
30.9169731433
30.8928496491
30.8703979881
30.8494861162
30.8299850826
30.8117783696
30.7947584327
30.7788254222
30.7638867588
30.7498577739
30.7366617869
30.7242263463
30.7124848606
30.7013753836
30.690840774
30.6808290755
30.6712931129
30.6621898521
30.6534800814
30.6451280253
30.6371006585
30.6293676594
30.6219018072
30.6146788678
30.6076766992
30.6008749413
30.5942555302
30.5878029264
30.5815032584
30.5753431827
30.5693106967
30.5633965871
30.5575938042
30.5518956208
30.5462960377
30.5407898318
30.5353726472
30.530041151
30.5247938347
30.5196300586
30.5145491444
30.5095509436
30.5046382149
30.499815464
30.4950876281
30.4904612135
30.4859445086
30.4815451578
30.4772717975
30.4731357133
30.4691483647
30.4653216072
30.4616694309
30.4582123481
30.4549737611
30.4519744175
30.4492446534
30.4468119933
30.4447068573
30.4429630343
30.4416134922
30.4407000253
30.4402708277
30.4403759783
30.4410809025
30.4424472686
30.4445476271
30.4474599751
30.4512636205
30.4560558539
30.4619273763
30.468993662
30.4773725821
30.4872041794
30.498636588
30.5118453909
30.527010188
30.5443413362
30.5640741966
30.5864881732
30.6119050487
30.6407220518
30.673465094
30.7108770492
30.754081392
30.8048385446
30.8659686499
30.9418055663
31.0382972777
31.1626871197
31.320988624
31.5131545646
31.725862269
31.9243464173
32.0426743771
31.9883411101
31.6383380836
30.843835253
29.445187758
27.322671962
24.4490440295
20.9048155624
16.852278081
12.3623369149
7.21406139014
1.84760522541
60.5473593157
56.8232664744
53.9222024818
51.5716850658
49.6073005863
47.9289765644
46.4708046288
45.1882692761
44.0496850392
43.03152303
42.1157931743
41.2884059231
40.5380906648
39.8556512028
39.2334419321