/*--------------------------------*- C++ -*----------------------------------*\
| =========                 |                                                 |
| \\      /  F ield         | OpenFOAM: The Open Source CFD Toolbox           |
|  \\    /   O peration     | Version:  2106                                  |
|   \\  /    A nd           | Website:  www.openfoam.com                      |
|    \\/     M anipulation  |                                                 |
\*---------------------------------------------------------------------------*/
FoamFile
{
    version     2.0;
    format      ascii;
    arch        "LSB;label=32;scalar=64";
    class       surfaceScalarField;
    location    "0.14";
    object      phi;
}
// * * * * * * * * * * * * * * * * * * * * * * * * * * * * * * * * * * * * * //

dimensions      [0 3 -1 0 0 0 0];

oriented        oriented;

internalField   nonuniform List<scalar> 
18840
(
3.37543045799e-05
1.62456954197e-05
2.25359627104e-05
1.12183418785e-05
1.63023783281e-05
6.23358449238e-06
1.28098255167e-05
3.49255288838e-06
1.08065803179e-05
2.00324512683e-06
9.60476931674e-06
1.2018109498e-06
8.85167867124e-06
7.53090591146e-07
8.36503078638e-06
4.86647863636e-07
8.04518618847e-06
3.19844583667e-07
7.83374203257e-06
2.11444144659e-07
7.69428214262e-06
1.39459930412e-07
7.60308061468e-06
9.12016353756e-08
7.54426589875e-06
5.88147976451e-08
7.50707781912e-06
3.71881094719e-08
7.48419019636e-06
2.28876760001e-08
7.47062515857e-06
1.35650424966e-08
7.46302332401e-06
7.60174210201e-09
7.45914158058e-06
3.88161865949e-09
7.45750329015e-06
1.63823151216e-09
7.45715210728e-06
3.51190264818e-10
7.45749180438e-06
-3.3965953285e-10
7.45814571299e-06
-6.53885576545e-10
7.45890099268e-06
-7.55309010218e-10
7.4596383926e-06
-7.37456156336e-10
7.46029900476e-06
-6.606262433e-10
7.46086000233e-06
-5.60986838947e-10
7.4613189758e-06
-4.58974730159e-10
7.46168419224e-06
-3.6517981372e-10
7.46196847749e-06
-2.84219322891e-10
7.46218572371e-06
-2.17197641382e-10
7.46234918047e-06
-1.63392495444e-10
7.46247048527e-06
-1.21246412609e-10
7.46255934246e-06
-8.88465475998e-11
7.46262373752e-06
-6.43506147132e-11
7.46266993608e-06
-4.61406879205e-11
7.46270263558e-06
-3.27138064667e-11
7.46272552617e-06
-2.28720504023e-11
7.46274139609e-06
-1.5811959625e-11
7.46275216014e-06
-1.08145732956e-11
7.4627593297e-06
-7.25113400795e-12
7.46276410409e-06
-4.77122516696e-12
7.46276722239e-06
-3.1233195352e-12
7.46276929514e-06
-2.08598395149e-12
7.46277053102e-06
-1.19962390355e-12
7.46277123335e-06
-6.89446514157e-13
7.46277162891e-06
-3.66149766594e-13
7.46277193716e-06
-2.09173545253e-13
7.46277212818e-06
-1.57082830384e-13
7.46277222221e-06
-8.51674708277e-14
7.46277240447e-06
-4.71897664111e-14
7.46277263281e-06
-1.24623803468e-13
7.46277275923e-06
-1.83840025744e-13
7.46277288745e-06
-1.83446894461e-13
7.46277308034e-06
-2.35465912117e-13
7.46277326681e-06
-3.16041911287e-13
7.46277351885e-06
-3.775230565e-13
7.4627738678e-06
-4.42439173233e-13
7.46277422209e-06
-4.6882617592e-13
7.46277463085e-06
-4.77920989923e-13
7.46277510599e-06
-5.63428464479e-13
7.46277552216e-06
-6.44120420074e-13
7.46277595039e-06
-6.31922388102e-13
7.46277652261e-06
-6.54860827764e-13
7.46277715348e-06
-7.47733310579e-13
7.46277783205e-06
-8.19929474856e-13
7.4627786386e-06
-8.70876091795e-13
7.46277948161e-06
-8.71526765444e-13
7.46278031539e-06
-7.94989071056e-13
7.46278122343e-06
-7.77312248491e-13
7.462782141e-06
-8.6971732951e-13
7.4627830265e-06
-9.47291097556e-13
7.46278401076e-06
-9.94032965097e-13
7.46278509675e-06
-1.06872293735e-12
7.46278620651e-06
-1.09873668242e-12
7.46278739646e-06
-1.07081909542e-12
7.46278864413e-06
-1.06998797922e-12
7.46278983404e-06
-1.10486222398e-12
7.46279102529e-06
-1.18727691426e-12
7.46279229153e-06
-1.33247304563e-12
7.46279357442e-06
-1.40561241399e-12
7.46279492457e-06
-1.35385147925e-12
7.46279638533e-06
-1.3531560687e-12
7.46279780784e-06
-1.44491360235e-12
7.46279922178e-06
-1.51438604265e-12
7.46280082908e-06
-1.57953694773e-12
7.46280255393e-06
-1.66377796991e-12
7.46280424712e-06
-1.70229328061e-12
7.46280599233e-06
-1.74375780282e-12
7.46280783955e-06
-1.82233328423e-12
7.46280975822e-06
-1.85731140129e-12
7.46281178774e-06
-1.90553366147e-12
7.46281385085e-06
-2.03537494055e-12
7.46281587367e-06
-2.11107791552e-12
7.4628180322e-06
-2.14201107798e-12
7.4628203618e-06
-2.28587850166e-12
7.46282273991e-06
-2.44850238794e-12
7.4628253081e-06
-2.50802230427e-12
7.46282812371e-06
-2.54287157015e-12
7.46283099725e-06
-2.62093196056e-12
7.46283400079e-06
-2.84791102902e-12
7.46283727517e-06
-3.24675433488e-12
7.46284077807e-06
-3.58973686043e-12
7.46284468613e-06
-3.83419022397e-12
7.46284921799e-06
-4.29916998712e-12
7.4628542456e-06
-4.99190151311e-12
7.46285989798e-06
-5.71124552234e-12
7.46286656563e-06
-6.61594434414e-12
7.46287432962e-06
-7.83300096738e-12
7.46288338879e-06
-9.25776413535e-12
7.46289422087e-06
-1.09570718701e-11
7.46290717997e-06
-1.30385960244e-11
7.46292280667e-06
-1.5594776004e-11
7.46294190631e-06
-1.89185239261e-11
7.46296508531e-06
-2.32011547726e-11
7.46299323526e-06
-2.83774286213e-11
7.46302782286e-06
-3.47229538749e-11
7.46307022325e-06
-4.26125977301e-11
7.46312226103e-06
-5.22782551149e-11
7.46318658772e-06
-6.42775497037e-11
7.46326594566e-06
-7.92547052808e-11
7.46336362033e-06
-9.77007108752e-11
7.46348429099e-06
-1.206063454e-10
7.46363390887e-06
-1.49630213402e-10
7.46382138322e-06
-1.87744104204e-10
7.4640530227e-06
-2.3173582091e-10
7.46433721306e-06
-2.84025010781e-10
7.46468826311e-06
-3.50970731363e-10
7.46512285348e-06
-4.3462966337e-10
7.46566121848e-06
-5.38433961419e-10
7.46632786683e-06
-6.66725024965e-10
7.46715360061e-06
-8.25535330406e-10
7.46817663366e-06
-1.02266990223e-09
7.46944373497e-06
-1.26700266293e-09
7.47101345898e-06
-1.56968092828e-09
7.47295862886e-06
-1.94516545783e-09
7.47536917983e-06
-2.41080326593e-09
7.47835737058e-06
-2.98822078719e-09
7.48206289874e-06
-3.70518629352e-09
7.48665907612e-06
-4.59609764527e-09
7.49236234069e-06
-5.70349602353e-09
7.49944372445e-06
-7.08140134259e-09
7.50824198902e-06
-8.79822724572e-09
7.51918211431e-06
-1.09403057632e-08
7.53280009946e-06
-1.36180242547e-08
7.5497735652e-06
-1.69732978925e-08
7.57096408533e-06
-2.11901326773e-08
7.59747430338e-06
-2.65096651107e-08
7.63072497511e-06
-3.3250652639e-08
7.67256680018e-06
-4.18420680477e-08
7.72544032846e-06
-5.28735595482e-08
7.7926171744e-06
-6.71769386443e-08
7.87859676797e-06
-8.59796690236e-08
7.98983172021e-06
-1.11235206794e-07
8.13629561349e-06
-1.4646408184e-07
8.33548480872e-06
-1.99189232549e-07
8.62374035781e-06
-2.88255907041e-07
9.08992744063e-06
-4.66186966919e-07
9.98289000064e-06
-8.92962579043e-07
1.20719896441e-05
-2.08910037869e-06
-5.68477422805e-06
1.77567626396e-05
5.01388818933e-05
1.61068137265e-05
4.41591296108e-05
1.7198094271e-05
3.77598740746e-05
1.26328400467e-05
3.26495148387e-05
8.60291216385e-06
2.89465823486e-05
5.7061775208e-06
2.63676032582e-05
3.78078990822e-06
2.45938852034e-05
2.52680856228e-06
2.33783981704e-05
1.70213488399e-06
2.25473236224e-05
1.150919186e-06
2.19811566377e-05
7.77611212714e-07
2.15978043485e-05
5.22812310537e-07
2.13405416518e-05
3.48464476911e-07
2.11699446723e-05
2.29411914186e-07
2.10585376587e-05
1.485951085e-07
2.0987187643e-05
9.42376057948e-08
2.09426256772e-05
5.8126928678e-08
2.09157133766e-05
3.4513983573e-08
2.09002166176e-05
1.93783148429e-08
2.08919331501e-05
9.92164194041e-09
2.08880730926e-05
4.21118496688e-09
2.08868096578e-05
9.23751765578e-10
2.08869820688e-05
-8.26259879307e-10
2.08878689787e-05
-1.64218854111e-09
2.08890371716e-05
-1.90568173166e-09
2.08902412866e-05
-1.86476272961e-09
2.08913534232e-05
-1.67310375377e-09
2.08923170914e-05
-1.42264682781e-09
2.08931173868e-05
-1.16542704819e-09
2.08937618111e-05
-9.28477226885e-10
2.08942683855e-05
-7.23608124151e-10
2.08946589145e-05
-5.53809372569e-10
2.08949551201e-05
-4.17379811714e-10
2.08951765387e-05
-3.10317475032e-10
2.08953399746e-05
-2.27832328175e-10
2.08954592972e-05
-1.6533284521e-10
2.08955453448e-05
-1.18661191895e-10
2.08956066304e-05
-8.41755818521e-11
2.08956498391e-05
-5.89976431936e-11
2.08956798522e-05
-4.08606799909e-11
2.08957003077e-05
-2.78652092138e-11
2.08957140826e-05
-1.86062061928e-11
2.08957231363e-05
-1.2122704707e-11
2.08957287449e-05
-7.65043477504e-12
2.08957322676e-05
-4.63125274063e-12
2.08957342999e-05
-2.65735324781e-12
2.08957352435e-05
-1.30653343855e-12
2.0895735665e-05
-4.73302010394e-13
2.08957359113e-05
-1.84029257137e-13
2.08957359048e-05
-6.11253426949e-14
2.08957358233e-05
3.33625781826e-14
2.08957358018e-05
2.79786230066e-15
2.08957357194e-05
-1.46651352077e-13
2.08957356104e-05
-2.7682103407e-13
2.08957355868e-05
-4.00750572952e-13
2.08957355856e-05
-5.40260037814e-13
2.08957356625e-05
-6.54975261375e-13
2.08957358958e-05
-7.85486098564e-13
2.0895736127e-05
-9.15501372696e-13
2.08957363413e-05
-9.88462905351e-13
2.08957366644e-05
-1.07427901055e-12
2.08957369948e-05
-1.21739766799e-12
2.08957372764e-05
-1.29488325578e-12
2.08957376633e-05
-1.2951230819e-12
2.08957381326e-05
-1.3250288612e-12
2.08957386107e-05
-1.37097955153e-12
2.08957392169e-05
-1.41773241333e-12
2.08957399134e-05
-1.47404026084e-12
2.08957405585e-05
-1.48405895194e-12
2.08957412282e-05
-1.48167267032e-12
2.08957419403e-05
-1.54229876669e-12
2.08957426147e-05
-1.61031552338e-12
2.08957433531e-05
-1.64003886432e-12
2.08957442094e-05
-1.71977147762e-12
2.08957450766e-05
-1.82865140308e-12
2.08957460098e-05
-1.88241920709e-12
2.08957470539e-05
-1.95408035028e-12
2.08957480168e-05
-2.09457989436e-12
2.08957488933e-05
-2.23292507539e-12
2.08957499036e-05
-2.35485305289e-12
2.08957510087e-05
-2.45362271639e-12
2.08957520962e-05
-2.48474397654e-12
2.08957532552e-05
-2.53142954753e-12
2.08957544524e-05
-2.66199295742e-12
2.08957556387e-05
-2.76594267843e-12
2.08957569868e-05
-2.83502357002e-12
2.08957584865e-05
-2.9872895114e-12
2.08957599612e-05
-3.18346120804e-12
2.08957615081e-05
-3.33552277914e-12
2.08957632383e-05
-3.47482908008e-12
2.08957650543e-05
-3.61176283345e-12
2.08957669856e-05
-3.76655156119e-12
2.08957690665e-05
-4.01151805186e-12
2.08957711817e-05
-4.26914055437e-12
2.0895773458e-05
-4.463452278e-12
2.08957760601e-05
-4.72774770842e-12
2.08957788954e-05
-5.08722267281e-12
2.08957820705e-05
-5.43224200482e-12
2.08957857427e-05
-5.8518148242e-12
2.08957897694e-05
-6.46362296498e-12
2.08957942314e-05
-7.22335108348e-12
2.08957994875e-05
-8.21934370094e-12
2.08958055343e-05
-9.48632109582e-12
2.08958124848e-05
-1.09137267053e-11
2.08958208687e-05
-1.26598992861e-11
2.08958308629e-05
-1.49302605152e-11
2.08958426166e-05
-1.76388221389e-11
2.08958567927e-05
-2.08538310566e-11
2.08958738947e-05
-2.48487957807e-11
2.0895894268e-05
-2.96649978204e-11
2.08959183112e-05
-3.5093550813e-11
2.08959487303e-05
-4.36468696487e-11
2.08959863061e-05
-5.35369117656e-11
2.08960327381e-05
-6.55312366181e-11
2.0896090071e-05
-8.05175828537e-11
2.08961606564e-05
-9.9061951819e-11
2.08962478547e-05
-1.21957884229e-10
2.08963555262e-05
-1.5039980232e-10
2.08964884011e-05
-1.85520802284e-10
2.08966529242e-05
-2.28873139445e-10
2.08968565844e-05
-2.82707764747e-10
2.08971081033e-05
-3.49364020197e-10
2.08974189564e-05
-4.31680036268e-10
2.08978031217e-05
-5.33706670415e-10
2.08982757339e-05
-6.60363738785e-10
2.08988617744e-05
-8.17758024745e-10
2.08995913746e-05
-1.01344432848e-09
2.09004964806e-05
-1.25628828309e-09
2.09016185379e-05
-1.55696573904e-09
2.09030095802e-05
-1.92921656732e-09
2.09047332317e-05
-2.39024220215e-09
2.0906868747e-05
-2.96119955067e-09
2.0909515024e-05
-3.66861454384e-09
2.09127936827e-05
-4.54534049334e-09
2.09168559796e-05
-5.63192622471e-09
2.09218903551e-05
-6.97913470077e-09
2.09281298801e-05
-8.64999924581e-09
2.09358641678e-05
-1.07226933136e-08
2.09454542077e-05
-1.32952911955e-08
2.09573490345e-05
-1.64907517692e-08
2.09721081726e-05
-2.04627114953e-08
2.09904313027e-05
-2.54044211267e-08
2.10131939469e-05
-3.15604323151e-08
2.10414943601e-05
-3.92406268569e-08
2.10767163149e-05
-4.88401091897e-08
2.11206092296e-05
-6.0866826954e-08
2.11753969334e-05
-7.59789033648e-08
2.12439262089e-05
-9.50391721505e-08
2.13298699784e-05
-1.19194390144e-07
2.14380220497e-05
-1.49994556288e-07
2.15747332179e-05
-1.89584772578e-07
2.17485864313e-05
-2.41029888923e-07
2.19715150352e-05
-3.08908239053e-07
2.22607766415e-05
-4.00496831244e-07
2.26426742307e-05
-5.28361534742e-07
2.31599533472e-05
-7.16468457658e-07
2.38868702176e-05
-1.01517272933e-06
2.49580390932e-05
-1.53735521873e-06
2.66093853116e-05
-2.54430891757e-06
2.91698401465e-05
-4.64955564805e-06
-9.1200186035e-06
3.26050849809e-05
5.35844267713e-05
1.2522387054e-05
5.29166010979e-05
1.78659200807e-05
4.96393017707e-05
1.59101393517e-05
4.58382173583e-05
1.2403996574e-05
4.24428748472e-05
9.101519986e-06
3.97331594392e-05
6.49050523823e-06
3.76912453475e-05
4.56872257723e-06
3.62011669051e-05
3.19221327923e-06
3.51355934527e-05
2.21649266039e-06
3.4384844428e-05
1.52836032819e-06
3.38626590305e-05
1.0449977971e-06
3.3504007037e-05
7.07116571548e-07
3.3260963709e-05
4.72455394347e-07
3.30987227233e-05
3.10836164947e-07
3.29922942465e-05
2.00666008539e-07
3.29239252826e-05
1.26495763654e-07
3.28811385145e-05
7.7300673915e-08
3.28552641527e-05
4.52526343957e-08
3.2840353166e-05
2.48326369138e-08
3.28323801652e-05
1.21842047555e-08
3.28286627056e-05
4.64117916054e-09
3.28274485918e-05
3.87805009e-10
3.28276195284e-05
-1.81313161657e-09
3.28284784951e-05
-2.76466183451e-09
3.28296087955e-05
-2.99508417558e-09
3.28307737869e-05
-2.8380684827e-09
3.28318500727e-05
-2.49891381982e-09
3.28327832116e-05
-2.09855034231e-09
3.28335587844e-05
-1.70395444216e-09
3.28341838236e-05
-1.34853906183e-09
3.28346756571e-05
-1.04556921544e-09
3.28350553363e-05
-7.96944458507e-10
3.28353436657e-05
-5.98580034886e-10
3.2835559492e-05
-4.43675265687e-10
3.28357190868e-05
-3.24850043775e-10
3.28358356481e-05
-2.35130359499e-10
3.28359196513e-05
-1.68235256929e-10
3.28359795047e-05
-1.18903732608e-10
3.28360216085e-05
-8.29588480055e-11
3.28360507001e-05
-5.70192932425e-11
3.28360705065e-05
-3.84571465554e-11
3.28360837786e-05
-2.5365991339e-11
3.28360923967e-05
-1.62608919651e-11
3.28360978489e-05
-1.00111292807e-11
3.28361011915e-05
-5.87378003852e-12
3.28361030903e-05
-3.19342447306e-12
3.28361041108e-05
-1.44899033189e-12
3.28361044649e-05
-3.47277203478e-13
3.28361044779e-05
8.5653709518e-15
3.28361042815e-05
1.7360392795e-13
3.28361041162e-05
1.76543954036e-13
3.28361039186e-05
2.76075168558e-14
3.28361036563e-05
-1.50795650906e-13
3.28361034649e-05
-3.45301283499e-13
3.28361033189e-05
-5.81016606852e-13
3.28361032224e-05
-7.82620644193e-13
3.28361032849e-05
-9.64793655752e-13
3.28361034008e-05
-1.17976181007e-12
3.28361034671e-05
-1.34200971484e-12
3.2836103628e-05
-1.43669270323e-12
3.28361038622e-05
-1.57117091217e-12
3.2836104031e-05
-1.70062668185e-12
3.28361042508e-05
-1.75728948652e-12
3.28361045837e-05
-1.79770608756e-12
3.28361049255e-05
-1.81459752264e-12
3.28361053314e-05
-1.78237059492e-12
3.28361058112e-05
-1.80040892466e-12
3.283610621e-05
-1.86537388301e-12
3.28361066003e-05
-1.91672937109e-12
3.28361070799e-05
-1.9763711387e-12
3.28361075454e-05
-2.06102964939e-12
3.28361080131e-05
-2.09955497642e-12
3.28361086017e-05
-2.15435257109e-12
3.28361092233e-05
-2.28669235322e-12
3.28361098321e-05
-2.42635591413e-12
3.28361105163e-05
-2.58331116978e-12
3.28361111908e-05
-2.79435655032e-12
3.28361118068e-05
-2.95114574214e-12
3.28361125499e-05
-3.03280189013e-12
3.28361133929e-05
-3.15104934858e-12
3.28361141505e-05
-3.29324604299e-12
3.28361149302e-05
-3.41650593468e-12
3.28361158183e-05
-3.57492227722e-12
3.28361167056e-05
-3.73089025852e-12
3.28361176745e-05
-3.85026672209e-12
3.28361188018e-05
-4.03601886812e-12
3.28361199459e-05
-4.28304369274e-12
3.2836121162e-05
-4.49488277666e-12
3.28361225934e-05
-4.73217511659e-12
3.2836124109e-05
-5.0569201083e-12
3.28361256955e-05
-5.39812925097e-12
3.28361275239e-05
-5.76732267007e-12
3.28361295043e-05
-6.18996416325e-12
3.28361316216e-05
-6.59478634561e-12
3.28361341207e-05
-7.05589564828e-12
3.28361370042e-05
-7.68061311615e-12
3.28361402281e-05
-8.4162462893e-12
3.28361439229e-05
-9.32014477222e-12
3.28361480219e-05
-1.04811745765e-11
3.28361528994e-05
-1.21377200717e-11
3.28361589125e-05
-1.40378172398e-11
3.28361661629e-05
-1.6514050076e-11
3.28361746919e-05
-1.95581029738e-11
3.28361851252e-05
-2.31577467409e-11
3.28361979822e-05
-2.7648031255e-11
3.28362135078e-05
-3.3232654501e-11
3.28362324924e-05
-4.00180698957e-11
3.28362559787e-05
-4.83934149152e-11
3.28362850184e-05
-5.87882397945e-11
3.28363215735e-05
-7.16680199036e-11
3.28363657303e-05
-8.77341714429e-11
3.28364196011e-05
-1.07626926858e-10
3.28364859007e-05
-1.32164752203e-10
3.28365678779e-05
-1.62604624138e-10
3.28366689318e-05
-2.00285237927e-10
3.28367936998e-05
-2.46825071746e-10
3.2836948005e-05
-3.04568136907e-10
3.28371385687e-05
-3.76136004509e-10
3.28373741806e-05
-4.64614953956e-10
3.28376658322e-05
-5.74211525545e-10
3.28380264239e-05
-7.09994773258e-10
3.2838472349e-05
-8.7796335526e-10
3.28390245896e-05
-1.08598885525e-09
3.28397083495e-05
-1.34396124196e-09
3.28405543412e-05
-1.6637353001e-09
3.28416013386e-05
-2.06041295693e-09
3.28428974137e-05
-2.55244511904e-09
3.28445022389e-05
-3.16187150665e-09
3.28464900447e-05
-3.91667272821e-09
3.28489520109e-05
-4.85193749892e-09
3.28520011779e-05
-6.01051686214e-09
3.28557784709e-05
-7.44579446238e-09
3.28604576715e-05
-9.2244501935e-09
3.28662543037e-05
-1.14288866628e-08
3.28734368306e-05
-1.41616754029e-08
3.28823377884e-05
-1.7550674558e-08
3.28933697707e-05
-2.17547519223e-08
3.29070465611e-05
-2.69722234331e-08
3.29240074897e-05
-3.34515009803e-08
3.29450483831e-05
-4.15035891443e-08
3.29711627775e-05
-5.1518994282e-08
3.30035931139e-05
-6.39906052294e-08
3.30438957484e-05
-7.95429072958e-08
3.30940273398e-05
-9.89712389204e-08
3.31564564872e-05
-1.23295513078e-07
3.32343119127e-05
-1.5383437406e-07
3.33315843147e-05
-1.92311577002e-07
3.34534009391e-05
-2.4101091787e-07
3.3606415123e-05
-3.03008893083e-07
3.37993729072e-05
-3.82542487067e-07
3.40439622221e-05
-4.85619351257e-07
3.43561425207e-05
-6.21088750232e-07
3.47582821971e-05
-8.02636272493e-07
3.52826363275e-05
-1.05271548019e-06
3.59767919382e-05
-1.41062394429e-06
3.69109900113e-05
-1.94937088725e-06
3.81831027665e-05
-2.80946779993e-06
3.98986737836e-05
-4.25987949706e-06
4.20405293619e-05
-6.79141135822e-06
-1.11277893259e-05
4.40482998403e-05
5.35705201147e-05
8.951866993e-06
5.55863059206e-05
1.58501344475e-05
5.52410591389e-05
1.6255386121e-05
5.35976161002e-05
1.40474395762e-05
5.15429061519e-05
1.11562298979e-05
4.95819406071e-05
8.45147073532e-06
4.79262513051e-05
6.22441183631e-06
4.66200398726e-05
4.49842466451e-06
4.5632233944e-05
3.20429859301e-06
4.49066878864e-05
2.25390647565e-06
4.43854427722e-05
1.56624301829e-06
4.40178338782e-05
1.07472557222e-06
4.37629141171e-05
7.27375269323e-07
4.35890477394e-05
4.84702621136e-07
4.34725061075e-05
3.17207606737e-07
4.33958753386e-05
2.03126406938e-07
4.33466004896e-05
1.26575424387e-07
4.33157706309e-05
7.60824271396e-08
4.32971546947e-05
4.3448563831e-08
4.32864600026e-05
2.28789450045e-08
4.32807749917e-05
1.032619004e-08
4.32781620827e-05
3.00065881653e-09
4.32773466633e-05
-9.97716803548e-10
4.32775238972e-05
-2.94190287676e-09
4.32781892632e-05
-3.66051053025e-09
4.32790423445e-05
-3.69115356467e-09
4.3279913235e-05
-3.36976072806e-09
4.3280713989e-05
-2.89926940746e-09
4.32814064585e-05
-2.39633082452e-09
4.32819811091e-05
-1.92309092911e-09
4.32824437923e-05
-1.50823177496e-09
4.32828078113e-05
-1.1608845011e-09
4.32830888379e-05
-8.7947160425e-10
4.32833022405e-05
-6.57035116173e-10
4.328346207e-05
-4.84629052687e-10
4.32835802567e-05
-3.53231839733e-10
4.32836664498e-05
-2.54471764592e-10
4.32837285403e-05
-1.81083202535e-10
4.32837727543e-05
-1.27175004223e-10
4.32838037244e-05
-8.80195366036e-11
4.32838250777e-05
-5.9855730758e-11
4.32838396042e-05
-3.98476250639e-11
4.3283849193e-05
-2.58215214802e-11
4.32838553173e-05
-1.61049552595e-11
4.32838591313e-05
-9.55329858468e-12
4.3283861274e-05
-5.27258205408e-12
4.32838623216e-05
-2.52247592358e-12
4.3283862993e-05
-9.18054638723e-13
4.32838632986e-05
-1.85479785659e-13
4.32838631919e-05
2.37521758967e-13
4.3283862941e-05
3.95525138448e-13
4.32838626951e-05
2.53175263701e-13
4.32838623624e-05
4.13676865068e-14
4.32838620813e-05
-2.23053800384e-13
4.3283861892e-05
-5.5076532829e-13
4.32838616674e-05
-7.86944805987e-13
4.32838615457e-05
-9.951031506e-13
4.32838614937e-05
-1.20309998352e-12
4.32838613699e-05
-1.41956969015e-12
4.32838612661e-05
-1.56570100077e-12
4.32838612668e-05
-1.69754081831e-12
4.32838612305e-05
-1.82281312637e-12
4.32838611712e-05
-1.88132796139e-12
4.32838611933e-05
-1.90260084489e-12
4.32838612171e-05
-1.90850545412e-12
4.32838612554e-05
-1.87134963992e-12
4.32838614096e-05
-1.87118626942e-12
4.32838615691e-05
-1.94937783364e-12
4.3283861649e-05
-2.00872881386e-12
4.32838617819e-05
-2.05400982388e-12
4.32838619192e-05
-2.13812200092e-12
4.32838620027e-05
-2.2000553819e-12
4.32838621663e-05
-2.25838086788e-12
4.32838623902e-05
-2.40052090357e-12
4.32838625629e-05
-2.59614313232e-12
4.32838627692e-05
-2.79073367324e-12
4.32838630169e-05
-2.98125678238e-12
4.32838632067e-05
-3.13064573772e-12
4.32838634517e-05
-3.24121931594e-12
4.32838637944e-05
-3.40880326196e-12
4.32838640571e-05
-3.62891062622e-12
4.32838642971e-05
-3.80799263471e-12
4.32838646614e-05
-3.95635568855e-12
4.32838650445e-05
-4.13310312656e-12
4.32838654496e-05
-4.34375752297e-12
4.32838660084e-05
-4.58907911425e-12
4.32838666347e-05
-4.83903025806e-12
4.32838673252e-05
-5.10501751057e-12
4.32838682235e-05
-5.47689606125e-12
4.32838692284e-05
-5.97656351716e-12
4.32838702831e-05
-6.4777562373e-12
4.32838716085e-05
-6.96367570424e-12
4.32838731861e-05
-7.55815297395e-12
4.32838749082e-05
-8.24708143966e-12
4.32838770101e-05
-9.01473198174e-12
4.3283879607e-05
-1.00033262772e-11
4.32838826616e-05
-1.1298703916e-11
4.32838864402e-05
-1.29553096525e-11
4.32838911809e-05
-1.50754109982e-11
4.32838965984e-05
-1.76013560183e-11
4.32839031135e-05
-2.06154460079e-11
4.32839111698e-05
-2.44662087414e-11
4.32839208469e-05
-2.92611165936e-11
4.3283932615e-05
-3.50040327793e-11
4.3283947208e-05
-4.21040100291e-11
4.3283965031e-05
-5.09937180678e-11
4.32839868204e-05
-6.1933859994e-11
4.32840137189e-05
-7.54214598385e-11
4.3284046788e-05
-9.20815678628e-11
4.32840875048e-05
-1.12588330797e-10
4.32841379862e-05
-1.38168900788e-10
4.32842002565e-05
-1.6997634027e-10
4.32842771067e-05
-2.09240884067e-10
4.32843723461e-05
-2.57798062244e-10
4.32844899856e-05
-3.17937551303e-10
4.32846352418e-05
-3.92276969267e-10
4.32848150507e-05
-4.84345803e-10
4.32850374157e-05
-5.98487009312e-10
4.32853123584e-05
-7.39708530067e-10
4.32856527642e-05
-9.14539354986e-10
4.3286073977e-05
-1.13115960666e-09
4.3286594984e-05
-1.39926808064e-09
4.32872401485e-05
-1.73116528331e-09
4.3288038984e-05
-2.14254559773e-09
4.32890275961e-05
-2.65245792704e-09
4.32902514543e-05
-3.284447603e-09
4.32917667429e-05
-4.06763828352e-09
4.3293642615e-05
-5.03776264863e-09
4.32959653645e-05
-6.23944493747e-09
4.32988417978e-05
-7.72821319827e-09
4.33024037138e-05
-9.5724261148e-09
4.33068151225e-05
-1.18570976075e-08
4.33122789441e-05
-1.46881476298e-08
4.33190463977e-05
-1.81966256819e-08
4.33274300047e-05
-2.25454230285e-08
4.33378172494e-05
-2.79376229253e-08
4.33506884335e-05
-3.46258068414e-08
4.33666407919e-05
-4.29246760121e-08
4.33864172119e-05
-5.3227724696e-08
4.34109414211e-05
-6.60275428906e-08
4.3441364313e-05
-8.19419290653e-08
4.34791224143e-05
-1.01748810063e-07
4.35260109414e-05
-1.26431751677e-07
4.35842796519e-05
-1.57240158314e-07
4.36567558972e-05
-1.95771360222e-07
4.37470046728e-05
-2.44082845513e-07
4.38595433522e-05
-3.04850102429e-07
4.40001274047e-05
-3.81594774625e-07
4.41761409586e-05
-4.79022280529e-07
4.43971396473e-05
-6.03541178444e-07
4.46756139653e-05
-7.64093710742e-07
4.50280679641e-05
-9.73542189316e-07
4.54765099978e-05
-1.25107823146e-06
4.60503426992e-05
-1.62654867549e-06
4.67880754073e-05
-2.14835642015e-06
4.77364214673e-05
-2.89771692399e-06
4.8939308078e-05
-4.01235420644e-06
5.03972715088e-05
-5.71784313174e-06
5.19528483307e-05
-8.34698856536e-06
-1.22476348811e-05
5.30726937956e-05
5.27606085509e-05
6.19125848281e-06
5.57402408527e-05
1.28705023008e-05
5.7312412246e-05
1.46832147689e-05
5.76111981882e-05
1.37486536097e-05
5.71338688339e-05
1.16335592118e-05
5.63199843273e-05
9.26535520337e-06
5.54496452029e-05
7.09475093111e-06
5.46637031229e-05
5.28436670511e-06
5.40144132858e-05
3.85358841951e-06
5.35068428863e-05
2.7614769702e-06
5.31248786785e-05
1.94820735388e-06
5.28455251004e-05
1.35407928104e-06
5.26458895316e-05
9.27010918276e-07
5.25060777699e-05
6.2451442426e-07
5.24100013467e-05
4.13284003781e-07
5.23452214932e-05
2.67906143808e-07
5.2302418898e-05
1.69377937927e-07
5.22747771863e-05
1.03724104092e-07
5.2257409064e-05
6.08166560102e-08
5.22468720651e-05
3.34159507346e-08
5.22407819218e-05
1.64163430901e-08
5.22375161506e-05
6.2663940319e-09
5.22359829342e-05
5.35504325922e-10
5.22354769963e-05
-2.43595161897e-09
5.22355390814e-05
-3.72267079656e-09
5.22358849037e-05
-4.03701823147e-09
5.22363438225e-05
-3.82863163882e-09
5.22368186903e-05
-3.37408908215e-09
5.22372587452e-05
-2.83630594082e-09
5.22376413513e-05
-2.30559118912e-09
5.22379601288e-05
-1.82698698153e-09
5.22382177455e-05
-1.41845515158e-09
5.22384211235e-05
-1.08270290167e-09
5.22385785178e-05
-8.14357486561e-10
5.22386983461e-05
-6.04446961509e-10
5.22387883353e-05
-4.43153113118e-10
5.22388549386e-05
-3.21058185884e-10
5.22389035593e-05
-2.29758563807e-10
5.22389386584e-05
-1.62288889468e-10
5.22389636112e-05
-1.13012967909e-10
5.22389810642e-05
-7.73736692196e-11
5.22389931578e-05
-5.18909607505e-11
5.22390013356e-05
-3.39364603936e-11
5.22390066761e-05
-2.14378889408e-11
5.2239010149e-05
-1.29258541136e-11
5.22390123329e-05
-7.35746574323e-12
5.22390135669e-05
-3.79543616802e-12
5.22390142184e-05
-1.55442784821e-12
5.22390143168e-05
-1.8556226742e-13
5.22390142504e-05
3.12272275494e-13
5.22390141261e-05
4.94294168083e-13
5.22390139379e-05
4.18518847263e-13
5.22390136137e-05
1.9984457359e-13
5.22390132181e-05
-4.87227548974e-14
5.22390128754e-05
-3.63670448922e-13
5.22390126071e-05
-7.16064488398e-13
5.22390123812e-05
-9.45082501593e-13
5.22390122734e-05
-1.15657918346e-12
5.22390121275e-05
-1.40843708324e-12
5.22390119348e-05
-1.60790808938e-12
5.22390118324e-05
-1.74401402937e-12
5.22390117413e-05
-1.84872300717e-12
5.22390116e-05
-1.87617974015e-12
5.2239011521e-05
-1.86174871875e-12
5.22390114687e-05
-1.8608003032e-12
5.2239011379e-05
-1.82911638583e-12
5.22390113458e-05
-1.79827041249e-12
5.22390113196e-05
-1.84531969054e-12
5.22390112022e-05
-1.9038725198e-12
5.22390111172e-05
-1.92988886014e-12
5.22390110815e-05
-1.99318444738e-12
5.22390109577e-05
-2.08715926044e-12
5.2239010838e-05
-2.18555062522e-12
5.22390108232e-05
-2.34943212237e-12
5.22390107777e-05
-2.54711387421e-12
5.2239010695e-05
-2.69132295418e-12
5.22390106832e-05
-2.83658427084e-12
5.22390106518e-05
-3.0201285571e-12
5.2239010592e-05
-3.20562997703e-12
5.22390106292e-05
-3.43479677472e-12
5.22390106417e-05
-3.70306130868e-12
5.22390105634e-05
-3.88180123979e-12
5.22390105983e-05
-4.00448918063e-12
5.22390107116e-05
-4.20459865963e-12
5.22390107456e-05
-4.44883090597e-12
5.22390108452e-05
-4.68461296905e-12
5.22390110959e-05
-4.97506343494e-12
5.22390113813e-05
-5.34986686474e-12
5.22390117702e-05
-5.82338021988e-12
5.22390123048e-05
-6.40850534946e-12
5.2239012913e-05
-6.99836666867e-12
5.22390137497e-05
-7.5924197388e-12
5.22390148663e-05
-8.37376487122e-12
5.22390161201e-05
-9.34711832237e-12
5.22390176809e-05
-1.04492748338e-11
5.2239019727e-05
-1.18452528229e-11
5.22390221836e-05
-1.36608903549e-11
5.22390252279e-05
-1.59156306411e-11
5.22390291235e-05
-1.87699081957e-11
5.22390338713e-05
-2.23537286604e-11
5.22390396976e-05
-2.66401351871e-11
5.22390471568e-05
-3.18980714407e-11
5.22390564386e-05
-3.84755967208e-11
5.22390678313e-05
-4.65136053937e-11
5.22390821019e-05
-5.63814214351e-11
5.22390998505e-05
-6.86923049582e-11
5.22391217556e-05
-8.39559676854e-11
5.22391490013e-05
-1.02798556461e-10
5.22391828265e-05
-1.26025926287e-10
5.22392246314e-05
-1.54593056778e-10
5.22392764173e-05
-1.90024223044e-10
5.22393404747e-05
-2.34088858291e-10
5.22394196267e-05
-2.88566417427e-10
5.22395178209e-05
-3.55888706094e-10
5.22396393643e-05
-4.39323290696e-10
5.22397895223e-05
-5.42577677495e-10
5.22399755066e-05
-6.70396779088e-10
5.22402058421e-05
-8.28786337545e-10
5.22404907435e-05
-1.02479446426e-09
5.22408435273e-05
-1.26736798501e-09
5.22412804217e-05
-1.56790171393e-09
5.22418210708e-05
-1.94002565632e-09
5.22424905107e-05
-2.40063749572e-09
5.22433194972e-05
-2.97135936803e-09
5.22443455407e-05
-3.67863257567e-09
5.22456158295e-05
-4.5547938511e-09
5.22471887664e-05
-5.64026914653e-09
5.22491358914e-05
-6.98499168019e-09
5.22515465852e-05
-8.65054504576e-09
5.22545319145e-05
-1.07135532104e-08
5.22582284277e-05
-1.32689808119e-08
5.22628058446e-05
-1.64345921108e-08
5.22684746923e-05
-2.03568293109e-08
5.22754951475e-05
-2.52171461265e-08
5.22841903556e-05
-3.12407535343e-08
5.22949612087e-05
-3.87081700727e-08
5.23083041526e-05
-4.79684572536e-08
5.23248353233e-05
-5.9455968561e-08
5.23453202633e-05
-7.3712731632e-08
5.23707095242e-05
-9.14166395705e-08
5.24021844585e-05
-1.13416718647e-07
5.24412153796e-05
-1.40779503325e-07
5.24896334901e-05
-1.74849748775e-07
5.25497231505e-05
-2.17329921522e-07
5.26243390095e-05
-2.70387058041e-07
5.27170542932e-05
-3.36797917965e-07
5.28323535673e-05
-4.20149331756e-07
5.29758798522e-05
-5.25120917957e-07
5.31547534032e-05
-6.57895463771e-07
5.33779814874e-05
-8.26768881183e-07
5.36569708522e-05
-1.04308314543e-06
5.40061286436e-05
-1.32270009507e-06
5.44434352967e-05
-1.68838495439e-06
5.4990600755e-05