/*--------------------------------*- C++ -*----------------------------------*\
| =========                 |                                                 |
| \\      /  F ield         | OpenFOAM: The Open Source CFD Toolbox           |
|  \\    /   O peration     | Version:  2106                                  |
|   \\  /    A nd           | Website:  www.openfoam.com                      |
|    \\/     M anipulation  |                                                 |
\*---------------------------------------------------------------------------*/
FoamFile
{
    version     2.0;
    format      ascii;
    arch        "LSB;label=32;scalar=64";
    class       surfaceScalarField;
    location    "0.5";
    object      phi;
}
// * * * * * * * * * * * * * * * * * * * * * * * * * * * * * * * * * * * * * //

dimensions      [0 3 -1 0 0 0 0];

oriented        oriented;

internalField   nonuniform List<scalar> 
22100
(
3.38461204471e-05
1.61538795457e-05
2.24572098658e-05
1.13889103541e-05
1.62585526995e-05
6.19865689653e-06
1.2797775217e-05
3.46077707206e-06
1.08046405692e-05
1.99313397869e-06
9.60458665043e-06
1.20005309923e-06
8.85131801112e-06
7.53267769198e-07
8.36434844956e-06
4.86968750747e-07
8.04433004842e-06
3.20017772611e-07
7.83283499148e-06
2.11494692581e-07
7.69339177375e-06
1.39443123967e-07
7.60223491827e-06
9.11569515085e-08
7.54347210065e-06
5.8762957226e-08
7.50633495756e-06
3.71371723769e-08
7.48349497169e-06
2.28398083013e-08
7.469973427e-06
1.35211234967e-08
7.46240788764e-06
7.56486974526e-09
7.45853886026e-06
3.86816666254e-09
7.4568190113e-06
1.71906858306e-09
7.45641168934e-06
4.06637415243e-10
7.45676103735e-06
-3.49769333328e-10
7.45744697477e-06
-6.86093097263e-10
7.45820527674e-06
-7.58119289649e-10
7.4589306042e-06
-7.24990918853e-10
7.45957497463e-06
-6.43913368849e-10
7.46011895291e-06
-5.43492664925e-10
7.4605610864e-06
-4.41655431434e-10
7.46090982355e-06
-3.48310954625e-10
7.46117807154e-06
-2.67921977913e-10
7.46137991689e-06
-2.01629940002e-10
7.46152882344e-06
-1.48776762315e-10
7.46163643009e-06
-1.07611493907e-10
7.46171248879e-06
-7.59791408426e-11
7.46176520472e-06
-5.25429756941e-11
7.46179822856e-06
-3.3061183541e-11
7.46181679036e-06
-1.86144389524e-11
7.46182564396e-06
-8.98493115361e-12
7.46182833602e-06
-2.78422218542e-12
7.46182686339e-06
1.47145566171e-12
7.4618223685e-06
4.69700800007e-12
7.46181579901e-06
7.01389699986e-12
7.46180763282e-06
8.65971768537e-12
7.46179834139e-06
9.91438630809e-12
7.46178796784e-06
1.09628701281e-11
7.46177649847e-06
1.20103884276e-11
7.46176384199e-06
1.32411054779e-11
7.46174980424e-06
1.46484832308e-11
7.46173377849e-06
1.63620308988e-11
7.46171561875e-06
1.85204038414e-11
7.46169476639e-06
2.11695251247e-11
7.46167060912e-06
2.44307923083e-11
7.46164253005e-06
2.84667007592e-11
7.46160975351e-06
3.33470452603e-11
7.46157134353e-06
3.89968018713e-11
7.46152641046e-06
4.54054491112e-11
7.46147413901e-06
5.26084293377e-11
7.46141401842e-06
6.0478278793e-11
7.46134607652e-06
6.84384053034e-11
7.46127095656e-06
7.56937362284e-11
7.46119074948e-06
8.05291085797e-11
7.4611124993e-06
7.86659925098e-11
7.46104751219e-06
6.49928463123e-11
7.46100420542e-06
4.42089195953e-11
7.46100154293e-06
3.41696141988e-12
7.46107549519e-06
-7.34501766342e-11
7.46128419075e-06
-2.08968806684e-10
7.46172269303e-06
-4.38570992627e-10
7.46254122204e-06
-8.18288040538e-10
7.46397514648e-06
-1.43349520911e-09
7.46637957616e-06
-2.40420154814e-09
7.47020355696e-06
-3.82364513412e-09
7.47666013661e-06
-6.45626071424e-09
7.48743821955e-06
-1.07775413163e-08
7.50562015915e-06
-1.81815408887e-08
7.53881143844e-06
-3.31911462709e-08
7.60802800831e-06
-6.92167973296e-08
7.77468021475e-06
-1.66652666463e-07
8.2295476794e-06
-4.54867925646e-07
9.69701957549e-06
-1.46747252099e-06
-5.45079926691e-06
1.51478186373e-05
5.0217594989e-05
1.59362843087e-05
4.42441117334e-05
1.73623931838e-05
3.77795013005e-05
1.26632665989e-05
3.264614322e-05
8.59413414484e-06
2.89380901809e-05
5.70118570542e-06
2.63596186963e-05
3.77852313047e-06
2.45875132193e-05
2.52537187503e-06
2.33734702711e-05
1.70101060829e-06
2.25435206135e-05
1.14996673493e-06
2.19782116329e-05
7.7680339031e-07
2.15955090573e-05
5.22145721846e-07
2.13387325366e-05
3.47933581504e-07
2.1168490974e-05
2.29004476676e-07
2.10573331112e-05
1.4829466698e-07
2.09861446785e-05
9.40274779181e-08
2.09416715182e-05
5.79931233872e-08
2.09147887239e-05
3.44462177493e-08
2.08992886925e-05
1.93668696105e-08
2.08910641538e-05
9.94252108987e-09
2.08872633578e-05
4.20677680108e-09
2.08861939902e-05
7.19308044129e-10
2.08864397098e-05
-9.31568878634e-10
2.08873112607e-05
-1.62916064415e-09
2.0888450959e-05
-1.86396682362e-09
2.08896244743e-05
-1.81667879505e-09
2.08907076041e-05
-1.62592907054e-09
2.08916452697e-05
-1.37874870276e-09
2.08924227955e-05
-1.12540614324e-09
2.08930479949e-05
-8.92774566378e-10
2.08935400211e-05
-6.93457398028e-10
2.08939238982e-05
-5.32229043279e-10
2.08942255374e-05
-4.08735861994e-10
2.08944364361e-05
-2.86684593045e-10
2.08945835226e-05
-1.99388125884e-10
2.08946837195e-05
-1.33556603655e-10
2.08947488672e-05
-8.41255783768e-11
2.08947891962e-05
-4.95927595861e-11
2.08948129998e-05
-2.65176550458e-11
2.08948252238e-05
-1.01949532589e-11
2.08948286564e-05
1.91231554011e-12
2.08948257626e-05
1.06602514506e-11
2.08948181343e-05
1.70181773706e-11
2.08948069786e-05
2.19023853006e-11
2.08947929199e-05
2.59043038251e-11
2.08947763481e-05
2.95218954786e-11
2.0894757213e-05
3.31625453508e-11
2.08947356855e-05
3.70420628404e-11
2.089471137e-05
4.12247176982e-11
2.08946842949e-05
4.60855728053e-11
2.08946542664e-05
5.18214673397e-11
2.08946210576e-05
5.84141856081e-11
2.08945845337e-05
6.58349000143e-11
2.0894544653e-05
7.40014547964e-11
2.08945017383e-05
8.25690121852e-11
2.08944567333e-05
9.09795710067e-11
2.08944114527e-05
9.83683342014e-11
2.08943693034e-05
1.03076173522e-10
2.08943364183e-05
1.0190922432e-10
2.08943225087e-05
9.05963564604e-11
2.08943423536e-05
6.13083384629e-11
2.0894424285e-05
-1.81960029565e-12
2.08946153842e-05
-1.25381351958e-10
2.08949849994e-05
-3.2482412055e-10
2.08956527367e-05
-6.63795925642e-10
2.08967236086e-05
-1.14416438185e-09
2.08983774267e-05
-1.86225690355e-09
2.09009717638e-05
-3.03284010683e-09
2.09050549951e-05
-4.90140904392e-09
2.091149679e-05
-7.87444515203e-09
2.09217206182e-05
-1.26267113055e-08
2.09382164537e-05
-2.03185360843e-08
2.09651277106e-05
-3.33668642853e-08
2.10093944166e-05
-5.5044043663e-08
2.10841863461e-05
-9.29734849767e-08
2.12154236322e-05
-1.64428761558e-07
2.1456001772e-05
-3.09795526084e-07
2.19137504243e-05
-6.24401661898e-07
2.28005268106e-05
-1.34164438919e-06
2.44440442337e-05
-3.11098990942e-06
-7.03661289098e-06
2.60298545505e-05
5.3517105458e-05
1.24191785939e-05
5.29349684654e-05
1.79445297908e-05
4.96538400088e-05
1.59443944379e-05
4.58401807668e-05
1.24077924965e-05
4.24400908592e-05
9.10127445409e-06
3.97291698424e-05
6.48944291111e-06
3.76873023287e-05
4.56723825007e-06
3.61976586351e-05
3.19065341706e-06
3.51326074047e-05
2.21501742452e-06
3.43823620489e-05
1.52704854598e-06
3.38606209841e-05
1.04388682626e-06
3.35023407274e-05
7.06213926304e-07
3.32595957142e-05
4.71749433392e-07
3.30975850881e-05
3.1030496484e-07
3.29913284268e-05
2.00283481774e-07
3.29230857055e-05
1.26234888216e-07
3.2880396767e-05
7.71340545628e-08
3.28546106473e-05
4.51518935623e-08
3.28397827424e-05
2.47695732026e-08
3.28318556443e-05
1.21333312826e-08
3.28279859413e-05
4.58893776132e-09
3.28269871474e-05
6.73670867464e-11
3.28271680132e-05
-1.80958443584e-09
3.28280165465e-05
-2.71192339498e-09
3.28291324193e-05
-2.93191274053e-09
3.28302797077e-05
-2.77259219364e-09
3.28313356404e-05
-2.43415129918e-09
3.28322459101e-05
-2.03528358905e-09
3.28329957238e-05
-1.64231385256e-09
3.2833591171e-05
-1.2887051548e-09
3.28340473145e-05
-9.8808367958e-10
3.28343822127e-05
-7.43382785548e-10
3.28346483346e-05
-5.52794203233e-10
3.28348644167e-05
-4.15442934029e-10
3.28350113689e-05
-2.80278532336e-10
3.28351102505e-05
-1.82854729223e-10
3.28351758278e-05
-1.14663408006e-10
3.28352174839e-05
-6.77797652413e-11
3.28352422424e-05
-3.44902138641e-11
3.28352541372e-05
-9.38602171144e-12
3.28352565681e-05
8.77130583603e-12
3.28352521566e-05
2.21255528166e-11
3.28352426661e-05
3.22458652931e-11
3.28352292068e-05
4.02224016923e-11
3.28352126417e-05
4.69955085837e-11
3.28351932193e-05
5.32475549355e-11
3.28351713716e-05
5.93907846581e-11
3.28351471774e-05
6.5695989174e-11
3.28351208553e-05
7.25777492481e-11
3.28350924952e-05
8.03801510931e-11
3.28350624496e-05
8.87249327404e-11
3.28350313295e-05
9.72699071488e-11
3.28350000488e-05
1.05439772879e-10
3.28349704611e-05
1.12245820536e-10
3.28349457164e-05
1.15967694063e-10
3.28349305444e-05
1.14106138279e-10
3.28349321278e-05
1.02239612366e-10
3.28349620896e-05
7.27189641743e-11
3.2835037799e-05
1.58290285581e-11
3.28351887139e-05
-8.91839369816e-11
3.28354676408e-05
-2.79457355237e-10
3.28359635726e-05
-6.19961849464e-10
3.28366856449e-05
-1.04700005724e-09
3.28377351783e-05
-1.71216378361e-09
3.28393712638e-05
-2.77953095893e-09
3.28419672443e-05
-4.45829487176e-09
3.28460281228e-05
-7.09355263389e-09
3.28523685194e-05
-1.12415817394e-08
3.286230187e-05
-1.78072809694e-08
3.28779923049e-05
-2.83164263859e-08
3.2903099245e-05
-4.54247908593e-08
3.29429716177e-05
-7.3238798908e-08
3.30074364095e-05
-1.19508514774e-07
3.31134686197e-05
-1.99005590768e-07
3.32900683329e-05
-3.41028789699e-07
3.3585416737e-05
-6.05144442299e-07
3.40705543924e-05
-1.10954006022e-06
3.48115567914e-05
-2.08264766607e-06
3.56721601445e-05
-3.97159154833e-06
-7.10447527858e-06
3.5740029156e-05
5.35105665854e-05
8.90861184565e-06
5.55742224155e-05
1.58808736711e-05
5.52424825097e-05
1.62761338202e-05
5.35977854979e-05
1.4052488736e-05
5.15418464674e-05
1.11572124407e-05
4.95802777894e-05
8.45101046481e-06
4.79243478829e-05
6.22316712756e-06
4.66181352808e-05
4.49686521011e-06
4.56304620021e-05
3.20269019748e-06
4.49051128486e-05
2.25239749796e-06
4.43840856489e-05
1.56491402881e-06
4.40166895356e-05
1.07361007653e-06
4.37619629814e-05
7.26475902003e-07
4.3588264117e-05
4.8400351233e-07
4.34718642525e-05
3.16682731148e-07
4.33953534449e-05
2.02744797693e-07
4.33461823276e-05
1.26304161858e-07
4.33154439173e-05
7.5889360243e-08
4.32969069007e-05
4.3305846333e-08
4.32862804517e-05
2.27594078351e-08
4.32806774707e-05
1.01918218096e-08
4.32778698803e-05
2.87517848483e-09
4.32770421976e-05
-9.81511962125e-10
4.32772602901e-05
-2.92954858315e-09
4.3277947995e-05
-3.61915849126e-09
4.32788111433e-05
-3.63533937257e-09
4.32796839808e-05
-3.30664258749e-09
4.32804813881e-05
-2.83243361441e-09
4.32811671087e-05
-2.32774792087e-09
4.32817329213e-05
-1.85431881187e-09
4.3282185643e-05
-1.44081739195e-09
4.32825380289e-05
-1.09573078895e-09
4.32827996786e-05
-8.14506689152e-10
4.32829750428e-05
-5.90662834498e-10
4.32831079101e-05
-4.13165843733e-10
4.32831932252e-05
-2.6804345431e-10
4.32832470083e-05
-1.68738537158e-10
4.32832867752e-05
-1.0763604884e-10
4.32833112305e-05
-5.9422183513e-11
4.32833235616e-05
-2.16128032907e-11
4.32833270219e-05
5.65776636064e-12
4.32833237694e-05
2.60851084445e-11
4.32833153104e-05
4.14971655666e-11
4.32833027547e-05
5.35335475451e-11
4.32832868457e-05
6.36800757213e-11
4.32832678006e-05
7.2752758055e-11
4.32832460614e-05
8.13989840084e-11
4.32832220106e-05
8.99878468645e-11
4.32831959646e-05
9.88267673991e-11
4.32831685243e-05
1.07920136206e-10
4.32831404012e-05
1.16784726522e-10
4.32831125827e-05
1.25070513011e-10
4.32830864541e-05
1.31528379693e-10
4.32830641418e-05
1.34532628004e-10
4.32830487048e-05
1.31608675331e-10
4.32830447702e-05
1.18793256169e-10
4.32830604052e-05
8.74866554103e-11
4.32831080891e-05
2.61994295775e-11
4.32832067953e-05
-8.21059145752e-11
4.32833715335e-05
-2.53893875105e-10
4.3283621902e-05
-5.29180340685e-10
4.32840716824e-05
-1.06976741347e-09
4.32848536876e-05
-1.82835650152e-09
4.32861181879e-05
-2.97599909389e-09
4.32880738949e-05
-4.73496331432e-09
4.32910715945e-05
-7.45578524389e-09
4.32956714888e-05
-1.16931992662e-08
4.33027525992e-05
-1.83222871179e-08
4.33136974085e-05
-2.87513932461e-08
4.33306635598e-05
-4.52819349987e-08
4.33569594809e-05
-7.17203183385e-08
4.33981536494e-05
-1.14432671529e-07
4.34630934358e-05
-1.84448028095e-07
4.35654946048e-05
-3.01406693909e-07
4.37252964521e-05
-5.00830671109e-07
4.39670686814e-05
-8.46916689e-07
4.43074337659e-05
-1.44990585344e-06
4.47076311104e-05
-2.48284594512e-06
4.49266919814e-05
-4.19065454439e-06
-6.57499261886e-06
4.43972115543e-05
5.27351381067e-05
6.17347364095e-06
5.57309346178e-05
1.28850769801e-05
5.73114742894e-05
1.46955937322e-05
5.76109913852e-05
1.3752970981e-05
5.71335215516e-05
1.16346813516e-05
5.63194662763e-05
9.26506473164e-06
5.54489854139e-05
7.09364706138e-06
5.46629743279e-05
5.28287555491e-06
5.40136784829e-05
3.85198556535e-06
5.35061471257e-05
2.75992864527e-06
5.31242513614e-05
1.94680973957e-06
5.28449820218e-05
1.3528793669e-06
5.26454359019e-05
9.26021840057e-07
5.25057116124e-05
6.23727398862e-07
5.24097165884e-05
4.12677117513e-07
5.23450101582e-05
2.67450437443e-07
5.23022718479e-05
1.69041642635e-07
5.22746842499e-05
1.03476224347e-07
5.22573593887e-05
6.06301273453e-08
5.22468505928e-05
3.32679163532e-08
5.22407509536e-05
1.62914655999e-08
5.22374422032e-05
6.18412238365e-09
5.22359436873e-05
5.17296334087e-10
5.22354357975e-05
-2.42136090677e-09
5.22355007128e-05
-3.683839067e-09
5.22358460095e-05
-3.98052124676e-09
5.22363000165e-05
-3.76058606911e-09
5.22367661167e-05
-3.29854032674e-09
5.22371932628e-05
-2.75487549928e-09
5.22375588177e-05
-2.21969555509e-09
5.22378560152e-05
-1.737779729e-09
5.22380876587e-05
-1.32698864546e-09
5.22382639598e-05
-9.90381950816e-10
5.22383968062e-05
-7.23332002544e-10
5.22384971461e-05
-5.13198922532e-10
5.22385815272e-05
-3.52585749652e-10
5.22386469822e-05
-2.34104561703e-10
5.22386890122e-05
-1.49826496581e-10
5.22387221473e-05
-9.17434844505e-11
5.22387377433e-05
-3.67626063246e-11
5.22387433469e-05
4.48163737203e-13
5.22387417185e-05
2.84507960099e-11
5.22387344149e-05
4.94302178314e-11
5.22387228673e-05
6.53486167445e-11
5.22387079649e-05
7.90107301393e-11
5.2238690188e-05
9.11267345483e-11
5.22386700465e-05
1.02276647179e-10
5.22386483054e-05
1.12656797593e-10
5.22386259555e-05
1.21999916433e-10
5.2238601015e-05
1.33554860795e-10
5.22385753445e-05
1.43440857133e-10
5.22385498703e-05
1.51382419465e-10
5.22385262814e-05
1.55856854464e-10
5.22385074047e-05
1.54069426242e-10
5.22384994329e-05
1.4027454391e-10
5.22385096692e-05
1.08872974381e-10
5.22385429147e-05
5.40730541505e-11
5.22386230971e-05
-5.36212796992e-11
5.22387461515e-05
-2.04681771797e-10
5.22389470255e-05
-4.5346452201e-10
5.22392876547e-05
-8.70414937762e-10
5.22398124157e-05
-1.59328013034e-09
5.22405931841e-05
-2.60875671924e-09
5.22417634199e-05
-4.14600888236e-09
5.22435271118e-05
-6.49797490143e-09
5.22461857554e-05
-1.01135563535e-08
5.22501915133e-05
-1.56983471421e-08
5.22562361136e-05
-2.43664396328e-08
5.22653789612e-05
-3.78938185956e-08
5.22792377679e-05
-5.9140354766e-08
5.23002704992e-05
-9.27526633954e-08
5.23321927161e-05
-1.46354443067e-07
5.23803468615e-05
-2.32601899031e-07
5.24516565055e-05
-3.72716427521e-07
5.2552980914e-05
-6.02155151073e-07
5.26848582971e-05
-9.78794056147e-07
5.28250557786e-05
-1.59010315329e-06
5.28920866799e-05
-2.54987716625e-06
5.26735136164e-05
-3.97208264397e-06
-5.76617811354e-06
5.18647003075e-05
5.1983486552e-05
4.18998704888e-06
5.50586641342e-05
9.8098993267e-06
5.76386132207e-05
1.21156443392e-05
5.93259027827e-05
1.20656808689e-05
6.0228014178e-05
1.07325691508e-05
6.0592924613e-05
8.9001533919e-06
6.06482808063e-05
7.03829000378e-06
6.05531857539e-05
5.3779699009e-06
6.04029507888e-05
4.00222004655e-06
6.02479101104e-05
2.91496906884e-06
6.01107845525e-05
2.08393517945e-06
5.9999025032e-05
1.46463878392e-06
5.99125097722e-05
1.01253689117e-06
5.98479176342e-05
6.88319165173e-07
5.98010136363e-05
4.59580562679e-07
5.97677284201e-05
3.00734989424e-07
5.97445864512e-05
1.92182942013e-07
5.97288073455e-05
1.19254759591e-07
5.97182587945e-05
7.11783297534e-08
5.97113523896e-05
4.01741891122e-08
5.97069329933e-05
2.07109051771e-08
5.97041991434e-05
8.91810878401e-09
5.97025901891e-05
2.12640340082e-09
5.97016856962e-05
-1.51674126214e-09
5.97012273875e-05
-3.22547214864e-09
5.97010377809e-05
-3.79097664574e-09
5.97010013297e-05
-3.72431419309e-09
5.97010455351e-05
-3.34284748467e-09
5.97011266173e-05
-2.8360682667e-09
5.97012189859e-05
-2.31201608909e-09
5.97013088108e-05
-1.82740698941e-09
5.97013892827e-05
-1.40739886125e-09
5.97014590778e-05
-1.06012593834e-09
5.97015186508e-05
-7.83039196181e-10
5.97015687854e-05
-5.63646745249e-10
5.97016084535e-05
-3.92388928714e-10
5.97016359368e-05
-2.62133507575e-10
5.97016515457e-05
-1.65053415694e-10
5.97016500465e-05
-9.02051148942e-11
5.97016420936e-05
-2.90121326826e-11
5.97016359651e-05
6.51065239926e-12
5.9701627504e-05
3.73583915141e-11
5.97016176777e-05
5.96145653416e-11
5.97016071614e-05
7.6829189912e-11
5.97015942236e-05
9.24698428175e-11
5.97015788912e-05
1.06736350695e-10
5.97015613419e-05
1.20067994959e-10
5.97015416377e-05
1.32567579175e-10
5.97015195292e-05
1.4421118177e-10
5.97014985097e-05
1.55071025754e-10
5.97014783507e-05
1.63983794774e-10
5.97014601972e-05
1.69726038531e-10
5.9701445779e-05
1.70424875383e-10
5.9701436736e-05
1.63588553449e-10
5.9701431381e-05
1.46249284536e-10
5.97014232707e-05
1.16639529544e-10
5.97014310172e-05
4.7271018445e-11
5.97014439386e-05
-6.76466254019e-11
5.97015350402e-05
-2.95475865126e-10
5.97017293379e-05
-6.47108895689e-10
5.97020331924e-05
-1.1743151217e-09
5.9702425681e-05
-1.98559659898e-09
5.97030113366e-05
-3.19384723948e-09
5.97038720169e-05
-5.00655656417e-09
5.97051225283e-05
-7.74802871855e-09
5.97069284117e-05
-1.19184903437e-08
5.97095279252e-05
-1.82968499765e-08
5.97132654838e-05
-2.81031956842e-08
5.97186312705e-05
-4.32591227085e-08
5.97263065023e-05
-6.68153193611e-08
5.97371930547e-05
-1.03638874793e-07
5.97523537792e-05
-1.61514675778e-07
5.97726263558e-05
-2.52874156142e-07
5.97974189841e-05
-3.97508993711e-07
5.98215750088e-05
-6.26311245609e-07
5.98282204865e-05
-9.8544008181e-07
5.97753214876e-05
-1.53720428509e-06
5.95749758346e-05
-2.34953052345e-06
5.90694045519e-05
-3.46651091339e-06
-4.79525985342e-06
5.8098486724e-05
5.14373054348e-05
2.75268163143e-06
5.42658207135e-05
6.98138406194e-06
5.72496432279e-05
9.13182161111e-06
5.97900271975e-05
9.52529643776e-06
6.17201270659e-05
8.8024685749e-06
6.30883012908e-05
7.53197836012e-06
6.4016714148e-05
6.10987635006e-06
6.46292333677e-05
4.76545001215e-06
6.50257999341e-05
3.60565299498e-06
6.5279074309e-05
2.6616943977e-06
6.54389692865e-05
1.9240400363e-06
6.55386860821e-05
1.36492186059e-06
6.55999245229e-05
9.51298252886e-07
6.56367391052e-05
6.51504241719e-07
6.56581898452e-05
4.38129370583e-07
6.56700976312e-05
2.88826694366e-07
6.56761864217e-05
1.8609365383e-07
6.56788223618e-05
1.16618435265e-07
6.56794925936e-05
7.05079023761e-08
6.56791163463e-05
4.05504087261e-08
6.56782490298e-05
2.15782921723e-08
6.56772182489e-05
9.94898843299e-09
6.56762091293e-05
3.13559108048e-09
6.56752998919e-05
-6.07522227276e-10
6.56745311871e-05
-2.45693526793e-09
6.56739027895e-05
-3.16277457929e-09
6.56734037521e-05
-3.22557676164e-09
6.5673016849e-05
-2.95607952936e-09
6.56727230301e-05
-2.5423244732e-09
6.56725040529e-05
-2.09312591417e-09
6.56723440875e-05
-1.6671622455e-09
6.56722291103e-05
-1.29221410294e-09
6.56721470548e-05
-9.7778050101e-10
6.56720872731e-05
-7.22820423096e-10
6.56720438872e-05
-5.19897900707e-10
6.56720127006e-05
-3.60923573447e-10
6.56719878082e-05
-2.36842109686e-10
6.56719664876e-05
-1.43765581305e-10
6.56719515916e-05
-7.55643550305e-11
6.56719499871e-05
-2.74173121204e-11
6.56719492934e-05
8.15575883694e-12
6.56719422923e-05
4.42395593102e-11
6.56719330836e-05
6.9413781393e-11
6.56719215785e-05
8.9291805237e-11
6.56719083606e-05
1.06452906766e-10
6.56718936247e-05
1.22211185751e-10
6.56718772846e-05
1.37169893438e-10
6.56718592731e-05
1.51444069084e-10
6.56718402011e-05
1.6448651339e-10
6.56718220755e-05
1.74237916221e-10
6.56718037771e-05
1.83042292983e-10
6.56717857035e-05
1.88183301079e-10
6.56717690237e-05
1.87193472945e-10
6.56717558222e-05
1.76899533571e-10
6.56717497797e-05
1.51896191878e-10
6.56717601791e-05
1.07630093425e-10
6.56717648895e-05
4.16540553669e-11
6.56718048164e-05
-1.05022219754e-10
6.56718737595e-05
-3.6476268549e-10
6.56719761872e-05
-7.48472153708e-10
6.56721309519e-05
-1.3282698946e-09
6.56723454761e-05
-2.19972426032e-09
6.56726368989e-05
-3.48462148785e-09
6.56730216706e-05
-5.39096753939e-09
6.56735111784e-05
-8.2373628516e-09
6.56741038035e-05
-1.25106936255e-08
6.5674769911e-05
-1.89622004739e-08
6.56754245333e-05
-2.87569399731e-08
6.56758675642e-05
-4.37015173858e-08
6.56756726647e-05
-6.66200832947e-08
6.56739720543e-05
-1.01937968874e-07
6.56690342189e-05
-1.56576545689e-07
6.56573285827e-05
-2.41168379586e-07
6.56317320116e-05
-3.71912321215e-07
6.55781020609e-05
-5.72681445717e-07
6.54692215149e-05
-8.76559520526e-07
6.52559514962e-05
-1.32393437546e-06
6.4858296152e-05
-1.95187564299e-06
6.41638742053e-05
-2.77208860657e-06
-3.71400912606e-06
6.30826241709e-05
5.10850424083e-05
1.66763929303e-06
5.36118446767e-05
4.45458188221e-06
5.66873164543e-05
6.05634969845e-06
5.96894461089e-05
6.523166405e-06
6.22997261428e-05
6.19218791809e-06
6.44136870372e-05
5.41801673468e-06
6.60471825405e-05
4.47638011114e-06
6.72686135592e-05
3.54401833365e-06
6.81598922512e-05
2.71437380775e-06
6.87977586819e-05
2.02382762482e-06
6.92467430201e-05
1.47505546323e-06
6.95579618682e-05
1.05370281203e-06
6.97704285405e-05
7.38831356457e-07
6.99131715159e-05
5.08760949235e-07
7.00073824745e-05
3.43918030208e-07
7.00682918941e-05
2.27916902574e-07
7.01066938256e-05
1.47691387404e-07
7.01301361336e-05
9.31758868703e-08
7.01438254066e-05
5.68185333823e-08
7.01513017817e-05
3.30740639437e-08
7.0154934605e-05
1.79455642519e-08
7.01562827449e-05
8.60093992977e-09
7.01563549713e-05
3.06338234521e-09
7.01557630169e-05
-1.57868841454e-11
7.0154902302e-05
-1.59640098323e-09
7.01539787932e-05
-2.23952157696e-09
7.01531101497e-05
-2.35733116459e-09
7.01523502828e-05
-2.19641384652e-09
7.0151716419e-05
-1.90846491526e-09
7.01512055124e-05
-1.58224121031e-09
7.01508049271e-05
-1.26623518458e-09
7.01504974261e-05
-9.84320207553e-10
7.01502653548e-05
-7.45336911319e-10
7.01500924992e-05
-5.49715334012e-10
7.0149965839e-05
-3.93202941793e-10
7.0149874641e-05
-2.70171569935e-10
7.01498121466e-05
-1.74781432495e-10
7.01497707615e-05
-1.02807061466e-10
7.01497422851e-05
-4.73626358027e-11
7.01497128935e-05
2.05000947363e-12
7.01496899642e-05
3.12521180178e-11
7.0149677626e-05
5.71495665686e-11
7.01496678199e-05
7.93349543626e-11
7.0149658786e-05
9.85126809651e-11
7.01496495911e-05
1.15855175246e-10
7.01496399069e-05
1.32193714101e-10
7.01496295819e-05
1.47800805726e-10
7.01496186749e-05
1.6264626425e-10
7.01496071681e-05
1.76373419619e-10
7.01495935608e-05
1.88279109157e-10
7.01495797107e-05
1.97447540433e-10
7.01495664272e-05
2.02048653072e-10
7.01495545475e-05
1.9963046789e-10
7.01495441718e-05
1.87180798234e-10
7.0149535614e-05
1.61284553973e-10
7.01495250556e-05
1.17589488575e-10
7.01495217995e-05
4.61425100125e-11
7.01495101162e-05
-9.24894499882e-11
7.014952529e-05
-3.78844724146e-10
7.01495510816e-05
-7.74272069162e-10
7.01495775956e-05
-1.35398722932e-09
7.01495831715e-05
-2.20474252667e-09
7.01495413058e-05
-3.44247226265e-09
7.0149399122e-05
-5.24841837346e-09
7.01490577492e-05
-7.89592350929e-09
7.01483426634e-05
-1.17955730546e-08
7.01469527398e-05
-1.75719393898e-08
7.01443770822e-05
-2.61806951197e-08
7.01397425049e-05
-3.90664411837e-08
7.01315693411e-05
-5.84465636653e-08
7.01173695122e-05
-8.77378508978e-08
7.00929916604e-05
-1.32198633106e-07
7.00513523095e-05
-1.99529170002e-07
6.99804868016e-05
-3.01046849982e-07
6.98604434196e-05
-4.5263851827e-07
6.9658801433e-05
-6.74918457528e-07
6.93256873468e-05
-9.90820253687e-07
6.8791612646e-05
-1.41780146333e-06
6.79740841638e-05
-1.95456004855e-06
-2.555073811e-06
6.68151497618e-05
5.08804132268e-05
7.87226184294e-07
5.31704662782e-05
2.16452898748e-06
5.62177496881e-05
3.00906621681e-06
5.94382693522e-05
3.30264644915e-06
6.24449686277e-05
3.18548809551e-06
6.50382513861e-05
2.82473323203e-06
6.71548643382e-05
2.35976646049e-06
6.88135623015e-05
1.88531973676e-06
7.00731679091e-05
1.45476768016e-06
7.10056646094e-05
1.09133051836e-06
7.16812607288e-05
7.99459025717e-07
7.21614199434e-05
5.73543324938e-07
7.24966007065e-05
4.03650324364e-07
7.27264770281e-05
2.78884321543e-07
7.28812756313e-05
1.89119091972e-07
7.29834650908e-05
1.25727147108e-07
7.30494086276e-05
8.17476367035e-08
7.30908105865e-05
5.17738199752e-08
7.31159044981e-05
3.17246193677e-08
7.31303890719e-05
1.85895560375e-08
7.31381438817e-05
1.01908264718e-08
7.31417643886e-05
4.98044326196e-09
7.31429520175e-05
1.87555950553e-09
7.31428056109e-05
1.3039911942e-10
7.31419821232e-05
-7.73370987373e-10
7.31408990274e-05
-1.1568173542e-09
7.31397839324e-05
-1.24268175333e-09
7.31387563811e-05
-1.16917249329e-09
7.31378689985e-05
-1.02109529246e-09
7.31371354352e-05
-8.48652688919e-10
7.31365484888e-05
-6.79041756651e-10
7.31360906363e-05
-5.26139118302e-10
7.31357409114e-05
-3.95394549499e-10
7.31354785953e-05
-2.87426408412e-10
7.31352853333e-05
-2.00184145736e-10
7.31351455954e-05
-1.3067563788e-10
7.3135046317e-05
-7.54860479616e-11
7.31349749214e-05
-3.11676705212e-11
7.31349216436e-05
5.88267682819e-12
7.31348924003e-05
3.17429603722e-11
7.31348696554e-05
5.41534016251e-11
7.31348534254e-05
7.38069653085e-11
7.31348416182e-05
9.15503265617e-11
7.31348326049e-05
1.08151174214e-10
7.31348250045e-05
1.24195019763e-10
7.3134817869e-05
1.40041071939e-10
7.31348106769e-05
1.55737076398e-10
7.31348030327e-05
1.71080799012e-10
7.31347946659e-05
1.85556062836e-10
7.3134785504e-05
1.98306593554e-10
7.31347755489e-05
2.08276321004e-10
7.31347648385e-05
2.13608428166e-10
7.31347537322e-05
2.11760958396e-10
7.31347420429e-05
1.99291477916e-10
7.31347308391e-05
1.7277745806e-10
7.31347226991e-05
1.2788923035e-10
7.31347058363e-05
6.31582428188e-11
7.31346842625e-05
-7.18131872779e-11
7.3134645776e-05
-3.38695690624e-10
7.31345817837e-05
-7.10201276353e-10
7.31344701769e-05
-1.24198778667e-09
7.3134267404e-05
-2.00162193409e-09
7.31339055054e-05
-3.08057201217e-09
7.31332700266e-05
-4.61282824516e-09
7.31321680534e-05
-6.79397185843e-09
7.31302783939e-05
-9.90596571469e-09
7.31270736909e-05
-1.43670942856e-08
7.31216994316e-05
-2.08061522175e-08
7.31127441556e-05
-3.01109505066e-08
7.30979045434e-05
-4.36067070312e-08
7.30734736701e-05
-6.33067261394e-08
7.30335569955e-05
-9.22820416519e-08
7.29686465804e-05
-1.34619160405e-07
7.2863731879e-05
-1.9613268298e-07
7.26956567941e-05
-2.84564092293e-07
7.24299369262e-05
-4.09199482915e-07
7.20182363847e-05
-5.79119574967e-07
7.13993936881e-05
-7.98958603794e-07
7.05079093642e-05
-1.06307589257e-06
-1.34639175522e-06
6.92992281266e-05
5.07871726239e-05
5.37151239743e-11
5.29516499267e-05
5.18746458352e-11
5.59606883882e-05
2.77194334501e-11
5.92633215002e-05
1.30913534936e-11
6.24488075219e-05
1.52042352424e-12
6.52735474332e-05
-7.22500916284e-12
6.76333262939e-05
-1.30709216512e-11
6.95186612707e-05
-1.58637379735e-11
7.09734445102e-05
-1.61034483581e-11
7.2064789005e-05
-1.44317812937e-11
7.28642591594e-05
-1.15204354957e-11
7.34378101758e-05
-8.04332410984e-12
7.38414648401e-05
-4.66840014482e-12
7.41203508801e-05
-2.04000347931e-12
7.43094703441e-05
-6.51975408542e-13
7.44351981888e-05
-9.25950149941e-13
7.45169487314e-05
-3.02360970932e-12
7.4568729258e-05
-6.69363824022e-12
7.46004652747e-05
-1.12980260018e-11
7.46190708263e-05
-1.58856711092e-11
7.46292810743e-05
-1.93682863914e-11
7.46342821293e-05
-2.06998842646e-11
7.46361769481e-05
-1.94678425321e-11
7.46363238989e-05
-1.70118992824e-11
7.46355644148e-05
-1.44858576328e-11
7.46344183724e-05
-1.13394001617e-11
7.46331831234e-05
-7.82769923712e-12
7.46320175239e-05
-3.96444620586e-12
7.46309957145e-05
7.81387969908e-13
7.46301424985e-05
4.70892145493e-12
7.46294544163e-05
9.3077843949e-12
7.4628914416e-05
1.42030766518e-11
7.46285000066e-05
1.93057713447e-11
7.46281880031e-05
2.46893738438e-11
7.46279571851e-05
3.05816116781e-11
7.46277894009e-05
3.71489975847e-11
7.4627669547e-05
4.4467412005e-11
7.46275854416e-05
5.22341870216e-11
7.46275301407e-05
6.15054996012e-11
7.4627491264e-05
7.05909076044e-11
7.46274653324e-05
8.00797908042e-11
7.46274487326e-05
9.08704002159e-11
7.46274382145e-05
1.0271221451e-10
7.46274315658e-05
1.15551161093e-10
7.46274272431e-05
1.29329436987e-10
7.46274240975e-05
1.43983096306e-10
7.46274214692e-05
1.59275415177e-10
7.46274188819e-05
1.74718919111e-10
7.46274159016e-05
1.8963125013e-10
7.46274121043e-05
2.03130105754e-10
7.46274071863e-05
2.13981688885e-10
7.46274008866e-05
2.20382584968e-10
7.4627392993e-05
2.20112640175e-10
7.46273830798e-05
2.10069033874e-10
7.46273691879e-05
1.86803528843e-10
7.46273515654e-05
1.47192150676e-10
7.46273256374e-05
8.77801752327e-11
7.46272812354e-05
-2.61925353201e-11
7.46271949901e-05
-2.50975834061e-10
7.46270610716e-05
-5.74917595281e-10
7.46268398992e-05
-1.02007786115e-09
7.46264707972e-05
-1.63210755338e-09
7.46258576706e-05
-2.46722104009e-09
7.46248440358e-05
-3.59911875503e-09
7.46231750967e-05
-5.12497843872e-09
7.46204349193e-05
-7.16558740944e-09
7.4615956284e-05
-9.88809355729e-09
7.46086821027e-05
-1.35316817713e-08
7.45968779436e-05
-1.8306653441e-08
7.45777449407e-05
-2.44735865975e-08
7.45468637621e-05
-3.24255461763e-08
7.44975103265e-05
-4.29288815093e-08
7.4418957027e-05
-5.60662003793e-08
7.42948157332e-05
-7.19917205928e-08
7.41007230612e-05
-9.0471945373e-08
7.38018854548e-05
-1.10362637993e-07
7.33516761715e-05
-1.2891068754e-07
7.26936710075e-05
-1.40952910873e-07
7.17699029859e-05
-1.39307738078e-07
-1.15495140914e-07
7.05390071478e-05
5.07871715824e-05