/*--------------------------------*- C++ -*----------------------------------*\
| =========                 |                                                 |
| \\      /  F ield         | OpenFOAM: The Open Source CFD Toolbox           |
|  \\    /   O peration     | Version:  2106                                  |
|   \\  /    A nd           | Website:  www.openfoam.com                      |
|    \\/     M anipulation  |                                                 |
\*---------------------------------------------------------------------------*/
FoamFile
{
    version     2.0;
    format      ascii;
    arch        "LSB;label=32;scalar=64";
    class       surfaceScalarField;
    location    "0.05";
    object      phi;
}
// * * * * * * * * * * * * * * * * * * * * * * * * * * * * * * * * * * * * * //

dimensions      [0 3 -1 0 0 0 0];

oriented        oriented;

internalField   nonuniform List<scalar> 
18840
(
3.37541724549e-05
1.62458275542e-05
2.25356791719e-05
1.12184927877e-05
1.63020705649e-05
6.23360908596e-06
1.28098006187e-05
3.49227077004e-06
1.0807364493e-05
2.0024359119e-06
9.60714762001e-06
1.20021667623e-06
8.85669166991e-06
7.50455555227e-07
8.37391914305e-06
4.82772464861e-07
8.05928320367e-06
3.14635760225e-07
7.85433541517e-06
2.04947842585e-07
7.72246891219e-06
1.31867014257e-07
7.63964234446e-06
8.28269683472e-08
7.58958858924e-06
5.00540334891e-08
7.56112596359e-06
2.84627705101e-08
7.54653603492e-06
1.4590073009e-08
7.54052150919e-06
6.01427744127e-09
7.53949606689e-06
1.02549381354e-09
7.54112015842e-06
-1.6236179713e-09
7.54389501989e-06
-2.77467276736e-09
7.54693745387e-06
-3.041958339e-09
7.54976622748e-06
-2.82834021916e-09
7.55216218998e-06
-2.39606716518e-09
7.55406591739e-06
-1.90388079316e-09
7.55550536548e-06
-1.43979491444e-09
7.55654962016e-06
-1.04446726037e-09
7.5572799484e-06
-7.30149914072e-10
7.5577735701e-06
-4.93290835524e-10
7.55809629446e-06
-3.22375901269e-10
7.55830032512e-06
-2.03736301113e-10
7.55842469669e-06
-1.24316842416e-10
7.55849738205e-06
-7.2822637954e-11
7.558537706e-06
-4.05058202891e-11
7.55855857612e-06
-2.09380485191e-11
7.55856814247e-06
-9.54218530815e-12
7.55857178001e-06
-3.32266974066e-12
7.55857234665e-06
-4.80995951403e-13
7.55857145768e-06
9.36086979802e-13
7.55857008114e-06
1.28994418343e-12
7.55856873586e-06
1.18177913115e-12
7.55856769337e-06
1.0292816354e-12
7.55856703403e-06
8.62540519969e-13
7.55856663381e-06
6.352140958e-13
7.55856637698e-06
3.81549950354e-13
7.55856622393e-06
1.9071893642e-13
7.55856616665e-06
5.5904171667e-14
7.55856621516e-06
-5.17354681141e-14
7.5585663632e-06
-1.75654705277e-13
7.55856657874e-06
-3.07859078297e-13
7.55856684408e-06
-3.85312176142e-13
7.5585671857e-06
-3.59458663011e-13
7.55856759889e-06
-2.97292659365e-13
7.55856804342e-06
-2.95729131458e-13
7.55856849358e-06
-3.56983165017e-13
7.55856895847e-06
-4.15310495444e-13
7.55856941944e-06
-4.59124656008e-13
7.55856988e-06
-5.03901916409e-13
7.55857036863e-06
-5.41742275663e-13
7.55857090312e-06
-5.53827269708e-13
7.55857146309e-06
-5.55151581224e-13
7.55857201722e-06
-5.68292141723e-13
7.5585725764e-06
-5.91568738499e-13
7.55857316226e-06
-6.2097377294e-13
7.5585737876e-06
-6.61656666639e-13
7.55857446608e-06
-7.13411399073e-13
7.55857522394e-06
-7.57746075447e-13
7.55857607356e-06
-7.77543688503e-13
7.55857698445e-06
-7.78908243547e-13
7.55857790784e-06
-7.87033660162e-13
7.55857881563e-06
-8.17717058103e-13
7.55857971692e-06
-8.68243509625e-13
7.55858063336e-06
-9.30293965979e-13
7.5585815806e-06
-9.98549494371e-13
7.55858257279e-06
-1.067983562e-12
7.5585836287e-06
-1.13011053876e-12
7.55858476377e-06
-1.17650593209e-12
7.5585859734e-06
-1.20587122044e-12
7.55858722684e-06
-1.22547098118e-12
7.55858848326e-06
-1.24680466946e-12
7.55858971821e-06
-1.28130464197e-12
7.55859094225e-06
-1.33666369664e-12
7.55859219953e-06
-1.4110344643e-12
7.55859354725e-06
-1.48685672504e-12
7.55859502421e-06
-1.53640018869e-12
7.55859662186e-06
-1.54390220768e-12
7.55859827939e-06
-1.52610438463e-12
7.55859991887e-06
-1.52643055394e-12
7.55860150495e-06
-1.58210575807e-12
7.5586030801e-06
-1.69256734559e-12
7.55860473805e-06
-1.81753489408e-12
7.55860654947e-06
-1.9071415949e-12
7.55860850332e-06
-1.94121706862e-12
7.55861051977e-06
-1.9501206035e-12
7.55861252661e-06
-1.99512231267e-12
7.55861453531e-06
-2.11376977454e-12
7.5586166477e-06
-2.27888373599e-12
7.5586189776e-06
-2.41628099958e-12
7.55862155951e-06
-2.47661808991e-12
7.5586243145e-06
-2.49320601293e-12
7.5586271327e-06
-2.56684691174e-12
7.55863000371e-06
-2.7950388226e-12
7.55863305852e-06
-3.19227562213e-12
7.55863647649e-06
-3.61722263377e-12
7.55864038942e-06
-3.99007955624e-12
7.55864481806e-06
-4.35573032078e-12
7.5586497491e-06
-4.82905959891e-12
7.55865528342e-06
-5.50321842787e-12
7.55866164997e-06
-6.40440810249e-12
7.55866911858e-06
-7.50618960607e-12
7.55867795697e-06
-8.82427196178e-12
7.55868843302e-06
-1.04669858849e-11
7.55870090767e-06
-1.25410700108e-11
7.55871591944e-06
-1.51014547897e-11
7.55873415228e-06
-1.82476449433e-11
7.55875638503e-06
-2.21536482918e-11
7.5587835555e-06
-2.70630115404e-11
7.55881687834e-06
-3.32323682957e-11
7.55885790552e-06
-4.09019968604e-11
7.55890849626e-06
-5.03800894714e-11
7.55897084888e-06
-6.21435768054e-11
7.55904770597e-06
-7.68397994454e-11
7.55914267571e-06
-9.5173151131e-11
7.55926040525e-06
-1.17929484154e-10
7.55940685013e-06
-1.46415130517e-10
7.55959072504e-06
-1.83716141491e-10
7.55981900185e-06
-2.28361437808e-10
7.56009913784e-06
-2.80496963467e-10
7.5604463452e-06
-3.4754068485e-10
7.56087752634e-06
-4.31214800419e-10
7.56141310518e-06
-5.35366792958e-10
7.56207837867e-06
-6.65076927922e-10
7.56290487877e-06
-8.26423406982e-10
7.56393177308e-06
-1.02690331229e-09
7.56520767914e-06
-1.27609046975e-09
7.5667933227e-06
-1.58598433679e-09
7.56876457786e-06
-1.97140374055e-09
7.57121580523e-06
-2.45096939405e-09
7.57426436024e-06
-3.04828027442e-09
7.57805694978e-06
-3.79274284569e-09
7.58277747804e-06
-4.72079022332e-09
7.58865622726e-06
-5.87851165244e-09
7.59598167073e-06
-7.3249330133e-09
7.60511649125e-06
-9.13477314739e-09
7.61651835981e-06
-1.14022617609e-08
7.63076659288e-06
-1.42484388692e-08
7.64859768851e-06
-1.7830944626e-08
7.67095308601e-06
-2.23551383428e-08
7.69904362352e-06
-2.80904212971e-08
7.73443961313e-06
-3.53962363008e-08
7.77919899167e-06
-4.4759672709e-08
7.83605158213e-06
-5.68524522709e-08
7.90867753122e-06
-7.26259063375e-08
8.00216032572e-06
-9.34829718598e-08
8.1238024371e-06
-1.21641535955e-07
8.28485227117e-06
-1.61049423728e-07
8.50488570845e-06
-2.2003400324e-07
8.82428196603e-06
-3.19396084157e-07
9.34171933317e-06
-5.17437231046e-07
1.03351100933e-05
-9.93391673575e-07
1.26786319544e-05
-2.34352281639e-06
-6.52729526553e-06
1.92059274232e-05
5.0138784475e-05
1.61070436529e-05
4.41590658654e-05
1.71982107072e-05
3.77603578403e-05
1.26323159149e-05
3.2651503798e-05
8.60112516696e-06
2.89515655376e-05
5.70237437707e-06
2.6377646318e-05
3.77413638666e-06
2.46115888612e-05
2.51651318587e-06
2.34067526141e-05
1.68760909285e-06
2.25894624693e-05
1.13192581728e-06
2.20400495928e-05
7.54359931341e-07
2.16759411052e-05
4.9597495894e-07
2.14396628097e-05
3.19104687796e-07
2.12908692146e-05
1.98847428958e-07
2.12011094567e-05
1.18222495232e-07
2.11503427325e-05
6.53568228851e-08
2.1124557348e-05
3.17998140979e-08
2.11141091339e-05
1.14728807571e-08
2.11124495586e-05
3.56353616222e-11
2.11153937322e-05
-5.7196549374e-09
2.11202674836e-05
-7.91659958748e-09
2.1125527972e-05
-8.08940697911e-09
2.11303596207e-05
-7.22775801058e-09
2.1134408732e-05
-5.95313422545e-09
2.11375951239e-05
-4.62631668753e-09
2.11399836666e-05
-3.43350953386e-09
2.114170309e-05
-2.45043663111e-09
2.1142897584e-05
-1.68832471081e-09
2.11437003487e-05
-1.12535825526e-09
2.11442229007e-05
-7.26057215476e-10
2.1144552305e-05
-4.53026051009e-10
2.11447528412e-05
-2.7267495034e-10
2.11448702208e-05
-1.57454080755e-10
2.11449358154e-05
-8.62406715515e-11
2.11449701114e-05
-4.40404653165e-11
2.11449862128e-05
-1.98653505109e-11
2.11449922268e-05
-6.68330381727e-12
2.11449929439e-05
3.0192163635e-13
2.11449919392e-05
2.46397325561e-12
2.11449901288e-05
3.10952998636e-12
2.1144988269e-05
2.9408472276e-12
2.11449866973e-05
2.49679865794e-12
2.11449854786e-05
1.97318060889e-12
2.11449845708e-05
1.41742030705e-12
2.11449838682e-05
9.34995303375e-13
2.11449833273e-05
5.39516299563e-13
2.11449830122e-05
2.2413178663e-13
2.11449828934e-05
-1.72273899195e-14
2.11449829344e-05
-2.12825293081e-13
2.11449830886e-05
-3.63679443148e-13
2.1144983296e-05
-4.73765708864e-13
2.11449835187e-05
-5.4963628398e-13
2.11449837804e-05
-5.83935770494e-13
2.11449840955e-05
-6.10787821634e-13
2.11449844344e-05
-6.67888909317e-13
2.11449847595e-05
-7.70495036403e-13
2.11449850873e-05
-8.76642865673e-13
2.11449854526e-05
-9.49699499194e-13
2.11449858511e-05
-9.97190998547e-13
2.11449862596e-05
-1.04267792914e-12
2.11449866585e-05
-1.09510838844e-12
2.11449870603e-05
-1.1438800246e-12
2.11449874817e-05
-1.18841466761e-12
2.11449879395e-05
-1.23284780851e-12
2.11449884598e-05
-1.27134324472e-12
2.1144989065e-05
-1.28965906112e-12
2.11449897534e-05
-1.2979407567e-12
2.11449904826e-05
-1.32944829846e-12
2.11449912077e-05
-1.40824195457e-12
2.11449919105e-05
-1.52410972394e-12
2.11449926024e-05
-1.65094352805e-12
2.11449933026e-05
-1.76858647658e-12
2.11449940266e-05
-1.86885783418e-12
2.11449947907e-05
-1.94971303204e-12
2.11449956144e-05
-2.01243205706e-12
2.11449965092e-05
-2.06460506328e-12
2.11449974661e-05
-2.12051853634e-12
2.11449984532e-05
-2.19374269994e-12
2.11449994309e-05
-2.28676294787e-12
2.11450003779e-05
-2.38961125448e-12
2.1145001311e-05
-2.48751292515e-12
2.11450022848e-05
-2.56852463034e-12
2.11450033648e-05
-2.6252836996e-12
2.11450045861e-05
-2.65695837907e-12
2.11450059237e-05
-2.67795405566e-12
2.11450073035e-05
-2.72288660682e-12
2.11450086537e-05
-2.83093125049e-12
2.11450099654e-05
-3.01436605812e-12
2.11450113105e-05
-3.24181415851e-12
2.11450127957e-05
-3.45716714988e-12
2.11450144811e-05
-3.62203955351e-12
2.11450163331e-05
-3.74531559696e-12
2.11450182617e-05
-3.87502221877e-12
2.1145020221e-05
-4.05901877117e-12
2.11450222801e-05
-4.30724490513e-12
2.11450245957e-05
-4.59124126736e-12
2.11450272986e-05
-4.88407619364e-12
2.11450304086e-05
-5.21130017773e-12
2.11450338481e-05
-5.65616177882e-12
2.11450375715e-05
-6.29458012132e-12
2.11450416933e-05
-7.13501549949e-12
2.11450464373e-05
-8.14632690789e-12
2.11450520491e-05
-9.24838777357e-12
2.11450587215e-05
-1.04824532686e-11
2.11450665784e-05
-1.20070040732e-11
2.11450757873e-05
-1.40027690223e-11
2.11450866945e-05
-1.65606056228e-11
2.11450998116e-05
-1.96846191704e-11
2.11451156668e-05
-2.34018252707e-11
2.1145134744e-05
-2.78185523454e-11
2.11451573781e-05
-3.29833911531e-11
2.11451851417e-05
-4.02604198828e-11
2.1145220004e-05
-4.99922871033e-11
2.11452631712e-05
-6.14504127721e-11
2.11453165154e-05
-7.54823678419e-11
2.1145382469e-05
-9.2897737714e-11
2.11454641423e-05
-1.14623844196e-10
2.11455653986e-05
-1.41715042692e-10
2.11456909185e-05
-1.75457840439e-10
2.1145846424e-05
-2.1748119349e-10
2.11460391246e-05
-2.69742816044e-10
2.114627816e-05
-3.34526971598e-10
2.11465747811e-05
-4.14680128354e-10
2.11469424517e-05
-5.14003034132e-10
2.11473964534e-05
-6.37647311922e-10
2.11479601762e-05
-7.92202224095e-10
2.1148664685e-05
-9.85102460261e-10
2.11495423259e-05
-1.2250392526e-09
2.11506344088e-05
-1.52317928744e-09
2.1151992718e-05
-1.89378966249e-09
2.11536820613e-05
-2.35455853131e-09
2.11557831431e-05
-2.92738766471e-09
2.11583962195e-05
-3.63973270306e-09
2.11616460927e-05
-4.52593157053e-09
2.11656885499e-05
-5.62856156695e-09
2.11707178616e-05
-7.00069515291e-09
2.11769760322e-05
-8.70908183989e-09
2.11847650881e-05
-1.08375352809e-08
2.11944627874e-05
-1.34907419428e-08
2.12065418389e-05
-1.67999237228e-08
2.12215942929e-05
-2.09309424366e-08
2.12403636168e-05
-2.60940963607e-08
2.12637857877e-05
-3.25561453724e-08
2.12930415293e-05
-4.06569865102e-08
2.13296257037e-05
-5.08327255401e-08
2.137544091e-05
-6.36470605182e-08
2.14329216132e-05
-7.98358213589e-08
2.15052024278e-05
-1.00370549143e-07
2.15963561695e-05
-1.26549898437e-07
2.17117362512e-05
-1.60139797371e-07
2.18584823012e-05
-2.03598486354e-07
2.20463071719e-05
-2.60451498154e-07
2.22887938424e-05
-3.35970842536e-07
2.26056749859e-05
-4.38523465192e-07
2.30271168856e-05
-5.8249093599e-07
2.36022316649e-05
-7.95149234308e-07
2.44165324761e-05
-1.13369788622e-06
2.56260147679e-05
-1.7269187312e-06
2.75082906802e-05
-2.87566861684e-06
3.04644977622e-05
-5.29972995316e-06
-1.05632948318e-05
3.45004967311e-05
5.35844459401e-05
1.25225982186e-05
5.29169686244e-05
1.78656887786e-05
4.96408071675e-05
1.59084766437e-05
4.58422346477e-05
1.23996977307e-05
4.24514488336e-05
9.09315994973e-06
3.97490325713e-05
6.47655250299e-06
3.77177859343e-05
4.54775981465e-06
3.62421811693e-05
3.16321426741e-06
3.51950268969e-05
2.1790805636e-06
3.44664135688e-05
1.48297375069e-06
3.39694721789e-05
9.92916549273e-07
3.36382403947e-05
6.50336546207e-07
3.34236486712e-05
4.1343935764e-07
3.32896747731e-05
2.52196213617e-07
3.32101885658e-05
1.44843354828e-07
3.31664916575e-05
7.5497261759e-08
3.31454327608e-05
3.25322929072e-08
3.31379966353e-05
7.47215233795e-09
3.31381207514e-05
-5.84329531548e-09
3.31419669347e-05
-1.17629931504e-08
3.3147180382e-05
-1.33030554154e-08
3.3152437927e-05
-1.24856495604e-08
3.31570844671e-05
-1.05999514853e-08
3.31608745e-05
-8.41624044228e-09
3.31637937495e-05
-6.35252599727e-09
3.31659429076e-05
-4.5993630836e-09
3.31674658045e-05
-3.21108998852e-09
3.3168508682e-05
-2.1683729619e-09
3.31692003819e-05
-1.41806036441e-09
3.31696451615e-05
-8.97861781541e-10
3.31699221677e-05
-5.4947835303e-10
3.31700888626e-05
-3.23805125381e-10
3.31701851343e-05
-1.82389569398e-10
3.3170238149e-05
-9.67195419911e-11
3.31702651728e-05
-4.69673902813e-11
3.31702775216e-05
-1.93083897065e-11
3.31702823779e-05
-4.76558268959e-12
3.31702828116e-05
1.95317893326e-12
3.31702816735e-05
4.29541098738e-12
3.31702800303e-05
4.72557149617e-12
3.31702783946e-05
4.25861064281e-12
3.31702769757e-05
3.4448440526e-12
3.31702758884e-05
2.59536079331e-12
3.31702751372e-05
1.83325736868e-12
3.31702746007e-05
1.13125988339e-12
3.31702741547e-05
5.73125167611e-13
3.31702738482e-05
1.57438706272e-13
3.31702737209e-05
-1.38219814886e-13
3.31702737274e-05
-3.194330967e-13
3.31702738024e-05
-4.39231166982e-13
3.31702739297e-05
-5.6224226975e-13
3.31702740882e-05
-6.48437491244e-13
3.31702742781e-05
-7.46826942472e-13
3.3170274481e-05
-8.73146150483e-13
3.31702746909e-05
-1.00131820531e-12
3.31702749205e-05
-1.11088527176e-12
3.31702751768e-05
-1.19631799264e-12
3.31702754456e-05
-1.26653355759e-12
3.31702757116e-05
-1.32908588988e-12
3.31702759706e-05
-1.39370228869e-12
3.31702762269e-05
-1.45919851253e-12
3.31702764932e-05
-1.51933378615e-12
3.31702767901e-05
-1.56408483989e-12
3.31702771459e-05
-1.5876629486e-12
3.31702775731e-05
-1.60435543349e-12
3.31702780523e-05
-1.6332721278e-12
3.31702785437e-05
-1.6975343296e-12
3.31702790315e-05
-1.82629798692e-12
3.31702795081e-05
-1.99166567715e-12
3.317027998e-05
-2.1665334961e-12
3.31702804572e-05
-2.32322164698e-12
3.31702809494e-05
-2.44442437889e-12
3.31702814698e-05
-2.52982521991e-12
3.31702820331e-05
-2.59603846912e-12
3.3170282647e-05
-2.6677613751e-12
3.31702833041e-05
-2.76379136577e-12
3.31702839814e-05
-2.88783758487e-12
3.3170284649e-05
-3.02785748625e-12
3.31702852889e-05
-3.16326778792e-12
3.31702859144e-05
-3.27537940386e-12
3.31702865748e-05
-3.35577028275e-12
3.31702873309e-05
-3.4102323908e-12
3.31702882096e-05
-3.458426749e-12
3.31702891778e-05
-3.52993112599e-12
3.31702901628e-05
-3.65574513148e-12
3.31702911129e-05
-3.85436199854e-12
3.31702920469e-05
-4.11772853532e-12
3.31702930526e-05
-4.41137511302e-12
3.31702942276e-05
-4.69457543369e-12
3.31702956086e-05
-4.95112663081e-12
3.3170297147e-05
-5.20434220053e-12
3.3170298763e-05
-5.49781784507e-12
3.3170300442e-05
-5.85908146462e-12
3.31703022822e-05
-6.28325697193e-12
3.31703044471e-05
-6.75608884586e-12
3.31703070496e-05
-7.29969857778e-12
3.31703100919e-05
-7.99322173181e-12
3.31703135092e-05
-8.93221042687e-12
3.31703172637e-05
-1.0137377904e-11
3.31703214501e-05
-1.15278771596e-11
3.31703267082e-05
-1.35045404068e-11
3.31703331778e-05
-1.56213467535e-11
3.3170341023e-05
-1.81303485984e-11
3.31703504535e-05
-2.13111868551e-11
3.31703618287e-05
-2.53979742306e-11
3.31703757198e-05
-3.05310384638e-11
3.31703928433e-05
-3.68171109683e-11
3.31704139945e-05
-4.44881581299e-11
3.3170440176e-05
-5.39623975714e-11
3.31704729704e-05
-6.57933415068e-11
3.31705133367e-05
-8.06154199209e-11
3.31705625103e-05
-9.905257307e-11
3.31706231167e-05
-1.2188000628e-10
3.31706979596e-05
-1.50197183211e-10
3.31707905287e-05
-1.85434551295e-10
3.31709052365e-05
-2.29325701075e-10
3.31710475062e-05
-2.83947231445e-10
3.31712239241e-05
-3.51870018152e-10
3.31714426469e-05
-4.36304886989e-10
3.31717139772e-05
-5.41197376576e-10
3.31720508678e-05
-6.71391980733e-10
3.31724693273e-05
-8.32982766718e-10
3.31729891081e-05
-1.03378907504e-09
3.31736348717e-05
-1.28367164621e-09
3.31744370635e-05
-1.59465728808e-09
3.31754336475e-05
-1.98164172709e-09
3.31766721971e-05
-2.46330379873e-09
3.3178211822e-05
-3.06268803961e-09
3.31801261554e-05
-3.8083425773e-09
3.31825069772e-05
-4.73564425346e-09
3.31854683052e-05
-5.88883298836e-09
3.31891519326e-05
-7.32341571823e-09
3.31937346847e-05
-9.10866226168e-09
3.31994371314e-05
-1.13307675415e-08
3.32065340913e-05
-1.40973794362e-08
3.32153682669e-05
-1.75433126464e-08
3.3226367913e-05
-2.18373256661e-08
3.32400685004e-05
-2.71909495575e-08
3.32571394814e-05
-3.38703127786e-08
3.32784192247e-05
-4.22109156097e-08
3.33049605352e-05
-5.26363586019e-08
3.33380879503e-05
-6.56840191138e-08
3.33794708382e-05
-8.20396002259e-08
3.34312202119e-05
-1.02581919564e-07
3.34960174047e-05
-1.28444408457e-07
3.35772847291e-05
-1.61103431582e-07
3.36794167321e-05
-2.02502936651e-07
3.38081010021e-05
-2.55234401127e-07
3.39707724563e-05
-3.2281139283e-07
3.41772760731e-05
-4.10102069717e-07
3.44408652445e-05
-5.24039676457e-07
3.47797604951e-05
-6.74865498214e-07
3.52196660889e-05
-8.78429632982e-07
3.57978855154e-05
-1.16071002785e-06
3.6569837713e-05
-1.56710185717e-06
3.76181066546e-05
-2.18196754001e-06
3.90596430435e-05
-3.16845439215e-06
4.10261957241e-05
-4.84222113414e-06
4.35175264585e-05
-7.79106088403e-06
-1.29313208921e-05
4.58855522569e-05
5.35706274738e-05
8.95197027951e-06
5.55869505032e-05
1.58493666166e-05
5.52430959934e-05
1.62523307753e-05
5.36024627063e-05
1.40403310848e-05
5.15526122288e-05
1.11430105092e-05
4.95991934612e-05
8.42997137697e-06
4.79542948539e-05
6.19265799855e-06
4.66624981231e-05
4.45501086779e-06
4.56928416479e-05
3.14873693675e-06
4.4988961271e-05
2.18685418214e-06
4.44923378171e-05
1.48954019955e-06
4.41514484559e-05
9.91225853316e-07
4.39242854087e-05
6.40602562343e-07
4.37780741954e-05
3.98407263462e-07
4.36880031679e-05
2.34914233505e-07
4.36357441933e-05
1.27756209956e-07
4.36080754915e-05
6.02009437313e-08
4.35957084646e-05
1.98390515774e-08
4.35922857262e-05
-2.42044940241e-09
4.35936532026e-05
-1.31304296566e-08
4.35971864037e-05
-1.68365315852e-08
4.36013415576e-05
-1.66410153146e-08
4.36052898535e-05
-1.45486375539e-08
4.36086549487e-05
-1.17819249595e-08
4.36113281263e-05
-9.02603727698e-09
4.36133438068e-05
-6.615154977e-09
4.3614801041e-05
-4.66829349119e-09
4.36158172809e-05
-3.1841673941e-09
4.36165031505e-05
-2.10348144846e-09
4.3616951874e-05
-1.34650691061e-09
4.36172365996e-05
-8.34348423616e-10
4.36174116934e-05
-4.98804621295e-10
4.36175156295e-05
-2.86208296259e-10
4.36175748339e-05
-1.55888891713e-10
4.36176068124e-05
-7.88295714158e-11
4.36176228468e-05
-3.51648410934e-11
4.36176299986e-05
-1.17744840666e-11
4.36176326453e-05
-5.42578747658e-13
4.36176327383e-05
4.43899640862e-12
4.36176318813e-05
5.82729877431e-12
4.3617630704e-05
5.53088390468e-12
4.36176295401e-05
4.58060075766e-12
4.36176285481e-05
3.53699168473e-12
4.36176277177e-05
2.59941076731e-12
4.36176270451e-05
1.7938539485e-12
4.36176265889e-05
1.13251113217e-12
4.36176263681e-05
5.5261670633e-13
4.36176262729e-05
9.1909041699e-14
4.3617626255e-05
-2.20174566626e-13
4.36176262653e-05
-3.87399084691e-13
4.36176262624e-05
-5.17314327139e-13
4.36176262415e-05
-6.23368131956e-13
4.36176262435e-05
-7.44031218725e-13
4.36176262733e-05
-8.79604661486e-13
4.361762632e-05
-1.02405880109e-12
4.36176263835e-05
-1.16539096851e-12
4.36176264603e-05
-1.2861210582e-12
4.36176265366e-05
-1.37947417144e-12
4.36176265957e-05
-1.45576977225e-12
4.36176266357e-05
-1.52635104198e-12
4.36176266639e-05
-1.58819906526e-12
4.36176266945e-05
-1.62981049776e-12
4.36176267472e-05
-1.64663080173e-12
4.36176268426e-05
-1.64936517754e-12
4.36176269821e-05
-1.66278193984e-12
4.36176271476e-05
-1.71033020627e-12
4.36176273215e-05
-1.80763072593e-12
4.36176274787e-05
-1.95787018355e-12
4.36176276237e-05
-2.1445178474e-12
4.36176277646e-05
-2.33667564134e-12
4.36176279044e-05
-2.50048436564e-12
4.36176280428e-05
-2.616399546e-12
4.36176281836e-05
-2.69159362418e-12
4.36176283369e-05
-2.75630791276e-12
4.36176285138e-05
-2.84468930013e-12
4.36176287164e-05
-2.97305489468e-12
4.36176289315e-05
-3.13170634717e-12
4.36176291352e-05
-3.29412738369e-12
4.36176293085e-05
-3.4336510908e-12
4.36176294578e-05
-3.53632694634e-12
4.36176296234e-05
-3.60543427144e-12
4.36176298586e-05
-3.66128864092e-12
4.36176301877e-05
-3.73739632605e-12
4.36176305812e-05
-3.868904047e-12
4.36176309781e-05
-4.0761100385e-12
4.36176313445e-05
-4.35466471066e-12
4.36176317153e-05
-4.67926817852e-12
4.36176321816e-05
-5.01998901692e-12
4.36176328276e-05
-5.36059117912e-12
4.36176336721e-05
-5.71104009372e-12
4.36176346637e-05
-6.10457015227e-12
4.36176357432e-05
-6.57541763046e-12
4.36176369241e-05
-7.13575035665e-12
4.3617638317e-05
-7.77904446216e-12
4.3617640073e-05
-8.51709371793e-12
4.36176422876e-05
-9.41609220541e-12
4.36176449848e-05
-1.05881844353e-11
4.36176481987e-05
-1.21375751275e-11
4.36176520867e-05
-1.41005287241e-11
4.36176569651e-05
-1.64499733944e-11
4.361766278e-05
-1.92090278838e-11
4.36176698525e-05
-2.24856952236e-11
4.36176784087e-05
-2.65437563621e-11
4.36176887639e-05
-3.16911257203e-11
4.36177014109e-05
-3.8167023292e-11
4.36177170264e-05
-4.61680977508e-11
4.36177363496e-05
-5.59816131264e-11
4.36177601672e-05
-6.80852946743e-11
4.36177894639e-05
-8.31499648488e-11
4.36178255962e-05
-1.01946809912e-10
4.36178703965e-05
-1.25412072163e-10
4.36179260337e-05
-1.5455697685e-10
4.36179949919e-05
-1.90646692823e-10
4.36180803635e-05
-2.3548329158e-10
4.36181861521e-05
-2.91307705115e-10
4.3618317452e-05
-3.60772650591e-10
4.36184805044e-05
-4.4710876327e-10
4.36186829039e-05
-5.54368457985e-10
4.3618934104e-05
-6.8761881138e-10
4.36192460327e-05
-8.53153267227e-10
4.36196336088e-05
-1.05878977644e-09
4.36201152309e-05
-1.31436130483e-09
4.3620713693e-05
-1.63219427879e-09
4.36214574696e-05
-2.02756403292e-09
4.36223821468e-05
-2.51932928017e-09
4.3623531772e-05
-3.13110650147e-09
4.362496094e-05
-3.8924448912e-09
4.36267378737e-05
-4.83985574427e-09
4.36289478188e-05
-6.01849469245e-09
4.36316968605e-05
-7.48457796728e-09
4.36351167329e-05
-9.30849743735e-09
4.36393715147e-05
-1.15782020978e-08
4.364466601e-05
-1.44032273301e-08
4.3651255554e-05
-1.79201834411e-08
4.36594582116e-05
-2.22999057974e-08
4.36696708004e-05
-2.7756025315e-08
4.36823891204e-05
-3.45557126149e-08
4.36982326049e-05
-4.30341084964e-08
4.37179753916e-05
-5.3612782197e-08
4.37425865779e-05
-6.68222994265e-08
4.37732813435e-05
-8.33316877043e-08
4.38115854987e-05
-1.03988753091e-07
4.38594187245e-05
-1.29873105683e-07
4.391920241e-05
-1.62365318991e-07
4.39939997625e-05
-2.03241541821e-07
4.40877014064e-05
-2.54805674853e-07
4.420527314e-05
-3.20075183568e-07
4.43530884243e-05
-4.03049497394e-07
4.45393853782e-05
-5.09108562282e-07
4.47749068135e-05
-6.45624016158e-07
4.50738036852e-05
-8.22936370931e-07
4.54549169837e-05
-1.05597850804e-06
4.59435733676e-05
-1.36708646348e-06
4.6573910595e-05
-1.79104727569e-06
4.73911427183e-05
-2.38433327655e-06
4.84510886509e-05
-3.24191540588e-06
4.98084547241e-05
-4.52582006462e-06
5.14709351873e-05
-6.50470154012e-06
5.32645775385e-05
-9.58470262963e-06
-1.42242235632e-05
5.4557479403e-05
5.27607394958e-05
6.1912301032e-06
5.57408884895e-05
1.28692183081e-05
5.73142522613e-05
1.46789669019e-05
5.76153040049e-05
1.3739279317e-05
5.714175198e-05
1.16165624693e-05
5.63335837115e-05
9.23813986175e-06
5.54712612733e-05
7.05498040917e-06
5.46958769477e-05
5.23039510214e-06
5.40597524449e-05
3.78486143297e-06
5.35678100835e-05
2.67879644779e-06
5.32035693151e-05
1.85378101401e-06
5.29434665836e-05
1.25132868054e-06
5.27638953917e-05
8.20173921075e-07
5.2644180228e-05
5.18122554211e-07
5.25674717127e-05
3.11622902038e-07
5.25206697315e-05
1.74557926068e-07
5.24939544124e-05
8.69165948036e-08
5.24802015326e-05
3.35918844496e-08
5.24743865108e-05
3.39450203271e-09
5.24731442425e-05
-1.18882253554e-08
5.24742558927e-05
-1.79483704124e-08
5.24763639442e-05
-1.87490991168e-08
5.24786874613e-05
-1.68722165092e-08
5.24808239498e-05
-1.39186022871e-08
5.24826047353e-05
-1.08070628183e-08
5.24839949345e-05
-8.0055990567e-09
5.24850279575e-05
-5.70158470733e-09
5.24857654098e-05
-3.92163749067e-09
5.24862739482e-05
-2.61167108206e-09
5.24866136793e-05
-1.68586019068e-09
5.24868340056e-05
-1.05431260547e-09
5.24869724983e-05
-6.37468052052e-10
5.24870570409e-05
-3.70833124147e-10
5.24871069179e-05
-2.0580961172e-10
5.24871351508e-05
-1.07205476377e-10
5.24871503296e-05
-5.05867903965e-11
5.24871580022e-05
-1.9635092155e-11
5.24871613329e-05
-3.94623838954e-12
5.24871625688e-05
3.25253632055e-12
5.24871626899e-05
5.85405590404e-12
5.24871623259e-05
6.14608937098e-12
5.2487161826e-05
5.38157542853e-12
5.24871613263e-05
4.21882582344e-12
5.24871608465e-05
3.01546892364e-12
5.24871604536e-05
1.99932400675e-12
5.2487160155e-05
1.24632730187e-12
5.24871598923e-05
7.25240605881e-13
5.24871596606e-05
3.88481924939e-13
5.24871595033e-05
1.27754838027e-13
5.24871594385e-05
-1.32465495097e-13
5.24871593702e-05
-3.51798151995e-13
5.24871592938e-05
-5.37256580974e-13
5.24871592298e-05
-6.88655473517e-13
5.2487159187e-05
-8.27022024584e-13
5.24871591582e-05
-9.73046053221e-13
5.24871591491e-05
-1.11867522125e-12
5.24871591493e-05
-1.24190966418e-12
5.24871591355e-05
-1.33860159903e-12
5.24871590926e-05
-1.42240864634e-12
5.24871590254e-05
-1.49811241744e-12
5.24871589489e-05
-1.55511896278e-12
5.24871588734e-05
-1.58584229875e-12
5.24871588085e-05
-1.59502667736e-12
5.24871587591e-05
-1.59900732888e-12
5.24871587288e-05
-1.61883963789e-12
5.24871587049e-05
-1.67473845025e-12
5.24871586737e-05
-1.78175760426e-12
5.24871586333e-05
-1.94272008674e-12
5.24871585944e-05
-2.13551352873e-12
5.24871585656e-05
-2.32070245661e-12
5.24871585406e-05
-2.46249451889e-12
5.24871585018e-05
-2.5503102282e-12
5.24871584378e-05
-2.60574927986e-12
5.24871583562e-05
-2.66897306628e-12
5.24871582794e-05
-2.77348537147e-12
5.24871582253e-05
-2.9258480299e-12
5.24871581912e-05
-3.1029533714e-12
5.24871581523e-05
-3.26871003603e-12
5.2487158081e-05
-3.3968200996e-12
5.24871579723e-05
-3.4838861034e-12
5.24871578546e-05
-3.54780749763e-12
5.24871577723e-05
-3.61903794936e-12
5.24871577486e-05
-3.73155837053e-12
5.24871577635e-05
-3.91185398914e-12
5.24871577723e-05
-4.16711811438e-12
5.24871577531e-05
-4.48176550269e-12
5.24871577428e-05
-4.82902973952e-12
5.24871578235e-05
-5.19115460756e-12
5.24871580627e-05
-5.57340316471e-12
5.2487158464e-05
-6.00344871291e-12
5.24871589761e-05
-6.51801946647e-12
5.24871595558e-05
-7.14387964991e-12
5.24871602318e-05
-7.88697799814e-12
5.24871611086e-05
-8.74947108159e-12
5.24871623059e-05
-9.76913034787e-12
5.24871638915e-05
-1.10374563395e-11
5.24871658934e-05
-1.2669641511e-11
5.24871683726e-05
-1.47484412796e-11
5.24871714865e-05
-1.72924067172e-11
5.24871754599e-05
-2.03383941699e-11
5.24871805341e-05
-2.4026832963e-11
5.2487186872e-05
-2.85598157024e-11
5.24871946741e-05
-3.42548214264e-11
5.24872043323e-05
-4.14281757168e-11
5.24872164216e-05
-5.03402934821e-11
5.24872316279e-05
-6.12792925332e-11
5.2487250654e-05
-7.47358145465e-11
5.24872742717e-05
-9.14488094212e-11
5.24873035517e-05
-1.12316558797e-10
5.24873399573e-05
-1.3832689344e-10
5.24873852915e-05
-1.7063269364e-10
5.24874416341e-05
-2.10694579464e-10
5.24875115014e-05
-2.60411336836e-10
5.24875981006e-05
-3.22246199553e-10
5.24877056117e-05
-3.99176174736e-10
5.2487839299e-05
-4.94774091078e-10
5.24880055528e-05
-6.13492689016e-10
5.24882121599e-05
-7.6096892082e-10
5.24884688276e-05
-9.44246716774e-10
5.2488787828e-05
-1.17207755604e-09
5.24891844425e-05
-1.45528526278e-09
5.24896775477e-05
-1.80738810575e-09
5.24902906456e-05
-2.24527733894e-09
5.24910530678e-05
-2.78990858444e-09
5.24920013026e-05
-3.46734832536e-09
5.24931805492e-05
-4.31021641226e-09
5.24946469706e-05
-5.35911476954e-09
5.24964708801e-05
-6.66420211493e-09
5.24987400256e-05
-8.28775994248e-09
5.25015634105e-05
-1.03076624459e-08
5.25050765131e-05
-1.28213071359e-08
5.25094482896e-05
-1.59499674807e-08
5.2514889559e-05
-1.98445423754e-08
5.25216629469e-05
-2.46934636425e-08
5.2530095653e-05
-3.07324696522e-08
5.25405959101e-05
-3.8256184884e-08
5.25536731802e-05
-4.76329442772e-08
5.25699631891e-05
-5.93243940106e-08
5.25902600733e-05
-7.39102311596e-08
5.26155568698e-05
-9.21192959677e-08
5.26470956212e-05
-1.14870224328e-07
5.26864313606e-05
-1.43324714733e-07
5.27355146601e-05
-1.78956965178e-07
5.27967955409e-05
-2.23646240165e-07
5.28733555715e-05
-2.79801521716e-07
5.29690800852e-05
-3.50530569979e-07
5.30888808736e-05
-4.3987604905e-07
5.32389832175e-05
-5.53151473498e-07
5.34273000938e-05
-6.97425183613e-07
5.36639166092e-05
-8.8224087813e-07
5.39617032495e-05
-1.12072349695e-06
5.43370445039e-05
-1.43131917388e-06
5.48105644624e-05
-1.84060672197e-06
5.54074280848e-05
-2.38791039378e-06
5.61559439957e-05
-3.13284786176e-06