/*--------------------------------*- C++ -*----------------------------------*\
| =========                 |                                                 |
| \\      /  F ield         | OpenFOAM: The Open Source CFD Toolbox           |
|  \\    /   O peration     | Version:  2106                                  |
|   \\  /    A nd           | Website:  www.openfoam.com                      |
|    \\/     M anipulation  |                                                 |
\*---------------------------------------------------------------------------*/
FoamFile
{
    version     2.0;
    format      ascii;
    arch        "LSB;label=32;scalar=64";
    class       volScalarField;
    location    "0.15";
    object      p;
}
// * * * * * * * * * * * * * * * * * * * * * * * * * * * * * * * * * * * * * //

dimensions      [0 2 -2 0 0 0 0];

internalField   nonuniform List<scalar> 
9600
(
2.21353653641
-0.684473280695
-1.58870481379
-1.9743159477
-2.19364719833
-2.33359012867
-2.4374956268
-2.52504565013
-2.60454533813
-2.67993593459
-2.7533103514
-2.82581942847
-2.89809288022
-2.97046165331
-3.04308227295
-3.11601053823
-3.18924654588
-3.26276195913
-3.33651648557
-3.41046724826
-3.48457350066
-3.55880081864
-3.63311873637
-3.70750304971
-3.78193446652
-3.85639792063
-3.93088178054
-4.00537714358
-4.07987719606
-4.15437668303
-4.2288715088
-4.30335842114
-4.37783475923
-4.45229821376
-4.52674669495
-4.60117823154
-4.67559089413
-4.74998274256
-4.82435176277
-4.898695808
-4.97301258964
-5.04729969304
-5.12155454482
-5.19577428825
-5.26995586581
-5.3440960006
-5.41819117278
-5.49223761934
-5.56623126324
-5.6401676908
-5.71404215133
-5.78784954518
-5.86158443646
-5.93524105156
-6.00881318353
-6.08229410893
-6.1556766287
-6.22895310424
-6.30211542285
-6.37515493627
-6.44806238565
-6.52082786395
-6.59344080763
-6.66588998566
-6.73816347234
-6.81024861278
-6.88213198752
-6.95379937046
-7.02523567759
-7.09642488513
-7.16734997574
-7.23799297168
-7.30833493525
-7.37835590785
-7.44803482046
-7.5173493928
-7.58627608477
-7.65479017767
-7.72286577479
-7.79047561842
-7.85759096407
-7.92418163943
-7.99021610916
-8.05566135499
-8.12048271379
-8.1846439286
-8.24810722601
-8.31083316403
-8.3727804469
-8.4339059836
-8.49416501108
-8.553510992
-8.61189547717
-8.6692681032
-8.72557661492
-8.78076683681
-8.83478258344
-8.88756567209
-8.93905599629
-8.98919153617
-9.03790831397
-9.08514020933
-9.13081901505
-9.17487460587
-9.21723495198
-9.25782608559
-9.29657202759
-9.33339496993
-9.36821528509
-9.40095135249
-9.43151978604
-9.45983562925
-9.48581233331
-9.50936148388
-9.53039306444
-9.54881597406
-9.56453778272
-9.57746447529
-9.58750077331
-9.59455056794
-9.59851687039
-9.5993016348
-9.59680591378
-9.59093023606
-9.5815750821
-9.56864006804
-9.55202350349
-9.53162382608
-9.50733927678
-9.47906803215
-9.44670779622
-9.41015585996
-9.36930911786
-9.32406419117
-9.27431678017
-9.21996106986
-9.16089011832
-9.09699494218
-9.02816322714
-8.95427909848
-8.87522162715
-8.79086276664
-8.70106558601
-8.60568117379
-8.5045450051
-8.39747223389
-8.2842512939
-8.16463434961
-8.03832565323
-7.90496342672
-7.76409192344
-7.61512005665
-7.45724871971
-7.28934651499
-7.10973344232
-6.91586421423
-6.70384531466
-6.46783099077
-6.20840931972
-5.99179944483
0.301995258875
-0.880358928802
-1.48903265968
-1.84305758504
-2.0856742396
-2.25623750095
-2.38430950006
-2.48881258245
-2.57988859326
-2.6631674999
-2.74194095639
-2.81815846286
-2.89297935066
-2.96709191683
-3.04089821251
-3.11462482715
-3.18839156823
-3.26225422176
-3.33623142439
-3.41032139286
-3.4845124876
-3.55878822237
-3.63313197589
-3.70752843132
-3.78196393834
-3.85642702698
-3.9309082992
-4.0054001886
-4.0798966697
-4.15439292039
-4.22888502714
-4.30336976594
-4.377844441
-4.45230668546
-4.52675435005
-4.60118541413
-4.67559789099
-4.74998978301
-4.82435904412
-4.89870350406
-4.97302084497
-5.04730862165
-5.12156418289
-5.19578471902
-5.26996720496
-5.34410834581
-5.41820458042
-5.49225210974
-5.56624687141
-5.64018450829
-5.71406032021
-5.78786923106
-5.86160575894
-5.93526406126
-6.0088379384
-6.08232074686
-6.15570534129
-6.22898406599
-6.30214876568
-6.37519077572
-6.44810085821
-6.52086913856
-6.59348507384
-6.66593744627
-6.73821434651
-6.81030312968
-6.88219035802
-6.95386177427
-7.02530230828
-7.09649599924
-7.16742588104
-7.23807398422
-7.30842133715
-7.37844793498
-7.44813271911
-7.51745350484
-7.58638683284
-7.65490792264
-7.72299076557
-7.79060813468
-7.85773142678
-7.92433051329
-7.99037378641
-8.05582821453
-8.12065919341
-8.18483045654
-8.24830417542
-8.31104094438
-8.37299957076
-8.43413698465
-8.49440836363
-8.55376714958
-8.61216492013
-8.66955131825
-8.72587407352
-8.78107903034
-8.83511006143
-8.88790903157
-8.93941583297
-8.98956835417
-9.03830254785
-9.08555236449
-9.1312496924
-9.17532439764
-9.21770438575
-9.25831569651
-9.29708234203
-9.33392644266
-9.36876839095
-9.40152658489
-9.43211740645
-9.46045583417
-9.48645540996
-9.51002796816
-9.53108346021
-9.54953053345
-9.56527676249
-9.57822836145
-9.58829011933
-9.59536577476
-9.59935833783
-9.60016989801
-9.59770159593
-9.59185382414
-9.58252604706
-9.56961767901
-9.5530286766
-9.53265790036
-9.50840390153
-9.48016532589
-9.44784058784
-9.41132788408
-9.3705250023
-9.32532957306
-9.27563904682
-9.22134956084
-9.16235634096
-9.09855347114
-9.02983229529
-8.9560812972
-8.87718519231
-8.79302303367
-8.70346699833
-8.60837988369
-8.50761215073
-8.4009982876
-8.28835253652
-8.16946172859
-8.04407736871
-7.91190514108
-7.77258843753
-7.62568985468
-7.47066403175
-7.30682807401
-7.13333962363
-6.94926733713
-6.75385186628
-6.5463595159
-6.32728080226
-6.11979949131
-0.673846642666
-1.15521476557
-1.54647287715
-1.83808932112
-2.05966319714
-2.22759920115
-2.35970114518
-2.46949015796
-2.56534925191
-2.6524943183
-2.734236974
-2.81267188522
-2.88911934276
-2.96440901352
-3.03905717013
-3.11337910361
-3.1875619396
-3.26171184425
-3.3358847204
-3.41010600882
-3.4843835194
-3.55871517069
-3.63309415865
-3.70751209735
-3.78196016138
-3.85643014034
-3.93091481552
-4.0054080329
-4.0799046633
-4.15440046164
-4.22889188402
-4.30337591232
-4.37784994286
-4.45231165015
-4.52675889845
-4.60118966767
-4.67560196741
-4.74999378408
-4.82436305029
-4.89870758759
-4.97302505934
-5.04731299121
-5.12156875828
-5.19578954952
-5.26997233338
-5.34411383913
-5.41821053556
-5.49225861885
-5.56625399472
-5.64019223155
-5.71406863739
-5.78787819152
-5.86161545135
-5.93527454488
-6.00884922883
-6.08233286318
-6.15571834394
-6.22899805143
-6.30216382916
-6.37520697761
-6.4481182395
-6.52088775393
-6.59350500859
-6.66595880465
-6.73823723245
-6.81032764772
-6.88221662351
-6.95388989541
-7.02533236675
-7.09652807862
-7.1674600832
-7.23811045609
-7.30846024281
-7.37848942405
-7.44817688339
-7.51750041793
-7.58643664999
-7.65496086704
-7.72304701645
-7.79066780346
-7.85779464073
-7.92439745578
-7.99044463667
-8.055903134
-8.12073839886
-8.18491420606
-8.24839264814
-8.31113422696
-8.37309780605
-8.43424043103
-8.49451728491
-8.5538817521
-8.61228539324
-8.66967786519
-8.72600689338
-8.78121830356
-8.83525598114
-8.88806182751
-8.93957575627
-8.98973557106
-9.0384771829
-9.08573453425
-9.13143955562
-9.17552216059
-9.21791025133
-9.25852984096
-9.29730495491
-9.33415766825
-9.36900835733
-9.40177566193
-9.43237637768
-9.46072517566
-9.4867353468
-9.51031881032
-9.5313856892
-9.54984456861
-9.56560293298
-9.57856711305
-9.58864204594
-9.59573153488
-9.59973858676
-9.60056538769
-9.59811328538
-9.59228308845
-9.58297508129
-9.5700889641
-9.55352425055
-9.53318009414
-9.50895536099
-9.48074906513
-9.44846021109
-9.41198785215
-9.3712307804
-9.32608761885
-9.2764572145
-9.22223767657
-9.16332636871
-9.09962020429
-9.03101425433
-8.95740132937
-8.87867163395
-8.79471120361
-8.7054009054
-8.61061472273
-8.51021760595
-8.40406265052
-8.29198841021
-8.17381441152
-8.04933622703
-7.91832068028
-7.78049854272
-7.63556056709
-7.48315549106
-7.32290219798
-7.1544308742
-6.97751258421
-6.79237656778
-6.59986906773
-6.40148106266
-6.20622273043
-1.22530675566
-1.41165327373
-1.65410005302
-1.87656824025
-2.06375919249
-2.21778722363
-2.34622479752
-2.4565157587
-2.55431080488
-2.64367123917
-2.72744274773
-2.80756983911
-2.88535996128
-2.96168223443
-3.03710715736
-3.11200336092
-3.18660448862
-3.26105493878
-3.33544092702
-3.4098113349
-3.48419166047
-3.55859316134
-3.63301928361
-3.70746798009
-3.78193581419
-3.85641817625
-3.93091035053
-4.00540791509
-4.07990689409
-4.15440380764
-4.22889562694
-4.30337966569
-4.37785351596
-4.45231497633
-4.52676198148
-4.60119254753
-4.67560470291
-4.74999643043
-4.82436565435
-4.89871021202
-4.97302777954
-5.04731586623
-5.12157182737
-5.19579282953
-5.26997582679
-5.34411755315
-5.41821448299
-5.4922628074
-5.5662584406
-5.64019699782
-5.71407375076
-5.78788366369
-5.86162132836
-5.93528089667
-6.00885610673
-6.08234029618
-6.15572634216
-6.22900664086
-6.30217306746
-6.37521693687
-6.44812897396
-6.52089930076
-6.59351738946
-6.66597203884
-6.73825135667
-6.81034271605
-6.88223271261
-6.95390711064
-7.02535078613
-7.09654771405
-7.16748098906
-7.23813269644
-7.30848391345
-7.37851465082
-7.44820376898
-7.51752899547
-7.5864669479
-7.65499298543
-7.72308109028
-7.79070393715
-7.85783292441
-7.92443800647
-7.99048756302
-8.05594849195
-8.12078625803
-8.18496473466
-8.24844604729
-8.31119060473
-8.3731572177
-8.43430298647
-8.49458313654
-8.55395104416
-8.61235826793
-8.66975448433
-8.72608743141
-8.7813029109
-8.83534478779
-8.88815498537
-8.93967346663
-8.98983818023
-9.03858494215
-9.08584764217
-9.13155820171
-9.17564655404
-9.21804061217
-9.25866639926
-9.29744800648
-9.33430748796
-9.36916507803
-9.40193932808
-9.43254699492
-9.46090295586
-9.48692044275
-9.51051134415
-9.53158597165
-9.55005297743
-9.56581976288
-9.57879265205
-9.58887673388
-9.59597592308
-9.59999326986
-9.60083106105
-9.59839077814
-9.5925732967
-9.58327911542
-9.570408183
-9.55386032729
-9.53353530678
-9.50933261073
-9.48115180842
-9.44889260204
-9.41245492198
-9.37173884897
-9.32664433117
-9.27707175336
-9.22292141933
-9.16409309629
-9.1004866527
-9.03200114082
-8.95853411316
-8.87998160404
-8.79623703132
-8.70719049308
-8.61272757399
-8.51272795334
-8.40706384966
-8.29559833014
-8.17818317835
-8.05465694607
-7.92484400013
-7.7885539331
-7.64558654248
-7.49574198084
-7.33884612142
-7.17479998269
-7.00367386597
-6.82588249264
-6.64224772495
-6.45381057436
-6.26379682475
-1.5626517978
-1.61441553907
-1.7583101376
-1.92260352066
-2.07693658307
-2.21499465902
-2.33714858521
-2.44593729005
-2.54438183678
-2.63521236881
-2.72062038604
-2.8022587503
-2.88132908926
-2.95868322664
-3.03491290976
-3.11042184296
-3.18548065944
-3.26026745916
-3.33489700688
-3.4094413491
-3.48394423142
-3.55843099491
-3.63291544147
-3.70740330644
-3.7818970986
-3.85639632849
-3.93089917848
-4.00540330219
-4.07990616235
-4.1544052438
-4.22889816096
-4.30338266107
-4.37785661726
-4.45231800875
-4.52676487652
-4.60119529816
-4.67560734661
-4.74999902054
-4.82436823178
-4.89871281425
-4.97303045825
-5.04731867046
-5.12157480351
-5.19579602751
-5.26997928919
-5.3441213087
-5.41821856365
-5.49226726621
-5.56626334554
-5.64020238974
-5.7140796309
-5.78789000896
-5.86162813941
-5.93528821282
-6.00886397135
-6.08234873846
-6.15573539668
-6.22901634773
-6.30218347531
-6.37522809129
-6.44814092441
-6.52091209764
-6.59353109339
-6.6659867322
-6.73826712018
-6.81035960718
-6.88225079002
-6.95392645079
-7.02537146975
-7.0965698314
-7.16750461008
-7.23815789286
-7.30851076024
-7.3785432402
-7.44823422364
-7.51756143074
-7.58650142155
-7.65502955355
-7.72311988679
-7.79074511699
-7.8578765732
-7.92448420496
-7.99053646798
-8.05600025279
-8.12084095923
-8.1850224582
-8.24850692894
-8.31125483107
-8.37322492478
-8.43437424428
-8.49465803523
-8.55402971073
-8.61244084057
-8.66984110546
-8.72617824228
-8.78139804865
-8.83544438986
-8.88825915835
-8.9397822673
-8.98995164328
-9.03870318581
-9.08597077812
-9.13168630947
-9.17577970906
-9.21817890999
-9.25880992323
-9.29759688447
-9.33446193776
-9.36932527937
-9.40210541783
-9.43271918561
-9.46108156137
-9.48710573206
-9.51070346845
-9.53178516656
-9.55025962742
-9.56603423638
-9.57901531074
-9.58910804004
-9.59621646886
-9.60024368973
-9.60109213263
-9.5986634921
-9.59285879228
-9.58357876245
-9.57072370063
-9.55419368804
-9.5338889445
-9.50970956898
-9.48155575321
-9.44932796335
-9.41292705764
-9.37225435245
-9.32721126465
-9.27769987454
-9.22362280755
-9.16488249863
-9.10138187483
-9.03302403198
-8.95971150075
-8.88134633818
-8.79782944513
-8.70906023319
-8.61493602366
-8.51535098531
-8.41019585976
-8.29935725024
-8.18271686641
-8.06015217473
-7.93153778306
-7.79674847559
-7.65566788951
-7.50820217258
-7.35430422268
-7.1940115005
-7.02749617806
-6.85512356285
-6.67739532983
-6.49464998584
-6.30740211786
-1.76672586436
-1.7617479459
-1.84572294626
-1.96651235845
-2.09315544024
-2.21583551243
-2.33073265715
-2.4369291795
-2.53521267878
-2.62700226337
-2.71376353285
-2.79677904968
-2.87708348854
-2.95547052058
-3.03252815313
-3.1086809068
-3.18422889672
-3.25938038294
-3.33427736849
-3.4090149207
-3.48365541641
-3.55823878469
-3.63278980023
-3.70732365472
-3.78184804765
-3.85636744016
-3.93088328723
-4.00539556625
-4.07990339248
-4.15440537587
-4.22889987256
-4.30338513517
-4.37785938347
-4.45232081968
-4.52676761308
-4.60119791137
-4.67560983774
-4.75000143406
-4.82437062386
-4.89871521959
-4.97303290477
-5.04732119577
-5.1215774402
-5.19579880798
-5.26998225463
-5.34412449927
-5.4182219901
-5.49227090546
-5.56626717029
-5.64020642119
-5.71408394384
-5.78789465864
-5.86163313221
-5.93529357452
-6.00886975448
-6.0823550023
-6.15574218645
-6.22902369144
-6.30219138867
-6.37523659418
-6.44815004264
-6.52092186379
-6.59354155466
-6.66599794102
-6.73827912751
-6.81037245757
-6.88226450888
-6.95394106597
-7.02538704303
-7.09658644077
-7.16752232709
-7.23817678674
-7.30853087836
-7.37856461941
-7.44825693675
-7.5175855711
-7.58652706087
-7.65505675879
-7.72314873865
-7.79077568782
-7.85790891777
-7.92451839553
-7.99057263315
-8.05603854152
-8.120881455
-8.18506518892
-8.24855196544
-8.31130230677
-8.37327498245
-8.43442701681
-8.49471364227
-8.55408825096
-8.612502418
-8.66990584427
-8.72624628075
-8.78146954496
-8.83551952136
-8.88833809523
-8.93986513844
-8.99003857163
-9.03879433277
-9.08606633277
-9.13178645339
-9.17588458623
-9.21828867126
-9.25892470339
-9.29771680194
-9.33458716541
-9.36945599507
-9.40224175861
-9.43286129074
-9.46122965156
-9.48726009343
-9.51086429399
-9.53195268635
-9.55043421275
-9.56621627706
-9.57920519685
-9.58930627948
-9.59642372136
-9.60046069848
-9.60131970984
-9.59890268666
-9.59311085748
-9.58384518834
-9.57100633408
-9.5544946975
-9.53421092243
-9.51005571657
-9.48192989616
-9.44973478367
-9.41337219856
-9.37274463477
-9.32775501076
-9.27830704065
-9.22430558915
-9.1656558606
-9.10226382135
-9.03403641614
-8.96088099155
-8.88270543862
-8.79941780284
-8.71092614934
-8.6171388193
-8.51796336914
-8.41330706354
-8.30307736822
-8.18718160938
-8.06552934068
-7.9380348416
-7.80462137429
-7.66522997751
-7.5198315524
-7.36844426388
-7.21115539183
-7.04813892479
-6.87965349328
-6.7059451974
-6.52697687152
-6.34237033634
-1.88985474654
-1.86439895658
-1.91375809683
-2.00391800478
-2.10884284696
-2.21816541163
-2.32600267035
-2.4292266795
-2.52690089545
-2.61929176785
-2.70716352051
-2.79140781152
-2.87286343848
-2.95224168312
-3.03010974258
-3.10690195793
-3.18294129029
-3.25846238186
-3.333632446
-3.4085685542
-3.48335129032
-3.55803511426
-3.63265612393
-3.70723795666
-3.78179457464
-3.85633539997
-3.93086517957
-4.00538627911
-4.07989952889
-4.15440472521
-4.22890101597
-4.30338718588
-4.37786181415
-4.45232334342
-4.52677009224
-4.6012002822
-4.67561208296
-4.75000358219
-4.82437272518
-4.89871730697
-4.97303500443
-5.04732334768
-5.12157968455
-5.19580117205
-5.26998475728
-5.34412716456
-5.41822485939
-5.49227401327
-5.5662705319
-5.64021006485
-5.71408790502
-5.78789894828
-5.86163775405
-5.93529851762
-6.00887502552
-6.0823606283
-6.15574821335
-6.22903016428
-6.30219833844
-6.37524404328
-6.44815801386
-6.52093039167
-6.59355068364
-6.66600771618
-6.73828959842
-6.81038367885
-6.8822765252
-6.95395391197
-7.02540076052
-7.09660107939
-7.16753794615
-7.23819345922
-7.30854866992
-7.37858356884
-7.44827708194
-7.51760698067
-7.58654981334
-7.65508091718
-7.72317436646
-7.79080286803
-7.85793772373
-7.92454886242
-7.99060480912
-8.05607253484
-8.12091738895
-8.1851031459
-8.24859199362
-8.31134445919
-8.37331933015
-8.43447364462
-8.49476265087
-8.55413973142
-8.61255644351
-8.6699624915
-8.72630564003
-8.78153170578
-8.83558456103
-8.88840612194
-8.93993626905
-8.99011288004
-9.03887188199
-9.08614721824
-9.13187081234
-9.17597254873
-9.2183803659
-9.25902026275
-9.29781634447
-9.3346908419
-9.36956400593
-9.40235427964
-9.432978465
-9.46135167189
-9.48738723548
-9.51099682478
-9.53209085311
-9.55057838001
-9.56636687002
-9.57936264435
-9.58947106233
-9.59659649242
-9.60064225175
-9.6015108971
-9.59910454501
-9.59332469881
-9.58407252629
-9.5712490479
-9.5547550418
-9.53449152799
-9.51035981069
-9.4822613977
-9.45009841101
-9.41377359095
-9.37319062169
-9.32825395223
-9.27886886271
-9.22494223694
-9.16638194382
-9.10309692194
-9.03499772073
-8.96199612714
-8.88400540987
-8.80094027685
-8.7127165435
-8.61925224062
-8.52046679496
-8.41628155654
-8.30662143911
-8.19141469139
-8.07059584637
-7.9441085852
-7.81191008127
-7.67397813137
-7.53031997796
-7.38098272387
-7.22606319291
-7.06570827775
-6.90009321606
-6.72933864911
-6.55333506157
-6.37167668688
-1.9638967386
-1.93284752395
-1.96277784937
-2.0325505439
-2.12171885182
-2.22059582304
-2.3224754295
-2.42294810171
-2.51987502474
-2.61262170791
-2.70135918399
-2.78662586192
-2.86907121005
-2.94931920148
-3.02790834841
-3.10527524282
-3.18175941493
-3.25761702674
-3.33303683779
-3.40815519422
-3.48306888695
-3.55784545
-3.63253125884
-3.70715785088
-3.78174427831
-3.85630503413
-3.93084782794
-4.00537721476
-4.07989557441
-4.15440379991
-4.22890179802
-4.30338885493
-4.37786386949
-4.45232549521
-4.52677220291
-4.60120230408
-4.6756140025
-4.75000540976
-4.82437449214
-4.89871904377
-4.97303673355
-5.04732510397
-5.12158151612
-5.19580311383
-5.26998681765
-5.34412933969
-5.41822716977
-5.49227650609
-5.56627322967
-5.64021293761
-5.71409094208
-5.78790219423
-5.8616412448
-5.93530227487
-6.00887908492
-6.08236500204
-6.15575292046
-6.22903523066
-6.30220378623
-6.37524989212
-6.44816428412
-6.52093710691
-6.59355787501
-6.6660154144
-6.73829782946
-6.8103924768
-6.88228592732
-6.95396394887
-7.02541146949
-7.09661250518
-7.16755012467
-7.23820642388
-7.30856246757
-7.37859824489
-7.44829267823
-7.51762355683
-7.58656742523
-7.65509958868
-7.72319412246
-7.79082378245
-7.85795989985
-7.92457235702
-7.99062962298
-8.05609869062
-8.12094497563
-8.18513227747
-8.24862274983
-8.31137688515
-8.37335346522
-8.43450954281
-8.49480040551
-8.55417944706
-8.6125981903
-8.67000633194
-8.72635166336
-8.78157999863
-8.83563517161
-8.88845910756
-8.93999173608
-8.9901709404
-9.03893260948
-9.08621065175
-9.13193703071
-9.17604166895
-9.21845249662
-9.25909550518
-9.297894762
-9.33477253458
-9.36964914875
-9.40244304573
-9.4330709932
-9.46144809577
-9.4874878158
-9.51110184439
-9.53220053004
-9.5506930222
-9.56648691512
-9.57948856142
-9.58960331756
-9.59673567265
-9.60078916305
-9.60166645012
-9.59926978165
-9.59350089858
-9.58426120603
-9.57145206914
-9.55497469227
-9.53473043017
-9.5106211386
-9.48254904783
-9.45041707006
-9.4141288279
-9.3735890731
-9.32870376715
-9.27937978815
-9.22552581238
-9.16705217252
-9.10387064308
-9.03589509999
-8.96304141675
-8.88522763489
-8.80237449454
-8.71440476963
-8.62124475428
-8.52282413123
-8.41907606162
-8.30993966529
-8.19535990325
-8.07529054631
-7.94969685414
-7.81855956685
-7.68188035813
-7.539687744
-7.39204327791
-7.23904524614
-7.08082410069
-6.91752248345
-6.74924409082
-6.57596822515
-6.39754450467
-2.00612974264
-1.97456640033
-1.99421108422
-2.05165725557
-2.13067072434
-2.22244949658
-2.32006746908
-2.4184554426
-2.51473727597
-2.60767148287
-2.69700429857
-2.78300851877
-2.86618461404
-2.94708400642
-3.026218461
-3.10402292143
-3.1808474814
-3.25696353967
-3.33257569038
-3.40783471156
-3.48284965176
-3.5576979971
-3.63243381882
-3.70709395059
-3.78170484951
-3.85628128502
-3.93083419474
-4.005370053
-4.07989241674
-4.15440300955
-4.22890233759
-4.30339009418
-4.37786542722
-4.4523271402
-4.52677381601
-4.6012038501
-4.67561547915
-4.75000681809
-4.82437584616
-4.89872037382
-4.97303806767
-5.04732645947
-5.12158291509
-5.19580458915
-5.26998839488
-5.34413101634
-5.41822893843
-5.49227838765
-5.56627526201
-5.64021514415
-5.71409331916
-5.78790473229
-5.86164395631
-5.9353051813
-6.00888218395
-6.08236832063
-6.15575647992
-6.22903904674
-6.30220787584
-6.37525427138
-6.44816897003
-6.52094212356
-6.59356324765
-6.66602116466
-6.7383039775
-6.81039904802
-6.88229294518
-6.95397143455
-7.02541945408
-7.09662103053
-7.16755922477
-7.23821611444
-7.30857276564
-7.37860918176
-7.4483042875
-7.51763588375
-7.5865805352
-7.65511352498
-7.72320887875
-7.79083935769
-7.85797635559
-7.92458977545
-7.99064804255
-8.05611811825
-8.12096542881
-8.18515380882
-8.24864543528
-8.31140079349
-8.37337863962
-8.43453599565
-8.49482816797
-8.55420859967
-8.61262880399
-8.67003843642
-8.72638529727
-8.78161524528
-8.83567209481
-8.88849772056
-8.94003207972
-8.99021311287
-9.03897671148
-9.08625672536
-9.13198510735
-9.17609182137
-9.21850483703
-9.25915014863
-9.29795175697
-9.3348319434
-9.36971111733
-9.4025077458
-9.43313855158
-9.4615186239
-9.4875615236
-9.51117905384
-9.53228147378
-9.55077792434
-9.56657617841
-9.57958267575
-9.58970281364
-9.59684111153
-9.6009012831
-9.60178616079
-9.59939813291
-9.59363919233
-9.58441094667
-9.5716150596
-9.55515318501
-9.53492709216
-9.51083911665
-9.4827921126
-9.45068981518
-9.4144367683
-9.37393867037
-9.32910286896
-9.27983784809
-9.22605396711
-9.16766382411
-9.10458184183
-9.0367249585
-8.96401285927
-8.88636784626
-8.8037159499
-8.71598624725
-8.6231122071
-8.52503230991
-8.42168978134
-8.31303539385
-8.19902763932
-8.07963563649
-7.95484131051
-7.82464301054
-7.68906021815
-7.54813767265
-7.40194966912
-7.2506028423
-7.09423348476
-6.93299751875
-6.76704845518
-6.59651230673
-6.42152307566
-2.02537825222
-1.9942826188
-2.00950613587
-2.06117403453
-2.1352317692
-2.22343322594
-2.31883750321
-2.41610655807
-2.51201882846
-2.60502986898
-2.69466546024
-2.78105632136
-2.8646210096
-2.94586981973
-3.02529850094
-3.103340035
-3.18034956982
-3.25660637712
-3.33232344338
-3.40765929441
-3.48272959313
-3.55761722738
-3.63238060516
-3.70706005943
-3.78168341863
-3.85626830458
-3.93082675552
-4.00536616104
-4.07989073145
-4.15440263651
-4.22890269733
-4.30339083626
-4.3778663518
-4.45232812387
-4.52677479149
-4.6012048009
-4.6756164097
-4.7500077203
-4.8243767156
-4.89872123473
-4.97303895329
-5.0473273867
-5.12158387658
-5.19580558512
-5.26998945199
-5.34413215891
-5.41823016131
-5.49227968068
-5.56627664042
-5.64021662864
-5.71409491558
-5.7879064339
-5.8616457617
-5.93530709768
-6.0088842356
-6.0823705268
-6.15575885326
-6.22904159193
-6.30221059443
-6.37525717196
-6.44817207019
-6.52094544219
-6.59356680103
-6.66602496299
-6.73830802837
-6.81040336526
-6.88229755532
-6.95397636125
-7.02542470982
-7.09662662917
-7.16756518213
-7.23822244116
-7.30857948002
-7.37861631049
-7.44831184602
-7.51764388344
-7.58658901154
-7.65512252733
-7.72321843077
-7.79084944569
-7.85798697129
-7.92460094997
-7.99065982518
-8.05613055275
-8.12097853814
-8.18516759213
-8.24865990056
-8.31141598864
-8.37339463264
-8.43455281438
-8.49484580179
-8.55422706884
-8.61264816816
-8.67005873669
-8.72640653313
-8.78163744101
-8.83569531331
-8.88852198773
-8.94005739122
-8.99023949735
-9.03900425274
-9.08628550125
-9.13201512723
-9.17612310892
-9.21853745492
-9.25918419341
-9.29798732286
-9.33486907503
-9.36974989756
-9.40254831172
-9.43318105446
-9.4615631709
-9.4876082657
-9.51122828942
-9.53233347388
-9.55083290675
-9.56663446016
-9.57964475859
-9.58976925061
-9.59691247217
-9.6009782621
-9.60186964499
-9.59948918779
-9.59373910954
-9.58452126149
-9.57173752863
-9.55528997846
-9.53508088364
-9.51101307416
-9.48298995353
-9.45091599776
-9.41469673061
-9.37423879075
-9.32945075302
-9.280242717
-9.22652666923
-9.16821728566
-9.10523154906
-9.03748919943
-8.96491348679
-8.88743077355
-8.80497177524
-8.71747132036
-8.62486934861
-8.52711206843
-8.42415168346
-8.31594914556
-8.20247446246
-8.08370981119
-7.9596516336
-7.83031362041
-7.69573136434
-7.55596631116
-7.41110985215
-7.26128749093
-7.10666071467
-6.94742737867
-6.78381961535
-6.61611033324
-6.44466100824
-2.02537828874
-1.99428266612
-2.00950627928
-2.06117406507
-2.13523179028
-2.22343330327
-2.31883753118
-2.41610655731
-2.51201884399
-2.60502986975
-2.69466544167
-2.7810563053
-2.86462100192
-2.94586981057
-3.02529848955
-3.10334002375
-3.1803495651
-3.256606381
-3.33232345175
-3.40765931692
-3.48272964203
-3.5576173017
-3.63238069434
-3.70706016655
-3.78168355305
-3.85626846276
-3.93082692215
-4.00536632654
-4.07989090366
-4.15440282516
-4.22890289851
-4.30339104041
-4.37786656318
-4.45232835364
-4.52677504235
-4.601205078
-4.67561672084
-4.75000806081
-4.8243770706
-4.89872160516
-4.97303935869
-5.04732784513
-5.12158437947
-5.19580610924
-5.26998999556
-5.34413274975
-5.41823081471
-5.4922803841
-5.56627737957
-5.64021740913
-5.71409574978
-5.78790733049
-5.86164671197
-5.93530809216
-6.00888527661
-6.08237162945
-6.15576003241
-6.2290428535
-6.30221193767
-6.37525859834
-6.44817358855
-6.52094706175
-6.59356852945
-6.66602680503
-6.73830998048
-6.8104054272
-6.88229974762
-6.95397871355
-7.0254272321
-7.09662930965
-7.16756800592
-7.23822540608
-7.3085825992
-7.37861961369
-7.44831534947
-7.51764757213
-7.58659287462
-7.65512659641
-7.72322274954
-7.7908540119
-7.85799174941
-7.92460592563
-7.99066501376
-8.05613598791
-8.12098425347
-8.18517359702
-8.24866617712
-8.31142251598
-8.37340143561
-8.43455994511
-8.49485326312
-8.55423483845
-8.61265625955
-8.67006718159
-8.72641532473
-8.78164655224
-8.83570477058
-8.8885318415
-8.94006764562
-8.99025011937
-9.0390152475
-9.08629693153
-9.13202704836
-9.1761355319
-9.21855037377
-9.25919766959
-9.29800146375
-9.33488392828
-9.369765484
-9.40256471945
-9.43319845467
-9.4615817024
-9.48762802541
-9.51124948736
-9.53235641142
-9.55085784548
-9.56666170921
-9.5796747336
-9.58980248242
-9.5969495598
-9.60101991596
-9.60191675172
-9.59954276082
-9.5938003995
-9.58459184315
-9.5718192397
-9.55538494626
-9.53519168078
-9.5111428725
-9.48314251439
-9.45109572498
-9.41490900506
-9.37448998995
-9.32974837565
-9.28059586567
-9.22694608992
-9.16871568172
-9.10582417702
-9.03819401521
-8.96575175794
-8.88842778045
-8.80615727757
-8.71888050936
-8.62654353531
-8.52909976079
-8.42650982302
-8.31874425248
-8.20578394985
-8.08762326689
-7.96427266021
-7.83576117312
-7.70214150221
-7.56349433041
-7.41993355496
-7.271612123
-7.11872812008
-6.96153270773
-6.8003389148
-6.63553987718
-6.46765130005
-2.00612990186
-1.9745665282
-1.99421146599
-2.0516573727
-2.13067080864
-2.22244970639
-2.32006754917
-2.41845545446
-2.51473731625
-2.60767148511
-2.69700425962
-2.78300848066
-2.8661845914
-2.94708397226
-3.02621842082
-3.10402288839
-3.18084747085
-3.25696355488
-3.33257572061
-3.40783477861
-3.48284978785
-3.55769821368
-3.63243409624
-3.707094285
-3.7817052502
-3.85628174042
-3.93083468521
-4.00537056265
-4.07989295054
-4.1544035754
-4.22890292947
-4.30339070373
-4.37786606972
-4.4523278357
-4.52677456968
-4.60120467523
-4.67561639997
-4.75000782812
-4.82437691643
-4.89872150413
-4.97303929103
-5.04732781313
-5.12158439608
-5.195806161
-5.26999005377
-5.34413280652
-5.41823088362
-5.49228047328
-5.56627747927
-5.64021750202
-5.71409582883
-5.78790740029
-5.86164677863
-5.93530814669
-6.00888530607
-6.08237163494
-6.15576002502
-6.22904283833
-6.30221191123
-6.37525855491
-6.44817352378
-6.52094697544
-6.59356842282
-6.66602668398
-6.73830984425
-6.8104052641
-6.88229955233
-6.95397849466
-7.02542699673
-7.09662905155
-7.16756770546
-7.23822503623
-7.30858214419
-7.37861908462
-7.44831477104
-7.51764694249
-7.58659216276
-7.6551257818
-7.72322183991
-7.79085301338
-7.85799064847
-7.9246047075
-7.99066366754
-8.05613448943
-8.12098259386
-8.18517179868
-8.2486642435
-8.3114203998
-8.37339909566
-8.43455740029
-8.49485053616
-8.55423190474
-8.61265308184
-8.67006375388
-8.72641165313
-8.78164259658
-8.83570049087
-8.88852725179
-8.94006276759
-8.99024493484
-9.0390097077
-9.08629103857
-9.13202084872
-9.1761290526
-9.21854360095
-9.25919058759
-9.29799413692
-9.33487643266
-9.36975783951
-9.40255697771
-9.4331907295
-9.4615741609
-9.48762076426
-9.51124263774
-9.53235024536
-9.55085265251
-9.56665780759
-9.57967252159
-9.58980243878
-9.59695226805
-9.60102610538
-9.60192732301
-9.59955874807
-9.59382301346
-9.58462261403
-9.57186004466
-9.55543797428
-9.53525949485
-9.51122861357
-9.4832500089
-9.45122942417
-9.41507427559
-9.37469329045
-9.32999726558
-9.28089948096
-9.2273153098
-9.16916327133
-9.10636544606
-9.03884714044
-8.96653811751
-8.88937271902
-8.80729069957
-8.72023773317
-8.62816609368
-8.53103630115
-8.42881736725
-8.32148944631
-8.20904461989
-8.09148962536
-7.96884936725
-7.84116944537
-7.70852131989
-7.5710074599
-7.42876775525
-7.28198706846
-7.13090356886
-6.97582032278
-6.81711839482
-6.65527580303
-6.49089780078
-1.96389711982
-1.932847707
-1.96277836083
-2.03255079084
-2.12171903672
-2.22059611892
-2.32247556527
-2.4229481539
-2.51987508093
-2.61262170894
-2.70135914935
-2.78662582158
-2.86907116838
-2.94931913624
-3.02790828058
-3.10527519203
-3.18175939535
-3.25761705093
-3.33303690025
-3.40815531383
-3.48306910234
-3.55784579631
-3.63253173146
-3.70715843505
-3.78174494407
-3.85630576535
-3.93084862959
-4.00537808345
-4.07989649136
-4.15440474645
-4.22890277199
-4.30338986616
-4.37786494356
-4.45232665602
-4.52677345979
-4.60120367818