/*--------------------------------*- C++ -*----------------------------------*\
| =========                 |                                                 |
| \\      /  F ield         | OpenFOAM: The Open Source CFD Toolbox           |
|  \\    /   O peration     | Version:  2106                                  |
|   \\  /    A nd           | Website:  www.openfoam.com                      |
|    \\/     M anipulation  |                                                 |
\*---------------------------------------------------------------------------*/
FoamFile
{
    version     2.0;
    format      ascii;
    arch        "LSB;label=32;scalar=64";
    class       volScalarField;
    location    "0.39";
    object      p;
}
// * * * * * * * * * * * * * * * * * * * * * * * * * * * * * * * * * * * * * //

dimensions      [0 2 -2 0 0 0 0];

internalField   nonuniform List<scalar> 
11200
(
150.105615816
147.177014168
146.063163574
145.53583272
145.168503508
144.873725684
144.612082386
144.363544219
144.119025716
143.87395701
143.625640744
143.372322038
143.112768739
142.846045165
142.571384408
142.28811307
141.995605421
141.693255617
141.38046503
141.056645791
140.721174387
140.373402067
140.012670722
139.638312718
139.249642646
138.845959292
138.426546477
137.99067373
137.537596993
137.06655931
136.576791368
136.067512072
135.537928726
134.987237168
134.414622595
133.819260608
133.200317183
132.556948817
131.88830299
131.193518547
130.471725969
129.722047614
128.943597865
128.135483198
127.296802135
126.42664493
125.524093227
124.588219231
123.618084657
122.612739125
121.571218129
120.492540151
119.375703
118.219678976
117.023408553
115.785792736
114.505682983
113.181868713
111.813061759
110.397875705
108.934802147
107.422178042
105.85814583
104.240604519
102.567144111
100.834959188
99.0407392485
97.1805244023
95.2495107126
93.2417836421
91.1499543286
88.9646634949
86.6737126664
84.2609157802
81.7041870633
78.9718663408
76.0163533685
72.7650705241
69.0642862486
64.3009805691
148.312573794
146.954399826
146.163428624
145.6634147
145.272426988
144.94854501
144.664024328
144.399422263
144.143934104
143.89141123
143.638026114
143.381264979
143.119390626
142.851126489
142.575472089
142.291592623
141.998750781
141.696263883
141.383473692
141.059718573
140.724348595
140.376688574
140.016094987
139.641899932
139.25340757
138.849910964
138.430691101
137.995015682
137.542139357
137.07130418
136.581739852
136.072663685
135.543281155
134.992791733
134.420382566
133.825229274
133.206497562
132.563343887
131.894915755
131.20035206
130.478783449
129.729332504
128.95111392
128.143234608
127.304793692
126.434882119
125.532582477
124.596968208
123.627102535
122.622036999
121.580809469
120.502441378
119.385934215
118.23026488
117.034379569
115.797186311
114.517545318
113.194256773
111.826046195
110.411544116
108.949263361
107.437568589
105.874636034
104.258402196
102.586499281
100.856186749
99.0642490245
97.206848836
95.2793469245
93.2760588044
91.1899158986
89.0119621097
86.7306503298
84.3308449091
81.7921508615
79.0860600208
76.1717743635
72.9914603075
69.4423290017
65.3295304097
147.317383345
146.663183085
146.110827652
145.673210333
145.3015871
144.979485983
144.690386646
144.420153023
144.159689892
143.903208171
143.646822663
143.387851477
143.124382414
142.8549884
142.578548312
142.29413355
142.000934566
141.698212918
141.385270516
141.061430734
140.726031771
140.378434269
140.017894524
139.643759044
139.255335914
138.851915638
138.432776894
137.997186295
137.544398201
137.07365488
136.584186904
136.075213924
135.545944717
134.995571591
134.423276697
133.828237912
133.209622115
132.5665863
131.898278819
131.203839416
130.482399585
129.73308287
128.955005053
128.147274321
127.3089914
126.439249168
125.537132487
124.60171766
123.632071406
122.627249565
121.586295289
120.508236503
119.392082634
118.236820167
117.041407145
115.804766039
114.525774788
113.203255401
111.835960108
110.422553048
108.961586921
107.45147488
105.890452703
104.27655151
102.607534015
100.880805969
99.0933258007
97.2414950927
95.3209999198
93.3266020581
91.25185228
89.0886881819
86.8270153384
84.4539183559
81.952676808
79.3014311836
76.4722088653
73.4333961425
70.1490174938
66.5960545566
146.767621881
146.404240696
146.004342954
145.635352867
145.29773652
144.989634321
144.704271007
144.433566725
144.1711939
143.912525351
143.654142837
143.393514632
143.128740751
142.85835382
142.581177714
142.296229934
142.002654243
141.699674597
141.386564066
141.062622969
140.727160635
140.379487156
140.018961568
139.644860965
139.25647476
138.853095343
138.434001143
137.998457528
137.545717755
137.07502307
136.585602902
136.076675093
135.547446691
134.997115815
134.424871941
133.829889553
133.211336288
132.56837009
131.900138241
131.205780933
130.484430476
129.735211401
128.957240943
128.149629187
127.31147911
126.441886535
125.539939945
124.60471998
123.635298713
122.630738542
121.590090371
120.512391708
119.39666368
118.241907148
117.0470978
115.811179979
114.533058498
113.211589094
111.845564458
110.433699166
108.974611448
107.466803632
105.908614488
104.298184687
102.633412558
100.91189945
99.1308700627
97.2870725006
95.3766539287
93.3950048171
91.3365685466
89.1946161137
86.9609163457
84.6254278978
82.1760624459
79.5987225021
76.8786636158
74.0061798586
70.9848711454
67.8519186734
146.433573605
146.201778272
145.900366153
145.589389403
145.284550156
144.992526896
144.713551239
144.444424756
144.181463644
143.921377565
143.661405908
143.399311077
143.133300403
142.861924708
142.583987252
142.298471081
142.004483656
141.701215916
141.387912735
141.063851751
140.728328351
140.380646475
140.020110031
139.646008618
139.257645265
138.854303732
138.435257223
137.999768673
137.54709001
137.076461935
136.587113957
136.078264597
135.549121401
134.998880813
134.426728672
133.831841131
133.213383711
132.570514154
131.902383358
131.208131674
130.486894069
129.737797334
128.959961116
128.152498451
127.314515469
126.445111886
125.543380805
124.608408476
123.639273782
122.635047404
121.594790463
120.517553341
119.402372522
118.248267655
117.054237195
115.819252834
114.542251406
113.222129948
111.857730259
110.447833353
108.991136105
107.48622644
105.931567135
104.325463583
102.666021948
100.951100281
99.1782510875
97.3446525316
95.4470253361
93.481535643
91.4436870928
89.3282155603
87.1290130625
84.8391613815
82.4512402886
79.9582411201
77.355967924
74.6488629487
71.8582866633
69.0349361512
146.230180715
146.054278814
145.813084395
145.545759032
145.268572461
144.991934447
144.720244795
144.453742812
144.19097676
143.929966366
143.668676537
143.40524005
143.138031297
142.86565935
142.586931274
142.300809376
142.006371704
141.702779014
141.389248771
141.065035398
140.729415765
140.381678259
140.021113725
139.647012637
139.258664586
138.855348892
138.436336118
138.000887185
137.548252492
137.077671525
136.588372799
136.079573989
135.550482114
135.000293737
134.428195347
133.833364156
133.214968594
132.572168408
131.904114766
131.209952258
130.488816749
129.739835607
128.962130315
128.154816944
127.317004796
126.447798198
125.546295878
124.611590942
123.642770662
122.638915945
121.59910059
120.52238927
119.407836443
118.254483739
117.06135672
115.827462009
114.551779585
113.233257995
111.870806273
110.463275271
109.009448665
107.508033814
105.957647113
104.356772406
102.703742508
100.996707592
99.2335969242
97.4120769316
95.5295079175
93.5829044397
91.5689107058
89.4838155086
87.3236529771
85.084482281
82.7630189181
80.357911574
77.8722280327
75.3181222109
72.7225418816
70.1325842903
146.107063465
145.951456019
145.745154642
145.50859315
145.253118726
144.98984007
144.725227609
144.461719518
144.199586387
143.938000186
143.675626707
143.410989276
143.142657979
142.869324179
142.589815667
142.303084875
142.008186953
141.704256217
141.39048485
141.066105162
140.730375574
140.382569927
140.021969627
139.647857333
139.259514361
138.856215046
138.437227106
138.00180927
137.549210434
137.078669235
136.589413834
136.080661842
135.551620568
135.00148731
134.429449756
133.834685998
133.216364911
132.573646998
131.905684475
131.211621217
130.49059282
129.741730513
128.964160646
128.157002453
127.319370667
126.450374915
125.549120331
124.614707872
123.646234326
122.642792084
121.603468695
120.527346429
119.413500964
118.260999715
117.068899528
115.836242674
114.562054825
113.245339612
111.885071859
110.480191625
109.029597742
107.532129869
105.986558582
104.391571268
102.745756157
101.047584043
99.2953907313
97.4873625791
95.6215301038
93.6957792066
91.707895955
89.6556746847
87.5371363794
85.3509487511
83.0971808812
80.7785905523
78.4027266088
75.985187005
73.5528466825
71.1450616179
146.032983273
145.88297337
145.696218299
145.480113758
145.240408768
144.98758874
144.728952867
144.468215765
144.206849823
143.94492846
143.681710635
143.416072751
143.146774152
142.872593498
142.592387233
142.305105524
142.009786948
141.705544308
141.391548247
141.067011812
140.731177277
140.383305548
140.022667905
139.648538942
139.260195248
138.856906042
138.437936333
138.002542814
137.549973028
137.07946482
136.590245962
136.081534005
135.552536451
135.002450819
134.430465008
133.835757563
133.217498241
132.574848017
131.906960075
131.212981145
130.492052597
129.74330833
128.965875219
128.15887628
127.321430728
126.452654006
125.55165839
124.617553475
123.649446418
122.646442368
121.607644806
120.532154797
119.419070771
118.267487714
117.076496706
115.845182413
114.572622711
113.257882531
111.900015536
110.498052042
109.051001132
107.557843058
106.017523156
104.428944338
102.790962265
101.102381586
99.3619568991
97.5684024878
95.7204171192
93.8167361201
91.8562274807
89.8380616609
87.7619931682
85.6288345391
83.4411994157
81.2046213281
78.9291364514
76.6313489965
74.335938006
72.0749106109
145.990706338
145.841258904
145.664843996
145.461106861
145.231575593
144.985868835
144.731510539
144.472873737
144.212168236
143.950074832
143.68627744
143.419918024
143.149904909
142.875089343
142.594354536
142.306652303
142.011010678
141.706527249
141.39235685
141.06769813
140.731781172
140.383856996
140.023189167
139.649047345
139.260700342
138.857417699
138.438461223
138.003085893
137.550538277
137.080055673
136.590865567
136.082185556
135.553223339
135.003176837
134.431234519
133.836575781
133.218371431
132.575784209
131.90796962
131.214076717
130.493245613
129.744613467
128.967312342
128.160469811
127.32321011
126.45465487
125.553923972
124.620136179
123.652409955
122.649864098
121.611618319
120.536793788
119.424513489
118.27390216
117.084087015
115.854196195
114.583360592
113.270709167
111.915375112
110.516488758
109.073178868
107.584571405
106.049790478
104.467959046
102.838204021
101.159665113
99.4315117732
97.6529729318
95.8233858133
93.9422777918
92.0094943886
90.0254027396
87.991198166
85.9093722869
83.7843716033
81.6234914953
79.4379819906
77.2442540909
75.0643511701
72.924451432
145.971429283
145.821551676
145.649589438
145.451655125
145.2270953
144.984977947
144.732844633
144.475337454
144.215011798
143.952851606
143.688761425
143.422025336
143.151633596
142.876478614
142.595459676
142.307530587
142.011714355
141.707100724
141.392836169
141.068111636
140.732150644
140.38419887
140.02351564
139.649367262
139.261021337
138.857744565
138.438797852
138.00343543
137.55090348
137.080439241
136.591270135
136.082613997
135.5536789
135.003663322
134.431756465
133.837138689
133.218981939
132.576450305
131.908700674
131.214882731
130.494141732
129.745617068
128.968443938
128.161754278
127.324677688
126.456342289
125.55587586
124.622406737
123.655064949
122.652983368
121.615298838
120.541153341
119.429695076
118.280079223
117.091470109
115.863042043
114.59398038
113.283482951
111.93076211
110.535048547
109.095590634
107.611661413
106.082564333
104.507641529
102.886287039
101.217966653
99.5022476611
97.7388436203
95.9276800218
94.0689947581
92.163480277
90.2125060931
88.2184123825
86.1849528249
84.1178352559
82.0254045876
79.9193840873
77.8155274218
75.7335238514
73.6952967164
145.971431221
145.821567078
145.649615768
145.451690666
145.227139267
144.985029559
144.732902957
144.475401684
144.215081261
143.952925752
143.688839815
143.42210764
143.151719564
142.876568074
142.595552518
142.307626768
142.011813869
141.707203613
141.392942525
141.068221601
140.732264415
140.384316706
140.023637904
139.649494438
139.261154082
138.857883573
138.438944021
138.003589883
137.551067594
137.080614451
136.591458528
136.082818029
135.553901566
135.003908256
134.432028067
133.837442279
133.219323908
132.576838451
131.909144504
131.215394335
130.494735028
129.74630908
128.969255437
128.162710512
127.325809325
126.45768659
125.557478027
124.624321687
123.657359359
122.655738144
121.618612182
120.545144363
119.434508416
118.285890531
117.098492103
115.871532953
114.60425292
113.295917703
111.945819686
110.553289992
109.117694383
107.638450931
106.115038204
104.547010398
102.934017485
101.275832287
99.5723877535
97.8238334414
96.0306150344
94.1935828804
92.3141657577
90.3946657226
88.4381967065
86.4493805616
84.4347329671
82.403155413
80.3664337311
78.3395850173
76.3405111298
74.3883044566
145.990712224
145.841305503
145.664923613
145.461214259
145.231708434
144.986024449
144.731686162
144.473066968
144.21237707
143.950297628
143.686512896
143.420165145
143.150162962
142.875357816
142.59463311
142.306940835
142.011309167
141.706835833
141.3926758
141.068027867
140.732122276
140.384210273
140.023555672
139.64942852
139.261098059
138.857834051
138.438898827
138.003547971
137.551028799
137.080579454
136.591428575
136.082795064
135.553888207
135.003907868
134.432044859
133.837481423
133.219391714
132.576942615
131.909294413
131.215601451
130.495013173
129.746675097
128.969729844
128.163318235
127.326580611
126.458658199
125.558694566
124.625837323
123.659239866
122.658063345
121.62147893
120.548670134
119.438835553
118.291191901
117.104977299
115.879456167
114.613922258
113.307706425
111.960179998
110.570765597
109.138950165
107.664286925
106.146419609
104.585100112
102.980213775
101.331816353
99.640193839
97.9059315597
96.1299185081
94.3135301268
92.4587436641
90.5682425107
88.6460037608
86.6972860325
84.7290807828
82.7505410569
80.7733398264
78.8118810158
76.8828808073
75.0037786005
146.032993339
145.883052332
145.696352901
145.480294903
145.240632358
144.987850142
144.729247386
144.468539366
144.207199159
143.945300806
143.682103837
143.416485164
143.147204571
142.873041091
142.592851486
142.305586208
142.010284083
141.706058139
141.392079235
141.067560671
140.731744998
140.383893466
140.0232777
139.649173076
139.260856415
138.857597847
138.438663095
138.003309853
137.550786852
137.080333396
136.591179041
136.082543508
135.55363684
135.003659701
134.431803768
133.83725222
133.219180441
132.576756606
131.909142584
131.215494768
130.494964982
129.746701601
128.969850725
128.163557448
127.326967238
126.459227584
125.559489646
124.62691024
123.660653909
122.659895369
121.623822036
120.551637318
119.442563685
118.295847005
117.110760436
115.886610747
114.622743342
113.318550433
111.973477795
110.587038594
109.15882312
107.688518691
106.175925074
104.620982111
103.023803977
101.384704937
99.7042397751
97.9832671931
96.2231078698
94.425576677
92.5931287353
90.7290256625
88.8375762745
86.9243825639
84.9966631003
83.0635897413
81.1366030006
79.229648395
77.3588573535
75.5411430845
146.107078162
145.951569574
145.745347382
145.508851522
145.253436556
144.990210552
144.725643993
144.462176079
144.200078421
143.938523903
143.676179127
143.411568132
143.143261616
142.869951457
142.590465888
142.303757736
142.008882488
141.704974756
141.391227011
141.066871899
140.731168247
140.383390406
140.022820343
139.648741461
139.260435675
138.857178422
138.438238499
138.002875953
137.550341306
137.079875233
136.590708376
136.082061358
135.553145024
135.003160838
134.431301328
133.836750577
133.218685051
132.576274262
131.9086816
131.21506534
130.494579575
129.746375389
128.969602113
128.163408826
127.326945833
126.459366459
125.559828987
124.627498869
123.661551073
122.661173012
121.625567333
120.553955915
119.445583577
118.299723375
117.115681351
115.892803367
114.630482851
113.328169293
111.985378422
110.601704929
109.176839486
107.710586237
106.202884042
104.653832862
103.063724589
101.433098171
99.7627884125
98.0539788272
96.3082810147
94.5278370585
92.7154452227
90.8747054448
89.0101993927
87.1277012586
85.2344402006
83.3393997808
81.4536591539
79.5907869411
77.7667928338
75.9990849955
146.23020081
146.054430768
145.813340582
145.546100529
145.268990533
144.992419797
144.720788469
144.454337356
144.191616135
143.930645749
143.669392168
143.405989084
143.138811665
142.866469633
142.587770612
142.30167739
142.007268396
141.703704696
141.390204036
141.066021132
140.730433082
140.382728838
140.02220177
139.648143704
139.259842957
138.856580023
138.437627154
138.002246956
137.549691855
137.079203943
136.590014973
136.081346493
135.552410156
135.002408211
134.430533989
133.83597247
133.217901027
132.575490306
131.907905062
131.214305235
130.49384699
129.74568398
128.968968588
128.162853538
127.326493555
126.459047273
125.55967942
124.627563251
123.661883244
122.661838204
121.626644622
120.555541116
119.447792694
118.302696689
117.119588912
115.897850428
114.636917586
113.336291092
111.995548594
110.614359059
109.192500317
107.729879139
106.226556928
104.682780084
103.099015324
101.475991312
99.8147512417
98.1167166677
96.3837625269
94.6183021124
92.8233906505
91.0028454787
89.1613903529
87.3048160937
85.4401838523
83.5760871017
81.7230400323
79.8941227667
78.1053656082
76.3754415845
146.433599932
146.201973631
145.900692424
145.589821186
145.28507546
144.993133516
144.714227861
144.445162194
144.182254585
143.922216238
143.662287864
143.400232989
143.134259895
142.862920214
142.585017916
142.299536656
142.005584369
141.70235231
141.389085488
141.065061703
140.729576811
140.381934278
140.021438908
139.647391628
139.259085991
138.855807542
138.436831975
138.001424385
137.548839009
137.07831926
136.589097895
136.08039729
135.551429871
135.001398615
134.429497609
133.834912745
133.216822404
132.574398325
131.906806465
131.213208081
130.492760856
129.744620497
128.96794196
128.161881156
127.325596712
126.458252008
125.559017489
124.627073243
123.661612114
122.661842932
121.626994326
120.556319626
119.449101724
118.30465916
117.122353743
115.901597627
114.641863406
113.342695777
112.00372566
110.624685215
109.205427665
107.745949378
106.246416568
104.707196826
103.128896591
101.512405417
99.8589468597
98.1701374674
96.448056188
94.6953210114
92.9151738584
91.1115726153
89.2892916219
87.4540280601
85.6125334981
83.7728021807
81.9444556839
80.1396483778
78.3738957691
76.6670528327
146.767654638
146.404483314
146.004742009
145.635875513
145.298366819
144.990356671
144.70507163
144.434434751
144.172120821
143.913504548
143.655169279
143.39458462
143.129851735
142.859504272
142.582367083
142.29745864
142.003923698
141.700987139
141.387922485
141.064030886
140.728626894
140.381027117
140.020547721
139.646496219
139.258172557
138.854866578
138.435857064
138.000411391
137.547785351
137.077223428
136.587959204
136.079215684
135.550205818
135.000133007
134.428191767
133.833568618
133.21544285
132.572987196
131.90536875
131.211750511
130.49129212
129.743150827
128.966483762
128.160449464
127.324209703
126.456931668
125.557790433
124.625971707
123.660675196
122.661118334
121.626539447
120.556203863
119.449409038
118.30549101
117.123832297
115.903870655
114.645110489
113.347133831
112.009615337
110.6323396
109.215221572
107.758330284
106.261916781
104.726447103
103.15264044
101.541513487
99.8944312069
98.2131636806
96.4999487398
94.7575588395
92.9893699714
91.1994288994
89.3925120556
87.5741711254
85.7507706577
83.9295280203
82.1187461135
80.328806562
78.5729251235
76.8697551346
147.317427537
146.663487326
146.111309721
145.673829391
145.302323528
144.980320901
144.691304071
144.421140627
144.160738123
143.904309606
143.647971602
143.389043612
143.125614554
142.856258266
142.579854426
142.295475272
142.002312457
141.699629601
141.386730933
141.062941196
140.727592484
140.380014761
140.019529264
139.645455975
139.257099589
138.853753202
138.434698139
137.999203639
137.546526956
137.075913566
136.586597769
136.077803229
135.548743482
134.998622493
134.426635296
133.831968548
133.213800604
132.571305508
131.90365131
131.210001313
130.489516002
129.741354706
128.964676478
128.158641976
127.322415541
126.455167458
125.556076478
124.624332733
123.659141279
122.659725231
121.625331853
120.555235697
119.448745661
118.3052117
117.124032701
115.904665909
114.646637825
113.349558834
112.013137008
110.637196692
109.221699727
107.766770472
106.27272482
104.740104092
103.169713806
101.562667789
99.9204377809
98.2449077317
96.5384310077
94.8038936837
93.044769448
91.2651684745
89.4698639146
87.6642849008
85.8544489146
84.046744231
82.247831995
80.4652720637
78.7061790981
76.9792494822
148.312665015
146.954849218
146.164102919
145.664261067
145.27342236
144.949668725
144.665259564
144.400756171
144.145356745
143.892914838
143.639604602
143.382913504
143.121105161
142.852903388
142.577307683
142.293482826
142.000690575
141.698246497
141.385493492
141.061783138
140.726456118
140.378863128
140.018352466
139.644240933
139.255836983
138.852437076
138.433324186
137.997766605
137.545023175
137.07434095
136.584954815
136.076088774
135.546956638
134.996762661
134.42470226
133.829963026
133.211726272
132.569164837
131.901446931
131.207736788
130.487195956
129.738984356
128.962262054
128.156191069
127.319937457
126.452673617
125.55358082
124.621852246
123.65669665
122.657341998
121.623040208
120.553072574
119.44675547
118.303448158
117.12256071
115.903564177
114.646002385
113.349504208
112.013800566
110.638743116
109.22432591
107.770710946
106.278257706
104.747557355
103.179471947
101.575178753
99.9362194849
98.264552196
96.5626034706
94.8333479776
93.0803338088
91.3077293919
89.5203398082
87.7235826909
85.9233552861
84.125524572
82.3356203999
80.5584058786
78.7886843519
76.9969519871
150.105773491
147.177675916
146.06414841
145.53707844
145.169979933
144.875408309
144.613952805
144.365589095
144.121235411
143.876324746
143.628162076
143.374994524
143.115591801
142.849020113
142.574514538
142.291403714
141.999063858
141.696890416
141.384280975
141.060628286
140.725327184
140.377738061
140.017192191
139.643024523
139.254553044
138.851078625
138.431887493
137.996254553
137.543437648
137.072682202
136.583223122
136.074284559
135.54508039
134.994814916
134.422683555
133.827873605
133.209565176
132.566932214
131.89914355
131.205363783
130.484754792
129.736477151
128.959691659
128.153561107
127.317252441
126.449939171
125.550803914
124.619041545
123.653862609
122.654497509
121.620200698
120.550256941
119.443986684
118.300753932
117.119974415
115.901125801
114.643759374
113.347514142
112.012132737
110.637480485
109.223567589
107.770575134
106.278885197
104.749115419
103.182158562
101.579227013
99.9419023371
98.2721920589
96.5725933686
94.8461119034
93.0963530402
91.3275539968
89.5446040973
87.753022306
85.9588547898
84.1685986681
82.3886748659
80.6238666216
78.853714401
76.9537647191
56.9069236619
53.3547953339
50.9633593688
49.005944982
47.3339111141
45.8770870582
44.5914885897
43.4474092009
42.4231753315
41.5020393427
40.6705932953
39.9178300053
39.2345457174
38.6129396311
38.046330396
37.5289475901
37.0557732686
36.6224187194
36.2250267058
35.8601925099
35.5248994868
35.2164655827
34.9324987119
34.6708590292
34.4296270397
34.2070764289
34.0016509812
33.8119447042
33.6366845288
33.4747152431
33.3249863171
33.1865403425
33.0585030266
32.9400744831
32.8305215598
32.7291706968
32.6354015616
32.5486413938
32.4683605993
32.3940679566
32.3253053065
32.2616419659
32.2026690318
32.1480049583
32.0973864424
32.0508293386
32.0078956203
31.9682210335
31.9314622832
31.8973992371
31.8658363379
31.8365864688
31.8094675012
31.7843137995
31.7610081688
31.7394120769
31.7193565494
31.7007142103
31.6833698298
31.6672287459
31.6521922155
31.6381575635
31.6250298499
31.6127341193
31.6012018173
31.5903681613
31.5801693684
31.570548788
31.5614553267
31.5528371929
31.5446518147
31.5368550543
31.5294114776
31.5222928075
31.5154648665
31.5089016755
31.502576918
31.4964674346
31.4905529572
31.4848095705
31.4792194398
31.4737662032
31.4684340664
31.463210621
31.4580858342
31.4530560445
31.4481041778
31.4432229056
31.4384019696
31.4336297381
31.4288998087
31.4242095984
31.4195711988
31.4149625851
31.410369846
31.4057867573
31.4012088023
31.3966317511
31.3920514571
31.3874640796
31.3828659554
31.3782537295
31.3736240832
31.3689737158
31.3642992736
31.3595975761
31.3548656022
31.3501004854
31.3452996069
31.3404605591
31.3355812164
31.3306595073
31.3256933984
31.320680835
31.3156197887
31.3105083501
31.3053449043
31.3001282908
31.2948578209
31.2895329933
31.2841531624
31.2787165936
31.2732168867
31.2676330099
31.2619087847
31.2560051188
31.2507350629
31.2456256395
31.2402843852
31.2349260123
31.2296388904
31.2244739077
31.2194740555
31.214695956
31.2101953578
31.2060282151
31.2022438588
31.1988815211
31.1959479426
31.1934150492
31.1914702815
31.1896961535
31.1880747261
31.1859664629
31.1817111654
31.1711049051
31.1441148395
31.0791315807
30.9349696795
30.6411533444
30.092523859
29.1563422236
27.7000251607
25.6308317091
22.9226716149
19.6315565967
15.875964568
11.6240920152
6.60072156626
1.56959269335
60.0882726691
56.0354598546
53.3234762125
51.1711215806
49.3691796895
47.819241564
46.4630944912
45.2635034836
44.1942928478
43.2358284954
42.3727693845
41.5927698052
40.8856733497
40.2429881971
39.6575221773
39.1231221633
38.6344786353
38.1869786282
37.7765892272
37.3997669074
37.0533828169
36.7346640977
36.4411427319
36.1706156816
35.9211088017
35.6908490528
35.478238889
35.2818360042
35.1003341285
34.9325486083
34.7774017
34.6339112963
34.5011799474
34.3783866527
34.2647791892
34.1596664152
34.0624113968
33.9724280961
33.8891771598
33.8121597851
33.7409161405
33.6750267593
33.6141099204
33.5578156475
33.5057949452
33.4575596061
33.4128956806
33.3715748014
33.3333593195
33.2980157087
33.2653210018
33.235064866
33.207047254
33.1810882757
33.157032209
33.1347206722
33.1140222806
33.0947693422
33.0768681036
33.0601950579
33.0446717752
33.030191927
33.0166606147
33.0040022446
32.9921418212
32.9810149269
32.9705542653
32.9606964126
32.9513867325
32.9425745118
32.9342138645
32.9262572002
32.9186768726
32.9114322568
32.904500466
32.8978357743
32.8914257233
32.8852397647
32.8792576455
32.8734577078
32.8678164653
32.862319641
32.8569522962
32.8517005089
32.8465470589
32.8414723629
32.8364714466
32.8315354132
32.8266583503
32.8218306476
32.8170435983
32.8122884513
32.8075550274
32.8028388776
32.7981372037
32.7934469534
32.7887640778
32.7840835727
32.7794016966
32.7747149197
32.7700194099
32.7653118776
32.7605890839
32.7558479359
32.751084934
32.7462968514
32.7414808499
32.7366339564
32.731753355
32.7268369293
32.721882171
32.7168872082
32.7118497915
32.7067679155
32.7016394672
32.6964628442
32.6912363113
32.6859596141
32.6806327037
32.6752567759
32.6698334894
32.6643659846
32.6588587446
32.6533216212
32.6477814075
32.642257554
32.6367927135
32.6310413312
32.6255478686
32.6201932732
32.6149156079
32.6098145786
32.6049324505
32.6003319173
32.596080894
32.5922497771
32.5889050841
32.5861002841
32.5838502095
32.5822172247
32.5811645193
32.5805439991
32.5800697657
32.5789144509
32.5748974181
32.562832304
32.5306997328
32.4536317635
32.2854724994
31.9494218117
31.3342094532
30.3041085306
28.7296498677
26.5279113651
23.6846820128
20.2604829898
16.3717881094
12.0020337964
6.88977516641
1.70311686125
62.2957053128
58.3622649295
55.4951148431
53.2111876003
51.3092277156
49.6827582462
48.2667472687
47.019179179
45.9106300088
44.919237761
44.0281040122
43.2237744558
42.4952909538
41.8335739469
41.2309949033
40.6810730606
40.1782500165
39.717721499
39.2953057064
38.9073416382
38.5506064229
38.222250783
37.919743522
37.6408285023
37.3834863639
37.1459048164
36.9264517038
36.7236538844
36.5361772861
36.3628117083
36.2024559169
36.0541060777
35.9168446853
35.7898318469
35.6722975066
35.5635340694
35.4628891299
35.3697614729
35.2835973463
35.2038840998
35.130146285
35.0619455565
34.9988762683
34.9405612433
34.8866546548
34.836758096
34.7904841765
34.7476955407
34.7081395561
34.6715585453
34.6377211663
34.6064114123
34.5774237376
34.5505768271
34.5257161333
34.5026719641
34.4813117284
34.4614672466
34.4430245623
34.4258689001
34.4099032416
34.3950198636
34.3811213516
34.3681283279
34.3559648697
34.3445541276
34.3338347595
34.3237417555
34.3142191389
34.305210506
34.2966739663
34.2885631221
34.2808366309
34.2734594868
34.2663969326
34.2596227325
34.2531086982
34.2468274659
34.2407580937
34.2348753355
34.2291575387
34.223587859
34.2181442447
34.2128140818
34.2075895011
34.2024607231
34.1974148784
34.192439592
34.187527824
34.1826692532
34.1778537898
34.1730755913
34.1683277109
34.1636018804
34.1588916062
34.1541921208
34.1494986131
34.144805873
34.140110025
34.1354075328
34.1306941597
34.1259664752
34.1212211421
34.1164551043
34.1116647997
34.1068468986
34.1019985602
34.0971169774
34.0921993591
34.0872436297
34.0822474643
34.0772090628
34.0721262891
34.0669972198
34.0618198502
34.0565929426
34.0513150329
34.0459861927
34.040606884
34.0351788925
34.0297047743
34.0241890032
34.0186377562
34.0130619319
34.0074797678
34.0018886965
33.996312385
33.9907857327
33.9853069546
33.9799667164
33.9745684025
33.969469494
33.9646671792
33.9602170288
33.956181719
33.9526509981
33.9497092962
33.9474217699
33.945798694
33.9448820569
33.9446863223
33.9450142393
33.9454702785
33.9449726148
33.9407654589
33.9266206816
33.8885062114
33.7982875982
33.6050439402
33.226134867
32.5450175674
31.4239306076
29.7369653948
27.410311758
24.4398798225
20.8888785262
16.8704632507
12.3825553236
7.17846685654
1.83443982788
64.0998822886
60.3751691888
57.4711838371
55.1160086325
53.1459238462
51.4615901259
49.9978445814
48.7108058764
47.5692241168
46.5497726786
45.6344361398
44.8089236274
44.0616533483
43.3830802089